G5NPncore-PETIM in water
129223
    1aaa     N1    1   5.910   7.151   6.989 -0.1782 -0.5489 -0.3944
    1aaa     C1    2   5.871   7.157   6.847  0.6037 -0.1650 -0.1634
    1aaa     H1    3   5.762   7.139   6.848  0.4711  0.5745 -0.3667
    1aaa     H2    4   5.878   7.254   6.797  1.4556 -0.6309 -0.9861
    1aaa     C2    5   5.858   7.034   7.065 -0.2335  0.9414  0.2633
    1aaa     H3    6   5.752   7.046   7.092 -1.1448  0.1914 -2.6246
    1aaa     H4    7   5.847   6.942   7.006 -2.8927  0.2623  1.6741
    1aaa     C3    8   5.887   7.271   7.067  0.4892 -0.9708  0.0930
    1aaa     H5    9   5.784   7.308   7.057  0.6591  0.1130  1.9464
    1aaa     H6   10   5.905   7.259   7.174  1.8902  0.5346  0.0639
    1aaa     C4   11   5.983   7.380   7.011 -0.2849 -0.2696  0.0009
    1aaa     H7   12   5.964   7.401   6.904 -0.8175 -1.2601 -0.1074
    1aaa     H8   13   5.944   7.472   7.058 -1.5921 -0.6375 -0.3093
    1aaa     C5   14   5.934   7.048   6.764  0.4016  0.6188  0.0534
    1aaa     H9   15   5.922   6.953   6.818 -1.0812 -0.1846 -1.5574
    1aaa    H10   16   5.876   7.042   6.671 -0.3109 -2.4709  0.5690
    1aaa     C6   17   5.956   6.993   7.183  0.5116 -0.4285  0.2637
    1aaa    H11   18   5.937   7.072   7.256 -3.1256 -0.6356 -0.2861
    1aaa    H12   19   5.931   6.891   7.215  0.9026 -0.9266 -0.9525
    1aaa     C7   20   6.107   7.002   7.154 -0.2247  0.3544 -0.5729
    1aaa    H13   21   6.139   6.934   7.074  2.7300  1.5415 -0.5531
    1aaa    H14   22   6.124   7.106   7.126  3.1193  0.0710 -0.0274
    1aaa     C8   23   6.138   7.347   7.021  0.1745 -0.0779  0.3826
    1aaa    H15   24   6.165   7.322   7.124 -0.7129 -2.3878  0.1364
    1aaa    H16   25   6.154   7.255   6.962 -0.8024 -0.7718  1.1609
    1aaa     C9   26   6.080   7.068   6.746 -0.2151  0.2019 -0.1646
    1aaa    H17   27   6.101   7.161   6.690 -2.2029  0.9584  0.2782
    1aaa    H18   28   6.109   7.080   6.851 -2.5419 -0.1451  0.5504
    2bbb     N1   29   6.602   6.977   7.512 -0.1731 -0.4166 -0.2172
    2bbb     C1   30   6.742   6.912   7.510 -0.3351 -0.2051 -0.1599
    2bbb     H1   31   6.774   6.891   7.613 -0.6371 -1.7253 -0.3453
    2bbb     H2   32   6.804   6.994   7.474 -0.0113 -0.1535  0.5036
    2bbb     C2   33   6.602   7.108   7.586  0.0142 -0.2703  0.0678
    2bbb     H3   34   6.506   7.161   7.584  0.3762  0.3983  0.0733
    2bbb     H4   35   6.678   7.164   7.530  1.9543 -1.3726  1.4595
    2bbb     C3   36   6.534   6.978   7.384 -1.2068 -0.1281  0.2362
    2bbb     H5   37   6.547   6.883   7.331  0.0205  0.2801 -0.2128
    2bbb     H6   38   6.576   7.059   7.324 -3.5035  1.4940  0.6959
    2bbb     C4   39   6.387   6.984   7.400 -0.0887 -0.0270 -0.5170
    2bbb     H7   40   6.361   7.081   7.443 -0.5394  0.7743 -2.4835
    2bbb     H8   41   6.357   6.908   7.473  1.2612  0.9939  1.2117
    2bbb     C5   42   6.760   6.775   7.434  0.4203 -0.6551  0.2118
    2bbb     H9   43   6.863   6.751   7.460  0.6321  0.1255  0.1067
    2bbb    H10   44   6.757   6.787   7.325  1.7670 -0.7074  0.1548
    2bbb     C6   45   6.632   7.083   7.738 -0.4080 -0.6282 -0.5459
    2bbb    H11   46   6.730   7.035   7.748  0.0715  0.0876 -1.5888
    2bbb    H12   47   6.552   7.016   7.774  0.8655 -2.7979 -1.5663
    2bbb     C7   48   6.320   6.974   7.266 -0.2340 -0.7662 -0.1563
    2bbb    H13   49   6.350   6.882   7.214 -2.6402 -2.2745  0.9566
    2bbb    H14   50   6.345   7.059   7.203  2.3279 -2.5017 -1.6797
    2bbb     C8   51   6.636   7.225   7.808  0.5932  0.0722  0.6212
    2bbb    H15   52   6.693   7.298   7.748 -1.9330  1.4003 -0.3098
    2bbb    H16   53   6.673   7.222   7.911  0.9942 -1.8646  0.4546
    2bbb     C9   54   6.663   6.657   7.462  0.4667  0.2165  0.0531
    2bbb    H17   55   6.669   6.594   7.372 -2.6122 -0.1978  0.0355
    2bbb    H18   56   6.563   6.699   7.482 -0.9567 -2.7979 -0.2307
    2bbb     O1   57   6.179   6.974   7.273 -0.3579  0.3805  0.1071
    3bbb     N1   58   6.283   7.815   6.786 -0.0902  0.2194 -0.8002
    3bbb     C1   59   6.256   7.952   6.780  0.4213 -0.2460 -0.4330
    3bbb     H1   60   6.151   7.961   6.748  0.3960  0.6121 -0.1377
    3bbb     H2   61   6.316   8.003   6.704 -0.3080  0.4833 -0.5407
    3bbb     C2   62   6.266   7.733   6.663 -0.3637  0.2785  1.2540
    3bbb     H3   63   6.159   7.725   6.641 -0.4865  1.0718  1.5265
    3bbb     H4   64   6.294   7.628   6.676 -0.0333  0.1381 -0.3756
    3bbb     C3   65   6.212   7.752   6.900 -0.4913  0.4697 -0.2905
    3bbb     H5   66   6.137   7.689   6.850  0.3756  1.0232 -2.3853
    3bbb     H6   67   6.142   7.820   6.952 -1.2850  0.2927 -1.1031
    3bbb     C4   68   6.307   7.674   7.005  0.3176 -0.0391  0.4399
    3bbb     H7   69   6.347   7.749   7.075  0.1502  0.6238 -0.1617
    3bbb     H8   70   6.395   7.635   6.954  0.7777  1.2344  0.2133
    3bbb     C5   71   6.269   8.040   6.911 -0.1066  0.4940 -0.0875
    3bbb     H9   72   6.233   7.988   7.002 -0.5255 -0.4348 -0.7651
    3bbb    H10   73   6.219   8.135   6.892  1.8437  1.7523  0.7176
    3bbb     C6   74   6.356   7.792   6.550  0.5626  0.2954  0.0145
    3bbb    H11   75   6.430   7.862   6.592  1.2634 -0.0578 -0.6091
    3bbb    H12   76   6.296   7.846   6.477 -1.3483  0.9751  1.9780
    3bbb     C7   77   6.236   7.554   7.069 -0.2020 -1.2780 -0.7165
    3bbb    H13   78   6.149   7.597   7.121  0.1552  0.3842 -1.4552
    3bbb    H14   79   6.306   7.512   7.142  0.1395  0.0869 -0.2289
    3bbb     C8   80   6.428   7.672   6.481 -0.1972 -0.0599 -0.5362
    3bbb    H15   81   6.348   7.607   6.444 -2.5486 -0.0501  3.8631
    3bbb    H16   82   6.492   7.616   6.551 -1.0482 -2.1726 -1.3616
    3bbb     C9   83   6.417   8.086   6.920 -0.0665  0.1837  0.2136
    3bbb    H17   84   6.451   8.133   6.827 -0.1240 -0.8105 -0.3320
    3bbb    H18   85   6.482   7.998   6.931 -1.5095 -0.8271  0.8739
    3bbb     O1   86   6.199   7.465   6.966 -0.8496  0.7034 -0.5743
    4bbb     N1   87   6.545   6.794   6.824  0.1994  0.4314 -0.3633
    4bbb     C1   88   6.686   6.843   6.838 -0.2551 -0.1524 -0.7030
    4bbb     H1   89   6.722   6.876   6.936 -0.7310  1.1662 -0.9534
    4bbb     H2   90   6.700   6.927   6.769  0.5172  1.9439  1.8357
    4bbb     C2   91   6.502   6.678   6.907  0.3035  0.7393  1.0558
    4bbb     H3   92   6.559   6.590   6.873  0.4722  1.8630 -1.8976
    4bbb     H4   93   6.396   6.657   6.893  0.2812  1.5787 -0.3079
    4bbb     C3   94   6.495   6.789   6.691 -0.3264 -0.4963 -0.3633
    4bbb     H5   95   6.529   6.699   6.637 -0.3528  0.1544 -1.4976
    4bbb     H6   96   6.538   6.875   6.638  0.2257 -0.0549  0.7628
    4bbb     C4   97   6.345   6.806   6.677 -0.5931  0.0325  0.2253
    4bbb     H7   98   6.283   6.730   6.727 -1.3079  1.8928  2.3522
    4bbb     H8   99   6.336   6.798   6.568  0.5755 -3.3329  0.2578
    4bbb     C5  100   6.784   6.734   6.805 -0.6800  0.2515  0.7020
    4bbb     H9  101   6.763   6.680   6.711  0.1545 -0.7434  1.0578
    4bbb    H10  102   6.777   6.658   6.884 -1.4025  0.3965  0.7873
    4bbb     C6  103   6.528   6.706   7.059 -0.2509  0.3605  0.0255
    4bbb    H11  104   6.475   6.799   7.081 -0.8277 -0.2914  1.5516
    4bbb    H12  105   6.634   6.713   7.085 -1.0519 -0.7427  4.3805
    4bbb     C7  106   6.288   6.946   6.723  0.4027  0.5898 -0.5718
    4bbb    H13  107   6.345   7.026   6.674 -1.1541  2.0343 -0.1114
    4bbb    H14  108   6.304   6.949   6.832 -0.6834 -0.9217 -0.3289
    4bbb     C8  109   6.471   6.595   7.154  0.6115 -0.6042  0.0836
    4bbb    H15  110   6.369   6.561   7.128  0.3621 -1.4515  1.9924
    4bbb    H16  111   6.479   6.646   7.250 -0.2111  0.6902 -0.4982
    4bbb     C9  112   6.926   6.780   6.794  0.4362  0.4750  0.2546
    4bbb    H17  113   6.986   6.690   6.774 -1.0142 -0.6696  0.9127
    4bbb    H18  114   6.971   6.819   6.886  0.3944 -2.0647  1.4275
    4bbb     O1  115   6.147   6.948   6.699  0.3660 -0.1312  0.4730
    5bbb     N1  116   6.220   7.472   7.554 -0.7515  0.4388 -0.2719
    5bbb     C1  117   6.243   7.605   7.508 -0.1640  1.1627  0.3766
    5bbb     H1  118   6.294   7.603   7.411 -0.0901 -2.1709  0.3737
    5bbb     H2  119   6.311   7.652   7.579  1.8889 -1.0457 -0.0030
    5bbb     C2  120   6.175   7.382   7.439 -0.1081  0.3973 -0.1915
    5bbb     H3  121   6.268   7.355   7.387  1.4189  2.1477  1.4933
    5bbb     H4  122   6.113   7.440   7.370  0.2310  0.7969 -0.1687
    5bbb     C3  123   6.330   7.399   7.636 -0.0865 -1.0802  0.4597
    5bbb     H5  124   6.403   7.347   7.574 -0.6690 -0.5409 -0.6969
    5bbb     H6  125   6.285   7.313   7.686 -0.6857 -0.2956  1.3107
    5bbb     C4  126   6.401   7.486   7.740 -0.7539  0.4802 -0.8390
    5bbb     H7  127   6.334   7.552   7.796 -1.1736  0.4013 -1.2360
    5bbb     H8  128   6.475   7.554   7.696 -0.8765  0.3624 -1.2378
    5bbb     C5  129   6.103   7.677   7.496  0.1049  0.7338 -0.7166
    5bbb     H9  130   6.047   7.646   7.585 -0.3192 -0.1506 -1.2801
    5bbb    H10  131   6.041   7.632   7.417  0.5728 -1.3791  0.0460
    5bbb     C6  132   6.102   7.259   7.491  0.1511  0.0543  0.1821
    5bbb    H11  133   6.158   7.216   7.575 -1.5268 -1.7844  0.4325
    5bbb    H12  134   6.096   7.182   7.413  0.0452  0.6140 -0.3697
    5bbb     C7  135   6.480   7.410   7.846 -0.2774  0.7075 -0.2871
    5bbb    H13  136   6.417   7.404   7.935 -4.1416  0.8407 -2.7866
    5bbb    H14  137   6.574   7.464   7.866  1.1077 -1.6931  0.0299
    5bbb     C8  138   5.958   7.295   7.528 -0.4525  0.4201 -0.5949
    5bbb    H15  139   5.968   7.347   7.624  0.2134 -0.9543  0.1156
    5bbb    H16  140   5.893   7.210   7.552 -2.4499  1.9036 -0.5383
    5bbb     C9  141   6.116   7.828   7.480  0.2799  0.3990  0.5375
    5bbb    H17  142   6.014   7.870   7.483 -0.2616 -0.9019  1.3678
    5bbb    H18  143   6.162   7.838   7.381  0.5913 -2.6090  0.2690
    5bbb     O1  144   6.506   7.275   7.802  0.2435  0.2916  0.6884
    6bbb     N1  145   6.531   6.148   7.486 -0.8581  0.1413  0.5269
    6bbb     C1  146   6.665   6.098   7.434  0.1154  0.0673  0.3512
    6bbb     H1  147   6.708   6.173   7.367 -1.9791  0.6805 -0.3925
    6bbb     H2  148   6.656   6.000   7.385  4.4630 -1.2536  1.7314
    6bbb     C2  149   6.441   6.038   7.529  0.4432  0.1867  0.1409
    6bbb     H3  150   6.360   6.074   7.594  1.6695  1.2407  1.1399
    6bbb     H4  151   6.488   5.962   7.593 -0.7610 -0.6526  0.0590
    6bbb     C3  152   6.529   6.265   7.582  0.3254 -0.9391  0.6883
    6bbb     H5  153   6.596   6.247   7.667  0.1733  1.3273  1.3387
    6bbb     H6  154   6.428   6.278   7.623  0.2657  1.2562 -0.0324
    6bbb     C4  155   6.574   6.401   7.517  0.0846 -0.1787 -0.4175
    6bbb     H7  156   6.495   6.446   7.457 -0.9341  0.5242  1.3618
    6bbb     H8  157   6.659   6.379   7.452 -0.3064  0.7138 -1.2478
    6bbb     C5  158   6.770   6.054   7.548 -0.4173 -1.1480 -0.1852
    6bbb     H9  159   6.720   5.991   7.622 -0.0102  1.3294  2.3688
    6bbb    H10  160   6.811   6.140   7.601  1.0487 -1.6975 -0.3695
    6bbb     C6  161   6.381   5.958   7.406  0.2101  0.2218  0.2779
    6bbb    H11  162   6.463   5.904   7.357 -0.4309 -1.8018  1.3414
    6bbb    H12  163   6.330   6.023   7.333  0.1007  0.7981  0.8516
    6bbb     C7  164   6.600   6.510   7.622  0.0888 -0.3476  0.5683
    6bbb    H13  165   6.623   6.460   7.717  0.5149 -1.6705 -0.2025
    6bbb    H14  166   6.510   6.569   7.641  1.3114  1.8626 -0.2066
    6bbb     C8  167   6.274   5.855   7.451  0.6251  0.4282  0.3983
    6bbb    H15  168   6.203   5.898   7.522 -0.5205  0.0202 -0.4800
    6bbb    H16  169   6.325   5.767   7.491  0.5015  0.1280 -0.0874
    6bbb     C9  170   6.896   5.981   7.491 -0.5039 -0.1311  0.8671
    6bbb    H17  171   6.973   5.977   7.569  0.5026 -2.4875 -0.1355
    6bbb    H18  172   6.933   6.026   7.398 -0.1968 -1.8933  0.0826
    6bbb     O1  173   6.703   6.594   7.580  0.5619  0.7934 -0.0300
    7bbb     N1  174   6.851   7.634   6.019 -0.8007  0.0734  0.2332
    7bbb     C1  175   6.926   7.512   5.964 -0.1337 -0.7570  0.5484
    7bbb     H1  176   6.984   7.534   5.874 -0.7087 -0.8297  0.1521
    7bbb     H2  177   6.855   7.432   5.937 -0.2289 -0.6959  0.6222
    7bbb     C2  178   6.783   7.708   5.899  1.0861  0.5224  0.2143
    7bbb     H3  179   6.726   7.792   5.939 -0.6480  1.1808 -3.2302
    7bbb     H4  180   6.722   7.642   5.835  1.4422  0.1485  0.2568
    7bbb     C3  181   6.756   7.589   6.119 -0.3155 -0.0841 -0.7737
    7bbb     H5  182   6.809   7.523   6.189  1.8895  1.6190 -0.7178
    7bbb     H6  183   6.671   7.543   6.068 -0.9251  1.9418 -1.6755
    7bbb     C4  184   6.691   7.706   6.197  0.1903 -0.0676  1.3018
    7bbb     H7  185   6.631   7.766   6.128  2.7860 -0.3784 -1.4141
    7bbb     H8  186   6.758   7.775   6.249 -2.3412  1.0860  3.2281
    7bbb     C5  187   7.036   7.460   6.056 -0.0862 -0.5261  0.0810
    7bbb     H9  188   7.081   7.374   6.005  1.1869  0.0140  0.2560
    7bbb    H10  189   6.992   7.422   6.149 -0.8829 -1.1075 -0.5186
    7bbb     C6  190   6.878   7.783   5.800 -0.0335  0.6264 -0.0113
    7bbb    H11  191   6.905   7.720   5.715 -0.9483  1.1686 -0.7324
    7bbb    H12  192   6.971   7.782   5.858 -0.3374 -2.3591  0.5564
    7bbb     C7  193   6.601   7.630   6.303 -0.1921 -0.3267  0.5119
    7bbb    H13  194   6.657   7.577   6.380  0.4384 -0.9815 -0.3755
    7bbb    H14  195   6.533   7.565   6.246  1.0051 -1.2579  0.1175
    7bbb     C8  196   6.823   7.921   5.753 -0.3770 -0.8325  0.2017
    7bbb    H15  197   6.816   7.999   5.830 -0.1406  0.6323 -1.2120
    7bbb    H16  198   6.723   7.917   5.708 -0.9490  2.9544  0.7785
    7bbb     C9  199   7.146   7.560   6.098  0.8872  0.6341 -0.0203
    7bbb    H17  200   7.217   7.507   6.162  2.7296  0.1912 -2.2882
    7bbb    H18  201   7.105   7.648   6.149 -0.7431 -0.4754  0.6822
    7bbb     O1  202   6.513   7.722   6.374 -0.3069 -0.1985  0.4953
    8bbb     N1  203   6.571   8.469   7.323  0.0919  0.2750 -0.2846
    8bbb     C1  204   6.490   8.594   7.313 -0.3748  0.2325  0.6500
    8bbb     H1  205   6.525   8.661   7.392 -0.2431  1.0735 -0.1076
    8bbb     H2  206   6.385   8.570   7.335 -0.0397 -0.6525  1.3399
    8bbb     C2  207   6.547   8.400   7.451 -0.5797  0.1390 -0.2779
    8bbb     H3  208   6.614   8.314   7.459 -0.9653 -0.1381  0.0378
    8bbb     H4  209   6.447   8.361   7.475  1.2465 -2.0120  5.9539
    8bbb     C3  210   6.545   8.377   7.201  0.3636 -0.7818 -0.7932
    8bbb     H5  211   6.578   8.424   7.108  1.6492 -0.5015 -0.2177
    8bbb     H6  212   6.436   8.363   7.192  0.3588 -1.3976  0.1050
    8bbb     C4  213   6.610   8.237   7.202  0.8155 -0.1263  0.2218
    8bbb     H7  214   6.565   8.175   7.281 -1.3200  0.4269 -0.4911
    8bbb     H8  215   6.718   8.246   7.224  0.5359 -0.0936  1.7132
    8bbb     C5  216   6.503   8.672   7.175  0.0911  0.3573 -0.2062
    8bbb     H9  217   6.447   8.764   7.193 -2.8693 -1.4090  0.3504
    8bbb    H10  218   6.456   8.619   7.091  1.4913  1.5180 -1.7864
    8bbb     C6  219   6.587   8.482   7.573 -0.0316  0.7450 -0.5304
    8bbb    H11  220   6.524   8.567   7.601 -0.3087  0.4748 -0.3284
    8bbb    H12  221   6.687   8.524   7.558 -0.8541  2.0818 -2.6902
    8bbb     C7  222   6.593   8.157   7.069 -0.5042 -0.0859  0.2534
    8bbb    H13  223   6.630   8.054   7.075 -1.7802 -0.8218 -2.5650
    8bbb    H14  224   6.661   8.199   6.994  0.8435 -2.0129  0.3314
    8bbb     C8  225   6.600   8.387   7.698 -0.0794 -0.4367  0.3107
    8bbb    H15  226   6.682   8.319   7.671  0.4119 -0.1731  1.1035
    8bbb    H16  227   6.501   8.343   7.716  0.0064 -0.4671  0.7281
    8bbb     C9  228   6.652   8.697   7.131 -0.1001  0.3269  0.4128
    8bbb    H17  229   6.642   8.725   7.025 -2.4824  1.0633  0.7855
    8bbb    H18  230   6.719   8.610   7.141  3.2203  2.6059 -0.1517
    8bbb     O1  231   6.451   8.158   7.035 -0.1816 -0.2032 -0.4185
    9bbb     N1  232   6.314   6.117   6.931  0.3574  0.4552 -0.1616
    9bbb     C1  233   6.407   6.067   6.821 -0.3953 -0.3729  0.1144
    9bbb     H1  234   6.437   6.153   6.760 -1.9756  1.1600  1.4143
    9bbb     H2  235   6.360   6.000   6.747 -1.7102  1.2487 -0.5868
    9bbb     C2  236   6.182   6.176   6.892 -0.6507 -0.1143 -0.2037
    9bbb     H3  237   6.150   6.120   6.803  0.5841  1.7645 -1.9527
    9bbb     H4  238   6.190   6.280   6.859  0.1403  0.2737  1.1187
    9bbb     C3  239   6.372   6.166   7.057 -0.2157  0.3672 -0.8482
    9bbb     H5  240   6.455   6.104   7.094  0.1623  1.2883 -0.1161
    9bbb     H6  241   6.301   6.162   7.140  0.9059 -1.5622  0.0849
    9bbb     C4  242   6.430   6.304   7.050 -0.2044  0.3207  0.2685
    9bbb     H7  243   6.357   6.379   7.018  1.2851  0.7471 -2.3900
    9bbb     H8  244   6.499   6.294   6.966 -0.0997  1.0358  0.2681
    9bbb     C5  245   6.533   5.999   6.871 -0.5111 -0.0942  0.2256
    9bbb     H9  246   6.584   6.080   6.926  0.6885  1.0585 -2.3930
    9bbb    H10  247   6.606   5.983   6.790  0.2790  0.6288  0.7660
    9bbb     C6  248   6.082   6.164   6.995  0.3462  0.1887  0.0402
    9bbb    H11  249   6.105   6.227   7.082 -2.2680  1.2345  0.0761
    9bbb    H12  250   6.080   6.062   7.034 -3.5974 -0.3192 -1.0179
    9bbb     C7  251   6.504   6.358   7.180  0.2849 -0.1644 -0.1664
    9bbb    H13  252   6.571   6.274   7.205  0.1530 -0.4981 -0.9096
    9bbb    H14  253   6.430   6.356   7.261 -0.6620 -1.7419 -1.0272
    9bbb     C8  254   5.939   6.200   6.943  0.1531  0.9678 -0.7286
    9bbb    H15  255   5.931   6.297   6.892  0.0654 -0.0345 -2.7297
    9bbb    H16  256   5.877   6.210   7.033  1.3565  2.2237 -0.0012
    9bbb     C9  257   6.510   5.864   6.945  0.1458 -0.4420 -0.5639
    9bbb    H17  258   6.480   5.804   6.858  1.4864  1.4042 -2.4143
    9bbb    H18  259   6.428   5.869   7.017  0.2984  0.7299 -0.4355
    9bbb     O1  260   6.557   6.484   7.144  0.0801  0.0757  0.2773
   10bbb     N1  261   7.233   7.238   6.473 -0.0728  0.4912 -0.5078
   10bbb     C1  262   7.168   7.354   6.538 -0.1224 -0.5503  0.1528
   10bbb     H1  263   7.246   7.423   6.574  1.0123 -2.4267  1.4730
   10bbb     H2  264   7.118   7.331   6.633 -0.9911  1.7353  0.3004
   10bbb     C2  265   7.371   7.272   6.441 -0.6917  0.3675 -0.1614
   10bbb     H3  266   7.431   7.258   6.532  1.5896  0.6699 -1.5377
   10bbb     H4  267   7.376   7.378   6.413  0.9678  0.8109  1.5596
   10bbb     C3  268   7.217   7.111   6.552  0.5397 -0.1630 -0.3151
   10bbb     H5  269   7.279   7.119   6.641  0.7626 -0.7925 -0.4044
   10bbb     H6  270   7.265   7.030   6.496  1.7862 -0.0795  0.5940
   10bbb     C4  271   7.073   7.059   6.579 -0.0534 -0.0908  1.0349
   10bbb     H7  272   7.020   7.032   6.487  1.6058  0.4543 -0.1293
   10bbb     H8  273   7.012   7.135   6.628 -3.4690 -2.4660  0.8216
   10bbb     C5  274   7.071   7.416   6.444 -0.2889  0.1387 -0.0083
   10bbb     H9  275   7.034   7.336   6.379  0.6465 -1.4008  1.2697
   10bbb    H10  276   7.120   7.484   6.374 -1.4100  0.9914  0.0032
   10bbb     C6  277   7.433   7.192   6.316  0.3251  0.1071  0.4655
   10bbb    H11  278   7.396   7.089   6.310 -0.2906  0.3927 -1.2928
   10bbb    H12  279   7.541   7.187   6.334  0.1691 -0.6483  1.2688
   10bbb     C7  280   7.075   6.931   6.670  0.3280  0.0310  0.4885
   10bbb    H13  281   7.106   6.965   6.769  0.1373  0.1248  0.5156
   10bbb    H14  282   7.149   6.857   6.638  1.6090  2.0996 -1.6073
   10bbb     C8  283   7.416   7.271   6.182 -0.1424 -0.4696  0.0394
   10bbb    H15  284   7.458   7.372   6.198  0.5731 -0.8452  0.5657
   10bbb    H16  285   7.309   7.289   6.165  0.2156 -0.5274 -2.7325
   10bbb     C9  286   6.941   7.480   6.509  0.4519  0.5050  0.0409
   10bbb    H17  287   6.899   7.412   6.584 -0.8516 -0.3233 -1.3719
   10bbb    H18  288   6.861   7.496   6.436 -2.4627 -1.0524  2.6282
   10bbb     O1  289   6.939   6.870   6.681  0.7345  0.0006  0.6697
   11bbb     N1  290   5.671   7.637   7.193 -0.0710 -0.1272  0.5899
   11bbb     C1  291   5.735   7.683   7.067 -0.1079 -0.7774  0.0976
   11bbb     H1  292   5.658   7.742   7.014  0.7854  0.9602  0.6639
   11bbb     H2  293   5.762   7.598   7.004  2.3236  0.5064 -0.6957
   11bbb     C2  294   5.560   7.713   7.245  0.4135 -0.1614 -0.0199
   11bbb     H3  295   5.575   7.821   7.253 -0.3779 -0.1303  1.3823
   11bbb     H4  296   5.536   7.681   7.347 -0.6988 -0.0928 -0.2491
   11bbb     C3  297   5.754   7.573   7.302 -0.4123  0.4878  0.1757
   11bbb     H5  298   5.789   7.643   7.377 -1.1538 -0.7896  1.7791
   11bbb     H6  299   5.844   7.535   7.252 -0.3546  0.8738 -0.0173
   11bbb     C4  300   5.675   7.460   7.372  0.9927  0.1219  0.1504
   11bbb     H7  301   5.654   7.390   7.291 -2.5864  1.7078 -0.5025
   11bbb     H8  302   5.571   7.474   7.405  0.5910 -1.5338 -0.3512
   11bbb     C5  303   5.855   7.779   7.077  0.6982  0.1350  0.5647
   11bbb     H9  304   5.878   7.816   6.976 -0.1583  0.2269  0.4019
   11bbb    H10  305   5.937   7.710   7.100  3.5169  2.5271 -1.4166
   11bbb     C6  306   5.429   7.699   7.157 -0.9665  0.4842 -0.1609
   11bbb    H11  307   5.383   7.605   7.191  0.1714 -0.4654 -1.1612
   11bbb    H12  308   5.454   7.683   7.052  2.0432 -1.9223  0.7780
   11bbb     C7  309   5.759   7.401   7.485  0.1091 -0.4337 -0.0148
   11bbb    H13  310   5.705   7.313   7.523  0.9113  0.0658  2.4717
   11bbb    H14  311   5.757   7.469   7.571 -1.2830 -0.0753 -0.3023
   11bbb     C8  312   5.326   7.822   7.166 -0.1345  1.1485  0.6701
   11bbb    H15  313   5.305   7.826   7.273 -0.2240  0.6553  0.6737
   11bbb    H16  314   5.232   7.797   7.114  1.2663  1.7109 -2.3725
   11bbb     C9  315   5.842   7.898   7.183  0.7982 -0.2378  0.0696
   11bbb    H17  316   5.839   7.863   7.287  0.3528  0.0496  0.1564
   11bbb    H18  317   5.749   7.952   7.163 -0.7019 -2.7387 -0.1980
   11bbb     O1  318   5.892   7.381   7.439 -0.3108  0.3749  0.4864
   12bbb     N1  319   6.456   8.075   7.899 -0.0290 -0.2020 -0.2399
   12bbb     C1  320   6.588   8.003   7.919 -1.0124 -0.0517 -0.1108
   12bbb     H1  321   6.642   8.045   8.005 -2.5691  1.1497  0.3158
   12bbb     H2  322   6.656   8.028   7.837  0.0382  0.3450  0.8521
   12bbb     C2  323   6.367   8.082   8.023 -0.3201 -0.3047  0.5973
   12bbb     H3  324   6.339   7.978   8.040 -2.9762 -0.2450 -2.4844
   12bbb     H4  325   6.280   8.145   7.999  1.1515  1.3397 -0.7381
   12bbb     C3  326   6.383   8.010   7.784  0.5649  0.0701  0.1797
   12bbb     H5  327   6.374   7.903   7.805  1.2095  0.0390  0.3234
   12bbb     H6  328   6.453   8.010   7.699  0.4559 -0.5018  0.0877
   12bbb     C4  329   6.249   8.066   7.731 -0.0375 -0.0602  0.0137
   12bbb     H7  330   6.247   8.176   7.728  0.8080 -0.0528 -1.4742
   12bbb     H8  331   6.171   8.042   7.803  2.8536  1.0581  3.8302
   12bbb     C5  332   6.582   7.849   7.934  0.2877  0.7580  0.0336
   12bbb     H9  333   6.575   7.795   7.839  1.4953 -0.4365  0.5792
   12bbb    H10  334   6.495   7.827   7.997  1.6372 -1.3224  1.3193
   12bbb     C6  335   6.444   8.133   8.154 -0.2081 -0.6912 -0.1103
   12bbb    H11  336   6.523   8.209   8.143  1.3092 -2.3422 -1.3538
   12bbb    H12  337   6.501   8.048   8.193  1.4048 -0.0615 -0.9871
   12bbb     C7  338   6.216   8.023   7.590 -0.9655  0.7242  0.1572
   12bbb    H13  339   6.296   8.048   7.518 -2.1712  0.0132 -1.4711
   12bbb    H14  340   6.126   8.069   7.547 -1.4868  0.1643  0.6387
   12bbb     C8  341   6.351   8.193   8.269 -0.1244 -0.5166  0.2414
   12bbb    H15  342   6.312   8.287   8.230  0.8732 -1.1523 -2.5489
   12bbb    H16  343   6.407   8.214   8.361 -0.4755 -0.6818  0.4963
   12bbb     C9  344   6.712   7.793   7.994  0.0669 -0.2888 -0.1701
   12bbb    H17  345   6.720   7.837   8.095  1.3550 -0.9733  0.0438
   12bbb    H18  346   6.793   7.827   7.928  0.2080  1.1910  0.7077
   12bbb     O1  347   6.191   7.883   7.588  0.1112  0.6405 -1.0871
   13bbb     N1  348   6.082   5.632   6.901  0.0635 -0.3382 -0.4621
   13bbb     C1  349   6.102   5.517   6.817 -0.5035 -0.6988 -0.5107
   13bbb     H1  350   6.115   5.421   6.869  0.3615 -2.2890 -3.4271
   13bbb     H2  351   6.198   5.523   6.763 -0.5753 -1.0287 -0.6814
   13bbb     C2  352   6.039   5.758   6.832  0.1205 -0.2973 -0.3958
   13bbb     H3  353   5.996   5.819   6.911 -3.0019 -0.3672 -1.9042
   13bbb     H4  354   5.951   5.747   6.769  0.3266 -0.5110 -0.6506
   13bbb     C3  355   6.174   5.654   7.022 -0.0929  0.2479 -0.4109
   13bbb     H5  356   6.276   5.687   6.995  0.4295  1.1045  2.3111
   13bbb     H6  357   6.198   5.559   7.071  1.6006  1.6610  1.6701
   13bbb     C4  358   6.139   5.753   7.125 -0.8344 -0.2183 -0.4922
   13bbb     H7  359   6.043   5.726   7.172 -0.9732  0.7908 -0.1841
   13bbb     H8  360   6.124   5.855   7.088  3.2736  1.5613  2.0132
   13bbb     C5  361   5.986   5.496   6.708  0.0667 -0.3356 -0.0655
   13bbb     H9  362   5.993   5.560   6.620  2.7817 -1.7565 -1.0077
   13bbb    H10  363   5.895   5.521   6.764 -0.1627 -0.9476 -0.1513
   13bbb     C6  364   6.149   5.830   6.761  0.7701 -0.2142  0.1544
   13bbb    H11  365   6.235   5.826   6.830  1.5046  0.4786 -0.6826
   13bbb    H12  366   6.110   5.932   6.752  1.9247  0.1905 -0.5247
   13bbb     C7  367   6.251   5.753   7.231 -0.2330  0.5285  0.1213
   13bbb    H13  368   6.346   5.796   7.197  0.1168 -0.2399  0.0892
   13bbb    H14  369   6.264   5.649   7.265 -2.8817 -0.4997 -1.6607
   13bbb     C8  370   6.178   5.772   6.625  0.0991 -0.0652  0.3881
   13bbb    H15  371   6.087   5.752   6.567  0.5751 -0.3444 -0.2757
   13bbb    H16  372   6.229   5.675   6.632 -1.7272 -1.1673 -0.5792
   13bbb     C9  373   5.988   5.360   6.648 -0.0949  0.1086 -0.2124
   13bbb    H17  374   5.898   5.342   6.588  0.2111 -0.5112 -0.5031
   13bbb    H18  375   5.982   5.287   6.730 -1.2128 -0.8866 -1.1412
   13bbb     O1  376   6.196   5.820   7.335 -0.5180  0.4789 -0.2020
   14bbb     N1  377   6.569   5.534   7.515 -0.4984  0.6056 -0.3223
   14bbb     C1  378   6.599   5.481   7.380  0.7540  0.5064  0.6447
   14bbb     H1  379   6.681   5.408   7.375  0.9897  0.7929  0.2437
   14bbb     H2  380   6.624   5.561   7.308  0.3199 -0.5302 -0.7099
   14bbb     C2  381   6.572   5.439   7.628  0.3292  0.0451  0.4355
   14bbb     H3  382   6.674   5.403   7.646 -0.1423 -0.7957  1.5922
   14bbb     H4  383   6.509   5.356   7.594 -0.2831  0.8542 -0.4568
   14bbb     C3  384   6.649   5.657   7.529 -0.1424 -0.1961  0.0109
   14bbb     H5  385   6.635   5.693   7.632 -0.2416 -1.4356  0.4429
   14bbb     H6  386   6.641   5.736   7.453  1.5928 -1.1296 -1.2282
   14bbb     C4  387   6.798   5.624   7.535 -0.2243  0.3735  0.1740
   14bbb     H7  388   6.835   5.579   7.442 -0.4182  0.7058 -0.0624
   14bbb     H8  389   6.808   5.548   7.614 -1.5070 -0.7538 -0.6924
   14bbb     C5  390   6.473   5.415   7.323 -0.0460  0.3798  0.0985
   14bbb     H9  391   6.386   5.471   7.360 -0.4014 -0.2189  0.1748
   14bbb    H10  392   6.461   5.313   7.362  0.1199 -0.6349 -2.3177
   14bbb     C6  393   6.518   5.497   7.756  0.7573  0.1566  0.1149
   14bbb    H11  394   6.585   5.576   7.792  0.4360 -0.6549  2.6902
   14bbb    H12  395   6.522   5.420   7.834  0.1612  0.6743  0.6741
   14bbb     C7  396   6.880   5.751   7.573  0.4385  1.0309  0.5524
   14bbb    H13  397   6.987   5.728   7.587 -0.1116 -2.0013  0.6553
   14bbb    H14  398   6.835   5.795   7.663 -1.6985 -0.1620  0.1307
   14bbb     C8  399   6.378   5.552   7.740 -0.2299 -0.0281 -0.6100
   14bbb    H15  400   6.298   5.485   7.707 -0.0743 -0.4410 -0.1614
   14bbb    H16  401   6.378   5.623   7.657 -0.3980  0.1403 -0.4663
   14bbb     C9  402   6.477   5.398   7.168  0.8490 -0.3085 -0.3106
   14bbb    H17  403   6.567   5.341   7.142  0.2610 -1.6872  0.5225
   14bbb    H18  404   6.467   5.493   7.115  0.8746  0.4302  0.9621
   14bbb     O1  405   6.868   5.842   7.458  0.5138  0.1864  0.5971
   15bbb     N1  406   7.228   8.031   5.362 -0.1388  0.3258  0.4964
   15bbb     C1  407   7.333   8.133   5.374  0.1004 -1.2834  0.1970
   15bbb     H1  408   7.430   8.097   5.338  0.4800  0.7446 -0.9550
   15bbb     H2  409   7.353   8.160   5.478  0.5234  2.8116 -0.7877
   15bbb     C2  410   7.263   7.920   5.269  0.5824  0.2070  0.8487
   15bbb     H3  411   7.169   7.871   5.242  0.3471  0.5186  1.0966
   15bbb     H4  412   7.335   7.854   5.319  1.2893 -0.0198 -0.4310
   15bbb     C3  413   7.166   7.987   5.494  0.1897  0.7067 -0.0632
   15bbb     H5  414   7.245   7.948   5.558 -1.2336  0.1505  1.4192
   15bbb     H6  415   7.095   7.906   5.471  1.8185 -1.0898  0.9432
   15bbb     C4  416   7.084   8.104   5.564 -0.2187 -0.1451  0.1043
   15bbb     H7  417   7.008   8.147   5.498 -0.3709  0.6501  0.7862
   15bbb     H8  418   7.159   8.181   5.587  1.5874 -1.8712  0.2429
   15bbb     C5  419   7.289   8.265   5.305 -0.1124 -0.0164 -0.0655
   15bbb     H9  420   7.203   8.307   5.358  0.5893  1.5344 -0.0990
   15bbb    H10  421   7.264   8.254   5.199 -1.8325 -0.6796  0.3796
   15bbb     C6  422   7.336   7.958   5.134  0.7516 -0.0494  0.2753
   15bbb    H11  423   7.435   8.002   5.149  0.2528  0.5396  2.2246
   15bbb    H12  424   7.276   8.038   5.088  3.5823  1.7638 -0.5083
   15bbb     C7  425   7.013   8.060   5.689  0.0758 -0.0674 -0.2100
   15bbb    H13  426   6.965   8.145   5.738 -0.0068  0.9691 -1.9802
   15bbb    H14  427   7.089   8.023   5.759  0.1382 -0.1823 -0.3386
   15bbb     C8  428   7.344   7.838   5.039  0.3894 -0.1529 -0.7173
   15bbb    H15  429   7.380   7.875   4.942 -0.0464  1.8974 -0.1642
   15bbb    H16  430   7.241   7.808   5.018 -0.9435  1.1387  3.0896
   15bbb     C9  431   7.400   8.368   5.301 -0.3931 -0.9852 -0.1803
   15bbb    H17  432   7.437   8.414   5.394  1.5116 -0.3997 -1.1883
   15bbb    H18  433   7.363   8.456   5.247  1.9295  0.3447  0.2610
   15bbb     O1  434   6.914   7.967   5.647 -0.2745  0.1600 -0.1868
   16bbb     N1  435   7.452   7.960   5.942 -0.3532 -0.9754  0.0465
   16bbb     C1  436   7.530   7.987   6.064 -0.1279 -0.4715 -0.8686
   16bbb     H1  437   7.516   7.896   6.124 -0.9188 -1.3731 -2.3635
   16bbb     H2  438   7.489   8.070   6.124 -0.1503 -0.4111 -0.9678
   16bbb     C2  439   7.463   8.078   5.844  0.0911 -0.0001  0.4230
   16bbb     H3  440   7.395   8.054   5.762 -1.3131 -0.2418  1.6217
   16bbb     H4  441   7.566   8.084   5.806 -0.7838  1.2667 -1.9159
   16bbb     C3  442   7.486   7.837   5.881  0.2074 -0.1287  0.4384
   16bbb     H5  443   7.561   7.781   5.938 -0.4222 -2.0359 -0.5273
   16bbb     H6  444   7.520   7.843   5.777  0.3435 -4.2610  0.0686
   16bbb     C4  445   7.361   7.747   5.861  0.1189  0.3854  0.3181
   16bbb     H7  446   7.387   7.667   5.791 -2.1910 -1.7387  1.7230
   16bbb     H8  447   7.280   7.803   5.811 -0.7058 -0.4085  0.7385
   16bbb     C5  448   7.679   8.023   6.047 -0.0080 -0.4474  0.4793
   16bbb     H9  449   7.694   8.126   6.011  1.8537 -1.0121 -0.4864
   16bbb    H10  450   7.722   7.971   5.961 -0.6534  0.7939 -0.6241
   16bbb     C6  451   7.442   8.216   5.899  0.0302 -0.2480 -0.3347
   16bbb    H11  452   7.448   8.284   5.812  2.9963  1.2075  0.8677
   16bbb    H12  453   7.527   8.240   5.964 -0.8970 -0.9398  1.1662
   16bbb     C7  454   7.315   7.696   5.996 -0.4381  0.2063 -0.6700
   16bbb    H13  455   7.269   7.768   6.065  1.1939 -0.0423  0.7390
   16bbb    H14  456   7.399   7.656   6.054 -0.2918 -0.3464 -1.2468
   16bbb     C8  457   7.303   8.239   5.969 -0.3054 -0.6959  0.2498
   16bbb    H15  458   7.318   8.217   6.075 -0.5040  0.2622  0.4849
   16bbb    H16  459   7.234   8.162   5.933  1.9392 -2.3651 -0.7704
   16bbb     C9  460   7.760   7.988   6.169 -0.2192  0.1099 -0.5473
   16bbb    H17  461   7.866   8.007   6.149 -0.3724  0.8109 -0.7074
   16bbb    H18  462   7.737   7.883   6.190  0.7096 -1.0569 -4.5651
   16bbb     O1  463   7.225   7.590   5.987 -0.7133 -0.1324 -0.3465
   17bbb     N1  464   6.517   8.645   8.193 -0.2029  0.7037  0.3191
   17bbb     C1  465   6.417   8.757   8.178 -0.6385  0.5697  0.1278
   17bbb     H1  466   6.443   8.821   8.093  1.7939 -1.1070 -0.4867
   17bbb     H2  467   6.427   8.820   8.267 -1.0906 -2.4019  2.4449
   17bbb     C2  468   6.492   8.560   8.318 -0.4666  0.1149  0.2563
   17bbb     H3  469   6.567   8.479   8.318 -2.0359 -1.4020 -0.6155
   17bbb     H4  470   6.388   8.527   8.326 -0.5783  0.8023  2.0486
   17bbb     C3  471   6.526   8.571   8.067 -0.2522 -0.2389  0.9411
   17bbb     H5  472   6.531   8.638   7.980 -0.5631 -1.3792  0.0220
   17bbb     H6  473   6.443   8.501   8.051  0.4174 -1.6455  3.1319
   17bbb     C4  474   6.652   8.484   8.053  0.1496  0.0548 -0.0580
   17bbb     H7  475   6.654   8.428   8.148  0.0372  0.9262  0.4658
   17bbb     H8  476   6.742   8.545   8.038 -1.9712  3.5265  0.4167
   17bbb     C5  477   6.272   8.714   8.146 -0.0048 -0.1579 -0.2890
   17bbb     H9  478   6.238   8.640   8.220  1.5189  0.5795  1.1938
   17bbb    H10  479   6.277   8.677   8.042 -0.3534  1.9606 -1.1149
   17bbb     C6  480   6.527   8.642   8.447 -0.5415  0.1323 -0.1200
   17bbb    H11  481   6.601   8.710   8.405 -0.1349 -1.9070 -3.0784
   17bbb    H12  482   6.577   8.582   8.524 -0.1123  0.8460  0.1581
   17bbb     C7  483   6.640   8.386   7.940  0.3185 -0.0927  0.5161
   17bbb    H13  484   6.545   8.333   7.949  1.4306 -2.1345  0.7382
   17bbb    H14  485   6.717   8.308   7.950  0.7198  0.1610 -0.4517
   17bbb     C8  486   6.405   8.702   8.511  0.8675 -0.2226 -0.2694
   17bbb    H15  487   6.343   8.765   8.448  3.1616  1.3448 -1.0957
   17bbb    H16  488   6.440   8.757   8.599  0.5518 -0.9120  0.3001
   17bbb     C9  489   6.182   8.842   8.158 -0.1180 -0.5303  0.7980
   17bbb    H17  490   6.237   8.923   8.107  0.3582 -2.0705 -1.2643
   17bbb    H18  491   6.161   8.862   8.264 -1.9641  0.7171  0.2561
   17bbb     O1  492   6.645   8.458   7.813  0.1354  0.4164  0.0620
   18bbb     N1  493   6.786   9.120   7.508 -0.3784  0.4512  0.0853
   18bbb     C1  494   6.684   9.223   7.530 -0.5068 -0.4446 -0.5963
   18bbb     H1  495   6.599   9.201   7.596 -1.6660  1.0139 -1.5075
   18bbb     H2  496   6.651   9.262   7.432 -0.7464 -1.3283 -0.8747
   18bbb     C2  497   6.822   9.041   7.629 -0.5726  0.0503  0.3421
   18bbb     H3  498   6.855   9.104   7.713  2.2459 -0.1591 -0.5043
   18bbb     H4  499   6.902   8.972   7.598 -0.4805  0.3484 -0.0854
   18bbb     C3  500   6.757   9.024   7.392  0.3734 -0.6680 -0.1173
   18bbb     H5  501   6.744   9.081   7.299  0.9369 -1.2499 -0.5664
   18bbb     H6  502   6.660   8.975   7.409  0.0146 -0.4498 -1.4006
   18bbb     C4  503   6.858   8.909   7.362 -0.0349  0.0245  0.1940
   18bbb     H7  504   6.846   8.827   7.433 -1.6237  0.3253  0.3165
   18bbb     H8  505   6.963   8.939   7.366  0.3252 -1.2982  1.1549
   18bbb     C5  506   6.749   9.346   7.608 -0.1000  0.5776  0.8281
   18bbb     H9  507   6.845   9.366   7.559  0.8282 -2.2745  1.2962
   18bbb    H10  508   6.776   9.311   7.709  0.4732 -1.7478 -0.0911
   18bbb     C6  509   6.703   8.961   7.681  0.0075 -0.0334 -0.3870
   18bbb    H11  510   6.644   8.911   7.603  0.2672  0.6852 -1.0585
   18bbb    H12  511   6.627   9.021   7.733  0.4000 -1.0754  1.4830
   18bbb     C7  512   6.826   8.845   7.224 -0.1752  0.3981 -0.6216
   18bbb    H13  513   6.893   8.761   7.203  0.2832  0.8811 -1.1276
   18bbb    H14  514   6.836   8.908   7.135 -0.4181 -2.8576 -3.1534
   18bbb     C8  515   6.759   8.859   7.782 -0.3561  0.3219  0.6715
   18bbb    H15  516   6.686   8.789   7.827  1.8389 -2.7199 -0.1868
   18bbb    H16  517   6.818   8.907   7.860  1.3910 -0.7744  0.0777
   18bbb     C9  518   6.655   9.469   7.621  0.6223 -0.4305  0.5252
   18bbb    H17  519   6.697   9.543   7.690  0.7952  0.0020 -0.0354
   18bbb    H18  520   6.564   9.448   7.679 -1.2336  2.5530 -1.0698
   18bbb     O1  521   6.690   8.803   7.220 -0.3567 -0.3778 -0.2519
   19bbb     N1  522   5.741   5.905   6.483  0.6071 -0.0598 -0.1195
   19bbb     C1  523   5.754   5.767   6.533  0.3229  0.2619  0.0775
   19bbb     H1  524   5.741   5.762   6.642 -1.4684 -3.3900 -0.1371
   19bbb     H2  525   5.857   5.733   6.522  0.5377  1.1730 -0.8216
   19bbb     C2  526   5.790   5.936   6.347 -0.2353  0.1830  0.6299
   19bbb     H3  527   5.804   6.044   6.337 -1.0018  0.2486  0.2347
   19bbb     H4  528   5.719   5.907   6.269 -0.3278  1.8155  0.0727
   19bbb     C3  529   5.780   6.003   6.584  0.3196 -0.1380  0.2783
   19bbb     H5  530   5.769   6.106   6.549  1.7469 -0.2563 -0.6249
   19bbb     H6  531   5.884   5.983   6.612 -0.0591  1.1322  2.8613
   19bbb     C4  532   5.718   5.999   6.725  0.6954 -1.0485 -0.3420
   19bbb     H7  533   5.758   5.910   6.776  1.0029  0.2930  1.8839
   19bbb     H8  534   5.609   5.999   6.709  0.3744 -0.9913  1.5857
   19bbb     C5  535   5.657   5.678   6.457  0.1317 -0.6480 -0.4472
   19bbb     H9  536   5.702   5.680   6.357  1.0401  1.1210 -0.0549
   19bbb    H10  537   5.558   5.724   6.444  0.3700  0.4942  1.3996
   19bbb     C6  538   5.926   5.871   6.309 -0.6685  0.0302 -0.7149
   19bbb    H11  539   5.926   5.762   6.313  1.5945 -0.0635 -1.7992
   19bbb    H12  540   6.000   5.901   6.384  1.8101  0.1258 -3.0494
   19bbb     C7  541   5.755   6.116   6.816 -0.6718  0.1074  0.6734
   19bbb    H13  542   5.685   6.121   6.901  1.7598  1.6339  2.7249
   19bbb    H14  543   5.742   6.215   6.771 -1.3642  0.7081  2.1227
   19bbb     C8  544   5.978   5.912   6.173  0.0857 -0.2337  0.4462
   19bbb    H15  545   5.951   6.016   6.153 -1.1621 -1.0041 -2.4738
   19bbb    H16  546   5.914   5.864   6.098 -1.2499  2.7441 -0.4744
   19bbb     C9  547   5.653   5.532   6.506 -0.4736  0.4536  0.2299
   19bbb    H17  548   5.747   5.478   6.492 -0.0872  1.0260  0.5790
   19bbb    H18  549   5.577   5.478   6.447  0.5395 -1.7966  0.8746
   19bbb     O1  550   5.891   6.096   6.855  0.6168  0.1106  0.3487
   20bbb     N1  551   7.064   5.758   7.022 -0.1873  0.0659  0.7218
   20bbb     C1  552   7.106   5.666   7.132  0.1533  0.4957  0.1401
   20bbb     H1  553   7.068   5.697   7.230  1.3765 -0.8138  1.0753
   20bbb     H2  554   7.216   5.669   7.140  0.1592 -1.3822  1.6805
   20bbb     C2  555   7.140   5.763   6.891  0.3900 -0.1046 -0.0960
   20bbb     H3  556   7.248   5.754   6.906  0.2678  0.1504  1.0350
   20bbb     H4  557   7.124   5.857   6.836  0.1539 -0.3136 -0.3888
   20bbb     C3  558   6.919   5.789   7.011 -0.5025 -0.1730  0.2569
   20bbb     H5  559   6.873   5.702   6.963  0.6606  0.6870 -2.6249
   20bbb     H6  560   6.906   5.873   6.942  0.3732  1.1739  1.6751
   20bbb     C4  561   6.839   5.818   7.135 -1.0431 -0.3974 -0.4339
   20bbb     H7  562   6.905   5.881   7.195 -3.2877  2.2221 -0.5093
   20bbb     H8  563   6.823   5.726   7.194 -3.2524 -1.2204 -2.1426
   20bbb     C5  564   7.062   5.518   7.112 -0.0610  0.1409  0.2356
   20bbb     H9  565   7.108   5.484   7.018 -1.9421 -0.7292 -0.4062
   20bbb    H10  566   6.954   5.516   7.097  0.1562  0.0465 -1.6043
   20bbb     C6  567   7.095   5.658   6.784  0.1359 -0.3096 -0.0587
   20bbb    H11  568   6.997   5.698   6.756  1.6676  4.1770  0.1913
   20bbb    H12  569   7.081   5.556   6.822 -0.3182  0.0195  0.6775
   20bbb     C7  570   6.704   5.885   7.100  0.1412 -0.0123  0.2118
   20bbb    H13  571   6.726   5.990   7.080  2.0803 -0.0526  1.8614
   20bbb    H14  572   6.641   5.877   7.189 -2.7267  0.6953 -1.6167
   20bbb     C8  573   7.194   5.646   6.666 -0.1215 -0.4670 -0.1204
   20bbb    H15  574   7.151   5.575   6.595 -1.0463  0.2832 -0.3366
   20bbb    H16  575   7.280   5.594   6.710  0.4923  0.9686  0.4298
   20bbb     C9  576   7.106   5.418   7.225  0.3184 -0.6367  0.2300
   20bbb    H17  577   7.085   5.453   7.327  1.4131 -0.4291  0.4052
   20bbb    H18  578   7.216   5.413   7.223  0.6127  3.2759  0.0593
   20bbb     O1  579   6.635   5.807   6.996  0.1759  0.3809 -0.4409
   21bbb     N1  580   7.713   7.556   5.808 -0.8062  0.3410  0.1270
   21bbb     C1  581   7.847   7.557   5.873 -0.1912  0.0409 -0.1943
   21bbb     H1  582   7.916   7.498   5.812 -0.3034  1.7746 -2.0928
   21bbb     H2  583   7.834   7.512   5.972  0.3253 -0.1706 -0.2208
   21bbb     C2  584   7.693   7.634   5.686  0.0139  0.1283  0.2922
   21bbb     H3  585   7.713   7.738   5.716 -1.3499  0.2483  0.8623
   21bbb     H4  586   7.587   7.637   5.658  0.0587  0.0484  0.1117
   21bbb     C3  587   7.631   7.432   5.817 -0.8032 -0.8252  0.6039
   21bbb     H5  588   7.676   7.345   5.767 -1.0393 -1.6197  1.7257
   21bbb     H6  589   7.535   7.446   5.767 -0.1733  2.6006  0.1072
   21bbb     C4  590   7.599   7.384   5.961  0.3723 -0.2663 -0.0597
   21bbb     H7  591   7.558   7.467   6.020  0.7539  1.4909 -2.1348
   21bbb     H8  592   7.682   7.344   6.021  1.7614  0.7555 -1.2300
   21bbb     C5  593   7.892   7.703   5.907 -0.1863 -0.5240  0.0098
   21bbb     H9  594   7.813   7.761   5.955 -0.6187  1.3404 -2.6954
   21bbb    H10  595   7.921   7.766   5.823  3.0502 -1.4800  0.2982
   21bbb     C6  596   7.786   7.584   5.571  0.0330 -0.2876  0.3041
   21bbb    H11  597   7.774   7.476   5.555  0.9477 -0.7224  2.2647
   21bbb    H12  598   7.890   7.603   5.597 -0.9068  6.4748  0.8984
   21bbb     C7  599   7.484   7.278   5.951  0.1643  0.1476 -0.2333
   21bbb    H13  600   7.506   7.210   5.868  1.5148 -0.2375  0.4033
   21bbb    H14  601   7.382   7.315   5.932  0.0391 -0.2751 -0.4119
   21bbb     C8  602   7.758   7.655   5.435 -0.8454  0.1614 -0.0569
   21bbb    H15  603   7.654   7.627   5.414 -0.8752 -1.2496  1.7114
   21bbb    H16  604   7.831   7.623   5.360  1.2583  1.4189  1.3648
   21bbb     C9  605   8.012   7.701   6.001 -0.1738 -0.0457 -0.0386
   21bbb    H17  606   8.096   7.659   5.944 -1.9140 -2.8083 -0.7958
   21bbb    H18  607   7.990   7.633   6.084  0.5170  0.8452  0.9063
   21bbb     O1  608   7.484   7.205   6.081  0.0631  0.3959 -0.1623
   22bbb     N1  609   7.208   7.842   6.616 -0.0176 -0.9448  0.2713
   22bbb     C1  610   7.249   7.911   6.494 -0.6384  0.3464 -0.0994
   22bbb     H1  611   7.275   8.017   6.508 -1.1336  0.1635  2.7857
   22bbb     H2  612   7.161   7.905   6.427  0.6279  2.1994 -2.0682
   22bbb     C2  613   7.308   7.841   6.730  0.6343  0.1630 -0.0779
   22bbb     H3  614   7.313   7.945   6.763  1.4413  0.3806 -0.8387
   22bbb     H4  615   7.410   7.820   6.695  0.6960 -0.4850  0.4893
   22bbb     C3  616   7.066   7.873   6.651 -0.7428  0.7151  0.2040
   22bbb     H5  617   7.048   7.971   6.698  0.2225  0.7252  0.5906
   22bbb     H6  618   7.040   7.810   6.737  3.5804 -0.4367  0.9270
   22bbb     C4  619   6.964   7.847   6.537 -0.0179  0.2806 -0.3803
   22bbb     H7  620   6.975   7.928   6.463  3.1594  0.7852  0.5141
   22bbb     H8  621   6.857   7.850   6.564 -0.0771 -0.8781 -0.4516
   22bbb     C5  622   7.374   7.848   6.427  0.2000 -0.3291 -0.2177
   22bbb     H9  623   7.458   7.873   6.494 -0.5296  0.4025  0.4540
   22bbb    H10  624   7.383   7.898   6.330 -1.6204 -0.2319 -0.3778
   22bbb     C6  625   7.264   7.755   6.850  0.2681 -0.0831  0.5256
   22bbb    H11  626   7.185   7.809   6.903  0.2556  0.2161  0.1987
   22bbb    H12  627   7.346   7.755   6.924 -0.5729  0.9351  1.4823
   22bbb     C7  628   6.986   7.711   6.473  0.4755 -0.2229  0.0326
   22bbb    H13  629   7.083   7.718   6.421 -0.2875  2.1109 -1.2647
   22bbb    H14  630   6.915   7.696   6.391  0.5804  1.2263 -0.3543
   22bbb     C8  631   7.220   7.609   6.822  0.1387  0.0754 -0.5609
   22bbb    H15  632   7.286   7.561   6.749  0.1692 -0.2599 -0.3136
   22bbb    H16  633   7.124   7.618   6.769  0.2223 -0.4175 -0.8032
   22bbb     C9  634   7.360   7.693   6.383  0.0675 -0.1037  0.0577
   22bbb    H17  635   7.265   7.674   6.331 -0.6998  0.7561  1.1097
   22bbb    H18  636   7.354   7.642   6.480 -3.1721  0.9118  0.4997
   22bbb     O1  637   6.972   7.602   6.567 -0.3804  0.6403 -0.0990
   23bbb     N1  638   5.606   8.261   6.938 -0.5185 -0.3371 -0.2927
   23bbb     C1  639   5.735   8.209   6.999 -0.2357 -0.3041 -0.1715
   23bbb     H1  640   5.717   8.139   7.081 -0.7667  2.0439  1.8413
   23bbb     H2  641   5.794   8.290   7.045  0.9516 -1.3011  0.0988
   23bbb     C2  642   5.570   8.400   6.973  0.4852 -0.1309 -0.3551
   23bbb     H3  643   5.566   8.405   7.082 -0.8977 -0.0375 -0.3834
   23bbb     H4  644   5.472   8.429   6.933 -0.5406 -1.4645  1.0896
   23bbb     C3  645   5.488   8.172   6.959 -0.0081  0.0169 -0.5557
   23bbb     H5  646   5.529   8.072   6.941 -0.2357 -0.3076  0.6680
   23bbb     H6  647   5.413   8.188   6.880 -0.0170 -1.0540 -0.7818
   23bbb     C4  648   5.427   8.183   7.095  0.3088  0.3275 -0.5277
   23bbb     H7  649   5.382   8.281   7.113 -2.0378 -0.3542 -2.1617
   23bbb     H8  650   5.504   8.173   7.173 -0.3223 -0.0509  0.0657
   23bbb     C5  651   5.824   8.145   6.893  0.0062 -0.6296  0.1499
   23bbb     H9  652   5.760   8.085   6.826 -1.1579  0.7490 -0.0252
   23bbb    H10  653   5.900   8.087   6.946  0.6799 -0.8660 -1.0459
   23bbb     C6  654   5.666   8.508   6.924  0.8253 -0.4157  0.2941
   23bbb    H11  655   5.694   8.502   6.818 -0.6716 -2.2950 -0.0466
   23bbb    H12  656   5.763   8.487   6.972 -0.5882 -2.1138  2.6132
   23bbb     C7  657   5.322   8.064   7.115 -0.1094  0.2730  0.3767
   23bbb    H13  658   5.249   8.062   7.032  1.7339  0.0610 -1.3184
   23bbb    H14  659   5.271   8.076   7.211  0.8235 -2.4688  1.3087
   23bbb     C8  660   5.633   8.654   6.970 -0.2126 -0.1782 -0.1366
   23bbb    H15  661   5.652   8.651   7.078 -1.1606 -0.4984  0.0369
   23bbb    H16  662   5.527   8.678   6.957  0.2424  1.9272 -0.2276
   23bbb     C9  663   5.902   8.249   6.796  0.8154 -0.1501  0.2016
   23bbb    H17  664   5.821   8.314   6.760 -1.2218 -2.1486  0.9462
   23bbb    H18  665   5.941   8.187   6.715  0.5984  0.5413 -0.4382
   23bbb     O1  666   5.392   7.936   7.114 -0.3878  0.1923  0.1821
   24bbb     N1  667   6.036   8.389   7.367 -0.0936  0.2242 -0.4791
   24bbb     C1  668   5.978   8.463   7.248 -0.2590 -0.4792  0.4667
   24bbb     H1  669   5.949   8.385   7.176 -0.1493 -1.1660  1.1464
   24bbb     H2  670   6.065   8.520   7.212 -0.7758 -0.0825 -0.1724
   24bbb     C2  671   6.079   8.489   7.476 -0.7300  0.0604 -0.9987
   24bbb     H3  672   5.996   8.551   7.511  0.1855  0.9294 -0.2886
   24bbb     H4  673   6.148   8.565   7.437  0.0205 -0.7836 -1.3588
   24bbb     C3  674   6.135   8.283   7.336 -0.1779 -0.0750  0.7258
   24bbb     H5  675   6.161   8.224   7.425 -0.0016 -0.8368  0.1773
   24bbb     H6  676   6.225   8.336   7.304  0.4764 -0.4221  1.9330
   24bbb     C4  677   6.097   8.181   7.221 -0.7923 -0.3633 -0.4841
   24bbb     H7  678   6.182   8.113   7.207 -1.2797 -0.7866 -1.5947
   24bbb     H8  679   6.087   8.236   7.126 -1.7687  0.0723 -0.1488
   24bbb     C5  680   5.860   8.556   7.272  0.5020  0.0664  0.1757
   24bbb     H9  681   5.821   8.603   7.181 -3.7673 -2.5376  0.3627
   24bbb    H10  682   5.885   8.636   7.344 -1.5149  1.3034 -0.4047
   24bbb     C6  683   6.146   8.414   7.600 -0.4655 -0.6519 -0.2120
   24bbb    H11  684   6.242   8.367   7.576 -1.1424 -1.6051 -1.1878
   24bbb    H12  685   6.078   8.337   7.639  0.1515 -0.8373  0.5075
   24bbb     C7  686   5.977   8.090   7.255  0.1536 -0.3330 -0.1068
   24bbb    H13  687   5.890   8.157   7.257  0.6113  0.3157  2.8815
   24bbb    H14  688   5.978   8.050   7.357 -1.1559  0.9684  0.4468
   24bbb     C8  689   6.177   8.518   7.707  0.5849  0.2476 -0.2400
   24bbb    H15  690   6.230   8.470   7.790  2.5132 -0.2833 -1.7003
   24bbb    H16  691   6.087   8.569   7.744  2.1446  1.5170  2.0778
   24bbb     C9  692   5.742   8.476   7.337  0.0403  0.4242 -0.1697
   24bbb    H17  693   5.773   8.445   7.437 -2.2370  1.2180  0.8359
   24bbb    H18  694   5.724   8.390   7.271  0.7410  0.3570 -0.2829
   24bbb     O1  695   5.960   7.980   7.161 -0.3169  0.3272 -0.0480
   25bbb     N1  696   5.827   7.972   8.341 -0.3580  0.1548  0.3244
   25bbb     C1  697   5.730   8.051   8.432  0.1461 -0.7528 -0.6526
   25bbb     H1  698   5.783   8.092   8.519 -0.5570 -0.6668 -0.2575
   25bbb     H2  699   5.660   7.981   8.478 -1.6495  0.0172 -2.0799
   25bbb     C2  700   5.759   7.910   8.226 -0.4984 -0.0994 -0.3260
   25bbb     H3  701   5.839   7.848   8.182 -0.2228  1.0113 -1.4536
   25bbb     H4  702   5.742   7.988   8.151  1.3056  0.0401 -0.6347
   25bbb     C3  703   5.945   8.044   8.304 -0.1798  0.2840 -0.1996
   25bbb     H5  704   5.911   8.134   8.251 -3.3360 -0.6622 -0.0237
   25bbb     H6  705   6.004   7.979   8.240 -1.6550 -0.3239 -0.9917
   25bbb     C4  706   6.035   8.074   8.416  0.2363 -0.2612 -0.3897
   25bbb     H7  707   6.066   7.977   8.457 -1.2031 -0.2882  0.7264
   25bbb     H8  708   5.991   8.126   8.502 -0.2085 -0.0567 -0.7375
   25bbb     C5  709   5.644   8.165   8.368 -0.3233  0.3771  0.8542
   25bbb     H9  710   5.590   8.127   8.280 -2.0817  1.2023  1.5172
   25bbb    H10  711   5.707   8.245   8.328 -0.0817  0.7999  2.0347
   25bbb     C6  712   5.628   7.827   8.245  1.1524 -0.2640  0.4225
   25bbb    H11  713   5.578   7.836   8.148 -0.1281 -0.6604  1.0216
   25bbb    H12  714   5.561   7.884   8.310 -0.8460  1.4141 -2.8539
   25bbb     C7  715   6.143   8.175   8.379  0.3876  0.4300  0.1874
   25bbb    H13  716   6.193   8.202   8.473  0.1488  0.9356  0.1713
   25bbb    H14  717   6.096   8.264   8.336  1.8273  1.2592  0.2799
   25bbb     C8  718   5.642   7.685   8.302  0.1051  0.0062  0.3449
   25bbb    H15  719   5.542   7.640   8.309 -0.2253  0.7505  0.4533
   25bbb    H16  720   5.697   7.696   8.397 -0.7636  1.5053  0.6962
   25bbb     C9  721   5.542   8.226   8.471 -0.2465  0.9471 -0.3830
   25bbb    H17  722   5.609   8.233   8.558  1.4577  1.6332 -1.6724
   25bbb    H18  723   5.467   8.150   8.495 -2.3640  1.9780 -3.1884
   25bbb     O1  724   6.235   8.109   8.292 -0.3186  0.4655 -0.6215
   26bbb     N1  725   6.707   7.254   8.217 -0.7219 -0.0707 -0.6753
   26bbb     C1  726   6.842   7.208   8.261  0.3110 -0.6922 -0.4016
   26bbb     H1  727   6.887   7.270   8.339 -1.0729  1.3685 -1.1757
   26bbb     H2  728   6.907   7.223   8.174 -1.3939  3.0802 -1.2101
   26bbb     C2  729   6.597   7.225   8.313 -0.2937 -0.0320 -0.1741
   26bbb     H3  730   6.617   7.277   8.407 -0.0529 -0.4198 -0.0051
   26bbb     H4  731   6.592   7.115   8.319  1.6333 -0.1047  0.8953
   26bbb     C3  732   6.702   7.393   8.172  0.7102  0.1400  0.2551
   26bbb     H5  733   6.691   7.462   8.257  1.2121  0.3267  0.1711
   26bbb     H6  734   6.613   7.414   8.111 -2.3610  0.0457  4.2726
   26bbb     C4  735   6.821   7.448   8.090 -0.6903 -0.4526  0.4400
   26bbb     H7  736   6.813   7.395   7.994  0.0618 -0.4055  0.3401
   26bbb     H8  737   6.918   7.419   8.134  0.3633  1.2548 -0.6304
   26bbb     C5  738   6.841   7.065   8.300 -1.0494  0.5034 -0.3547
   26bbb     H9  739   6.791   7.005   8.224 -0.8253 -0.7261  0.4436
   26bbb    H10  740   6.782   7.046   8.390 -2.8915  2.1886 -1.1426
   26bbb     C6  741   6.453   7.258   8.262 -0.0314  0.2118 -0.7527
   26bbb    H11  742   6.445   7.365   8.241 -0.3172  0.0940 -1.2467
   26bbb    H12  743   6.382   7.235   8.344 -0.6857  2.5839 -0.5733
   26bbb     C7  744   6.819   7.607   8.081 -0.1375 -0.2514 -0.5355
   26bbb    H13  745   6.908   7.655   8.038 -0.0558  0.3662  0.3133
   26bbb    H14  746   6.805   7.647   8.182 -1.3187  1.2233 -1.2424
   26bbb     C8  747   6.408   7.178   8.132 -0.6717  0.3386  0.3097
   26bbb    H15  748   6.432   7.071   8.137  1.0374  0.7126  1.0071
   26bbb    H16  749   6.471   7.209   8.047 -1.6930 -0.0350 -0.6165
   26bbb     C9  750   6.991   7.016   8.326 -0.0349  0.1147 -0.4013
   26bbb    H17  751   7.033   7.067   8.414  1.8274 -1.2486 -0.4370
   26bbb    H18  752   7.051   7.048   8.240 -0.6435  1.2528 -0.4218
   26bbb     O1  753   6.705   7.653   8.010  0.0914  0.1137  0.2886
   27bbb     N1  754   6.712   5.742   6.513 -0.2011  0.6400  0.0293
   27bbb     C1  755   6.820   5.814   6.583  0.0007 -0.5651  0.4023
   27bbb     H1  756   6.913   5.759   6.564  0.2177 -0.3885  0.9472
   27bbb     H2  757   6.796   5.800   6.689  0.1245 -2.2561  0.2342
   27bbb     C2  758   6.705   5.601   6.559  0.1833 -0.1478 -0.0441
   27bbb     H3  759   6.799   5.547   6.544 -0.5529 -1.4049 -0.3419
   27bbb     H4  760   6.641   5.537   6.496 -0.4123 -0.0619  0.4683
   27bbb     C3  761   6.586   5.824   6.501 -0.3400  0.5963 -0.7890
   27bbb     H5  762   6.613   5.898   6.424  2.4178  0.5081 -0.0226
   27bbb     H6  763   6.569   5.882   6.592  0.4996  1.3639 -1.1070
   27bbb     C4  764   6.460   5.737   6.470  0.5621 -0.6392 -0.3196
   27bbb     H7  765   6.449   5.670   6.556  3.1986 -1.0433 -0.2151
   27bbb     H8  766   6.474   5.669   6.384  2.2604 -0.2812 -0.3531
   27bbb     C5  767   6.846   5.960   6.548 -0.3288 -0.7940 -0.3266
   27bbb     H9  768   6.760   6.028   6.559  1.5877  1.5951  1.0288
   27bbb    H10  769   6.846   5.968   6.439 -2.9204 -1.6025 -0.4569
   27bbb     C6  770   6.660   5.585   6.705 -0.7414  0.5627  0.0513
   27bbb    H11  771   6.583   5.659   6.728  0.0285  1.4534 -0.1950
   27bbb    H12  772   6.745   5.611   6.768 -1.1303 -1.4634  1.5237
   27bbb     C7  773   6.331   5.823   6.435  0.2633 -0.0748  0.2703
   27bbb    H13  774   6.261   5.768   6.370  2.6431 -0.4861 -2.1286
   27bbb    H14  775   6.361   5.915   6.382 -1.0241  1.1515  1.5766
   27bbb     C8  776   6.631   5.435   6.742  0.3447  0.3225 -0.0620
   27bbb    H15  777   6.538   5.404   6.693 -0.7636  0.2552  1.9402
   27bbb    H16  778   6.614   5.426   6.850 -3.2359 -0.3972 -0.5552
   27bbb     C9  779   6.970   6.021   6.615  0.0448 -0.6029 -0.5617
   27bbb    H17  780   7.043   5.940   6.625 -0.0858 -0.8667 -1.6207
   27bbb    H18  781   6.947   6.054   6.717 -0.3631  0.5994 -1.0242
   27bbb     O1  782   6.269   5.864   6.556  0.4106 -0.0239 -0.0046
   28bbb     N1  783   6.480   5.291   6.369  0.0289  0.6376 -0.0740
   28bbb     C1  784   6.548   5.349   6.253  0.2040  0.1642 -0.4120
   28bbb     H1  785   6.642   5.300   6.229  0.6860  0.2773  1.1561
   28bbb     H2  786   6.566   5.452   6.285  3.0671 -0.8818  1.6739
   28bbb     C2  787   6.502   5.148   6.384  0.3778 -0.3121 -0.5647
   28bbb     H3  788   6.496   5.105   6.283 -1.1190 -0.1830 -0.5511
   28bbb     H4  789   6.431   5.094   6.448 -0.9313  1.2900 -0.5948
   28bbb     C3  790   6.356   5.357   6.422 -0.2094  0.4369  0.0939
   28bbb     H5  791   6.356   5.466   6.411  0.0918  0.4936  0.6262
   28bbb     H6  792   6.348   5.336   6.530  0.0399  2.2172  0.4870
   28bbb     C4  793   6.218   5.316   6.363 -0.1548 -0.1945  0.6105
   28bbb     H7  794   6.211   5.207   6.373 -0.1597 -0.2371  0.1347
   28bbb     H8  795   6.208   5.348   6.259  0.6130  0.2201  0.6630
   28bbb     C5  796   6.463   5.354   6.122 -0.3357  0.7643 -0.0075
   28bbb     H9  797   6.375   5.418   6.135 -1.0542  0.4684 -2.7359
   28bbb    H10  798   6.425   5.254   6.098 -0.5500  0.5479  1.1853
   28bbb     C6  799   6.642   5.116   6.447 -0.7946 -0.1404 -0.0951
   28bbb    H11  800   6.642   5.159   6.547 -1.9435 -1.7339  0.6369
   28bbb    H12  801   6.725   5.159   6.389 -1.1411 -2.1431 -2.2653
   28bbb     C7  802   6.092   5.369   6.438  0.6906  0.3810  0.5132
   28bbb    H13  803   6.005   5.317   6.395  0.5904  1.3619 -0.5453
   28bbb    H14  804   6.093   5.478   6.422  1.8662  0.2627 -0.3603
   28bbb     C8  805   6.675   4.963   6.468 -0.9253 -0.7605  0.4503
   28bbb    H15  806   6.595   4.926   6.533 -0.8604  1.4752  1.9030
   28bbb    H16  807   6.774   4.957   6.513  0.2673  1.5042 -1.6147
   28bbb     C9  808   6.541   5.413   6.003 -0.6177 -0.7233  0.2304
   28bbb    H17  809   6.602   5.500   6.033  1.2397 -1.2417 -1.7680
   28bbb    H18  810   6.616   5.339   5.973 -0.4627 -0.4751  0.0012
   28bbb     O1  811   6.112   5.337   6.576  0.2619 -0.0567  0.0251
   29bbb     N1  812   6.303   6.013   7.970  0.0836  0.0776  0.5810
   29bbb     C1  813   6.431   5.974   8.039 -0.0059  0.7682 -1.1708
   29bbb     H1  814   6.421   5.900   8.120  0.8406  3.4509  1.5541
   29bbb     H2  815   6.470   6.062   8.090 -0.5466  1.3240 -1.7056
   29bbb     C2  816   6.193   6.047   8.064 -0.6037 -0.0792  0.4544
   29bbb     H3  817   6.236   6.128   8.124  0.8457 -0.3088 -0.2284
   29bbb     H4  818   6.170   5.963   8.130  1.3435 -0.7488  0.3455
   29bbb     C3  819   6.255   5.910   7.874  0.4524  0.5896  0.2057
   29bbb     H5  820   6.344   5.869   7.825 -0.5067 -1.2633 -0.0974
   29bbb     H6  821   6.180   5.951   7.805  1.4008  1.8910 -0.0815
   29bbb     C4  822   6.183   5.787   7.943  0.4623  0.6031  0.1396
   29bbb     H7  823   6.076   5.808   7.958  0.7735  1.5036  1.2445
   29bbb     H8  824   6.237   5.763   8.036 -0.4196  0.5773  0.6614
   29bbb     C5  825   6.550   5.938   7.948 -0.2109 -0.6735 -0.4993
   29bbb     H9  826   6.533   5.971   7.845 -2.5124  1.7389  0.5290
   29bbb    H10  827   6.563   5.829   7.946  0.2589 -0.6198 -0.6512
   29bbb     C6  828   6.071   6.112   8.002 -0.3254  0.7167 -0.3427
   29bbb    H11  829   6.007   6.158   8.078 -0.4831  0.2442 -0.1842
   29bbb    H12  830   5.998   6.040   7.962  1.5900 -1.1195 -0.7092
   29bbb     C7  831   6.206   5.662   7.854  0.3689  0.2208 -0.0740
   29bbb    H13  832   6.181   5.698   7.753 -1.8521  2.1475  1.0549
   29bbb    H14  833   6.142   5.577   7.883 -1.2476  1.3058 -0.3093
   29bbb     C8  834   6.098   6.224   7.897 -0.6649  0.3800  0.1126
   29bbb    H15  835   6.130   6.181   7.802  3.6467  0.7663  1.1821
   29bbb    H16  836   6.173   6.296   7.932  0.6675  0.1786 -2.1975
   29bbb     C9  837   6.689   5.989   8.001  0.8897  0.5997  0.3113
   29bbb    H17  838   6.767   5.921   7.966  0.6656 -0.1071  1.1404
   29bbb    H18  839   6.703   5.982   8.110 -3.9129  0.1951  1.1245
   29bbb     O1  840   6.344   5.626   7.853 -0.4038  0.3022  0.1178
   30bbb     N1  841   6.175   4.938   7.007  0.1855  0.3592  0.1507
   30bbb     C1  842   6.033   4.962   7.066 -0.7725  0.6398 -0.2751
   30bbb     H1  843   5.971   4.875   7.040 -1.5557  0.2667  2.4974
   30bbb     H2  844   5.988   5.051   7.022 -2.4725 -1.2876 -2.6903
   30bbb     C2  845   6.173   4.880   6.870 -0.5345  0.2537  0.1950
   30bbb     H3  846   6.125   4.949   6.799 -0.0701 -1.2602 -1.6694
   30bbb     H4  847   6.119   4.784   6.869  2.0020 -1.2513 -1.3980
   30bbb     C3  848   6.268   5.055   7.027  0.4237 -0.6290  0.1848
   30bbb     H5  849   6.371   5.029   6.999  0.6845  1.4913 -1.1041
   30bbb     H6  850   6.268   5.058   7.136 -1.0818  1.3204  0.1872
   30bbb     C4  851   6.235   5.185   6.956  0.2285 -0.1208 -0.7233
   30bbb     H7  852   6.142   5.225   6.996  0.0028 -2.4768  1.3472
   30bbb     H8  853   6.239   5.168   6.848  2.7705 -3.8566 -0.2326
   30bbb     C5  854   6.036   4.965   7.219 -0.7307  0.0288 -1.1106
   30bbb     H9  855   6.098   5.047   7.257  0.9377 -1.6017 -0.1428
   30bbb    H10  856   6.071   4.869   7.258 -1.6725 -0.6172 -1.7839
   30bbb     C6  857   6.318   4.856   6.806 -0.2160  0.8185  0.9376
   30bbb    H11  858   6.379   4.792   6.871 -0.3379 -0.5384 -0.2357
   30bbb    H12  859   6.373   4.951   6.797 -0.7486  1.1607  1.2545
   30bbb     C7  860   6.342   5.284   6.988 -0.0105 -0.8310  0.0526
   30bbb    H13  861   6.340   5.375   6.926  0.5051 -0.9811 -0.1944
   30bbb    H14  862   6.435   5.235   6.958  0.2724 -1.3822  1.7431
   30bbb     C8  863   6.314   4.774   6.676  0.2905  0.0739  0.3356
   30bbb    H15  864   6.249   4.686   6.685  0.4389 -0.0371  0.3332
   30bbb    H16  865   6.415   4.740   6.649  0.2273 -0.5746  0.8830
   30bbb     C9  866   5.896   4.990   7.286  0.4911 -0.3448  0.3674
   30bbb    H17  867   5.824   4.913   7.256 -1.1971  1.3515 -0.1312
   30bbb    H18  868   5.851   5.085   7.256  0.3278 -0.4678  0.2167
   30bbb     O1  869   6.364   5.311   7.131  0.5275 -0.0038  0.4161
   31bbb     N1  870   7.323   7.411   5.350  0.1257  0.4703 -0.3397
   31bbb     C1  871   7.178   7.397   5.361  0.5384 -0.1281  0.7905
   31bbb     H1  872   7.151   7.309   5.421 -0.4669  0.0408  0.6011
   31bbb     H2  873   7.140   7.378   5.260  0.2599  2.0009  0.4592
   31bbb     C2  874   7.387   7.418   5.487 -0.1215 -0.0154  0.5249
   31bbb     H3  875   7.360   7.509   5.542  1.9191  0.2614  1.1670
   31bbb     H4  876   7.492   7.443   5.468 -0.6317 -0.0070 -2.8692
   31bbb     C3  877   7.365   7.520   5.259  0.0699 -0.5346  0.4686
   31bbb     H5  878   7.475   7.516   5.251  0.0381  0.9358 -1.5033
   31bbb     H6  879   7.328   7.608   5.314 -1.0710 -0.9063  0.3108
   31bbb     C4  880   7.310   7.523   5.118 -0.3233  0.4245 -0.1206
   31bbb     H7  881   7.203   7.547   5.115 -0.7394 -1.4019 -1.9512
   31bbb     H8  882   7.316   7.418   5.089  0.4363 -0.1892  2.0702
   31bbb     C5  883   7.105   7.520   5.418 -0.8474  0.5370 -0.3871
   31bbb     H9  884   7.128   7.613   5.363 -0.6281  0.4226 -0.4894
   31bbb    H10  885   7.146   7.535   5.519  0.5555  0.6554 -0.9533
   31bbb     C6  886   7.392   7.286   5.565  0.7363  0.0150  0.0541
   31bbb    H11  887   7.480   7.284   5.630 -0.0034  2.6311  1.2740
   31bbb    H12  888   7.415   7.198   5.504  1.5714 -0.6171  1.2338
   31bbb     C7  889   7.404   7.615   5.028 -0.8092 -0.1744  0.0449
   31bbb    H13  890   7.365   7.623   4.926 -0.5496  1.0823  0.0332
   31bbb    H14  891   7.506   7.575   5.019 -0.0706  1.1689  1.7984
   31bbb     C8  892   7.271   7.266   5.660  0.2640 -0.2832 -0.3627
   31bbb    H15  893   7.177   7.267   5.604 -0.8041  0.0040  1.3801
   31bbb    H16  894   7.269   7.343   5.738  2.3270 -1.2090  0.7053
   31bbb     C9  895   6.956   7.499   5.432  0.0468 -0.7268 -0.2475
   31bbb    H17  896   6.905   7.457   5.345 -2.1798 -0.1901  0.7175
   31bbb    H18  897   6.895   7.589   5.446  0.0343 -0.6248 -0.9529
   31bbb     O1  898   7.432   7.739   5.093  0.0442 -0.4529  0.0795
   32bbb     N1  899   7.953   8.425   5.035  0.2039 -0.0182 -0.0252
   32bbb     C1  900   7.925   8.494   4.909 -0.4242  0.3149 -0.2850
   32bbb     H1  901   7.959   8.598   4.922  0.9270 -0.4031  2.8349
   32bbb     H2  902   7.817   8.489   4.890 -0.7301 -0.1837  1.4521
   32bbb     C2  903   8.100   8.435   5.072 -0.1850 -0.0220  0.6395
   32bbb     H3  904   8.113   8.539   5.102 -0.1773 -0.0621  0.7766
   32bbb     H4  905   8.168   8.435   4.986 -0.5357  1.5669  0.3295
   32bbb     C3  906   7.856   8.462   5.138 -0.1744 -0.5255  0.6619
   32bbb     H5  907   7.843   8.571   5.136 -0.5171 -0.5543  1.2590
   32bbb     H6  908   7.889   8.434   5.238 -3.1820  1.3657  2.3297
   32bbb     C4  909   7.712   8.398   5.115 -0.4565 -0.5338  0.0157
   32bbb     H7  910   7.720   8.293   5.085  2.5997 -0.2136 -0.6287
   32bbb     H8  911   7.661   8.459   5.039 -1.2280  0.3800  1.2286
   32bbb     C5  912   7.991   8.446   4.778 -0.5676  0.0952 -0.9374
   32bbb     H9  913   7.993   8.336   4.768  2.0003 -0.0554  0.2579
   32bbb    H10  914   8.097   8.475   4.775 -0.5618  0.8541  2.5945
   32bbb     C6  915   8.148   8.330   5.176  0.5458 -0.7513  0.3910
   32bbb    H11  916   8.083   8.339   5.263  0.6464 -0.3676  0.4272
   32bbb    H12  917   8.249   8.357   5.210 -0.0180  0.9984  0.7480
   32bbb     C7  918   7.625   8.423   5.234 -0.5929  0.6140 -0.2312
   32bbb    H13  919   7.600   8.527   5.257  0.1050  0.7474 -0.0703
   32bbb    H14  920   7.679   8.381   5.319 -0.5988  0.8943 -0.0909
   32bbb     C8  921   8.142   8.184   5.118 -0.5873 -0.2969 -0.1495
   32bbb    H15  922   8.202   8.172   5.027 -0.8932  1.8210 -0.6717
   32bbb    H16  923   8.035   8.164   5.105 -0.6681 -0.2119  0.3640
   32bbb     C9  924   7.923   8.521   4.657  0.3369 -0.3580 -0.4998
   32bbb    H17  925   7.985   8.511   4.568  0.3158 -0.8524 -0.4578
   32bbb    H18  926   7.922   8.630   4.671  0.7533 -0.3656 -0.3935
   32bbb     O1  927   7.510   8.329   5.218 -0.3194 -0.5103 -0.3438
   33bbb     N1  928   7.188   8.758   6.145  0.4782  0.5145  0.0934
   33bbb     C1  929   7.158   8.869   6.057 -0.1583  0.4308  0.4245
   33bbb     H1  930   7.097   8.940   6.115 -0.8390  0.2784 -0.1005
   33bbb     H2  931   7.091   8.833   5.978 -0.1230  2.0112 -0.3663
   33bbb     C2  932   7.273   8.791   6.266  0.7298 -0.7640  0.4862
   33bbb     H3  933   7.379   8.771   6.247  0.4286 -2.3594  0.3816
   33bbb     H4  934   7.250   8.718   6.345  0.1488 -0.6976  0.3815
   33bbb     C3  935   7.226   8.626   6.088  0.2228 -0.6806 -0.0605
   33bbb     H5  936   7.238   8.554   6.169 -1.7163 -0.1142  0.7960
   33bbb     H6  937   7.322   8.642   6.038  0.0384  1.7128  0.1999
   33bbb     C4  938   7.123   8.573   5.985  0.2695 -0.5354  0.5999
   33bbb     H7  939   7.133   8.614   5.884  1.5027 -0.4477  0.7514
   33bbb     H8  940   7.021   8.585   6.026  0.3531 -0.7291  0.8659
   33bbb     C5  941   7.291   8.918   5.984 -0.3920  0.0580  1.0717
   33bbb     H9  942   7.339   8.834   5.933  0.4242  1.0691  0.1163
   33bbb    H10  943   7.369   8.951   6.054  0.2796  0.5611  0.1099
   33bbb     C6  944   7.248   8.930   6.332 -0.0176 -0.4518  0.2664
   33bbb    H11  945   7.145   8.960   6.355 -0.4556 -2.7054  1.5042
   33bbb    H12  946   7.294   9.015   6.280  0.2881  0.2591  1.6743
   33bbb     C7  947   7.135   8.421   5.977  0.1828 -0.1012 -0.1616
   33bbb    H13  948   7.059   8.388   5.906 -2.1342  0.5484  1.8887
   33bbb    H14  949   7.097   8.377   6.071  0.9275  2.4513  1.4348
   33bbb     C8  950   7.324   8.938   6.470  0.4224 -0.1157  0.3629
   33bbb    H15  951   7.269   8.875   6.540  1.9648  0.2409  1.9498
   33bbb    H16  952   7.309   9.035   6.518  0.5358 -0.1311  0.4291
   33bbb     C9  953   7.258   9.014   5.864 -0.0805  0.3239 -0.3127
   33bbb    H17  954   7.238   9.112   5.909 -0.8962 -0.3948  0.9354
   33bbb    H18  955   7.174   8.961   5.818  0.0981  0.0589 -0.3365
   33bbb     O1  956   7.269   8.377   5.942 -0.6464 -0.4144  0.5399
   34bbb     N1  957   7.696   8.125   6.741 -0.0641  0.2658  0.2117
   34bbb     C1  958   7.575   8.207   6.772 -0.6985 -0.2099  0.0552
   34bbb     H1  959   7.520   8.168   6.859 -0.1962 -0.7731  0.1307
   34bbb     H2  960   7.498   8.205   6.695  0.7345 -0.8528 -1.4240
   34bbb     C2  961   7.678   7.977   6.740 -0.0440  0.5022  0.3524
   34bbb     H3  962   7.746   7.924   6.673 -3.1355 -2.4617 -0.7734
   34bbb     H4  963   7.575   7.959   6.705 -0.1964  1.0524  0.5035
   34bbb     C3  964   7.768   8.178   6.623  0.1823 -0.1013  0.0494
   34bbb     H5  965   7.868   8.136   6.612  1.1338  2.0918 -0.1636
   34bbb     H6  966   7.781   8.286   6.634 -0.2136 -0.0818  0.3698
   34bbb     C4  967   7.696   8.153   6.493  0.4111  0.3939  0.0864
   34bbb     H7  968   7.704   8.242   6.429  1.7811 -1.3083 -2.2457
   34bbb     H8  969   7.589   8.128   6.502  0.5546 -0.4247 -0.4696
   34bbb     C5  970   7.600   8.351   6.804 -0.2714 -0.0059  0.3329
   34bbb     H9  971   7.618   8.408   6.712  1.2850 -0.4444  0.3376
   34bbb    H10  972   7.690   8.365   6.866  0.4090  0.4959 -0.7266
   34bbb     C6  973   7.669   7.917   6.884 -0.4220 -0.4250  0.0262
   34bbb    H11  974   7.570   7.946   6.921  0.1807  1.8900 -0.0625
   34bbb    H12  975   7.749   7.958   6.947  0.4695 -0.8286 -0.8253
   34bbb     C7  976   7.761   8.048   6.407  0.1622  0.0032  0.0500
   34bbb    H13  977   7.730   7.948   6.441  1.4920 -0.5452 -0.2540
   34bbb    H14  978   7.871   8.053   6.405  0.3237 -1.7869  1.3889
   34bbb     C8  979   7.675   7.762   6.887  0.0018 -0.3838 -0.3851
   34bbb    H15  980   7.780   7.733   6.871  0.6388  2.3230 -1.7468
   34bbb    H16  981   7.605   7.736   6.807  0.2646 -0.2906 -0.6484
   34bbb     C9  982   7.490   8.423   6.885 -0.1497  0.3831 -0.2923
   34bbb    H17  983   7.483   8.399   6.992  1.9322 -1.5980 -0.5305
   34bbb    H18  984   7.392   8.407   6.839  0.0274 -0.0011 -0.5383
   34bbb     O1  985   7.707   8.070   6.275  0.0530 -0.4903  0.0580
   35bbb     N1  986   5.920   8.531   8.530 -0.1435  0.9090 -0.0519
   35bbb     C1  987   5.860   8.474   8.406 -0.9157  0.0982  0.0555
   35bbb     H1  988   5.750   8.475   8.407 -1.0771 -0.6185 -3.5644
   35bbb     H2  989   5.877   8.366   8.407 -0.8422  0.0980 -0.7750
   35bbb     C2  990   5.824   8.507   8.642 -0.3560 -0.1614  0.3663
   35bbb     H3  991   5.728   8.552   8.614  0.5344  1.6846  0.1313
   35bbb     H4  992   5.846   8.585   8.717 -1.5434  3.1382 -2.4516
   35bbb     C3  993   6.048   8.473   8.565 -0.2641 -0.2767 -0.2340
   35bbb     H5  994   6.125   8.482   8.487  0.9345  0.7222  1.0325
   35bbb     H6  995   6.042   8.363   8.569  0.3472 -0.2665  2.8093
   35bbb     C4  996   6.124   8.528   8.687 -0.2788 -0.8091  0.0918
   35bbb     H7  997   6.175   8.455   8.750  1.0145 -0.9950 -1.1275
   35bbb     H8  998   6.053   8.574   8.757 -0.2504 -0.0202 -0.3757
   35bbb     C5  999   5.909   8.553   8.282 -0.2692  0.0049  0.5531
   35bbb     H9 1000   6.016   8.532   8.267 -0.5750  0.1499 -2.5078
   35bbb    H10 1001   5.911   8.659   8.308  2.0540 -0.3818  2.3132
   35bbb     C6 1002   5.815   8.368   8.704  0.4211  0.1455 -0.2622
   35bbb    H11 1003   5.903   8.347   8.766  0.3430  1.1220  0.2005
   35bbb    H12 1004   5.825   8.297   8.622  0.1375  1.7208 -1.7281
   35bbb     C7 1005   6.216   8.643   8.642 -0.3321 -0.2146 -0.0292
   35bbb    H13 1006   6.264   8.683   8.732  0.4355  2.0517 -1.3415
   35bbb    H14 1007   6.163   8.729   8.598  2.9964  1.8154 -0.4454
   35bbb     C8 1008   5.692   8.337   8.790 -0.8637 -0.2420  0.6346
   35bbb    H15 1009   5.598   8.377   8.749 -1.1436 -1.3690  0.1515
   35bbb    H16 1010   5.717   8.390   8.883  2.0319  0.4457 -0.4274
   35bbb     C9 1011   5.843   8.522   8.149  0.5132 -0.3199  0.6353
   35bbb    H17 1012   5.881   8.599   8.080  0.8128 -0.6325  0.4461
   35bbb    H18 1013   5.736   8.546   8.157 -0.0234 -1.7243 -1.3641
   35bbb     O1 1014   6.320   8.598   8.557 -0.4040  0.3883 -0.4163
   36bbb     N1 1015   5.787   8.865   7.739  0.3190  0.5046  1.1874
   36bbb     C1 1016   5.684   8.764   7.762  0.3615  0.1067  0.0073
   36bbb     H1 1017   5.589   8.796   7.716 -1.5400 -1.8055  2.3053
   36bbb     H2 1018   5.651   8.776   7.866 -3.6989  0.9723 -1.1848
   36bbb     C2 1019   5.820   8.867   7.595 -0.7459 -0.1601  0.8071
   36bbb     H3 1020   5.876   8.776   7.569  1.3693  1.1165  0.7245
   36bbb     H4 1021   5.900   8.941   7.593 -1.0341  0.1423 -0.4897
   36bbb     C3 1022   5.906   8.860   7.830  0.2825 -0.3395  0.4382
   36bbb     H5 1023   5.982   8.931   7.798 -1.0007  0.3186 -1.3314
   36bbb     H6 1024   5.958   8.763   7.833  1.3436  0.2478  1.5317
   36bbb     C4 1025   5.857   8.883   7.980 -0.1733  0.0292 -0.9794
   36bbb     H7 1026   5.811   8.789   8.013 -0.1091 -0.1465 -1.3775
   36bbb     H8 1027   5.773   8.953   7.991 -0.6124 -0.7228  0.7066
   36bbb     C5 1028   5.726   8.614   7.735  0.2419  0.4000  0.7807
   36bbb     H9 1029   5.824   8.589   7.777  0.7542 -1.3581 -1.2540
   36bbb    H10 1030   5.740   8.599   7.627  0.4798 -2.5865  1.1475
   36bbb     C6 1031   5.712   8.923   7.503 -0.0343  0.1395 -0.3292
   36bbb    H11 1032   5.707   9.030   7.526  2.5802  0.6159 -1.5905
   36bbb    H12 1033   5.616   8.872   7.522  0.7856 -1.5211 -0.4336
   36bbb     C7 1034   5.969   8.917   8.082  0.6912  0.5723 -0.4292
   36bbb    H13 1035   5.925   8.918   8.182 -0.7610 -0.4795 -1.0064
   36bbb    H14 1036   6.019   9.011   8.058 -2.0745  1.6591 -2.5904
   36bbb     C8 1037   5.736   8.907   7.354 -0.3053  0.2064  0.0136
   36bbb    H15 1038   5.638   8.928   7.308 -0.3854 -1.2751 -0.5495
   36bbb    H16 1039   5.771   8.805   7.335  2.1045  0.8533  0.6624
   36bbb     C9 1040   5.624   8.513   7.782 -0.2634  0.1543  0.4865
   36bbb    H17 1041   5.657   8.423   7.728  1.6150  0.9669  0.2100
   36bbb    H18 1042   5.638   8.488   7.888  1.0226  1.8522  0.7603
   36bbb     O1 1043   6.063   8.806   8.085 -0.0408  0.4799 -0.0536
   37bbb     N1 1044   7.181   8.411   7.669 -0.2820 -0.0531  1.0814
   37bbb     C1 1045   7.282   8.493   7.593 -0.1565 -0.1679 -0.6693
   37bbb     H1 1046   7.227   8.565   7.532 -0.1367  0.8310  0.4503
   37bbb     H2 1047   7.350   8.426   7.539  1.1864  1.0519 -0.5348
   37bbb     C2 1048   7.115   8.318   7.568 -0.6224 -0.3572 -0.3685
   37bbb     H3 1049   7.199   8.252   7.542  0.5820  0.8673  0.2976
   37bbb     H4 1050   7.083   8.369   7.477 -1.0316  0.5896  0.2920
   37bbb     C3 1051   7.094   8.484   7.758 -0.2318 -0.3608 -0.5871
   37bbb     H5 1052   7.151   8.523   7.843 -0.3540  0.1524 -0.7313
   37bbb     H6 1053   7.024   8.413   7.804  0.6637 -0.4811  0.6295
   37bbb     C4 1054   7.009   8.596   7.687  0.7011 -0.6099 -0.1334
   37bbb     H7 1055   6.947   8.541   7.615  0.7432  0.8096 -1.2832
   37bbb     H8 1056   7.073   8.665   7.632 -0.9252 -0.0783 -1.4469
   37bbb     C5 1057   7.384   8.576   7.680  0.2191  0.3471  0.3397
   37bbb     H9 1058   7.329   8.632   7.756  2.0247 -0.4372  2.3355
   37bbb    H10 1059   7.429   8.647   7.610 -1.4564  1.9496  0.8202
   37bbb     C6 1060   7.008   8.224   7.616 -0.3479 -0.2082 -0.4375
   37bbb    H11 1061   6.925   8.289   7.645  0.5390 -0.4261  3.0814
   37bbb    H12 1062   7.039   8.185   7.714 -1.9514 -2.1502 -0.6270
   37bbb     C7 1063   6.919   8.677   7.782 -0.4555  0.4246 -0.6479
   37bbb    H13 1064   6.983   8.722   7.859 -0.6318 -1.3992  0.6295
   37bbb    H14 1065   6.858   8.604   7.836  1.6155 -0.7466  0.2175
   37bbb     C8 1066   6.967   8.116   7.520 -0.4391  0.1572 -0.2614
   37bbb    H15 1067   7.039   8.034   7.506 -0.9291 -0.6729  1.6357
   37bbb    H16 1068   6.949   8.166   7.425 -0.6502 -0.3242 -0.4763
   37bbb     C9 1069   7.487   8.488   7.756 -0.4101 -0.8724  0.1488
   37bbb    H17 1070   7.446   8.460   7.854 -0.6281 -0.6011  0.1371
   37bbb    H18 1071   7.578   8.540   7.789 -0.5296 -2.3815  3.2673
   37bbb     O1 1072   6.843   8.769   7.705 -0.0674 -0.2076  0.1089
   38bbb     N1 1073   6.351   9.860   7.557 -0.1993 -0.3905 -0.1967
   38bbb     C1 1074   6.327   9.863   7.700  0.1463 -0.2361 -0.2018
   38bbb     H1 1075   6.251   9.941   7.714 -0.9199 -1.4743  1.1412
   38bbb     H2 1076   6.415   9.901   7.753  0.8355 -0.7656 -0.9572
   38bbb     C2 1077   6.224   9.862   7.476 -0.0980  0.1197  0.5834
   38bbb     H3 1078   6.140   9.901   7.534 -0.4544 -1.5238  1.2277
   38bbb     H4 1079   6.194   9.758   7.460  0.4074 -0.1945  1.6087
   38bbb     C3 1080   6.446   9.758   7.502  0.2479  0.4803  0.0393
   38bbb     H5 1081   6.451   9.773   7.393 -3.2444 -1.7847 -0.5915
   38bbb     H6 1082   6.407   9.656   7.516 -1.0406  1.2510  2.6936
   38bbb     C4 1083   6.588   9.745   7.563  0.2005  0.1951  0.0473
   38bbb     H7 1084   6.590   9.710   7.667  2.5265 -0.6991 -0.2302
   38bbb     H8 1085   6.620   9.850   7.573 -0.4268  0.3188  0.8451
   38bbb     C5 1086   6.284   9.730   7.775  0.9448 -0.7539 -0.2442
   38bbb     H9 1087   6.371   9.664   7.780  0.9702 -0.7522 -0.6273
   38bbb    H10 1088   6.209   9.679   7.712 -1.1537  1.1810  0.5186
   38bbb     C6 1089   6.233   9.951   7.349  0.6884 -0.6179 -0.8320
   38bbb    H11 1090   6.138   9.954   7.294  0.6441  0.3743 -0.7295
   38bbb    H12 1091   6.307   9.920   7.274 -0.3371  0.9222 -2.5644
   38bbb     C7 1092   6.673   9.654   7.473  0.6061  0.1719 -0.7613
   38bbb    H13 1093   6.780   9.664   7.494  0.1209  1.5292  1.4012
   38bbb    H14 1094   6.646   9.689   7.373 -0.3590  0.4666 -0.4047
   38bbb     C8 1095   6.251  10.101   7.380  0.4378 -0.1077  0.1769
   38bbb    H15 1096   6.245  10.166   7.292  0.3366 -1.2759 -0.7106
   38bbb    H16 1097   6.344  10.129   7.432  1.1091 -0.6152 -0.7163
   38bbb     C9 1098   6.214   9.759   7.907 -0.1121 -0.1476  0.1695
   38bbb    H17 1099   6.134   9.832   7.890 -0.8932  0.3952  4.8227
   38bbb    H18 1100   6.278   9.793   7.990 -2.0092 -0.0642  1.6812
   38bbb     O1 1101   6.632   9.522   7.489  0.2098  0.0025 -0.7714
   39bbb     N1 1102   6.525   5.950   6.103 -0.2412 -0.0442 -0.6282
   39bbb     C1 1103   6.575   6.059   6.195 -0.3241 -0.5126  0.6933
   39bbb     H1 1104   6.673   6.028   6.233 -0.7918 -1.2398  1.3325
   39bbb     H2 1105   6.513   6.068   6.285 -0.7051  0.3820  0.3536
   39bbb     C2 1106   6.591   5.931   5.969 -0.0306 -0.2612 -0.3691
   39bbb     H3 1107   6.569   6.019   5.906  0.3184  0.4392  0.4668
   39bbb     H4 1108   6.551   5.840   5.923  0.8143 -0.9619  0.2788
   39bbb     C3 1109   6.379   5.959   6.094 -0.0165  0.1525 -0.2504
   39bbb     H5 1110   6.354   6.035   6.019  1.8540  0.8379 -0.2387
   39bbb     H6 1111   6.336   5.993   6.189 -0.5463 -0.3690 -0.2967
   39bbb     C4 1112   6.315   5.822   6.056 -0.2270 -0.2663 -0.1341
   39bbb     H7 1113   6.346   5.744   6.126  1.7694 -0.2338 -0.9213
   39bbb     H8 1114   6.354   5.786   5.960  0.3782  1.3543 -0.5237
   39bbb     C5 1115   6.584   6.205   6.136 -0.3185  0.1659 -0.0024
   39bbb     H9 1116   6.492   6.265   6.133 -0.0117  0.5931 -2.5003
   39bbb    H10 1117   6.622   6.195   6.034 -0.0135  2.4621 -0.1597
   39bbb     C6 1118   6.741   5.910   5.970 -0.0284 -0.1138 -0.6963
   39bbb    H11 1119   6.767   5.833   6.044  0.3662  1.1282  0.4981
   39bbb    H12 1120   6.792   5.998   6.011 -2.5403  0.9120  0.4480
   39bbb     C7 1121   6.160   5.835   6.031 -1.0249 -0.7793 -0.3870
   39bbb    H13 1122   6.123   5.738   5.995 -0.0891 -0.7784 -1.4009
   39bbb    H14 1123   6.147   5.915   5.957 -0.2272  0.8340  1.1286
   39bbb     C8 1124   6.801   5.877   5.832 -0.9301 -0.2313 -0.1562
   39bbb    H15 1125   6.745   5.791   5.794 -0.7056 -0.3252 -0.2745
   39bbb    H16 1126   6.905   5.845   5.843 -1.0390 -0.5966 -0.1775
   39bbb     C9 1127   6.688   6.295   6.206 -0.1343 -0.0228 -0.0301
   39bbb    H17 1128   6.702   6.278   6.313  0.1983 -1.3402 -0.2699
   39bbb    H18 1129   6.670   6.401   6.185  2.3272  0.8186  1.6591
   39bbb     O1 1130   6.111   5.887   6.156 -0.5158 -0.3176 -0.3424
   40bbb     N1 1131   5.594   5.722   7.071 -0.4017  0.1753 -0.0250
   40bbb     C1 1132   5.572   5.593   7.148 -0.2680 -0.7087 -0.3085
   40bbb     H1 1133   5.668   5.541   7.151  0.9709  1.4649  0.8810
   40bbb     H2 1134   5.490   5.533   7.106 -1.1619 -1.4872  2.3324
   40bbb     C2 1135   5.661   5.845   7.134 -0.3674  0.3021  0.4626
   40bbb     H3 1136   5.608   5.856   7.229 -1.1220 -1.4117  0.2700
   40bbb     H4 1137   5.636   5.935   7.077 -1.4834 -1.2144 -1.6012
   40bbb     C3 1138   5.621   5.698   6.924  0.1916  0.2623  0.8665
   40bbb     H5 1139   5.727   5.683   6.900 -0.0329  3.0635 -2.8077
   40bbb     H6 1140   5.595   5.792   6.873 -1.8193 -0.9444 -0.4905
   40bbb     C4 1141   5.540   5.583   6.851  0.6551  0.5427 -0.2564
   40bbb     H7 1142   5.440   5.569   6.895  0.4014 -0.2875 -1.0567
   40bbb     H8 1143   5.593   5.488   6.866 -0.2489  0.0858  0.1582
   40bbb     C5 1144   5.532   5.614   7.291  0.4465 -0.3481  0.6057
   40bbb     H9 1145   5.447   5.682   7.302  0.0893 -0.8968  1.3581
   40bbb    H10 1146   5.610   5.673   7.340  1.9410 -0.7813 -1.1846
   40bbb     C6 1147   5.815   5.841   7.162  0.3863  0.1330  0.6192
   40bbb    H11 1148   5.870   5.872   7.072  0.7643  0.0345  0.8142
   40bbb    H12 1149   5.833   5.733   7.175  1.9608  0.2867 -0.0210
   40bbb     C7 1150   5.515   5.595   6.708 -0.3524 -0.0665  0.0188
   40bbb    H13 1151   5.496   5.701   6.688  2.8202  0.6925  0.4774
   40bbb    H14 1152   5.432   5.529   6.681  0.0449 -0.1904 -0.9694
   40bbb     C8 1153   5.854   5.928   7.281 -0.4001 -0.1642  0.1036
   40bbb    H15 1154   5.960   5.913   7.305 -0.3593 -0.1964 -0.0953
   40bbb    H16 1155   5.802   5.901   7.374 -2.0258  0.6584 -0.5262
   40bbb     C9 1156   5.504   5.473   7.357  0.5194 -0.6366 -0.6757
   40bbb    H17 1157   5.593   5.410   7.345  3.6044  2.5008  3.1346
   40bbb    H18 1158   5.417   5.423   7.311 -0.1269 -2.3316  2.1074
   40bbb     O1 1159   5.634   5.538   6.648  0.0385 -0.1896  0.2917
   41bbb     N1 1160   7.161   5.813   6.213 -0.4354  0.4229 -0.4163
   41bbb     C1 1161   7.021   5.769   6.189  0.7099  0.3988 -0.1415
   41bbb     H1 1162   7.010   5.735   6.086  1.8951  1.4947 -0.6625
   41bbb     H2 1163   6.951   5.851   6.209  0.5119 -0.0671  1.2169
   41bbb     C2 1164   7.226   5.890   6.092 -0.0929  0.0610  0.4325
   41bbb     H3 1165   7.324   5.924   6.130  0.2228 -0.7114  0.3378
   41bbb     H4 1166   7.165   5.977   6.068 -1.3954 -0.6601  0.9705
   41bbb     C3 1167   7.176   5.888   6.337 -0.3090 -0.7554 -0.2091
   41bbb     H5 1168   7.095   5.856   6.404 -0.3571 -0.0874  0.0600
   41bbb     H6 1169   7.148   5.991   6.313  0.3963 -0.8088 -1.3365
   41bbb     C4 1170   7.313   5.874   6.404 -0.4238 -0.1352 -0.0672
   41bbb     H7 1171   7.339   5.962   6.463  2.7551  0.1918 -1.7371
   41bbb     H8 1172   7.395   5.867   6.332 -0.1909 -1.9746  0.3320
   41bbb     C5 1173   6.982   5.645   6.274  0.3235 -0.1945 -0.3264
   41bbb     H9 1174   6.969   5.682   6.376 -1.8328 -0.4093 -0.4640
   41bbb    H10 1175   7.058   5.567   6.270 -0.6856 -1.4708  2.6777
   41bbb     C6 1176   7.247   5.807   5.963  0.9895 -0.2323 -0.2948
   41bbb    H11 1177   7.307   5.864   5.891 -0.2784  0.0328 -1.1813
   41bbb    H12 1178   7.147   5.797   5.920  0.5711 -2.1725  1.0296
   41bbb     C7 1179   7.320   5.763   6.509  0.4993  0.1809 -0.2219
   41bbb    H13 1180   7.417   5.766   6.562  0.6440 -0.8592 -0.4081
   41bbb    H14 1181   7.319   5.669   6.454  2.1046 -0.6607  1.0840
   41bbb     C8 1182   7.310   5.665   5.997  0.1136 -0.4536  0.2649
   41bbb    H15 1183   7.233   5.593   6.026 -0.1326 -0.9388 -1.5119
   41bbb    H16 1184   7.372   5.676   6.087  0.5140  0.1185 -0.0711
   41bbb     C9 1185   6.836   5.590   6.250 -0.0527 -0.4153  0.3171
   41bbb    H17 1186   6.765   5.666   6.286  0.1552  0.0877 -0.3208
   41bbb    H18 1187   6.813   5.496   6.303  2.7844 -1.5063 -0.2025
   41bbb     O1 1188   7.218   5.773   6.609 -0.0383  0.4941 -0.2769
   42bbb     N1 1189   6.712   5.032   7.210  0.6414 -0.2780  0.4399
   42bbb     C1 1190   6.741   4.992   7.067 -0.1624  0.3938 -0.2393
   42bbb     H1 1191   6.848   4.976   7.050 -0.2368  0.6625 -0.9993
   42bbb     H2 1192   6.705   5.071   7.000 -1.1699  0.4129  0.3042
   42bbb     C2 1193   6.575   5.041   7.244 -0.0888  0.2699 -0.5219
   42bbb     H3 1194   6.521   4.950   7.215 -0.1973 -0.3344  1.4696
   42bbb     H4 1195   6.519   5.119   7.190 -1.2517 -1.2843 -1.6573
   42bbb     C3 1196   6.808   5.135   7.249 -0.3794  0.1754  0.0315
   42bbb     H5 1197   6.769   5.180   7.341 -1.8026 -2.2740  0.7315
   42bbb     H6 1198   6.821   5.211   7.170  2.6365 -0.0393  0.2102
   42bbb     C4 1199   6.951   5.087   7.294 -0.9034 -0.2834 -0.3958
   42bbb     H7 1200   6.992   5.033   7.207 -0.7197  1.7783 -1.6513
   42bbb     H8 1201   6.930   5.019   7.377 -0.3919 -0.9769 -0.8211
   42bbb     C5 1202   6.673   4.865   7.013  0.5300 -0.6328 -0.5417
   42bbb     H9 1203   6.565   4.850   7.024  0.3238  0.2711 -1.1372
   42bbb    H10 1204   6.718   4.785   7.072  0.7118 -0.4774 -0.4676
   42bbb     C6 1205   6.542   5.044   7.392 -0.2967  0.2998  0.1569
   42bbb    H11 1206   6.605   5.113   7.449 -1.3854 -0.7132  2.7452
   42bbb    H12 1207   6.568   4.945   7.431  0.0308  0.1057 -0.5321
   42bbb     C7 1208   7.042   5.210   7.325  0.7224  1.2449  0.2404
   42bbb    H13 1209   7.144   5.176   7.348  0.5404  0.2128 -0.4395
   42bbb    H14 1210   6.995   5.259   7.411 -1.9746 -0.4278 -0.1780
   42bbb     C8 1211   6.392   5.076   7.429 -0.1639 -0.1069 -0.1117
   42bbb    H15 1212   6.325   4.990   7.415 -1.0026  0.1277  2.0663
   42bbb    H16 1213   6.349   5.146   7.357  0.8469  1.0885  0.4118
   42bbb     C9 1214   6.689   4.852   6.861  0.5302 -0.7174 -0.0480
   42bbb    H17 1215   6.792   4.866   6.824  0.2070  0.5083 -0.5246
   42bbb    H18 1216   6.628   4.931   6.816  2.6538  0.7000 -0.5920
   42bbb     O1 1217   7.041   5.292   7.211  0.4405 -0.4053  0.4317
   43bbb     N1 1218   7.789   8.222   5.528  0.4267  0.1341 -0.0987
   43bbb     C1 1219   7.685   8.303   5.601  0.2578 -0.3299  0.4555
   43bbb     H1 1220   7.661   8.274   5.704  0.3817  1.3707  0.9926
   43bbb     H2 1221   7.586   8.312   5.555 -0.6923  1.9371  2.7196
   43bbb     C2 1222   7.904   8.197   5.617 -0.7462 -0.3146 -0.4233
   43bbb     H3 1223   7.949   8.291   5.652 -0.2379  0.4537 -2.8993
   43bbb     H4 1224   7.989   8.161   5.557  2.0056  0.3124  2.7709
   43bbb     C3 1225   7.726   8.098   5.468  0.6325 -0.5992 -0.0052
   43bbb     H5 1226   7.643   8.122   5.400  0.6160 -1.7962 -0.4379
   43bbb     H6 1227   7.682   8.034   5.545  2.2061 -0.7656  0.7879
   43bbb     C4 1228   7.822   8.023   5.380 -0.2337 -0.5822  0.4579
   43bbb     H7 1229   7.915   8.010   5.435  0.6736 -1.0294 -1.1116
   43bbb     H8 1230   7.861   8.077   5.293 -1.9435 -0.0831 -0.0422
   43bbb     C5 1231   7.732   8.456   5.616 -0.4937 -0.3885 -0.6199
   43bbb     H9 1232   7.771   8.495   5.522  1.2544 -0.0160  0.2182
   43bbb    H10 1233   7.815   8.458   5.687 -0.1804 -0.9701 -0.9623
   43bbb     C6 1234   7.886   8.103   5.738  0.1603  0.0187 -0.5819
   43bbb    H11 1235   7.884   7.997   5.709  1.2896 -0.4716  0.9718
   43bbb    H12 1236   7.791   8.119   5.790  0.2674  2.2259 -0.9925
   43bbb     C7 1237   7.764   7.883   5.337 -0.1906 -0.1333 -0.7148
   43bbb    H13 1238   7.824   7.832   5.261  1.9313  1.4261 -0.1813
   43bbb    H14 1239   7.661   7.894   5.302 -0.5552  2.2472  0.8686
   43bbb     C8 1240   7.992   8.114   5.856 -0.3758  0.5700  0.2146
   43bbb    H15 1241   8.095   8.113   5.820 -0.4990  0.9133 -0.1509
   43bbb    H16 1242   7.973   8.030   5.924  0.6479 -1.3116 -1.6944
   43bbb     C9 1243   7.624   8.544   5.678 -0.3778  1.0082 -0.4049
   43bbb    H17 1244   7.662   8.647   5.682 -2.0165  1.6330  0.2970
   43bbb    H18 1245   7.620   8.506   5.780  0.6947  1.0541 -0.3354
   43bbb     O1 1246   7.766   7.798   5.458 -0.1303 -0.0751 -0.6988
   44bbb     N1 1247   8.317   8.107   6.339  0.2585 -0.1524  0.4993
   44bbb     C1 1248   8.233   8.164   6.452  0.5378  0.1336  0.5008
   44bbb     H1 1249   8.178   8.081   6.498 -1.4903  2.3470  2.3149
   44bbb     H2 1250   8.151   8.228   6.418 -0.5616 -0.8915  1.1211
   44bbb     C2 1251   8.344   8.207   6.241  0.8940 -0.3849  0.5411
   44bbb     H3 1252   8.386   8.289   6.301  0.6978  0.0188  0.1303
   44bbb     H4 1253   8.251   8.250   6.203  1.1736 -0.3698 -0.1417
   44bbb     C3 1254   8.288   7.974   6.301  0.7666  0.3414  0.3849
   44bbb     H5 1255   8.277   7.909   6.388 -1.8872  0.3020  0.1074
   44bbb     H6 1256   8.371   7.928   6.245  0.6287  1.4903 -0.8184
   44bbb     C4 1257   8.163   7.955   6.213 -0.4306  0.3664 -0.2245
   44bbb     H7 1258   8.166   8.019   6.123  0.1300 -1.6349 -1.7102
   44bbb     H8 1259   8.077   7.995   6.267 -0.4205 -0.9689  0.8343
   44bbb     C5 1260   8.307   8.233   6.572 -0.0455 -0.4817  0.2310
   44bbb     H9 1261   8.359   8.319   6.527 -1.9886  0.6472 -0.0069
   44bbb    H10 1262   8.386   8.169   6.611  0.2383  0.0541  0.5510
   44bbb     C6 1263   8.436   8.173   6.125  0.4179 -0.0028 -0.1787
   44bbb    H11 1264   8.368   8.115   6.061 -0.4039  0.8327 -0.0714
   44bbb    H12 1265   8.512   8.099   6.153  0.4653  0.0624 -0.1336
   44bbb     C7 1266   8.136   7.814   6.162  0.4945 -0.5566 -0.0587
   44bbb    H13 1267   8.103   7.748   6.243 -1.6254  2.2952  1.5445
   44bbb    H14 1268   8.218   7.771   6.102 -1.4828 -0.4671 -3.0179
   44bbb     C8 1269   8.497   8.289   6.057  1.1538 -0.4604 -0.4753
   44bbb    H15 1270   8.573   8.253   5.987  1.1690  0.8398 -1.1600
   44bbb    H16 1271   8.551   8.346   6.134 -0.4846  2.9529 -1.6279
   44bbb     C9 1272   8.217   8.297   6.683  0.5805  0.2549 -0.4442
   44bbb    H17 1273   8.276   8.375   6.732 -1.0786  1.0574  0.3290
   44bbb    H18 1274   8.129   8.344   6.638 -0.0434 -0.5697 -0.1181
   44bbb     O1 1275   8.029   7.829   6.062 -0.6516  0.1467  0.2196
   45bbb     N1 1276   7.016   7.166   7.062 -0.0961  0.0053  0.1199
   45bbb     C1 1277   6.931   7.247   7.158 -0.2387  0.5044 -0.0952
   45bbb     H1 1278   6.868   7.178   7.216 -0.8328  0.3375 -0.9367
   45bbb     H2 1279   6.851   7.302   7.108 -2.1224 -0.1356  2.0665
   45bbb     C2 1280   7.025   7.024   7.097  0.0612  0.3186  0.5496
   45bbb     H3 1281   7.077   6.976   7.013  0.7153 -0.8818  1.6061
   45bbb     H4 1282   6.923   6.984   7.098  0.1925 -0.0554 -0.1581
   45bbb     C3 1283   7.000   7.205   6.920 -0.5831  0.3476  0.3079
   45bbb     H5 1284   6.901   7.168   6.891 -0.0816 -2.1746  1.4919
   45bbb     H6 1285   7.074   7.153   6.858  0.0105 -0.2920  1.5207
   45bbb     C4 1286   7.038   7.353   6.903  0.3456  0.0007  0.0722
   45bbb     H7 1287   6.975   7.421   6.963 -0.5083  0.8798 -1.7495
   45bbb     H8 1288   7.011   7.388   6.803 -3.6885  0.1215  1.0360
   45bbb     C5 1289   7.001   7.357   7.256 -0.6478  0.4698 -0.0464
   45bbb     H9 1290   6.916   7.403   7.308 -0.3096 -0.7166  1.6464
   45bbb    H10 1291   7.043   7.433   7.189 -0.8794 -0.1396 -0.8886
   45bbb     C6 1292   7.094   6.985   7.230  0.1354 -0.1030 -0.3394
   45bbb    H11 1293   7.031   7.027   7.310  1.2790 -0.1209  0.6050
   45bbb    H12 1294   7.185   7.046   7.235 -0.7749  1.3257 -0.7798
   45bbb     C7 1295   7.182   7.384   6.935 -0.2664  0.3764  0.5021
   45bbb    H13 1296   7.251   7.348   6.858  1.6864  0.4546  2.1350
   45bbb    H14 1297   7.201   7.340   7.034  1.5697 -0.3173 -0.1193
   45bbb     C8 1298   7.108   6.829   7.250  0.0652  0.0046  0.4636
   45bbb    H15 1299   7.105   6.807   7.358 -0.1854 -1.1544  0.2356
   45bbb    H16 1300   7.203   6.807   7.201  0.0952  0.4529  0.3216
   45bbb     C9 1301   7.098   7.299   7.366 -0.1558 -0.2341 -0.2000
   45bbb    H17 1302   7.138   7.393   7.405  0.2739 -0.0133 -1.1448
   45bbb    H18 1303   7.179   7.237   7.324 -0.8110 -0.5557 -1.0136
   45bbb     O1 1304   7.207   7.527   6.942 -0.5969  0.3846 -0.4368
   46bbb     N1 1305   7.840   7.529   6.490  0.5523  0.0198  0.1421
   46bbb     C1 1306   7.878   7.391   6.519  1.4040  0.2562 -0.3761
   46bbb     H1 1307   7.985   7.389   6.495  1.1871 -0.1774 -1.3498
   46bbb     H2 1308   7.822   7.317   6.460  2.6734 -1.1059  0.0523
   46bbb     C2 1309   7.880   7.634   6.583  0.6899 -0.3872 -0.5845
   46bbb     H3 1310   7.868   7.592   6.683 -1.6510  1.5571  0.0320
   46bbb     H4 1311   7.812   7.719   6.580  0.1378 -0.8176 -0.3614
   46bbb     C3 1312   7.847   7.562   6.347 -0.6703  0.3593 -0.1503
   46bbb     H5 1313   7.917   7.496   6.296  0.9078  2.4426 -0.8380
   46bbb     H6 1314   7.882   7.666   6.343 -0.3062  0.6567  5.0078
   46bbb     C4 1315   7.704   7.552   6.288  0.0123 -0.4023 -0.7834
   46bbb     H7 1316   7.665   7.451   6.272 -2.4023  0.4479 -0.6229
   46bbb     H8 1317   7.708   7.591   6.185  1.6361 -2.3308 -1.5059
   46bbb     C5 1318   7.852   7.340   6.662 -0.1661  0.8608  0.6902
   46bbb     H9 1319   7.921   7.388   6.732 -1.4511  1.9445  1.2326
   46bbb    H10 1320   7.885   7.235   6.653 -1.1324  0.6781 -1.1849
   46bbb     C6 1321   8.023   7.689   6.575  0.0441  0.1503 -0.1914
   46bbb    H11 1322   8.031   7.754   6.487 -0.4861  0.5363  0.0416
   46bbb    H12 1323   8.095   7.606   6.568 -0.5710 -0.3700 -0.3891
   46bbb     C7 1324   7.603   7.633   6.373 -0.1054  0.4553  0.6435
   46bbb    H13 1325   7.640   7.737   6.376 -1.3400  0.9191  0.4641
   46bbb    H14 1326   7.594   7.595   6.476  1.0531 -0.1146  0.5473
   46bbb     C8 1327   8.051   7.782   6.696  0.3620 -0.0428 -0.0397
   46bbb    H15 1328   7.974   7.859   6.693  0.5346  0.1987  1.3541
   46bbb    H16 1329   8.144   7.840   6.684  0.8279 -0.5434  1.0325
   46bbb     C9 1330   7.709   7.342   6.708  0.0845 -0.2100  0.6461
   46bbb    H17 1331   7.641   7.328   6.624 -0.0338  0.7956  0.5693
   46bbb    H18 1332   7.685   7.442   6.745 -0.5938 -0.2057  0.2001
   46bbb     O1 1333   7.472   7.640   6.309 -0.5009 -0.2194  0.2222
   47bbb     N1 1334   5.907   9.070   6.686 -0.1589  0.0473 -0.3706
   47bbb     C1 1335   5.956   9.198   6.738 -0.0127 -0.4022 -0.5824
   47bbb     H1 1336   6.023   9.178   6.823 -0.0894 -1.1209 -0.6880
   47bbb     H2 1337   5.869   9.254   6.774  1.0362  2.1946 -1.8101
   47bbb     C2 1338   6.022   8.981   6.656 -0.3571  0.5278 -0.3993
   47bbb     H3 1339   6.085   8.972   6.745  0.0145 -0.9063 -0.7740
   47bbb     H4 1340   6.087   9.034   6.584 -0.9709 -0.2155 -1.5253
   47bbb     C3 1341   5.797   9.011   6.762  0.0284  0.5145 -0.1554
   47bbb     H5 1342   5.748   8.927   6.712 -0.0100 -0.2158  1.0858
   47bbb     H6 1343   5.718   9.088   6.764 -1.6193 -1.1157 -0.2265
   47bbb     C4 1344   5.833   8.947   6.897  0.1087 -0.5301 -0.4092
   47bbb     H7 1345   5.857   9.032   6.962 -0.3618 -0.9610  0.3570
   47bbb     H8 1346   5.919   8.880   6.899  0.5285 -0.0430 -1.6663
   47bbb     C5 1347   6.025   9.299   6.646  0.2208  0.4774  0.9592
   47bbb     H9 1348   5.951   9.329   6.570  1.0177  0.5191  0.1860
   47bbb    H10 1349   6.111   9.253   6.596 -0.5445  0.7755 -0.7140
   47bbb     C6 1350   5.985   8.848   6.594 -0.2857 -0.1440 -0.2265
   47bbb    H11 1351   5.910   8.788   6.648 -2.4743 -0.5300 -3.4167
   47bbb    H12 1352   6.077   8.789   6.603 -0.8775 -0.7758  2.3742
   47bbb     C7 1353   5.706   8.878   6.952 -0.5216 -0.5771 -0.6960
   47bbb    H13 1354   5.612   8.934   6.940  0.1922  1.4993  2.2354
   47bbb    H14 1355   5.728   8.861   7.058  1.0425 -0.2139 -0.9371
   47bbb     C8 1356   5.931   8.854   6.449  0.0534 -0.0010 -1.0085
   47bbb    H15 1357   5.853   8.927   6.469  1.5896  0.7153  3.4654
   47bbb    H16 1358   5.901   8.753   6.418  2.8320 -1.0441 -0.6241
   47bbb     C9 1359   6.066   9.422   6.720  1.0131 -0.9961 -0.2580
   47bbb    H17 1360   6.107   9.389   6.816 -2.2717  0.2686  1.7398
   47bbb    H18 1361   5.984   9.490   6.747 -0.0594 -2.0014 -0.8949
   47bbb     O1 1362   5.717   8.744   6.885 -0.7866  0.6822 -0.2645
   48bbb     N1 1363   6.327   8.562   6.753  0.2555 -0.1520 -0.3854
   48bbb     C1 1364   6.425   8.662   6.707  0.1046  0.0159  0.3903
   48bbb     H1 1365   6.492   8.621   6.631 -0.3575 -0.5707  0.2941
   48bbb     H2 1366   6.491   8.693   6.789  1.9444  0.0766 -1.0359
   48bbb     C2 1367   6.402   8.442   6.800 -0.9106 -0.3141 -0.2415
   48bbb     H3 1368   6.339   8.358   6.833 -1.8193  1.6173  3.4239
   48bbb     H4 1369   6.443   8.469   6.898 -2.0266  1.0173 -0.1180
   48bbb     C3 1370   6.221   8.613   6.851 -0.2828  0.4665 -0.1336
   48bbb     H5 1371   6.173   8.701   6.807  0.2114  1.2720  0.8907
   48bbb     H6 1372   6.270   8.660   6.938 -0.3767  0.0479  0.1504
   48bbb     C4 1373   6.122   8.509   6.905  0.2792 -0.7799  0.2752
   48bbb     H7 1374   6.040   8.559   6.958  0.5051  1.0249 -1.0015
   48bbb     H8 1375   6.165   8.441   6.979 -0.1741 -0.2174  1.0633
   48bbb     C5 1376   6.376   8.782   6.630 -0.4033  0.2627 -0.2663
   48bbb     H9 1377   6.318   8.841   6.701 -0.4448  0.1951 -0.2441
   48bbb    H10 1378   6.317   8.745   6.545  1.8679 -1.1527 -1.3040
   48bbb     C6 1379   6.508   8.381   6.701 -0.2705  0.6095  0.0828
   48bbb    H11 1380   6.552   8.297   6.757 -0.9204 -0.7286 -1.3296
   48bbb    H12 1381   6.584   8.458   6.689 -0.7047  0.9350 -0.6447
   48bbb     C7 1382   6.063   8.420   6.792  0.0885  0.6451  0.4180
   48bbb    H13 1383   6.130   8.363   6.727 -0.7484  1.3551 -1.1223
   48bbb    H14 1384   5.989   8.469   6.727 -0.8503 -0.9919  0.2033
   48bbb     C8 1385   6.455   8.326   6.569  0.3315  0.1393 -0.2780
   48bbb    H15 1386   6.424   8.404   6.498  0.4965 -0.9633 -1.6117
   48bbb    H16 1387   6.367   8.263   6.586 -0.2838  1.0608  0.0352
   48bbb     C9 1388   6.487   8.876   6.574  0.0077 -0.4798 -0.2852
   48bbb    H17 1389   6.534   8.824   6.489 -0.3325 -0.7966 -0.2783
   48bbb    H18 1390   6.551   8.922   6.651  0.1999 -0.8065 -0.2462
   48bbb     O1 1391   5.999   8.322   6.876 -0.4346  0.4416  0.8855
   49bbb     N1 1392   6.220   8.928   7.554 -0.6885 -0.2020 -0.1068
   49bbb     C1 1393   6.165   8.941   7.417  0.1017 -0.0521 -0.0896
   49bbb     H1 1394   6.240   8.990   7.353  1.0665  1.2431  1.9463
   49bbb     H2 1395   6.085   9.015   7.427  0.6374  0.4780  0.3725
   49bbb     C2 1396   6.211   9.053   7.635 -0.3403  0.2049  0.0641
   49bbb     H3 1397   6.250   9.036   7.736 -0.6948 -1.8741 -0.1092
   49bbb     H4 1398   6.104   9.077   7.648 -0.1619  0.2444  1.6641
   49bbb     C3 1399   6.360   8.871   7.546  0.0403  0.1156  0.1183
   49bbb     H5 1400   6.433   8.945   7.511  0.6700 -1.4973 -2.2349
   49bbb     H6 1401   6.365   8.797   7.465  1.4048 -0.0294  0.3066
   49bbb     C4 1402   6.409   8.803   7.674 -0.0669  0.1942  0.1768
   49bbb     H7 1403   6.439   8.883   7.743 -2.8239  2.2828 -0.8684
   49bbb     H8 1404   6.507   8.757   7.656 -0.0960  1.0083 -2.4232
   49bbb     C5 1405   6.123   8.816   7.349 -0.0214  0.2298  0.5198
   49bbb     H9 1406   6.038   8.773   7.404 -1.3090  0.4982 -1.1764
   49bbb    H10 1407   6.207   8.750   7.372  0.4137  0.6622  0.1839
   49bbb     C6 1408   6.275   9.179   7.577  0.0956  0.0359 -0.2311
   49bbb    H11 1409   6.230   9.202   7.479 -0.5808 -0.4377 -0.0403
   49bbb    H12 1410   6.381   9.164   7.556 -0.2666  0.1451 -2.3689
   49bbb     C7 1411   6.313   8.705   7.744  0.3158  0.4691 -0.0962
   49bbb    H13 1412   6.228   8.748   7.798  0.2813  0.6320 -0.2823
   49bbb    H14 1413   6.378   8.639   7.803  1.0798  0.2088 -1.1924
   49bbb     C8 1414   6.278   9.298   7.680  0.0276 -0.1296 -0.1217
   49bbb    H15 1415   6.325   9.387   7.638 -0.3158  0.2056  0.2039
   49bbb    H16 1416   6.341   9.266   7.764 -1.4231  0.0288  1.0692
   49bbb     C9 1417   6.091   8.819   7.201  0.6645 -0.1587  0.0074
   49bbb    H17 1418   6.010   8.892   7.200  0.5115 -0.0731  3.7381
   49bbb    H18 1419   6.053   8.726   7.156 -0.3181  0.5890 -0.7222
   49bbb     O1 1420   6.256   8.618   7.647 -0.1102 -0.1387  0.4227
   50bbb     N1 1421   5.221   8.671   7.219  0.2397 -0.6152  0.1940
   50bbb     C1 1422   5.086   8.618   7.263 -0.7929 -0.1378 -0.6114
   50bbb     H1 1423   5.006   8.682   7.224  0.8545  3.0659  0.8511
   50bbb     H2 1424   5.066   8.622   7.370 -0.0898 -1.0051 -0.4309
   50bbb     C2 1425   5.241   8.811   7.253  0.6451  0.2830  0.0298
   50bbb     H3 1426   5.269   8.811   7.359  2.6091  1.0897 -0.4484
   50bbb     H4 1427   5.150   8.872   7.248  0.1913 -0.3162  0.7109
   50bbb     C3 1428   5.340   8.578   7.242  0.2481 -0.3498 -0.5255
   50bbb     H5 1429   5.424   8.607   7.178  0.4305 -2.0171 -1.1064
   50bbb     H6 1430   5.320   8.473   7.214 -0.9482 -1.1310  2.8247
   50bbb     C4 1431   5.383   8.578   7.391 -0.1658  0.0604 -0.4110
   50bbb     H7 1432   5.301   8.551   7.459  0.7801  0.7072  1.0436
   50bbb     H8 1433   5.411   8.679   7.424  1.5386 -0.1136 -1.2495
   50bbb     C5 1434   5.061   8.469   7.218 -0.0184 -0.9143  0.4775
   50bbb     H9 1435   4.957   8.443   7.242  0.5130 -2.3319  1.4003
   50bbb    H10 1436   5.118   8.401   7.282  2.4677 -0.0237 -0.6833
   50bbb     C6 1437   5.350   8.886   7.166  0.0040  0.1325 -0.8319
   50bbb    H11 1438   5.315   8.886   7.062  0.2433 -1.1882 -0.9306
   50bbb    H12 1439   5.445   8.830   7.165  0.8819  1.4141  1.9341
   50bbb     C7 1440   5.510   8.483   7.401 -0.0014 -0.2173  0.1766
   50bbb    H13 1441   5.493   8.383   7.359 -2.1097  0.7724 -1.4948
   50bbb    H14 1442   5.530   8.468   7.508 -2.4995 -0.8249  0.6239
   50bbb     C8 1443   5.365   9.031   7.194 -0.0227  0.1959 -0.0593
   50bbb    H15 1444   5.368   9.050   7.302 -0.5529 -0.7751  0.1408
   50bbb    H16 1445   5.281   9.087   7.151  0.2117  0.2231 -0.4820
   50bbb     C9 1446   5.076   8.432   7.069  0.0146 -0.5688  0.1624
   50bbb    H17 1447   5.060   8.323   7.066 -2.2466 -0.2884 -2.4897
   50bbb    H18 1448   5.178   8.452   7.036 -1.1666  1.2432 -2.9187
   50bbb     O1 1449   5.619   8.543   7.335 -0.1344  0.2469 -0.1327
   51bbb     N1 1450   5.603   7.156   8.408  0.6045 -0.3179  0.2149
   51bbb     C1 1451   5.480   7.208   8.479 -0.0511  0.1514 -0.0552
   51bbb     H1 1452   5.422   7.117   8.496 -1.9414  0.6970 -2.7683
   51bbb     H2 1453   5.418   7.282   8.427  0.3901  1.0330  0.6407
   51bbb     C2 1454   5.561   7.069   8.293 -0.7214 -0.0517 -0.1436
   51bbb     H3 1455   5.530   7.131   8.208 -0.8588  0.3345  0.1857
   51bbb     H4 1456   5.474   7.007   8.318 -0.8522 -0.2310 -1.0229
   51bbb     C3 1457   5.707   7.254   8.371  0.7115 -0.1440 -0.0203
   51bbb     H5 1458   5.781   7.200   8.311  0.7229 -0.7236  0.5133
   51bbb     H6 1459   5.767   7.294   8.454 -0.4202  1.1997  0.2011
   51bbb     C4 1460   5.650   7.380   8.307 -0.2138 -0.4042 -0.4431
   51bbb     H7 1461   5.587   7.426   8.384  1.0347 -1.7173  1.4421
   51bbb     H8 1462   5.592   7.354   8.217  2.0239  1.0727 -2.4632
   51bbb     C5 1463   5.510   7.261   8.619 -0.4311 -0.1214 -0.1311
   51bbb     H9 1464   5.571   7.352   8.618 -1.7825  0.8095 -0.3161
   51bbb    H10 1465   5.573   7.180   8.660 -2.7983 -1.3468  1.3345
   51bbb     C6 1466   5.669   6.964   8.248 -0.7279 -0.2720 -0.1297
   51bbb    H11 1467   5.766   7.015   8.248 -1.4528  1.3410 -3.1417
   51bbb    H12 1468   5.653   6.940   8.143  0.5101 -0.6139 -0.2511
   51bbb     C7 1469   5.767   7.476   8.268 -0.3001 -0.3466 -0.0852
   51bbb    H13 1470   5.827   7.418   8.197 -1.0745 -0.2121 -0.8623
   51bbb    H14 1471   5.829   7.493   8.357  0.8923 -0.2507 -0.9116
   51bbb     C8 1472   5.658   6.826   8.319  0.1957 -0.9708  0.7228
   51bbb    H15 1473   5.563   6.776   8.293 -0.3082  1.1581 -1.9432
   51bbb    H16 1474   5.654   6.849   8.427 -0.3547  0.8776  0.3414
   51bbb     C9 1475   5.389   7.287   8.708 -0.0932 -0.3534 -0.7796
   51bbb    H17 1476   5.332   7.195   8.727 -0.7687  0.2655  0.2365
   51bbb    H18 1477   5.322   7.356   8.655  0.4913  2.6230  2.0522
   51bbb     O1 1478   5.719   7.603   8.211  0.4885 -0.2932  0.2705
   52bbb     N1 1479   5.457   8.785   8.338  0.5630 -0.1721  0.2913
   52bbb     C1 1480   5.331   8.776   8.255  0.3094 -0.1793  0.3179
   52bbb     H1 1481   5.243   8.732   8.303  1.0908 -2.1672  0.0343
   52bbb     H2 1482   5.361   8.701   8.180  2.2110  0.8357 -0.0037
   52bbb     C2 1483   5.566   8.866   8.284  0.0629 -0.5098  0.1236
   52bbb     H3 1484   5.533   8.965   8.250 -0.1339 -1.2489 -1.9945
   52bbb     H4 1485   5.609   8.825   8.191  0.0592 -0.9854  0.3325
   52bbb     C3 1486   5.492   8.659   8.402  0.7947 -0.2484  0.0740
   52bbb     H5 1487   5.553   8.678   8.491  1.7754  0.7044 -0.7762
   52bbb     H6 1488   5.556   8.600   8.334  1.3458  1.4324 -0.9440
   52bbb     C4 1489   5.375   8.565   8.451  1.1445  0.0602  1.0526
   52bbb     H7 1490   5.319   8.544   8.359 -0.6751  2.2172  1.5875
   52bbb     H8 1491   5.308   8.612   8.524  1.1001  1.3553  0.2030
   52bbb     C5 1492   5.280   8.912   8.200 -0.5241 -0.5649  0.2206
   52bbb     H9 1493   5.358   8.958   8.139 -0.1163 -1.2774  0.2034
   52bbb    H10 1494   5.253   8.976   8.285 -0.7685  0.2378 -0.4398
   52bbb     C6 1495   5.693   8.883   8.377  0.0320  0.2612  0.3071
   52bbb    H11 1496   5.763   8.939   8.315 -0.9699  0.9223 -0.2634
   52bbb    H12 1497   5.732   8.782   8.398 -0.9533 -0.1803  0.0988
   52bbb     C7 1498   5.438   8.437   8.513 -0.5225  0.2084  0.0224
   52bbb    H13 1499   5.361   8.381   8.568  1.1914 -0.7482  1.5936
   52bbb    H14 1500   5.518   8.479   8.576 -0.1708 -1.4433  0.7553
   52bbb     C8 1501   5.667   8.946   8.513  0.2309  0.1535 -0.0628
   52bbb    H15 1502   5.746   8.926   8.586  1.1731  0.7890 -0.8938
   52bbb    H16 1503   5.575   8.904   8.556 -0.3083 -1.8004 -2.8920
   52bbb     C9 1504   5.160   8.901   8.110  0.4573 -0.0068  0.9019
   52bbb    H17 1505   5.071   8.884   8.172  0.0085  1.0417  0.5641
   52bbb    H18 1506   5.174   8.811   8.050 -1.5256  0.5704 -0.5447
   52bbb     O1 1507   5.507   8.352   8.420  0.9540 -0.5888  0.3177
   53bbb     N1 1508   5.849   7.091   7.886  0.1533 -0.3070  0.4022
   53bbb     C1 1509   5.778   7.206   7.949  0.1801  0.5350 -0.1144
   53bbb     H1 1510   5.820   7.218   8.050  0.2068 -1.0294  0.0712
   53bbb     H2 1511   5.672   7.179   7.961  0.2637 -0.0131 -0.5738
   53bbb     C2 1512   5.770   7.036   7.768 -0.0548 -0.0189 -0.5392
   53bbb     H3 1513   5.756   7.113   7.690 -0.7005  1.5028  1.0219
   53bbb     H4 1514   5.673   7.013   7.814  0.2560 -1.2881 -0.4770
   53bbb     C3 1515   5.987   7.112   7.859  0.2743  0.5466 -0.5136
   53bbb     H5 1516   6.006   7.191   7.786 -2.0440  0.4663 -1.2654
   53bbb     H6 1517   6.027   7.018   7.818  0.6828 -0.5390  2.1382
   53bbb     C4 1518   6.067   7.148   7.987  0.2070  0.2466 -0.4626
   53bbb     H7 1519   6.040   7.083   8.071 -0.8131  1.0105 -0.1764
   53bbb     H8 1520   6.031   7.248   8.014  0.5713  0.4217 -0.6190
   53bbb     C5 1521   5.781   7.338   7.868  0.3810 -0.2672 -0.0254
   53bbb     H9 1522   5.743   7.328   7.765  1.7315 -0.6440 -0.5085
   53bbb    H10 1523   5.883   7.377   7.855  1.1099 -1.4346  1.8872
   53bbb     C6 1524   5.827   6.901   7.698  0.3210 -0.0428 -0.0061
   53bbb    H11 1525   5.846   6.822   7.771 -0.6236 -0.3508 -0.0777
   53bbb    H12 1526   5.927   6.920   7.657 -0.9847 -0.9315 -4.1341
   53bbb     C7 1527   6.221   7.154   7.978  0.4984 -0.9754  0.6808
   53bbb    H13 1528   6.250   7.222   7.897 -0.1973 -0.6082  0.7294
   53bbb    H14 1529   6.264   7.060   7.945 -3.0922 -2.0611 -1.4801
   53bbb     C8 1530   5.726   6.855   7.581 -0.5161 -0.3813 -0.1202
   53bbb    H15 1531   5.629   6.859   7.631  0.4904 -0.1053  1.9391
   53bbb    H16 1532   5.744   6.757   7.536 -1.8706  0.0045 -1.5802
   53bbb     C9 1533   5.689   7.444   7.925  0.9547 -0.1723 -0.3390
   53bbb    H17 1534   5.750   7.489   8.003  0.7675 -0.6510  0.0896
   53bbb    H18 1535   5.600   7.391   7.962  0.8275 -0.3462 -0.8809
   53bbb     O1 1536   6.271   7.204   8.104 -0.2936 -0.2141 -0.3742
   54bbb     N1 1537   7.044   6.439   8.319  0.4986 -0.9491  0.5281
   54bbb     C1 1538   7.175   6.391   8.252  1.0373  0.0025  0.1460
   54bbb     H1 1539   7.250   6.466   8.279  0.5952  0.8204 -0.7954
   54bbb     H2 1540   7.164   6.405   8.143 -0.0126  0.4505  0.2913
   54bbb     C2 1541   6.925   6.362   8.274 -0.1888  0.0933  0.6564
   54bbb     H3 1542   6.951   6.257   8.294 -0.4987 -0.2843 -0.7907
   54bbb     H4 1543   6.911   6.379   8.166 -2.2062 -2.0180  0.5025
   54bbb     C3 1544   7.025   6.590   8.317  0.1246  0.7631 -0.4771
   54bbb     H5 1545   6.923   6.606   8.353  0.0069 -2.5857  1.0294
   54bbb     H6 1546   7.027   6.620   8.211  0.3080  2.5220 -0.0119
   54bbb     C4 1547   7.125   6.670   8.407  0.1372  0.0095  0.0252
   54bbb     H7 1548   7.226   6.629   8.420 -1.0594 -3.0856  0.5176
   54bbb     H8 1549   7.075   6.678   8.505 -1.5784 -1.4923 -0.6781
   54bbb     C5 1550   7.212   6.242   8.281  0.7181  0.2685  0.3175
   54bbb     H9 1551   7.140   6.173   8.236  0.1672  1.0234  0.0167
   54bbb    H10 1552   7.200   6.226   8.388 -4.5759 -1.2663 -0.2350
   54bbb     C6 1553   6.791   6.387   8.348  0.5895 -0.4527  0.8491
   54bbb    H11 1554   6.767   6.492   8.327 -0.9289 -0.9117  0.1416
   54bbb    H12 1555   6.808   6.377   8.456  1.1742 -2.0269  0.6356
   54bbb     C7 1556   7.128   6.810   8.342 -0.7304  0.2121 -0.1758
   54bbb    H13 1557   7.170   6.800   8.242 -2.3849 -0.7159 -0.8183
   54bbb    H14 1558   7.192   6.880   8.398 -0.5540  0.1714 -0.3289
   54bbb     C8 1559   6.679   6.289   8.301 -0.3664 -0.3730 -0.1758
   54bbb    H15 1560   6.720   6.191   8.326  1.2665  0.5039  0.7252
   54bbb    H16 1561   6.664   6.296   8.192 -0.9116  0.8255 -0.0387
   54bbb     C9 1562   7.349   6.215   8.232  0.6764  0.3534 -1.0563
   54bbb    H17 1563   7.366   6.114   8.270  0.8670  0.6273 -0.3934
   54bbb    H18 1564   7.413   6.285   8.288  2.1098 -1.0060 -0.9468
   54bbb     O1 1565   6.997   6.868   8.337  0.4926 -0.9387 -0.0215
   55bbb     N1 1566   7.150   5.268   6.529 -0.5630 -0.0807  0.1727
   55bbb     C1 1567   7.212   5.339   6.416 -0.5013 -0.3031  0.8869
   55bbb     H1 1568   7.217   5.446   6.440 -1.3190 -0.5118  2.1053
   55bbb     H2 1569   7.146   5.322   6.330  2.1314  0.6361 -1.4934
   55bbb     C2 1570   7.162   5.117   6.540  0.4957  0.7522  0.0682
   55bbb     H3 1571   7.122   5.072   6.632 -2.0695  1.1382 -0.7875
   55bbb     H4 1572   7.267   5.087   6.538  0.2478 -0.2122 -2.2157
   55bbb     C3 1573   7.020   5.330   6.565  0.0315 -0.4126 -0.0591
   55bbb     H5 1574   6.944   5.303   6.489  0.2225 -2.3332  0.3889
   55bbb     H6 1575   7.024   5.439   6.569  1.8555 -0.4544 -0.2220
   55bbb     C4 1576   6.966   5.275   6.705 -1.0148 -0.0729 -0.2681
   55bbb     H7 1577   7.049   5.252   6.773 -0.1586 -0.2343 -1.3357
   55bbb     H8 1578   6.927   5.175   6.681  0.1804 -0.1628 -2.1161
   55bbb     C5 1579   7.356   5.287   6.382 -0.3480 -0.7476  0.9699
   55bbb     H9 1580   7.345   5.180   6.358  0.2463 -1.2599  2.7618
   55bbb    H10 1581   7.429   5.298   6.463 -0.4611 -0.8181  1.0820
   55bbb     C6 1582   7.090   5.039   6.425 -0.5199 -0.6850 -0.2371
   55bbb    H11 1583   7.092   5.103   6.336 -0.4232 -1.3927 -0.7470
   55bbb    H12 1584   6.984   5.049   6.452 -0.8867  1.1952 -2.0488
   55bbb     C7 1585   6.845   5.346   6.768 -0.4128 -0.4183 -0.7923
   55bbb    H13 1586   6.873   5.446   6.805  1.2984 -0.6800 -1.2767
   55bbb    H14 1587   6.822   5.295   6.862  0.2325  1.8987  0.7279
   55bbb     C8 1588   7.135   4.890   6.422  0.1150 -0.0800  0.0271
   55bbb    H15 1589   7.243   4.878   6.407  0.3452  0.9086  0.8058
   55bbb    H16 1590   7.081   4.847   6.337 -0.6223  4.3563 -2.0516
   55bbb     C9 1591   7.411   5.361   6.260  0.3626 -0.1543  0.8070
   55bbb    H17 1592   7.420   5.468   6.284 -2.5175  0.4916 -0.5223
   55bbb    H18 1593   7.337   5.362   6.179 -0.3110  3.3185  1.2870
   55bbb     O1 1594   6.731   5.352   6.685  0.3620 -0.3772 -0.4846
   56bbb     N1 1595   7.070   6.560   6.434 -0.0276  1.1552  0.1270
   56bbb     C1 1596   6.947   6.645   6.444  0.0593  0.2979 -0.1211
   56bbb     H1 1597   6.970   6.743   6.401 -0.1470 -0.5025 -2.1411
   56bbb     H2 1598   6.921   6.659   6.550  1.9920  2.9427  0.1064
   56bbb     C2 1599   7.205   6.623   6.450  0.0154 -0.4643 -0.4212
   56bbb     H3 1600   7.290   6.558   6.425  1.7608  0.7324  1.9809
   56bbb     H4 1601   7.228   6.665   6.548 -2.7083 -0.8332  0.4727
   56bbb     C3 1602   7.053   6.439   6.523 -0.4925  0.0894 -0.3497
   56bbb     H5 1603   6.957   6.392   6.501 -1.2216  1.6244 -0.6446
   56bbb     H6 1604   7.045   6.473   6.627  1.1598 -0.8443  0.1233
   56bbb     C4 1605   7.169   6.334   6.518 -0.6209 -0.7767 -0.6682
   56bbb     H7 1606   7.262   6.372   6.561 -0.3800 -1.1843 -0.8230
   56bbb     H8 1607   7.186   6.316   6.411  0.4951  2.8143 -1.2341
   56bbb     C5 1608   6.828   6.592   6.375  0.3730  0.2549 -0.2708
   56bbb     H9 1609   6.797   6.494   6.411  1.1224 -0.4536 -1.4703
   56bbb    H10 1610   6.855   6.588   6.268  0.1017 -0.4645 -0.3172
   56bbb     C6 1611   7.229   6.734   6.356  0.4341  0.2760  0.5841
   56bbb    H11 1612   7.161   6.819   6.370 -0.0318 -0.2678  1.7846
   56bbb    H12 1613   7.214   6.691   6.256  1.0419 -0.8665  0.9603
   56bbb     C7 1614   7.139   6.199   6.591  0.4123 -0.1942 -0.2675
   56bbb    H13 1615   7.138   6.219   6.699  1.4287  1.4639 -0.5284
   56bbb    H14 1616   7.228   6.140   6.567  3.5582  3.6421  0.8261
   56bbb     C8 1617   7.380   6.782   6.342 -0.2206  0.4813  0.0969
   56bbb    H15 1618   7.372   6.870   6.278 -1.6101  0.7216  0.5788
   56bbb    H16 1619   7.442   6.715   6.281 -0.4121  0.4019 -0.0134
   56bbb     C9 1620   6.708   6.683   6.384  0.0230  0.1179  0.0270
   56bbb    H17 1621   6.751   6.783   6.392  0.0743  0.1859 -1.0207
   56bbb    H18 1622   6.655   6.645   6.473 -1.8377 -0.0668 -1.1105
   56bbb     O1 1623   7.022   6.131   6.546  0.2428 -0.4511  0.1298
   57bbb     N1 1624   6.673   4.595   6.005 -0.5446 -0.1474 -0.7554
   57bbb     C1 1625   6.649   4.684   5.893  0.1577 -0.2428 -0.0676
   57bbb     H1 1626   6.739   4.745   5.881  0.0588  0.0571  0.6502
   57bbb     H2 1627   6.561   4.748   5.906  0.6457  0.6193 -0.8303
   57bbb     C2 1628   6.794   4.509   5.993 -0.0765 -0.3216  0.2274
   57bbb     H3 1629   6.879   4.573   6.018  1.3263 -1.6512 -0.9334
   57bbb     H4 1630   6.816   4.479   5.890 -1.7698 -0.0787 -0.2339
   57bbb     C3 1631   6.630   4.658   6.135  0.0792  0.1997  0.6739
   57bbb     H5 1632   6.572   4.576   6.180 -0.9600  0.3240 -0.3837
   57bbb     H6 1633   6.573   4.750   6.119  0.5657  0.3322 -0.4119
   57bbb     C4 1634   6.751   4.699   6.222 -0.5146 -0.2581  0.3353
   57bbb     H7 1635   6.814   4.760   6.157 -0.6498 -1.0132 -0.5296
   57bbb     H8 1636   6.818   4.617   6.252 -0.1355 -0.5427 -1.2121
   57bbb     C5 1637   6.616   4.613   5.758 -0.1004 -0.5448 -0.1819
   57bbb     H9 1638   6.510   4.587   5.767  0.3438 -2.3804 -0.0127
   57bbb    H10 1639   6.662   4.518   5.731  0.2066 -0.1682 -1.0186
   57bbb     C6 1640   6.783   4.379   6.077 -0.0062 -0.7352  0.7000
   57bbb    H11 1641   6.705   4.313   6.036 -0.7046 -0.6570  1.8597
   57bbb    H12 1642   6.747   4.410   6.176 -1.1672  3.0164 -0.7122
   57bbb     C7 1643   6.717   4.761   6.356 -0.4043  0.4960 -0.0126
   57bbb    H13 1644   6.808   4.743   6.414 -0.4167 -2.0688 -0.6724
   57bbb    H14 1645   6.632   4.714   6.407  1.0186 -1.5382  0.5862
   57bbb     C8 1646   6.909   4.287   6.080 -0.6585  0.0107  0.8010
   57bbb    H15 1647   6.933   4.254   5.978  0.2221 -2.6839  1.8054
   57bbb    H16 1648   6.886   4.195   6.135  3.3487 -0.7028  1.5990
   57bbb     C9 1649   6.631   4.713   5.639 -0.0930 -0.1129 -0.3163
   57bbb    H17 1650   6.579   4.808   5.659 -2.0782 -1.1594 -0.2935
   57bbb    H18 1651   6.577   4.673   5.553  1.0477 -0.5873 -0.8302
   57bbb     O1 1652   6.682   4.902   6.338  0.0605 -0.3015  0.3290
   58bbb     N1 1653   6.503   5.720   5.559 -0.3684  0.7674  0.2071
   58bbb     C1 1654   6.481   5.826   5.657 -0.1504  0.1148  0.0674
   58bbb     H1 1655   6.574   5.882   5.669  0.7790 -0.8911 -2.0515
   58bbb     H2 1656   6.452   5.780   5.753 -1.4920  1.8972  0.5669
   58bbb     C2 1657   6.564   5.753   5.432 -0.3125  0.7800  0.0481
   58bbb     H3 1658   6.490   5.783   5.356 -0.5716  0.0507  0.0017
   58bbb     H4 1659   6.612   5.662   5.394  0.2082  1.8541 -1.9858
   58bbb     C3 1660   6.406   5.607   5.552  0.1219 -0.2489  0.3314
   58bbb     H5 1661   6.450   5.539   5.478 -2.4222 -0.9196 -0.6519
   58bbb     H6 1662   6.316   5.639   5.497  0.5156 -1.0771 -0.8283
   58bbb     C4 1663   6.370   5.528   5.682 -0.4036  0.2691 -0.4288
   58bbb     H7 1664   6.324   5.434   5.649 -0.9497  0.5803 -0.5663
   58bbb     H8 1665   6.295   5.584   5.738 -0.1872  0.0417  0.1010
   58bbb     C5 1666   6.367   5.927   5.627 -0.2446  1.3272  0.1788
   58bbb     H9 1667   6.356   5.934   5.519 -1.5233 -1.3464  0.0463
   58bbb    H10 1668   6.384   6.021   5.682 -2.2108  0.7412  1.9581
   58bbb     C6 1669   6.674   5.867   5.436  0.1198 -0.0095 -0.0790
   58bbb    H11 1670   6.746   5.861   5.518  1.2515  2.1592 -0.8191
   58bbb    H12 1671   6.617   5.961   5.448 -1.4618 -1.0380  0.8374
   58bbb     C7 1672   6.491   5.500   5.773  0.6621 -0.0780 -0.0721
   58bbb    H13 1673   6.552   5.588   5.795 -0.0027  0.0398  1.4036
   58bbb    H14 1674   6.556   5.420   5.735 -0.1286  0.3172 -2.3666
   58bbb     C8 1675   6.755   5.877   5.305  0.1123 -0.1514  0.8271
   58bbb    H15 1676   6.692   5.896   5.218  1.6659  1.0317 -0.0850
   58bbb    H16 1677   6.807   5.780   5.297 -0.1273 -0.2387  0.2527
   58bbb     C9 1678   6.223   5.882   5.658  0.2146  0.0141 -0.0190
   58bbb    H17 1679   6.231   5.847   5.761 -1.4636  3.4027  1.4246
   58bbb    H18 1680   6.188   5.793   5.605  0.1568  0.0253 -0.0009
   58bbb     O1 1681   6.446   5.439   5.895 -0.3000 -0.0532  0.5864
   59bbb     N1 1682   5.592   6.472   7.745 -0.1711  0.2038  0.2422
   59bbb     C1 1683   5.550   6.480   7.608  0.0889 -0.1838 -0.2772
   59bbb     H1 1684   5.545   6.378   7.569 -0.3643  0.4986 -2.1034
   59bbb     H2 1685   5.630   6.518   7.544  0.6704  0.6068  0.8671
   59bbb     C2 1686   5.593   6.600   7.817 -0.0480 -0.0651  0.4213
   59bbb     H3 1687   5.506   6.665   7.802  0.3849  0.2560 -0.8098
   59bbb     H4 1688   5.680   6.659   7.784  1.1515 -1.7180  0.4957
   59bbb     C3 1689   5.710   6.382   7.763 -0.2003 -0.0839  0.7541
   59bbb     H5 1690   5.697   6.293   7.699  1.4430  1.7603 -2.4063
   59bbb     H6 1691   5.705   6.339   7.864  2.0844  1.6968  1.7230
   59bbb     C4 1692   5.841   6.452   7.742 -0.2189 -0.7652  0.5881
   59bbb     H7 1693   5.846   6.535   7.814  0.0727  0.1811 -0.5108
   59bbb     H8 1694   5.832   6.503   7.646 -1.7543  0.9218  1.5548
   59bbb     C5 1695   5.417   6.561   7.586 -0.4004  0.3690  0.4678
   59bbb     H9 1696   5.423   6.670   7.599 -0.7463  0.1439  3.3469
   59bbb    H10 1697   5.337   6.519   7.649 -0.2568 -2.1263 -0.8781
   59bbb     C6 1698   5.612   6.578   7.964  0.1174  0.3358 -0.8642
   59bbb    H11 1699   5.690   6.648   7.998 -0.2630  0.0699  0.6684
   59bbb    H12 1700   5.648   6.479   7.994 -0.7095  0.2335 -0.1686
   59bbb     C7 1701   5.967   6.359   7.750 -0.4236  0.1921  0.4822
   59bbb    H13 1702   6.057   6.420   7.741  0.1958 -0.6012  1.1856
   59bbb    H14 1703   5.949   6.287   7.669  2.0050 -1.6151  1.4461
   59bbb     C8 1704   5.486   6.606   8.055 -0.7865  0.0039  0.7676
   59bbb    H15 1705   5.493   6.593   8.163  0.3830 -1.1915  0.5649
   59bbb    H16 1706   5.419   6.528   8.015 -0.5810 -0.2585  0.9346
   59bbb     C9 1707   5.374   6.543   7.437 -0.3525 -0.6751 -0.5798
   59bbb    H17 1708   5.288   6.611   7.423  0.3856  0.0298 -1.9413
   59bbb    H18 1709   5.322   6.449   7.416 -1.1310 -0.4195  0.1184
   59bbb     O1 1710   5.978   6.300   7.878 -0.3700 -0.0597 -0.5645
   60bbb     N1 1711   6.990   6.459   7.754  0.6695 -0.0172  0.1542
   60bbb     C1 1712   6.916   6.582   7.797 -0.4294  0.0406  0.0901
   60bbb     H1 1713   6.817   6.547   7.830  0.2559 -4.0474 -1.5457
   60bbb     H2 1714   6.902   6.658   7.719 -2.3584 -1.5404 -1.1950
   60bbb     C2 1715   7.133   6.482   7.716  0.2612  0.4673  0.1317
   60bbb     H3 1716   7.172   6.384   7.689  1.4096  1.5642 -2.5670
   60bbb     H4 1717   7.185   6.523   7.804 -0.1751  1.2203  0.0519
   60bbb     C3 1718   6.987   6.340   7.847  0.3972 -0.3196  0.6155
   60bbb     H5 1719   7.042   6.363   7.939  0.1608  1.2607  0.3895
   60bbb     H6 1720   7.047   6.259   7.802  3.4134  1.6691  0.7697
   60bbb     C4 1721   6.854   6.295   7.890  0.7778 -0.3974  0.0350
   60bbb     H7 1722   6.779   6.291   7.810  0.3279 -0.8755  0.4716
   60bbb     H8 1723   6.816   6.354   7.974  1.0602 -0.9333  0.5396
   60bbb     C5 1724   6.987   6.645   7.920  0.8514 -0.0043 -0.3957
   60bbb     H9 1725   7.084   6.682   7.883  0.3503  0.1820 -1.5742
   60bbb    H10 1726   7.016   6.573   7.997 -0.5434  0.8005  0.9345
   60bbb     C6 1727   7.150   6.574   7.591 -0.7773  0.0406  0.2483
   60bbb    H11 1728   7.125   6.675   7.626  0.5927 -0.3298  2.5042
   60bbb    H12 1729   7.087   6.545   7.506  1.8384 -0.9324 -1.4975
   60bbb     C7 1730   6.859   6.153   7.928  0.3773  0.2694 -0.1421
   60bbb    H13 1731   6.912   6.138   8.023 -1.7300 -2.4311  0.7466
   60bbb    H14 1732   6.892   6.088   7.846 -0.2031 -0.3400  0.0863
   60bbb     C8 1733   7.297   6.585   7.555 -0.6556 -0.0139  0.1347
   60bbb    H15 1734   7.351   6.633   7.638  0.4247  1.8014 -1.5412
   60bbb    H16 1735   7.302   6.647   7.465  0.4029 -0.5661 -0.2058
   60bbb     C9 1736   6.897   6.754   7.989 -0.7550  0.1934 -0.2460
   60bbb    H17 1737   6.869   6.838   7.925 -2.1340  0.3832  0.5754
   60bbb    H18 1738   6.947   6.798   8.076  0.2047 -1.7942  0.2731
   60bbb     O1 1739   6.723   6.127   7.954  0.5010  0.0373  0.5740
   61bbb     N1 1740   6.157   4.865   6.078 -0.2072  0.5182 -0.0940
   61bbb     C1 1741   6.178   5.013   6.078 -0.5640  0.3136 -0.7072
   61bbb     H1 1742   6.285   5.029   6.099 -0.5077 -1.3796  0.5048
   61bbb     H2 1743   6.119   5.066   6.154  1.2998 -0.2438  1.2031
   61bbb     C2 1744   6.011   4.820   6.069  0.1281 -0.5218 -0.5612
   61bbb     H3 1745   5.976   4.845   5.968 -1.8330  1.9137  0.5971
   61bbb     H4 1746   5.951   4.878   6.141  2.0153  1.5685 -0.5749
   61bbb     C3 1747   6.237   4.796   6.182 -0.5566  0.0140 -0.5037
   61bbb     H5 1748   6.345   4.813   6.174 -0.3183  1.3503  3.3831
   61bbb     H6 1749   6.231   4.686   6.181  1.4129 -0.1519  0.9288
   61bbb     C4 1750   6.202   4.849   6.325 -0.1975  0.2683 -0.0603
   61bbb     H7 1751   6.093   4.848   6.341 -0.3876  0.4975 -1.2707
   61bbb     H8 1752   6.227   4.956   6.329  1.6968 -0.1627  0.4490
   61bbb     C5 1753   6.138   5.075   5.945 -0.8606 -0.0733  0.2294
   61bbb     H9 1754   6.037   5.046   5.912 -0.8950 -0.7483  0.8943
   61bbb    H10 1755   6.207   5.039   5.868  0.1758  0.6985  0.7745
   61bbb     C6 1756   5.991   4.663   6.084 -0.4861  0.6607  0.0856
   61bbb    H11 1757   6.035   4.628   6.178 -1.3284 -1.5021 -0.2743
   61bbb    H12 1758   6.057   4.611   6.014 -0.3518  0.0446  0.6647
   61bbb     C7 1759   6.268   4.773   6.442 -0.2412  1.3976  0.3062
   61bbb    H13 1760   6.377   4.774   6.426 -0.0063  0.6638  1.6491
   61bbb    H14 1761   6.225   4.672   6.443  0.6371  0.9545 -1.6307
   61bbb     C8 1762   5.845   4.622   6.077  0.1211  0.2308  0.3046
   61bbb    H15 1763   5.851   4.513   6.084 -0.4948  0.2487  1.1611
   61bbb    H16 1764   5.812   4.654   5.978 -1.1786  1.2499  1.0389
   61bbb     C9 1765   6.151   5.232   5.932  0.5228 -0.1499 -0.5653
   61bbb    H17 1766   6.128   5.274   5.833  0.9000  1.4958  0.0048
   61bbb    H18 1767   6.253   5.266   5.952  0.9110 -0.1818 -2.3581
   61bbb     O1 1768   6.249   4.847   6.564 -0.2398  0.8808  0.2311
   62bbb     N1 1769   5.735   5.062   7.891 -0.4014  0.2288 -0.4256
   62bbb     C1 1770   5.848   5.147   7.938  0.1714 -0.0321 -0.3850
   62bbb     H1 1771   5.946   5.114   7.903  0.6936  2.3497 -1.3358
   62bbb     H2 1772   5.845   5.126   8.046  0.5688 -0.4446 -0.4557
   62bbb     C2 1773   5.604   5.083   7.968 -0.0844 -0.0912  0.0655
   62bbb     H3 1774   5.576   5.186   7.944 -1.5871 -0.5026 -0.0270
   62bbb     H4 1775   5.632   5.083   8.074  3.0728 -0.8699 -0.6706
   62bbb     C3 1776   5.713   5.082   7.743 -0.5034 -0.1196  0.3019
   62bbb     H5 1777   5.699   5.188   7.720  1.6013  0.0452 -0.3831
   62bbb     H6 1778   5.634   5.012   7.713  0.5527 -2.2273  2.1549
   62bbb     C4 1779   5.836   5.031   7.656 -0.1537 -0.3856 -0.1617
   62bbb     H7 1780   5.848   4.925   7.680 -3.0929 -0.7849 -0.1066
   62bbb     H8 1781   5.921   5.095   7.685 -0.0956  0.1219 -1.4185
   62bbb     C5 1782   5.842   5.301   7.925 -0.1444  0.1912  0.5825
   62bbb     H9 1783   5.739   5.337   7.934 -0.1609  0.9898 -1.9712
   62bbb    H10 1784   5.889   5.330   7.830 -0.7605 -0.5876  0.0289
   62bbb     C6 1785   5.486   4.992   7.931 -0.6896  0.4292  0.2264
   62bbb    H11 1786   5.519   4.888   7.945 -1.1045  0.3643  0.7726
   62bbb    H12 1787   5.451   5.011   7.829  1.1441  2.5675 -0.0752
   62bbb     C7 1788   5.807   5.036   7.502 -0.0122  0.1598 -0.0176
   62bbb    H13 1789   5.773   5.135   7.471  0.0887 -0.1969 -1.3170
   62bbb    H14 1790   5.730   4.964   7.472 -1.4057  1.0143  1.3725
   62bbb     C8 1791   5.368   5.017   8.031  0.4227  0.5144  0.2610
   62bbb    H15 1792   5.279   4.973   7.984  0.9856  1.9192 -2.3276
   62bbb    H16 1793   5.359   5.126   8.041  0.2848  0.4038  1.3792
   62bbb     C9 1794   5.932   5.358   8.037  0.1222 -0.5418 -0.0170
   62bbb    H17 1795   5.905   5.316   8.135 -1.7188 -0.4109 -0.4197
   62bbb    H18 1796   5.921   5.467   8.031  1.3034 -0.4888 -2.6695
   62bbb     O1 1797   5.922   4.998   7.425  0.0613 -0.0362  0.5031
   63bbb     N1 1798   7.016   7.019   6.041 -0.1047 -0.2249 -0.0395
   63bbb     C1 1799   6.933   6.924   5.964 -0.5754 -0.6976  0.0089
   63bbb     H1 1800   6.978   6.898   5.867 -2.3866  0.5551 -1.2139
   63bbb     H2 1801   6.840   6.972   5.932 -0.5531 -1.5216 -1.3671
   63bbb     C2 1802   6.965   7.055   6.176  0.0963  0.3663  0.1896
   63bbb     H3 1803   7.027   7.131   6.224 -1.2214  0.8830  1.1217
   63bbb     H4 1804   6.949   6.965   6.236 -3.2984 -0.3563 -1.5778
   63bbb     C3 1805   7.157   6.974   6.040 -0.4213  0.2333 -0.2506
   63bbb     H5 1806   7.170   6.871   6.075  1.3843  0.8769  1.1095
   63bbb     H6 1807   7.204   7.045   6.108 -0.2612 -0.6986  0.6247
   63bbb     C4 1808   7.229   6.977   5.898 -0.8377 -0.1401  0.3734
   63bbb     H7 1809   7.193   6.890   5.841 -0.6314  0.5755 -0.8902
   63bbb     H8 1810   7.338   6.967   5.901 -0.7046  0.1786 -1.7261
   63bbb     C5 1811   6.895   6.788   6.027  0.3895  0.0468 -0.5000
   63bbb     H9 1812   6.826   6.802   6.112  1.2359  2.7351 -0.1712
   63bbb    H10 1813   6.982   6.731   6.060  0.1735 -1.1936 -1.9771
   63bbb     C6 1814   6.823   7.114   6.155 -0.3512 -0.5368  0.7594
   63bbb    H11 1815   6.753   7.034   6.127  0.7088 -0.4587 -2.4192
   63bbb    H12 1816   6.832   7.187   6.074 -2.5327 -1.6317 -0.5783
   63bbb     C7 1817   7.191   7.109   5.819 -0.0492  0.2622 -0.2392
   63bbb    H13 1818   7.198   7.189   5.893  0.2649 -0.6027  0.6883
   63bbb    H14 1819   7.095   7.097   5.767 -1.2597 -0.7380  2.0428
   63bbb     C8 1820   6.766   7.182   6.287 -0.0003  1.4054 -0.8636
   63bbb    H15 1821   6.850   7.247   6.313  1.4946 -0.2101 -1.4778
   63bbb    H16 1822   6.751   7.094   6.351 -0.2846  1.4819 -0.8237
   63bbb     C9 1823   6.819   6.697   5.926  0.1324  0.7607 -1.1376
   63bbb    H17 1824   6.773   6.618   5.986 -1.7625  2.2685 -0.4845
   63bbb    H18 1825   6.887   6.663   5.847  0.8938 -0.3688 -0.0348
   63bbb     O1 1826   7.297   7.137   5.725 -0.0299  0.0520  0.8183
   64bbb     N1 1827   6.545   7.191   5.652 -0.3471 -0.0274  0.3084
   64bbb     C1 1828   6.443   7.100   5.597 -0.3724  0.6585  0.2825
   64bbb     H1 1829   6.416   7.019   5.666  0.7274 -0.5846 -0.7037
   64bbb     H2 1830   6.485   7.047   5.511  0.0826 -2.3839  2.1877
   64bbb     C2 1831   6.513   7.243   5.791 -0.1410  0.1891  0.1472
   64bbb     H3 1832   6.420   7.299   5.779  1.3382  2.3742 -2.2043
   64bbb     H4 1833   6.584   7.322   5.819  0.3866  0.1096 -0.8765
   64bbb     C3 1834   6.689   7.145   5.645  0.1697 -0.6078 -0.1113
   64bbb     H5 1835   6.706   7.102   5.546 -0.9003  0.4747 -0.8029
   64bbb     H6 1836   6.704   7.064   5.716  0.5348 -0.3468  0.1116
   64bbb     C4 1837   6.794   7.260   5.665 -0.5789 -0.0575  0.3635
   64bbb     H7 1838   6.889   7.204   5.668 -1.1743 -1.1090 -0.0766
   64bbb     H8 1839   6.785   7.314   5.760 -0.5644  1.8613 -0.6826
   64bbb     C5 1840   6.324   7.172   5.548  0.4525 -0.6693  0.2770
   64bbb     H9 1841   6.276   7.241   5.618  0.0749 -0.4805 -0.1600
   64bbb    H10 1842   6.243   7.102   5.523 -0.1558 -0.2573  1.0404
   64bbb     C6 1843   6.511   7.137   5.908  0.1709 -0.6628 -0.4758
   64bbb    H11 1844   6.609   7.118   5.952 -0.2064  1.6418  1.5568
   64bbb    H12 1845   6.475   7.035   5.886 -2.5908  0.1456 -0.0689
   64bbb     C7 1846   6.786   7.372   5.560 -0.0741 -0.6707  0.0144
   64bbb    H13 1847   6.726   7.458   5.593 -0.2352 -1.7409  2.7713
   64bbb    H14 1848   6.746   7.331   5.466  0.6526 -0.4695 -0.3961
   64bbb     C8 1849   6.423   7.184   6.022  0.3328 -0.7112 -0.9404
   64bbb    H15 1850   6.470   7.264   6.081 -0.4182 -2.0350  1.6184
   64bbb    H16 1851   6.417   7.105   6.098 -0.9979  0.8459  0.6569
   64bbb     C9 1852   6.366   7.250   5.424  0.4664 -0.0707 -0.0960
   64bbb    H17 1853   6.383   7.175   5.345  1.9429  0.6360 -0.4896
   64bbb    H18 1854   6.458   7.306   5.442  0.9510 -1.2769  1.4667
   64bbb     O1 1855   6.928   7.413   5.549 -0.2643  0.3323  0.6390
   65bbb     N1 1856   8.207   7.753   5.489 -0.6942  0.1580  0.9920
   65bbb     C1 1857   8.190   7.614   5.457 -0.5131  0.6006 -1.2429
   65bbb     H1 1858   8.219   7.591   5.353  1.7769 -0.1283 -0.5131
   65bbb     H2 1859   8.082   7.596   5.465 -0.3467  0.2371  0.6740
   65bbb     C2 1860   8.198   7.797   5.631 -0.2858 -0.1570  0.6184
   65bbb     H3 1861   8.236   7.723   5.703  1.0307  1.6767  1.8859
   65bbb     H4 1862   8.092   7.800   5.661 -0.6143 -2.1664 -0.1450
   65bbb     C3 1863   8.145   7.841   5.381  0.1888  0.2291  0.6209
   65bbb     H5 1864   8.104   7.933   5.424 -2.9615 -1.0195  0.5394
   65bbb     H6 1865   8.049   7.805   5.341 -0.0649  1.8908 -0.3723
   65bbb     C4 1866   8.254   7.872   5.276  0.0134  1.1341  0.0973
   65bbb     H7 1867   8.286   7.778   5.230  0.9786  0.4537  2.0205
   65bbb     H8 1868   8.338   7.923   5.326 -1.7064  2.7071  1.5579
   65bbb     C5 1869   8.246   7.510   5.553 -0.3140 -0.9608 -0.8717
   65bbb     H9 1870   8.188   7.501   5.646 -2.2796  1.2170 -1.8025
   65bbb    H10 1871   8.348   7.538   5.584 -1.5348  0.5913  2.2386
   65bbb     C6 1872   8.273   7.933   5.653 -0.0699  0.2207 -0.5031
   65bbb    H11 1873   8.213   8.022   5.627 -2.4823 -1.0683  0.3621
   65bbb    H12 1874   8.364   7.940   5.592 -0.9089  1.9769 -1.6684
   65bbb     C7 1875   8.207   7.961   5.163  0.0207 -0.1485 -0.4114
   65bbb    H13 1876   8.113   7.925   5.120 -0.6490  1.0600 -0.0220
   65bbb    H14 1877   8.291   7.968   5.092  2.1677 -0.2005  1.9824
   65bbb     C8 1878   8.324   7.954   5.790 -0.4674 -0.5862 -0.5283
   65bbb    H15 1879   8.247   7.946   5.868  0.8438  1.8910  1.1587
   65bbb    H16 1880   8.365   8.055   5.796 -0.5136 -0.5525 -0.7890
   65bbb     C9 1881   8.252   7.375   5.474  0.1731 -0.4931  0.9325
   65bbb    H17 1882   8.282   7.294   5.543 -0.7116 -0.3857  1.4585
   65bbb    H18 1883   8.344   7.388   5.416 -0.3539 -1.8314 -0.2452
   65bbb     O1 1884   8.189   8.093   5.217  0.2030 -0.2183 -0.0699
   66bbb     N1 1885   7.589   8.100   4.747  0.0202 -0.0528  0.0512
   66bbb     C1 1886   7.628   8.012   4.862  0.6777  0.0271  0.4162
   66bbb     H1 1887   7.565   7.922   4.865  1.6344 -0.6924 -0.4296
   66bbb     H2 1888   7.619   8.066   4.957  0.2146  2.6189 -1.0327
   66bbb     C2 1889   7.446   8.146   4.734  0.0806 -0.0348 -0.1115
   66bbb     H3 1890   7.384   8.056   4.727 -1.7737  1.0074  1.7430
   66bbb     H4 1891   7.434   8.190   4.633  1.2992 -1.3916 -0.8831
   66bbb     C3 1892   7.677   8.208   4.706 -0.1844  0.5048 -0.1441
   66bbb     H5 1893   7.776   8.162   4.711  0.8310  2.5574 -0.2343
   66bbb     H6 1894   7.674   8.278   4.790 -0.2936 -0.4104  0.6262
   66bbb     C4 1895   7.654   8.272   4.569 -0.0594 -0.2131  0.5271
   66bbb     H7 1896   7.565   8.336   4.570  1.6952  2.4294 -1.0160
   66bbb     H8 1897   7.651   8.198   4.489 -0.1686  1.6404 -1.2584
   66bbb     C5 1898   7.764   7.947   4.869 -0.2052 -0.3916  0.4485
   66bbb     H9 1899   7.841   8.025   4.876 -2.0515  1.4680  1.0483
   66bbb    H10 1900   7.787   7.891   4.777 -0.4986 -0.7322  0.5800
   66bbb     C6 1901   7.394   8.245   4.842 -0.3779  0.0006 -0.4597
   66bbb    H11 1902   7.446   8.340   4.828 -0.8112  0.3253  0.0909
   66bbb    H12 1903   7.433   8.207   4.937  1.1829  0.6849 -0.8128
   66bbb     C7 1904   7.770   8.368   4.537 -0.7612 -1.2827  0.8323
   66bbb    H13 1905   7.742   8.421   4.445  0.0242  0.0633  1.3425
   66bbb    H14 1906   7.860   8.311   4.511 -3.7777 -5.7881 -0.9507
   66bbb     C8 1907   7.241   8.262   4.841 -0.0883 -0.1606 -0.1375
   66bbb    H15 1908   7.195   8.173   4.886 -1.5362  0.9770  0.7170
   66bbb    H16 1909   7.206   8.280   4.738  0.5306  1.8192 -0.0292
   66bbb     C9 1910   7.780   7.852   4.989  1.1354  0.3046  0.4182
   66bbb    H17 1911   7.686   7.795   4.993 -0.7445  2.7281 -3.5696
   66bbb    H18 1912   7.781   7.918   5.077 -1.0991 -1.4399  1.8722
   66bbb     O1 1913   7.789   8.472   4.641  0.0457  0.4466  0.3973
   67bbb     N1 1914   7.869   8.726   6.677  0.3290 -1.2669 -0.2845
   67bbb     C1 1915   7.947   8.713   6.810 -0.6843  0.0348 -0.3676
   67bbb     H1 1916   7.935   8.810   6.859 -2.1747  0.8154 -2.1418
   67bbb     H2 1917   8.055   8.704   6.792 -0.1711 -0.0707  2.3723
   67bbb     C2 1918   7.886   8.624   6.579  0.0642  0.2811 -0.2455
   67bbb     H3 1919   7.839   8.649   6.483  1.1108  0.3526 -0.7511
   67bbb     H4 1920   7.841   8.530   6.615 -0.4027  0.6202  0.0719
   67bbb     C3 1921   7.732   8.760   6.699  0.5761 -0.6735  0.3478
   67bbb     H5 1922   7.719   8.837   6.777 -2.6547  0.1883 -0.8798
   67bbb     H6 1923   7.679   8.667   6.724 -0.3070  0.4636  3.1899
   67bbb     C4 1924   7.676   8.836   6.577  0.2547 -1.0369  0.5072
   67bbb     H7 1925   7.684   8.782   6.482  0.0611  2.4633 -1.6795
   67bbb     H8 1926   7.728   8.931   6.558 -1.4824 -0.1554 -0.0914
   67bbb     C5 1927   7.906   8.598   6.900  0.8072 -0.0045  0.5784
   67bbb     H9 1928   7.939   8.509   6.844  2.3771 -0.7229  2.5350
   67bbb    H10 1929   7.796   8.600   6.906  0.8377  3.2789  2.0224
   67bbb     C6 1930   8.040   8.602   6.544 -0.0772 -0.3502  0.1123
   67bbb    H11 1931   8.076   8.552   6.635 -1.6664  1.3971  1.7992
   67bbb    H12 1932   8.090   8.698   6.534  0.4241 -0.5442  0.6789
   67bbb     C7 1933   7.522   8.868   6.587  0.1056 -0.4014  0.0661
   67bbb    H13 1934   7.496   8.954   6.650 -0.6622  0.6363 -1.6059
   67bbb    H14 1935   7.476   8.781   6.635 -0.4480  0.5018  1.2163
   67bbb     C8 1936   8.063   8.510   6.424  0.3502 -0.2276  0.0700
   67bbb    H15 1937   8.018   8.570   6.345  0.5977  2.1735  1.6618
   67bbb    H16 1938   8.014   8.414   6.446  0.0606 -0.2189 -0.5274
   67bbb     C9 1939   7.975   8.598   7.037  0.0125 -0.0210 -0.1137
   67bbb    H17 1940   7.935   8.510   7.090 -1.2856 -0.3011 -1.4912
   67bbb    H18 1941   7.948   8.683   7.101  2.1064  0.2741  0.4366
   67bbb     O1 1942   7.463   8.898   6.457 -0.5697  0.1325  0.0022
   68bbb     N1 1943   7.690   8.982   5.476  0.5764 -0.1903 -0.1670
   68bbb     C1 1944   7.713   8.860   5.396 -0.9107  0.2317 -0.0205
   68bbb     H1 1945   7.736   8.775   5.461  1.3949 -0.1811 -1.2491
   68bbb     H2 1946   7.804   8.874   5.335 -2.1374  2.8137 -1.4301
   68bbb     C2 1947   7.806   9.027   5.556  0.6183 -0.5780 -0.2379
   68bbb     H3 1948   7.788   9.130   5.590  0.2969 -0.8473  0.4238
   68bbb     H4 1949   7.891   9.017   5.488  0.1136 -1.3417 -0.7713
   68bbb     C3 1950   7.563   8.992   5.548 -0.3048 -0.2088 -0.0065
   68bbb     H5 1951   7.562   8.922   5.633  1.1212 -0.4444 -0.1635
   68bbb     H6 1952   7.482   8.965   5.480 -1.4665  0.5332  1.0395
   68bbb     C4 1953   7.509   9.127   5.604  0.3792 -0.2188 -0.6489
   68bbb     H7 1954   7.498   9.202   5.525  1.6259  1.0606  0.3408
   68bbb     H8 1955   7.577   9.157   5.685  0.5358  0.2995 -0.9730
   68bbb     C5 1956   7.596   8.817   5.302 -0.5017  0.1102 -0.2101
   68bbb     H9 1957   7.507   8.784   5.358  0.8847  1.7162  3.2661
   68bbb    H10 1958   7.632   8.724   5.257 -1.4810 -0.4813  0.1837
   68bbb     C6 1959   7.860   8.941   5.675 -0.1977 -0.3418 -0.3898
   68bbb    H11 1960   7.873   8.836   5.646  0.3798 -1.3406  3.0908
   68bbb    H12 1961   7.788   8.944   5.757  0.1898  1.3215 -0.0739
   68bbb     C7 1962   7.368   9.103   5.669 -0.4006  0.2914  0.4511
   68bbb    H13 1963   7.301   9.050   5.600  0.3714  0.7859 -0.7008
   68bbb    H14 1964   7.335   9.205   5.694 -0.5477  0.8278 -1.7061
   68bbb     C8 1965   7.994   8.991   5.732  1.0995 -0.6772 -0.2998
   68bbb    H15 1966   7.977   9.096   5.759 -0.2601 -1.1195  0.6940
   68bbb    H16 1967   8.083   8.989   5.667  2.3874  0.3417  1.3564
   68bbb     C9 1968   7.569   8.928   5.193  0.3208  0.0110 -0.3154
   68bbb    H17 1969   7.650   9.001   5.183 -0.2785  0.7430  0.0691
   68bbb    H18 1970   7.470   8.973   5.211  1.1131  2.0305 -0.7421
   68bbb     O1 1971   7.379   9.014   5.783  0.3532 -0.2379  0.1250
   69bbb     N1 1972   7.383   7.550   7.354  0.5341 -0.2004 -0.2489
   69bbb     C1 1973   7.317   7.643   7.445 -0.1059 -0.6946 -0.0886
   69bbb     H1 1974   7.390   7.693   7.510 -0.2870 -0.2846 -0.1932
   69bbb     H2 1975   7.244   7.599   7.514  0.1073 -0.1952  0.4700
   69bbb     C2 1976   7.434   7.417   7.410  0.3059  0.0492 -0.4106
   69bbb     H3 1977   7.445   7.348   7.326 -0.3115  2.3560 -2.5287
   69bbb     H4 1978   7.348   7.378   7.466  0.2338  0.5897 -0.1306
   69bbb     C3 1979   7.475   7.612   7.252  0.7783 -0.1656 -0.6132
   69bbb     H5 1980   7.560   7.665   7.297 -1.1249  3.4506 -0.9563
   69bbb     H6 1981   7.411   7.678   7.192 -0.9341  0.1664  1.4710
   69bbb     C4 1982   7.538   7.519   7.144 -0.5759  0.1286  0.6154
   69bbb     H7 1983   7.463   7.457   7.093 -1.4173  0.8324  0.9780
   69bbb     H8 1984   7.603   7.450   7.199 -0.1756 -0.4816 -0.5812
   69bbb     C5 1985   7.241   7.758   7.377  0.4483  0.7534  0.9569
   69bbb     H9 1986   7.314   7.806   7.310 -1.1761  0.6890 -0.9524
   69bbb    H10 1987   7.216   7.832   7.454 -1.6844  0.8381  0.2450
   69bbb     C6 1988   7.566   7.414   7.500 -0.5521  0.0698  0.1906
   69bbb    H11 1989   7.553   7.478   7.588  0.0567 -0.5490  0.7499
   69bbb    H12 1990   7.650   7.451   7.441 -2.8073  1.4654 -2.3433
   69bbb     C7 1991   7.616   7.589   7.028  0.0316 -0.0152  0.8299
   69bbb    H13 1992   7.573   7.548   6.936 -0.6834 -0.3839  1.3264
   69bbb    H14 1993   7.722   7.566   7.047  0.4236  1.2749  0.3672
   69bbb     C8 1994   7.602   7.277   7.549 -0.0085 -0.1356 -0.2923
   69bbb    H15 1995   7.612   7.211   7.462 -0.8013 -1.4762  0.5966
   69bbb    H16 1996   7.515   7.243   7.607  1.4763 -2.6036  0.6141
   69bbb     C9 1997   7.119   7.706   7.290  0.2329  0.0089 -0.0651
   69bbb    H17 1998   7.057   7.641   7.353 -1.2761 -0.7683 -2.2539
   69bbb    H18 1999   7.160   7.653   7.204 -1.0301 -1.5617  0.2520
   69bbb     O1 2000   7.620   7.730   7.016  0.0324 -0.0898  0.1055
   70bbb     N1 2001   7.642   8.978   7.039 -0.3768 -0.1109  0.3554
   70bbb     C1 2002   7.675   9.048   6.910 -0.2273  0.5292  0.4644
   70bbb     H1 2003   7.608   9.022   6.827 -1.3309  2.5952  0.6448
   70bbb     H2 2004   7.774   9.010   6.884 -0.0274 -1.5080  3.7155
   70bbb     C2 2005   7.727   9.014   7.152 -0.1620 -0.2301  0.0918
   70bbb     H3 2006   7.676   8.987   7.246  1.7524  0.6095  1.4384
   70bbb     H4 2007   7.720   9.124   7.155 -3.4040 -0.3564  1.8211
   70bbb     C3 2008   7.617   8.837   7.039  0.0213 -0.1742 -0.3212
   70bbb     H5 2009   7.598   8.814   7.145 -2.7825 -0.1482 -0.7348
   70bbb     H6 2010   7.697   8.771   7.004 -0.5038 -0.7380 -0.4829
   70bbb     C4 2011   7.490   8.804   6.952  0.8399  0.6857 -0.3693
   70bbb     H7 2012   7.509   8.829   6.847  1.8868  1.0614 -0.0941
   70bbb     H8 2013   7.405   8.866   6.983 -0.3632 -0.0316 -2.1006
   70bbb     C5 2014   7.670   9.201   6.911 -0.3455 -0.2737  0.1747
   70bbb     H9 2015   7.769   9.238   6.942  0.0118 -0.8241 -0.2874
   70bbb    H10 2016   7.601   9.230   6.990  3.4911  1.3729  3.2804
   70bbb     C6 2017   7.875   8.973   7.149  0.6276  0.3656  0.5299
   70bbb    H11 2018   7.914   8.996   7.049 -0.2226  1.9903  0.5213
   70bbb    H12 2019   7.875   8.864   7.161 -0.7358  0.1815 -0.8074
   70bbb     C7 2020   7.442   8.651   6.953 -0.6721 -0.9374  0.0339
   70bbb    H13 2021   7.340   8.644   6.916 -0.2010  3.2348 -2.7170
   70bbb    H14 2022   7.444   8.616   7.057 -1.3539 -1.0940 -0.0015
   70bbb     C8 2023   7.965   9.034   7.261 -0.3671  0.0821  0.0217
   70bbb    H15 2024   7.975   9.138   7.228 -0.1420 -0.2589 -1.0257
   70bbb    H16 2025   8.068   8.995   7.258  1.0729  3.5552 -1.0380
   70bbb     C9 2026   7.629   9.276   6.776 -0.0551  0.1360 -0.3425
   70bbb    H17 2027   7.695   9.238   6.697  0.5690  0.1522  0.1580
   70bbb    H18 2028   7.654   9.381   6.794 -2.8008  1.0173 -1.2312
   70bbb     O1 2029   7.534   8.562   6.888 -0.3732 -0.0374 -0.1032
   71bbb     N1 2030   5.456   7.853   8.702 -0.1796 -0.1448  0.0181
   71bbb     C1 2031   5.582   7.779   8.674  1.1631  0.1143 -0.0674
   71bbb     H1 2032   5.671   7.842   8.676  1.0793  0.2412  1.7613
   71bbb     H2 2033   5.573   7.746   8.570 -2.0151  1.8391 -0.4595
   71bbb     C2 2034   5.347   7.831   8.604  0.1749  0.2213  0.1561
   71bbb     H3 2035   5.370   7.863   8.502 -1.8534  0.4544 -0.2843
   71bbb     H4 2036   5.260   7.891   8.633 -2.5160 -1.9497 -2.7106
   71bbb     C3 2037   5.475   7.994   8.745  0.0172  0.4199  0.1203
   71bbb     H5 2038   5.384   8.056   8.745  1.3968  2.5956 -1.0018
   71bbb     H6 2039   5.528   8.042   8.662 -1.0338  0.0381 -0.7973
   71bbb     C4 2040   5.551   8.017   8.880  1.0387  0.3930 -0.4976
   71bbb     H7 2041   5.643   7.959   8.875  0.7435  0.0064 -2.2389
   71bbb     H8 2042   5.495   7.985   8.969  1.3527 -0.0111 -0.4456
   71bbb     C5 2043   5.601   7.651   8.763 -0.0541  0.2081 -0.1365
   71bbb     H9 2044   5.522   7.577   8.743  1.0417 -0.8526 -0.6605
   71bbb    H10 2045   5.601   7.674   8.870  0.6986 -1.3019  0.2218
   71bbb     C6 2046   5.306   7.684   8.587  0.1570 -0.5383 -0.5162
   71bbb    H11 2047   5.298   7.634   8.685  0.1830  0.9170  0.2663
   71bbb    H12 2048   5.386   7.636   8.529  1.8074 -1.1695  2.1050
   71bbb     C7 2049   5.574   8.164   8.899  0.0972 -0.0302 -0.1089
   71bbb    H13 2050   5.591   8.195   9.003  0.6529  0.1153 -0.2383
   71bbb    H14 2051   5.488   8.229   8.880  1.8205  2.3918 -0.0822
   71bbb     C8 2052   5.179   7.679   8.508 -0.0688  0.2049 -0.1040
   71bbb    H15 2053   5.093   7.730   8.553  1.0699  1.0719  1.1655
   71bbb    H16 2054   5.151   7.574   8.495  0.2859 -0.4331  3.2582
   71bbb     C9 2055   5.738   7.587   8.728  0.1060  0.4121 -0.3173
   71bbb    H17 2056   5.825   7.650   8.753  0.5094 -0.1799 -0.2222
   71bbb    H18 2057   5.744   7.550   8.625  1.9076 -1.3167  0.3446
   71bbb     O1 2058   5.687   8.198   8.814 -0.5724  0.5073  0.4412
   72bbb     N1 2059   5.894   8.051   7.814  0.3769 -0.3758 -0.6901
   72bbb     C1 2060   5.805   8.032   7.693 -0.6827  0.0666 -0.3969
   72bbb     H1 2061   5.705   8.024   7.739 -0.1478 -0.2452  0.7282
   72bbb     H2 2062   5.821   7.939   7.636 -1.0447  0.0558 -0.4854
   72bbb     C2 2063   5.906   7.930   7.897  0.4567  0.7434 -0.2939
   72bbb     H3 2064   5.808   7.925   7.946  0.1308 -1.2932 -1.0321
   72bbb     H4 2065   5.981   7.946   7.975  1.2281 -1.3746 -0.5436
   72bbb     C3 2066   5.860   8.169   7.900 -0.1060  0.3157 -0.2332
   72bbb     H5 2067   5.783   8.139   7.972  0.1878 -2.7223 -1.0431
   72bbb     H6 2068   5.815   8.252   7.844 -1.2697  0.9100  1.5068
   72bbb     C4 2069   5.986   8.222   7.976 -0.4519 -0.4281  0.2261
   72bbb     H7 2070   6.072   8.209   7.909 -0.3167 -0.1378  0.3460
   72bbb     H8 2071   6.003   8.157   8.063  1.9254  0.9689  0.8826
   72bbb     C5 2072   5.797   8.155   7.602 -0.2754 -0.0430  0.0123
   72bbb     H9 2073   5.902   8.178   7.577  0.2074 -1.5842  0.5472
   72bbb    H10 2074   5.740   8.239   7.643 -1.8364 -1.4888  0.9015
   72bbb     C6 2075   5.950   7.795   7.834 -0.5525  0.0891 -0.1855
   72bbb    H11 2076   6.045   7.799   7.779 -1.6200  0.0846 -2.1281
   72bbb    H12 2077   5.883   7.763   7.753  1.9166 -5.5610 -0.4822
   72bbb     C7 2078   5.986   8.363   8.025  0.0416  0.3639 -0.2455
   72bbb    H13 2079   5.980   8.436   7.944 -0.9838  1.3656  0.6788
   72bbb    H14 2080   6.080   8.390   8.075  0.1524 -0.1727 -0.1636
   72bbb     C8 2081   5.948   7.678   7.941  0.0826  0.3044  0.0128
   72bbb    H15 2082   5.949   7.583   7.885  1.4494  0.5968 -0.4968
   72bbb    H16 2083   5.857   7.671   8.002  0.9282 -1.2686  1.1858
   72bbb     C9 2084   5.717   8.110   7.486  0.4708  0.0748 -0.3637
   72bbb    H17 2085   5.767   8.023   7.443  1.8472  0.2113  0.9069
   72bbb    H18 2086   5.704   8.187   7.409  0.8220  1.2332  0.6903
   72bbb     O1 2087   5.865   8.383   8.100 -0.1466 -0.7832 -0.5131
   73bbb     N1 2088   6.024   9.439   7.162  0.2249 -0.2761 -0.5969
   73bbb     C1 2089   6.167   9.407   7.150  0.1967  0.1773 -0.6677
   73bbb     H1 2090   6.213   9.448   7.059  1.7506 -0.9764 -0.4317
   73bbb     H2 2091   6.164   9.300   7.128  1.2989 -0.7271  2.9532
   73bbb     C2 2092   5.983   9.585   7.172 -0.5779  0.0154 -0.2720
   73bbb     H3 2093   6.009   9.632   7.268 -0.7103 -0.6649  0.1003
   73bbb     H4 2094   5.877   9.604   7.153 -0.1337  1.9464 -1.0540
   73bbb     C3 2095   5.934   9.363   7.254  0.1057 -0.3010 -0.6271
   73bbb     H5 2096   5.829   9.392   7.245 -0.3868 -0.4972  2.9878
   73bbb     H6 2097   5.973   9.384   7.355 -1.2915 -2.5479  0.4653
   73bbb     C4 2098   5.937   9.211   7.227 -0.9425 -0.3493 -0.3425
   73bbb     H7 2099   6.027   9.157   7.259  0.6345  1.9953 -0.6173
   73bbb     H8 2100   5.929   9.190   7.119  1.2496  1.1350 -0.8535
   73bbb     C5 2101   6.267   9.453   7.265 -0.3411 -0.1126 -0.2331
   73bbb     H9 2102   6.222   9.433   7.363  0.5201  0.7835  0.3649
   73bbb    H10 2103   6.270   9.563   7.257 -1.7817  0.1865  2.0589
   73bbb     C6 2104   6.049   9.674   7.062  0.0426 -0.0135  0.2528
   73bbb    H11 2105   6.047   9.622   6.965 -1.8530  0.3731  0.0378
   73bbb    H12 2106   6.155   9.686   7.086 -0.2170  2.1514  0.5100
   73bbb     C7 2107   5.815   9.142   7.300  0.1404 -0.2315  0.5288
   73bbb    H13 2108   5.720   9.173   7.256  0.2131 -1.5282 -0.6073
   73bbb    H14 2109   5.808   9.178   7.404 -1.4826 -0.8903  0.6754
   73bbb     C8 2110   5.983   9.815   7.049  0.4588  0.0459 -0.2435
   73bbb    H15 2111   6.042   9.880   6.983 -0.9926  0.1605 -1.4723
   73bbb    H16 2112   5.979   9.852   7.152  0.7425  0.2029 -0.2884
   73bbb     C9 2113   6.409   9.393   7.255 -1.0353  0.0539 -0.3034
   73bbb    H17 2114   6.395   9.284   7.252 -1.2392  0.0802 -0.2844
   73bbb    H18 2115   6.467   9.420   7.344 -4.0820  2.9337  1.0155
   73bbb     O1 2116   5.837   9.003   7.300 -0.2646  0.6035 -0.1072
   74bbb     N1 2117   5.140   8.361   8.058  0.4500  0.5359 -0.1389
   74bbb     C1 2118   5.087   8.491   8.107 -0.0162  0.2818  0.1734
   74bbb     H1 2119   5.157   8.569   8.075  2.5780 -1.0526  2.1977
   74bbb     H2 2120   5.098   8.493   8.216  3.5923 -1.5446 -0.0040
   74bbb     C2 2121   5.211   8.291   8.169 -0.1002 -0.3170  0.0552
   74bbb     H3 2122   5.134   8.284   8.248 -0.8324  0.3876 -0.5791
   74bbb     H4 2123   5.293   8.353   8.205 -1.0452  2.3813 -2.1413
   74bbb     C3 2124   5.202   8.372   7.916  0.2417  0.0419  0.6088
   74bbb     H5 2125   5.139   8.415   7.837  0.3397 -1.5515 -0.3756
   74bbb     H6 2126   5.237   8.273   7.885  2.1245  0.4668  1.2725
   74bbb     C4 2127   5.334   8.456   7.912  0.7713  0.4386 -0.3812
   74bbb     H7 2128   5.397   8.397   7.980  0.0380 -2.6635 -2.1960
   74bbb     H8 2129   5.317   8.560   7.940 -0.1262  0.8053 -2.1767
   74bbb     C5 2130   4.940   8.528   8.060 -0.0446 -0.0717 -0.5801
   74bbb     H9 2131   4.871   8.455   8.104 -0.9425  0.5476 -0.9239
   74bbb    H10 2132   4.940   8.517   7.951 -0.4335 -1.7345 -0.4335
   74bbb     C6 2133   5.259   8.146   8.139  0.4787  0.1714  0.4210
   74bbb    H11 2134   5.334   8.148   8.059 -1.2374 -2.2579 -1.3993
   74bbb    H12 2135   5.175   8.089   8.097  1.1023 -0.4250 -0.0266
   74bbb     C7 2136   5.387   8.450   7.770 -0.2840  0.5822 -0.6932
   74bbb    H13 2137   5.308   8.473   7.698 -1.0063  0.2662 -0.0072
   74bbb    H14 2138   5.429   8.352   7.746  1.9590  1.2151  0.3038
   74bbb     C8 2139   5.304   8.071   8.266  0.2601 -0.3636  1.2570
   74bbb    H15 2140   5.388   8.120   8.316  0.0860  0.6493  0.5949
   74bbb    H16 2141   5.337   7.972   8.231 -1.5764  0.1987 -2.6575
   74bbb     C9 2142   4.902   8.669   8.120 -0.2414 -0.9920  0.3048
   74bbb    H17 2143   4.928   8.728   8.031 -1.1954 -1.1175 -0.0711
   74bbb    H18 2144   4.966   8.701   8.203  0.5018 -0.5670 -0.4161
   74bbb     O1 2145   5.489   8.549   7.752 -0.1201 -0.0463 -0.2751
   75bbb     N1 2146   6.719   7.642   7.487 -0.1608  0.6559  0.2738
   75bbb     C1 2147   6.642   7.527   7.427 -0.8777 -0.7619 -0.3174
   75bbb     H1 2148   6.546   7.512   7.478 -1.1138  1.0673 -0.1632
   75bbb     H2 2149   6.703   7.438   7.446  0.3853  0.4151  1.4271
   75bbb     C2 2150   6.782   7.612   7.618 -0.5346 -0.1372  0.7412
   75bbb     H3 2151   6.710   7.562   7.684 -0.8553  0.6297  0.9860
   75bbb     H4 2152   6.820   7.706   7.659 -0.8831  0.7192 -0.7913
   75bbb     C3 2153   6.627   7.763   7.485 -0.0475  0.7436  0.0300
   75bbb     H5 2154   6.533   7.735   7.535 -0.6672  1.6332 -0.5966
   75bbb     H6 2155   6.606   7.793   7.382 -2.2161 -0.3094  0.0997
   75bbb     C4 2156   6.675   7.895   7.555 -0.5649  0.6347  0.4235
   75bbb     H7 2157   6.696   7.880   7.661  0.8711 -0.5646  0.0159
   75bbb     H8 2158   6.592   7.967   7.557 -0.2416  0.9991  0.8971
   75bbb     C5 2159   6.625   7.528   7.269  0.3480  0.4796 -0.1675
   75bbb     H9 2160   6.721   7.566   7.231  1.1538 -0.2951  1.0166
   75bbb    H10 2161   6.557   7.606   7.232  1.0367  0.4410 -1.5923
   75bbb     C6 2162   6.894   7.509   7.600 -0.5629 -0.2405 -0.4940
   75bbb    H11 2163   6.962   7.534   7.518 -0.5355 -0.5841 -0.5779
   75bbb    H12 2164   6.846   7.412   7.583 -0.4571 -0.4550  0.3850
   75bbb     C7 2165   6.808   7.945   7.487  0.0292  0.5501  0.4551
   75bbb    H13 2166   6.787   7.973   7.383 -0.2442  0.3708  0.4622
   75bbb    H14 2167   6.885   7.868   7.500 -1.8446 -1.1349  2.0841
   75bbb     C8 2168   6.977   7.508   7.733 -0.2528 -0.0258 -0.6896
   75bbb    H15 2169   7.008   7.403   7.740  1.6888  0.4612 -1.0802
   75bbb    H16 2170   6.920   7.532   7.823 -0.9529 -0.3753 -1.0353
   75bbb     C9 2171   6.584   7.398   7.208  0.2694  0.3358  0.5097
   75bbb    H17 2172   6.488   7.369   7.251  0.4639 -2.5217 -0.7580
   75bbb    H18 2173   6.649   7.316   7.239 -0.1982  0.5063  2.0177
   75bbb     O1 2174   6.843   8.066   7.564  0.1655 -0.4724  0.5428
   76bbb     N1 2175   7.563   7.959   7.549 -0.1762  0.1794  0.1308
   76bbb     C1 2176   7.569   8.008   7.406 -0.1114  0.4034  0.6158
   76bbb     H1 2177   7.589   7.921   7.342 -0.9989  0.2376  0.5586
   76bbb     H2 2178   7.658   8.072   7.395  2.3292 -2.4045  2.5887
   76bbb     C2 2179   7.668   7.866   7.595 -0.5151 -0.0534  0.0927
   76bbb     H3 2180   7.766   7.912   7.610 -0.0413 -0.9534 -0.1224
   76bbb     H4 2181   7.686   7.800   7.509 -1.6163  1.5389 -1.4279
   76bbb     C3 2182   7.531   8.074   7.640  0.0429 -0.0147  0.1194
   76bbb     H5 2183   7.493   8.043   7.738  0.9227  1.0068  0.8100
   76bbb     H6 2184   7.449   8.133   7.597  1.7101  0.0288 -3.3587
   76bbb     C4 2185   7.649   8.174   7.664 -0.2001 -0.0060  0.5435
   76bbb     H7 2186   7.683   8.210   7.566 -0.6975 -1.5815 -0.2293
   76bbb     H8 2187   7.741   8.134   7.709 -0.8256 -1.8190  0.2742
   76bbb     C5 2188   7.441   8.079   7.352 -0.3526 -0.6328  0.2760
   76bbb     H9 2189   7.437   8.182   7.389 -1.0522 -0.2653 -0.7781
   76bbb    H10 2190   7.348   8.036   7.392 -0.3941 -0.5035  0.3188
   76bbb     C6 2191   7.626   7.782   7.716 -0.1168 -0.1715 -0.0606
   76bbb    H11 2192   7.527   7.738   7.703 -1.1256  1.5501  1.3667
   76bbb    H12 2193   7.616   7.850   7.801 -1.7020  2.1062 -1.9426
   76bbb     C7 2194   7.614   8.292   7.753  0.1770 -0.3119  0.8248
   76bbb    H13 2195   7.706   8.345   7.780 -1.0245  1.4999  1.5639
   76bbb    H14 2196   7.564   8.253   7.842  0.6378  2.7264  2.5824
   76bbb     C8 2197   7.717   7.662   7.756 -0.1375  0.0620  0.2989
   76bbb    H15 2198   7.815   7.701   7.784 -0.7841  0.5097  2.1354
   76bbb    H16 2199   7.716   7.582   7.681 -0.9433 -0.9795  1.3778
   76bbb     C9 2200   7.445   8.071   7.205  0.2965 -0.4843 -0.0671
   76bbb    H17 2201   7.435   7.967   7.171  2.4167 -0.4944 -0.7933
   76bbb    H18 2202   7.544   8.095   7.165  0.9201 -4.2391 -1.2077
   76bbb     O1 2203   7.529   8.377   7.677 -0.2471 -0.8651 -0.7478
   77bbb     N1 2204   5.856  10.168   7.724 -0.1102 -0.6122  0.6812
   77bbb     C1 2205   5.820  10.067   7.623 -0.9008 -0.2940  0.2486
   77bbb     H1 2206   5.902   9.995   7.615 -1.1701 -0.7366  1.3761
   77bbb     H2 2207   5.793  10.123   7.532 -3.8336 -2.8625 -0.6620
   77bbb     C2 2208   5.745  10.272   7.736 -0.2164  0.4061 -0.2201
   77bbb     H3 2209   5.655  10.216   7.763 -1.3558  1.7726 -1.0633
   77bbb     H4 2210   5.721  10.310   7.636 -0.2698 -0.5908 -0.5976
   77bbb     C3 2211   5.990  10.220   7.703  0.1606 -0.1102  0.7496
   77bbb     H5 2212   6.064  10.139   7.695  0.1324 -0.1638  1.0074
   77bbb     H6 2213   6.028  10.281   7.785  1.2281 -1.7901  1.5713
   77bbb     C4 2214   5.999  10.312   7.577 -0.2563  0.7000  0.3655
   77bbb     H7 2215   6.026  10.414   7.608  3.9500  0.6531 -2.3289
   77bbb     H8 2216   5.908  10.322   7.516 -0.6946  1.3562  1.1102
   77bbb     C5 2217   5.695   9.980   7.656 -0.0056 -0.3598 -0.5785
   77bbb     H9 2218   5.680   9.900   7.583 -2.1844 -0.2299 -0.3365
   77bbb    H10 2219   5.597  10.031   7.650  0.3244  0.2315 -1.0636
   77bbb     C6 2220   5.765  10.393   7.828 -0.2029  0.4325  0.0734
   77bbb    H11 2221   5.835  10.463   7.779 -0.0005  2.2970  2.8587
   77bbb    H12 2222   5.817  10.355   7.916  2.4421  1.7790 -0.7892
   77bbb     C7 2223   6.127  10.283   7.487 -0.0824 -0.8791 -0.3660
   77bbb    H13 2224   6.220  10.313   7.537 -0.8152 -1.0535  1.1396
   77bbb    H14 2225   6.116  10.341   7.394  2.8196 -0.1345 -0.3329
   77bbb     C8 2226   5.635  10.465   7.856 -0.1413  0.2464 -0.4075
   77bbb    H15 2227   5.563  10.462   7.773 -2.0977 -0.6835  1.2442
   77bbb    H16 2228   5.652  10.569   7.887 -1.8577  0.4383 -0.0340
   77bbb     C9 2229   5.702   9.918   7.797 -0.1161 -0.0228  0.5000
   77bbb    H17 2230   5.686   9.994   7.874  1.5726  2.0949 -1.1157
   77bbb    H18 2231   5.797   9.863   7.805  0.2642  0.0723 -2.1906
   77bbb     O1 2232   6.135  10.138   7.461 -0.5467 -0.1568  0.4313
   78bbb     N1 2233   6.024   9.317   8.218 -0.5924  0.5548 -0.1596
   78bbb     C1 2234   5.890   9.256   8.192  0.3889  0.5438 -0.5288
   78bbb     H1 2235   5.863   9.183   8.270  0.4206 -0.1213 -1.1298
   78bbb     H2 2236   5.884   9.189   8.105  2.3978 -2.4753  1.4717
   78bbb     C2 2237   6.114   9.231   8.299 -0.9142  0.4009  0.1863
   78bbb     H3 2238   6.185   9.297   8.350  1.0885  0.5270 -2.5367
   78bbb     H4 2239   6.190   9.175   8.242 -0.5172 -1.0975  2.0720
   78bbb     C3 2240   6.081   9.383   8.097  0.6658  0.1604 -0.0636
   78bbb     H5 2241   6.006   9.460   8.074 -0.2163 -0.2024  1.4140
   78bbb     H6 2242   6.103   9.321   8.010 -0.0572  1.3786 -1.1569
   78bbb     C4 2243   6.209   9.458   8.126  0.0877  0.1630  0.0929
   78bbb     H7 2244   6.286   9.387   8.156  0.5463  0.7022  0.2138
   78bbb     H8 2245   6.189   9.529   8.208  0.2146  0.4548 -0.1271
   78bbb     C5 2246   5.776   9.367   8.190 -0.0757 -0.1240  0.6186
   78bbb     H9 2247   5.794   9.430   8.102  0.2862 -0.9988  0.0524
   78bbb    H10 2248   5.790   9.426   8.282  2.2844  2.1355 -1.0287
   78bbb     C6 2249   6.066   9.138   8.413 -0.1154 -0.1374  0.5463
   78bbb    H11 2250   6.004   9.056   8.375 -0.4241 -0.4833  1.7439
   78bbb    H12 2251   5.996   9.196   8.474  0.1921  0.6751  0.1305
   78bbb     C7 2252   6.261   9.544   8.007 -0.2329 -0.2133 -0.5505
   78bbb    H13 2253   6.300   9.483   7.926  0.4659  0.6929 -0.9080
   78bbb    H14 2254   6.345   9.610   8.034  0.5595 -0.2884 -2.6729
   78bbb     C8 2255   6.182   9.086   8.509  0.2826 -0.0629  0.0812
   78bbb    H15 2256   6.154   8.996   8.565  1.2807 -1.0099 -0.8905
   78bbb    H16 2257   6.198   9.162   8.586  1.7583  0.3300 -0.5597
   78bbb     C9 2258   5.634   9.309   8.188  0.1998 -0.1436 -0.4830
   78bbb    H17 2259   5.558   9.374   8.232 -0.3551 -0.5424 -0.8493
   78bbb    H18 2260   5.634   9.221   8.254 -1.5943 -0.8992 -1.4380
   78bbb     O1 2261   6.161   9.632   7.950  0.3399  0.0765 -0.1480
   79bbb     N1 2262   6.790   6.358   5.488  0.7644  0.2843 -0.0867
   79bbb     C1 2263   6.642   6.382   5.514  0.8014  0.1598 -0.2971
   79bbb     H1 2264   6.613   6.467   5.450 -0.2906 -1.6058 -2.2722
   79bbb     H2 2265   6.624   6.418   5.616 -1.3017  1.5254 -1.0856
   79bbb     C2 2266   6.869   6.490   5.503 -0.2400 -0.4456  0.1447
   79bbb     H3 2267   6.866   6.523   5.608 -0.1581  0.9798 -0.2809
   79bbb     H4 2268   6.819   6.564   5.439 -1.7364 -1.2263  0.3507
   79bbb     C3 2269   6.847   6.239   5.563  1.3487  1.2268 -0.0829
   79bbb     H5 2270   6.948   6.222   5.521  1.2142 -1.7253  0.5869
   79bbb     H6 2271   6.788   6.150   5.541  0.4526  1.4479  1.3447
   79bbb     C4 2272   6.841   6.245   5.717  0.0616  0.5684 -0.1941
   79bbb     H7 2273   6.738   6.262   5.750  0.7730  0.6696  2.2214
   79bbb     H8 2274   6.901   6.333   5.742  1.0029 -0.1368  0.0898
   79bbb     C5 2275   6.548   6.257   5.480 -0.2608  0.5223 -0.1502
   79bbb     H9 2276   6.572   6.176   5.550 -2.3025  0.1653  0.1802
   79bbb    H10 2277   6.560   6.208   5.382  1.5517  2.0485 -0.7492
   79bbb     C6 2278   7.014   6.480   5.449  0.2500 -0.0727 -0.0182
   79bbb    H11 2279   6.988   6.438   5.351  0.0043 -1.5246  0.6286
   79bbb    H12 2280   7.075   6.411   5.509  2.2908  2.1592  0.6337
   79bbb     C7 2281   6.882   6.116   5.781 -0.5965  0.8126 -0.5450
   79bbb    H13 2282   6.899   6.141   5.886 -0.9080  1.4494 -0.6356
   79bbb    H14 2283   6.984   6.092   5.747 -1.4572 -0.8530 -2.1473
   79bbb     C8 2284   7.079   6.617   5.417  0.1645 -0.8455  0.3644
   79bbb    H15 2285   7.042   6.661   5.323  2.4419  1.3035  0.3385
   79bbb    H16 2286   7.184   6.591   5.399  0.2037 -0.2183 -0.3764
   79bbb     C9 2287   6.397   6.267   5.504  0.6715 -0.9685  0.7946
   79bbb    H17 2288   6.353   6.174   5.467  0.2704  0.0198 -1.3787
   79bbb    H18 2289   6.359   6.348   5.440 -0.5226 -1.1270  1.2962
   79bbb     O1 2290   6.791   6.003   5.752 -0.1271 -0.4919  0.4599
   80bbb     N1 2291   7.229   6.359   5.954 -0.0871  0.8929 -0.0621
   80bbb     C1 2292   7.346   6.298   6.024 -0.0427 -0.1926 -0.6307
   80bbb     H1 2293   7.425   6.293   5.948 -0.6322 -0.5719 -1.2303
   80bbb     H2 2294   7.316   6.194   6.040 -0.3084 -0.3752 -2.1876
   80bbb     C2 2295   7.193   6.288   5.830  0.1540  0.0287 -0.3806
   80bbb     H3 2296   7.102   6.340   5.798 -1.1360 -0.9834  1.4881
   80bbb     H4 2297   7.165   6.183   5.849  1.2554 -0.0087  1.1814
   80bbb     C3 2298   7.110   6.371   6.043 -0.5702 -0.6058 -0.2040
   80bbb     H5 2299   7.023   6.418   5.995 -1.9225 -2.1256  0.6620
   80bbb     H6 2300   7.138   6.444   6.120 -0.4452 -1.4590  0.5731
   80bbb     C4 2301   7.060   6.244   6.111  0.9957 -0.0340  0.4205
   80bbb     H7 2302   7.141   6.195   6.167 -0.0947 -2.8101 -0.2244
   80bbb     H8 2303   7.034   6.162   6.042 -0.8331  0.3757  0.5591
   80bbb     C5 2304   7.402   6.377   6.146  0.0529 -0.4665 -0.2721
   80bbb     H9 2305   7.317   6.412   6.206 -0.0271 -0.5432 -0.3419
   80bbb    H10 2306   7.448   6.472   6.115 -0.2047 -1.0085 -2.4694
   80bbb     C6 2307   7.298   6.290   5.718  0.2117 -1.3695  0.0639
   80bbb    H11 2308   7.392   6.236   5.733  0.8735 -0.1574  0.4322
   80bbb    H12 2309   7.317   6.395   5.695 -1.2642 -0.6347  1.9413
   80bbb     C7 2310   6.940   6.278   6.210 -0.0717  0.4670  0.1136
   80bbb    H13 2311   6.961   6.373   6.262  0.4710  0.2769  0.2448
   80bbb    H14 2312   6.942   6.196   6.282  0.8836  2.2508  2.2504
   80bbb     C8 2313   7.259   6.208   5.594 -0.2365  0.7040 -0.7374
   80bbb    H15 2314   7.350   6.196   5.534  2.0967  1.0983  2.4562
   80bbb    H16 2315   7.174   6.243   5.535 -1.9954 -0.7987  0.7691
   80bbb     C9 2316   7.495   6.290   6.236  0.4998 -0.0585  0.3635
   80bbb    H17 2317   7.589   6.257   6.188  0.1778 -0.1657 -0.2056
   80bbb    H18 2318   7.437   6.198   6.244  0.2951  0.1930  2.2508
   80bbb     O1 2319   6.814   6.266   6.140  0.2281  0.0452 -0.0749
   81bbb     N1 2320   5.989   6.465   7.305  0.2050  0.2217  1.1244
   81bbb     C1 2321   5.961   6.526   7.169 -0.3037 -0.2494 -0.0219
   81bbb     H1 2322   5.878   6.596   7.184 -0.4986 -0.3333 -0.6525
   81bbb     H2 2323   5.931   6.453   7.092  0.1523 -1.4353  0.9091
   81bbb     C2 2324   6.078   6.538   7.396  0.6204  0.0031 -1.1024
   81bbb     H3 2325   6.178   6.552   7.352  1.9615 -2.0641  1.0591
   81bbb     H4 2326   6.088   6.475   7.485  0.7368 -0.2028 -1.2603
   81bbb     C3 2327   5.871   6.404   7.374 -0.9099 -0.1086 -0.2755
   81bbb     H5 2328   5.805   6.489   7.393 -0.4181  0.1131  0.4633
   81bbb     H6 2329   5.908   6.368   7.471 -1.3561 -1.0349 -0.4381
   81bbb     C4 2330   5.791   6.287   7.311 -0.0628 -0.4231  0.7329
   81bbb     H7 2331   5.758   6.319   7.212 -0.1488  1.4351  1.3156
   81bbb     H8 2332   5.702   6.257   7.367 -0.1862 -0.8352  0.3220
   81bbb     C5 2333   6.079   6.592   7.099  0.0659 -0.4804 -0.0037
   81bbb     H9 2334   6.153   6.517   7.070  0.9406  0.4022 -0.1163
   81bbb    H10 2335   6.132   6.667   7.161 -2.0128  1.9721 -0.9973
   81bbb     C6 2336   6.031   6.685   7.437 -1.0764  0.6757 -0.2565
   81bbb    H11 2337   5.946   6.667   7.504 -1.1590 -0.3245 -0.6142
   81bbb    H12 2338   6.004   6.745   7.350  1.1125  1.5249 -0.4081
   81bbb     C7 2339   5.878   6.161   7.311 -0.4691  0.1928 -0.8885
   81bbb    H13 2340   5.887   6.128   7.415  0.2743 -0.7291 -1.2221
   81bbb    H14 2341   5.977   6.174   7.265  0.6546  1.6194  1.7727
   81bbb     C8 2342   6.130   6.764   7.524 -0.0727 -0.2455 -0.5465
   81bbb    H15 2343   6.114   6.872   7.538 -0.5828 -0.4934  1.0501
   81bbb    H16 2344   6.234   6.752   7.489 -0.3438  0.8580 -1.7961
   81bbb     C9 2345   6.035   6.678   6.976 -0.4401  1.0224 -0.0872
   81bbb    H17 2346   6.124   6.718   6.927 -0.4255  4.3230  2.3559
   81bbb    H18 2347   5.972   6.762   7.006 -0.7667  1.2893 -1.4190
   81bbb     O1 2348   5.809   6.064   7.241 -0.1200  0.4408  0.0107
   82bbb     N1 2349   5.568   5.527   7.926 -0.1933 -0.1020 -0.2138
   82bbb     C1 2350   5.664   5.633   7.981  0.5366  0.8732  0.3284
   82bbb     H1 2351   5.749   5.644   7.913  1.9212 -1.8023  1.4584
   82bbb     H2 2352   5.697   5.600   8.081 -0.3569  0.7990  0.6131
   82bbb     C2 2353   5.439   5.522   7.999  0.3717 -0.5509 -0.3633
   82bbb     H3 2354   5.374   5.460   7.936  0.2836 -0.3079 -0.5132
   82bbb     H4 2355   5.384   5.615   8.017  1.0570 -0.5320  1.9777
   82bbb     C3 2356   5.556   5.527   7.775 -0.1086 -0.3172  0.0199
   82bbb     H5 2357   5.651   5.499   7.730 -1.3345  0.2388 -3.1377
   82bbb     H6 2358   5.534   5.631   7.747  0.1125  0.2089  1.6956
   82bbb     C4 2359   5.445   5.427   7.712 -0.6696  0.3147 -0.0916
   82bbb     H7 2360   5.345   5.472   7.717 -0.7264  0.1350  0.5929
   82bbb     H8 2361   5.438   5.336   7.773 -0.7814  1.5225  1.7783
   82bbb     C5 2362   5.595   5.770   7.998 -0.1490 -0.3681 -1.0957
   82bbb     H9 2363   5.521   5.772   8.079  1.3100  2.4270  0.2714
   82bbb    H10 2364   5.536   5.797   7.909 -1.2581 -2.2024 -0.9932
   82bbb     C6 2365   5.462   5.462   8.139 -0.4106  0.3936 -0.5624
   82bbb    H11 2366   5.517   5.531   8.204  0.4991 -1.1145  0.3251
   82bbb    H12 2367   5.522   5.374   8.115 -1.6165 -0.1630 -1.6409
   82bbb     C7 2368   5.478   5.387   7.571 -0.5613 -0.5867  0.5200
   82bbb    H13 2369   5.403   5.314   7.538 -0.0099 -1.3309  0.8755
   82bbb    H14 2370   5.581   5.352   7.563  0.2230  1.7658 -0.4150
   82bbb     C8 2371   5.331   5.418   8.208  0.4712  0.8954 -0.2654
   82bbb    H15 2372   5.278   5.512   8.229  0.5505  0.9098 -0.1337
   82bbb    H16 2373   5.353   5.374   8.305  0.9731  1.2516 -0.2138
   82bbb     C9 2374   5.684   5.883   8.048 -0.4072  0.0494 -0.6842
   82bbb    H17 2375   5.763   5.900   7.974 -0.4883  0.9609 -0.5740
   82bbb    H18 2376   5.731   5.862   8.145  0.6773  0.9328 -1.0000
   82bbb     O1 2377   5.483   5.503   7.492 -0.0566  0.3743  0.2394
   83bbb     N1 2378   7.456   5.381   5.517  0.0422  0.1212  0.2159
   83bbb     C1 2379   7.464   5.231   5.534  0.3283 -0.2797  0.0068
   83bbb     H1 2380   7.554   5.214   5.594 -0.1006  0.4187  0.8587
   83bbb     H2 2381   7.475   5.182   5.436  0.9210 -2.4515  1.1016
   83bbb     C2 2382   7.575   5.440   5.446 -0.6229 -0.2671  0.1892
   83bbb     H3 2383   7.614   5.374   5.367 -2.0733 -2.1975  0.9976
   83bbb     H4 2384   7.649   5.466   5.522 -0.4894  0.0220 -0.0405
   83bbb     C3 2385   7.419   5.461   5.639 -0.9141 -0.2225  0.9598
   83bbb     H5 2386   7.319   5.425   5.665 -1.7923  0.7707 -0.8552
   83bbb     H6 2387   7.397   5.564   5.611 -1.4404 -0.2295  1.3431
   83bbb     C4 2388   7.514   5.454   5.756 -0.5220  0.4646 -0.0173
   83bbb     H7 2389   7.610   5.506   5.757 -0.1866  0.1060  4.0495
   83bbb     H8 2390   7.533   5.347   5.763 -0.9699  0.1889 -2.3759
   83bbb     C5 2391   7.351   5.161   5.611 -1.1122  0.5607  0.7067
   83bbb     H9 2392   7.256   5.205   5.576 -0.0575  1.2485 -1.4156
   83bbb    H10 2393   7.356   5.184   5.718 -0.9216  0.0944  0.7949
   83bbb     C6 2394   7.561   5.571   5.377  0.5591  0.6337 -0.2294
   83bbb    H11 2395   7.468   5.624   5.400  0.0816  0.9304 -2.5211
   83bbb    H12 2396   7.567   5.551   5.269 -0.7985  3.2185 -0.8707
   83bbb     C7 2397   7.433   5.475   5.892  0.5385 -0.1336  0.0572
   83bbb    H13 2398   7.500   5.443   5.972  0.5384 -0.8286 -0.2136
   83bbb    H14 2399   7.343   5.412   5.897  2.0003 -2.2566  0.5510
   83bbb     C8 2400   7.683   5.668   5.397 -0.3637 -0.8211  0.2397
   83bbb    H15 2401   7.673   5.749   5.324  0.4969 -1.6204 -0.7848
   83bbb    H16 2402   7.781   5.620   5.389  1.1859  1.9065  1.3457
   83bbb     C9 2403   7.372   5.008   5.597  0.0906 -0.2109  0.3873
   83bbb    H17 2404   7.474   4.987   5.632  0.2738 -0.0261 -0.0250
   83bbb    H18 2405   7.373   4.985   5.490 -2.1653  0.0270  0.2778
   83bbb     O1 2406   7.392   5.618   5.895  0.1590  0.1633 -0.2327
   84bbb     N1 2407   6.883   5.201   5.894 -0.1113 -0.2458  0.6128
   84bbb     C1 2408   6.973   5.090   5.919 -0.2578  0.9021  0.2877
   84bbb     H1 2409   7.026   5.070   5.825  1.5206 -1.9107  1.7295
   84bbb     H2 2410   6.922   4.998   5.949 -0.6631  1.1066  0.2208
   84bbb     C2 2411   6.762   5.164   5.819 -0.2025 -0.1138 -0.6474
   84bbb     H3 2412   6.784   5.130   5.717  0.0060 -0.4033 -0.5057
   84bbb     H4 2413   6.694   5.250   5.807  0.2937  0.3006 -0.5509
   84bbb     C3 2414   6.938   5.331   5.851 -0.8345  0.5998 -0.5048
   84bbb     H5 2415   6.931   5.330   5.741  0.5204 -0.2876 -0.6029
   84bbb     H6 2416   7.045   5.338   5.876 -1.1571  1.2640  0.8154
   84bbb     C4 2417   6.874   5.449   5.914 -0.1504 -0.6384 -0.0414
   84bbb     H7 2418   6.776   5.457   5.865  0.9158  1.2098 -2.0707
   84bbb     H8 2419   6.919   5.542   5.876 -0.0607 -0.3864  0.6618
   84bbb     C5 2420   7.085   5.121   6.028  0.8547 -0.0426 -0.4942
   84bbb     H9 2421   7.032   5.172   6.109 -1.7650  1.3457 -2.8806
   84bbb    H10 2422   7.158   5.195   5.992 -0.4739  2.7040  2.0027
   84bbb     C6 2423   6.674   5.052   5.894 -0.6552 -0.5790 -0.3766
   84bbb    H11 2424   6.664   5.085   5.998 -0.9562  0.6247 -0.7687
   84bbb    H12 2425   6.727   4.956   5.892  2.3169  0.9589 -0.9289
   84bbb     C7 2426   6.891   5.449   6.065 -0.4633  0.5901 -0.0702
   84bbb    H13 2427   6.997   5.448   6.094 -0.6126 -0.1835  0.5057
   84bbb    H14 2428   6.843   5.360   6.108  1.2272  0.0754  0.8931
   84bbb     C8 2429   6.528   5.048   5.842  0.6698 -0.3854  0.5495
   84bbb    H15 2430   6.477   5.137   5.880  0.1254 -1.2724  1.9835
   84bbb    H16 2431   6.471   4.957   5.864  1.5493 -1.4163 -1.2199
   84bbb     C9 2432   7.169   4.990   6.053 -0.2275 -0.3079  0.4952
   84bbb    H17 2433   7.191   4.940   5.958  0.1903  1.2479 -0.2631
   84bbb    H18 2434   7.111   4.922   6.115 -1.5297  0.9935  0.7438
   84bbb     O1 2435   6.831   5.572   6.109  0.4203 -0.0276 -0.8409
   85bbb     N1 2436   6.047   5.496   7.539 -0.1633  0.2936  0.2867
   85bbb     C1 2437   6.028   5.500   7.390  0.6243  0.0562 -0.3213
   85bbb     H1 2438   6.123   5.468   7.345 -0.0558 -1.8167 -0.5224
   85bbb     H2 2439   6.008   5.602   7.358  1.1817  1.4111  3.2030
   85bbb     C2 2440   5.934   5.565   7.609 -0.2015 -0.0706 -0.0042
   85bbb     H3 2441   5.969   5.580   7.712  1.3791  0.0832 -0.5356
   85bbb     H4 2442   5.842   5.506   7.615 -0.4850  0.1084 -1.9603
   85bbb     C3 2443   6.082   5.361   7.588 -0.1067  0.2026 -0.9083
   85bbb     H5 2444   6.003   5.286   7.578  1.6093 -1.8926  0.3277
   85bbb     H6 2445   6.106   5.381   7.694 -0.1588 -0.6137 -0.7380
   85bbb     C4 2446   6.210   5.298   7.528  0.1106 -0.3630  0.1469
   85bbb     H7 2447   6.296   5.366   7.537 -0.6887  0.8266 -0.8475
   85bbb     H8 2448   6.194   5.280   7.421 -1.5023  1.9136 -0.0838
   85bbb     C5 2449   5.913   5.419   7.339 -0.2899  0.1304 -0.3245
   85bbb     H9 2450   5.813   5.454   7.368 -0.5900 -1.8747  1.2693
   85bbb    H10 2451   5.916   5.319   7.383 -0.2137  0.6404  0.8625
   85bbb     C6 2452   5.902   5.706   7.551  0.0747  0.1905 -0.4965
   85bbb    H11 2453   5.842   5.694   7.460 -1.4353 -0.8027  0.5630
   85bbb    H12 2454   5.994   5.762   7.534  0.2416 -0.2114 -0.9302
   85bbb     C7 2455   6.244   5.172   7.600 -0.2122 -0.5031 -0.6292
   85bbb    H13 2456   6.165   5.098   7.580 -2.4081  1.1940  1.1726
   85bbb    H14 2457   6.243   5.180   7.709  1.6869  0.5928 -0.6559
   85bbb     C8 2458   5.816   5.788   7.648 -0.1254  0.7421 -0.2277
   85bbb    H15 2459   5.848   5.778   7.753 -1.2053 -0.1538  0.0369
   85bbb    H16 2460   5.711   5.757   7.645 -0.1729  1.0103 -2.0762
   85bbb     C9 2461   5.920   5.428   7.187  0.5675  0.7011 -0.1052
   85bbb    H17 2462   6.022   5.407   7.150 -0.0643 -1.6665 -0.6761
   85bbb    H18 2463   5.896   5.527   7.147  3.1575  1.4435 -0.0531
   85bbb     O1 2464   6.376   5.130   7.562  0.5893  0.2685  0.4586
   86bbb     N1 2465   6.544   4.398   6.562 -0.7259 -0.4467 -0.4580
   86bbb     C1 2466   6.600   4.259   6.574  0.6770  0.6727  0.1842
   86bbb     H1 2467   6.520   4.185   6.580  1.1728  0.2537  1.9592
   86bbb     H2 2468   6.651   4.251   6.670 -2.4790 -0.3502  1.9110
   86bbb     C2 2469   6.477   4.434   6.439 -0.2279  0.3614  0.0022
   86bbb     H3 2470   6.546   4.448   6.355 -0.4735  1.0551 -0.0988
   86bbb     H4 2471   6.425   4.530   6.454 -2.7848 -0.7617 -0.9509
   86bbb     C3 2472   6.621   4.505   6.620 -0.2779  0.1131 -0.3088
   86bbb     H5 2473   6.565   4.599   6.608 -1.8456 -0.8593 -0.9702
   86bbb     H6 2474   6.712   4.520   6.560  0.8532  1.0648  1.5649
   86bbb     C4 2475   6.669   4.479   6.767 -0.6770  0.0143 -0.3620
   86bbb     H7 2476   6.747   4.401   6.766 -0.9994 -0.3235  0.3147
   86bbb     H8 2477   6.583   4.444   6.825 -1.0407 -1.1417 -1.5438
   86bbb     C5 2478   6.698   4.222   6.451  0.2320  0.0524 -0.4346
   86bbb     H9 2479   6.647   4.244   6.356  0.6014  0.5108 -0.5268
   86bbb    H10 2480   6.717   4.114   6.455  0.5832 -0.0080 -2.5898
   86bbb     C6 2481   6.370   4.327   6.406  0.3656  0.3091  0.3343
   86bbb    H11 2482   6.327   4.297   6.503  0.2103  1.5881  0.6691
   86bbb    H12 2483   6.423   4.242   6.362  1.1296  0.4222  1.0226
   86bbb     C7 2484   6.729   4.611   6.837 -0.2756  0.2169 -0.4832
   86bbb    H13 2485   6.828   4.631   6.796 -0.0661 -0.3076 -0.2467
   86bbb    H14 2486   6.751   4.597   6.944 -0.9401  3.9975  0.2862
   86bbb     C8 2487   6.257   4.376   6.304 -0.1702 -0.3092 -0.4129
   86bbb    H15 2488   6.298   4.389   6.203  1.5918  1.5767  0.4710
   86bbb    H16 2489   6.216   4.472   6.335  1.1527  0.6748 -1.5777
   86bbb     C9 2490   6.840   4.290   6.456 -0.6788 -0.5944 -0.0497
   86bbb    H17 2491   6.843   4.399   6.443 -0.2078 -0.6127 -0.1099
   86bbb    H18 2492   6.903   4.241   6.380 -1.3596 -2.1906  0.3799
   86bbb     O1 2493   6.639   4.722   6.821  0.2278  0.0618  0.0891
   87bbb     N1 2494   7.802   8.526   6.193 -0.1857  0.7711  0.1632
   87bbb     C1 2495   7.702   8.494   6.293  0.6331  0.1851 -0.2815
   87bbb     H1 2496   7.678   8.589   6.344  0.4029  0.4421 -0.8604
   87bbb     H2 2497   7.741   8.418   6.362  1.6943  0.7328 -0.2450
   87bbb     C2 2498   7.762   8.622   6.086 -0.1252  0.0347 -0.1586
   87bbb     H3 2499   7.692   8.573   6.017 -0.6272 -0.4807  0.7114
   87bbb     H4 2500   7.851   8.646   6.026  0.3457 -1.3287 -0.0463
   87bbb     C3 2501   7.862   8.397   6.140  0.2015  0.0445  0.3840
   87bbb     H5 2502   7.785   8.359   6.072 -2.6508  2.1516  2.1948
   87bbb     H6 2503   7.861   8.333   6.229 -1.2789 -0.5238 -0.0096
   87bbb     C4 2504   7.998   8.410   6.079  0.3896 -0.3029  0.1906
   87bbb     H7 2505   8.076   8.438   6.150 -0.2197  1.8701  0.0739
   87bbb     H8 2506   7.986   8.484   6.000 -0.8421  0.3371  0.9414
   87bbb     C5 2507   7.564   8.444   6.231  0.9558  0.6629 -0.3829
   87bbb     H9 2508   7.571   8.349   6.177 -0.4968  0.8333 -0.9000
   87bbb    H10 2509   7.533   8.523   6.163 -1.5780  0.7594  0.7840
   87bbb     C6 2510   7.711   8.757   6.134  0.8270 -0.6772 -0.4054
   87bbb    H11 2511   7.759   8.792   6.227 -0.4520 -0.5759  0.2579
   87bbb    H12 2512   7.609   8.738   6.171  0.7736 -1.5293 -0.9746
   87bbb     C7 2513   8.047   8.279   6.017 -0.1003 -0.0766  0.1975
   87bbb    H13 2514   8.050   8.203   6.097 -0.0097  0.0846  0.3477
   87bbb    H14 2515   8.153   8.289   5.989  0.2608 -1.5987  0.9112
   87bbb     C8 2516   7.716   8.873   6.027 -0.7099  1.0136  0.2582
   87bbb    H15 2517   7.641   8.853   5.950 -0.5948  1.2527  0.0830
   87bbb    H16 2518   7.815   8.873   5.979  0.4830 -2.1474  2.3675
   87bbb     C9 2519   7.465   8.420   6.350  0.5225  0.0820  0.4852
   87bbb    H17 2520   7.517   8.350   6.415 -0.4478 -0.7735  0.3770
   87bbb    H18 2521   7.376   8.371   6.308  0.8403  0.5270 -0.7703
   87bbb     O1 2522   7.954   8.233   5.918 -0.1368  0.2530 -0.6817
   88bbb     N1 2523   7.045   8.692   5.491  0.1461 -0.1595 -0.1673
   88bbb     C1 2524   6.970   8.564   5.512  0.2918  0.1831  0.3803
   88bbb     H1 2525   7.037   8.481   5.489 -0.1707 -0.8119  2.4115
   88bbb     H2 2526   6.890   8.564   5.437  0.0034 -0.5863  0.6812
   88bbb     C2 2527   7.063   8.727   5.346  0.6317 -0.3368  0.1021
   88bbb     H3 2528   7.084   8.636   5.288  0.7941  0.2577 -0.7762
   88bbb     H4 2529   7.152   8.789   5.332  0.2612  0.0371 -0.6096
   88bbb     C3 2530   7.171   8.694   5.575  0.4714 -0.7007  0.4328
   88bbb     H5 2531   7.142   8.685   5.680 -0.6560  1.4050  0.3473
   88bbb     H6 2532   7.214   8.795   5.572 -2.5547  0.6783 -1.0724
   88bbb     C4 2533   7.286   8.592   5.554  0.1514 -0.0674 -0.1613
   88bbb     H7 2534   7.328   8.604   5.453  1.8396  1.5948  0.6747
   88bbb     H8 2535   7.233   8.496   5.559  0.2685 -0.2229 -1.4596
   88bbb     C5 2536   6.911   8.541   5.654 -0.9027  0.1360  0.2651
   88bbb     H9 2537   6.996   8.512   5.717  0.4508  0.4104 -1.3952
   88bbb    H10 2538   6.845   8.453   5.652  0.7767 -1.2098 -2.4541
   88bbb     C6 2539   6.941   8.792   5.275  0.0248 -0.5645 -0.4687
   88bbb    H11 2540   6.860   8.719   5.276 -0.3279 -0.1838  0.9224
   88bbb    H12 2541   6.975   8.822   5.174 -0.4064  0.1717 -0.4011
   88bbb     C7 2542   7.399   8.615   5.653 -0.3311  0.1741  0.6175
   88bbb    H13 2543   7.371   8.585   5.755  1.7400  0.6274  1.3612
   88bbb    H14 2544   7.420   8.722   5.663  1.6066 -0.1574  0.4235
   88bbb     C8 2545   6.882   8.906   5.359  0.2952  0.0307 -0.6017
   88bbb    H15 2546   6.963   8.976   5.384 -0.6132  0.2357  1.9944
   88bbb    H16 2547   6.854   8.867   5.457  1.4997  0.2451 -0.1499
   88bbb     C9 2548   6.845   8.662   5.720  0.4474  0.5401  0.0345
   88bbb    H17 2549   6.755   8.680   5.660  0.0627  2.3795  1.0747
   88bbb    H18 2550   6.897   8.759   5.708  1.4852 -0.1033 -0.8677
   88bbb     O1 2551   7.513   8.544   5.597 -0.0894 -0.4027 -0.0294
   89bbb     N1 2552   8.229   8.566   5.679 -0.2924 -0.0398 -0.0127
   89bbb     C1 2553   8.186   8.454   5.592 -0.0484  0.2462  0.5627
   89bbb     H1 2554   8.195   8.478   5.486 -0.6835 -1.4387  0.0970
   89bbb     H2 2555   8.076   8.449   5.591 -0.1233  1.7318 -0.1921
   89bbb     C2 2556   8.184   8.704   5.632  0.0477  0.5976 -0.1543
   89bbb     H3 2557   8.230   8.776   5.701 -2.2046  0.3281  1.7472
   89bbb     H4 2558   8.075   8.705   5.640 -0.3216 -2.3697 -2.9043
   89bbb     C3 2559   8.217   8.554   5.827  0.6825 -0.1342 -0.0540
   89bbb     H5 2560   8.185   8.454   5.861 -0.0623  1.0648  3.1112
   89bbb     H6 2561   8.130   8.613   5.859 -0.4808 -2.2220  0.8960
   89bbb     C4 2562   8.341   8.596   5.901 -0.1135  0.3467 -0.8079
   89bbb     H7 2563   8.313   8.622   6.004  2.0973 -0.3113  0.0209
   89bbb     H8 2564   8.392   8.677   5.847  0.6500  0.0858 -0.4866
   89bbb     C5 2565   8.265   8.319   5.616  0.5809 -0.2129  0.1757
   89bbb     H9 2566   8.216   8.243   5.555  0.0630  0.9536 -0.8864
   89bbb    H10 2567   8.249   8.286   5.720 -1.3573  1.0711  0.3242
   89bbb     C6 2568   8.218   8.740   5.484  0.3984 -0.2357  0.3602
   89bbb    H11 2569   8.287   8.665   5.443 -1.7166 -1.5316 -1.0553
   89bbb    H12 2570   8.263   8.839   5.474 -1.6985  0.5464 -3.0024
   89bbb     C7 2571   8.436   8.479   5.909 -0.1486  0.0505  0.2405
   89bbb    H13 2572   8.531   8.513   5.952 -0.0048  0.5375 -0.4487
   89bbb    H14 2573   8.453   8.442   5.807 -2.1194 -3.0233  0.8773
   89bbb     C8 2574   8.083   8.757   5.402 -0.5319  0.3982 -0.0366
   89bbb    H15 2575   8.049   8.850   5.448 -0.6325  0.2242  0.2392
   89bbb    H16 2576   8.017   8.671   5.414  1.0307 -0.6718  1.2523
   89bbb     C9 2577   8.411   8.333   5.578  0.1342 -0.2814  0.1878
   89bbb    H17 2578   8.453   8.427   5.617  1.2518 -0.6636 -0.0658
   89bbb    H18 2579   8.416   8.329   5.469 -0.3710  0.9648  0.1065
   89bbb     O1 2580   8.396   8.373   5.988 -0.0275  0.1598  0.3187
   90bbb     N1 2581   7.987   8.275   7.196 -0.1255 -0.0875  0.1193
   90bbb     C1 2582   7.863   8.318   7.275 -0.5080  0.8709 -0.2313
   90bbb     H1 2583   7.884   8.406   7.337  0.7119 -0.8921  2.0567
   90bbb     H2 2584   7.839   8.238   7.347 -0.3083 -1.0616 -2.2075
   90bbb     C2 2585   8.110   8.248   7.275 -0.3543  0.2923 -0.8453
   90bbb     H3 2586   8.196   8.272   7.212  0.8488  0.5985  0.8271
   90bbb     H4 2587   8.109   8.139   7.292 -1.1402  0.2363 -1.2061
   90bbb     C3 2588   7.958   8.169   7.096 -0.6400 -0.0340  0.9541
   90bbb     H5 2589   7.871   8.204   7.039 -0.6423  0.5215  1.2869
   90bbb     H6 2590   7.923   8.078   7.147 -0.7146 -0.1313  0.7279
   90bbb     C4 2591   8.052   8.128   6.975  0.8777  0.0403  0.4905
   90bbb     H7 2592   7.992   8.061   6.912 -0.3584 -1.3576  2.9478
   90bbb     H8 2593   8.142   8.081   7.017  1.8203  1.4877  0.1391
   90bbb     C5 2594   7.726   8.347   7.193 -0.7433 -0.5301 -0.6736
   90bbb     H9 2595   7.697   8.261   7.131  1.5925 -2.2682  0.5130
   90bbb    H10 2596   7.755   8.432   7.131 -1.6857  1.0886  1.0143
   90bbb     C6 2597   8.131   8.316   7.414  0.0949  0.1316 -0.3994
   90bbb    H11 2598   8.045   8.301   7.482 -1.9160  1.1642 -2.5822
   90bbb    H12 2599   8.174   8.416   7.398  0.5959 -0.1123 -0.5946
   90bbb     C7 2600   8.092   8.249   6.888 -0.3030  0.0808 -0.0936
   90bbb    H13 2601   8.146   8.323   6.948  1.2723  0.0876 -1.4476
   90bbb    H14 2602   7.999   8.291   6.849 -0.7356 -2.3496 -1.9247
   90bbb     C8 2603   8.247   8.258   7.497 -0.1276  0.2586 -0.4737
   90bbb    H15 2604   8.197   8.179   7.555 -2.4347  2.9347  1.5129
   90bbb    H16 2605   8.287   8.334   7.565  2.3557 -0.9010 -0.5306
   90bbb     C9 2606   7.611   8.385   7.286 -0.3793  0.3284  0.2287
   90bbb    H17 2607   7.599   8.295   7.347 -2.4789  0.0219 -0.5493
   90bbb    H18 2608   7.513   8.400   7.239 -0.0369  1.9624 -0.0450
   90bbb     O1 2609   8.180   8.206   6.785  0.1144  0.6450 -0.6989
   91bbb     N1 2610   6.965   6.311   7.067 -0.4070  0.6092 -0.9823
   91bbb     C1 2611   6.940   6.347   6.928  0.5451  0.3941  0.5272
   91bbb     H1 2612   6.992   6.274   6.864 -0.9898 -0.4623  0.2048
   91bbb     H2 2613   6.975   6.447   6.901  0.6161 -0.0160 -1.0464
   91bbb     C2 2614   6.989   6.169   7.092 -0.4501 -0.6479 -0.6056
   91bbb     H3 2615   6.904   6.107   7.061  1.6204 -1.8492 -4.6530
   91bbb     H4 2616   6.986   6.148   7.199 -0.6525 -1.1503 -0.7083
   91bbb     C3 2617   6.880   6.383   7.165 -0.5255 -0.3432 -0.3144
   91bbb     H5 2618   6.914   6.362   7.267  0.7122  0.0562 -0.6291
   91bbb     H6 2619   6.776   6.348   7.160 -0.6242 -0.0148 -0.6070
   91bbb     C4 2620   6.878   6.535   7.153 -0.2253 -0.0928  0.3671
   91bbb     H7 2621   6.809   6.579   7.226 -0.2120  0.1428  0.2390
   91bbb     H8 2622   6.823   6.563   7.062 -0.0063  2.0286  0.8220
   91bbb     C5 2623   6.790   6.337   6.890  0.2103  0.4615 -0.1775
   91bbb     H9 2624   6.729   6.408   6.948  1.3750 -0.2076  1.9442
   91bbb    H10 2625   6.762   6.235   6.918  3.6810 -0.3917  0.6863
   91bbb     C6 2626   7.116   6.112   7.033  0.2031 -0.6162  0.0046
   91bbb    H11 2627   7.114   6.115   6.924 -1.9245  0.6388  0.0104
   91bbb    H12 2628   7.116   6.006   7.061  0.0011 -0.5654  0.2054
   91bbb     C7 2629   7.018   6.611   7.163  0.1989 -1.1270  0.1064
   91bbb    H13 2630   7.079   6.594   7.074  0.2473  1.1100 -0.3653
   91bbb    H14 2631   7.077   6.568   7.244 -3.1917 -0.1155  3.4082
   91bbb     C8 2632   7.245   6.181   7.094 -0.1070 -0.0237  0.3249
   91bbb    H15 2633   7.263   6.160   7.200  3.2382  2.0182  0.3139
   91bbb    H16 2634   7.223   6.289   7.089  1.9470  0.4051 -0.4777
   91bbb     C9 2635   6.760   6.360   6.739  0.3805  0.2980  0.3885
   91bbb    H17 2636   6.805   6.280   6.680  3.0199  1.8166  0.1973
   91bbb    H18 2637   6.805   6.455   6.709  1.0548 -0.2701 -0.4208
   91bbb     O1 2638   6.996   6.761   7.186 -0.6168 -0.1677  0.4150
   92bbb     N1 2639   7.193   7.095   7.850  0.0944  0.0096  0.5336
   92bbb     C1 2640   7.281   7.002   7.928  0.1565 -0.1489 -0.1358
   92bbb     H1 2641   7.219   6.955   8.005 -0.2325  0.3459 -0.1394
   92bbb     H2 2642   7.362   7.058   7.976  1.6542 -1.0237 -1.5251
   92bbb     C2 2643   7.153   7.213   7.927 -0.2121 -0.2710 -0.5755
   92bbb     H3 2644   7.102   7.180   8.019  0.9130  0.3129  0.2727
   92bbb     H4 2645   7.078   7.268   7.870 -0.1303 -0.8652 -1.2704
   92bbb     C3 2646   7.074   7.030   7.793  0.6923 -0.2027  0.1339
   92bbb     H5 2647   7.001   6.997   7.868  0.6192  0.9364  0.5860
   92bbb     H6 2648   7.096   6.939   7.735 -0.3038 -0.2771 -0.1500
   92bbb     C4 2649   7.001   7.121   7.685  0.0116  0.6620 -0.3365
   92bbb     H7 2650   6.941   7.198   7.736  0.9641  0.5182  1.0414
   92bbb     H8 2651   6.926   7.063   7.629 -0.0319  0.3618  0.0282
   92bbb     C5 2652   7.351   6.890   7.840  0.9334  0.0466 -0.2943
   92bbb     H9 2653   7.399   6.939   7.754  0.7669  2.7951  1.0544
   92bbb    H10 2654   7.267   6.826   7.812  1.8515 -1.3316  0.0481
   92bbb     C6 2655   7.271   7.312   7.941 -0.2653  0.2120 -0.2918
   92bbb    H11 2656   7.303   7.358   7.847 -3.7745  1.7152 -0.8880
   92bbb    H12 2657   7.362   7.259   7.972 -0.2624  0.6830  0.5533
   92bbb     C7 2658   7.100   7.180   7.576 -0.6382 -0.3978 -0.4817
   92bbb    H13 2659   7.180   7.108   7.553 -1.7402 -1.5089 -1.0129
   92bbb    H14 2660   7.149   7.266   7.621  0.7351 -0.9389 -0.9007
   92bbb     C8 2661   7.243   7.435   8.033  0.1724 -0.3840 -0.1720
   92bbb    H15 2662   7.149   7.486   8.010  0.9687  1.8281  1.1772
   92bbb    H16 2663   7.322   7.509   8.015  0.6977 -1.5244 -3.1759
   92bbb     C9 2664   7.462   6.829   7.926  0.4201 -0.2718 -0.3682
   92bbb    H17 2665   7.415   6.781   8.012 -0.4678  0.4315 -0.4495
   92bbb    H18 2666   7.529   6.912   7.952  0.8323 -0.3279 -1.2020
   92bbb     O1 2667   7.025   7.224   7.466 -0.1115 -0.6836  0.2143
   93bbb     N1 2668   8.001   7.681   7.311  0.6089  0.0495  0.9983
   93bbb     C1 2669   7.914   7.567   7.310  0.5154  0.1496  0.1665
   93bbb     H1 2670   7.912   7.522   7.210 -3.9048  0.2428  0.0244
   93bbb     H2 2671   7.811   7.603   7.319  0.9969  2.0138 -1.0764
   93bbb     C2 2672   7.999   7.752   7.437  0.2067 -0.2546 -0.5541
   93bbb     H3 2673   8.022   7.683   7.519 -2.1275 -0.1665  0.2611
   93bbb     H4 2674   7.899   7.791   7.459  0.5130  0.4803 -0.4380
   93bbb     C3 2675   7.987   7.762   7.179  0.1246  0.5501 -0.2900
   93bbb     H5 2676   8.045   7.855   7.174  1.3313 -0.2489 -3.8965
   93bbb     H6 2677   7.884   7.795   7.166  0.4270  1.1457 -1.2385
   93bbb     C4 2678   8.039   7.690   7.056 -0.1791 -0.2784  0.1157
   93bbb     H7 2679   7.968   7.612   7.026 -1.3003  1.2761 -1.4612
   93bbb     H8 2680   8.134   7.642   7.081  1.0057  3.0060  2.7909
   93bbb     C5 2681   7.947   7.458   7.420 -0.1480 -0.3599 -0.1496
   93bbb     H9 2682   7.888   7.475   7.511  0.4240  0.4385  0.0814
   93bbb    H10 2683   8.050   7.468   7.456 -0.1397 -0.3876 -0.1662
   93bbb     C6 2684   8.100   7.877   7.449  0.1277 -0.3223 -0.3931
   93bbb    H11 2685   8.060   7.968   7.403  0.7320  0.0846 -0.1188
   93bbb    H12 2686   8.191   7.844   7.397 -0.3402  1.8577 -2.7993
   93bbb     C7 2687   8.061   7.780   6.938 -0.4871  0.0694 -0.6306
   93bbb    H13 2688   8.156   7.834   6.950 -2.4143  3.4210  0.8773
   93bbb    H14 2689   7.985   7.859   6.940 -0.9561 -0.3862  0.6563
   93bbb     C8 2690   8.141   7.893   7.591 -0.1025 -0.7344 -0.3846
   93bbb    H15 2691   8.211   7.977   7.602 -0.6266 -0.2762 -0.5106
   93bbb    H16 2692   8.201   7.807   7.623 -0.7599 -1.0905 -0.1032
   93bbb     C9 2693   7.936   7.309   7.375  0.5214  0.0780 -0.1447
   93bbb    H17 2694   7.834   7.275   7.398  0.0323  2.4427  1.5993
   93bbb    H18 2695   8.010   7.258   7.438  0.8738  0.2758 -0.3992
   93bbb     O1 2696   8.050   7.699   6.817 -0.0416  0.3591 -0.0543
   94bbb     N1 2697   7.425   6.977   7.123 -0.7257 -0.4182 -0.0822
   94bbb     C1 2698   7.441   6.853   7.039  0.6548  0.4905 -0.1304
   94bbb     H1 2699   7.421   6.754   7.082  0.9018 -2.1596 -5.2372
   94bbb     H2 2700   7.544   6.843   7.003  0.2003 -3.8606 -0.8695
   94bbb     C2 2701   7.498   6.976   7.251 -0.5164 -0.7772 -0.3003
   94bbb     H3 2702   7.488   7.070   7.306  1.6164  0.1429 -1.3676
   94bbb     H4 2703   7.605   6.965   7.233 -0.5600 -3.0423  0.4871
   94bbb     C3 2704   7.431   7.113   7.056  0.3029 -0.4004  0.2118
   94bbb     H5 2705   7.413   7.195   7.126 -2.8471 -1.0102  0.2729
   94bbb     H6 2706   7.345   7.116   6.989  1.6284 -0.6140 -1.5789
   94bbb     C4 2707   7.565   7.140   6.980 -0.7842 -0.3129  0.0052
   94bbb     H7 2708   7.605   7.045   6.942  0.8145  0.9142 -1.5698
   94bbb     H8 2709   7.654   7.159   7.041  0.7822  0.5992 -2.4262
   94bbb     C5 2710   7.343   6.865   6.916 -0.2367  0.4262  0.5942
   94bbb     H9 2711   7.384   6.938   6.846  2.7988 -0.4437  1.3425
   94bbb    H10 2712   7.244   6.900   6.948 -0.7869  2.3258 -2.7285
   94bbb     C6 2713   7.467   6.859   7.341 -0.4708  0.2959  0.2642
   94bbb    H11 2714   7.501   6.765   7.297 -0.8740  0.1746  0.2118
   94bbb    H12 2715   7.358   6.859   7.350 -0.4861  2.4882  0.6175
   94bbb     C7 2716   7.563   7.250   6.875  0.3715 -0.8039  0.4613
   94bbb    H13 2717   7.556   7.348   6.923  0.2434  0.3226 -1.7240
   94bbb    H14 2718   7.484   7.223   6.805  1.2004 -3.3820  0.4166
   94bbb     C8 2719   7.512   6.877   7.494  0.3099  0.0553  0.1694
   94bbb    H15 2720   7.457   6.807   7.558 -0.2108  0.0848 -0.2365
   94bbb    H16 2721   7.486   6.974   7.539  3.0587  0.8024  0.3541
   94bbb     C9 2722   7.329   6.731   6.833 -0.5753 -0.6915 -0.1943
   94bbb    H17 2723   7.431   6.709   6.797 -0.4765  1.5043 -1.4019
   94bbb    H18 2724   7.270   6.755   6.744 -2.4654 -0.1505  1.1432
   94bbb     O1 2725   7.686   7.237   6.802 -0.4620  0.1824  0.4580
   95ccc     C1 2726   6.205   9.035   6.194  0.2807 -0.1222 -0.3050
   95ccc     H1 2727   6.103   9.073   6.207  0.8868  1.5792 -0.2197
   95ccc     H2 2728   6.263   9.085   6.272 -3.9696  2.7101  1.4073
   95ccc     C2 2729   6.223   8.886   6.218  0.8735  0.2311 -0.3002
   95ccc     H3 2730   6.172   8.834   6.135  0.7868  2.2811 -1.6126
   95ccc     H4 2731   6.327   8.854   6.225  0.8538 -0.3720 -2.1810
   95ccc     C3 2732   6.153   8.847   6.352 -0.5827 -0.3670  0.2543
   95ccc     H5 2733   6.214   8.882   6.436 -1.5177  0.4070  0.6278
   95ccc     H6 2734   6.140   8.739   6.361  1.8408 -0.8464 -1.2289
   95ccc     N1 2735   6.266   9.078   6.058  0.4981  0.7134 -0.1761
   95ccc     H7 2736   6.223   9.169   6.042 -2.2093  0.4318  4.0507
   95ccc     H8 2737   6.367   9.084   6.073  0.7407 -2.4807  0.1206
   95ccc     O1 2738   6.023   8.912   6.357 -0.3741 -0.0684 -0.2792
   96ccc     C1 2739   6.428   9.747   6.720 -0.1604 -0.5024 -0.4179
   96ccc     H1 2740   6.374   9.801   6.798 -0.8972 -2.3023  0.3786
   96ccc     H2 2741   6.494   9.681   6.778 -1.0128 -2.2054 -1.3128
   96ccc     C2 2742   6.327   9.671   6.633 -0.7777 -1.0029  0.1200
   96ccc     H3 2743   6.269   9.736   6.565  1.0995 -0.0110 -0.6189
   96ccc     H4 2744   6.382   9.598   6.573 -0.7251 -1.8013  1.1302
   96ccc     C3 2745   6.231   9.593   6.726  0.3535 -0.7065 -0.1616
   96ccc     H5 2746   6.157   9.663   6.768  1.1042 -0.3911  0.6485
   96ccc     H6 2747   6.275   9.539   6.810  1.6581 -1.5863 -1.3734
   96ccc     N1 2748   6.514   9.831   6.632 -0.1059  0.2953  0.8799
   96ccc     H7 2749   6.453   9.910   6.614  0.3563  0.1377 -1.6985
   96ccc     H8 2750   6.578   9.866   6.703  0.0808  1.1959  0.2847
   96ccc     O1 2751   6.158   9.502   6.644  0.1523 -0.0010  0.0112
   97ccc     C1 2752   6.563   8.047   6.179 -0.7845 -0.0380  0.2871
   97ccc     H1 2753   6.561   8.128   6.104  1.9567 -1.3436 -1.3488
   97ccc     H2 2754   6.643   7.982   6.142 -0.8312  0.9252 -1.6682
   97ccc     C2 2755   6.613   8.103   6.314 -0.5721  0.0424 -0.4208
   97ccc     H3 2756   6.653   8.026   6.380 -0.0265  0.0873 -0.6901
   97ccc     H4 2757   6.706   8.161   6.302 -0.2067 -0.2069  1.0700
   97ccc     C3 2758   6.505   8.186   6.388 -0.2223  0.1966  0.2724
   97ccc     H5 2759   6.411   8.131   6.401 -1.6328  2.0984 -1.2198
   97ccc     H6 2760   6.485   8.262   6.312  2.8163  2.2944  1.3767
   97ccc     N1 2761   6.438   7.979   6.177  0.4200  0.0336  0.1518
   97ccc     H7 2762   6.432   7.918   6.096  0.6267 -1.1454  0.9921
   97ccc     H8 2763   6.450   7.901   6.242 -0.7072 -1.3435 -1.2037
   97ccc     O1 2764   6.559   8.251   6.506 -0.1679 -0.0696  0.1298
   98ccc     C1 2765   6.419   9.262   6.616 -0.2719  0.6163 -0.1314
   98ccc     H1 2766   6.374   9.338   6.550 -2.0867  1.3473  1.8335
   98ccc     H2 2767   6.343   9.195   6.657  2.3971  0.0642  4.4734
   98ccc     C2 2768   6.539   9.190   6.563 -0.4337  0.3405  0.0333
   98ccc     H3 2769   6.598   9.273   6.523  0.4100 -0.5855 -0.7051
   98ccc     H4 2770   6.607   9.145   6.637 -0.1995 -1.8377 -1.4169
   98ccc     C3 2771   6.511   9.081   6.453 -0.4993  0.3480 -0.2975
   98ccc     H5 2772   6.607   9.039   6.419  0.8184  1.9553  1.2376
   98ccc     H6 2773   6.468   9.141   6.371 -0.9511 -0.2635 -0.5088
   98ccc     N1 2774   6.453   9.326   6.739 -0.1463 -0.0825 -0.2382
   98ccc     H7 2775   6.375   9.379   6.779 -0.0811 -0.3395  0.2395
   98ccc     H8 2776   6.463   9.255   6.811 -2.4375 -0.7531 -0.5181
   98ccc     O1 2777   6.423   8.989   6.501 -0.3305  0.2565 -0.2112
   99ccc     C1 2778   5.865   9.356   7.819  0.7542  0.1930 -0.4354
   99ccc     H1 2779   5.934   9.299   7.882  1.9045  0.2904 -1.5810
   99ccc     H2 2780   5.791   9.416   7.874  0.0989  1.0482 -2.1805
   99ccc     C2 2781   5.934   9.441   7.721  0.3402  0.0817 -0.2162
   99ccc     H3 2782   5.866   9.497   7.655  2.6196  0.4580 -2.3889
   99ccc     H4 2783   5.978   9.526   7.775 -0.6018  0.8900 -0.6899
   99ccc     C3 2784   6.047   9.368   7.639  0.2437  0.6681 -0.2916
   99ccc     H5 2785   6.099   9.444   7.580  0.3341 -0.3232 -1.5314
   99ccc     H6 2786   6.001   9.289   7.578  0.3181  0.6564 -0.3312
   99ccc     N1 2787   5.769   9.262   7.756  0.0446 -0.1784  0.4761
   99ccc     H7 2788   5.824   9.196   7.702  1.9041  0.8537  1.0407
   99ccc     H8 2789   5.726   9.211   7.833 -1.0526 -0.7609 -0.4978
   99ccc     O1 2790   6.151   9.324   7.733  0.2303 -0.0770 -0.2332
  100ccc     C1 2791   6.324   9.117   7.009 -0.9168  0.5836 -0.2286
  100ccc     H1 2792   6.263   9.204   6.982 -2.6590 -0.1897  0.9936
  100ccc     H2 2793   6.329   9.093   7.116  0.0151  2.2554  0.1242
  100ccc     C2 2794   6.294   8.986   6.935  0.5681  0.3446 -0.1376
  100ccc     H3 2795   6.289   9.013   6.829 -0.9330  0.9030  0.0584
  100ccc     H4 2796   6.376   8.913   6.939  1.4194  1.3204  0.9232
  100ccc     C3 2797   6.165   8.931   6.996  0.0745  0.3299  0.1036
  100ccc     H5 2798   6.116   8.863   6.926  0.3735  0.3162 -0.0945
  100ccc     H6 2799   6.097   9.015   7.017 -0.5927  0.0718 -0.9664
  100ccc     N1 2800   6.459   9.151   6.982 -0.2879  0.3597 -0.0449
  100ccc     H7 2801   6.480   9.229   7.043  0.3955  0.7916 -0.8114
  100ccc     H8 2802   6.514   9.073   7.018  0.3849  0.3330 -1.0737
  100ccc     O1 2803   6.201   8.870   7.131 -0.9990  0.3706  0.1648
  101ccc     C1 2804   5.654   9.386   7.046 -0.5138 -0.1482  0.3401
  101ccc     H1 2805   5.666   9.402   7.154 -4.1300 -1.3592  1.0515
  101ccc     H2 2806   5.746   9.404   6.989 -1.2771 -0.2497 -0.9827
  101ccc     C2 2807   5.605   9.243   7.028 -0.3155 -0.3895  0.0411
  101ccc     H3 2808   5.560   9.233   6.928  0.6912  0.0753 -0.4821
  101ccc     H4 2809   5.692   9.178   7.046  0.8152  1.3256  1.1063
  101ccc     C3 2810   5.499   9.216   7.132  1.0303 -0.1801  0.4469
  101ccc     H5 2811   5.403   9.261   7.103  2.0895  1.6332 -0.3983
  101ccc     H6 2812   5.530   9.256   7.229 -0.9020  1.8817  0.2857
  101ccc     N1 2813   5.561   9.488   6.996 -0.8060  0.2520  0.3766
  101ccc     H7 2814   5.483   9.484   7.061 -0.7699  1.7465  0.5566
  101ccc     H8 2815   5.590   9.580   7.030 -0.7802  1.7155 -3.1573
  101ccc     O1 2816   5.491   9.076   7.145 -0.0315  0.4628  0.2209
  102ccc     C1 2817   4.778   8.354   6.861 -0.4117 -0.3242  0.2804
  102ccc     H1 2818   4.774   8.369   6.970 -0.2719  2.1771  0.0007
  102ccc     H2 2819   4.725   8.434   6.809 -2.2010 -1.3435  0.4689
  102ccc     C2 2820   4.914   8.338   6.805 -0.8963 -0.3611  0.0107
  102ccc     H3 2821   4.970   8.256   6.852  0.8088  1.1290  0.6715
  102ccc     H4 2822   4.919   8.328   6.696  2.9847  1.2436 -0.1275
  102ccc     C3 2823   5.003   8.464   6.838  0.0752  0.4233  0.2324
  102ccc     H5 2824   4.959   8.544   6.778 -1.2554 -1.8424 -2.0311
  102ccc     H6 2825   5.105   8.439   6.804 -0.3793 -0.5329 -0.4593
  102ccc     N1 2826   4.695   8.230   6.836  0.1082 -0.2633  0.1291
  102ccc     H7 2827   4.603   8.253   6.876  1.2228  1.8879  1.6976
  102ccc     H8 2828   4.676   8.221   6.737  1.2317 -1.6646  0.0147
  102ccc     O1 2829   4.993   8.504   6.976 -0.4940  0.4659 -0.0725
  103ccc     C1 2830   5.905   6.485   8.160  0.0262 -0.4974 -0.3649
  103ccc     H1 2831   5.822   6.414   8.162 -1.1770  0.8536 -0.2370
  103ccc     H2 2832   5.901   6.545   8.068  0.9113 -2.5287 -1.7903
  103ccc     C2 2833   5.899   6.555   8.297  0.4882 -0.3470  0.5834
  103ccc     H3 2834   5.904   6.481   8.377 -0.8534  1.6194  2.5996
  103ccc     H4 2835   5.972   6.635   8.313 -1.2996  1.7852 -1.1794
  103ccc     C3 2836   5.761   6.619   8.325  0.1256 -0.1825 -0.3517
  103ccc     H5 2837   5.741   6.617   8.433 -2.4124  0.0838 -0.7393
  103ccc     H6 2838   5.679   6.563   8.277 -0.9460 -0.1763  1.3887
  103ccc     N1 2839   6.032   6.410   8.149  0.8386  0.1139 -0.1940
  103ccc     H7 2840   6.015   6.340   8.221  1.5510 -0.4694 -0.5749
  103ccc     H8 2841   6.016   6.362   8.061  2.6144  2.3485 -1.8739
  103ccc     O1 2842   5.763   6.750   8.282  0.0628 -0.2296  0.5304
  104ccc     C1 2843   5.435   7.460   9.105 -0.3971 -0.2718  0.0745
  104ccc     H1 2844   5.492   7.539   9.054 -0.9064 -0.1864 -0.3678
  104ccc     H2 2845   5.330   7.464   9.072 -1.0825  1.0789  2.2322
  104ccc     C2 2846   5.497   7.319   9.059  0.0808 -0.3221 -0.2560
  104ccc     H3 2847   5.604   7.331   9.037  0.3726 -3.5236 -1.0473
  104ccc     H4 2848   5.503   7.251   9.146  0.2942  0.7456  0.5867
  104ccc     C3 2849   5.437   7.246   8.936 -0.3738 -1.4570 -0.0570
  104ccc     H5 2850   5.335   7.217   8.966 -0.1720 -2.1739 -0.0490
  104ccc     H6 2851   5.505   7.164   8.912  0.7223 -0.2382 -1.3394
  104ccc     N1 2852   5.452   7.485   9.248 -0.4753  0.2934 -0.2107
  104ccc     H7 2853   5.387   7.414   9.279  0.7750 -2.5582 -3.4236
  104ccc     H8 2854   5.543   7.442   9.266  0.0010  1.3171 -0.0392
  104ccc     O1 2855   5.428   7.344   8.827  0.5554  0.2532 -0.3989
  105ccc     C1 2856   5.700   9.395   8.718 -0.9694 -0.1282  0.1214
  105ccc     H1 2857   5.736   9.498   8.698 -1.0268 -0.4495 -1.8873
  105ccc     H2 2858   5.604   9.407   8.769 -0.5843  1.5926  0.5170
  105ccc     C2 2859   5.697   9.316   8.584  0.7357 -0.3669  0.9673
  105ccc     H3 2860   5.631   9.354   8.506  0.1980 -4.3681 -0.7370
  105ccc     H4 2861   5.797   9.314   8.540  0.7358 -3.5185  0.9202
  105ccc     C3 2862   5.648   9.169   8.618  0.6178 -0.2470  0.1821
  105ccc     H5 2863   5.543   9.178   8.649  0.4673  1.7431 -0.7726
  105ccc     H6 2864   5.721   9.135   8.693  1.3362  1.0082  0.0793
  105ccc     N1 2865   5.801   9.343   8.817 -0.6980  0.4417  1.2045
  105ccc     H7 2866   5.887   9.361   8.767 -0.3518  0.6798  1.8706
  105ccc     H8 2867   5.797   9.419   8.885  0.8175  3.0088 -1.3575
  105ccc     O1 2868   5.661   9.089   8.495 -0.1729 -0.0210  0.4036
  106ccc     C1 2869   5.039   9.273   7.956 -0.2190 -0.0168  0.1703
  106ccc     H1 2870   4.972   9.268   8.042  0.2298  1.3555  0.6235
  106ccc     H2 2871   5.142   9.282   7.994 -0.3562 -0.0487  0.5482
  106ccc     C2 2872   5.012   9.147   7.871 -0.5875 -0.5936  0.5389
  106ccc     H3 2873   4.915   9.149   7.820 -1.6368 -0.2511  2.4863
  106ccc     H4 2874   5.087   9.142   7.791  1.5034 -1.2996  2.4451
  106ccc     C3 2875   5.021   9.021   7.963 -0.2665  0.5411 -0.5497
  106ccc     H5 2876   5.013   8.929   7.905  1.0383 -0.9909  1.5580
  106ccc     H6 2877   4.942   9.019   8.039  0.5467 -2.2726  0.3139
  106ccc     N1 2878   5.009   9.397   7.887 -0.1748  0.2367  0.0072
  106ccc     H7 2879   5.037   9.381   7.790  0.5177 -1.7133  0.4863
  106ccc     H8 2880   4.908   9.409   7.884 -0.0916  1.2687  0.8742
  106ccc     O1 2881   5.139   9.017   8.035 -0.1699  0.1138 -0.0682
  107ccc     C1 2882   5.474   7.103   7.519  0.2159 -1.0149 -0.5072
  107ccc     H1 2883   5.524   7.088   7.615  2.3659 -0.3205 -1.4479
  107ccc     H2 2884   5.527   7.181   7.462  1.2911  0.7531  2.6324
  107ccc     C2 2885   5.491   6.972   7.434 -0.9483 -0.3170  0.3304
  107ccc     H3 2886   5.477   6.879   7.492  0.1091 -0.3770  0.5074
  107ccc     H4 2887   5.414   6.973   7.356 -0.6749 -0.3507  0.0573
  107ccc     C3 2888   5.635   6.970   7.378 -0.0973  0.0335 -0.2277
  107ccc     H5 2889   5.661   7.058   7.317  1.1445  1.0368  1.6320
  107ccc     H6 2890   5.649   6.884   7.311 -0.3378 -0.8746  0.8778
  107ccc     N1 2891   5.333   7.135   7.534  0.4198 -0.8948 -0.1837
  107ccc     H7 2892   5.331   7.233   7.562  2.6004 -1.3204  1.6797
  107ccc     H8 2893   5.302   7.162   7.440  0.9843  0.5926  0.0340
  107ccc     O1 2894   5.739   6.953   7.480 -0.4396 -0.3234  0.1616
  108ccc     C1 2895   5.408   7.615   7.656 -0.4400 -0.3667  0.3336
  108ccc     H1 2896   5.333   7.670   7.598  1.3601  0.5936 -1.2036
  108ccc     H2 2897   5.476   7.563   7.586 -1.2092 -0.3678 -0.4310
  108ccc     C2 2898   5.487   7.712   7.749  0.8344 -0.3081 -0.4338
  108ccc     H3 2899   5.557   7.765   7.684 -0.7051 -0.2427 -2.1398
  108ccc     H4 2900   5.414   7.785   7.787  1.2085 -0.7145  1.1620
  108ccc     C3 2901   5.567   7.645   7.867  0.7701 -0.2745 -0.0418
  108ccc     H5 2902   5.497   7.610   7.944  0.6812  2.2491  1.1326
  108ccc     H6 2903   5.632   7.711   7.925 -0.2760  1.1215 -0.4098
  108ccc     N1 2904   5.345   7.514   7.727  0.4467 -0.3668 -0.1076
  108ccc     H7 2905   5.410   7.462   7.787 -0.2198 -2.0459 -0.7845
  108ccc     H8 2906   5.274   7.562   7.782 -0.2510  0.0624 -1.3696
  108ccc     O1 2907   5.645   7.534   7.823 -1.0130  0.4905 -0.0719
  109ccc     C1 2908   6.277   6.369   8.478 -0.3107  0.2761 -0.7665
  109ccc     H1 2909   6.188   6.358   8.542  1.1225 -1.0271  1.0946
  109ccc     H2 2910   6.356   6.398   8.548 -0.3222 -0.7443 -0.3169
  109ccc     C2 2911   6.325   6.236   8.416 -0.2434  0.2166  0.0484
  109ccc     H3 2912   6.338   6.155   8.488  1.8361 -0.5238 -1.0764
  109ccc     H4 2913   6.236   6.196   8.367 -0.6375  0.6763  0.3811
  109ccc     C3 2914   6.443   6.236   8.325 -0.0145 -0.7639 -0.0654
  109ccc     H5 2915   6.417   6.249   8.220 -0.6850  0.2280  0.2086
  109ccc     H6 2916   6.490   6.137   8.333  0.7114 -0.6230 -1.9823
  109ccc     N1 2917   6.250   6.474   8.388 -0.0181  0.5287  0.2593
  109ccc     H7 2918   6.198   6.536   8.451 -3.1138 -0.3573 -1.2082
  109ccc     H8 2919   6.344   6.507   8.365 -0.1193  1.4247  1.0353
  109ccc     O1 2920   6.551   6.322   8.356 -0.3012 -0.0297  0.3735
  110ccc     C1 2921   7.391   6.194   7.817 -0.0728  0.0543 -0.5432
  110ccc     H1 2922   7.287   6.195   7.854 -1.0054  1.4962 -2.9667
  110ccc     H2 2923   7.399   6.225   7.712 -1.2704  0.6631 -0.4688
  110ccc     C2 2924   7.487   6.291   7.898  0.4157 -0.2574  0.0130
  110ccc     H3 2925   7.588   6.290   7.854 -1.0365 -0.3150 -3.6487
  110ccc     H4 2926   7.452   6.395   7.897 -1.1929 -0.6178  3.5609
  110ccc     C3 2927   7.501   6.251   8.046  0.0692 -0.3807  0.4038
  110ccc     H5 2928   7.555   6.330   8.101  2.0895 -0.0652 -1.8464
  110ccc     H6 2929   7.560   6.159   8.058  1.0292  0.2260  0.4782
  110ccc     N1 2930   7.439   6.056   7.822 -0.3444 -0.2549 -0.0762
  110ccc     H7 2931   7.379   6.009   7.755  0.7574 -0.9835 -0.5838
  110ccc     H8 2932   7.527   6.053   7.771  0.8150  3.3470  1.4080
  110ccc     O1 2933   7.367   6.235   8.091  0.0619  0.2653  0.0043
  111ccc     C1 2934   7.343   4.721   6.718 -0.2166 -0.2032 -0.0953
  111ccc     H1 2935   7.450   4.699   6.709 -0.6635 -1.8185 -2.5133
  111ccc     H2 2936   7.325   4.828   6.707  0.2709 -0.1872 -0.8077
  111ccc     C2 2937   7.273   4.659   6.592 -0.6115  1.0424 -0.0170
  111ccc     H3 2938   7.341   4.690   6.511  0.4932  0.7268  0.7632
  111ccc     H4 2939   7.298   4.552   6.591  1.4024  1.4794 -0.6215
  111ccc     C3 2940   7.127   4.691   6.557 -0.6312  0.2065  0.0040
  111ccc     H5 2941   7.071   4.638   6.635  0.6173 -0.5306  0.4219
  111ccc     H6 2942   7.100   4.637   6.465  1.7343  0.6969 -1.0582
  111ccc     N1 2943   7.289   4.681   6.848  0.0415 -0.3356 -0.3708
  111ccc     H7 2944   7.300   4.770   6.898 -0.8598 -0.5163  0.1886
  111ccc     H8 2945   7.187   4.689   6.855  0.1162 -0.9907  2.9269
  111ccc     O1 2946   7.086   4.825   6.544 -0.5389 -0.1786 -0.2079
  112ccc     C1 2947   7.802   5.173   6.174  0.2848  0.2571  0.4361
  112ccc     H1 2948   7.710   5.148   6.119 -0.7891  0.4144  2.0898
  112ccc     H2 2949   7.850   5.247   6.108 -0.6764 -0.5989 -1.3179
  112ccc     C2 2950   7.758   5.244   6.297 -0.8493  0.7336 -0.3677
  112ccc     H3 2951   7.712   5.171   6.365 -0.4162  1.7985  1.1046
  112ccc     H4 2952   7.843   5.277   6.357 -0.3288  1.3987 -1.4341
  112ccc     C3 2953   7.654   5.356   6.280  0.0895  0.2938 -0.4348
  112ccc     H5 2954   7.694   5.434   6.214 -0.7189  1.9772  0.9757
  112ccc     H6 2955   7.642   5.405   6.378  0.3344 -3.0353  1.4160
  112ccc     N1 2956   7.894   5.063   6.202 -0.5290 -0.1795  0.5829
  112ccc     H7 2957   7.961   5.112   6.261 -0.6561 -0.0327  0.6061
  112ccc     H8 2958   7.852   5.000   6.270  0.2248 -0.3821  0.8695
  112ccc     O1 2959   7.532   5.305   6.224 -0.0787  0.1302  0.5912
  113ccc     C1 2960   7.763   6.895   6.632 -0.3502  0.7213 -0.8184
  113ccc     H1 2961   7.812   6.811   6.582 -0.4427  0.1115  0.0882
  113ccc     H2 2962   7.803   6.985   6.583  0.0797  1.3900  0.6813
  113ccc     C2 2963   7.608   6.891   6.616 -0.2724 -0.5873 -0.5729
  113ccc     H3 2964   7.574   6.809   6.680 -2.1436 -0.4762 -1.3460
  113ccc     H4 2965   7.561   6.985   6.645 -0.3354 -1.0351  0.8365
  113ccc     C3 2966   7.576   6.856   6.469  0.3743 -0.1758  0.6707
  113ccc     H5 2967   7.643   6.774   6.442 -0.5274 -0.9804  0.8282
  113ccc     H6 2968   7.596   6.937   6.397  0.0513 -0.4002  0.3250
  113ccc     N1 2969   7.819   6.895   6.766 -0.1315 -0.5101 -0.0121
  113ccc     H7 2970   7.919   6.915   6.763 -0.0730 -0.2089  2.2351
  113ccc     H8 2971   7.777   6.985   6.789  0.8745 -0.2513  0.9065
  113ccc     O1 2972   7.442   6.808   6.472 -0.2055  0.4682 -0.6342
  114ccc     C1 2973   6.427   6.633   6.049  0.3497 -0.3456  0.2859
  114ccc     H1 2974   6.393   6.654   5.946 -1.0679 -1.2986  0.5303
  114ccc     H2 2975   6.510   6.561   6.050 -0.7320 -1.8507 -2.9637
  114ccc     C2 2976   6.454   6.766   6.123 -0.8771  0.0717 -0.7661
  114ccc     H3 2977   6.519   6.819   6.052 -2.6417  1.4968 -1.3773
  114ccc     H4 2978   6.369   6.834   6.129 -1.3199 -0.2442 -2.7775
  114ccc     C3 2979   6.528   6.771   6.259 -0.2401 -0.0044  0.4672
  114ccc     H5 2980   6.466   6.751   6.348 -0.5913 -0.3886  0.1417
  114ccc     H6 2981   6.564   6.873   6.272 -0.7396  0.0348  1.7623
  114ccc     N1 2982   6.322   6.560   6.113  0.0055  0.6979 -0.6312
  114ccc     H7 2983   6.357   6.545   6.208 -0.3295  2.3983 -0.2033
  114ccc     H8 2984   6.245   6.623   6.135 -2.0550 -1.0786 -2.3085
  114ccc     O1 2985   6.631   6.674   6.263 -0.2752 -0.5735 -0.5763
  115ccc     C1 2986   7.266   4.510   6.148  0.4080  0.2679 -0.9237
  115ccc     H1 2987   7.176   4.559   6.110 -0.6107  0.2467  1.2848
  115ccc     H2 2988   7.332   4.583   6.196  0.8624 -0.8480  0.2055
  115ccc     C2 2989   7.216   4.399   6.247 -0.4477  0.0889 -0.2636
  115ccc     H3 2990   7.298   4.333   6.276 -2.1483 -2.0230 -0.0689
  115ccc     H4 2991   7.157   4.437   6.331 -0.0309  0.9390 -0.3345
  115ccc     C3 2992   7.127   4.296   6.180 -0.2488  0.1989  0.1270
  115ccc     H5 2993   7.097   4.228   6.260  2.7435 -0.4317  0.8400
  115ccc     H6 2994   7.184   4.250   6.098  0.2038  1.8253 -0.4998
  115ccc     N1 2995   7.344   4.453   6.050 -0.5571  0.2374 -0.0686
  115ccc     H7 2996   7.282   4.396   5.992  0.5187 -1.1198  0.0544
  115ccc     H8 2997   7.405   4.390   6.102 -0.5058  0.6682  0.4009
  115ccc     O1 2998   7.015   4.368   6.139  0.4769 -0.6182 -0.1923
  116ccc     C1 2999   7.004   4.968   5.431 -0.3182 -0.4661 -0.3667
  116ccc     H1 3000   7.024   5.037   5.514  2.0261 -1.3382 -0.1260
  116ccc     H2 3001   7.101   4.951   5.383 -0.7185 -2.9476 -0.4332
  116ccc     C2 3002   6.938   4.837   5.474  0.7562  0.1613 -0.2778
  116ccc     H3 3003   6.941   4.774   5.384 -0.5225  2.4086 -2.0124
  116ccc     H4 3004   6.999   4.794   5.554 -1.8690  0.0686  1.7860
  116ccc     C3 3005   6.790   4.846   5.518 -0.0723 -0.0503 -0.7554
  116ccc     H5 3006   6.720   4.832   5.435 -1.6348 -3.3307  0.9265
  116ccc     H6 3007   6.767   4.931   5.584  2.2524  0.2520 -0.2393
  116ccc     N1 3008   6.920   5.041   5.336  0.3192 -0.6571  0.3485
  116ccc     H7 3009   6.839   5.082   5.384 -0.0518 -0.2709 -0.5864
  116ccc     H8 3010   6.984   5.117   5.315  0.6842 -0.7756  1.0168
  116ccc     O1 3011   6.767   4.730   5.607  0.0919 -0.0333  0.0650
  117ccc     C1 3012   6.906   6.240   5.139 -0.0449  0.3050  0.3181
  117ccc     H1 3013   6.944   6.341   5.119  1.7246  0.3003  3.1171
  117ccc     H2 3014   6.888   6.183   5.046 -1.3733 -1.4010  1.5440
  117ccc     C2 3015   7.002   6.151   5.220 -0.0019  0.0115 -0.1766
  117ccc     H3 3016   7.101   6.157   5.175  0.5181 -2.2706  0.5474
  117ccc     H4 3017   7.014   6.191   5.322 -1.2080 -1.0003  0.3901
  117ccc     C3 3018   6.957   5.999   5.220  0.2325 -0.4558  0.9929
  117ccc     H5 3019   7.043   5.936   5.244  2.7235  2.8494  1.4961
  117ccc     H6 3020   6.917   5.979   5.120 -1.6138  1.3085  1.3024
  117ccc     N1 3021   6.784   6.250   5.211  0.1986  0.2626 -0.1234
  117ccc     H7 3022   6.778   6.151   5.234 -0.1650 -0.1962 -2.0741
  117ccc     H8 3023   6.806   6.304   5.295 -1.2043 -1.0534  1.1413
  117ccc     O1 3024   6.856   5.986   5.320 -0.1787 -0.3663  0.2459
  118ccc     C1 3025   5.899   6.117   5.530 -0.3913 -0.2806  0.4410
  118ccc     H1 3026   5.995   6.146   5.485 -0.7120  0.0140 -0.0547
  118ccc     H2 3027   5.862   6.031   5.474 -0.3532  0.5856 -0.9712
  118ccc     C2 3028   5.909   6.080   5.674 -0.5777 -0.2939 -0.2981
  118ccc     H3 3029   5.953   6.160   5.734  1.3252 -1.8324  0.4386
  118ccc     H4 3030   5.810   6.060   5.716  0.5175  0.2394  2.7431
  118ccc     C3 3031   5.998   5.955   5.692 -0.1997 -0.2487  0.2888
  118ccc     H5 3032   5.956   5.883   5.621  0.5215  0.8139 -1.2750
  118ccc     H6 3033   5.997   5.911   5.793  0.1250 -3.2812 -0.9159
  118ccc     N1 3034   5.798   6.227   5.512 -0.3515  0.0730 -0.9008
  118ccc     H7 3035   5.711   6.190   5.549 -1.0885  3.2574  0.9955
  118ccc     H8 3036   5.832   6.292   5.584  1.2545  0.6438 -2.1070
  118ccc     O1 3037   6.133   5.993   5.652 -0.2966 -0.0164 -0.2300
  119ccc     C1 3038   5.325   6.957   7.868  0.3419  0.1642 -0.1723
  119ccc     H1 3039   5.434   6.948   7.875  0.1463 -3.7939  0.0583
  119ccc     H2 3040   5.283   6.883   7.798 -1.3405  0.0983  0.8471
  119ccc     C2 3041   5.273   6.926   8.011  0.9386 -0.0914  0.3991
  119ccc     H3 3042   5.309   6.991   8.091 -0.8881 -1.0748  2.1404
  119ccc     H4 3043   5.164   6.938   8.007  1.1268  1.4745 -0.6670
  119ccc     C3 3044   5.305   6.777   8.051  0.1065  0.0211  0.1718
  119ccc     H5 3045   5.239   6.709   7.996  0.8129 -0.1094 -0.5279
  119ccc     H6 3046   5.272   6.765   8.155  1.6745 -1.1686  0.5835
  119ccc     N1 3047   5.291   7.087   7.813 -0.1689 -0.0180 -0.2001
  119ccc     H7 3048   5.358   7.149   7.859  0.1850 -0.1666 -0.5144
  119ccc     H8 3049   5.329   7.084   7.719 -1.9840 -2.5826 -0.9436
  119ccc     O1 3050   5.453   6.746   8.028 -0.2737 -0.4847  0.4518
  120ccc     C1 3051   5.585   6.658   7.008  0.5530 -0.7687 -0.2431
  120ccc     H1 3052   5.573   6.767   7.015 -1.2062 -0.9434 -0.1898
  120ccc     H2 3053   5.673   6.625   6.951  0.4851 -3.6168  1.1326
  120ccc     C2 3054   5.590   6.583   7.141 -0.3457  0.4593  0.4133
  120ccc     H3 3055   5.599   6.476   7.121  1.8366  1.0161 -2.0593
  120ccc     H4 3056   5.676   6.624   7.196  0.0387  0.6489 -0.3217
  120ccc     C3 3057   5.463   6.602   7.219  0.0940 -0.4022 -0.0429
  120ccc     H5 3058   5.390   6.538   7.169  1.1012 -1.4561 -0.1913
  120ccc     H6 3059   5.429   6.706   7.210  1.4592  0.2096  1.3349
  120ccc     N1 3060   5.484   6.607   6.923  0.2740  0.1145  0.1400
  120ccc     H7 3061   5.494   6.650   6.831 -0.0744 -2.6502 -1.3021
  120ccc     H8 3062   5.517   6.516   6.891 -1.0044 -0.2356 -0.2734
  120ccc     O1 3063   5.486   6.574   7.355 -0.2711  0.4847  0.3646
  121ccc     C1 3064   7.681   6.307   7.403 -0.5539  0.3599  0.2765
  121ccc     H1 3065   7.742   6.321   7.493  0.0661  1.6824 -0.3234
  121ccc     H2 3066   7.707   6.207   7.367 -2.0149 -0.0163  0.2157
  121ccc     C2 3067   7.534   6.317   7.448 -0.1141 -0.0830  0.1331
  121ccc     H3 3068   7.484   6.285   7.355 -0.3224  1.5342 -0.3381
  121ccc     H4 3069   7.517   6.246   7.529 -0.0036 -0.4516 -0.1603
  121ccc     C3 3070   7.487   6.454   7.504  0.0287 -0.0901  0.0994
  121ccc     H5 3071   7.501   6.523   7.420  2.0861 -0.2470  0.2665
  121ccc     H6 3072   7.549   6.487   7.588  3.1680 -0.6608 -1.8212
  121ccc     N1 3073   7.730   6.399   7.308 -0.9385  0.1306  0.5998
  121ccc     H7 3074   7.736   6.486   7.361  0.2028  1.9996 -2.3563
  121ccc     H8 3075   7.830   6.386   7.291 -1.0536  0.8830 -0.8059
  121ccc     O1 3076   7.345   6.450   7.533  0.0148 -0.4250  0.1659
  122ccc     C1 3077   6.515   6.536   8.050 -0.1835 -0.1525 -0.6721
  122ccc     H1 3078   6.490   6.565   7.948  3.1995  0.5232 -1.4433
  122ccc     H2 3079   6.601   6.469   8.041  1.4340  2.0887 -3.4371
  122ccc     C2 3080   6.563   6.660   8.128  0.5669  0.3534  0.8270
  122ccc     H3 3081   6.466   6.703   8.155  0.8747  1.0173  0.9164
  122ccc     H4 3082   6.599   6.628   8.227  0.0510 -2.2492  0.2313
  122ccc     C3 3083   6.661   6.762   8.054 -0.7753 -0.0537 -0.5757
  122ccc     H5 3084   6.684   6.853   8.111  0.0263 -1.4993  1.4897
  122ccc     H6 3085   6.624   6.793   7.955 -0.1486  1.3067 -0.4187
  122ccc     N1 3086   6.408   6.461   8.119 -0.2579 -0.1754  0.6537
  122ccc     H7 3087   6.405   6.376   8.063 -0.0377  0.1853  0.0888
  122ccc     H8 3088   6.460   6.435   8.203  2.0564 -0.9571 -0.9136
  122ccc     O1 3089   6.789   6.685   8.039  0.3086 -0.4664  0.3097
  123ccc     C1 3090   5.569   4.640   6.395  0.5531  0.1314 -0.7448
  123ccc     H1 3091   5.516   4.686   6.480  0.0743  0.6559 -1.3221
  123ccc     H2 3092   5.524   4.645   6.296  2.2902 -0.7465 -1.6205
  123ccc     C2 3093   5.713   4.704   6.410 -0.2245  0.7438 -0.4606
  123ccc     H3 3094   5.708   4.813   6.406 -1.5552  0.9883  3.3664
  123ccc     H4 3095   5.756   4.683   6.509 -0.8026 -0.0243 -0.3554
  123ccc     C3 3096   5.814   4.647   6.314  0.8490 -0.1009  0.3471
  123ccc     H5 3097   5.826   4.538   6.305 -0.3135 -0.1009 -2.2810
  123ccc     H6 3098   5.910   4.693   6.342 -0.0188  0.3107  2.8457
  123ccc     N1 3099   5.566   4.498   6.434 -0.1458 -0.2970 -0.2023
  123ccc     H7 3100   5.472   4.468   6.411 -0.4820 -0.6751  1.5240
  123ccc     H8 3101   5.621   4.452   6.361  2.8586 -0.3398  1.8903
  123ccc     O1 3102   5.771   4.687   6.181  0.3521  0.3122  0.2524
  124ccc     C1 3103   5.804   5.453   6.092 -0.1752 -0.0514 -0.0899
  124ccc     H1 3104   5.807   5.344   6.078  0.3306  0.0752 -1.1301
  124ccc     H2 3105   5.740   5.486   6.174  0.6314  2.7598 -0.4860
  124ccc     C2 3106   5.953   5.488   6.125  0.2076 -0.2598  0.2919
  124ccc     H3 3107   5.968   5.596   6.133 -1.0621  0.0760 -1.2567
  124ccc     H4 3108   5.974   5.442   6.222  0.5854 -2.2364 -0.6677
  124ccc     C3 3109   6.051   5.429   6.022 -0.0096  0.0852  0.4868
  124ccc     H5 3110   6.152   5.469   6.032  1.0536 -1.6629 -2.0091
  124ccc     H6 3111   6.020   5.466   5.923  1.0356  1.0564  0.5124
  124ccc     N1 3112   5.742   5.514   5.973  0.0009 -0.0214  0.5724
  124ccc     H7 3113   5.790   5.466   5.897 -0.4533 -1.7737  1.3341
  124ccc     H8 3114   5.647   5.483   5.954 -0.5578  2.9173 -2.1758
  124ccc     O1 3115   6.058   5.287   6.026 -0.0417  0.1030 -0.2014
  125ccc     C1 3116   5.504   4.984   8.442 -0.1193 -0.0933  0.2617
  125ccc     H1 3117   5.582   4.966   8.366 -2.0792  0.2521 -1.9408
  125ccc     H2 3118   5.482   5.090   8.459  0.1234 -0.0243  0.1588
  125ccc     C2 3119   5.380   4.915   8.393 -1.1510  0.1840 -0.2746
  125ccc     H3 3120   5.394   4.807   8.378  0.3583  0.3616 -0.2903
  125ccc     H4 3121   5.310   4.923   8.477 -1.5923  1.4570 -0.7335
  125ccc     C3 3122   5.319   4.983   8.263 -0.8700  0.1967  0.0355
  125ccc     H5 3123   5.313   5.087   8.297  0.1981 -0.2234  1.6192
  125ccc     H6 3124   5.222   4.938   8.239  0.7750 -3.2783 -0.8541
  125ccc     N1 3125   5.533   4.936   8.576 -1.0531 -0.1630 -1.0691
  125ccc     H7 3126   5.445   4.928   8.626 -0.9260  3.0651 -0.0515
  125ccc     H8 3127   5.571   4.843   8.561  0.9719  0.6247 -1.1497
  125ccc     O1 3128   5.409   4.960   8.156  0.1401 -0.1834  0.6478
  126ccc     C1 3129   6.384   5.284   8.180 -0.0856  0.1390 -0.8403
  126ccc     H1 3130   6.475   5.243   8.135 -0.3553 -1.8610  0.3388
  126ccc     H2 3131   6.413   5.375   8.233  0.8033 -0.6052 -0.0172
  126ccc     C2 3132   6.290   5.302   8.062 -0.8170 -0.2008  0.4840
  126ccc     H3 3133   6.341   5.353   7.979  1.8946 -2.1555  0.8331
  126ccc     H4 3134   6.268   5.200   8.028  0.5216 -0.4226  0.2001
  126ccc     C3 3135   6.158   5.376   8.099 -0.2627 -0.2734 -0.2695
  126ccc     H5 3136   6.168   5.485   8.102 -0.0320 -0.1793 -2.6241
  126ccc     H6 3137   6.136   5.341   8.201  2.6029 -1.6673 -0.0295
  126ccc     N1 3138   6.340   5.195   8.290  0.6360 -0.1332 -0.4061
  126ccc     H7 3139   6.302   5.109   8.250 -0.1509 -0.5516  1.1469
  126ccc     H8 3140   6.416   5.155   8.344  1.9730  0.9983 -1.3894
  126ccc     O1 3141   6.068   5.323   8.008  0.9309 -0.3544  0.3580
  127ccc     C1 3142   6.359   7.322   6.492  0.1186 -1.2736  0.3844
  127ccc     H1 3143   6.353   7.227   6.548 -0.4264 -1.7619 -0.4667
  127ccc     H2 3144   6.394   7.404   6.554  0.6908 -1.6301  0.5368
  127ccc     C2 3145   6.441   7.307   6.363  0.0694  0.0955 -0.1945
  127ccc     H3 3146   6.409   7.224   6.298  1.5875 -3.4856  3.2491
  127ccc     H4 3147   6.423   7.403   6.313 -1.1656  0.0097  0.0618
  127ccc     C3 3148   6.590   7.284   6.389 -0.4582  0.1717  0.6017
  127ccc     H5 3149   6.603   7.193   6.449 -1.5542  0.1880  0.8772
  127ccc     H6 3150   6.645   7.372   6.423 -0.3482 -0.0199  0.9265
  127ccc     N1 3151   6.225   7.353   6.452 -0.4437 -0.4097  0.4097
  127ccc     H7 3152   6.181   7.265   6.425 -0.5092 -0.3185  0.2181
  127ccc     H8 3153   6.174   7.381   6.536  0.0360  0.4629  0.4251
  127ccc     O1 3154   6.644   7.249   6.263  0.2460 -0.2329 -0.5699
  128ccc     C1 3155   6.453   6.707   5.606  0.4710  0.0341  0.1179
  128ccc     H1 3156   6.521   6.688   5.522  0.0033  0.2688 -0.3251
  128ccc     H2 3157   6.402   6.617   5.641 -0.9813  1.4988  1.9775
  128ccc     C2 3158   6.529   6.781   5.709 -0.3242 -0.0306  0.4674
  128ccc     H3 3159   6.569   6.868   5.655 -0.6653  0.6825  1.3409
  128ccc     H4 3160   6.467   6.810   5.794  0.9671  0.4511  1.2759
  128ccc     C3 3161   6.642   6.700   5.768 -0.4600  0.7454 -0.5322
  128ccc     H5 3162   6.709   6.677   5.685  0.1593 -0.8450  0.3679
  128ccc     H6 3163   6.599   6.604   5.799  1.4684 -0.6958 -2.0361
  128ccc     N1 3164   6.350   6.786   5.545 -0.6317 -0.2889  0.3184
  128ccc     H7 3165   6.394   6.828   5.464  2.3021  0.8519  2.3337
  128ccc     H8 3166   6.289   6.713   5.507 -3.7014  1.4406  1.5511
  128ccc     O1 3167   6.710   6.767   5.868  0.4251 -0.7746 -0.0408
  129ccc     C1 3168   6.087   7.475   5.947  0.7343 -0.1681 -0.0141
  129ccc     H1 3169   6.135   7.534   6.026 -0.8214 -2.0861  2.5357
  129ccc     H2 3170   6.145   7.482   5.854  1.6329 -0.4282  0.5188
  129ccc     C2 3171   6.082   7.325   6.003 -0.5209 -0.3290 -0.8270
  129ccc     H3 3172   6.014   7.329   6.089 -0.4422 -1.9604 -0.6652
  129ccc     H4 3173   6.045   7.244   5.940  2.0050 -2.1500 -0.1489
  129ccc     C3 3174   6.219   7.280   6.065  0.1406 -0.2910 -0.5830
  129ccc     H5 3175   6.192   7.203   6.138  0.4528  0.6336  0.5463
  129ccc     H6 3176   6.271   7.364   6.113 -0.1057 -0.9624  0.9109
  129ccc     N1 3177   5.948   7.513   5.924 -0.4837 -0.2504 -0.1500
  129ccc     H7 3178   5.953   7.597   5.866  2.1479  0.3049  0.7303
  129ccc     H8 3179   5.926   7.445   5.852 -0.2048 -0.8036  0.2816
  129ccc     O1 3180   6.296   7.218   5.969 -0.1482 -0.7760 -0.3534
  130ccc     C1 3181   6.183   7.639   5.192  0.3283  0.4036 -0.1756
  130ccc     H1 3182   6.217   7.588   5.101 -1.1791 -2.2699  0.6329
  130ccc     H2 3183   6.080   7.669   5.169  0.3774 -0.0768 -1.0613
  130ccc     C2 3184   6.178   7.544   5.304  0.6528 -0.2043 -0.2218
  130ccc     H3 3185   6.153   7.601   5.394 -2.7392  0.1930 -1.2838
  130ccc     H4 3186   6.094   7.479   5.275 -0.1220  0.1947  1.0548
  130ccc     C3 3187   6.302   7.454   5.324  0.2174 -0.0502  0.2175
  130ccc     H5 3188   6.376   7.502   5.389  0.9169 -0.7612 -0.0329
  130ccc     H6 3189   6.351   7.416   5.233 -0.2332  1.7074 -0.8244
  130ccc     N1 3190   6.257   7.760   5.223 -1.5014 -0.0964  0.2800
  130ccc     H7 3191   6.217   7.835   5.168  0.0881  1.8302  1.6145
  130ccc     H8 3192   6.219   7.782   5.315  1.9550  0.2805  1.7768
  130ccc     O1 3193   6.257   7.339   5.403 -0.4084 -0.2101  0.4946
  131ccc     C1 3194   8.480   7.626   6.008  0.1228 -0.1899 -0.1057
  131ccc     H1 3195   8.444   7.617   6.111 -1.2766 -3.0956 -0.7501
  131ccc     H2 3196   8.390   7.649   5.950 -0.5521 -0.0698  0.9778
  131ccc     C2 3197   8.572   7.753   5.973 -0.0731 -0.3152  0.1515
  131ccc     H3 3198   8.647   7.767   6.052 -0.1738 -1.2444  0.4334
  131ccc     H4 3199   8.630   7.734   5.883 -0.3272  1.2617 -0.3676
  131ccc     C3 3200   8.491   7.879   5.944  0.3831 -0.2201  0.6162
  131ccc     H5 3201   8.553   7.969   5.938 -1.6624  1.2185 -0.0582
  131ccc     H6 3202   8.417   7.897   6.024  1.1786  1.4383  1.0289
  131ccc     N1 3203   8.542   7.501   5.963  0.0493  0.2714 -0.2993
  131ccc     H7 3204   8.577   7.522   5.870  1.3914 -0.4316  0.0138
  131ccc     H8 3205   8.631   7.494   6.013  1.5527 -2.7046 -3.0473
  131ccc     O1 3206   8.418   7.850   5.820  0.2561 -0.5967  0.4309
  132ccc     C1 3207   7.913   7.181   5.297 -0.2681  0.3924 -0.8151
  132ccc     H1 3208   7.953   7.229   5.207  0.4622 -0.1967 -0.8037
  132ccc     H2 3209   7.977   7.104   5.340  1.0000  2.6367  1.6680
  132ccc     C2 3210   7.888   7.279   5.412 -0.0977 -0.6411 -0.7643
  132ccc     H3 3211   7.856   7.378   5.375 -0.1347 -1.0165 -1.7844
  132ccc     H4 3212   7.809   7.237   5.474 -0.2806 -2.3195 -2.0619
  132ccc     C3 3213   8.014   7.305   5.491 -0.2947  0.2154 -0.0219
  132ccc     H5 3214   8.041   7.218   5.553  0.4321  0.3472 -0.1350
  132ccc     H6 3215   7.991   7.394   5.550 -1.1506 -0.2670  0.3785
  132ccc     N1 3216   7.793   7.108   5.258 -0.1373  0.2429 -0.0783
  132ccc     H7 3217   7.722   7.177   5.235 -2.1000 -1.9294 -0.8997
  132ccc     H8 3218   7.813   7.072   5.165  0.2726  1.1220 -0.3460
  132ccc     O1 3219   8.128   7.338   5.406 -0.0699 -0.6412 -0.3906
  133ccc     C1 3220   7.079   8.642   4.897 -0.1055  0.3720 -0.2658
  133ccc     H1 3221   7.182   8.679   4.903 -0.6041  1.8049 -0.2181
  133ccc     H2 3222   7.056   8.595   4.801 -1.7097 -0.0521  0.2988
  133ccc     C2 3223   7.056   8.542   5.009 -0.3752  1.1026 -0.4420
  133ccc     H3 3224   7.131   8.560   5.087  0.5391  1.2694 -1.3360
  133ccc     H4 3225   6.955   8.554   5.051 -0.5493  2.2145 -1.1409
  133ccc     C3 3226   7.078   8.398   4.950  0.2936  0.0819 -0.2269
  133ccc     H5 3227   7.024   8.387   4.855 -1.0686  0.5030  0.4655
  133ccc     H6 3228   7.033   8.321   5.015 -0.4667  0.8758  0.2234
  133ccc     N1 3229   6.987   8.753   4.904  0.4214 -0.3191 -0.2898
  133ccc     H7 3230   7.019   8.814   4.979  0.5033 -2.5316  1.5966
  133ccc     H8 3231   6.995   8.812   4.821  0.9257  0.7324  0.4891
  133ccc     O1 3232   7.217   8.378   4.919  0.8469 -0.4751  0.7400
  134ccc     C1 3233   8.091   7.581   5.093  0.0449 -0.2380  0.6431
  134ccc     H1 3234   8.096   7.674   5.151  2.2390  1.5466 -2.1046
  134ccc     H2 3235   8.005   7.521   5.123 -0.6859  0.2320 -0.4569
  134ccc     C2 3236   8.072   7.605   4.946  0.3504 -0.2509 -1.2657
  134ccc     H3 3237   8.147   7.676   4.910 -2.8378  4.2750  0.1846
  134ccc     H4 3238   8.091   7.508   4.899  1.0130 -0.4056 -0.6934
  134ccc     C3 3239   7.933   7.663   4.909  1.0480 -0.0154  0.6355
  134ccc     H5 3240   7.858   7.587   4.935  0.5461  0.5426  0.8314
  134ccc     H6 3241   7.912   7.686   4.803 -0.3388  0.2114  0.9349
  134ccc     N1 3242   8.214   7.506   5.108 -0.4979 -0.4151  0.9395
  134ccc     H7 3243   8.216   7.475   5.205  1.8637 -1.6697  0.5582
  134ccc     H8 3244   8.207   7.419   5.056 -0.2694  0.9244 -1.5041
  134ccc     O1 3245   7.908   7.787   4.983  0.0328 -0.9260  0.0348
  135ccc     C1 3246   8.484   8.706   6.277  0.1484  0.0178 -0.2738
  135ccc     H1 3247   8.437   8.738   6.183 -2.0114 -0.4532  0.5802
  135ccc     H2 3248   8.467   8.780   6.356 -0.7570 -0.3488 -0.1163
  135ccc     C2 3249   8.418   8.574   6.317 -0.6506 -0.3418  0.1169
  135ccc     H3 3250   8.436   8.493   6.246 -0.6769  0.7496 -1.1866
  135ccc     H4 3251   8.452   8.546   6.417  1.6347 -1.4103 -0.9141
  135ccc     C3 3252   8.264   8.607   6.320  0.4003 -0.2377 -0.3947
  135ccc     H5 3253   8.236   8.622   6.215  2.2860  3.7039 -0.5148
  135ccc     H6 3254   8.246   8.699   6.376 -0.3396 -0.2296 -0.6350
  135ccc     N1 3255   8.633   8.685   6.259  0.2978 -0.2046 -0.5133
  135ccc     H7 3256   8.665   8.782   6.258 -2.4811  0.8459  1.4891
  135ccc     H8 3257   8.657   8.655   6.354  0.5606 -0.9368 -0.8012
  135ccc     O1 3258   8.206   8.491   6.390  0.5482 -0.8156 -0.4597
  136ccc     C1 3259   8.368   8.460   7.077  0.2153  0.5578  0.8815
  136ccc     H1 3260   8.338   8.386   7.153 -1.8079  0.2766 -0.1322
  136ccc     H2 3261   8.317   8.423   6.988 -1.0248 -2.1386  2.5808
  136ccc     C2 3262   8.324   8.601   7.130  0.4847 -0.1709 -0.0620
  136ccc     H3 3263   8.378   8.638   7.218  0.2812 -1.2614  0.5493
  136ccc     H4 3264   8.341   8.684   7.061  2.9166 -0.4386  0.1254
  136ccc     C3 3265   8.176   8.602   7.155  0.1946 -0.4605  0.2473
  136ccc     H5 3266   8.157   8.702   7.197  0.3056  0.1192 -1.0243
  136ccc     H6 3267   8.149   8.525   7.229 -0.1734 -1.3837 -0.8159
  136ccc     N1 3268   8.511   8.454   7.063 -0.1395 -0.2181 -0.3936
  136ccc     H7 3269   8.545   8.435   7.157 -0.0921 -0.9481 -0.5519
  136ccc     H8 3270   8.533   8.366   7.016  2.0194 -0.7022  1.3568
  136ccc     O1 3271   8.109   8.589   7.028  0.0171 -0.6629  0.2681
  137ccc     C1 3272   8.068   8.931   6.150  0.0106 -0.5819 -0.3289
  137ccc     H1 3273   7.963   8.918   6.122 -0.1342 -0.5270  0.1750
  137ccc     H2 3274   8.091   8.866   6.235 -3.2526  0.4562  1.5528
  137ccc     C2 3275   8.168   8.895   6.034 -0.2119  0.6747 -0.4412
  137ccc     H3 3276   8.274   8.906   6.060 -0.5720  0.5746  1.1131
  137ccc     H4 3277   8.160   8.788   6.012  2.0885  0.4417 -0.3798
  137ccc     C3 3278   8.151   8.963   5.894 -0.0536  0.2522 -0.3485
  137ccc     H5 3279   8.235   8.952   5.824 -2.1133  0.2462 -2.9594
  137ccc     H6 3280   8.148   9.072   5.908 -0.7499  0.6766 -3.1296
  137ccc     N1 3281   8.097   9.070   6.189  0.0628  0.0163  0.1177
  137ccc     H7 3282   8.081   9.130   6.108 -1.0043  1.0590  1.0527
  137ccc     H8 3283   8.024   9.101   6.252 -0.3048  2.2458 -1.2723
  137ccc     O1 3284   8.026   8.917   5.845  0.3060 -0.0877 -0.3440
  138ccc     C1 3285   7.499   8.683   4.850  0.3462  0.9232  0.3650
  138ccc     H1 3286   7.508   8.604   4.926 -0.4150  0.5222  0.0402
  138ccc     H2 3287   7.411   8.744   4.872 -0.8323 -0.7181  0.3319
  138ccc     C2 3288   7.628   8.778   4.854 -0.4422  0.3059  0.2484
  138ccc     H3 3289   7.719   8.734   4.810 -0.6137 -0.0898  0.2843
  138ccc     H4 3290   7.602   8.871   4.803 -3.3030 -0.3258  0.3810
  138ccc     C3 3291   7.669   8.813   4.994  0.2663 -0.0639 -0.0557
  138ccc     H5 3292   7.755   8.881   4.986  0.5099 -0.6092 -3.2785
  138ccc     H6 3293   7.705   8.717   5.031  2.1664  0.3524 -0.6804
  138ccc     N1 3294   7.497   8.632   4.715  0.1021 -0.2668  0.5832
  138ccc     H7 3295   7.508   8.707   4.646  1.0101  0.3509  1.3778
  138ccc     H8 3296   7.589   8.593   4.693  0.3933  1.7689 -2.5598
  138ccc     O1 3297   7.550   8.870   5.060 -0.6044  1.0300 -0.1595
  139ccc     C1 3298   7.921   7.050   7.818 -0.2469 -0.1682 -0.0734
  139ccc     H1 3299   7.837   6.986   7.846  1.0848 -1.1329  1.9103
  139ccc     H2 3300   7.978   6.991   7.744 -0.7535 -0.8656  0.0820
  139ccc     C2 3301   7.854   7.181   7.786  0.4622 -0.3598  0.2311
  139ccc     H3 3302   7.797   7.213   7.875  0.0303  1.1160 -0.5400
  139ccc     H4 3303   7.928   7.258   7.763 -0.5760  0.7260  0.4136
  139ccc     C3 3304   7.756   7.153   7.671 -0.3177 -1.0395 -0.2311
  139ccc     H5 3305   7.673   7.091   7.706  0.3475 -1.2913  0.9585
  139ccc     H6 3306   7.800   7.108   7.580 -0.3005  0.6870 -1.1098
  139ccc     N1 3307   8.004   7.058   7.930 -0.4226  0.1001  0.0584
  139ccc     H7 3308   8.017   6.963   7.962  1.1424  0.4757  0.6183
  139ccc     H8 3309   7.944   7.104   7.999 -1.3734 -1.3267  0.2351
  139ccc     O1 3310   7.711   7.283   7.640  0.6269 -0.8542 -0.2515
  140ccc     C1 3311   6.923   7.943   6.975  0.6691 -0.4982 -0.9773
  140ccc     H1 3312   7.028   7.964   6.996  0.7281 -0.3649 -1.3926
  140ccc     H2 3313   6.913   7.868   6.896  1.4145 -1.1622 -0.4589
  140ccc     C2 3314   6.853   7.901   7.107 -0.5938  0.9201  0.0461
  140ccc     H3 3315   6.837   7.988   7.172 -2.0033  1.8919 -1.5183
  140ccc     H4 3316   6.751   7.871   7.080 -0.9956  1.0083  1.3980
  140ccc     C3 3317   6.920   7.782   7.181 -0.9622 -0.0228  0.1467
  140ccc     H5 3318   6.935   7.700   7.110 -2.9389 -2.2308  2.1349
  140ccc     H6 3319   6.847   7.748   7.255 -1.9186  0.5502 -0.5097
  140ccc     N1 3320   6.867   8.069   6.933  0.3042  0.6235  0.0323
  140ccc     H7 3321   6.929   8.100   6.858  0.5812 -1.2175 -0.5573
  140ccc     H8 3322   6.776   8.049   6.890  0.1024  2.1155 -0.3014
  140ccc     O1 3323   7.043   7.821   7.242  0.1596  0.1749 -0.1663
  141ccc     C1 3324   7.951   8.956   7.675 -0.3551  0.6000  0.4301
  141ccc     H1 3325   7.895   8.910   7.757 -0.6662 -0.5515 -0.3956
  141ccc     H2 3326   7.957   8.885   7.592 -0.0745 -0.9990  1.7688
  141ccc     C2 3327   7.873   9.073   7.614 -0.3447 -0.2745 -0.8493
  141ccc     H3 3328   7.774   9.029   7.596  0.1331 -1.4836 -0.6299
  141ccc     H4 3329   7.859   9.152   7.689 -2.6529 -1.8902  0.5368
  141ccc     C3 3330   7.930   9.129   7.481 -0.5092  0.1398 -0.3281
  141ccc     H5 3331   8.035   9.156   7.495 -0.5320  0.0388  0.0476
  141ccc     H6 3332   7.880   9.221   7.450 -1.0279  0.8340  2.3196
  141ccc     N1 3333   8.079   8.988   7.724  0.2447 -0.5964  0.0981
  141ccc     H7 3334   8.136   8.904   7.737 -1.6859 -2.1835 -1.0607
  141ccc     H8 3335   8.125   9.040   7.650  0.3130 -1.2042 -0.2948
  141ccc     O1 3336   7.904   9.029   7.388 -0.0540 -0.3020  0.5381
  142ccc     C1 3337   7.202   9.345   6.777  0.0878  0.1301 -0.1837
  142ccc     H1 3338   7.094   9.326   6.768  0.0710 -0.1483  0.5476
  142ccc     H2 3339   7.260   9.300   6.859  0.7439 -1.6468 -1.5827
  142ccc     C2 3340   7.263   9.264   6.659  0.2429  0.2019  0.5331
  142ccc     H3 3341   7.232   9.159   6.668 -1.1707  0.6415  1.0064
  142ccc     H4 3342   7.226   9.298   6.562 -0.6407 -0.3882  0.6520
  142ccc     C3 3343   7.418   9.281   6.646 -0.3708 -0.3210  0.4562
  142ccc     H5 3344   7.436   9.385   6.615  2.6816 -0.9069 -0.0329
  142ccc     H6 3345   7.455   9.220   6.563  0.3932  1.2418 -0.3981
  142ccc     N1 3346   7.234   9.487   6.769  0.0992  0.3322 -0.3114
  142ccc     H7 3347   7.198   9.519   6.859  0.7557 -2.9616  1.3057
  142ccc     H8 3348   7.335   9.480   6.776 -0.0553 -5.4202  2.3814
  142ccc     O1 3349   7.489   9.248   6.768 -0.1596 -0.5115  0.2638
  143ccc     C1 3350   5.270   7.682   8.105 -0.2503 -0.2345  0.0913
  143ccc     H1 3351   5.293   7.691   7.998  1.5409 -1.3667  0.3339
  143ccc     H2 3352   5.349   7.727   8.166  0.4023  0.0317 -0.9294
  143ccc     C2 3353   5.142   7.757   8.146 -0.0355 -0.3164 -0.6115
  143ccc     H3 3354   5.158   7.863   8.126 -1.0155 -0.3660 -1.7668
  143ccc     H4 3355   5.060   7.725   8.081 -1.7389 -2.0488  2.1880
  143ccc     C3 3356   5.099   7.734   8.291  0.0964  0.1992  0.0211
  143ccc     H5 3357   5.050   7.636   8.294  0.1669  0.0790 -1.5268
  143ccc     H6 3358   5.034   7.815   8.326  1.2331  1.4061 -0.5654
  143ccc     N1 3359   5.260   7.538   8.120 -0.2278 -0.0639 -0.0505
  143ccc     H7 3360   5.243   7.521   8.219  0.6797  2.5523  0.6477
  143ccc     H8 3361   5.171   7.516   8.075 -0.6249 -1.6262  1.4208
  143ccc     O1 3362   5.207   7.741   8.379  0.2795  0.6374  0.0776
  144ccc     C1 3363   6.005   7.217   8.918 -0.4358  0.3963  0.0375
  144ccc     H1 3364   5.993   7.125   8.977  0.7041  0.3789  0.2737
  144ccc     H2 3365   6.018   7.176   8.817 -1.1335  0.4367 -0.0723
  144ccc     C2 3366   5.877   7.292   8.923  0.1454 -0.8241 -0.6421
  144ccc     H3 3367   5.788   7.228   8.915  0.2919 -1.0558 -0.4336
  144ccc     H4 3368   5.863   7.326   9.026 -2.0328 -0.0108 -1.1527
  144ccc     C3 3369   5.868   7.403   8.818 -0.5095 -0.1823 -0.7168
  144ccc     H5 3370   5.886   7.361   8.719  0.7856  0.4804 -0.7842
  144ccc     H6 3371   5.956   7.462   8.845 -2.0611  0.6818  3.1590
  144ccc     N1 3372   6.120   7.293   8.950  0.2710 -0.0493  0.0897
  144ccc     H7 3373   6.121   7.386   8.907  0.6101  0.6003  1.4334
  144ccc     H8 3374   6.109   7.304   9.051  0.2884  1.8918 -0.0823
  144ccc     O1 3375   5.751   7.481   8.824 -0.0840  0.2358 -0.1213
  145ccc     C1 3376   6.297   7.705   8.223  0.7898 -0.0397  0.3112
  145ccc     H1 3377   6.282   7.800   8.169 -2.6145  0.2343  1.5099
  145ccc     H2 3378   6.245   7.730   8.316  1.6742  0.3944  0.6995
  145ccc     C2 3379   6.238   7.585   8.151  0.5161  0.5957  0.4358
  145ccc     H3 3380   6.295   7.575   8.058  1.8745  0.0746  1.2969
  145ccc     H4 3381   6.245   7.485   8.197 -1.1914  0.5669  0.7027
  145ccc     C3 3382   6.091   7.595   8.119  0.3607  0.5594 -0.1078
  145ccc     H5 3383   6.033   7.608   8.211  2.5556  3.0500  1.0457
  145ccc     H6 3384   6.067   7.496   8.077 -1.5060  0.0523  1.9679
  145ccc     N1 3385   6.438   7.683   8.258  0.1640 -0.3223  0.3438
  145ccc     H7 3386   6.484   7.685   8.167 -1.4732  2.0053 -0.5553
  145ccc     H8 3387   6.476   7.765   8.305  0.4005 -1.3876  2.1254
  145ccc     O1 3388   6.063   7.689   8.021 -0.1369 -0.3163 -0.1434
  146ccc     C1 3389   5.280   8.113   7.544  0.3358 -1.3772 -0.6094
  146ccc     H1 3390   5.314   8.150   7.642 -0.3970 -2.4993  0.0924
  146ccc     H2 3391   5.296   8.195   7.474  1.6372 -0.4641  0.6943
  146ccc     C2 3392   5.353   7.986   7.521 -0.0610  0.0150  0.3091
  146ccc     H3 3393   5.367   7.935   7.617 -0.4611  0.5383  0.6497
  146ccc     H4 3394   5.288   7.916   7.467  1.8422 -0.6331 -1.2492
  146ccc     C3 3395   5.500   7.995   7.456 -0.3267  0.3469  0.1978
  146ccc     H5 3396   5.496   8.021   7.350 -1.3289 -1.9600 -0.3864
  146ccc     H6 3397   5.538   7.892   7.462  0.2955  0.5932  0.6374
  146ccc     N1 3398   5.135   8.091   7.555 -0.4444  0.6228 -0.1815
  146ccc     H7 3399   5.119   8.037   7.640 -0.7724  0.1643 -0.5248
  146ccc     H8 3400   5.079   8.174   7.574 -2.3445 -0.4195 -0.8357
  146ccc     O1 3401   5.585   8.079   7.538  0.8516 -0.3574  0.2049
  147ccc     C1 3402   5.692   9.934   6.744  0.0806  0.1031  0.9875
  147ccc     H1 3403   5.772   9.867   6.710  0.3914  1.6802 -1.6698
  147ccc     H2 3404   5.603   9.914   6.683  0.1503  0.2963  0.8230
  147ccc     C2 3405   5.655   9.903   6.888 -0.4160 -0.3536 -0.7757
  147ccc     H3 3406   5.591   9.987   6.917 -0.0686 -0.2847 -0.1950
  147ccc     H4 3407   5.595   9.813   6.905 -2.3337  1.0553  0.3413
  147ccc     C3 3408   5.771   9.919   6.982  0.3648  0.1943 -0.6875
  147ccc     H5 3409   5.740   9.927   7.087  0.8712 -0.9674 -0.4385
  147ccc     H6 3410   5.833  10.009   6.967  0.2305  0.4152  0.0338
  147ccc     N1 3411   5.744  10.067   6.716 -0.8592  0.2748 -0.1894
  147ccc     H7 3412   5.841  10.060   6.745 -0.3346  3.0368 -0.9812
  147ccc     H8 3413   5.752  10.064   6.614 -1.8875  0.5865 -0.2856
  147ccc     O1 3414   5.850   9.796   6.992  0.2321 -0.2077 -0.4887
  148ccc     C1 3415   6.768   9.547   7.070 -0.0357  0.1551 -0.2769
  148ccc     H1 3416   6.802   9.624   7.141 -1.4549 -0.5660  1.2687
  148ccc     H2 3417   6.747   9.455   7.127 -2.0857  0.9349  0.2914
  148ccc     C2 3418   6.630   9.594   7.016  0.1568 -0.3177  0.2821
  148ccc     H3 3419   6.636   9.695   6.972 -1.5327 -0.8862 -1.3917
  148ccc     H4 3420   6.607   9.522   6.937 -1.3469 -2.7374  2.7620
  148ccc     C3 3421   6.517   9.573   7.114  0.5437  0.3495  0.5745
  148ccc     H5 3422   6.436   9.639   7.081  1.7220  0.9371 -1.3104
  148ccc     H6 3423   6.561   9.614   7.206  1.0916 -0.4318  0.6712
  148ccc     N1 3424   6.853   9.525   6.958  0.1847 -0.3445 -1.1033
  148ccc     H7 3425   6.804   9.474   6.884  0.4458  1.4536 -2.5655
  148ccc     H8 3426   6.862   9.622   6.930  0.0911  0.0778  0.2614
  148ccc     O1 3427   6.475   9.437   7.128 -0.6898 -0.1117  0.5346
  149ccc     C1 3428   4.979   8.035   8.554 -0.3716  0.2222  0.2542
  149ccc     H1 3429   4.961   7.974   8.464  2.1992  1.1398 -0.9848
  149ccc     H2 3430   5.050   7.972   8.609 -1.3084 -1.4983 -0.4260
  149ccc     C2 3431   5.040   8.166   8.505 -0.1377 -0.4768 -0.7622
  149ccc     H3 3432   4.975   8.200   8.423 -0.1139  1.5487 -0.0085
  149ccc     H4 3433   5.041   8.235   8.591 -1.3961 -0.7678 -0.4831
  149ccc     C3 3434   5.186   8.153   8.461 -0.5379 -0.0458 -0.5821
  149ccc     H5 3435   5.231   8.112   8.552 -2.4623 -0.1584  0.3765
  149ccc     H6 3436   5.243   8.244   8.441  0.8797 -0.7240  0.3035
  149ccc     N1 3437   4.854   8.046   8.628  0.2161  0.3332 -0.1492
  149ccc     H7 3438   4.862   8.118   8.699  2.0861 -1.5176  1.6579
  149ccc     H8 3439   4.849   7.973   8.699  1.0223  0.7173  0.3106
  149ccc     O1 3440   5.195   8.052   8.358  0.3534  0.1905 -0.4854
  150ccc     C1 3441   4.547   8.685   8.336 -0.7159 -0.0903  0.1705
  150ccc     H1 3442   4.599   8.592   8.307  0.3245  0.8366 -1.0394
  150ccc     H2 3443   4.600   8.728   8.422  1.4216 -0.0267 -1.0906
  150ccc     C2 3444   4.565   8.782   8.212 -0.2072  0.2353 -0.1545
  150ccc     H3 3445   4.520   8.727   8.129  1.3172 -0.9913 -0.2176
  150ccc     H4 3446   4.513   8.877   8.226 -0.4602  0.0391  0.2920
  150ccc     C3 3447   4.718   8.796   8.178 -0.3921 -0.0288 -0.2766
  150ccc     H5 3448   4.768   8.851   8.259  1.7050 -0.3006 -1.3060
  150ccc     H6 3449   4.724   8.855   8.086  1.1412  0.2294 -0.0444
  150ccc     N1 3450   4.413   8.659   8.374 -0.2317 -0.6020  0.4268
  150ccc     H7 3451   4.411   8.586   8.445 -1.6797 -1.1438 -0.1340
  150ccc     H8 3452   4.386   8.746   8.420  2.0895 -0.7148  2.2031
  150ccc     O1 3453   4.768   8.662   8.156 -0.1886  0.0494  0.0920
  151ccc     C1 3454   7.257   7.924   7.816  0.2106  0.3079 -0.4023
  151ccc     H1 3455   7.362   7.931   7.848  0.0099 -1.1842  0.6925
  151ccc     H2 3456   7.248   7.973   7.718  1.3248  0.9478 -0.1999
  151ccc     C2 3457   7.216   7.777   7.820 -0.1634  0.5775 -0.1966
  151ccc     H3 3458   7.302   7.714   7.794 -1.0706 -0.9071  0.2405
  151ccc     H4 3459   7.205   7.742   7.924  1.5291  1.4152  0.2996
  151ccc     C3 3460   7.093   7.728   7.733  0.1170 -0.3550 -0.8205
  151ccc     H5 3461   7.106   7.777   7.635 -1.7548  1.6445 -0.1363
  151ccc     H6 3462   7.002   7.765   7.781  2.0099  1.9415  1.2847
  151ccc     N1 3463   7.185   7.993   7.921 -0.0307 -0.4430  0.7222
  151ccc     H7 3464   7.210   8.088   7.896  1.7446 -1.0289  0.0555
  151ccc     H8 3465   7.087   7.989   7.894 -0.1835 -0.7499  1.3005
  151ccc     O1 3466   7.097   7.585   7.735 -0.1533  0.2372  0.0640
  152ccc     C1 3467   6.640   7.366   6.786  0.1306  0.2089 -0.0016
  152ccc     H1 3468   6.713   7.287   6.810  0.0343 -0.0542 -0.5653
  152ccc     H2 3469   6.624   7.373   6.678  0.9721  0.9011 -0.1004
  152ccc     C2 3470   6.513   7.324   6.855  0.1687  0.4234  0.0829
  152ccc     H3 3471   6.440   7.406   6.854 -1.8615 -1.3021  0.1837
  152ccc     H4 3472   6.474   7.234   6.806  1.7403  0.8406 -2.0636
  152ccc     C3 3473   6.535   7.291   7.004 -0.1871  0.1641  0.4366
  152ccc     H5 3474   6.603   7.205   7.009  1.4548  1.2571 -1.7123
  152ccc     H6 3475   6.437   7.269   7.048 -0.1494 -1.5263 -0.2612
  152ccc     N1 3476   6.685   7.501   6.823  0.0591 -0.3507 -0.0674
  152ccc     H7 3477   6.709   7.505   6.922 -2.1805  0.4964  0.4891
  152ccc     H8 3478   6.758   7.519   6.753 -1.3437 -1.3880 -1.8875
  152ccc     O1 3479   6.587   7.407   7.066  0.2792 -0.4011  0.2532
  153ccc     C1 3480   7.684   7.455   8.182 -0.3129 -0.0119 -0.2061
  153ccc     H1 3481   7.620   7.390   8.243  0.0838 -1.6716 -1.4786
  153ccc     H2 3482   7.783   7.411   8.201 -0.6180 -0.7691 -0.3379
  153ccc     C2 3483   7.636   7.426   8.039 -0.2535 -0.5673 -0.3194
  153ccc     H3 3484   7.626   7.318   8.022 -1.0638 -0.8728  1.7521
  153ccc     H4 3485   7.536   7.470   8.032  0.0322  0.1623  0.0477
  153ccc     C3 3486   7.727   7.482   7.923 -0.1805  0.3117 -0.3120
  153ccc     H5 3487   7.723   7.416   7.836  0.0156 -0.3411  0.1683
  153ccc     H6 3488   7.835   7.493   7.940 -0.3319  0.4991  0.6002
  153ccc     N1 3489   7.695   7.596   8.225  0.2583  0.1749 -0.3394
  153ccc     H7 3490   7.777   7.635   8.179 -0.0976  0.7788 -0.4741
  153ccc     H8 3491   7.622   7.648   8.176  0.5815  1.7518  0.7703
  153ccc     O1 3492   7.662   7.602   7.874  0.4228  0.0580  0.4087
  154ccc     C1 3493   7.133   8.335   7.028 -0.3213 -0.6976  0.2407
  154ccc     H1 3494   7.237   8.340   6.992  0.8191 -3.2637  2.7498
  154ccc     H2 3495   7.066   8.305   6.946  0.2093  2.0000 -1.3098
  154ccc     C2 3496   7.127   8.245   7.147  0.0894  0.4393 -0.5688
  154ccc     H3 3497   7.167   8.293   7.237 -1.7654  0.6493  0.1801
  154ccc     H4 3498   7.022   8.223   7.171 -0.9288  2.0320 -3.2077
  154ccc     C3 3499   7.214   8.122   7.132 -0.5201  0.1256  0.2005
  154ccc     H5 3500   7.199   8.072   7.035  1.8294 -1.1108  0.3940
  154ccc     H6 3501   7.191   8.060   7.220  0.2968  0.4488  0.6497
  154ccc     N1 3502   7.093   8.467   7.070  0.6989  0.1081  0.1297
  154ccc     H7 3503   7.046   8.510   6.990 -4.1383 -1.4568  1.7651
  154ccc     H8 3504   7.012   8.464   7.133  0.9130  3.4347  0.7545
  154ccc     O1 3505   7.343   8.166   7.159  0.4211  0.3647 -0.3994
  155ccc     C1 3506   5.395  10.183   7.948 -0.2334 -0.6948  0.1189
  155ccc     H1 3507   5.393  10.179   7.838  0.7861 -0.9385  0.1014
  155ccc     H2 3508   5.495  10.167   7.990  1.2433  2.7161 -1.6944
  155ccc     C2 3509   5.343  10.310   8.019 -0.2502  0.2924 -0.5835
  155ccc     H3 3510   5.236  10.329   8.005 -0.7264  2.0458  3.7919
  155ccc     H4 3511   5.364  10.293   8.126  3.6168 -0.0330 -1.2319
  155ccc     C3 3512   5.427  10.438   7.985 -0.3489  0.2667  0.1599
  155ccc     H5 3513   5.412  10.520   8.055 -0.9270  0.2009  0.1121
  155ccc     H6 3514   5.383  10.477   7.892  1.0596  1.7420  0.0607
  155ccc     N1 3515   5.317  10.066   7.986  0.1683 -0.3157 -0.4508
  155ccc     H7 3516   5.231  10.087   7.937  0.3261 -0.2952 -0.7217
  155ccc     H8 3517   5.356   9.994   7.926  0.0347  0.4045 -1.4297
  155ccc     O1 3518   5.565  10.398   7.968  0.2163  0.4295  0.2094
  156ccc     C1 3519   5.415   9.685   8.021  0.3173 -0.1761  0.1186
  156ccc     H1 3520   5.450   9.709   8.122  2.0795  2.0238 -0.9310
  156ccc     H2 3521   5.379   9.780   7.978  1.4061 -0.1468 -0.7605
  156ccc     C2 3522   5.518   9.616   7.930  0.7597 -0.0512  0.0649
  156ccc     H3 3523   5.553   9.519   7.966  2.9486  0.5701 -0.2858
  156ccc     H4 3524   5.476   9.597   7.830  0.7012  0.2554  0.0309
  156ccc     C3 3525   5.638   9.710   7.898  0.4020 -0.2373  0.2019
  156ccc     H5 3526   5.721   9.654   7.852  0.6866 -0.0927  0.5327
  156ccc     H6 3527   5.677   9.746   7.994  1.7554 -0.3840 -0.2679
  156ccc     N1 3528   5.299   9.589   8.046 -0.0610  0.3229 -0.4654
  156ccc     H7 3529   5.341   9.515   8.101 -1.5576 -1.2003 -1.2806
  156ccc     H8 3530   5.248   9.631   8.123 -3.3557  0.3409 -2.4496
  156ccc     O1 3531   5.595   9.829   7.812  0.4507  0.4796 -0.8258
  157ccc     C1 3532   6.460   9.315   8.509  0.2613  0.2805  0.3670
  157ccc     H1 3533   6.523   9.316   8.419 -0.6625  2.4993 -0.3504
  157ccc     H2 3534   6.364   9.345   8.464  0.7826  3.1730  0.9555
  157ccc     C2 3535   6.475   9.183   8.585  0.0853  1.0165 -0.6783
  157ccc     H3 3536   6.577   9.158   8.616 -0.6559 -1.6366 -0.0724
  157ccc     H4 3537   6.419   9.190   8.679 -1.1060  0.2686 -1.3044
  157ccc     C3 3538   6.431   9.051   8.512 -0.1085 -0.7311 -0.2665
  157ccc     H5 3539   6.406   8.976   8.587  0.9395 -1.7920 -0.9324
  157ccc     H6 3540   6.515   9.006   8.457 -0.7609 -0.8754 -1.1790
  157ccc     N1 3541   6.501   9.433   8.591  0.5618 -0.1231  0.2050
  157ccc     H7 3542   6.449   9.437   8.679 -0.1041  2.3897 -0.2357
  157ccc     H8 3543   6.594   9.402   8.620 -0.0276 -0.9028  1.3380
  157ccc     O1 3544   6.311   9.075   8.434 -0.2008  0.2093 -0.7168
  158ccc     C1 3545   5.485   9.052   7.881 -0.1678 -0.0264  0.6092
  158ccc     H1 3546   5.591   9.064   7.906  0.2113  1.7970 -1.5344
  158ccc     H2 3547   5.446   8.969   7.941  0.7017  0.4366  1.8427
  158ccc     C2 3548   5.415   9.181   7.911  0.3865 -0.3079 -0.5586
  158ccc     H3 3549   5.434   9.269   7.848 -2.0531  0.4345 -0.3430
  158ccc     H4 3550   5.309   9.159   7.899  0.7532 -1.5999 -1.6232
  158ccc     C3 3551   5.451   9.237   8.055  0.5165  0.2519  0.1787
  158ccc     H5 3552   5.433   9.154   8.125 -2.1425  0.6634  0.0930
  158ccc     H6 3553   5.390   9.325   8.077 -2.3633 -1.4077 -0.5022
  158ccc     N1 3554   5.492   9.021   7.736 -0.1292  0.0439 -0.1973
  158ccc     H7 3555   5.584   8.979   7.724  0.3439  0.5857  1.3779
  158ccc     H8 3556   5.427   8.946   7.714  1.4722 -1.1436 -1.0767
  158ccc     O1 3557   5.589   9.264   8.057 -0.5134 -0.3098 -0.0839
  159ccc     C1 3558   7.020   7.069   5.402  0.7402  0.7474  0.2312
  159ccc     H1 3559   6.980   7.111   5.496  0.1195  3.0897 -0.9973
  159ccc     H2 3560   7.126   7.096   5.399  0.9183  0.2897  1.6080
  159ccc     C2 3561   7.010   6.915   5.405  0.1698 -0.4291  1.0386
  159ccc     H3 3562   6.904   6.891   5.422 -0.5546 -1.2543 -3.2891
  159ccc     H4 3563   7.036   6.873   5.307 -1.8648  1.2890 -0.3303
  159ccc     C3 3564   7.103   6.848   5.508  0.0094  0.6746  0.1827
  159ccc     H5 3565   7.100   6.901   5.603 -0.6387 -0.3836  0.7763
  159ccc     H6 3566   7.201   6.851   5.459  0.7997  0.8372  1.7460
  159ccc     N1 3567   6.960   7.139   5.300  0.3319  0.3584  0.3349
  159ccc     H7 3568   6.969   7.234   5.337  0.1852 -0.2009  1.8613
  159ccc     H8 3569   7.024   7.124   5.222 -2.3832 -2.1567 -1.6488
  159ccc     O1 3570   7.060   6.712   5.525  0.0146 -0.1043 -0.0084
  160ccc     C1 3571   6.257   6.260   5.914 -0.6311  0.7960  0.3311
  160ccc     H1 3572   6.209   6.169   5.878  0.4173  0.5850 -0.5598
  160ccc     H2 3573   6.361   6.227   5.910 -1.2718 -1.2431 -0.5291
  160ccc     C2 3574   6.227   6.380   5.820 -0.4050 -0.3020  1.0032
  160ccc     H3 3575   6.126   6.418   5.836 -0.6522  0.1632 -1.3100
  160ccc     H4 3576   6.296   6.461   5.848  0.6242 -1.2180  1.1616
  160ccc     C3 3577   6.244   6.342   5.669  0.9591  0.5243  0.0885
  160ccc     H5 3578   6.233   6.435   5.612  1.0752  1.0781  0.9488
  160ccc     H6 3579   6.176   6.264   5.631  2.2087 -0.1082 -0.9256
  160ccc     N1 3580   6.235   6.281   6.057 -0.1611  0.3572 -0.8318
  160ccc     H7 3581   6.278   6.370   6.082  2.0039 -1.2228  1.5699
  160ccc     H8 3582   6.135   6.299   6.049 -0.3250 -0.8179 -1.8750
  160ccc     O1 3583   6.379   6.293   5.646 -0.0794  0.4180 -0.3276
  161ccc     C1 3584   7.077   5.771   5.604 -0.6586  0.6396  0.4660
  161ccc     H1 3585   7.051   5.809   5.703 -0.0156 -0.0337  0.8975
  161ccc     H2 3586   6.993   5.790   5.536 -0.0134 -1.2283 -0.9412
  161ccc     C2 3587   7.198   5.846   5.548 -0.1420  0.3288  0.0422
  161ccc     H3 3588   7.282   5.820   5.613  0.0545  0.9992  0.0591
  161ccc     H4 3589   7.221   5.796   5.452  0.1731 -0.2196  0.3972
  161ccc     C3 3590   7.179   5.998   5.527  0.0257  0.2950 -0.3016
  161ccc     H5 3591   7.074   6.019   5.504  0.3057  0.4152 -1.5609
  161ccc     H6 3592   7.234   6.037   5.440 -2.7455 -0.4296 -2.4940
  161ccc     N1 3593   7.089   5.634   5.623 -0.2267  0.2081  0.4494
  161ccc     H7 3594   7.122   5.642   5.720  0.9728 -0.3594  0.1069
  161ccc     H8 3595   6.996   5.603   5.649  0.3302  0.1758  2.6787
  161ccc     O1 3596   7.222   6.077   5.635 -0.3811  0.5943 -0.1295
  162ccc     C1 3597   7.785   6.498   6.564 -0.6751 -0.0813 -0.0352
  162ccc     H1 3598   7.866   6.448   6.510  0.5805  0.9529  0.8483
  162ccc     H2 3599   7.792   6.601   6.527 -0.8687 -0.0209  0.0967
  162ccc     C2 3600   7.641   6.438   6.539 -0.8272 -0.3308  0.4971
  162ccc     H3 3601   7.639   6.334   6.572  0.2371 -0.7318 -0.6050
  162ccc     H4 3602   7.570   6.492   6.602 -0.8905  0.7617 -0.4709
  162ccc     C3 3603   7.599   6.451   6.399  0.5623  0.1401  0.7535
  162ccc     H5 3604   7.683   6.427   6.332  1.1998  1.7975  0.9221
  162ccc     H6 3605   7.572   6.555   6.376  1.2975  0.0752 -0.5400
  162ccc     N1 3606   7.826   6.492   6.706  0.2350  0.6289  0.4364
  162ccc     H7 3607   7.838   6.393   6.724  0.8235  0.5254 -0.4956
  162ccc     H8 3608   7.917   6.536   6.691  0.4272 -0.2413 -1.1072
  162ccc     O1 3609   7.497   6.353   6.367 -0.4194  0.6320  0.5005
  163ccc     C1 3610   6.213   6.770   8.009  0.0604  1.6245 -0.1194
  163ccc     H1 3611   6.322   6.763   8.018 -0.0408  1.5737  1.1266
  163ccc     H2 3612   6.189   6.877   8.007  0.6875  1.7657 -0.0681
  163ccc     C2 3613   6.157   6.696   7.886 -0.5850  0.3815  0.8144
  163ccc     H3 3614   6.187   6.590   7.893  2.7394  1.1193 -0.2340
  163ccc     H4 3615   6.048   6.696   7.894 -0.7230 -0.5347 -0.5369
  163ccc     C3 3616   6.206   6.749   7.751 -1.0086  0.3116 -0.2140
  163ccc     H5 3617   6.311   6.717   7.745 -0.5209  1.9254 -0.7143
  163ccc     H6 3618   6.210   6.858   7.756 -0.5646  0.3861 -1.6604
  163ccc     N1 3619   6.160   6.711   8.132 -0.4952 -0.6648 -0.0290
  163ccc     H7 3620   6.209   6.759   8.207 -1.3351 -1.1487  0.8536
  163ccc     H8 3621   6.064   6.748   8.133 -0.8717 -1.4034 -2.2309
  163ccc     O1 3622   6.117   6.702   7.656 -0.3997  0.1250 -0.1895
  164ccc     C1 3623   5.992   6.462   6.590  0.6408 -0.7886  0.1014
  164ccc     H1 3624   6.075   6.519   6.546 -1.9368  2.5311 -0.9227
  164ccc     H2 3625   6.030   6.403   6.674 -0.2690 -0.7932  0.5166
  164ccc     C2 3626   5.891   6.554   6.649  0.4869  0.3044  0.1650
  164ccc     H3 3627   5.850   6.621   6.572  0.8407  0.7864  0.3894
  164ccc     H4 3628   5.805   6.499   6.691  0.7525 -0.6453 -0.5190
  164ccc     C3 3629   5.952   6.648   6.755  0.4169 -0.4076 -0.3043
  164ccc     H5 3630   5.880   6.730   6.751  2.6147  1.5874 -0.7880
  164ccc     H6 3631   6.045   6.684   6.711  0.0387 -0.4942 -1.1801
  164ccc     N1 3632   5.937   6.365   6.498 -0.1099  0.0831  0.5221
  164ccc     H7 3633   6.001   6.286   6.490 -0.0539  0.1734  0.0377
  164ccc     H8 3634   5.851   6.328   6.539 -0.4216  2.5398  2.3168
  164ccc     O1 3635   5.968   6.586   6.884  0.2784  0.1186  0.2251
  165ccc     C1 3636   4.997   5.343   7.948 -0.0691 -0.0113 -0.0295
  165ccc     H1 3637   4.919   5.304   7.881  0.1774 -1.3196  0.4053
  165ccc     H2 3638   4.943   5.429   7.987  0.3153 -0.1182  0.7421
  165ccc     C2 3639   5.033   5.243   8.060 -0.4263 -0.0714  0.4042
  165ccc     H3 3640   4.939   5.214   8.108 -0.0184  0.8452  1.8081
  165ccc     H4 3641   5.081   5.156   8.013 -0.7652  1.0741 -2.2776
  165ccc     C3 3642   5.120   5.314   8.166 -0.1478  0.3763  0.9006
  165ccc     H5 3643   5.125   5.259   8.260 -0.4516  0.3352  0.8940
  165ccc     H6 3644   5.080   5.415   8.181 -3.0993 -0.3680 -1.0783
  165ccc     N1 3645   5.116   5.383   7.878 -0.0957 -0.3301 -0.1192
  165ccc     H7 3646   5.179   5.413   7.953  0.5194 -0.4833 -0.5623
  165ccc     H8 3647   5.161   5.297   7.848  2.2567  1.6549 -2.7933
  165ccc     O1 3648   5.253   5.327   8.122  0.1550 -0.3699 -0.5582
  166ccc     C1 3649   5.447   6.241   8.070 -0.6264  0.0114  0.7383
  166ccc     H1 3650   5.470   6.307   7.985 -1.0497  0.9363  1.3206
  166ccc     H2 3651   5.421   6.141   8.034  0.7731 -0.3306  0.6023
  166ccc     C2 3652   5.573   6.225   8.152 -0.5956 -0.9343 -0.0676
  166ccc     H3 3653   5.625   6.322   8.149 -3.0573  0.4799  0.0434
  166ccc     H4 3654   5.548   6.194   8.254  0.6236 -2.1247 -0.1013
  166ccc     C3 3655   5.677   6.128   8.096  0.2121 -0.3769  0.1618
  166ccc     H5 3656   5.753   6.095   8.168  0.8063  2.1202  0.7614
  166ccc     H6 3657   5.716   6.180   8.008 -2.8846  2.9324  0.5090
  166ccc     N1 3658   5.338   6.300   8.146 -0.0463  1.2930 -0.0498
  166ccc     H7 3659   5.263   6.294   8.077 -1.1623 -2.1922  1.2609
  166ccc     H8 3660   5.307   6.219   8.199  0.4122  1.1831  0.0603
  166ccc     O1 3661   5.606   6.007   8.050 -0.2518  0.3044  0.2728
  167ccc     C1 3662   7.553   5.940   5.663  0.2802 -0.1658 -0.3068
  167ccc     H1 3663   7.543   5.994   5.568  2.2605  0.4885 -0.1877
  167ccc     H2 3664   7.496   5.847   5.669  1.8322 -1.0426  3.1026
  167ccc     C2 3665   7.701   5.898   5.681  0.5725 -0.4160 -0.1427
  167ccc     H3 3666   7.758   5.992   5.688  0.9085 -0.3794 -2.6552
  167ccc     H4 3667   7.708   5.833   5.769  1.0769 -0.0489  0.0942
  167ccc     C3 3668   7.751   5.836   5.555  0.1461 -0.2778  0.2689
  167ccc     H5 3669   7.857   5.814   5.575  0.4474  0.4219 -0.5144
  167ccc     H6 3670   7.733   5.918   5.486 -0.1903 -0.9781 -0.4852
  167ccc     N1 3671   7.502   6.016   5.780  0.6531 -0.1129 -0.0796
  167ccc     H7 3672   7.549   6.106   5.768 -1.3270  0.9298 -0.4789
  167ccc     H8 3673   7.407   6.048   5.763  1.3805  1.9647 -0.5604
  167ccc     O1 3674   7.665   5.730   5.525  0.7808  0.1446 -0.2441
  168ccc     C1 3675   7.180   4.575   5.728  0.9139 -0.6882  0.2029
  168ccc     H1 3676   7.157   4.577   5.620 -1.5589 -0.6495  0.6703
  168ccc     H2 3677   7.278   4.531   5.752  1.1632  0.4037  1.2264
  168ccc     C2 3678   7.187   4.725   5.771  0.4196  0.0116  0.2642
  168ccc     H3 3679   7.091   4.777   5.765  0.2281 -0.2994  0.5497
  168ccc     H4 3680   7.228   4.719   5.873  0.6590  1.9226  0.3111
  168ccc     C3 3681   7.284   4.794   5.673  0.1080  0.0826  0.3913
  168ccc     H5 3682   7.238   4.758   5.581 -1.6062 -0.0049  1.2350
  168ccc     H6 3683   7.387   4.759   5.684  0.3747 -0.1877 -2.4172
  168ccc     N1 3684   7.080   4.488   5.796 -0.2566  0.3009  0.3491
  168ccc     H7 3685   7.125   4.401   5.769  1.1971  0.4333  2.1332
  168ccc     H8 3686   7.108   4.493   5.893  1.2558  1.6573 -0.1076
  168ccc     O1 3687   7.270   4.938   5.675 -0.1470  0.0023  0.0436
  169ccc     C1 3688   6.608   5.236   5.465  0.1796 -1.0309  0.3760
  169ccc     H1 3689   6.601   5.340   5.498 -1.5935 -1.0826  0.2297
  169ccc     H2 3690   6.693   5.176   5.502  0.7000 -1.7144 -1.7747
  169ccc     C2 3691   6.472   5.164   5.484  0.7329  0.7436 -0.5137
  169ccc     H3 3692   6.388   5.227   5.452  1.7924  2.0242 -0.8501
  169ccc     H4 3693   6.458   5.070   5.430  0.1321  1.8733 -2.4513
  169ccc     C3 3694   6.439   5.139   5.626  0.2151  0.2636 -0.4445
  169ccc     H5 3695   6.341   5.090   5.626  1.6553 -2.9160 -1.7388
  169ccc     H6 3696   6.440   5.238   5.674 -0.7177 -0.7031  1.7171
  169ccc     N1 3697   6.649   5.230   5.322  0.0263 -0.4303 -1.1638
  169ccc     H7 3698   6.585   5.289   5.269  0.4420  1.6833  0.5344
  169ccc     H8 3699   6.737   5.281   5.316 -0.4717  0.5924 -0.0905
  169ccc     O1 3700   6.544   5.062   5.693 -0.2254  0.0867 -0.0921
  170ccc     C1 3701   7.561   4.819   6.285  0.1493 -0.4687 -0.0017
  170ccc     H1 3702   7.636   4.865   6.351  0.4104  1.2492 -1.4245
  170ccc     H2 3703   7.488   4.759   6.340  0.6930 -0.3368  0.8852
  170ccc     C2 3704   7.494   4.940   6.225 -0.0291 -1.3694  0.0869
  170ccc     H3 3705   7.468   4.992   6.318  3.0315 -1.5757  1.1791
  170ccc     H4 3706   7.562   5.008   6.173  0.2148  0.1645  2.2695
  170ccc     C3 3707   7.373   4.903   6.134 -0.3533 -0.4965 -0.1399
  170ccc     H5 3708   7.322   4.817   6.179 -0.5165 -0.3256  0.0027
  170ccc     H6 3709   7.417   4.878   6.036 -0.3953  0.2915 -0.3684
  170ccc     N1 3710   7.634   4.745   6.187 -0.0346  0.0530  0.5505
  170ccc     H7 3711   7.556   4.702   6.137 -1.3385  0.5632  2.0326
  170ccc     H8 3712   7.668   4.809   6.116 -1.8468 -1.1323 -1.5163
  170ccc     O1 3713   7.296   5.022   6.113 -0.7914 -0.3927 -0.0580
  171ccc     C1 3714   5.549   6.072   7.576  1.0318  0.6688 -0.8680
  171ccc     H1 3715   5.596   6.168   7.550  2.0976  0.0967 -1.0948
  171ccc     H2 3716   5.560   6.003   7.491 -1.0648 -0.2626 -0.4370
  171ccc     C2 3717   5.610   6.012   7.709  0.4723  0.8325 -0.8700
  171ccc     H3 3718   5.580   6.075   7.794 -1.5418 -0.8008 -0.2979
  171ccc     H4 3719   5.577   5.910   7.731  3.8887 -0.1161  0.5119
  171ccc     C3 3720   5.766   6.019   7.703  0.0830 -0.3537  0.4071
  171ccc     H5 3721   5.806   6.007   7.805 -0.3408 -0.5699  0.5536
  171ccc     H6 3722   5.801   6.117   7.668  0.0967 -0.5912 -0.2509
  171ccc     N1 3723   5.402   6.096   7.581 -0.1112  0.1018  0.6011
  171ccc     H7 3724   5.368   6.002   7.601 -0.5933  0.4157  1.2919
  171ccc     H8 3725   5.363   6.113   7.489 -1.2803 -1.3562  0.7910
  171ccc     O1 3726   5.819   5.924   7.610  0.1099 -0.4379  0.1391
  172ccc     C1 3727   5.585   5.208   7.074 -1.7282 -0.1751 -0.3429
  172ccc     H1 3728   5.621   5.180   7.174  1.1349  0.2963 -1.1397
  172ccc     H2 3729   5.553   5.313   7.073 -1.3021 -0.0435 -0.4353
  172ccc     C2 3730   5.704   5.206   6.977 -0.0548  0.3865  0.1613
  172ccc     H3 3731   5.749   5.106   6.979  3.4124  1.8300  1.0749
  172ccc     H4 3732   5.658   5.221   6.879  1.3589  1.8547 -0.3092
  172ccc     C3 3733   5.817   5.300   7.007 -0.1938 -0.8202 -0.1579
  172ccc     H5 3734   5.799   5.390   6.947  1.5393  0.4975  1.2003
  172ccc     H6 3735   5.904   5.248   6.964 -0.4812 -2.2349  0.9033
  172ccc     N1 3736   5.469   5.131   7.031 -0.4187 -0.2102  0.1439
  172ccc     H7 3737   5.465   5.155   6.931 -0.2905  0.2950  0.2547
  172ccc     H8 3738   5.401   5.193   7.075  1.6062  1.7815  0.6775
  172ccc     O1 3739   5.826   5.325   7.150  0.0496 -0.4122 -0.7713
  173ccc     C1 3740   5.951   4.222   6.003  0.0581  0.1935  0.0581
  173ccc     H1 3741   5.938   4.328   5.979 -0.6186  0.7175  2.4722
  173ccc     H2 3742   5.977   4.167   5.912 -1.1311 -0.1005 -0.1142
  173ccc     C2 3743   6.060   4.210   6.108 -0.2169 -0.0970 -0.0462
  173ccc     H3 3744   6.063   4.102   6.126 -1.9545  0.0666  1.5022
  173ccc     H4 3745   6.152   4.241   6.057 -0.4885  1.0924  0.1735
  173ccc     C3 3746   6.033   4.288   6.231 -0.3472  0.4381  0.1279
  173ccc     H5 3747   5.950   4.243   6.286 -0.7043  1.6960  0.6615
  173ccc     H6 3748   6.017   4.394   6.210  1.2260  1.6373  4.0784
  173ccc     N1 3749   5.824   4.171   6.047  0.4718 -0.0282 -0.4829
  173ccc     H7 3750   5.760   4.170   5.967  0.5720  0.1749 -0.5674
  173ccc     H8 3751   5.829   4.077   6.085 -2.5520  0.3933  1.3182
  173ccc     O1 3752   6.150   4.275   6.316 -0.4986 -0.1368  0.0712
  174ccc     C1 3753   7.200   4.303   6.794  0.0346  0.0749  0.6104
  174ccc     H1 3754   7.245   4.207   6.766 -0.8374  0.9882 -5.3869
  174ccc     H2 3755   7.259   4.377   6.738 -0.6228  0.4339  0.3773
  174ccc     C2 3756   7.059   4.307   6.748 -0.8035  0.0076 -0.2154
  174ccc     H3 3757   7.009   4.221   6.793  0.3058  0.3398  1.7796
  174ccc     H4 3758   7.012   4.398   6.787  1.1143  1.9920 -2.2460
  174ccc     C3 3759   7.035   4.297   6.595  0.0592  0.6558 -0.0779
  174ccc     H5 3760   7.106   4.225   6.552  1.4071  3.4693 -2.9544
  174ccc     H6 3761   7.068   4.386   6.541  0.9698  0.0176 -0.6120
  174ccc     N1 3762   7.216   4.330   6.934 -0.1409 -0.3433 -0.3293
  174ccc     H7 3763   7.179   4.238   6.960 -2.7406  0.4881 -0.7439
  174ccc     H8 3764   7.317   4.333   6.943 -0.2607 -0.6048  1.4841
  174ccc     O1 3765   6.896   4.262   6.584 -0.5607  0.1143  0.0093
  175ccc     C1 3766   7.518   9.286   5.986 -0.1116 -0.1107 -0.1910
  175ccc     H1 3767   7.523   9.298   5.877  1.7376  0.2355 -0.1015
  175ccc     H2 3768   7.446   9.207   6.012  0.7168 -1.1787 -1.0271
  175ccc     C2 3769   7.663   9.246   6.037  0.0246  0.0722 -0.1011
  175ccc     H3 3770   7.736   9.322   6.007  0.6970  0.1437  1.6164
  175ccc     H4 3771   7.673   9.248   6.146  0.5377  1.3155 -0.1552
  175ccc     C3 3772   7.706   9.105   5.988 -0.1589  0.0435  0.4421
  175ccc     H5 3773   7.814   9.112   5.974 -0.1899  0.5488  0.4609
  175ccc     H6 3774   7.655   9.091   5.892 -1.2297  1.5048  0.7701
  175ccc     N1 3775   7.488   9.417   6.046 -0.2152 -0.4654  0.4304
  175ccc     H7 3776   7.392   9.412   6.011  0.1127 -1.6624 -0.3806
  175ccc     H8 3777   7.470   9.396   6.144 -2.1095 -0.0694  0.2045
  175ccc     O1 3778   7.694   9.008   6.087  0.4425  0.2216  0.5680
  176ccc     C1 3779   7.150   8.499   6.649  0.3144 -0.2770 -0.2151
  176ccc     H1 3780   7.057   8.443   6.632  0.8863 -0.7266 -2.0433
  176ccc     H2 3781   7.197   8.453   6.737 -0.8937 -0.1248  0.5404
  176ccc     C2 3782   7.238   8.475   6.521 -0.3767  0.2168  0.4268
  176ccc     H3 3783   7.248   8.368   6.503 -0.7822  0.4201 -1.1356
  176ccc     H4 3784   7.196   8.526   6.434 -0.7243  0.4277  0.7170
  176ccc     C3 3785   7.378   8.534   6.538  0.3345 -0.1045  0.1317
  176ccc     H5 3786   7.426   8.476   6.618 -0.8214  0.8197  1.5463
  176ccc     H6 3787   7.366   8.634   6.582  0.3354  0.5814 -1.3854
  176ccc     N1 3788   7.111   8.639   6.666 -0.0766 -0.1045 -0.6775
  176ccc     H7 3789   7.045   8.654   6.590 -0.2851 -0.4847 -0.5737
  176ccc     H8 3790   7.045   8.631   6.743  1.9115 -1.6472  0.9932
  176ccc     O1 3791   7.447   8.548   6.415 -0.3100  0.1709  0.2237
  177ccc     C1 3792   6.660   9.207   5.012 -0.3087 -0.0808 -0.0718
  177ccc     H1 3793   6.726   9.290   5.037 -0.3511  0.3153 -1.1974
  177ccc     H2 3794   6.693   9.165   4.916 -1.7027  1.7880 -1.4443
  177ccc     C2 3795   6.664   9.104   5.131 -0.3456  0.2210 -0.1931
  177ccc     H3 3796   6.629   9.150   5.224 -2.0858 -0.5023 -0.4653
  177ccc     H4 3797   6.595   9.024   5.104 -0.8691  0.1955  1.1333
  177ccc     C3 3798   6.800   9.039   5.170  0.3330 -0.4347  0.2741
  177ccc     H5 3799   6.890   9.100   5.181  0.8571 -1.2929  0.8681
  177ccc     H6 3800   6.828   8.972   5.087 -0.7371  1.3734 -1.6597
  177ccc     N1 3801   6.532   9.276   4.995  0.5259  0.0238  0.2094
  177ccc     H7 3802   6.478   9.189   4.993 -0.5651  0.6885 -0.5270
  177ccc     H8 3803   6.512   9.318   5.085 -2.3371  0.3120 -0.4678
  177ccc     O1 3804   6.770   8.965   5.290 -0.2247 -0.5540  0.1235
  178ccc     C1 3805   6.651   8.850   6.116 -0.3157  0.4847 -0.0943
  178ccc     H1 3806   6.721   8.935   6.108 -0.4040  0.5302 -0.3888
  178ccc     H2 3807   6.550   8.870   6.080 -0.0190 -1.7266 -2.4685
  178ccc     C2 3808   6.712   8.726   6.053 -0.3690 -0.0051 -0.3971
  178ccc     H3 3809   6.804   8.709   6.109 -1.9647  0.6503  2.6066
  178ccc     H4 3810   6.657   8.635   6.083 -0.3272  0.1952  0.3059
  178ccc     C3 3811   6.747   8.747   5.908 -0.0603 -0.0423 -0.2491
  178ccc     H5 3812   6.808   8.837   5.902 -0.0693  0.0983  1.4919
  178ccc     H6 3813   6.651   8.772   5.859  0.2567  0.0451 -0.8392
  178ccc     N1 3814   6.633   8.822   6.262 -0.9260 -0.3245  0.8467
  178ccc     H7 3815   6.593   8.910   6.294 -1.0281 -0.3156  0.7000
  178ccc     H8 3816   6.566   8.747   6.276 -0.8631  0.0134  3.5287
  178ccc     O1 3817   6.799   8.629   5.848 -0.2376  0.1907 -0.0778
  179ccc     C1 3818   8.195   8.967   5.060  0.5095  0.0644 -0.0666
  179ccc     H1 3819   8.141   9.054   5.100  1.1176  0.1693  0.5393
  179ccc     H2 3820   8.273   8.937   5.132 -0.4800  0.0181  1.0207
  179ccc     C2 3821   8.084   8.858   5.043  0.0489  0.5075  0.8378
  179ccc     H3 3822   8.008   8.883   4.967 -0.0458 -1.2612  0.3026
  179ccc     H4 3823   8.124   8.762   5.009  2.5923  2.2875 -1.5969
  179ccc     C3 3824   8.027   8.830   5.182 -0.5390 -0.0243  0.4079
  179ccc     H5 3825   7.943   8.759   5.183  0.1916 -0.9250  0.0262
  179ccc     H6 3826   7.983   8.924   5.215 -0.7498  0.1477 -0.3476
  179ccc     N1 3827   8.247   8.988   4.925  0.0421 -0.9627 -0.8468
  179ccc     H7 3828   8.181   9.051   4.881 -0.2021  1.5705  2.7020
  179ccc     H8 3829   8.320   9.056   4.946 -0.8815 -0.0400 -0.5542
  179ccc     O1 3830   8.128   8.772   5.269 -0.2122 -0.1843 -0.1074
  180ccc     C1 3831   8.707   8.112   5.759 -0.0145  0.2261  0.7356
  180ccc     H1 3832   8.609   8.114   5.807  0.0129  1.4928  0.7629
  180ccc     H2 3833   8.767   8.028   5.797  0.4922 -0.7265 -1.8972
  180ccc     C2 3834   8.684   8.086   5.604  0.6004 -0.2053 -0.1678
  180ccc     H3 3835   8.784   8.089   5.559  0.9867  1.1703  0.7214
  180ccc     H4 3836   8.633   7.989   5.596 -2.9059  1.6174 -2.3726
  180ccc     C3 3837   8.592   8.193   5.538  0.5226 -0.0871  0.0410
  180ccc     H5 3838   8.547   8.157   5.445 -1.4765  0.1817  0.8594
  180ccc     H6 3839   8.651   8.281   5.512  2.6103 -1.1575  0.9120
  180ccc     N1 3840   8.795   8.230   5.770  0.1786  0.4228 -0.2453
  180ccc     H7 3841   8.871   8.213   5.704  0.0803  0.2555 -0.3168
  180ccc     H8 3842   8.743   8.308   5.731  0.3718  0.4620 -0.4321
  180ccc     O1 3843   8.484   8.222   5.625  0.0367  0.2469  0.0397
  181ccc     C1 3844   8.584   8.061   7.265  0.4396 -0.1143 -0.4957
  181ccc     H1 3845   8.633   8.158   7.252  2.6924 -0.9110  1.4612
  181ccc     H2 3846   8.661   7.989   7.234  2.3166  1.9812 -1.0015
  181ccc     C2 3847   8.536   8.034   7.411  0.4107  0.0980 -0.1631
  181ccc     H3 3848   8.461   7.954   7.416 -0.1552  0.5432 -1.3136
  181ccc     H4 3849   8.618   8.002   7.477 -0.8029  0.4075  1.5702
  181ccc     C3 3850   8.466   8.153   7.487  0.3840  0.4569  0.3583
  181ccc     H5 3851   8.518   8.247   7.511 -0.4685  0.5451  2.0124
  181ccc     H6 3852   8.433   8.111   7.582  1.6714  0.3245  0.7709
  181ccc     N1 3853   8.476   8.064   7.170 -0.2903 -0.1748  0.2239
  181ccc     H7 3854   8.420   8.141   7.206 -0.9486 -0.9802  0.9504
  181ccc     H8 3855   8.518   8.106   7.087  0.8073  1.3415  1.4919
  181ccc     O1 3856   8.347   8.204   7.412 -0.1149  0.2982  0.3582
  182ccc     C1 3857   7.820   8.659   7.524 -0.5122 -0.1094  0.0785
  182ccc     H1 3858   7.839   8.715   7.616  1.2039  0.0935 -0.3604
  182ccc     H2 3859   7.813   8.552   7.548 -0.2034 -0.1208  0.1246
  182ccc     C2 3860   7.687   8.707   7.456 -0.0361 -0.2775 -0.0409
  182ccc     H3 3861   7.616   8.721   7.539  1.7856 -1.0166  1.7072
  182ccc     H4 3862   7.712   8.809   7.423 -0.3589 -0.0821  0.3080
  182ccc     C3 3863   7.636   8.616   7.338 -0.4399 -0.5060  0.1339
  182ccc     H5 3864   7.689   8.630   7.243  0.5848  0.5319  0.8431
  182ccc     H6 3865   7.529   8.635   7.322 -0.1644 -0.4679 -1.9289
  182ccc     N1 3866   7.934   8.671   7.437  0.0574 -0.4536 -0.2245
  182ccc     H7 3867   7.912   8.619   7.352 -0.2789  1.0552 -1.1021
  182ccc     H8 3868   7.937   8.768   7.405 -3.0675 -0.5082 -0.9825
  182ccc     O1 3869   7.644   8.481   7.381  0.0506 -0.2373  0.3994
  183ccc     C1 3870   7.515   5.983   6.791 -0.4655  0.6203 -0.1129
  183ccc     H1 3871   7.447   5.901   6.765  0.3202  0.0673 -0.4421
  183ccc     H2 3872   7.455   6.070   6.761 -2.3302 -0.9803 -1.2665
  183ccc     C2 3873   7.537   5.999   6.945 -0.2373  0.1118 -0.2686
  183ccc     H3 3874   7.591   5.910   6.980 -1.7880 -0.9564 -0.4603
  183ccc     H4 3875   7.591   6.093   6.957 -1.0612  0.6100 -0.4135
  183ccc     C3 3876   7.404   6.006   7.019 -0.1166  0.2737 -0.1906
  183ccc     H5 3877   7.415   5.972   7.122 -2.6366 -0.9971 -0.2626
  183ccc     H6 3878   7.331   5.943   6.968  2.4396 -3.0031 -0.1536
  183ccc     N1 3879   7.633   5.960   6.719 -0.4804  0.0386 -0.1091
  183ccc     H7 3880   7.614   5.996   6.625  1.0079  2.4418  0.4139
  183ccc     H8 3881   7.693   6.036   6.752 -1.3663  0.2408  1.0632
  183ccc     O1 3882   7.366   6.145   7.012  0.4652 -0.8395  0.2092
  184ccc     C1 3883   6.403   6.389   6.417  0.1727  0.3119 -0.1513
  184ccc     H1 3884   6.462   6.471   6.375 -0.1030  0.0050 -1.1586
  184ccc     H2 3885   6.435   6.294   6.373 -1.1083 -0.1149 -0.2148
  184ccc     C2 3886   6.423   6.381   6.572  0.2760  0.0864  0.0509
  184ccc     H3 3887   6.389   6.473   6.621 -1.1211 -0.5255  0.3004
  184ccc     H4 3888   6.357   6.308   6.620 -1.3056  1.4716  0.0949
  184ccc     C3 3889   6.573   6.347   6.593  0.7056 -0.3632  0.2708
  184ccc     H5 3890   6.637   6.403   6.523 -0.3418 -2.0902 -2.2121
  184ccc     H6 3891   6.593   6.240   6.577  1.6202 -0.2454  0.5367
  184ccc     N1 3892   6.265   6.412   6.385  0.4677  0.0085 -0.2048
  184ccc     H7 3893   6.262   6.392   6.285  2.3389 -2.0982  0.0795
  184ccc     H8 3894   6.220   6.328   6.420 -0.5931  0.5318 -0.2807
  184ccc     O1 3895   6.619   6.372   6.723 -0.0108 -0.7315 -0.2925
  185ccc     C1 3896   7.196   7.680   8.417 -0.6261  0.0597 -0.2111
  185ccc     H1 3897   7.111   7.748   8.430 -1.3892 -1.3044  2.8291
  185ccc     H2 3898   7.200   7.622   8.510 -0.4685  1.1978  0.5188
  185ccc     C2 3899   7.160   7.583   8.298 -0.4802 -0.4777 -0.5759
  185ccc     H3 3900   7.075   7.525   8.334  0.1230  0.7601  3.3285
  185ccc     H4 3901   7.137   7.647   8.212 -0.9525 -0.3179 -0.3317
  185ccc     C3 3902   7.282   7.491   8.262  0.0767  0.1253  0.2781
  185ccc     H5 3903   7.319   7.427   8.344  0.1503 -1.5258 -0.9882
  185ccc     H6 3904   7.362   7.546   8.212  0.4190 -0.8355 -0.2521
  185ccc     N1 3905   7.320   7.756   8.403 -0.1323  0.4091  0.0381
  185ccc     H7 3906   7.318   7.807   8.315 -0.9826  2.2271  1.0501
  185ccc     H8 3907   7.319   7.820   8.482 -0.3481 -0.1279  0.4784
  185ccc     O1 3908   7.242   7.392   8.168  0.0501 -0.0557 -0.0079
  186ccc     C1 3909   7.824   6.489   7.936 -0.7674  0.0079 -0.4164
  186ccc     H1 3910   7.866   6.552   8.016  0.2251 -1.6388  0.4046
  186ccc     H2 3911   7.763   6.418   7.992 -1.2619  1.5305  1.0957
  186ccc     C2 3912   7.719   6.563   7.851  0.4256 -0.9558 -0.0112
  186ccc     H3 3913   7.771   6.634   7.784 -1.9224  0.6765 -0.2455
  186ccc     H4 3914   7.664   6.492   7.788 -0.6105 -1.4090  1.3559
  186ccc     C3 3915   7.625   6.654   7.931  0.3378  0.2555 -0.3412
  186ccc     H5 3916   7.689   6.724   7.987  2.1293 -0.1636 -1.7659
  186ccc     H6 3917   7.565   6.589   7.996 -0.4361  0.6241 -0.6818
  186ccc     N1 3918   7.930   6.421   7.865 -0.1097  0.0102 -0.4061
  186ccc     H7 3919   7.976   6.355   7.928  2.0646 -0.2286 -2.0958
  186ccc     H8 3920   7.875   6.364   7.801 -1.2249  1.0146 -0.3666
  186ccc     O1 3921   7.529   6.727   7.855  0.0675 -0.1580 -0.6192
  187ccc     C1 3922   8.007   8.134   7.826  0.1710 -0.7820  0.4897
  187ccc     H1 3923   8.115   8.151   7.823 -0.0211  0.8883  1.7703
  187ccc     H2 3924   7.958   8.141   7.728  0.4761 -2.4159  0.1968
  187ccc     C2 3925   7.970   8.003   7.884 -0.4226 -0.0490 -0.6482
  187ccc     H3 3926   7.994   8.001   7.991 -2.5864  0.0660 -0.1112
  187ccc     H4 3927   7.862   7.989   7.880 -0.5028  0.1564  0.4073
  187ccc     C3 3928   8.037   7.888   7.810  0.0445  0.4174  0.1085
  187ccc     H5 3929   8.004   7.788   7.840 -0.5571  0.2450 -1.0485
  187ccc     H6 3930   8.145   7.891   7.829  0.0469  0.2404  0.1278
  187ccc     N1 3931   7.958   8.244   7.910  0.5689 -0.3400  0.5299
  187ccc     H7 3932   8.017   8.248   7.992 -0.2835 -1.4659  1.2097
  187ccc     H8 3933   8.007   8.318   7.859  1.6036 -1.4438 -0.1323
  187ccc     O1 3934   8.021   7.917   7.668 -0.2447  1.0584  0.0417
  188ccc     C1 3935   8.121   7.202   6.973  0.0394  0.2103  0.2388
  188ccc     H1 3936   8.204   7.141   7.011 -2.2660 -3.3219  0.1205
  188ccc     H2 3937   8.123   7.191   6.864 -0.4387  0.8751  0.1604
  188ccc     C2 3938   7.984   7.158   7.028  0.1162  0.3418  0.0839
  188ccc     H3 3939   7.899   7.206   6.978 -0.6796  0.5626  1.5867
  188ccc     H4 3940   7.989   7.051   7.002 -0.1447  0.2306  0.4932
  188ccc     C3 3941   7.979   7.162   7.182  0.5189 -0.0427  0.5702
  188ccc     H5 3942   8.059   7.115   7.240  0.5678 -0.8320 -0.1175
  188ccc     H6 3943   7.889   7.105   7.212  0.2800  0.4990  0.9102
  188ccc     N1 3944   8.136   7.344   7.001  0.0762 -0.2686  0.1362
  188ccc     H7 3945   8.053   7.381   6.956  0.8276  0.7556 -0.4425
  188ccc     H8 3946   8.110   7.342   7.100 -1.7954  0.1264 -0.3065
  188ccc     O1 3947   7.958   7.295   7.232  0.2395  0.3895  0.1434
  189ccc     C1 3948   7.843   6.799   7.306  0.1469  0.3890  0.0511
  189ccc     H1 3949   7.772   6.749   7.238 -0.7860  2.6444 -0.7363
  189ccc     H2 3950   7.829   6.908   7.303 -0.6188  0.3260  0.8084
  189ccc     C2 3951   7.844   6.738   7.449 -0.2898  0.3667 -0.2071
  189ccc     H3 3952   7.880   6.635   7.459 -2.5129 -0.3320  1.4598
  189ccc     H4 3953   7.905   6.794   7.521 -3.3335  2.1665  1.1759
  189ccc     C3 3954   7.702   6.732   7.503  0.2702  0.1299 -0.0597
  189ccc     H5 3955   7.702   6.699   7.607  1.1277  0.1610 -0.0424
  189ccc     H6 3956   7.637   6.654   7.461  0.1985 -0.5197  1.2163
  189ccc     N1 3957   7.969   6.786   7.243 -0.4864  0.2797  0.2311
  189ccc     H7 3958   7.955   6.827   7.151  0.2462  1.4824  0.6261
  189ccc     H8 3959   8.019   6.866   7.284  1.9135 -1.1386  0.2744
  189ccc     O1 3960   7.655   6.869   7.496 -0.3144  0.3579 -0.2147
  190ccc     C1 3961   7.512   6.487   7.002 -0.0251  0.5703  0.7817
  190ccc     H1 3962   7.534   6.594   7.005  1.9783  0.2269 -0.3032
  190ccc     H2 3963   7.444   6.475   7.087 -0.6074  2.2877  0.5983
  190ccc     C2 3964   7.435   6.447   6.874  0.1901  0.0144  0.1125
  190ccc     H3 3965   7.497   6.486   6.792  2.1428 -0.4076  1.3335
  190ccc     H4 3966   7.448   6.340   6.857 -1.5654  0.1011 -2.3866
  190ccc     C3 3967   7.287   6.494   6.858  0.0802 -0.1681 -0.0966
  190ccc     H5 3968   7.221   6.426   6.913 -1.2198  2.0185  1.2135
  190ccc     H6 3969   7.267   6.492   6.750  1.7947 -2.5972 -0.4198
  190ccc     N1 3970   7.634   6.402   7.026 -0.3772  0.2003  0.2694
  190ccc     H7 3971   7.667   6.421   7.121  3.0856 -0.4406 -0.6493
  190ccc     H8 3972   7.592   6.309   7.037 -0.1338  0.0647  0.0548
  190ccc     O1 3973   7.273   6.627   6.912 -0.2297  0.0941  0.4366
  191SOL     OW 3974   9.911  10.858   0.252 -0.8512 -0.7112  0.0664
  191SOL    HW1 3975   9.876  10.920   0.187  2.2299 -0.9574 -2.0828
  191SOL    HW2 3976   9.939  10.913   0.325  0.7548  0.3876 -1.2987
  192SOL     OW 3977   7.196   8.877   9.419  0.1198 -0.6208 -0.1115
  192SOL    HW1 3978   7.195   8.791   9.378 -1.1366 -0.7646  0.1805
  192SOL    HW2 3979   7.236   8.863   9.504  0.5981 -0.7673 -0.3569
  193SOL     OW 3980   0.255   4.679   4.654  0.0713  0.3458  0.9913
  193SOL    HW1 3981   0.182   4.740   4.669 -0.7849 -0.2740 -0.4652
  193SOL    HW2 3982   0.215   4.592   4.662  1.0993 -0.0424  2.1680
  194SOL     OW 3983   1.184   4.876   0.042  0.5626  0.3027  0.0771
  194SOL    HW1 3984   1.210   4.792   0.005  1.0056 -0.2494  1.5938
  194SOL    HW2 3985   1.244   4.890   0.115  0.5634  1.9925 -0.1992
  195SOL     OW 3986   4.805   3.673   8.176  0.4888  0.6068  0.4865
  195SOL    HW1 3987   4.850   3.732   8.116  1.4100 -0.2600  0.3007
  195SOL    HW2 3988   4.723   3.652   8.131  1.0546  0.1616 -0.3802
  196SOL     OW 3989  10.000   3.168   0.033 -0.4401 -0.0854  0.0975
  196SOL    HW1 3990  10.036   3.148   0.120 -0.0440  0.2201  0.0053
  196SOL    HW2 3991  10.048   3.246   0.005  0.1669 -0.7840 -0.8457
  197SOL     OW 3992   3.997   4.650   0.177  0.1354 -0.1478  0.1937
  197SOL    HW1 3993   3.995   4.654   0.082  1.5284  1.6852  0.1959
  197SOL    HW2 3994   3.906   4.632   0.202 -0.0638 -1.7687 -1.4773
  198SOL     OW 3995   4.792   7.477   3.385 -0.2283 -0.1195  0.3748
  198SOL    HW1 3996   4.810   7.569   3.403  3.1100 -0.9995  2.5515
  198SOL    HW2 3997   4.736   7.477   3.307 -1.4168  3.7045  1.0323
  199SOL     OW 3998   4.589   5.925   4.226  0.0638  0.2677  0.1470
  199SOL    HW1 3999   4.668   5.910   4.277 -0.5313 -0.0398  1.0016
  199SOL    HW2 4000   4.584   6.020   4.217  0.2896  0.3101  0.4721
  200SOL     OW 4001   3.297   9.602   7.065  0.7935  0.2967  0.4061
  200SOL    HW1 4002   3.255   9.522   7.034  1.1270 -0.2508  1.3209
  200SOL    HW2 4003   3.226   9.664   7.076  0.6522  0.4985 -1.3569
  201SOL     OW 4004   8.432   9.689   7.888 -0.3393  0.4190 -0.4514
  201SOL    HW1 4005   8.339   9.671   7.872 -0.1381  1.0676 -2.8118
  201SOL    HW2 4006   8.449   9.655   7.975 -2.0864 -2.4564 -1.1085
  202SOL     OW 4007   5.349   1.552   3.071  0.3429 -0.5023  0.0357
  202SOL    HW1 4008   5.254   1.552   3.056  0.4317  1.7230 -0.8577
  202SOL    HW2 4009   5.384   1.499   3.000 -0.2461 -1.9472  0.7817
  203SOL     OW 4010   4.900   6.116   8.832  0.1102 -0.2080 -0.6417
  203SOL    HW1 4011   4.954   6.037   8.826 -0.0422 -0.6070  2.1898
  203SOL    HW2 4012   4.958   6.182   8.868 -0.3405  0.4084 -1.0321
  204SOL     OW 4013   5.771   8.646   4.552 -0.0316  0.4052 -0.0654
  204SOL    HW1 4014   5.713   8.721   4.566  0.0809  0.3508  0.7528
  204SOL    HW2 4015   5.787   8.612   4.640 -0.7290 -1.0717 -0.4856
  205SOL     OW 4016   3.171   0.800   5.724  0.2466  0.2232  0.2245
  205SOL    HW1 4017   3.203   0.869   5.782  2.5900 -0.1194 -0.5436
  205SOL    HW2 4018   3.190   0.832   5.635  1.0266 -1.1915 -0.1588
  206SOL     OW 4019   8.982   0.156   2.346 -0.4451 -0.6772  0.3330
  206SOL    HW1 4020   8.909   0.140   2.405  0.9319  1.2498  2.7824
  206SOL    HW2 4021   8.951   0.226   2.289 -1.6004 -2.1802 -0.9763
  207SOL     OW 4022   6.104   1.014  10.505  0.0333 -0.6148  0.0036
  207SOL    HW1 4023   6.122   1.084  10.442  0.7776 -0.7770  0.0332
  207SOL    HW2 4024   6.114   0.933  10.455  1.6310 -0.7883  0.5409
  208SOL     OW 4025   7.647   5.483   2.114  0.1473 -0.0028 -0.1734
  208SOL    HW1 4026   7.618   5.414   2.174 -1.4752  0.1753 -0.6922
  208SOL    HW2 4027   7.705   5.439   2.052  0.8376 -0.4436  0.7639
  209SOL     OW 4028  10.178   4.485   5.285 -0.1988  0.4314 -0.0053
  209SOL    HW1 4029  10.129   4.409   5.317 -0.8517  0.9686  0.3058
  209SOL    HW2 4030  10.268   4.468   5.311 -0.5246  0.2970  1.0902
  210SOL     OW 4031   0.310   2.299  10.609 -0.2438  0.3374 -0.5749
  210SOL    HW1 4032   0.303   2.351  10.529  1.1023  0.6868 -0.4905
  210SOL    HW2 4033   0.272   2.214  10.586 -1.0684  0.8560 -1.1753
  211SOL     OW 4034   1.867   1.274   2.531  0.1244 -0.1926  0.0527
  211SOL    HW1 4035   1.827   1.348   2.576 -0.7034 -0.1690 -0.7018
  211SOL    HW2 4036   1.961   1.296   2.529  0.0520  0.2532  0.8870
  212SOL     OW 4037   8.500   4.365   9.054  0.3299 -0.0503  0.1535
  212SOL    HW1 4038   8.505   4.376   9.149 -1.2346  0.7556  0.1773
  212SOL    HW2 4039   8.407   4.376   9.034  0.6621 -0.0682 -1.4936
  213SOL     OW 4040  10.543   7.374   9.870 -0.0317  0.6307  0.4119
  213SOL    HW1 4041  10.520   7.426   9.793 -2.2524 -0.7628  0.0545
  213SOL    HW2 4042  10.536   7.434   9.944 -0.3243  1.3760 -0.2145
  214SOL     OW 4043   5.355   1.940   5.751  0.3373  0.5784 -0.4461
  214SOL    HW1 4044   5.411   1.864   5.764 -1.6466 -0.6950  1.1651
  214SOL    HW2 4045   5.292   1.912   5.684 -0.1145  0.9670 -0.1906
  215SOL     OW 4046   3.907   4.256   3.627 -0.7129  0.0900  0.5534
  215SOL    HW1 4047   3.836   4.287   3.684 -1.1206  0.6280 -0.2404
  215SOL    HW2 4048   3.866   4.247   3.541  0.0864 -0.0158  0.1842
  216SOL     OW 4049   7.551   0.157   6.318 -0.2350 -0.0738 -0.4976
  216SOL    HW1 4050   7.491   0.172   6.245 -0.2256  1.0713 -0.2799
  216SOL    HW2 4051   7.500   0.179   6.396 -0.1967 -1.1466 -0.1520
  217SOL     OW 4052  10.197   7.541   8.214 -0.2988 -0.2129 -0.0961
  217SOL    HW1 4053  10.237   7.481   8.151  1.2609  0.2617  0.3977
  217SOL    HW2 4054  10.218   7.502   8.300  0.2289  0.7068  0.2031
  218SOL     OW 4055   8.977  10.629  10.541 -0.0906  0.0907  0.3934
  218SOL    HW1 4056   8.955  10.537  10.552 -0.3328  0.1553  0.4393
  218SOL    HW2 4057   9.049  10.629  10.477  0.8364 -0.2335  1.3957
  219SOL     OW 4058   1.656   4.455   2.020  0.7560 -0.0124  0.3939
  219SOL    HW1 4059   1.728   4.393   2.011  0.1561 -0.4524 -5.8237
  219SOL    HW2 4060   1.577   4.402   2.005 -0.1951  1.4915 -0.1879
  220SOL     OW 4061   1.910   4.427   8.219 -0.1194 -0.3183 -0.4588
  220SOL    HW1 4062   1.969   4.371   8.269  0.2256  0.3013 -0.1568
  220SOL    HW2 4063   1.954   4.439   8.135  0.5004  0.6535 -0.0079
  221SOL     OW 4064   9.244   7.142   9.698  0.2965  0.0327  0.5268
  221SOL    HW1 4065   9.229   7.235   9.715  2.1973  0.3306  0.8317
  221SOL    HW2 4066   9.310   7.116   9.762  2.3022 -0.6416 -1.6615
  222SOL     OW 4067   3.991   3.657   8.432  0.0020  0.1354 -0.0885
  222SOL    HW1 4068   3.989   3.615   8.518  2.9874  0.8954  0.4756
  222SOL    HW2 4069   4.017   3.747   8.450 -1.6422  0.9765 -1.6529
  223SOL     OW 4070   2.284   8.638   1.378 -0.0533  0.4885  0.0047
  223SOL    HW1 4071   2.231   8.717   1.367 -0.8177  0.1141  0.8464
  223SOL    HW2 4072   2.371   8.670   1.401 -1.2557  1.1510  4.3773
  224SOL     OW 4073   6.227   3.086   7.712  0.3803  0.4534 -0.4233
  224SOL    HW1 4074   6.198   3.016   7.770 -1.0169  1.7880  0.5648
  224SOL    HW2 4075   6.190   3.064   7.627 -0.2497  0.1214 -0.0682
  225SOL     OW 4076   2.015   5.618   1.464  0.0175 -0.9093 -0.0759
  225SOL    HW1 4077   2.016   5.532   1.506  0.3509 -0.4994  0.7826
  225SOL    HW2 4078   2.108   5.642   1.456 -0.0466 -0.9208 -0.9361
  226SOL     OW 4079   4.555   5.889   7.692  0.1734 -0.0348  0.4533
  226SOL    HW1 4080   4.505   5.940   7.629  1.2557  0.9799  0.3907
  226SOL    HW2 4081   4.598   5.822   7.639  0.8613  0.6445  0.1294
  227SOL     OW 4082  10.417   6.231   8.761 -0.2697  0.0093 -0.5903
  227SOL    HW1 4083  10.497   6.206   8.806 -0.7997  0.3636  0.5852
  227SOL    HW2 4084  10.428   6.199   8.671  1.1259 -0.0400 -0.4103
  228SOL     OW 4085   6.385   4.540   8.539 -0.5996  0.7220  0.3991
  228SOL    HW1 4086   6.337   4.470   8.584 -2.0538  1.8004  0.5846
  228SOL    HW2 4087   6.455   4.564   8.599 -1.4855  0.9716  1.3587
  229SOL     OW 4088   9.493   8.119  10.219  0.3816 -0.1369  0.3964
  229SOL    HW1 4089   9.415   8.127  10.164  0.3230 -1.0273  0.3415
  229SOL    HW2 4090   9.502   8.026  10.235  1.4405 -0.0445  0.4066
  230SOL     OW 4091   0.089   7.772   5.171 -0.2980 -0.6284  0.1936
  230SOL    HW1 4092   0.153   7.761   5.242 -0.5412  0.0236  0.5188
  230SOL    HW2 4093   0.142   7.785   5.093 -0.0244 -1.4073  0.2328
  231SOL     OW 4094   2.619   1.211   7.854  0.3238  0.0146  0.3170
  231SOL    HW1 4095   2.538   1.175   7.890  0.1784 -1.4527 -1.3354
  231SOL    HW2 4096   2.689   1.158   7.893  0.1803 -1.4261 -1.2702
  232SOL     OW 4097   0.313   0.768   7.343  0.6130  0.2784  0.1356
  232SOL    HW1 4098   0.383   0.739   7.402 -0.1342 -0.6414  0.5987
  232SOL    HW2 4099   0.351   0.842   7.295  2.7116 -1.5233 -1.2020
  233SOL     OW 4100   2.869   4.554   1.313 -0.4081  0.3561 -0.2985
  233SOL    HW1 4101   2.838   4.464   1.324 -2.2165  0.8378 -0.9903
  233SOL    HW2 4102   2.790   4.604   1.291  0.5644  2.1002 -0.0507
  234SOL     OW 4103   2.416   0.550   3.179  0.1635  1.0692  0.3886
  234SOL    HW1 4104   2.413   0.645   3.181 -0.4058  1.0493  2.5481
  234SOL    HW2 4105   2.448   0.525   3.265 -0.6153 -0.7165  0.2005
  235SOL     OW 4106   5.295   4.648   6.747 -0.1133 -0.1273 -0.7682
  235SOL    HW1 4107   5.228   4.708   6.779 -0.9877 -1.8947  0.8893
  235SOL    HW2 4108   5.247   4.586   6.692  0.0066 -1.6787  0.7898
  236SOL     OW 4109   0.240   2.741   9.790  0.2520  0.6274 -0.0478
  236SOL    HW1 4110   0.268   2.656   9.757 -0.8392  0.2040  0.0612
  236SOL    HW2 4111   0.172   2.720   9.855  0.7427  1.5342  0.7781
  237SOL     OW 4112   8.767   4.915   3.263  0.3751  0.0081 -0.0596
  237SOL    HW1 4113   8.745   4.824   3.240  1.2739 -0.3885  0.5862
  237SOL    HW2 4114   8.720   4.931   3.344  0.0022  0.2165 -0.3149
  238SOL     OW 4115   8.095   9.024   2.427  0.0227  0.1547 -0.7238
  238SOL    HW1 4116   8.004   9.014   2.402 -0.0190  1.4025 -1.1205
  238SOL    HW2 4117   8.141   8.954   2.381 -0.6373 -0.0754 -1.0345
  239SOL     OW 4118   2.610  10.552  10.541 -0.0959  0.5037  0.7731
  239SOL    HW1 4119   2.590  10.573  10.450  2.6923  2.3194  0.4694
  239SOL    HW2 4120   2.581  10.628  10.591  1.7626  1.1916  0.8704
  240SOL     OW 4121   0.220   5.989   5.225  0.4013 -0.2581 -0.0205
  240SOL    HW1 4122   0.229   6.081   5.252  0.8104  0.1221 -1.3442
  240SOL    HW2 4123   0.234   5.991   5.130 -1.6910 -1.3759 -0.4216
  241SOL     OW 4124   0.686   1.838   8.635 -0.8707  0.5557  0.2020
  241SOL    HW1 4125   0.597   1.818   8.665 -0.8955 -0.4464 -0.5007
  241SOL    HW2 4126   0.675   1.873   8.547 -0.6127  1.2096  0.4166
  242SOL     OW 4127   0.284   7.357   3.896  0.6504 -0.3297  0.5603
  242SOL    HW1 4128   0.294   7.381   3.988  1.4688  0.0072  0.3921
  242SOL    HW2 4129   0.190   7.369   3.878  0.3892 -0.9129  1.4821
  243SOL     OW 4130   9.974   3.462   9.494  0.3361  0.0840 -0.3290
  243SOL    HW1 4131  10.012   3.550   9.492  0.8250 -0.1153  0.1489
  243SOL    HW2 4132   9.993   3.429   9.582 -0.3763 -0.2692 -0.3017
  244SOL     OW 4133   5.386   9.832   9.652  0.3049 -0.3399 -0.5494
  244SOL    HW1 4134   5.442   9.828   9.729 -0.4852  0.2856  0.0675
  244SOL    HW2 4135   5.447   9.848   9.579  1.1274 -1.5610 -0.1708
  245SOL     OW 4136  10.260   9.234   9.702  0.2432 -0.0650  0.2541
  245SOL    HW1 4137  10.237   9.323   9.730  2.2649  0.2892  0.9577
  245SOL    HW2 4138  10.253   9.237   9.606  1.5026  1.2596  0.1664
  246SOL     OW 4139   2.536   7.665   6.763 -0.3245 -0.4566  0.2612
  246SOL    HW1 4140   2.596   7.590   6.755  0.8064  0.6223 -2.8556
  246SOL    HW2 4141   2.456   7.637   6.719  0.4239  0.3540 -1.7483
  247SOL     OW 4142  10.564   8.581   3.397  0.5238 -0.4122 -0.1073
  247SOL    HW1 4143  10.616   8.534   3.332  3.4322 -0.8926  2.2958
  247SOL    HW2 4144  10.506   8.515   3.435  0.0852 -0.5297 -0.9678
  248SOL     OW 4145   9.645   5.755   5.605 -0.0558  0.0830 -0.1621
  248SOL    HW1 4146   9.573   5.817   5.609 -0.1981 -0.1152  0.4118
  248SOL    HW2 4147   9.610   5.682   5.554 -0.9765 -0.9115  1.7784
  249SOL     OW 4148   6.289   8.334  10.239 -0.2391  0.2307  0.0500
  249SOL    HW1 4149   6.245   8.379  10.167  0.2162 -0.5513 -0.7473
  249SOL    HW2 4150   6.359   8.393  10.265 -0.5885  0.6485  0.0486
  250SOL     OW 4151   2.383   1.825   2.181 -0.1837 -0.0012  0.2319
  250SOL    HW1 4152   2.417   1.913   2.164  0.6402 -0.2690  0.4271
  250SOL    HW2 4153   2.461   1.770   2.187 -0.4597 -0.2517  2.9919
  251SOL     OW 4154   6.872  10.434   7.037 -0.0639 -0.4244  0.4110
  251SOL    HW1 4155   6.824  10.514   7.059 -0.8931 -0.5125 -0.9818
  251SOL    HW2 4156   6.917  10.455   6.955  0.8637 -0.9435  0.7693
  252SOL     OW 4157   9.858  10.465   4.819 -0.1701 -0.0209  0.1487
  252SOL    HW1 4158   9.930  10.517   4.785 -1.2831  1.9577  0.6225
  252SOL    HW2 4159   9.857  10.483   4.913 -0.1376 -1.5277  0.4699
  253SOL     OW 4160   7.634   2.542   7.634 -0.0541  0.2779 -0.1297
  253SOL    HW1 4161   7.657   2.531   7.542 -0.5847  1.3093 -0.4027
  253SOL    HW2 4162   7.702   2.600   7.669 -0.4690  0.8055 -0.1710
  254SOL     OW 4163   6.205   2.450   7.874  0.1863 -0.5174  0.2573
  254SOL    HW1 4164   6.158   2.382   7.826 -0.4479  0.7634 -1.0149
  254SOL    HW2 4165   6.142   2.522   7.881  0.4852 -0.3861  2.4530
  255SOL     OW 4166   0.981   8.624   7.819  0.2244 -0.0967 -0.4135
  255SOL    HW1 4167   1.063   8.661   7.853 -0.2170  0.2314  0.3094
  255SOL    HW2 4168   1.010   8.564   7.751  1.3125 -2.2433  1.7660
  256SOL     OW 4169  10.071   3.371   5.210 -0.2142  0.2170 -0.1008
  256SOL    HW1 4170  10.021   3.316   5.150 -2.2481 -0.1987  1.8587
  256SOL    HW2 4171  10.153   3.323   5.224  0.0533  0.0521 -2.0486
  257SOL     OW 4172  10.828   8.595   0.302  0.7653  0.0344  0.0974
  257SOL    HW1 4173  10.862   8.587   0.391 -0.5590 -0.9305  0.5401
  257SOL    HW2 4174  10.735   8.572   0.309  1.0289 -1.9202 -1.8131
  258SOL     OW 4175  10.802   7.406   4.901 -0.1731  0.2574  0.1381
  258SOL    HW1 4176  10.783   7.482   4.846 -0.1254 -1.0501 -1.7736
  258SOL    HW2 4177  10.827   7.443   4.985 -0.8039  2.3298 -0.5299
  259SOL     OW 4178   6.581   1.730   0.880 -0.0230 -0.1624 -0.4452
  259SOL    HW1 4179   6.574   1.637   0.901  0.4310 -0.1165 -0.0576
  259SOL    HW2 4180   6.600   1.772   0.964 -0.0804  0.2594 -0.6418
  260SOL     OW 4181   6.309   2.498   5.467 -0.0892  0.5315 -0.0825
  260SOL    HW1 4182   6.384   2.556   5.460  1.2226 -1.1414 -0.6648
  260SOL    HW2 4183   6.312   2.444   5.388 -2.2508  0.7768 -0.4076
  261SOL     OW 4184   1.920   5.509   4.275 -0.3127  0.0211  0.2063
  261SOL    HW1 4185   1.905   5.544   4.187  0.1936 -0.6738 -0.1749
  261SOL    HW2 4186   1.944   5.417   4.259  1.9154  0.4321  0.8953
  262SOL     OW 4187   3.985   5.904   4.688 -0.4061 -0.4567  0.0167
  262SOL    HW1 4188   3.933   5.978   4.655 -1.7191 -0.6260  1.5487
  262SOL    HW2 4189   3.922   5.833   4.697  0.5563 -1.3348 -0.1015
  263SOL     OW 4190   3.680   7.026   0.304 -0.5281 -0.2882  0.2093
  263SOL    HW1 4191   3.677   6.954   0.241 -1.3634  0.0041 -0.0942
  263SOL    HW2 4192   3.675   7.105   0.251 -0.1835 -0.0126  0.5802
  264SOL     OW 4193   3.661   3.184   3.353 -0.3249 -0.1834 -1.1239
  264SOL    HW1 4194   3.640   3.274   3.377  0.2839  0.0964 -1.5967
  264SOL    HW2 4195   3.657   3.135   3.436  0.0489  0.4225 -0.7428
  265SOL     OW 4196  10.028  10.644   4.705 -0.5358  0.1791  0.5844
  265SOL    HW1 4197  10.121  10.625   4.691 -0.9674 -1.1971 -0.6598
  265SOL    HW2 4198  10.001  10.692   4.626 -1.0302 -0.0553  0.6044
  266SOL     OW 4199   8.412   8.583  10.359 -0.1078  0.1724  0.8439
  266SOL    HW1 4200   8.505   8.574  10.337 -0.0572  1.0448  0.6897
  266SOL    HW2 4201   8.385   8.665  10.318 -1.1820 -0.5200  0.1221
  267SOL     OW 4202   0.320   7.812   8.280 -0.0098 -0.3940 -0.2202
  267SOL    HW1 4203   0.238   7.806   8.231  1.8405 -0.8358 -3.5754
  267SOL    HW2 4204   0.383   7.846   8.217  2.4192  0.0378  2.2359
  268SOL     OW 4205   7.756   4.441   6.619  0.0232 -0.0747  0.1792
  268SOL    HW1 4206   7.720   4.527   6.595 -1.0977 -0.7014 -0.5040
  268SOL    HW2 4207   7.845   4.459   6.647 -0.3572  1.3794  0.5382
  269SOL     OW 4208   6.435  10.419   6.044 -0.1252  0.2998 -0.1972
  269SOL    HW1 4209   6.477  10.440   6.127 -0.2076 -0.2279 -0.0205
  269SOL    HW2 4210   6.444  10.325   6.035 -0.3936  0.3106 -0.6395
  270SOL     OW 4211   9.388   3.520   4.909 -0.2387 -0.5315 -0.0405
  270SOL    HW1 4212   9.410   3.495   4.999  1.2212 -0.2694 -0.2928
  270SOL    HW2 4213   9.348   3.442   4.871 -1.0156 -0.5890  0.8770
  271SOL     OW 4214  10.545  10.108   2.876 -0.5170  0.1074  0.5211
  271SOL    HW1 4215  10.455  10.122   2.846  1.2944  3.0812 -4.9915
  271SOL    HW2 4216  10.559  10.177   2.941 -2.0143 -0.1005  1.1120
  272SOL     OW 4217   7.245   6.780   9.256 -0.3422  0.2897  0.0978
  272SOL    HW1 4218   7.154   6.765   9.231 -0.5160  1.0358  0.2373
  272SOL    HW2 4219   7.248   6.759   9.349 -0.9968  2.6267  0.7192
  273SOL     OW 4220   6.508   4.395   5.028  0.9177 -0.9546 -0.4028
  273SOL    HW1 4221   6.422   4.354   5.036  0.6476 -0.3443 -0.1306
  273SOL    HW2 4222   6.564   4.326   4.993  0.3001 -1.3341 -0.6555
  274SOL     OW 4223   1.840   1.753   3.909  1.1124  0.0596  0.0434
  274SOL    HW1 4224   1.852   1.674   3.857  1.2201 -1.3940  2.1599
  274SOL    HW2 4225   1.793   1.724   3.988 -0.7903  2.4924 -0.0395
  275SOL     OW 4226  10.790   8.173   4.143 -0.5362 -0.9941 -0.0118
  275SOL    HW1 4227  10.704   8.207   4.119  0.3632  1.6091  0.0914
  275SOL    HW2 4228  10.805   8.205   4.232  0.8669 -0.6634 -0.3323
  276SOL     OW 4229  10.778   0.808   4.591  0.2735  0.6139 -0.0079
  276SOL    HW1 4230  10.866   0.812   4.554  1.4070  0.3040  2.4846
  276SOL    HW2 4231  10.782   0.860   4.671 -1.6943  0.2048  0.4243
  277SOL     OW 4232   3.421   1.893   2.971  0.4667 -0.2751 -0.6768
  277SOL    HW1 4233   3.378   1.973   3.001  1.0235 -0.0526 -0.4575
  277SOL    HW2 4234   3.462   1.917   2.888  2.9258  0.4783  0.6453
  278SOL     OW 4235   0.146   3.154   2.286 -0.5098 -0.1482  0.2144
  278SOL    HW1 4236   0.108   3.079   2.332  0.2973 -1.4729 -1.1979
  278SOL    HW2 4237   0.237   3.130   2.271 -1.2760 -1.0612 -4.3884
  279SOL     OW 4238   8.138  10.231   6.157  0.3596 -0.2772 -0.1618
  279SOL    HW1 4239   8.193  10.301   6.192  0.4726  0.0027 -0.8838
  279SOL    HW2 4240   8.052  10.271   6.145 -0.1022 -0.7945  1.2403
  280SOL     OW 4241   7.806   6.386   0.280 -0.1051  0.1662 -0.2947
  280SOL    HW1 4242   7.803   6.367   0.374 -0.5350  1.6121 -0.0054
  280SOL    HW2 4243   7.873   6.326   0.246 -1.1941 -1.6351  0.6054
  281SOL     OW 4244   8.053   5.418  10.024 -0.0647 -0.1621 -0.6150
  281SOL    HW1 4245   8.145   5.444  10.027  0.0134 -0.2739 -1.8748
  281SOL    HW2 4246   8.026   5.416  10.116  0.7524  1.4367 -0.2974
  282SOL     OW 4247   1.880   5.190   0.441 -0.8513  0.6121 -0.3127
  282SOL    HW1 4248   1.810   5.135   0.405 -0.5591 -0.1659  0.2774
  282SOL    HW2 4249   1.915   5.236   0.365 -1.2381  0.1292 -0.7959
  283SOL     OW 4250   7.835   5.329   0.702  0.1587  0.1934 -0.3730
  283SOL    HW1 4251   7.844   5.407   0.647  0.4239  0.2952 -0.1892
  283SOL    HW2 4252   7.896   5.266   0.665  0.0346  0.1183 -0.4472
  284SOL     OW 4253   8.849   8.426   7.069 -0.1114 -0.1582  0.0935
  284SOL    HW1 4254   8.755   8.446   7.066 -0.0811 -0.1073 -0.6258
  284SOL    HW2 4255   8.891   8.512   7.070 -0.0229 -0.1470 -1.6592
  285SOL     OW 4256   2.107   8.283   4.673 -0.6444 -0.2596 -0.3108
  285SOL    HW1 4257   2.159   8.259   4.750 -1.8981 -2.9300 -0.1618
  285SOL    HW2 4258   2.056   8.359   4.702  0.4515  0.0943  0.7723
  286SOL     OW 4259   9.369   0.166   9.333 -0.2490  0.3467 -0.2628
  286SOL    HW1 4260   9.320   0.111   9.394 -1.2905  1.5433  0.0051
  286SOL    HW2 4261   9.302   0.204   9.276  0.4806  1.1570 -0.5918
  287SOL     OW 4262  10.397   8.191   0.236  0.2814 -0.9218 -0.3357
  287SOL    HW1 4263  10.406   8.106   0.278 -1.8335 -0.8035  0.4730
  287SOL    HW2 4264  10.321   8.231   0.279  0.3205  0.7579 -1.7250
  288SOL     OW 4265   1.477   5.526   1.093  0.2747  0.0930 -0.4423
  288SOL    HW1 4266   1.439   5.482   1.017  1.3388 -0.2248 -0.8098
  288SOL    HW2 4267   1.545   5.582   1.056  1.7318 -1.0871  0.3700
  289SOL     OW 4268   4.886   5.104   7.672  0.0301  0.2048  0.4701
  289SOL    HW1 4269   4.913   5.167   7.605  0.9257  0.5501  1.1352
  289SOL    HW2 4270   4.957   5.041   7.675 -0.4430 -0.3361  0.4492
  290SOL     OW 4271   2.081   9.948   4.968 -0.4644 -0.4234 -0.1024
  290SOL    HW1 4272   2.106   9.948   5.060  0.8396 -0.4226 -0.4403
  290SOL    HW2 4273   1.989   9.974   4.968 -0.4610 -0.3611  1.1899
  291SOL     OW 4274  10.113   8.574   3.405  0.2560 -0.5122  0.3370
  291SOL    HW1 4275  10.159   8.492   3.388  2.3230 -0.0539  3.0799
  291SOL    HW2 4276  10.022   8.549   3.419  0.2902 -1.9243 -1.5967
  292SOL     OW 4277   2.393   7.833   3.975 -0.4314  0.3320 -0.1042
  292SOL    HW1 4278   2.302   7.813   3.953  0.0159 -0.5409 -1.2776
  292SOL    HW2 4279   2.428   7.874   3.896  0.4711 -0.3347 -0.0649
  293SOL     OW 4280   1.459   7.976   3.916 -0.2487 -0.1744  0.2845
  293SOL    HW1 4281   1.398   7.937   3.853  0.5704  0.0363 -0.6517
  293SOL    HW2 4282   1.511   8.037   3.865  1.7830 -1.4467  0.7301
  294SOL     OW 4283   5.535   7.203   6.403  0.3908 -0.0267 -0.5730
  294SOL    HW1 4284   5.482   7.124   6.397  1.0515 -0.4382 -1.0765
  294SOL    HW2 4285   5.578   7.210   6.318  0.2353  0.9538 -0.5915
  295SOL     OW 4286   9.513   6.053   8.641  0.1078 -0.4636  0.1193
  295SOL    HW1 4287   9.555   6.009   8.567  0.0300 -1.5177  0.6805
  295SOL    HW2 4288   9.554   6.139   8.645  0.2576 -0.4691 -1.0154
  296SOL     OW 4289   4.995   6.077   8.221 -0.1817  0.2146 -0.0155
  296SOL    HW1 4290   4.982   6.169   8.244 -0.1213 -0.0459  1.1585
  296SOL    HW2 4291   5.065   6.048   8.279  1.3829 -0.0215 -1.9136
  297SOL     OW 4292   4.007   7.429   2.829  0.3302 -0.1194 -0.1419
  297SOL    HW1 4293   3.943   7.474   2.774 -0.0924  0.1046  0.5190
  297SOL    HW2 4294   4.028   7.349   2.780  0.6833  0.5264 -1.0698
  298SOL     OW 4295   4.525   9.750   2.588 -0.0377 -0.8917 -0.6640
  298SOL    HW1 4296   4.560   9.838   2.602 -0.2539 -0.7890 -0.7728
  298SOL    HW2 4297   4.435   9.755   2.620  0.4309 -1.5081  0.8499
  299SOL     OW 4298   8.888   6.600   2.229  0.2626 -0.3989  0.2727
  299SOL    HW1 4299   8.847   6.581   2.145  1.2981  1.7379 -0.8128
  299SOL    HW2 4300   8.957   6.534   2.238  2.0750  0.9880 -2.0839
  300SOL     OW 4301   2.980   1.527   7.499 -0.0083 -0.3295  0.2591
  300SOL    HW1 4302   3.031   1.607   7.510 -0.8766  0.3757 -0.5738
  300SOL    HW2 4303   2.919   1.548   7.427  0.6382 -2.1939 -0.9003
  301SOL     OW 4304   1.201   8.704   3.176  0.1622  0.2276 -0.4314
  301SOL    HW1 4305   1.151   8.783   3.157  2.1990  1.2026 -2.2028
  301SOL    HW2 4306   1.190   8.689   3.270 -0.2150  2.6578 -0.0352
  302SOL     OW 4307   1.689   7.619   5.276  0.6655  0.0776  0.2946
  302SOL    HW1 4308   1.629   7.577   5.213  2.0324 -0.4255 -0.7308
  302SOL    HW2 4309   1.678   7.712   5.260  0.4605 -0.0229 -0.1902
  303SOL     OW 4310  10.757   9.707   6.374  0.1078  0.4527 -0.0519
  303SOL    HW1 4311  10.670   9.712   6.335  0.9283 -4.2372 -3.4005
  303SOL    HW2 4312  10.747   9.644   6.446  0.4273  1.5023  0.9377
  304SOL     OW 4313   5.773  10.369   4.071  0.0423  0.5214  0.2982
  304SOL    HW1 4314   5.787  10.382   4.165 -0.3093  0.7336  0.3216
  304SOL    HW2 4315   5.777  10.457   4.034 -0.6445  0.5252  0.2275
  305SOL     OW 4316   0.594   9.711   9.515  0.1564 -0.4124  0.6016
  305SOL    HW1 4317   0.679   9.740   9.546  0.8917 -0.5095 -1.2269
  305SOL    HW2 4318   0.536   9.787   9.527  1.2559  0.7399 -1.0220
  306SOL     OW 4319   9.567   1.117   1.925 -0.0428 -0.0564 -0.3206
  306SOL    HW1 4320   9.625   1.080   1.858 -0.7540  0.7125 -1.4008
  306SOL    HW2 4321   9.533   1.040   1.972 -0.1136 -0.6697 -1.3371
  307SOL     OW 4322   3.896  10.144   7.841  0.4284  0.0332 -0.4433
  307SOL    HW1 4323   3.872  10.186   7.759  0.8567 -0.9774 -1.1056
  307SOL    HW2 4324   3.992  10.144   7.841  0.4346  0.4522  0.2824
  308SOL     OW 4325   5.186   2.015   7.654  0.1141  0.2799 -0.5820
  308SOL    HW1 4326   5.211   1.923   7.642  2.9332  0.6681  1.2298
  308SOL    HW2 4327   5.232   2.061   7.584  0.3117  0.5135 -0.2970
  309SOL     OW 4328   9.542   0.038   3.167 -0.8201  0.3824  0.4084
  309SOL    HW1 4329   9.475  -0.026   3.191 -0.3914  0.1274  0.9783
  309SOL    HW2 4330   9.591  -0.005   3.097  0.2532 -0.4844  1.6282
  310SOL     OW 4331   7.257   9.940   8.852  0.2764 -0.0288  0.0145
  310SOL    HW1 4332   7.318   9.872   8.882  1.9317  1.3185 -0.1887
  310SOL    HW2 4333   7.197   9.952   8.926  1.0347 -0.5009  0.7271
  311SOL     OW 4334  10.438   1.280  10.222  0.5226  0.1484 -0.2582
  311SOL    HW1 4335  10.400   1.211  10.168 -1.5817  0.6449  0.4863
  311SOL    HW2 4336  10.446   1.355  10.162 -0.0745  0.1557 -0.3354
  312SOL     OW 4337   7.433   8.157   1.345 -0.4485  0.5833 -0.4227
  312SOL    HW1 4338   7.401   8.195   1.263 -0.7842  1.3550  0.0626
  312SOL    HW2 4339   7.527   8.175   1.344 -0.2848 -0.2103 -1.0522
  313SOL     OW 4340   5.647   2.133   3.945  0.1770  0.0755  0.0414
  313SOL    HW1 4341   5.737   2.123   3.915  0.1365  1.0366 -0.4577
  313SOL    HW2 4342   5.611   2.201   3.888 -0.4494  0.6845  1.1359
  314SOL     OW 4343  10.652   5.357   5.893  0.1434  0.1448  0.4001
  314SOL    HW1 4344  10.576   5.380   5.946 -1.1276 -0.8717 -0.9323
  314SOL    HW2 4345  10.702   5.439   5.886 -2.2906  1.6133 -1.0391
  315SOL     OW 4346   6.326  10.679   5.997 -0.0560 -0.3528  0.1166
  315SOL    HW1 4347   6.364  10.591   5.995  2.8971  0.8439 -0.8506
  315SOL    HW2 4348   6.385  10.732   5.944 -2.8368  1.8558 -1.0185
  316SOL     OW 4349   9.419   2.549   7.545 -0.7344  0.2456  0.2240
  316SOL    HW1 4350   9.474   2.589   7.478 -0.8553 -0.6490 -0.4256
  316SOL    HW2 4351   9.479   2.532   7.618 -0.4171  0.4207  0.0098
  317SOL     OW 4352   5.932   0.251   8.401 -0.4854  0.4802  0.4536
  317SOL    HW1 4353   6.022   0.270   8.426  0.0990 -0.2420 -0.9836
  317SOL    HW2 4354   5.925   0.155   8.410 -0.9768  0.4826  0.1167
  318SOL     OW 4355  10.196   6.572   8.291 -0.2141  0.0584  0.1137
  318SOL    HW1 4356  10.198   6.667   8.280  1.8693  0.3299  1.9719
  318SOL    HW2 4357  10.257   6.538   8.226 -3.5371 -0.5020 -3.0314
  319SOL     OW 4358   9.619   7.095   9.287  0.3716 -0.0051 -0.1500
  319SOL    HW1 4359   9.536   7.141   9.274 -0.0629 -0.9287 -0.6638
  319SOL    HW2 4360   9.628   7.039   9.210  2.0023  0.8598 -0.6371
  320SOL     OW 4361   0.463   7.600   9.433 -0.3390 -0.3792  0.5006
  320SOL    HW1 4362   0.508   7.674   9.392  0.8557 -0.1291  2.1765
  320SOL    HW2 4363   0.486   7.525   9.379  0.1033  0.1437 -0.0500
  321SOL     OW 4364   8.365   8.443   3.338 -0.1872 -0.2038 -0.5445
  321SOL    HW1 4365   8.288   8.449   3.282 -0.4881 -0.1413 -0.1222
  321SOL    HW2 4366   8.367   8.352   3.366 -0.4727 -0.0545 -0.0357
  322SOL     OW 4367   5.408   7.789   9.675 -0.0467 -0.4246  0.3850
  322SOL    HW1 4368   5.492   7.826   9.701  0.5397 -1.8658  0.6468
  322SOL    HW2 4369   5.426   7.696   9.664 -0.9809 -0.3502 -2.2770
  323SOL     OW 4370   6.956   2.181  10.082 -0.4144  0.1302 -0.1506
  323SOL    HW1 4371   6.890   2.127  10.126  0.3627  0.1432  1.0774
  323SOL    HW2 4372   6.948   2.267  10.123  1.0734 -0.1476  0.8155
  324SOL     OW 4373   7.913  10.205   3.909  0.0238  0.2364 -0.3022
  324SOL    HW1 4374   7.852  10.277   3.923  1.6061  1.7453 -0.7509
  324SOL    HW2 4375   7.999  10.247   3.906  1.2267 -1.9114  1.3623
  325SOL     OW 4376  10.239   2.398   8.846 -0.1796  0.2775  0.0454
  325SOL    HW1 4377  10.248   2.467   8.780 -1.9224 -0.3561 -0.9018
  325SOL    HW2 4378  10.254   2.444   8.929  0.7779  1.3514 -0.6826
  326SOL     OW 4379   1.081   3.612   4.101  0.2977 -0.3931 -0.2830
  326SOL    HW1 4380   0.992   3.633   4.130 -0.0066  0.0707 -1.5104
  326SOL    HW2 4381   1.118   3.561   4.173  0.0438  1.8216  1.5418
  327SOL     OW 4382   7.183   9.448   2.166 -0.2980  0.2064  0.0398
  327SOL    HW1 4383   7.147   9.360   2.157 -1.4622  0.8438 -2.1861
  327SOL    HW2 4384   7.115   9.497   2.213 -0.3106  0.2973 -0.0744
  328SOL     OW 4385   8.351   3.650   5.195  0.7777 -0.0982 -0.2816
  328SOL    HW1 4386   8.348   3.702   5.275  0.3367 -1.2364  0.4569
  328SOL    HW2 4387   8.409   3.700   5.136 -0.8275  2.0035 -0.1794
  329SOL     OW 4388   2.848   1.437   6.053 -0.0200 -0.0957  0.3554
  329SOL    HW1 4389   2.774   1.425   5.993  1.4777  0.3701 -1.6737
  329SOL    HW2 4390   2.926   1.419   6.000  1.4564  1.8487  1.7262
  330SOL     OW 4391   1.604   8.884   8.288 -0.5271  0.3773 -0.1620
  330SOL    HW1 4392   1.654   8.803   8.277 -0.7129  0.4297 -1.5090
  330SOL    HW2 4393   1.669   8.948   8.318  0.0110  0.1802 -0.8719
  331SOL     OW 4394   7.832   3.718   1.830  0.0029 -0.5597  0.5839
  331SOL    HW1 4395   7.910   3.754   1.787  0.1249 -1.2927  0.1807
  331SOL    HW2 4396   7.865   3.644   1.881 -0.3487 -0.5210  0.8733
  332SOL     OW 4397   4.911   1.852   7.647 -0.0442  0.3867  0.0346
  332SOL    HW1 4398   4.951   1.765   7.651 -0.2165  0.3466  1.0416
  332SOL    HW2 4399   4.984   1.911   7.631  0.2648  0.1955  0.7210
  333SOL     OW 4400   2.763   1.210   7.577 -0.0202 -0.0138 -0.0441
  333SOL    HW1 4401   2.799   1.125   7.604 -0.9063  0.0334  1.3889
  333SOL    HW2 4402   2.705   1.235   7.648  1.0212  2.3155  0.0796
  334SOL     OW 4403   3.647   4.229   5.106 -0.0228  0.4805  0.1467
  334SOL    HW1 4404   3.709   4.266   5.042 -0.9769  2.0168  0.0474
  334SOL    HW2 4405   3.702   4.184   5.170  1.0915  0.6536 -0.6536
  335SOL     OW 4406   7.743   4.033   9.414  0.0591 -0.1801  0.0596
  335SOL    HW1 4407   7.706   4.010   9.329  2.1030  1.3375 -1.3571
  335SOL    HW2 4408   7.824   3.981   9.419  0.6506  0.7648  0.4378
  336SOL     OW 4409   1.380   0.322   3.224  0.0464  0.4435  0.0406
  336SOL    HW1 4410   1.340   0.369   3.151 -0.5293 -0.6497 -0.3654
  336SOL    HW2 4411   1.469   0.304   3.195 -0.6868 -1.4843 -1.1281
  337SOL     OW 4412   8.726   3.256   0.523  0.4639 -0.2782 -0.5222
  337SOL    HW1 4413   8.775   3.174   0.527 -0.0293 -0.5109  0.9708
  337SOL    HW2 4414   8.749   3.302   0.603 -0.6750  0.2360 -0.4734
  338SOL     OW 4415   7.201   9.047   1.910 -0.1233 -0.2688 -0.1284
  338SOL    HW1 4416   7.135   8.980   1.928 -0.1336 -0.4663 -0.9008
  338SOL    HW2 4417   7.173   9.087   1.828  0.9280 -0.6364 -0.6882
  339SOL     OW 4418   7.252   7.527   4.315  0.2935 -0.5938  0.1534
  339SOL    HW1 4419   7.256   7.477   4.397  0.0819 -2.3752 -0.8761
  339SOL    HW2 4420   7.318   7.596   4.326  1.7136 -2.0148  1.0474
  340SOL     OW 4421   9.332   8.332   1.664 -0.4529  0.0796  0.2193
  340SOL    HW1 4422   9.311   8.294   1.749 -1.2597 -0.0517 -0.0291
  340SOL    HW2 4423   9.405   8.391   1.682 -0.1626 -0.4598  0.8776
  341SOL     OW 4424   3.195   4.267   8.955  0.1966  0.2333  0.0365
  341SOL    HW1 4425   3.148   4.184   8.967 -1.7831  1.1060 -1.1656
  341SOL    HW2 4426   3.126   4.332   8.941  1.6570  2.2356  1.5334
  342SOL     OW 4427  10.697   7.554   7.928 -0.2970  0.3661  0.3439
  342SOL    HW1 4428  10.680   7.538   8.021 -0.8395 -1.0769  0.0182
  342SOL    HW2 4429  10.611   7.563   7.889 -0.0598  1.6042  0.0552
  343SOL     OW 4430   2.140   3.312   9.219  0.5089 -0.4263  0.4976
  343SOL    HW1 4431   2.052   3.294   9.252 -1.4428  1.1353 -3.1880
  343SOL    HW2 4432   2.194   3.319   9.297 -2.9098 -0.1049  3.0881
  344SOL     OW 4433   4.054   7.842   6.931  0.5278 -0.0397  0.6821
  344SOL    HW1 4434   4.035   7.854   7.024  0.2808  0.1924  0.6008
  344SOL    HW2 4435   4.061   7.930   6.896  0.7661 -0.1283  0.5093
  345SOL     OW 4436   4.361   3.827   5.467  0.1796 -0.4397 -0.3160
  345SOL    HW1 4437   4.390   3.744   5.428 -1.1418 -1.7277  1.3208
  345SOL    HW2 4438   4.269   3.812   5.490  0.1074  1.2540  0.6212
  346SOL     OW 4439   4.567   3.672  10.710 -0.1861  0.2376  0.0860
  346SOL    HW1 4440   4.522   3.611  10.652  1.6169 -2.7148  1.5409
  346SOL    HW2 4441   4.503   3.691  10.779 -1.0931  0.8798 -0.8898
  347SOL     OW 4442   7.151   6.649   1.294 -0.1794  0.0205  0.1440
  347SOL    HW1 4443   7.108   6.690   1.368 -0.7012 -0.5611  0.1739
  347SOL    HW2 4444   7.085   6.648   1.225  0.3580  0.7170 -0.3956
  348SOL     OW 4445   9.937   3.560   9.118  0.5288  0.9771  0.2200
  348SOL    HW1 4446   9.948   3.626   9.049 -0.5524  0.7403 -0.1920
  348SOL    HW2 4447   9.848   3.528   9.107  0.8811 -0.2259  0.7151
  349SOL     OW 4448   6.344   2.928   0.619 -0.2920  0.0228  0.1511
  349SOL    HW1 4449   6.428   2.940   0.575  0.2301 -0.4162  0.9883
  349SOL    HW2 4450   6.368   2.909   0.710 -1.3344  1.4559  0.7784
  350SOL     OW 4451   0.896   8.870   2.468 -0.2972  0.3989 -0.1800
  350SOL    HW1 4452   0.802   8.861   2.482 -0.0816 -0.3907  0.8807
  350SOL    HW2 4453   0.907   8.872   2.373 -1.4716  1.5947 -0.3156
  351SOL     OW 4454   1.191   2.674   3.536  0.1591 -0.0871 -0.6277
  351SOL    HW1 4455   1.196   2.583   3.508  0.6513  0.6333 -3.1771
  351SOL    HW2 4456   1.128   2.674   3.608  0.3103 -2.4465 -0.4249
  352SOL     OW 4457   8.007   9.957   2.029  0.0557 -0.2764  0.2718
  352SOL    HW1 4458   8.060  10.033   2.048 -0.7388  0.5791 -0.7745
  352SOL    HW2 4459   8.054   9.912   1.958  0.3038 -0.5261  0.5924
  353SOL     OW 4460   2.111   0.075  10.189 -0.3136 -0.0785  0.1624
  353SOL    HW1 4461   2.117   0.095  10.282  1.6032 -0.5484  0.1791
  353SOL    HW2 4462   2.103  -0.020  10.185  0.0296 -0.0977 -0.1554
  354SOL     OW 4463   0.027   1.077   5.147  0.2975  0.1925  0.2788
  354SOL    HW1 4464  -0.062   1.110   5.161 -1.0670 -1.5027 -3.2869
  354SOL    HW2 4465   0.071   1.147   5.100 -0.2236 -0.1466 -0.7462
  355SOL     OW 4466   9.397   4.507   8.693  0.2536 -0.1308  0.4914
  355SOL    HW1 4467   9.471   4.452   8.720  1.1215  0.6524 -0.2161
  355SOL    HW2 4468   9.437   4.580   8.646 -0.9327  0.6913  0.7065
  356SOL     OW 4469   2.684   6.204   3.083 -0.2118  0.3806  0.6296
  356SOL    HW1 4470   2.699   6.124   3.134  0.2749  0.6921  0.9984
  356SOL    HW2 4471   2.595   6.230   3.104 -0.4189 -0.1402  0.3992
  357SOL     OW 4472   8.062  10.828   0.129  0.0206 -0.0881 -0.3380
  357SOL    HW1 4473   8.080  10.740   0.096 -0.9339 -0.0737 -0.9398
  357SOL    HW2 4474   8.123  10.839   0.202  0.0924 -1.2897 -0.1888
  358SOL     OW 4475  10.529   1.736   1.144  0.3829 -0.0503 -0.0935
  358SOL    HW1 4476  10.546   1.643   1.132  3.9965  0.3067  1.0062
  358SOL    HW2 4477  10.553   1.753   1.236  1.7325  2.2331 -0.7839
  359SOL     OW 4478  10.332   4.179   2.190  0.0538  0.9416 -0.5788
  359SOL    HW1 4479  10.239   4.164   2.202  0.3070 -2.0402 -1.5145
  359SOL    HW2 4480  10.344   4.182   2.095  1.0178  0.3273 -0.4940
  360SOL     OW 4481   6.366   7.247   9.218  0.0297 -0.0696 -0.0926
  360SOL    HW1 4482   6.329   7.300   9.148  0.6897 -0.3175 -0.6346
  360SOL    HW2 4483   6.434   7.194   9.176  0.9737  0.3362  0.8654
  361SOL     OW 4484   9.407   3.610  10.561 -0.5668  0.3880 -0.3166
  361SOL    HW1 4485   9.453   3.688  10.530  1.4726 -0.7409 -0.3476
  361SOL    HW2 4486   9.425   3.544  10.493 -4.3925  0.4547 -1.6472
  362SOL     OW 4487   1.371  10.742   3.796 -0.4422 -0.3136  0.4443
  362SOL    HW1 4488   1.453  10.748   3.845  1.0786 -3.0624 -1.4421
  362SOL    HW2 4489   1.362  10.826   3.753  1.2473  0.1523  0.9277
  363SOL     OW 4490   9.324   7.669   4.497  0.5728  0.0200 -0.1648
  363SOL    HW1 4491   9.234   7.695   4.514  0.6452  1.1049 -1.3576
  363SOL    HW2 4492   9.365   7.668   4.583 -0.3624  0.3152  0.2954
  364SOL     OW 4493   4.816   3.495   9.245 -0.2887 -0.0099  0.5196
  364SOL    HW1 4494   4.752   3.456   9.304  0.5077 -0.1593  1.3091
  364SOL    HW2 4495   4.850   3.421   9.194 -0.6646  0.0568  0.1629
  365SOL     OW 4496   7.632   1.056   1.722 -0.2596 -0.5609 -0.1767
  365SOL    HW1 4497   7.721   1.072   1.755 -0.5702 -1.4991  1.1887
  365SOL    HW2 4498   7.590   1.142   1.726  0.6322 -0.0556 -1.0642
  366SOL     OW 4499   3.671   3.536   7.339  0.2509  1.1835  0.0948
  366SOL    HW1 4500   3.726   3.502   7.410 -0.4536  1.2901  0.6996
  366SOL    HW2 4501   3.729   3.538   7.263  0.1343 -2.3146 -0.2690
  367SOL     OW 4502  10.612   9.690   9.303  0.6877  0.0756 -0.0953
  367SOL    HW1 4503  10.602   9.653   9.215  0.7242 -1.9433  0.6983
  367SOL    HW2 4504  10.549   9.761   9.306  0.2065 -0.2573 -1.5438
  368SOL     OW 4505   3.690  10.883  10.607 -0.4721  0.1990  0.2555
  368SOL    HW1 4506   3.598  10.887  10.633 -0.9591  1.2911 -1.4713
  368SOL    HW2 4507   3.697  10.942  10.532  1.3144 -0.9962 -0.6044
  369SOL     OW 4508   8.600   1.243   4.887 -0.4306 -0.1024  0.5142
  369SOL    HW1 4509   8.589   1.172   4.823 -1.6420 -0.8578  1.5329
  369SOL    HW2 4510   8.618   1.198   4.969 -2.5887  0.6625  1.4745
  370SOL     OW 4511   8.960   3.486   9.313 -0.0157  0.1484  0.0141
  370SOL    HW1 4512   8.917   3.412   9.357  0.3787  1.0932  2.1207
  370SOL    HW2 4513   8.892   3.553   9.306 -0.0189  0.0818 -0.6732
  371SOL     OW 4514   0.103   5.915   7.795  0.1328  0.1903  0.2149
  371SOL    HW1 4515   0.018   5.882   7.825  1.1278  0.7707  4.2807
  371SOL    HW2 4516   0.082   5.969   7.719 -3.1620  0.3840  1.0899
  372SOL     OW 4517   2.109   7.305   0.281 -0.3891 -0.5280  0.1366
  372SOL    HW1 4518   2.155   7.249   0.344 -1.9125 -1.0120  0.8681
  372SOL    HW2 4519   2.159   7.296   0.200  0.7786 -1.0416  0.8877
  373SOL     OW 4520   8.318   0.168   0.182 -0.0283 -0.1340  0.2839
  373SOL    HW1 4521   8.303   0.076   0.203  1.2348 -0.5528 -0.5505
  373SOL    HW2 4522   8.235   0.211   0.201 -0.8560 -1.5648  0.0278
  374SOL     OW 4523   9.258  10.291   3.671 -0.0169  0.7718 -0.4186
  374SOL    HW1 4524   9.177  10.331   3.701  0.1331 -0.0007  1.0974
  374SOL    HW2 4525   9.290  10.242   3.746  0.3887 -1.2528 -1.8250
  375SOL     OW 4526   9.480   9.245   6.461  0.0209 -0.0665 -0.4408
  375SOL    HW1 4527   9.540   9.269   6.532 -1.1426 -1.7592  1.2244
  375SOL    HW2 4528   9.444   9.328   6.430 -1.2638  0.6913  2.6948
  376SOL     OW 4529   9.148  10.411   6.895  0.7397 -0.2189  0.3657
  376SOL    HW1 4530   9.169  10.428   6.804  1.4253  1.0971  0.7546
  376SOL    HW2 4531   9.075  10.349   6.891  2.4035 -2.2269 -1.0311
  377SOL     OW 4532   3.783   9.925   4.322  0.1582  0.1984 -0.4000
  377SOL    HW1 4533   3.771  10.008   4.369  1.8720  1.5623 -2.1796
  377SOL    HW2 4534   3.722   9.930   4.248 -0.9238 -0.9275  0.3776
  378SOL     OW 4535  10.107   5.661   2.699  0.0464  0.3593  0.7649
  378SOL    HW1 4536  10.063   5.709   2.629 -0.3994  0.5849  1.1836
  378SOL    HW2 4537  10.078   5.571   2.689  0.2587  0.3261  0.4511
  379SOL     OW 4538   8.781   6.673   5.722 -0.0020 -0.3084 -0.7945
  379SOL    HW1 4539   8.785   6.716   5.636  0.1676  2.5518  0.5480
  379SOL    HW2 4540   8.726   6.596   5.707 -1.9395  1.3487 -2.9964
  380SOL     OW 4541   5.715   7.143   1.870  0.0280  0.6708  0.1965
  380SOL    HW1 4542   5.788   7.204   1.866  0.0134  0.6931  0.2695
  380SOL    HW2 4543   5.755   7.056   1.870  0.0104  0.5811 -2.4109
  381SOL     OW 4544   3.818   1.589   9.810 -0.2933  0.0328  0.0338
  381SOL    HW1 4545   3.817   1.553   9.899  0.7141 -0.0901  0.0080
  381SOL    HW2 4546   3.871   1.668   9.817 -0.5963  0.2732 -0.3700
  382SOL     OW 4547   1.606   3.916  10.271 -0.1077  0.2603 -0.0124
  382SOL    HW1 4548   1.546   3.855  10.230 -0.4220  0.2583  0.4436
  382SOL    HW2 4549   1.672   3.860  10.313  0.2510  0.2638 -0.5610
  383SOL     OW 4550   8.803   5.393   3.908 -0.2487  0.2011 -0.3678
  383SOL    HW1 4551   8.720   5.415   3.865  0.0544 -0.2593 -1.2085
  383SOL    HW2 4552   8.780   5.322   3.969 -0.5095  0.1930 -0.4723
  384SOL     OW 4553   9.801   0.612   0.473  0.6301  0.1002  0.2244
  384SOL    HW1 4554   9.836   0.562   0.547 -1.2270 -0.2766  0.9134
  384SOL    HW2 4555   9.766   0.691   0.513  0.9862  0.6187 -0.4822
  385SOL     OW 4556   9.396   8.084   5.886 -0.5209 -0.3280  0.0377
  385SOL    HW1 4557   9.441   8.035   5.818 -0.3214 -0.0304 -0.0455
  385SOL    HW2 4558   9.321   8.124   5.842  0.7786  1.6096 -0.5084
  386SOL     OW 4559   3.276  10.634   8.392 -0.4112  0.0215  0.4475
  386SOL    HW1 4560   3.181  10.643   8.390 -0.4872 -0.7675 -0.8779
  386SOL    HW2 4561   3.295  10.564   8.329  1.1624  1.3161 -0.6021
  387SOL     OW 4562   0.019   7.831   9.044  0.4885  0.6374  0.5494
  387SOL    HW1 4563   0.093   7.778   9.015 -0.7773 -0.4058 -0.9325
  387SOL    HW2 4564   0.058   7.916   9.067  2.0238  0.4273 -1.0555
  388SOL     OW 4565  10.905   5.292   1.885  0.3752  0.2369 -0.7309
  388SOL    HW1 4566  10.975   5.245   1.840  2.1427  2.3058 -0.3024
  388SOL    HW2 4567  10.949   5.364   1.930 -1.9366  1.1016  0.3187
  389SOL     OW 4568   7.797   5.979   9.092  0.2380  0.3426  0.3344
  389SOL    HW1 4569   7.732   5.938   9.035  2.0423 -0.9826 -0.9032
  389SOL    HW2 4570   7.756   6.061   9.120 -2.0878 -0.6107 -0.0391
  390SOL     OW 4571   9.085   4.803   9.119  0.0942 -0.1929 -0.0780
  390SOL    HW1 4572   8.990   4.791   9.120  0.1391 -0.6770  1.9322
  390SOL    HW2 4573   9.108   4.808   9.026 -2.2763  3.0126 -0.6529
  391SOL     OW 4574   5.076   3.576   0.188 -0.6738 -0.8909 -0.3843
  391SOL    HW1 4575   5.043   3.628   0.115  1.8949 -1.4698 -2.1080
  391SOL    HW2 4576   5.003   3.517   0.210 -2.4147  1.0347 -0.6818
  392SOL     OW 4577   8.197  10.870   1.300 -0.1844 -0.2832  0.4829
  392SOL    HW1 4578   8.236  10.935   1.241 -0.1110 -0.0588  0.7766
  392SOL    HW2 4579   8.231  10.893   1.387  2.1544 -2.4027  0.2598
  393SOL     OW 4580   5.994   3.012   4.300  0.2821  0.0086 -0.0235
  393SOL    HW1 4581   5.972   3.024   4.207 -1.7721  0.7883  0.5203
  393SOL    HW2 4582   6.078   3.057   4.311  0.1333  0.6463 -1.3113
  394SOL     OW 4583   3.329   8.252   5.136  0.0805  0.0958  0.0264
  394SOL    HW1 4584   3.421   8.266   5.113  0.5474 -0.4282  1.4096
  394SOL    HW2 4585   3.301   8.335   5.173  0.8633 -0.4905  2.1196
  395SOL     OW 4586  10.290   8.609   0.899  0.2445  0.7208 -0.0645
  395SOL    HW1 4587  10.225   8.678   0.913  0.9211  1.0403  1.8307
  395SOL    HW2 4588  10.299   8.568   0.985  0.8580 -0.8441 -0.8517
  396SOL     OW 4589   7.464   3.082   4.608  0.4819 -0.1515 -0.3975
  396SOL    HW1 4590   7.553   3.083   4.644 -0.4615 -0.3490  2.1019
  396SOL    HW2 4591   7.435   2.991   4.617 -0.6984  0.3070  0.8669
  397SOL     OW 4592   0.168   7.362   7.489 -0.4784 -0.2529  0.5710
  397SOL    HW1 4593   0.254   7.333   7.519 -0.4513 -0.7241  0.0619
  397SOL    HW2 4594   0.181   7.383   7.397 -0.7846  0.2177  0.6351
  398SOL     OW 4595   2.009  10.570   6.493  0.5617  0.9483  0.7044
  398SOL    HW1 4596   1.917  10.563   6.520  0.2086  0.6253 -0.4875
  398SOL    HW2 4597   2.022  10.664   6.477  0.2987  0.9394  0.4299
  399SOL     OW 4598   0.792   0.613  10.636  0.4482 -0.0376 -0.1737
  399SOL    HW1 4599   0.846   0.673  10.687  0.1611  0.1234 -0.0550
  399SOL    HW2 4600   0.746   0.668  10.573 -0.7209  0.0496  0.7134
  400SOL     OW 4601   2.288   8.682   9.671  0.5256  0.2278 -0.6676
  400SOL    HW1 4602   2.266   8.642   9.587  0.1744 -0.3299 -0.3213
  400SOL    HW2 4603   2.285   8.776   9.655 -1.8348  0.2145 -0.7533
  401SOL     OW 4604   0.672   1.695   5.685 -0.8415  0.3467  0.1050
  401SOL    HW1 4605   0.682   1.603   5.664  0.2424  0.5789 -0.4665
  401SOL    HW2 4606   0.726   1.741   5.621 -2.2615  1.4620 -0.3394
  402SOL     OW 4607   7.510   5.406   7.100 -0.1527 -0.0298 -0.0127
  402SOL    HW1 4608   7.443   5.339   7.086 -0.9238  0.5181  0.8613
  402SOL    HW2 4609   7.508   5.460   7.021  0.8968 -1.3565 -0.9791
  403SOL     OW 4610   1.089   4.878   3.269  0.5608  0.2656 -0.1329
  403SOL    HW1 4611   1.161   4.897   3.329  0.4918 -1.7444  0.6605
  403SOL    HW2 4612   1.096   4.945   3.201  1.4605  1.7957  1.3883
  404SOL     OW 4613   8.513   9.004   0.275  0.0410 -0.0835 -0.0777
  404SOL    HW1 4614   8.492   9.097   0.274 -1.8335 -0.4618  0.4553
  404SOL    HW2 4615   8.551   8.989   0.362  0.2945  0.1693 -0.1444
  405SOL     OW 4616   3.105  10.283   7.905  0.1863 -0.8034  0.0832
  405SOL    HW1 4617   3.055  10.230   7.844  0.8140 -1.1171 -0.1720
  405SOL    HW2 4618   3.154  10.220   7.958  2.4091 -0.5147 -1.4757
  406SOL     OW 4619   4.965   7.384   7.577  0.0357 -0.0195 -0.2959
  406SOL    HW1 4620   5.041   7.364   7.632 -1.8060 -3.3793  1.3532
  406SOL    HW2 4621   4.986   7.468   7.536  2.5064  1.7019  3.8783
  407SOL     OW 4622   2.029   4.091   4.402  0.4855 -0.6705  0.2552
  407SOL    HW1 4623   1.937   4.102   4.376 -0.3880  0.0785  3.3324
  407SOL    HW2 4624   2.050   4.001   4.378 -0.9262 -0.7627 -0.7758
  408SOL     OW 4625   2.193   1.258  10.856 -0.0897  0.4960  0.3175
  408SOL    HW1 4626   2.245   1.317  10.909  0.7888  1.3735 -1.4192
  408SOL    HW2 4627   2.250   1.235  10.782  0.0191 -3.3597  1.3647
  409SOL     OW 4628   2.621   7.180   1.325  0.6437 -0.0407 -0.3023
  409SOL    HW1 4629   2.686   7.216   1.385  0.4049  1.0854 -0.6869
  409SOL    HW2 4630   2.672   7.130   1.261  0.9017 -1.1850  0.7708
  410SOL     OW 4631   3.212   2.994   2.078  0.6682  0.3649  0.1159
  410SOL    HW1 4632   3.274   2.950   2.020 -1.0152 -1.9346 -0.1340
  410SOL    HW2 4633   3.164   3.054   2.021  0.1692 -0.6315 -0.5465
  411SOL     OW 4634   3.614   1.885   4.602  0.0335 -0.2250  0.0064
  411SOL    HW1 4635   3.647   1.853   4.686  0.0968  2.7087  1.2275
  411SOL    HW2 4636   3.690   1.880   4.544  0.0063 -2.2387  0.0752
  412SOL     OW 4637   0.331  10.776   0.030  0.2206 -0.3201 -0.4371
  412SOL    HW1 4638   0.423  10.765   0.054  0.9909  1.4877 -2.3069
  412SOL    HW2 4639   0.329  10.765  -0.065 -1.5332 -0.4523 -0.4196
  413SOL     OW 4640   5.340  10.009   0.553 -0.3471 -0.1400  0.0398
  413SOL    HW1 4641   5.280   9.939   0.579 -0.6457 -0.2987 -1.0362
  413SOL    HW2 4642   5.282  10.077   0.518 -0.1429  1.0712  1.9488
  414SOL     OW 4643   3.688   3.637  10.804  0.0504  0.0181  0.1528
  414SOL    HW1 4644   3.684   3.625  10.709  1.2024  1.7009 -0.1569
  414SOL    HW2 4645   3.674   3.549  10.840  0.2996 -0.7801 -1.5873
  415SOL     OW 4646   8.413   1.271   1.974  0.4287  0.6588 -0.0533
  415SOL    HW1 4647   8.365   1.351   1.994  1.1059  1.4050 -1.3234
  415SOL    HW2 4648   8.432   1.233   2.060 -3.1992 -0.2072  0.5352
  416SOL     OW 4649   2.821   2.759   0.366  0.6024 -0.2151  1.0280
  416SOL    HW1 4650   2.842   2.837   0.315 -1.5184 -0.6172 -0.6308
  416SOL    HW2 4651   2.770   2.792   0.440  0.4726  0.0479  0.8237
  417SOL     OW 4652   6.125   2.054   5.049 -0.2260 -0.2359 -0.2248
  417SOL    HW1 4653   6.100   2.142   5.019 -1.8512 -0.1560  1.2618
  417SOL    HW2 4654   6.207   2.068   5.096  0.0469  0.3049 -0.8295
  418SOL     OW 4655   4.875   2.543   0.341 -0.9460  0.4352  0.0866
  418SOL    HW1 4656   4.892   2.581   0.427 -0.0710 -4.1252  2.2470
  418SOL    HW2 4657   4.957   2.551   0.293  0.2064 -1.2243  1.6665
  419SOL     OW 4658   0.035   9.796   3.889 -0.1503 -0.1246  0.1629
  419SOL    HW1 4659   0.084   9.828   3.814  0.8860  0.7375  1.1641
  419SOL    HW2 4660  -0.034   9.742   3.852 -0.1733  0.9503 -1.4412
  420SOL     OW 4661   0.206   3.498   2.193 -0.4435  0.5865  0.4769
  420SOL    HW1 4662   0.232   3.569   2.135  0.9053 -0.5526 -0.3573
  420SOL    HW2 4663   0.276   3.433   2.186 -2.2601 -1.4594  0.1381
  421SOL     OW 4664   8.706   6.784   9.115  0.8650  0.0519  0.1834
  421SOL    HW1 4665   8.702   6.690   9.096 -0.0597  0.1588 -0.2296
  421SOL    HW2 4666   8.633   6.799   9.176  0.4178  0.6571 -0.4861
  422SOL     OW 4667   8.457   7.122   0.889 -0.0741  0.1005  0.0015
  422SOL    HW1 4668   8.382   7.063   0.889 -0.8095  1.0190  0.5658
  422SOL    HW2 4669   8.520   7.081   0.948 -0.3712 -0.3827 -0.0167
  423SOL     OW 4670   9.628   5.460   9.871 -0.9853 -0.1188  0.1039
  423SOL    HW1 4671   9.593   5.446   9.784  1.5468 -1.3550 -0.8141
  423SOL    HW2 4672   9.697   5.526   9.859  0.8376 -1.8108  0.6892
  424SOL     OW 4673   1.155   2.528   9.293 -0.1037 -0.4216  0.9157
  424SOL    HW1 4674   1.226   2.501   9.351 -0.0009  0.9432  1.4667
  424SOL    HW2 4675   1.076   2.524   9.348 -0.4182 -1.6456  0.3908
  425SOL     OW 4676   0.690   3.787   0.642  0.2184 -0.4115  0.2725
  425SOL    HW1 4677   0.622   3.776   0.708  0.1118  0.8008  0.3817
  425SOL    HW2 4678   0.645   3.780   0.558 -0.3070  1.6644  0.3332
  426SOL     OW 4679   6.700   0.817   7.645 -0.4670 -0.3992  0.3021
  426SOL    HW1 4680   6.764   0.760   7.686  0.4117 -0.0801 -0.6046
  426SOL    HW2 4681   6.686   0.887   7.709 -0.2110 -0.6729  0.6637
  427SOL     OW 4682  10.309   1.104   6.358  0.3259 -0.0028 -0.7239
  427SOL    HW1 4683  10.400   1.107   6.387  0.5988 -1.0528 -1.4281
  427SOL    HW2 4684  10.263   1.166   6.415  1.4003  0.2277 -0.0936
  428SOL     OW 4685   4.165   3.516   7.167 -0.3062 -0.0018  0.3735
  428SOL    HW1 4686   4.119   3.578   7.224  0.6182  0.7613  0.3211
  428SOL    HW2 4687   4.219   3.571   7.110 -0.5143 -0.8015 -0.6240
  429SOL     OW 4688   7.614   7.150   8.835  0.1857 -0.0765 -0.3593
  429SOL    HW1 4689   7.613   7.076   8.896  1.1531 -1.3526 -1.7793
  429SOL    HW2 4690   7.535   7.199   8.854 -0.2953 -1.2746  0.9029
  430SOL     OW 4691   0.879  10.174   3.305 -0.4403 -0.3114 -0.0580
  430SOL    HW1 4692   0.905  10.264   3.284  1.4462 -0.4855  1.3410
  430SOL    HW2 4693   0.821  10.183   3.381  0.1542 -0.3048  0.3970
  431SOL     OW 4694   8.382   9.551   4.968 -0.7863 -0.1580 -0.5215
  431SOL    HW1 4695   8.369   9.498   5.046 -0.1674  0.7524  0.2270
  431SOL    HW2 4696   8.420   9.491   4.904 -0.4966 -0.7225  0.1630
  432SOL     OW 4697   9.747   0.448   8.191  0.4284  0.1724 -0.4755
  432SOL    HW1 4698   9.676   0.446   8.126 -1.1757  0.0592  1.2145
  432SOL    HW2 4699   9.702   0.448   8.275  2.4849 -1.3356  0.6878
  433SOL     OW 4700   7.929   5.081   4.841  0.3048 -0.0321  0.1819
  433SOL    HW1 4701   8.002   5.119   4.890  1.4352  1.2830 -2.3167
  433SOL    HW2 4702   7.968   5.010   4.790 -0.6588 -0.8325  0.5262
  434SOL     OW 4703   3.961   9.211   8.545  0.0516  0.4944 -0.0371
  434SOL    HW1 4704   3.872   9.187   8.519  0.8047 -2.6046 -0.0910
  434SOL    HW2 4705   3.978   9.160   8.624  2.0034  0.5754 -0.3622
  435SOL     OW 4706   7.774   4.621   4.761  0.5025 -0.4691 -0.7590
  435SOL    HW1 4707   7.844   4.586   4.817 -0.0841 -0.8138 -0.2338
  435SOL    HW2 4708   7.725   4.545   4.732 -0.1156 -0.1736 -0.5070
  436SOL     OW 4709   3.296   8.191   9.636  0.2445 -0.1920 -0.2849
  436SOL    HW1 4710   3.345   8.218   9.559  1.3391 -1.1455  0.0509
  436SOL    HW2 4711   3.282   8.097   9.624  0.2661 -0.3142  0.5800
  437SOL     OW 4712   1.293   0.315   1.687 -0.2736 -0.4426  0.3775
  437SOL    HW1 4713   1.308   0.235   1.638  0.9885 -1.2421  1.9687
  437SOL    HW2 4714   1.378   0.359   1.688 -0.9983  1.0678 -0.6659
  438SOL     OW 4715   1.784   5.679   0.089  0.4675  0.1351  0.2021
  438SOL    HW1 4716   1.706   5.638   0.127  1.4746 -1.8362  0.2856
  438SOL    HW2 4717   1.753   5.721   0.009 -0.9442  0.7837  1.0401
  439SOL     OW 4718   8.453   3.780   5.994 -0.1677 -0.2384  0.1080
  439SOL    HW1 4719   8.432   3.872   6.005 -0.5910 -0.1598 -1.1782
  439SOL    HW2 4720   8.521   3.779   5.927  1.8602 -0.7019  2.0512
  440SOL     OW 4721   6.779   0.195   3.326 -0.2201 -0.1715 -0.0409
  440SOL    HW1 4722   6.854   0.193   3.386  1.6652 -1.8706 -2.2452
  440SOL    HW2 4723   6.714   0.139   3.368  0.1489  0.4396  1.4208
  441SOL     OW 4724   7.226   2.513   4.968  0.4747  0.2032 -0.1210
  441SOL    HW1 4725   7.190   2.553   5.047  1.3945 -1.9845  1.5218
  441SOL    HW2 4726   7.160   2.529   4.901 -1.3937  0.2773  1.6288
  442SOL     OW 4727   0.370   4.695   5.797  0.4544 -0.6647 -0.0594
  442SOL    HW1 4728   0.418   4.660   5.871  2.7673 -0.3994 -1.3405
  442SOL    HW2 4729   0.365   4.622   5.735 -1.7873 -1.0023  0.4369
  443SOL     OW 4730   4.621   6.316   6.181  0.5782 -0.2276 -0.3491
  443SOL    HW1 4731   4.608   6.225   6.210  0.0973  0.4825  1.8830
  443SOL    HW2 4732   4.535   6.357   6.190  1.0749  0.7737 -0.0113
  444SOL     OW 4733   3.661   7.679   6.733  0.1792 -0.3017 -0.5821
  444SOL    HW1 4734   3.603   7.738   6.685 -0.8602 -0.5285  0.3675
  444SOL    HW2 4735   3.669   7.719   6.820 -1.4082 -2.0548  0.4403
  445SOL     OW 4736   6.986   0.683   3.751 -0.2013 -0.1194  0.3366
  445SOL    HW1 4737   6.902   0.637   3.744 -0.3102  0.2721 -1.2559
  445SOL    HW2 4738   6.963   0.776   3.751  0.2350 -0.0052 -0.3977
  446SOL     OW 4739  10.644   2.900   2.707  0.3654 -0.3726  0.3899
  446SOL    HW1 4740  10.592   2.927   2.630  0.9270 -0.6728 -0.1039
  446SOL    HW2 4741  10.687   2.819   2.679  0.8124 -0.3204  0.9226
  447SOL     OW 4742  10.011   3.137   1.487 -0.2793  1.0663 -0.8419
  447SOL    HW1 4743  10.066   3.062   1.505  0.1287  1.3808 -0.7703
  447SOL    HW2 4744  10.070   3.203   1.451 -0.3218  1.9384  0.5958
  448SOL     OW 4745   1.149   6.800   2.488  0.3316  0.3086  0.5760
  448SOL    HW1 4746   1.214   6.740   2.451 -0.5798 -0.1516 -0.3331
  448SOL    HW2 4747   1.152   6.877   2.432  0.6025  0.5974  0.9791
  449SOL     OW 4748   6.389   9.423   4.309  0.3916  0.2334  0.0174
  449SOL    HW1 4749   6.477   9.449   4.281  0.2880 -1.5481 -2.2304
  449SOL    HW2 4750   6.405   9.368   4.386  1.2277  0.1598 -0.1912
  450SOL     OW 4751   1.381   2.101   9.193 -0.2265  0.0295  0.2689
  450SOL    HW1 4752   1.439   2.058   9.256  0.4254  0.0396 -0.3151
  450SOL    HW2 4753   1.436   2.114   9.116 -1.1539 -0.4276 -0.4778
  451SOL     OW 4754   4.587   1.725  10.729  0.0013  0.6232 -0.0834
  451SOL    HW1 4755   4.627   1.655  10.677  1.1585  0.8276  0.5167
  451SOL    HW2 4756   4.622   1.713  10.817 -1.9668  0.2564  0.6960
  452SOL     OW 4757   0.840   6.218   8.953  0.4743 -0.4586 -0.3681
  452SOL    HW1 4758   0.824   6.124   8.955  1.1308 -0.5756 -0.2626
  452SOL    HW2 4759   0.837   6.245   9.044 -3.2199  0.2845 -0.5569
  453SOL     OW 4760   2.086   4.904   5.919  0.5790  0.1990 -0.0245
  453SOL    HW1 4761   2.083   4.948   5.834  1.9420  0.6542  0.1370
  453SOL    HW2 4762   2.163   4.940   5.962  1.0563 -1.4738  0.6081
  454SOL     OW 4763   6.051  10.473   8.693 -0.2407  0.1555 -0.1520
  454SOL    HW1 4764   6.000  10.485   8.613 -0.0815  0.9657 -0.1400
  454SOL    HW2 4765   6.122  10.537   8.686  0.8084 -0.9553 -0.1896
  455SOL     OW 4766   2.172   3.961   7.989  0.1212  0.2057  0.4798
  455SOL    HW1 4767   2.121   3.903   7.934  1.8750 -0.5282 -0.4642
  455SOL    HW2 4768   2.156   4.049   7.954 -0.8450  0.0491  0.5198
  456SOL     OW 4769   8.482   5.114   3.780 -0.2495 -0.6580  0.3658
  456SOL    HW1 4770   8.505   5.026   3.809 -1.4109 -1.3558 -0.7118
  456SOL    HW2 4771   8.392   5.127   3.812  0.5528  0.9375  2.1982
  457SOL     OW 4772   6.686   0.526  10.466 -0.9494 -0.5385 -0.0939
  457SOL    HW1 4773   6.663   0.433  10.456  0.3028 -0.9560  0.6941
  457SOL    HW2 4774   6.666   0.546  10.557 -0.1950 -0.3468  0.0363
  458SOL     OW 4775  10.097   0.231   9.711  0.0574  0.1541  0.4039
  458SOL    HW1 4776  10.115   0.190   9.795 -0.1105  1.6236  1.1836
  458SOL    HW2 4777  10.092   0.158   9.649  2.9095 -0.7896  1.1428
  459SOL     OW 4778   0.385   4.952   3.451 -0.3416 -0.4434  0.1999
  459SOL    HW1 4779   0.325   5.025   3.468 -0.9555 -0.9289  0.1577
  459SOL    HW2 4780   0.353   4.914   3.369 -2.0361 -2.7151  1.7782
  460SOL     OW 4781   0.526   1.798   1.622  0.2509 -0.0790 -0.2086
  460SOL    HW1 4782   0.438   1.809   1.586  0.0676  0.6106  0.4255
  460SOL    HW2 4783   0.556   1.715   1.585  0.0990  0.6052 -1.9555
  461SOL     OW 4784   8.326   2.697   9.660  0.1998  0.2252 -0.1075
  461SOL    HW1 4785   8.252   2.734   9.708 -0.1136  0.5358 -0.8222
  461SOL    HW2 4786   8.304   2.604   9.650  0.4648  0.0645  0.7071
  462SOL     OW 4787   2.513   6.886   3.720 -0.1096  0.1556 -0.3052
  462SOL    HW1 4788   2.527   6.806   3.671  1.0997  1.1558 -1.7074
  462SOL    HW2 4789   2.446   6.934   3.671  0.6191  0.8659 -0.6406
  463SOL     OW 4790   3.778   9.965   6.062  0.2349  0.4370 -0.2422
  463SOL    HW1 4791   3.729   9.887   6.090  0.2713  0.5806  0.2411
  463SOL    HW2 4792   3.858   9.963   6.115  0.7285  0.2391 -0.9797
  464SOL     OW 4793   6.678   8.458   0.943 -0.0902 -0.2125 -0.2164
  464SOL    HW1 4794   6.686   8.549   0.971 -1.2277  0.0443 -0.6971
  464SOL    HW2 4795   6.585   8.439   0.948  0.2105 -1.6159  0.6614
  465SOL     OW 4796   8.007   0.281   1.793  0.7542 -0.2097  0.3293
  465SOL    HW1 4797   8.067   0.207   1.787  0.7871 -0.0891 -1.0876
  465SOL    HW2 4798   7.978   0.281   1.885  2.4829 -0.5962  0.9082
  466SOL     OW 4799   0.959   8.587   8.590  0.7119  0.7428  0.4439
  466SOL    HW1 4800   0.929   8.673   8.619  0.8990  1.1157 -0.4249
  466SOL    HW2 4801   1.034   8.567   8.645  1.3105  1.6128 -0.0224
  467SOL     OW 4802   9.403   3.481   6.368  0.1338  0.8609  0.1887
  467SOL    HW1 4803   9.348   3.491   6.291 -1.8424 -0.6122  1.3287
  467SOL    HW2 4804   9.425   3.571   6.394 -0.0384  1.4033 -1.4360
  468SOL     OW 4805   0.857   3.771   4.080  0.2799  0.1186  0.6297
  468SOL    HW1 4806   0.878   3.855   4.120  2.0896 -0.1716  0.3929
  468SOL    HW2 4807   0.848   3.791   3.987 -0.8050  0.2854  0.7646
  469SOL     OW 4808   5.617   3.170   8.970 -0.1201 -0.4798  0.5207
  469SOL    HW1 4809   5.611   3.243   8.908 -1.7200 -1.5353 -0.6515
  469SOL    HW2 4810   5.587   3.207   9.053  2.6462  1.1213  0.9126
  470SOL     OW 4811   7.143   7.144   1.818  0.2834 -0.2804 -0.3188
  470SOL    HW1 4812   7.187   7.098   1.747 -0.4726 -0.6793 -0.5377
  470SOL    HW2 4813   7.101   7.219   1.776  2.6016  1.4350  0.2279
  471SOL     OW 4814   5.358   4.381   9.268  0.1003  0.7228  0.0576
  471SOL    HW1 4815   5.434   4.363   9.324 -1.2689  1.3381  2.2297
  471SOL    HW2 4816   5.334   4.296   9.233  0.4222  0.1330  1.2126
  472SOL     OW 4817   4.812   8.243   9.772 -0.3343  0.3650 -0.6723
  472SOL    HW1 4818   4.907   8.244   9.779 -0.3448 -1.8891  1.2650
  472SOL    HW2 4819   4.785   8.333   9.790  1.3752  0.8254 -0.2521
  473SOL     OW 4820   3.406   6.150   3.318  0.5666  0.2578  0.0793
  473SOL    HW1 4821   3.341   6.082   3.335  0.0406  0.5416 -0.7086
  473SOL    HW2 4822   3.416   6.195   3.401  0.4267 -0.3565  0.4410
  474SOL     OW 4823   3.921   7.520   0.625  0.0117 -0.2704 -0.4286
  474SOL    HW1 4824   3.935   7.525   0.531 -0.9208  1.1542 -0.5231
  474SOL    HW2 4825   3.932   7.427   0.647  1.2586 -0.4640 -1.7541
  475SOL     OW 4826   8.376   2.293  10.910 -0.2430 -0.4586  0.1740
  475SOL    HW1 4827   8.336   2.326  10.830  1.8523  0.1799 -0.6792
  475SOL    HW2 4828   8.325   2.332  10.981 -1.9662 -0.8204 -0.8261
  476SOL     OW 4829   9.832   0.600   9.408 -0.0186  0.1765  0.2108
  476SOL    HW1 4830   9.843   0.513   9.447 -2.0869 -0.3613 -0.2598
  476SOL    HW2 4831   9.891   0.601   9.333 -0.2161 -0.9630  0.0278
  477SOL     OW 4832   4.266   7.714   9.254  0.2932 -0.2165 -0.6503
  477SOL    HW1 4833   4.208   7.651   9.296 -1.1047  0.1003 -2.0099
  477SOL    HW2 4834   4.335   7.661   9.215  0.2097 -0.7253 -0.1110
  478SOL     OW 4835  10.072   2.061  10.748  0.5620 -0.4248  0.5341
  478SOL    HW1 4836  10.024   2.032  10.671 -0.7451  2.0613  0.3198
  478SOL    HW2 4837  10.019   2.032  10.822  0.2377 -0.1831  0.3958
  479SOL     OW 4838   1.541   1.827   9.542 -0.0895  0.3416  0.4680
  479SOL    HW1 4839   1.579   1.748   9.579  0.6600  0.5101  0.0721
  479SOL    HW2 4840   1.459   1.797   9.502  0.8805 -0.5335 -0.9790
  480SOL     OW 4841   6.211   8.041   6.297  0.4280 -0.0613 -0.1120
  480SOL    HW1 4842   6.159   7.966   6.269  0.7651 -0.3151 -0.0571
  480SOL    HW2 4843   6.299   8.023   6.265  0.6486  0.0046  0.4480
  481SOL     OW 4844   7.276   9.734   4.171  0.2588 -0.0622  0.0781
  481SOL    HW1 4845   7.258   9.681   4.093 -0.2738 -0.3451  0.3927
  481SOL    HW2 4846   7.361   9.702   4.202 -0.3549 -1.2141  0.6494
  482SOL     OW 4847   1.957   3.766   6.027 -0.3713  0.1666 -0.1170
  482SOL    HW1 4848   1.951   3.857   6.056 -0.3782  0.9530 -2.3804
  482SOL    HW2 4849   2.035   3.733   6.070 -0.7020  1.0316  1.2291
  483SOL     OW 4850   6.194   2.842   6.055  0.1716  0.0385  0.1945
  483SOL    HW1 4851   6.102   2.858   6.033  0.0815  1.1513  1.2766
  483SOL    HW2 4852   6.207   2.887   6.138  1.5257 -0.6963  0.4072
  484SOL     OW 4853   9.163   2.302   3.941 -0.0911 -0.2668 -0.1535
  484SOL    HW1 4854   9.116   2.346   4.013  0.8021  0.4770 -0.0025
  484SOL    HW2 4855   9.097   2.291   3.873 -0.3360  1.4102 -0.2255
  485SOL     OW 4856   4.282   9.930   6.953 -0.3219 -0.7021 -0.3937
  485SOL    HW1 4857   4.254  10.020   6.937 -0.1559 -0.8992 -1.9582
  485SOL    HW2 4858   4.212   9.876   6.915 -0.5778 -1.2600  0.8107
  486SOL     OW 4859   6.675   8.047   6.687  0.0036 -0.3355  0.3570
  486SOL    HW1 4860   6.595   8.061   6.636  0.3900 -1.1772 -0.4925
  486SOL    HW2 4861   6.667   7.958   6.721  0.9331 -0.7211 -0.3938
  487SOL     OW 4862   5.780   8.689   3.388  0.3244 -0.2842  0.7095
  487SOL    HW1 4863   5.787   8.681   3.293 -0.0140 -1.0773  0.7370
  487SOL    HW2 4864   5.851   8.634   3.422  0.1130 -0.4294  0.9174
  488SOL     OW 4865   2.266   0.217   7.939 -0.2382 -0.1000 -0.4606
  488SOL    HW1 4866   2.321   0.286   7.975  0.7723 -1.2518  0.2575
  488SOL    HW2 4867   2.184   0.262   7.916 -0.7623  0.8253  2.7580
  489SOL     OW 4868   1.265   9.048   0.161  0.0350  0.0290  0.1126
  489SOL    HW1 4869   1.252   8.970   0.215  0.7862 -0.8417 -0.8951
  489SOL    HW2 4870   1.305   9.014   0.080 -1.4053  1.2118 -1.1593
  490SOL     OW 4871   4.988   8.021   5.565  0.0372  0.2089  0.7343
  490SOL    HW1 4872   5.004   8.100   5.617  0.4903  0.4956  0.1706
  490SOL    HW2 4873   5.072   8.003   5.523 -0.3046 -0.0566  0.1545
  491SOL     OW 4874   6.441   6.895   4.586 -0.0517  0.4905 -0.2294
  491SOL    HW1 4875   6.442   6.829   4.516 -0.4704 -1.5383  1.5880
  491SOL    HW2 4876   6.528   6.936   4.580  0.8501 -1.3328 -0.4370
  492SOL     OW 4877   6.542   2.992   7.053 -0.0072 -0.2006  0.5176
  492SOL    HW1 4878   6.456   3.013   7.016  0.6022  1.1570 -0.1717
  492SOL    HW2 4879   6.542   3.033   7.139 -0.9032 -2.1969  1.5325
  493SOL     OW 4880   4.672   5.227   5.809  0.4678  0.0479 -0.9370
  493SOL    HW1 4881   4.708   5.138   5.805  2.2340  0.6693 -0.1962
  493SOL    HW2 4882   4.646   5.246   5.719 -1.2108 -1.6691 -0.8837
  494SOL     OW 4883   8.058   3.000   9.836 -0.1793  0.3089  0.3093
  494SOL    HW1 4884   8.107   2.918   9.822 -1.3906 -1.0313  3.1488
  494SOL    HW2 4885   7.975   2.986   9.792  0.5968  1.2047 -1.5571
  495SOL     OW 4886   0.032  10.219   1.579  0.4803 -0.1913  0.0734
  495SOL    HW1 4887  -0.031  10.167   1.629 -1.3141  1.1005 -0.7156
  495SOL    HW2 4888   0.105  10.160   1.563 -1.8507 -2.8248 -1.6419
  496SOL     OW 4889   9.029   5.421   0.650  0.3534 -0.2082 -0.5322
  496SOL    HW1 4890   9.030   5.515   0.631  2.5097 -0.1405 -0.3288
  496SOL    HW2 4891   8.995   5.381   0.570  1.1097  0.6473 -1.3091
  497SOL     OW 4892   8.779   4.767   1.446 -0.5592 -0.0491  0.2748
  497SOL    HW1 4893   8.738   4.756   1.361  1.8123  2.2539 -1.3157
  497SOL    HW2 4894   8.706   4.786   1.506 -2.1553 -0.2882 -1.5215
  498SOL     OW 4895   2.881   9.199   4.169 -0.0741 -0.4229 -0.1772
  498SOL    HW1 4896   2.800   9.148   4.166  0.2069 -0.8549 -1.9199
  498SOL    HW2 4897   2.950   9.133   4.183  0.0555 -0.1549  0.4842
  499SOL     OW 4898   6.080   9.474   0.248  0.2937 -0.2783  0.2322
  499SOL    HW1 4899   5.996   9.470   0.293 -0.0043  0.5162 -0.2218
  499SOL    HW2 4900   6.076   9.555   0.196 -0.4346 -2.3358 -3.2726
  500SOL     OW 4901   5.205   7.416   6.145 -0.0728  0.2650  0.0591
  500SOL    HW1 4902   5.141   7.476   6.108  0.3100  0.5944 -0.0723
  500SOL    HW2 4903   5.290   7.459   6.131  0.2417 -0.4935 -0.4169
  501SOL     OW 4904   5.642   2.335   1.913 -0.2416  0.0141 -0.0380
  501SOL    HW1 4905   5.582   2.397   1.873 -0.9222 -0.6253 -0.0323
  501SOL    HW2 4906   5.652   2.365   2.003 -1.9353 -0.8401  0.4726
  502SOL     OW 4907   6.382   9.930   2.012 -0.4601  0.0751  0.0114
  502SOL    HW1 4908   6.303   9.880   1.991 -0.0674 -0.2416 -0.7314
  502SOL    HW2 4909   6.453   9.865   2.010 -0.3118  0.1310  1.7564
  503SOL     OW 4910   4.257   4.566   5.999  0.0546 -0.0926 -0.0307
  503SOL    HW1 4911   4.278   4.648   5.954 -1.2257  0.7336  0.7958
  503SOL    HW2 4912   4.231   4.593   6.087 -0.1489 -1.4172  0.3414
  504SOL     OW 4913   2.583  10.572   9.853  0.0965  0.6009  0.5217
  504SOL    HW1 4914   2.580  10.481   9.824  2.5539  1.2090 -2.0369
  504SOL    HW2 4915   2.522  10.618   9.796  0.6049  0.8990  0.2079
  505SOL     OW 4916   4.649   3.692   8.704 -0.3284 -0.0427 -0.4373
  505SOL    HW1 4917   4.621   3.620   8.760 -0.2897 -0.5307 -1.0369
  505SOL    HW2 4918   4.576   3.706   8.644 -0.7627  1.1085  0.3192
  506SOL     OW 4919   6.543   6.006   1.436  0.4940 -0.7204  0.2352
  506SOL    HW1 4920   6.558   5.940   1.368  0.0736 -0.4230 -0.1477
  506SOL    HW2 4921   6.477   5.967   1.493  1.1468 -1.1452  0.7225
  507SOL     OW 4922   3.105   6.247   9.113  1.2195 -0.0462 -0.1425
  507SOL    HW1 4923   3.024   6.285   9.079  1.0838 -0.2111 -0.0053
  507SOL    HW2 4924   3.172   6.272   9.050  0.9966 -0.2258 -0.4504
  508SOL     OW 4925   1.776   4.113   9.539  0.4410  0.4178  0.0792
  508SOL    HW1 4926   1.749   4.205   9.535  2.7428  1.1870  0.8182
  508SOL    HW2 4927   1.861   4.114   9.584  2.3720 -1.6393 -3.1048
  509SOL     OW 4928   4.722   0.860  10.237 -0.1559  0.6459 -0.2478
  509SOL    HW1 4929   4.801   0.827  10.280  0.0936  0.0076 -1.1507
  509SOL    HW2 4930   4.650   0.809  10.276 -0.1917  1.5463  0.9016
  510SOL     OW 4931   4.242   5.527   6.543 -0.1194  0.2626 -0.1195
  510SOL    HW1 4932   4.300   5.452   6.528 -2.5208 -1.4327 -1.6033
  510SOL    HW2 4933   4.302   5.601   6.552  2.3080 -1.4309 -1.0958
  511SOL     OW 4934   7.674   8.387   9.223 -0.3065  0.1024 -0.0798
  511SOL    HW1 4935   7.712   8.335   9.294 -0.6703 -0.3038 -0.1789
  511SOL    HW2 4936   7.750   8.428   9.180 -0.0095 -0.4576 -0.0895
  512SOL     OW 4937   0.473   4.934   6.195  0.5492 -0.0001  0.3538
  512SOL    HW1 4938   0.472   5.030   6.202 -1.7487 -0.0065  0.8906
  512SOL    HW2 4939   0.548   4.907   6.248  1.1598  1.4802  0.3139
  513SOL     OW 4940   4.274   5.459   0.144 -0.5272  0.0765 -0.2926
  513SOL    HW1 4941   4.184   5.489   0.156 -0.6242 -0.4650  0.4391
  513SOL    HW2 4942   4.328   5.535   0.164 -0.7676 -0.1712  1.4788
  514SOL     OW 4943   1.616   7.758   6.340 -0.1714  0.2397  0.1525
  514SOL    HW1 4944   1.619   7.846   6.378 -0.8447  0.8106 -1.0608
  514SOL    HW2 4945   1.559   7.766   6.264  0.2116 -1.1267 -0.3190
  515SOL     OW 4946   4.037  10.651   2.845  0.0864 -0.5276 -0.8412
  515SOL    HW1 4947   4.052  10.682   2.934  1.5165 -3.3822  0.0621
  515SOL    HW2 4948   4.056  10.726   2.789  2.0794  0.5719  1.1576
  516SOL     OW 4949   2.189   7.571   9.014 -0.2576 -0.5379  0.0125
  516SOL    HW1 4950   2.138   7.597   9.091 -1.0919 -0.8823 -0.4071
  516SOL    HW2 4951   2.209   7.479   9.030  1.1453 -0.1406  0.6592
  517SOL     OW 4952   5.534   9.151   3.008 -0.2519 -0.2509 -0.4117
  517SOL    HW1 4953   5.619   9.173   3.046 -1.9988  2.6360  2.3694
  517SOL    HW2 4954   5.548   9.155   2.913  2.3274  2.1256 -0.0453
  518SOL     OW 4955   1.189   1.794  10.543 -0.4314  0.0554  0.1477
  518SOL    HW1 4956   1.232   1.876  10.569  0.2190 -0.5777  1.1038
  518SOL    HW2 4957   1.256   1.747  10.493 -0.8648  0.1627 -0.5602
  519SOL     OW 4958   8.674   0.434   4.400  0.2207  0.6392 -0.6444
  519SOL    HW1 4959   8.690   0.432   4.494  1.7480  0.6489 -0.8759
  519SOL    HW2 4960   8.689   0.525   4.374  1.5997  0.3075 -1.1396
  520SOL     OW 4961   7.556   6.426   2.967 -0.4063  0.0916 -0.2532
  520SOL    HW1 4962   7.490   6.378   3.018  0.6407 -0.3360  0.7539
  520SOL    HW2 4963   7.544   6.518   2.992  0.9038 -0.2277  1.8298
  521SOL     OW 4964   1.257   6.514   1.985  0.4692 -0.1660  0.0679
  521SOL    HW1 4965   1.235   6.580   2.051 -1.4590  2.4337 -2.8748
  521SOL    HW2 4966   1.349   6.530   1.965  0.7834 -0.2909  1.3582
  522SOL     OW 4967   8.959   4.484   4.550 -0.1946 -0.0417  0.1576
  522SOL    HW1 4968   8.950   4.434   4.469  0.0499 -0.0891  0.1604
  522SOL    HW2 4969   8.996   4.422   4.613  0.4440  0.2399  0.0627
  523SOL     OW 4970   4.090   5.659   7.018  0.1643 -0.0851  0.1660
  523SOL    HW1 4971   4.009   5.644   7.066  0.5488 -0.8198  0.6176
  523SOL    HW2 4972   4.069   5.637   6.927 -0.9600  2.6652 -0.3182
  524SOL     OW 4973   6.259   4.059   2.813 -0.0478  0.0926  0.1133
  524SOL    HW1 4974   6.189   3.998   2.794 -0.8799  1.3345 -0.9662
  524SOL    HW2 4975   6.314   4.058   2.734  1.3059 -1.0117  1.0162
  525SOL     OW 4976   4.013   6.319   7.988 -0.0356 -0.5711  0.0747
  525SOL    HW1 4977   4.067   6.279   7.919  1.9834  1.5491  0.2897
  525SOL    HW2 4978   3.985   6.403   7.951 -0.6158 -0.2911  1.1069
  526SOL     OW 4979   3.985   6.732   4.237 -0.5230  0.5202  0.3060
  526SOL    HW1 4980   3.938   6.799   4.288 -1.1319 -0.6762  1.3666
  526SOL    HW2 4981   3.946   6.649   4.265  0.5108 -0.3163 -0.6695
  527SOL     OW 4982  10.284   0.568   0.302 -0.0599  0.4321  0.4033
  527SOL    HW1 4983  10.202   0.615   0.293  0.1721  0.7892  0.1251
  527SOL    HW2 4984  10.272   0.512   0.379 -1.0010 -0.4237 -0.3443
  528SOL     OW 4985   0.913   1.908   0.209 -0.6263 -0.3473  0.2542
  528SOL    HW1 4986   0.969   1.918   0.286 -0.1107 -0.6024 -0.0786
  528SOL    HW2 4987   0.834   1.957   0.230  0.1376  0.8801  0.3256
  529SOL     OW 4988  10.640   3.651   9.197 -1.1477  0.1398  0.4618
  529SOL    HW1 4989  10.701   3.725   9.193 -0.6677 -0.2830 -0.3433
  529SOL    HW2 4990  10.577   3.668   9.128  0.2169 -1.2513 -1.2016
  530SOL     OW 4991   8.446   6.625   8.967 -0.0774  0.4704 -0.7497
  530SOL    HW1 4992   8.433   6.679   8.889  0.5431  0.8178 -0.6179
  530SOL    HW2 4993   8.489   6.546   8.934  0.1520  0.6013 -0.7633
  531SOL     OW 4994   8.987   0.661   9.428 -0.3624 -0.2359  0.0527
  531SOL    HW1 4995   8.891   0.667   9.427 -0.4170 -0.5953  1.2554
  531SOL    HW2 4996   9.005   0.568   9.418 -0.1181 -0.1296 -0.5252
  532SOL     OW 4997   3.890   7.765   3.190  0.1780  0.5552  0.4332
  532SOL    HW1 4998   3.906   7.670   3.190  1.4529  0.7429  1.2590
  532SOL    HW2 4999   3.817   7.777   3.250  0.5504  0.1648  0.9734
  533SOL     OW 5000   7.166   4.426   9.394 -0.7430 -0.0708 -0.1126
  533SOL    HW1 5001   7.109   4.498   9.422 -2.3081 -0.7262 -1.4275
  533SOL    HW2 5002   7.202   4.456   9.311  0.0470 -0.0958  0.2120
  534SOL     OW 5003   2.347   0.942   1.642 -0.0072  0.5217  0.0591
  534SOL    HW1 5004   2.342   1.003   1.715  0.0087  1.6189 -0.8175
  534SOL    HW2 5005   2.389   0.865   1.677 -1.1742  0.5129  1.5275
  535SOL     OW 5006   0.286   6.123  10.057 -0.0057 -0.2978  0.2394
  535SOL    HW1 5007   0.212   6.118  10.118 -0.9701  0.7107 -0.7880
  535SOL    HW2 5008   0.299   6.217  10.043 -1.4470 -0.4304 -2.9030
  536SOL     OW 5009   0.839   0.954   0.902 -0.2073 -0.4728  0.3512
  536SOL    HW1 5010   0.932   0.966   0.918  0.6664 -4.0497 -1.2045
  536SOL    HW2 5011   0.834   0.911   0.817 -3.4019  0.4994 -0.1168
  537SOL     OW 5012   2.098  10.419  10.646 -0.3979  0.6528 -0.3062
  537SOL    HW1 5013   2.178  10.393  10.692 -0.9013 -1.9958 -0.7213
  537SOL    HW2 5014   2.061  10.490  10.699  0.6814 -0.1076  1.5770
  538SOL     OW 5015   6.385   7.993   9.581 -0.3318  0.2829 -0.7264
  538SOL    HW1 5016   6.328   7.916   9.581 -1.2735  0.9396  0.5678
  538SOL    HW2 5017   6.335   8.060   9.534 -1.1942  1.2049  1.3852
  539SOL     OW 5018   4.966   6.172   6.695 -0.3084 -0.4170 -0.1563
  539SOL    HW1 5019   4.972   6.161   6.790  1.0380 -1.2135 -0.2978
  539SOL    HW2 5020   4.978   6.083   6.660  0.8944  0.0786 -1.0873
  540SOL     OW 5021   8.121   7.632   3.043 -0.1983  0.1201 -0.2069
  540SOL    HW1 5022   8.108   7.650   3.136 -0.8379 -1.4442  0.0334
  540SOL    HW2 5023   8.057   7.563   3.023  0.7768 -0.4390 -1.4999
  541SOL     OW 5024  10.871   5.461   4.348  0.1814  0.0877 -0.4634
  541SOL    HW1 5025  10.884   5.531   4.412  0.0463  0.7990 -1.1832
  541SOL    HW2 5026  10.956   5.418   4.341  0.2085  0.0398  0.1563
  542SOL     OW 5027   8.530   7.370   0.361  0.3618  0.2130  0.4446
  542SOL    HW1 5028   8.581   7.339   0.285  1.1121  0.6652  0.7549
  542SOL    HW2 5029   8.451   7.408   0.323 -0.4029 -1.6632  0.0154
  543SOL     OW 5030   0.606  10.358   5.957 -0.8568  0.1772  0.8390
  543SOL    HW1 5031   0.511  10.351   5.962 -1.0527  1.8926  0.1279
  543SOL    HW2 5032   0.632  10.397   6.040 -0.4257 -2.7128  2.1862
  544SOL     OW 5033   0.372   5.194   4.619  0.5245 -0.2680 -0.3932
  544SOL    HW1 5034   0.440   5.153   4.565 -0.3560  0.2543 -1.9540
  544SOL    HW2 5035   0.396   5.286   4.620 -0.5772  0.0642 -1.6663
  545SOL     OW 5036   2.193   6.615   4.590  0.5041 -0.7228 -0.0909
  545SOL    HW1 5037   2.232   6.574   4.668  0.6280 -0.4961 -0.0333
  545SOL    HW2 5038   2.243   6.579   4.517 -0.0203 -1.4261 -0.1240
  546SOL     OW 5039   4.326   6.559   3.590 -0.4625  0.3975 -0.1030
  546SOL    HW1 5040   4.302   6.618   3.662  0.9803 -0.2540  0.9640
  546SOL    HW2 5041   4.414   6.587   3.565 -0.3509 -0.3705 -0.5753
  547SOL     OW 5042   0.085  10.344   6.384  0.7108 -0.4246  0.6537
  547SOL    HW1 5043   0.059  10.328   6.475  2.6244 -0.6620  1.2079
  547SOL    HW2 5044   0.147  10.274   6.364 -1.3424 -1.7488 -1.6526
  548SOL     OW 5045  10.446   7.240   8.428  0.0088 -0.0304 -0.2707
  548SOL    HW1 5046  10.390   7.292   8.485 -0.7810 -2.9670  1.8641
  548SOL    HW2 5047  10.535   7.260   8.457 -0.2892 -0.0166  0.6519
  549SOL     OW 5048   2.821   6.766   3.862 -0.0739 -0.1475 -0.2526
  549SOL    HW1 5049   2.824   6.822   3.785 -0.2934 -0.3010 -0.3739
  549SOL    HW2 5050   2.744   6.795   3.911  1.1672  1.2926  0.9525
  550SOL     OW 5051   1.954   5.131   4.743  0.7051 -0.3466  0.0924
  550SOL    HW1 5052   1.990   5.065   4.803 -1.6987 -0.8927  1.0399
  550SOL    HW2 5053   1.905   5.190   4.800  0.9759  1.0079 -1.0185
  551SOL     OW 5054   2.779   7.672   3.392 -0.0981  0.1302 -0.1829
  551SOL    HW1 5055   2.865   7.651   3.356  0.1003  0.5720  0.0185
  551SOL    HW2 5056   2.785   7.650   3.485 -0.2796 -0.0596 -0.2152
  552SOL     OW 5057   2.294   4.483   4.178  0.4571 -0.4847 -0.1212
  552SOL    HW1 5058   2.353   4.540   4.229 -0.8328  0.4409  0.4019
  552SOL    HW2 5059   2.285   4.404   4.231  0.9408 -0.4930 -0.0432
  553SOL     OW 5060   8.191   3.851   5.713  0.5037  1.2473  0.2019
  553SOL    HW1 5061   8.101   3.876   5.734 -0.4620 -1.5525 -0.2427
  553SOL    HW2 5062   8.203   3.767   5.755  1.9083  0.1956 -2.0997
  554SOL     OW 5063   4.913   3.777   6.837  0.8107 -0.1453  0.0496
  554SOL    HW1 5064   4.883   3.859   6.797 -0.7999  0.0633  1.5400
  554SOL    HW2 5065   4.947   3.726   6.764 -0.8266  0.7108 -1.4066
  555SOL     OW 5066   8.076   0.914   9.501 -0.0253  0.2439  0.2668
  555SOL    HW1 5067   8.151   0.857   9.483 -1.2011 -1.1540 -0.3981
  555SOL    HW2 5068   8.113   1.002   9.502  1.6249 -0.4061 -0.0178
  556SOL     OW 5069   6.349   3.445   1.993  0.3629  0.5051  0.0924
  556SOL    HW1 5070   6.423   3.384   1.999  0.9552  1.2882  1.1745
  556SOL    HW2 5071   6.290   3.418   2.063  0.4575  0.9220  0.3425
  557SOL     OW 5072   4.509   0.102   3.939 -0.3964 -0.0574  0.7284
  557SOL    HW1 5073   4.441   0.090   3.872 -0.1979  1.0485  0.2985
  557SOL    HW2 5074   4.515   0.197   3.949 -0.3331 -0.1992  2.2373
  558SOL     OW 5075   4.837   9.950   4.167  0.1917 -0.0265  0.2603
  558SOL    HW1 5076   4.778   9.888   4.124 -0.3307  1.9346 -2.1051
  558SOL    HW2 5077   4.783  10.028   4.180  0.7400 -0.0648  3.4240
  559SOL     OW 5078   0.096   6.720   6.243 -0.1382 -0.3010  0.5706
  559SOL    HW1 5079   0.056   6.659   6.180 -0.4550  0.0137  0.4605
  559SOL    HW2 5080   0.102   6.669   6.324  1.6023 -1.1854 -0.0666
  560SOL     OW 5081   9.128   8.619   8.322  0.4053 -0.1638  0.6297
  560SOL    HW1 5082   9.201   8.674   8.351  2.1018 -1.3428 -1.1957
  560SOL    HW2 5083   9.063   8.681   8.289  1.9904  0.8552 -0.7592
  561SOL     OW 5084   1.768   5.438   9.631  0.7065  0.2729  0.5314
  561SOL    HW1 5085   1.814   5.472   9.708 -0.2062  1.7296  0.4714
  561SOL    HW2 5086   1.695   5.388   9.666 -0.9231  2.6117  0.7051
  562SOL     OW 5087   3.010  10.158  10.244  0.1282  0.0087  0.3284
  562SOL    HW1 5088   3.012  10.254  10.246 -0.4906  0.2788 -3.5356
  562SOL    HW2 5089   3.098  10.132  10.216  0.3821 -0.6198  1.6362
  563SOL     OW 5090  10.757   1.971  10.331 -0.1405 -0.3607  0.4169
  563SOL    HW1 5091  10.679   2.013  10.295 -0.0171  0.9276  1.5966
  563SOL    HW2 5092  10.788   1.914  10.260 -0.2624  1.5990 -1.3048
  564SOL     OW 5093   0.619   8.231   9.132  0.6426  0.7804  0.0638
  564SOL    HW1 5094   0.661   8.298   9.078  2.6258  0.0831  0.6569
  564SOL    HW2 5095   0.674   8.153   9.120 -0.8910 -0.3970  0.3673
  565SOL     OW 5096   3.547   9.021   2.515 -0.4853 -0.0231 -0.0771
  565SOL    HW1 5097   3.562   9.112   2.544 -0.5919 -0.4299  1.3313
  565SOL    HW2 5098   3.635   8.987   2.499 -0.4795  0.5377 -1.3356
  566SOL     OW 5099   3.214   5.776   3.543 -0.0585  0.1834  0.4546
  566SOL    HW1 5100   3.155   5.803   3.613 -0.4161  0.0959  0.1915
  566SOL    HW2 5101   3.237   5.857   3.498 -0.5552  0.1353  0.1109
  567SOL     OW 5102  10.825   1.581   2.778  0.2205 -0.3246  0.0558
  567SOL    HW1 5103  10.899   1.640   2.764  0.0596 -0.2340 -0.4300
  567SOL    HW2 5104  10.863   1.493   2.770  0.2846 -0.2787 -0.1521
  568SOL     OW 5105  10.639  10.487   0.767 -0.0666  0.0549  0.5178
  568SOL    HW1 5106  10.646  10.439   0.850 -2.7736 -0.1374  0.7199
  568SOL    HW2 5107  10.547  10.477   0.741  0.4162  1.1534 -1.8958
  569SOL     OW 5108   6.788   2.115   8.264 -0.0276  0.2327  0.4968
  569SOL    HW1 5109   6.849   2.148   8.331  1.4704  0.8170 -1.0617
  569SOL    HW2 5110   6.740   2.193   8.235 -0.3883  0.0567  0.6230
  570SOL     OW 5111   0.138   0.182   4.757 -0.0249  0.1377 -0.5295
  570SOL    HW1 5112   0.130   0.247   4.826  0.6209  0.4988 -0.7914
  570SOL    HW2 5113   0.156   0.100   4.803  2.5204  0.7316 -0.3220
  571SOL     OW 5114   8.667   8.775   0.126  0.0429 -0.3868  0.5482
  571SOL    HW1 5115   8.748   8.812   0.090 -0.1470 -0.7970 -0.3349
  571SOL    HW2 5116   8.609   8.850   0.138 -0.0705 -0.2931 -0.5038
  572SOL     OW 5117   2.399   6.363   1.558  0.6216 -0.4158  0.3345
  572SOL    HW1 5118   2.348   6.441   1.533  1.3570  0.0664  0.3118
  572SOL    HW2 5119   2.489   6.385   1.534  1.6328  0.5511  4.2761
  573SOL     OW 5120   1.112   6.419  10.638 -0.0419 -0.2572 -0.0389
  573SOL    HW1 5121   1.029   6.396  10.681 -0.2077 -1.2559 -0.8597
  573SOL    HW2 5122   1.171   6.440  10.710 -0.4165 -1.5341  0.6711
  574SOL     OW 5123   0.227  10.008   0.839 -0.4272  0.3336  0.5232
  574SOL    HW1 5124   0.218   9.917   0.866 -0.9445  0.5290  1.0453
  574SOL    HW2 5125   0.138  10.043   0.845 -0.6489  0.2959 -1.8113
  575SOL     OW 5126   6.550   2.863   7.398  0.0883  0.3191 -0.4271
  575SOL    HW1 5127   6.607   2.940   7.407  1.4427 -0.8896  2.7897
  575SOL    HW2 5128   6.610   2.788   7.403 -1.6152 -1.0436  3.4538
  576SOL     OW 5129   3.189   9.148  10.654  0.3638  0.7305  0.1182
  576SOL    HW1 5130   3.161   9.226  10.701  3.4114  2.1731 -0.2563
  576SOL    HW2 5131   3.239   9.098  10.719 -1.1612 -0.7704  0.2203
  577SOL     OW 5132   8.058   0.746   7.892  0.1112 -0.0617  0.7890
  577SOL    HW1 5133   7.982   0.770   7.838  1.3867 -0.4517 -1.2807
  577SOL    HW2 5134   8.036   0.661   7.928  0.0782 -0.8168 -0.9248
  578SOL     OW 5135   0.273   3.733   2.059  0.1447 -0.5871  0.2526
  578SOL    HW1 5136   0.298   3.691   1.977 -2.7220 -2.0365 -0.0067
  578SOL    HW2 5137   0.346   3.714   2.119  0.8252 -2.3215 -1.0418
  579SOL     OW 5138   5.684   6.556   5.470 -0.2607 -0.3564 -1.0454
  579SOL    HW1 5139   5.711   6.509   5.548  1.1274  0.7352 -0.8214
  579SOL    HW2 5140   5.700   6.648   5.491 -2.8317  0.2605 -1.4845
  580SOL     OW 5141   8.944   0.535   5.024  0.0499  0.4464  0.1656
  580SOL    HW1 5142   8.903   0.519   4.939 -0.7357  0.2735  0.5670
  580SOL    HW2 5143   9.010   0.602   5.007 -1.1013  1.4923 -0.3145
  581SOL     OW 5144   9.361  10.372   1.835  0.4751  0.7536  0.6693
  581SOL    HW1 5145   9.434  10.403   1.781  0.7746  1.2174  1.3207
  581SOL    HW2 5146   9.283  10.411   1.795  0.7493  1.5462  0.8828
  582SOL     OW 5147  10.847   2.100   4.873  0.0387 -0.3183  0.1897
  582SOL    HW1 5148  10.854   2.118   4.967  1.5799  0.1568  0.0142
  582SOL    HW2 5149  10.835   2.005   4.868 -2.1491 -0.1273  0.9131
  583SOL     OW 5150   5.850   1.766   8.207  0.5076  0.1811 -0.4393
  583SOL    HW1 5151   5.859   1.840   8.267  0.7169  0.3195 -0.6408
  583SOL    HW2 5152   5.895   1.794   8.127 -1.3438  0.7508 -1.3393
  584SOL     OW 5153   1.079   5.311   2.711 -0.7081 -0.1272 -0.1635
  584SOL    HW1 5154   1.090   5.260   2.791  1.8790 -0.7998 -0.8296
  584SOL    HW2 5155   1.097   5.249   2.640  1.5709  1.3850 -1.0353
  585SOL     OW 5156   7.810   9.952  10.721  0.0896  0.0715 -0.0133
  585SOL    HW1 5157   7.758   9.884  10.677  0.8092  0.5625 -1.6735
  585SOL    HW2 5158   7.871   9.982  10.655  0.4933  1.6208  1.0190
  586SOL     OW 5159   3.582   3.456   8.944 -0.4665  0.4525 -0.1632
  586SOL    HW1 5160   3.488   3.452   8.963 -0.4800  0.2324 -0.2753
  586SOL    HW2 5161   3.588   3.511   8.866 -0.1459  4.3876  2.3698
  587SOL     OW 5162   9.202   7.446   9.413 -0.2078 -0.3985 -0.4296
  587SOL    HW1 5163   9.274   7.425   9.472 -2.0857 -2.6851  1.2704
  587SOL    HW2 5164   9.214   7.538   9.390  2.0421 -0.1509  1.4623
  588SOL     OW 5165   2.323   0.893   2.897 -0.2719 -0.5759  0.3794
  588SOL    HW1 5166   2.290   0.900   2.987 -0.9917  0.2295  0.0604
  588SOL    HW2 5167   2.290   0.972   2.853  0.4362 -0.7453 -0.4781
  589SOL     OW 5168   2.624   9.265   9.695  0.2449 -0.2730 -0.7437
  589SOL    HW1 5169   2.660   9.256   9.608  0.8110 -1.4065 -0.4001
  589SOL    HW2 5170   2.664   9.345   9.730  0.9437 -0.4741 -1.0785
  590SOL     OW 5171   0.150   3.501  10.613 -0.0925 -0.6453  0.3112
  590SOL    HW1 5172   0.081   3.440  10.588  0.9427 -0.6568 -3.0192
  590SOL    HW2 5173   0.229   3.446  10.621  0.7673  0.0498 -2.3396
  591SOL     OW 5174   7.531   0.200   0.570  0.1415  0.1173 -0.0058
  591SOL    HW1 5175   7.499   0.230   0.485 -0.9662  0.1646  0.4075
  591SOL    HW2 5176   7.566   0.278   0.611  3.8472 -0.4512 -1.6931
  592SOL     OW 5177   8.128   9.478   2.069  0.3066  0.1684  0.5491
  592SOL    HW1 5178   8.130   9.405   2.132 -0.5097 -0.6974 -0.3900
  592SOL    HW2 5179   8.124   9.557   2.124  0.7519 -0.4995  1.5867
  593SOL     OW 5180  10.797   7.415   7.268  0.2938  0.0729  0.4493
  593SOL    HW1 5181  10.725   7.471   7.296  0.2293  0.1410  0.1550
  593SOL    HW2 5182  10.777   7.329   7.305 -1.0891 -0.4631 -1.4055
  594SOL     OW 5183   4.359   0.739   1.875  0.2404  0.3281 -0.5319
  594SOL    HW1 5184   4.335   0.768   1.787  2.3939  0.8619 -0.9934
  594SOL    HW2 5185   4.377   0.820   1.923  1.7068 -0.0259 -0.4369
  595SOL     OW 5186   6.001   3.939   2.797  0.5894 -0.4335 -0.0904
  595SOL    HW1 5187   5.944   4.016   2.793  0.6661 -0.4167 -2.4361
  595SOL    HW2 5188   5.961   3.877   2.736  1.7711 -1.3648  0.0590
  596SOL     OW 5189   6.097   8.896   8.808  0.1546 -0.0159 -0.3968
  596SOL    HW1 5190   6.170   8.860   8.858  0.1627 -1.4043 -1.3536
  596SOL    HW2 5191   6.110   8.990   8.812  2.2976 -0.2294 -0.9548
  597SOL     OW 5192   9.399   9.777   6.252  0.1477 -0.2662  0.0559
  597SOL    HW1 5193   9.315   9.733   6.245  0.3986 -0.7577  0.0570
  597SOL    HW2 5194   9.457   9.726   6.195  0.3365  0.3282 -0.2861
  598SOL     OW 5195   3.938  10.213   7.191 -0.0783 -0.6639 -1.0062
  598SOL    HW1 5196   3.979  10.292   7.227 -0.5030 -1.1045  0.4861
  598SOL    HW2 5197   4.005  10.175   7.134  1.1107 -0.6321  0.3255
  599SOL     OW 5198   3.537   0.358   5.176  0.1294 -0.0232  0.0828
  599SOL    HW1 5199   3.517   0.391   5.264  2.3101 -0.9461  1.0190
  599SOL    HW2 5200   3.511   0.266   5.179 -0.4427  0.1173 -0.4922
  600SOL     OW 5201   4.075   8.761   9.357 -0.4982 -0.7832  0.1172
  600SOL    HW1 5202   4.117   8.679   9.329 -0.4159 -0.7962  0.2781
  600SOL    HW2 5203   4.000   8.732   9.410  0.2105 -0.7480  1.1573
  601SOL     OW 5204   4.616   6.542   7.080 -0.0714 -0.4613  0.1613
  601SOL    HW1 5205   4.533   6.555   7.125  0.0261  0.4366  0.1057
  601SOL    HW2 5206   4.670   6.617   7.107 -0.0128  0.1113 -1.4499
  602SOL     OW 5207   1.812   9.428   3.631  0.3841 -0.2113  0.2309
  602SOL    HW1 5208   1.903   9.455   3.643  0.8887 -2.0094  0.7882
  602SOL    HW2 5209   1.817   9.354   3.571 -1.0378  1.3892 -2.0288
  603SOL     OW 5210   5.542   9.851   1.458  0.0920 -0.1676 -0.4000
  603SOL    HW1 5211   5.572   9.773   1.504  0.3670 -0.2685 -0.7418
  603SOL    HW2 5212   5.455   9.869   1.493  0.4927  0.0443  0.5136
  604SOL     OW 5213   0.688   9.624   4.515  0.0228  0.3806  0.5714
  604SOL    HW1 5214   0.607   9.671   4.533  0.1411  0.1068  2.0138
  604SOL    HW2 5215   0.671   9.535   4.548  0.1523 -0.3310 -1.1617
  605SOL     OW 5216   2.324   5.026   6.012  0.1801  0.1894 -0.3040
  605SOL    HW1 5217   2.385   5.004   5.941  0.5907 -3.4532  0.9654
  605SOL    HW2 5218   2.344   4.963   6.082 -1.8764  1.9724  2.0838
  606SOL     OW 5219   2.608   0.827  10.652  0.3658 -0.2004  0.5751
  606SOL    HW1 5220   2.691   0.867  10.678  0.6855 -0.3913 -0.1250
  606SOL    HW2 5221   2.633   0.761  10.588 -0.4167  0.3916 -0.3637
  607SOL     OW 5222   3.760   3.577   7.002 -0.1932  0.4162 -0.1556
  607SOL    HW1 5223   3.813   3.644   6.959  0.1663  0.8359  0.9080
  607SOL    HW2 5224   3.824   3.514   7.035  0.0053  2.2894  3.5356
  608SOL     OW 5225   9.194   9.210   8.926 -0.3687  0.0438 -0.1845
  608SOL    HW1 5226   9.193   9.156   8.847 -1.3590  0.7450 -0.6703
  608SOL    HW2 5227   9.173   9.298   8.895 -1.9281  0.1212  0.9998
  609SOL     OW 5228   2.869   0.159   2.029  0.4656  0.2094 -0.0669
  609SOL    HW1 5229   2.824   0.161   1.944 -0.4095  0.1768  0.3826
  609SOL    HW2 5230   2.833   0.082   2.073  1.1140  0.0768  0.2324
  610SOL     OW 5231   2.057   1.667   0.053 -0.0601 -0.5817  0.0670
  610SOL    HW1 5232   2.030   1.751   0.091  0.9368 -0.8250  1.3719
  610SOL    HW2 5233   2.017   1.602   0.111  0.5758 -0.9748  0.0676
  611SOL     OW 5234   9.261   0.457   2.094 -0.3241 -0.1781  0.0372
  611SOL    HW1 5235   9.259   0.454   1.998 -0.2197 -0.2498  0.0369
  611SOL    HW2 5236   9.260   0.550   2.115  2.0751 -0.0771 -0.0901
  612SOL     OW 5237   8.232  10.579   5.703 -0.5616 -0.0550  0.3498
  612SOL    HW1 5238   8.317  10.585   5.746 -1.2116 -2.9245  2.3036
  612SOL    HW2 5239   8.169  10.580   5.775 -1.9541 -1.4533 -0.7923
  613SOL     OW 5240   5.482   6.268   0.505 -0.4065  0.1939  0.1601
  613SOL    HW1 5241   5.408   6.297   0.451  0.2378  0.1740 -0.7683
  613SOL    HW2 5242   5.494   6.176   0.481  1.2473  0.7331 -1.3477
  614SOL     OW 5243  10.252   3.816   8.238  0.4680 -0.3216 -0.3713
  614SOL    HW1 5244  10.258   3.893   8.294  3.2186 -0.4766 -0.2719
  614SOL    HW2 5245  10.187   3.760   8.281  0.4439  0.7757  1.0968
  615SOL     OW 5246   9.494   3.738   0.931 -0.0670 -0.3027 -0.2188
  615SOL    HW1 5247   9.433   3.685   0.983  1.9598 -1.5444  1.0150
  615SOL    HW2 5248   9.533   3.675   0.870  0.6130  0.2974 -0.4085
  616SOL     OW 5249   3.611   9.961   4.101 -0.3096 -0.3491 -0.0003
  616SOL    HW1 5250   3.666   9.976   4.024 -2.2626  0.6673 -1.2706
  616SOL    HW2 5251   3.563  10.043   4.113  0.3678 -0.2358  2.7295
  617SOL     OW 5252   9.154   4.004   5.881 -0.3118 -0.1103 -0.7710
  617SOL    HW1 5253   9.096   4.016   5.956 -0.5622 -0.4294 -0.9115
  617SOL    HW2 5254   9.207   4.083   5.878 -1.7279  0.8460 -1.5222
  618SOL     OW 5255   7.288   0.273   0.740  0.3881 -0.3059 -0.3573
  618SOL    HW1 5256   7.319   0.364   0.747 -0.0865 -0.0595 -1.2964
  618SOL    HW2 5257   7.362   0.225   0.703  0.1050  0.0310 -1.3970
  619SOL     OW 5258   8.339   8.485  10.853  0.1339  0.0498  0.5662
  619SOL    HW1 5259   8.432   8.465  10.841  0.4269  0.5262  1.8866
  619SOL    HW2 5260   8.320   8.549  10.784  0.0932 -1.9145 -1.3563
  620SOL     OW 5261   3.726   6.240   6.056 -0.2213  0.2658  0.0509
  620SOL    HW1 5262   3.725   6.154   6.097 -0.2265  1.4594  2.7632
  620SOL    HW2 5263   3.682   6.227   5.972  1.1119 -2.6440 -0.3216
  621SOL     OW 5264   8.422   7.809   8.047  0.8163 -0.5452 -0.3793
  621SOL    HW1 5265   8.504   7.853   8.068  1.2932 -1.8458  0.5709
  621SOL    HW2 5266   8.386   7.860   7.974  2.8355 -0.4240 -1.3462
  622SOL     OW 5267   7.800   3.133   1.968  0.1711 -0.0886  0.6809
  622SOL    HW1 5268   7.800   3.221   1.929 -1.8740 -0.8903 -1.3730
  622SOL    HW2 5269   7.721   3.131   2.023  1.7717  0.2359  3.1292
  623SOL     OW 5270   1.395   6.928   0.795 -0.2539  0.0825  0.3293
  623SOL    HW1 5271   1.333   7.000   0.784 -0.4059 -0.2606 -1.2302
  623SOL    HW2 5272   1.349   6.851   0.762  1.4200  0.0407 -2.1619
  624SOL     OW 5273   6.676   2.639   9.967 -0.3080  0.2631 -0.0854
  624SOL    HW1 5274   6.664   2.666  10.058  2.4058  0.8110  0.1775
  624SOL    HW2 5275   6.690   2.720   9.919  1.0658 -0.1861 -0.4846
  625SOL     OW 5276   2.548   0.588   0.365 -0.1719  0.2107  0.2609
  625SOL    HW1 5277   2.505   0.653   0.420 -0.6373  0.3748 -0.2819
  625SOL    HW2 5278   2.569   0.635   0.284  0.8617  0.0789  0.4436
  626SOL     OW 5279   5.027   3.366   2.277 -0.2811 -0.1636  0.0492
  626SOL    HW1 5280   5.061   3.377   2.188 -2.4488  2.8278 -0.5766
  626SOL    HW2 5281   5.089   3.412   2.333  0.6197 -1.2937  0.0161
  627SOL     OW 5282   6.081   9.367   1.694 -0.1830 -0.3216  0.2718
  627SOL    HW1 5283   6.131   9.415   1.628 -0.3144  0.6046  0.8372
  627SOL    HW2 5284   6.010   9.325   1.644  0.7181 -1.0725 -0.4237
  628SOL     OW 5285   8.895   8.964   0.676 -0.2310  0.4133 -0.5946
  628SOL    HW1 5286   8.985   8.967   0.709  0.3138  1.3897 -2.0916
  628SOL    HW2 5287   8.893   8.891   0.615 -0.7933 -0.3202  0.2585
  629SOL     OW 5288   6.674   0.888   5.524  0.0465  0.4468 -0.3447
  629SOL    HW1 5289   6.681   0.957   5.459  0.3160  1.9185  1.1869
  629SOL    HW2 5290   6.763   0.877   5.556 -0.5844  2.6038  2.5518
  630SOL     OW 5291   0.605   1.025   6.896  0.5812  0.0042 -0.1692
  630SOL    HW1 5292   0.692   1.051   6.929 -0.0491  1.6260  0.3186
  630SOL    HW2 5293   0.578   0.954   6.953  1.9234 -1.1333 -0.8619
  631SOL     OW 5294   1.532   9.053   1.449  0.1429 -0.3401 -0.1330
  631SOL    HW1 5295   1.477   9.055   1.526  0.6817 -2.2094  0.3377
  631SOL    HW2 5296   1.572   9.140   1.446  0.0485 -0.2096  1.6366
  632SOL     OW 5297   4.967   0.905  10.726 -0.1677 -0.5090  0.4286
  632SOL    HW1 5298   4.915   0.825  10.717 -0.5519 -0.7910  3.7885
  632SOL    HW2 5299   5.022   0.889  10.802  0.0958  2.2347  0.9168
  633SOL     OW 5300   9.704   4.024   0.303 -0.4196  0.7855  0.0281
  633SOL    HW1 5301   9.762   4.022   0.227 -0.3203  1.0565  0.0960
  633SOL    HW2 5302   9.754   4.070   0.371 -0.3299  0.1429  0.4071
  634SOL     OW 5303   6.696   3.830   9.648 -0.2534  0.5561  0.5454
  634SOL    HW1 5304   6.633   3.902   9.643  0.1050  0.9777  1.7092
  634SOL    HW2 5305   6.690   3.787   9.563 -2.2067  0.4878  0.6848
  635SOL     OW 5306   4.724   4.126   5.768 -0.4824  0.0161  0.2474
  635SOL    HW1 5307   4.695   4.038   5.796 -0.7159  0.2006  0.6055
  635SOL    HW2 5308   4.648   4.162   5.724 -0.4069  0.0614  0.1560
  636SOL     OW 5309  10.212   3.852   4.452  0.3096  0.1805 -0.3283
  636SOL    HW1 5310  10.285   3.874   4.394  0.2304  1.6201  0.0844
  636SOL    HW2 5311  10.138   3.902   4.418 -0.6988 -1.7362 -1.1143
  637SOL     OW 5312   2.022   6.106   1.595 -0.0857 -0.1927 -0.5889
  637SOL    HW1 5313   1.996   6.027   1.643  0.2871 -0.6820 -1.1746
  637SOL    HW2 5314   2.118   6.103   1.596 -0.0557  0.6620  0.0389
  638SOL     OW 5315   5.141   4.402   9.447  0.2465  0.3372 -0.4004
  638SOL    HW1 5316   5.217   4.400   9.389  0.9966 -0.2300  0.5468
  638SOL    HW2 5317   5.131   4.494   9.471 -0.0419  0.5678 -1.3701
  639SOL     OW 5318   4.512   5.457   9.062 -0.3752  0.3254 -0.1067
  639SOL    HW1 5319   4.430   5.413   9.044 -0.6073  0.6691  0.0921
  639SOL    HW2 5320   4.497   5.548   9.035  0.1259  0.2620 -0.6067
  640SOL     OW 5321  10.879   3.538   9.309  0.2381 -0.2025  0.3461
  640SOL    HW1 5322  10.871   3.592   9.388 -0.1816 -0.9176  0.7950
  640SOL    HW2 5323  10.868   3.600   9.236  1.4576  0.6103  0.8192
  641SOL     OW 5324   1.624   6.445   3.959 -0.3592  1.0554  0.0183
  641SOL    HW1 5325   1.705   6.426   4.005 -1.3497 -2.0278  0.7444
  641SOL    HW2 5326   1.557   6.448   4.027 -1.3359 -0.1159 -0.8222
  642SOL     OW 5327   6.380   1.150  10.571 -0.3929 -0.7628 -0.3223
  642SOL    HW1 5328   6.387   1.058  10.594 -1.8826 -0.9795 -0.6302
  642SOL    HW2 5329   6.286   1.166  10.564 -0.1297  0.1143 -2.9205
  643SOL     OW 5330   1.717   0.561   5.056  0.5252 -0.4123 -0.1203
  643SOL    HW1 5331   1.688   0.647   5.027 -0.5077 -0.7857 -0.2446
  643SOL    HW2 5332   1.676   0.549   5.142  1.5660 -0.3305  0.4048
  644SOL     OW 5333   2.481   4.092   5.734 -0.0073 -0.6311  0.3247
  644SOL    HW1 5334   2.558   4.140   5.702 -1.1681  0.3174 -1.1621
  644SOL    HW2 5335   2.492   4.004   5.697  0.6426 -0.6876  0.6220
  645SOL     OW 5336   4.449   0.309   5.922  0.2328  0.0458  0.6090
  645SOL    HW1 5337   4.441   0.240   5.988 -0.4085 -0.4724  0.0070
  645SOL    HW2 5338   4.458   0.262   5.839 -0.3858  0.6800  0.1671
  646SOL     OW 5339   4.328  10.236  10.622  0.1423 -0.2634 -0.1876
  646SOL    HW1 5340   4.316  10.204  10.533  0.9961  1.4862 -0.9789
  646SOL    HW2 5341   4.262  10.305  10.632  0.2397 -0.2533  0.4455
  647SOL     OW 5342  10.890  10.900  10.223  0.0574  0.2671 -0.1505
  647SOL    HW1 5343  10.813  10.878  10.170 -0.1417 -0.2088  0.3237
  647SOL    HW2 5344  10.877  10.992  10.247 -1.5283 -0.3756  1.7902
  648SOL     OW 5345  10.002   7.320  10.736 -0.0291  0.4457  0.3198
  648SOL    HW1 5346   9.989   7.279  10.822  1.9526  1.0933  0.9757
  648SOL    HW2 5347  10.083   7.282  10.703  0.8048  2.3690  0.0724
  649SOL     OW 5348   5.134   1.175   8.383  0.3111  0.0564  0.3462
  649SOL    HW1 5349   5.197   1.164   8.312  0.0551 -2.2563  0.4187
  649SOL    HW2 5350   5.184   1.159   8.463  0.0951  0.3692  0.5481
  650SOL     OW 5351   3.751   6.265   4.819 -0.1271  0.7588  0.0306
  650SOL    HW1 5352   3.733   6.336   4.757  0.8747  0.6876 -0.3590
  650SOL    HW2 5353   3.814   6.303   4.881  1.0843 -0.0316 -0.6868
  651SOL     OW 5354   2.695   6.529   1.802  0.1937 -0.2192  0.1473
  651SOL    HW1 5355   2.633   6.580   1.854  0.7684 -0.1704  0.7901
  651SOL    HW2 5356   2.774   6.582   1.799 -0.0840  0.1586 -1.4735
  652SOL     OW 5357   6.789   8.318   6.821  0.0113  0.5246  0.2704
  652SOL    HW1 5358   6.794   8.268   6.739 -2.3056 -0.9104  0.9205
  652SOL    HW2 5359   6.827   8.260   6.887  2.4865  1.9333  0.2130
  653SOL     OW 5360  10.879   6.651   9.036  0.2942 -0.7112 -0.4768
  653SOL    HW1 5361  10.850   6.693   9.117  0.4828 -1.4740  0.0002
  653SOL    HW2 5362  10.962   6.609   9.060 -0.7527 -2.8445 -0.4344
  654SOL     OW 5363   7.087   4.263   0.278 -0.6275  0.6927  0.2355
  654SOL    HW1 5364   7.057   4.174   0.257 -2.5291  1.5001 -0.6045
  654SOL    HW2 5365   7.157   4.280   0.215  1.5186 -1.0509  1.9499
  655SOL     OW 5366   4.805   2.396   3.400 -0.4121 -0.4359  0.1507
  655SOL    HW1 5367   4.877   2.336   3.379 -0.0229 -0.2811  1.0088
  655SOL    HW2 5368   4.778   2.431   3.315  1.6596  0.8210 -0.0658
  656SOL     OW 5369   7.208   8.332   0.771  0.5144 -0.0897  0.6794
  656SOL    HW1 5370   7.206   8.288   0.856  1.4671  0.0371  0.7833
  656SOL    HW2 5371   7.123   8.312   0.732  1.1094 -2.5334  0.4666
  657SOL     OW 5372   1.168   8.825   9.557  0.6795  0.0301 -0.3867
  657SOL    HW1 5373   1.130   8.841   9.470  0.1482  0.4332 -0.0891
  657SOL    HW2 5374   1.197   8.912   9.586 -0.6215  0.1953  0.5086
  658SOL     OW 5375   2.882   1.305   2.838  0.0406  0.0673  0.4139
  658SOL    HW1 5376   2.898   1.378   2.778  0.5177  0.8173  1.4215
  658SOL    HW2 5377   2.787   1.294   2.839 -0.3559  2.8093  2.6603
  659SOL     OW 5378   1.059   6.936   6.876 -0.1009 -0.5318 -0.8230
  659SOL    HW1 5379   1.076   6.918   6.783 -1.0350 -0.0670 -1.0906
  659SOL    HW2 5380   0.978   6.889   6.895  0.6554 -1.5286  0.0605
  660SOL     OW 5381   0.598   9.803   8.894 -0.0181  0.0952  0.2338
  660SOL    HW1 5382   0.584   9.811   8.988  0.0240 -0.0462  0.2524
  660SOL    HW2 5383   0.693   9.800   8.883 -0.0087 -2.4145  0.4167
  661SOL     OW 5384  10.349   5.740   3.578 -0.3954  0.0035  0.0141
  661SOL    HW1 5385  10.311   5.774   3.496  1.1513 -1.2240 -1.2896
  661SOL    HW2 5386  10.434   5.783   3.585 -0.1281 -0.5874  0.4608
  662SOL     OW 5387   1.268   9.240   2.713 -0.2226 -0.4024  0.3187
  662SOL    HW1 5388   1.186   9.197   2.688  0.7218 -1.3257 -1.3086
  662SOL    HW2 5389   1.336   9.187   2.673  1.0543  2.3243 -1.4197
  663SOL     OW 5390   6.332   7.827   5.972  0.6934 -0.3990  0.1517
  663SOL    HW1 5391   6.357   7.743   5.933  0.5982 -0.1500 -0.4638
  663SOL    HW2 5392   6.299   7.879   5.898 -0.6498 -0.3376  0.7676
  664SOL     OW 5393   1.894   6.343   3.331  0.0389 -0.0813  0.5693
  664SOL    HW1 5394   1.832   6.289   3.380 -0.7597  1.3387  1.1925
  664SOL    HW2 5395   1.887   6.312   3.241  1.7328 -2.9384  1.2718
  665SOL     OW 5396   1.130   8.104   1.453 -0.6892  0.2380 -0.2862
  665SOL    HW1 5397   1.190   8.161   1.502 -1.8718  0.8775  0.4779
  665SOL    HW2 5398   1.043   8.122   1.491 -1.2689 -1.2179 -0.8374
  666SOL     OW 5399   9.208   4.521   5.293 -0.3128  0.1268  0.1811
  666SOL    HW1 5400   9.196   4.484   5.206 -1.0534  1.8092 -0.4636
  666SOL    HW2 5401   9.301   4.545   5.296 -0.4612  0.8533 -0.5055
  667SOL     OW 5402   8.955   0.598   4.070 -0.3644  0.2735 -0.2427
  667SOL    HW1 5403   8.981   0.561   3.986 -0.3386  1.6515 -0.8725
  667SOL    HW2 5404   9.017   0.561   4.133  0.1776 -0.0805 -0.9680
  668SOL     OW 5405   7.694   9.090   4.027  0.1602 -0.1678  0.4378
  668SOL    HW1 5406   7.703   9.091   3.931 -0.6070 -1.9760  0.3025
  668SOL    HW2 5407   7.778   9.056   4.058  0.0450 -0.5349  0.3448
  669SOL     OW 5408   0.130   3.885   7.069  0.2468  0.9910 -0.4365
  669SOL    HW1 5409   0.040   3.893   7.103  0.0323  2.3492 -1.2438
  669SOL    HW2 5410   0.122   3.823   6.996  0.3496 -0.3980  0.6888
  670SOL     OW 5411   5.572   4.438   9.509  0.3825 -0.2849 -0.1958
  670SOL    HW1 5412   5.531   4.515   9.549 -1.0650 -1.5410  0.8404
  670SOL    HW2 5413   5.665   4.449   9.527  0.4809  2.1053 -1.6725
  671SOL     OW 5414  10.771   4.896   7.523 -0.3697 -0.1606  0.3503
  671SOL    HW1 5415  10.762   4.954   7.599 -0.1614 -1.7566  1.6434
  671SOL    HW2 5416  10.828   4.945   7.463 -1.8894  1.8474  0.4281
  672SOL     OW 5417   9.783   8.600   1.495  0.0981 -0.0301  0.1937
  672SOL    HW1 5418   9.755   8.545   1.422 -0.4207 -0.3639  0.6366
  672SOL    HW2 5419   9.871   8.569   1.515 -0.2877 -0.8926  0.6080
  673SOL     OW 5420   5.161   2.775   2.622  0.6693  0.6255 -0.5199
  673SOL    HW1 5421   5.196   2.732   2.544 -0.2262  0.6127 -0.9228
  673SOL    HW2 5422   5.182   2.868   2.609  1.3653  0.4977 -0.3186
  674SOL     OW 5423   9.135   1.890   3.943 -0.0672 -0.1056 -0.4947
  674SOL    HW1 5424   9.150   1.798   3.920  1.2727  0.4633 -2.0863
  674SOL    HW2 5425   9.077   1.923   3.874  0.0076  0.4208 -0.3112
  675SOL     OW 5426   2.156   6.426   9.607  0.8180  0.4577  0.4001
  675SOL    HW1 5427   2.071   6.457   9.576 -0.1592 -0.4138  2.0655
  675SOL    HW2 5428   2.150   6.431   9.702  2.4368 -0.1662  0.5627
  676SOL     OW 5429   9.426   6.519   5.713 -0.1490 -0.3704  0.7765
  676SOL    HW1 5430   9.442   6.596   5.659  0.6352 -0.6616  0.5845
  676SOL    HW2 5431   9.351   6.543   5.767  0.0377  0.4950  0.6667
  677SOL     OW 5432   2.387   8.704   5.134 -0.0729  0.0628 -0.0998
  677SOL    HW1 5433   2.347   8.690   5.220 -0.9947  0.8437 -0.3884
  677SOL    HW2 5434   2.366   8.795   5.112  1.9062  0.5486 -0.2516
  678SOL     OW 5435   6.656   5.099   3.811  0.0183  0.1257 -0.1969
  678SOL    HW1 5436   6.679   5.183   3.770 -0.4438 -0.2431 -1.2494
  678SOL    HW2 5437   6.585   5.121   3.871  0.0193  0.5211 -0.3376
  679SOL     OW 5438  10.767   6.617   7.133 -0.0218 -0.1641  0.1961
  679SOL    HW1 5439  10.779   6.534   7.181  2.5205 -0.3292 -0.5552
  679SOL    HW2 5440  10.855   6.639   7.102 -0.9570  1.8855 -1.2074
  680SOL     OW 5441   1.485  10.059  10.681 -0.8321 -0.2822 -0.0722
  680SOL    HW1 5442   1.507  10.082  10.772  0.5156 -0.9293 -0.2028
  680SOL    HW2 5443   1.556  10.000  10.654 -1.5502 -0.5926 -1.3483
  681SOL     OW 5444   0.501   2.290   3.953 -0.3932 -0.7844  0.3309
  681SOL    HW1 5445   0.502   2.284   3.857  0.6238 -0.1576  0.2794
  681SOL    HW2 5446   0.413   2.322   3.974 -0.1381  0.5893 -0.5255
  682SOL     OW 5447   2.353   0.364   5.339 -0.1719 -0.1606 -0.1044
  682SOL    HW1 5448   2.341   0.457   5.319 -0.2537  0.2348  1.6568
  682SOL    HW2 5449   2.265   0.333   5.362  0.1764 -0.1290  1.3726
  683SOL     OW 5450   9.857   7.223   3.184  0.5245  0.1630  0.8604
  683SOL    HW1 5451   9.858   7.300   3.240  0.5573  1.4157 -0.8053
  683SOL    HW2 5452   9.833   7.151   3.243 -0.5471  1.5969  2.2553
  684SOL     OW 5453   9.597   2.938   8.418 -0.4421  1.0086 -0.8168
  684SOL    HW1 5454   9.595   2.845   8.396  2.4909  1.0098 -1.5263
  684SOL    HW2 5455   9.532   2.978   8.361 -0.7138 -0.4175 -1.5433
  685SOL     OW 5456   3.517   5.971   4.917  0.1998  0.1523 -0.1723
  685SOL    HW1 5457   3.428   5.978   4.951  0.6480  0.9423  0.8904
  685SOL    HW2 5458   3.573   5.982   4.993  1.2542  1.8682 -1.1240
  686SOL     OW 5459  10.502   6.535   7.369  0.3647 -0.2294  0.0052
  686SOL    HW1 5460  10.460   6.621   7.361 -0.7792 -0.6521  1.0539
  686SOL    HW2 5461  10.503   6.501   7.280 -2.0493 -0.3879 -0.0406
  687SOL     OW 5462   8.067   2.547   1.910  0.0542  0.6298 -0.5824
  687SOL    HW1 5463   8.157   2.550   1.878  0.5807  0.1650  0.7601
  687SOL    HW2 5464   8.059   2.622   1.969 -0.4860  0.7547 -0.8053
  688SOL     OW 5465  10.593   5.925  10.400 -0.3908 -0.0771  0.3778
  688SOL    HW1 5466  10.678   5.935  10.443 -0.7472 -2.8099  1.9218
  688SOL    HW2 5467  10.605   5.850  10.342 -0.4079  2.5056 -3.3641
  689SOL     OW 5468   8.054   4.202   8.517 -0.0074 -0.5780  0.6505
  689SOL    HW1 5469   7.969   4.161   8.499 -0.5095  0.0245  1.5266
  689SOL    HW2 5470   8.082   4.238   8.433 -1.8945  1.5088  0.8127
  690SOL     OW 5471   6.572   1.899   1.113 -0.2174  0.0809  0.5529
  690SOL    HW1 5472   6.536   1.862   1.193 -1.8155 -1.0806 -0.6444
  690SOL    HW2 5473   6.540   1.989   1.112  2.0420  1.0144  2.4829
  691SOL     OW 5474   7.629   5.653   1.633 -0.3527 -0.2945  0.7599
  691SOL    HW1 5475   7.648   5.695   1.717 -0.4658 -0.1760  0.7252
  691SOL    HW2 5476   7.690   5.578   1.630 -1.6043 -1.4006  1.7981
  692SOL     OW 5477   9.932   6.695   8.295  0.0256  0.1625 -0.0184
  692SOL    HW1 5478   9.872   6.665   8.363 -0.9161  2.3397  0.1978
  692SOL    HW2 5479  10.013   6.646   8.311 -0.7494 -0.6899  1.5367
  693SOL     OW 5480   4.647   9.473   0.052  0.6179  0.4075 -0.4907
  693SOL    HW1 5481   4.581   9.513   0.109 -2.3585 -2.1011 -1.8744
  693SOL    HW2 5482   4.645   9.527  -0.027  1.2630  1.1070 -0.0481
  694SOL     OW 5483   6.870   8.214   8.825  0.0762  0.3573  0.2271
  694SOL    HW1 5484   6.921   8.150   8.775  1.1119  0.0762  1.6030
  694SOL    HW2 5485   6.783   8.210   8.786  0.3668 -1.2022 -0.3322
  695SOL     OW 5486   4.151   7.487   9.365  0.4367 -0.5199 -0.3041
  695SOL    HW1 5487   4.120   7.396   9.368  0.5733 -0.5392  0.7932
  695SOL    HW2 5488   4.204   7.497   9.444 -0.9720  1.0120  0.5194
  696SOL     OW 5489   6.709   6.365  10.100  0.7140 -0.2447 -0.0062
  696SOL    HW1 5490   6.720   6.411  10.183 -1.5681 -0.9691  0.7590
  696SOL    HW2 5491   6.710   6.435  10.034  1.3871  0.4557  0.7260
  697SOL     OW 5492   2.685   7.007   4.683  0.0907 -0.3905 -0.8733
  697SOL    HW1 5493   2.658   6.996   4.592 -0.1771  0.6646 -0.9369
  697SOL    HW2 5494   2.759   7.067   4.679  0.8612 -1.3071 -0.4864
  698SOL     OW 5495   6.430   3.623   5.016  0.6474  0.0643  0.2193
  698SOL    HW1 5496   6.380   3.621   4.935 -2.1291  1.6814  1.7191
  698SOL    HW2 5497   6.457   3.532   5.030 -1.5134 -0.8356 -0.9872
  699SOL     OW 5498   1.153   3.822   9.701 -0.1407  0.0490 -0.2250
  699SOL    HW1 5499   1.169   3.886   9.770 -2.2541 -0.2842  0.6661
  699SOL    HW2 5500   1.235   3.774   9.692  0.1943  0.0628  2.1455
  700SOL     OW 5501  10.172   2.908   8.792  0.2098 -0.1635 -1.4203
  700SOL    HW1 5502  10.107   2.838   8.800 -0.0232  0.0981 -0.9839
  700SOL    HW2 5503  10.159   2.963   8.869 -0.7799  1.3346 -2.5784
  701SOL     OW 5504   5.835   1.861   8.656  0.2042 -0.3755  0.2929
  701SOL    HW1 5505   5.847   1.881   8.749 -3.8584 -1.2697  1.1707
  701SOL    HW2 5506   5.817   1.946   8.615  0.4593 -0.1751  0.5956
  702SOL     OW 5507   9.174   1.964   9.363 -0.2837 -0.0541  0.1802
  702SOL    HW1 5508   9.162   1.869   9.353 -3.2692  0.4593 -2.6093
  702SOL    HW2 5509   9.248   1.985   9.307  1.3531 -0.7954  1.9267
  703SOL     OW 5510   1.391   1.615   2.660 -0.3993 -0.1363  0.3361
  703SOL    HW1 5511   1.433   1.534   2.686 -0.1089 -0.1020 -0.0243
  703SOL    HW2 5512   1.376   1.662   2.742 -2.1435 -1.2985  0.7264
  704SOL     OW 5513   3.511   9.444   1.858  0.3931  0.0739  0.0010
  704SOL    HW1 5514   3.439   9.437   1.920 -0.4855 -2.2739 -1.1991
  704SOL    HW2 5515   3.490   9.522   1.806 -0.7702 -0.0486  0.2627
  705SOL     OW 5516   6.502   2.255   8.605  0.4392  0.4163  0.1592
  705SOL    HW1 5517   6.406   2.254   8.606  0.3953  0.8760 -1.4549
  705SOL    HW2 5518   6.527   2.180   8.552  1.0331 -0.2716  1.3624
  706SOL     OW 5519   7.319   9.988   4.117 -0.1227 -0.1984  0.5047
  706SOL    HW1 5520   7.303   9.897   4.141 -1.5269 -0.3803 -0.9440
  706SOL    HW2 5521   7.398   9.986   4.062  0.2784 -0.4246  1.0840
  707SOL     OW 5522   0.116   7.390   7.833 -0.1786  0.4854 -0.6943
  707SOL    HW1 5523   0.196   7.336   7.837 -0.4128  0.0262 -1.7772
  707SOL    HW2 5524   0.052   7.341   7.884  0.1133  0.6371 -0.1796
  708SOL     OW 5525   0.439   7.632   2.807 -0.0332  0.2771 -0.3098
  708SOL    HW1 5526   0.412   7.688   2.880 -0.7499 -1.5962  0.9670
  708SOL    HW2 5527   0.533   7.618   2.821 -0.2938 -0.5893  0.6632
  709SOL     OW 5528  10.528   7.265   0.058  0.7960 -0.0570  0.1012
  709SOL    HW1 5529  10.459   7.198   0.063  0.1480  0.5525 -0.4853
  709SOL    HW2 5530  10.535   7.299   0.147 -0.3600  0.5478 -0.0149
  710SOL     OW 5531   5.333   4.748   9.267 -0.2942 -0.4777  0.2820
  710SOL    HW1 5532   5.264   4.814   9.276 -0.7197 -0.8161 -0.4939
  710SOL    HW2 5533   5.404   4.781   9.323 -0.7898  0.2544  0.4956
  711SOL     OW 5534   2.164   8.466  10.212 -0.1975  0.0400 -0.3857
  711SOL    HW1 5535   2.214   8.388  10.187  0.0085  0.0824 -0.1094
  711SOL    HW2 5536   2.189   8.482  10.303  2.2928  2.3571 -1.3735
  712SOL     OW 5537   4.120  10.662   0.527 -0.6170  0.1133 -0.7597
  712SOL    HW1 5538   4.098  10.586   0.473 -0.4520 -0.3654 -0.1687
  712SOL    HW2 5539   4.151  10.728   0.465 -0.7246 -0.3152 -1.2763
  713SOL     OW 5540   8.373   5.346   4.754  0.5662  0.5098  0.0470
  713SOL    HW1 5541   8.359   5.406   4.827  0.6122 -0.9406  1.2928
  713SOL    HW2 5542   8.373   5.259   4.794 -2.2550 -0.5953 -2.0034
  714SOL     OW 5543   1.183   7.152   3.360  0.1716 -0.1702  0.2932
  714SOL    HW1 5544   1.264   7.148   3.411 -0.5968 -0.2368  1.5487
  714SOL    HW2 5545   1.160   7.245   3.358  0.1806 -0.1713  0.0803
  715SOL     OW 5546   4.415   4.162   1.563 -0.0557  0.2983 -0.4175
  715SOL    HW1 5547   4.339   4.105   1.575 -0.6002  0.7157 -1.6509
  715SOL    HW2 5548   4.408   4.226   1.634  0.7226 -1.2802  1.1591
  716SOL     OW 5549   1.550   4.516   7.401 -0.3226 -0.5657  0.6674
  716SOL    HW1 5550   1.497   4.438   7.381 -0.2814 -0.1600 -1.1338
  716SOL    HW2 5551   1.496   4.590   7.373  1.2348 -0.1446 -1.4510
  717SOL     OW 5552   3.544   9.140  10.200 -0.3840 -0.5546 -0.0649
  717SOL    HW1 5553   3.480   9.174  10.262 -0.6694  2.9533 -1.9851
  717SOL    HW2 5554   3.494   9.082  10.142 -1.0177 -0.5966  0.5197
  718SOL     OW 5555   5.560  10.527   8.287 -0.3492  0.0745  0.2934
  718SOL    HW1 5556   5.639  10.572   8.257  0.1656 -0.6532  0.5354
  718SOL    HW2 5557   5.568  10.439   8.251  0.0534 -0.6866  2.1303
  719SOL     OW 5558   3.186   0.507   4.817 -0.3398  0.0543  0.1827
  719SOL    HW1 5559   3.228   0.572   4.873 -1.7411  0.4319  0.8413
  719SOL    HW2 5560   3.116   0.555   4.774  0.2466 -0.4219 -1.3447
  720SOL     OW 5561   7.887   9.437  10.569  0.6910 -0.4152  0.6600
  720SOL    HW1 5562   7.878   9.510  10.630 -1.0750 -1.6885  2.0259
  720SOL    HW2 5563   7.803   9.392  10.573  1.3426 -1.8941 -0.9852
  721SOL     OW 5564   9.745  10.439   6.956  0.3446 -0.1736 -0.1727
  721SOL    HW1 5565   9.680  10.463   6.890  0.9354  2.7896  0.1565
  721SOL    HW2 5566   9.820  10.409   6.905  0.0166 -0.0241 -0.7541
  722SOL     OW 5567   6.179   6.560  10.492  0.1748 -0.1872  0.0865
  722SOL    HW1 5568   6.212   6.503  10.561  0.0955 -0.2178  0.0990
  722SOL    HW2 5569   6.097   6.596  10.527 -0.5691 -1.2548 -0.5179
  723SOL     OW 5570  10.076   8.700   7.964  1.0279 -0.0871 -0.0304
  723SOL    HW1 5571  10.127   8.645   7.904  0.3686  0.4911 -1.1756
  723SOL    HW2 5572   9.986   8.669   7.954  0.4883  1.6909 -1.3845
  724SOL     OW 5573   9.305   6.538   5.959  0.1965 -0.4035  0.3008
  724SOL    HW1 5574   9.306   6.443   5.969  0.1172 -0.2480  2.0064
  724SOL    HW2 5575   9.315   6.572   6.048  0.4827  1.1929 -0.3059
  725SOL     OW 5576   3.030   0.736   3.757 -0.0659 -0.1930  0.5904
  725SOL    HW1 5577   2.940   0.721   3.787 -0.7196  1.9098 -0.1039
  725SOL    HW2 5578   3.045   0.829   3.773  1.4466 -0.1731 -0.6999
  726SOL     OW 5579   5.804   3.803   6.575  0.2472  0.1336 -0.0432
  726SOL    HW1 5580   5.862   3.736   6.611 -1.3425 -0.1164  2.2824
  726SOL    HW2 5581   5.736   3.754   6.528 -1.5731 -0.1129  2.6321
  727SOL     OW 5582   6.328   1.512   6.401 -0.3726  0.5997 -0.2206
  727SOL    HW1 5583   6.381   1.452   6.453 -1.5567  1.3981  2.0543
  727SOL    HW2 5584   6.254   1.459   6.371 -1.5929  0.9037  2.0630
  728SOL     OW 5585   6.190   2.226   9.148  0.4183 -0.5136 -0.0076
  728SOL    HW1 5586   6.197   2.131   9.139 -0.2959 -0.4406 -1.7355
  728SOL    HW2 5587   6.103   2.241   9.185 -0.4976 -0.5003 -1.9986
  729SOL     OW 5588   6.407   7.141   1.261 -0.3251 -0.0433  0.8211
  729SOL    HW1 5589   6.424   7.103   1.348  1.4300  2.2094  1.5839
  729SOL    HW2 5590   6.316   7.169   1.264 -0.7331 -1.3697  1.3538
  730SOL     OW 5591   9.581   3.145   7.533 -0.5642 -0.1566 -0.5395
  730SOL    HW1 5592   9.639   3.221   7.535  0.0589 -0.5929 -1.2773
  730SOL    HW2 5593   9.533   3.154   7.451 -0.9622 -0.2183 -0.3143
  731SOL     OW 5594   2.151   9.799   2.710 -0.3089  0.2440 -0.3560
  731SOL    HW1 5595   2.209   9.823   2.638  0.9935 -1.4224  0.0646
  731SOL    HW2 5596   2.123   9.710   2.690  0.5255 -0.4708  1.4074
  732SOL     OW 5597   0.383   7.549   2.539 -0.5295  0.2389  0.6440
  732SOL    HW1 5598   0.435   7.628   2.524 -0.3450  0.1675  0.8846
  732SOL    HW2 5599   0.385   7.537   2.634 -0.6959  0.0396  0.6241
  733SOL     OW 5600   2.422   2.512   3.699  0.0519 -0.1330  0.1338
  733SOL    HW1 5601   2.347   2.539   3.647  1.2701  0.3967 -1.4392
  733SOL    HW2 5602   2.384   2.471   3.777 -1.8584  1.8084  0.3301
  734SOL     OW 5603   7.720   2.329   6.127 -0.2656 -0.0906 -0.3043
  734SOL    HW1 5604   7.763   2.279   6.196 -1.1276 -0.5409 -0.0712
  734SOL    HW2 5605   7.744   2.283   6.046 -1.1820 -1.0281 -0.0784
  735SOL     OW 5606   2.505   2.762  10.492 -0.0881  0.5158 -0.1700
  735SOL    HW1 5607   2.562   2.711  10.435 -0.9670 -0.1114 -0.5154
  735SOL    HW2 5608   2.417   2.743  10.460 -0.4695  1.9197 -0.0271
  736SOL     OW 5609  10.387   3.464   2.257 -0.9139  0.5309  0.4132
  736SOL    HW1 5610  10.365   3.460   2.164 -0.4911  0.6785  0.3061
  736SOL    HW2 5611  10.483   3.458   2.259 -0.8180  1.9594  0.7551
  737SOL     OW 5612   2.958   3.203   4.929  0.1169  0.0371 -1.0478
  737SOL    HW1 5613   2.902   3.255   4.987  0.7698 -0.1070 -0.2673
  737SOL    HW2 5614   2.960   3.253   4.847  1.9452  2.1352  0.1349
  738SOL     OW 5615   9.738   0.398   6.831 -0.1174 -0.2762 -0.0722
  738SOL    HW1 5616   9.676   0.376   6.900 -0.5150  1.6435  0.2526
  738SOL    HW2 5617   9.813   0.436   6.878  0.5309 -0.8984 -0.5783
  739SOL     OW 5618   5.072   8.941   3.070 -0.1795  0.5117  0.1399
  739SOL    HW1 5619   5.095   9.019   3.020 -1.3363 -0.4176 -1.9685
  739SOL    HW2 5620   5.156   8.906   3.101  0.6614  0.8737 -1.5936
  740SOL     OW 5621   3.297   5.939   6.406 -0.3033  0.0539  0.2003
  740SOL    HW1 5622   3.374   5.996   6.415 -0.0922 -0.2661  0.4547
  740SOL    HW2 5623   3.290   5.895   6.490 -0.4742 -0.2828  0.0104
  741SOL     OW 5624   4.490   9.795   8.531 -0.5198  0.1499  0.5727
  741SOL    HW1 5625   4.417   9.778   8.472  0.0445 -0.7534  0.1050
  741SOL    HW2 5626   4.476   9.884   8.562 -1.4524  0.2251 -0.0317
  742SOL     OW 5627   8.798   1.259   7.064  0.0338 -0.1115  0.2150
  742SOL    HW1 5628   8.818   1.200   7.136 -1.7495 -0.6494  0.3095
  742SOL    HW2 5629   8.880   1.306   7.049  1.0371 -1.4673  1.1846
  743SOL     OW 5630  10.415   5.677  10.843 -0.0842  0.4907  0.1842
  743SOL    HW1 5631  10.427   5.589  10.808 -0.1892  0.7927 -0.6471
  743SOL    HW2 5632  10.447   5.734  10.773 -1.2845  1.1493  0.1430
  744SOL     OW 5633   4.405   8.271   5.949 -0.1117  0.1260  0.0598
  744SOL    HW1 5634   4.403   8.175   5.956 -2.1509  0.0579 -0.7212
  744SOL    HW2 5635   4.379   8.302   6.036 -1.7638 -0.1325 -0.3003
  745SOL     OW 5636   0.276   6.010   4.366 -0.2488 -0.3174 -1.0996
  745SOL    HW1 5637   0.270   5.929   4.315 -1.3569 -0.4045 -0.8772
  745SOL    HW2 5638   0.249   6.079   4.306  1.6342  0.0408 -1.5750
  746SOL     OW 5639   5.007   2.399   9.428 -0.2364 -0.1716 -0.5249
  746SOL    HW1 5640   5.094   2.363   9.412  0.1251  0.9682 -1.2980
  746SOL    HW2 5641   4.953   2.365   9.356 -0.3721 -0.6777 -0.1865
  747SOL     OW 5642   0.404   2.611   8.254  0.2528 -0.1422  0.4574
  747SOL    HW1 5643   0.486   2.661   8.258  0.2466 -0.1794  1.3093
  747SOL    HW2 5644   0.420   2.535   8.311  0.2117 -1.0540 -0.6944
  748SOL     OW 5645  10.879   2.857   7.482  0.0703 -0.1943 -0.1408
  748SOL    HW1 5646  10.891   2.883   7.391  0.0851 -0.7888 -0.3128
  748SOL    HW2 5647  10.811   2.917   7.515 -1.6339 -1.4370 -1.2100
  749SOL     OW 5648   1.945   4.726   4.109  0.2501  0.4966  0.1001
  749SOL    HW1 5649   1.936   4.719   4.204  1.6270  2.0577  0.3846
  749SOL    HW2 5650   1.882   4.793   4.084  0.2896  0.4938 -0.0053
  750SOL     OW 5651   1.979   4.190   3.323 -0.2639 -0.4442  0.1520
  750SOL    HW1 5652   2.044   4.133   3.283 -0.8005 -1.2416  0.4001
  750SOL    HW2 5653   2.028   4.269   3.347 -0.2427  0.9164 -3.7252
  751SOL     OW 5654   9.981   7.461   9.918 -0.3264 -0.1232  0.4038
  751SOL    HW1 5655  10.062   7.498   9.881  0.3828 -1.5854  0.4354
  751SOL    HW2 5656   9.932   7.431   9.842 -0.0284 -0.8221  0.4800
  752SOL     OW 5657   3.608   0.986   7.556 -0.3508  0.5677 -0.2324
  752SOL    HW1 5658   3.700   1.011   7.566 -0.0967 -0.9937  2.0467
  752SOL    HW2 5659   3.569   1.057   7.505  1.6850  2.2776  0.4614
  753SOL     OW 5660   8.694   0.022   9.418 -0.0997 -0.1828  0.2421
  753SOL    HW1 5661   8.660   0.056   9.500  1.3717  0.1278  0.7587
  753SOL    HW2 5662   8.677   0.091   9.354 -0.0741  0.1358  0.5774
  754SOL     OW 5663   0.849   6.486   4.599  0.1118 -0.6542 -0.0012
  754SOL    HW1 5664   0.929   6.465   4.552 -0.4167 -1.8108 -0.4241
  754SOL    HW2 5665   0.844   6.420   4.669  0.4548  0.5251  1.1752
  755SOL     OW 5666   8.150   3.414   4.863 -0.0472  0.3488 -0.3091
  755SOL    HW1 5667   8.073   3.395   4.810 -0.6252  1.7872 -0.0295
  755SOL    HW2 5668   8.167   3.507   4.849  1.4624  0.1321 -0.1203
  756SOL     OW 5669   6.113  10.021   0.992  0.5625  0.3842  0.1519
  756SOL    HW1 5670   6.077  10.109   1.003 -1.0485 -0.0795 -0.9760
  756SOL    HW2 5671   6.207  10.033   0.999  0.3803  2.2022  0.0407
  757SOL     OW 5672   3.718   9.222   8.821  0.0343  0.0479  0.7007
  757SOL    HW1 5673   3.714   9.206   8.915  1.7994  1.6644  1.1063
  757SOL    HW2 5674   3.780   9.294   8.811  0.1814 -0.3214 -1.7383
  758SOL     OW 5675   2.371   6.966  10.619  0.2160 -0.0520 -0.3387
  758SOL    HW1 5676   2.383   6.924  10.533 -0.3333 -0.0737 -0.4073
  758SOL    HW2 5677   2.344   7.055  10.598 -0.4493 -0.2178 -0.1848
  759SOL     OW 5678   7.813   9.717   3.561  0.2351  0.7390  0.2933
  759SOL    HW1 5679   7.864   9.637   3.545 -0.0783  0.5551  0.1998
  759SOL    HW2 5680   7.822   9.733   3.654  0.1481  0.4907  0.3450
  760SOL     OW 5681   9.448   0.430   6.910 -0.1081 -0.1600  0.1270
  760SOL    HW1 5682   9.361   0.465   6.927 -0.2097  0.3222 -1.3019
  760SOL    HW2 5683   9.439   0.335   6.922 -1.2007 -0.2838 -1.3969
  761SOL     OW 5684   5.318   8.566   2.427 -0.0927 -0.3870  0.0605
  761SOL    HW1 5685   5.406   8.571   2.466 -0.3457  0.2477  0.5722
  761SOL    HW2 5686   5.282   8.485   2.463  0.5792 -1.0972 -0.8146
  762SOL     OW 5687   9.747  10.918  10.751 -0.8375  0.2403  0.4972
  762SOL    HW1 5688   9.672  10.896  10.696 -1.2342  0.8883  0.7646
  762SOL    HW2 5689   9.807  10.843  10.742 -1.5188 -0.2902  0.2913
  763SOL     OW 5690   1.386   5.142   7.813 -0.1911  0.0947 -0.3014
  763SOL    HW1 5691   1.355   5.182   7.894 -1.7186  1.5306 -1.5189
  763SOL    HW2 5692   1.351   5.053   7.815 -2.1460  0.8187 -0.3619
  764SOL     OW 5693   9.405   6.828   4.743  0.3604 -0.2865 -0.3325
  764SOL    HW1 5694   9.488   6.780   4.735 -0.0934 -1.1326 -0.1033
  764SOL    HW2 5695   9.418   6.907   4.691  1.2710 -0.4628 -0.3952
  765SOL     OW 5696   8.062   1.181   8.217  0.0189  0.1318  0.3051
  765SOL    HW1 5697   8.045   1.196   8.124  2.2658 -0.3305 -0.2473
  765SOL    HW2 5698   8.084   1.268   8.252  0.7064  0.0807  0.0192
  766SOL     OW 5699   4.869   7.533  10.787  0.2195 -0.3225  0.1689
  766SOL    HW1 5700   4.817   7.458  10.758  1.4797 -1.3448  0.4437
  766SOL    HW2 5701   4.832   7.556  10.872  0.8112 -1.6968  0.8352
  767SOL     OW 5702   9.056   4.274   5.290 -0.4494  0.1741  0.3549
  767SOL    HW1 5703   9.084   4.203   5.232  1.4024  0.4504  0.8557
  767SOL    HW2 5704   9.137   4.317   5.316 -1.5192  3.1235 -0.7115
  768SOL     OW 5705   9.996   4.488   9.483  0.0601  0.0723  0.2954
  768SOL    HW1 5706  10.091   4.485   9.494  0.0501 -1.1487  0.2224
  768SOL    HW2 5707   9.974   4.581   9.489  1.3740  0.4866 -0.6632
  769SOL     OW 5708   8.361   5.489   9.866 -0.7661  0.3543  0.1366
  769SOL    HW1 5709   8.368   5.402   9.828  0.7794 -0.0513  1.2643
  769SOL    HW2 5710   8.350   5.474   9.959 -0.9858  1.3770  0.2879
  770SOL     OW 5711   7.713   8.730   7.983  0.3100  0.4060 -0.4481
  770SOL    HW1 5712   7.753   8.648   7.954 -1.1559 -1.0024  1.2462
  770SOL    HW2 5713   7.767   8.759   8.057  1.5246  1.6769 -1.7689
  771SOL     OW 5714   0.716   8.925   9.208  0.1358 -0.0541 -0.1454
  771SOL    HW1 5715   0.739   8.837   9.239 -2.1031 -0.5729  0.1961
  771SOL    HW2 5716   0.621   8.923   9.199  0.3124  1.1149 -3.9559
  772SOL     OW 5717   2.395   6.241   7.926  0.1284  0.2108  0.1715
  772SOL    HW1 5718   2.454   6.260   7.853  0.3085  0.2662  0.3293
  772SOL    HW2 5719   2.380   6.147   7.921  0.1839  0.2063  0.0965
  773SOL     OW 5720   4.215   1.693  10.459 -0.1760 -0.5548 -0.2419
  773SOL    HW1 5721   4.261   1.775  10.475 -0.9015 -0.2447  0.3129
  773SOL    HW2 5722   4.233   1.640  10.536 -0.1402 -0.7155 -0.3604
  774SOL     OW 5723  10.198   5.991  10.778  0.1272  0.4651  0.6323
  774SOL    HW1 5724  10.117   5.970  10.732 -0.0060  1.1210  0.5550
  774SOL    HW2 5725  10.256   6.027  10.711  0.1433  0.8746  0.8624
  775SOL     OW 5726   5.726   5.458   8.952  0.2566  0.0197 -0.2007
  775SOL    HW1 5727   5.671   5.385   8.980  0.4933 -0.4775 -1.0029
  775SOL    HW2 5728   5.704   5.529   9.013 -2.3781  0.3209 -1.3416
  776SOL     OW 5729   5.004   0.126   5.042  0.2430  0.3286  0.4717
  776SOL    HW1 5730   4.968   0.056   5.096 -0.5793  0.0244 -0.4389
  776SOL    HW2 5731   5.061   0.175   5.101 -0.9139  0.2426  1.7153
  777SOL     OW 5732   4.499  10.491   1.703  0.3887  0.0258  0.2240
  777SOL    HW1 5733   4.519  10.415   1.650  1.0234 -0.0027  0.4966
  777SOL    HW2 5734   4.555  10.560   1.670  1.9294 -0.3910  1.8094
  778SOL     OW 5735  10.420   8.534   4.124 -0.2696 -0.2250 -0.2593
  778SOL    HW1 5736  10.467   8.606   4.165  1.3405 -2.4198  2.0215
  778SOL    HW2 5737  10.330   8.567   4.114  0.3017  1.9310  1.0239
  779SOL     OW 5738   9.091   5.595   3.856  0.1069 -0.0320  0.0766
  779SOL    HW1 5739   9.050   5.537   3.792 -0.3977  0.0947  0.2729
  779SOL    HW2 5740   9.117   5.537   3.928 -0.8682  0.0311  0.5065
  780SOL     OW 5741   8.650   9.753   9.434 -0.0894 -0.1829 -0.1362
  780SOL    HW1 5742   8.736   9.778   9.401  0.1006 -0.3073  0.2555
  780SOL    HW2 5743   8.666   9.725   9.524 -0.7339  1.1358  0.4220
  781SOL     OW 5744   8.428   5.107   0.614  0.3773 -0.1799 -0.1632
  781SOL    HW1 5745   8.350   5.153   0.584  0.4869 -0.8976 -1.6454
  781SOL    HW2 5746   8.501   5.165   0.593  0.3807 -0.2984 -0.4858
  782SOL     OW 5747   6.084  10.755   9.439 -0.1982  0.4142 -0.1333
  782SOL    HW1 5748   6.080  10.690   9.369 -0.8618 -2.0371  2.0248
  782SOL    HW2 5749   6.175  10.786   9.437  0.4078 -1.2503 -0.7019
  783SOL     OW 5750   7.829   3.038   7.961 -0.4255 -0.3214 -0.4427
  783SOL    HW1 5751   7.894   3.069   8.024 -1.8977 -0.6051  1.3262
  783SOL    HW2 5752   7.879   2.988   7.897  1.2585  0.7506 -0.0248
  784SOL     OW 5753   8.958   8.550   4.250  0.2245  0.1923  0.4327
  784SOL    HW1 5754   9.026   8.590   4.195 -1.0739  2.5078  0.3999
  784SOL    HW2 5755   8.910   8.492   4.190  1.1315 -0.2104  0.0744
  785SOL     OW 5756   1.129   9.977   9.089 -0.5946  0.2931 -0.1984
  785SOL    HW1 5757   1.039   9.994   9.060 -0.7294  0.2068  0.1696
  785SOL    HW2 5758   1.133  10.014   9.177 -0.3337  0.0985 -0.1289
  786SOL     OW 5759   7.760   0.415   2.054  0.2795  0.3158 -0.4845
  786SOL    HW1 5760   7.804   0.479   1.999  0.7786  0.0063 -0.4541
  786SOL    HW2 5761   7.746   0.460   2.137  0.1095  0.5706 -0.6509
  787SOL     OW 5762   1.070   5.467   5.833  0.3014  0.1081 -0.0933
  787SOL    HW1 5763   1.145   5.513   5.871 -0.9989  1.9348  0.4196
  787SOL    HW2 5764   1.103   5.430   5.751  2.2718 -0.9600  1.0865
  788SOL     OW 5765   0.616  10.549   9.544 -0.0614 -0.0770 -0.1981
  788SOL    HW1 5766   0.589  10.613   9.610 -1.6863 -0.4979 -0.4168
  788SOL    HW2 5767   0.616  10.599   9.462 -1.9435 -0.4587 -0.4675
  789SOL     OW 5768   9.167  10.751   7.715 -0.0431  0.0255 -0.0329
  789SOL    HW1 5769   9.243  10.763   7.772 -0.8484  3.3759  0.5126
  789SOL    HW2 5770   9.092  10.768   7.772 -1.0013  0.7866 -1.4854
  790SOL     OW 5771   6.681  10.237   7.456 -0.6634  0.6278 -0.1293
  790SOL    HW1 5772   6.669  10.290   7.534  1.7693  0.5898  0.3579
  790SOL    HW2 5773   6.729  10.293   7.396  1.0769 -0.6173  0.0197
  791SOL     OW 5774   5.541   9.775   3.753  0.4423  0.3292 -0.1200
  791SOL    HW1 5775   5.605   9.824   3.806 -1.0895  2.1972  0.1195
  791SOL    HW2 5776   5.465   9.765   3.810  0.4536 -1.8785 -0.3939
  792SOL     OW 5777   3.269   2.878   4.904  0.4209  0.0576 -0.1325
  792SOL    HW1 5778   3.248   2.817   4.833  1.2208 -0.4017  0.0184
  792SOL    HW2 5779   3.358   2.908   4.885  1.5065 -1.7297  1.8017
  793SOL     OW 5780   5.547   0.774   4.535 -1.0161 -0.5746 -0.2098
  793SOL    HW1 5781   5.627   0.826   4.542 -0.5103 -1.3371 -0.2136
  793SOL    HW2 5782   5.480   0.837   4.506 -0.7829  0.4090  1.2736
  794SOL     OW 5783   1.367   8.878   8.404  0.7929 -0.3408  0.2320
  794SOL    HW1 5784   1.450   8.887   8.356  0.0181  0.6542 -1.0101
  794SOL    HW2 5785   1.383   8.808   8.467  2.1315 -1.1793 -0.9653
  795SOL     OW 5786   5.435   0.259   4.437 -0.2524 -0.0611 -0.1873
  795SOL    HW1 5787   5.343   0.282   4.451 -0.3757 -0.9260  0.5457
  795SOL    HW2 5788   5.445   0.258   4.342 -0.9471  0.2265 -0.2721
  796SOL     OW 5789   1.941   0.726   8.471 -0.5296 -0.4034  0.6850
  796SOL    HW1 5790   1.891   0.719   8.552  0.9909  2.3079  2.0167
  796SOL    HW2 5791   1.896   0.795   8.421 -0.3365 -0.6903  0.0992
  797SOL     OW 5792   6.461   8.539   4.103 -0.4928 -0.0698 -0.2991
  797SOL    HW1 5793   6.366   8.529   4.108 -0.5371 -0.2318 -1.2049
  797SOL    HW2 5794   6.495   8.488   4.177 -1.0395 -1.5499 -1.0250
  798SOL     OW 5795   9.620   7.624   7.984  0.0279 -0.0177  0.0725
  798SOL    HW1 5796   9.636   7.530   7.996  1.6588  0.2315  0.0521
  798SOL    HW2 5797   9.534   7.638   8.024 -1.1371 -1.8333 -1.5902
  799SOL     OW 5798  10.533   7.010   5.036  0.2038 -0.6576 -0.1241
  799SOL    HW1 5799  10.517   7.022   4.943  0.2131  0.0901 -0.0340
  799SOL    HW2 5800  10.583   6.929   5.042  2.4679  0.6018 -1.0003
  800SOL     OW 5801  10.328   9.545   1.561 -0.6909 -0.0638  0.2849
  800SOL    HW1 5802  10.377   9.583   1.487  2.1044 -0.9227  1.5307
  800SOL    HW2 5803  10.240   9.530   1.526  0.1161  0.7902 -2.4394
  801SOL     OW 5804   2.006   4.337   4.790  0.1533 -0.2313  0.0811
  801SOL    HW1 5805   2.028   4.379   4.873  1.7205  0.5467 -0.7040
  801SOL    HW2 5806   2.034   4.246   4.802 -0.6346 -0.4052  0.7603
  802SOL     OW 5807   1.393   6.696   8.728  0.2971  0.2491  0.1741
  802SOL    HW1 5808   1.309   6.672   8.768  0.2116  0.5801  0.1944
  802SOL    HW2 5809   1.397   6.645   8.647  0.5975 -0.6534  0.7331
  803SOL     OW 5810   4.835   6.809   2.523 -0.2389 -0.0313 -0.7508
  803SOL    HW1 5811   4.807   6.870   2.455  2.8004  2.3325 -0.1119
  803SOL    HW2 5812   4.790   6.727   2.503 -3.4615  1.9728 -2.4902
  804SOL     OW 5813   9.630   0.943   3.744 -0.0201 -0.6354  0.1346
  804SOL    HW1 5814   9.615   0.945   3.650  1.8803 -0.2384 -0.2084
  804SOL    HW2 5815   9.581   0.867   3.775 -0.6272 -0.8053 -1.1643
  805SOL     OW 5816   9.990   8.472   9.392 -0.2852 -0.5621 -0.0201
  805SOL    HW1 5817   9.961   8.405   9.330  1.0091 -1.6542  0.5032
  805SOL    HW2 5818   9.968   8.436   9.478  1.0492 -0.6765  0.3024
  806SOL     OW 5819  10.488   5.334   3.380  0.0826  0.2755  0.3211
  806SOL    HW1 5820  10.530   5.272   3.439  0.6275  0.2702 -0.0593
  806SOL    HW2 5821  10.450   5.400   3.437  1.5421  0.8629  0.6530
  807SOL     OW 5822   0.592   6.195   6.769  0.3982  0.5724 -0.4578
  807SOL    HW1 5823   0.539   6.266   6.732  0.8830  1.4455  0.4764
  807SOL    HW2 5824   0.592   6.211   6.863 -0.3963 -1.3208 -0.0879
  808SOL     OW 5825   7.483   8.016   3.433  0.0360 -0.4985  0.0386
  808SOL    HW1 5826   7.555   8.020   3.370 -0.3576  2.1770 -0.3582
  808SOL    HW2 5827   7.406   7.996   3.380  0.0250 -0.3167 -0.0154
  809SOL     OW 5828   7.436   8.828   7.971 -0.1017  0.0695 -0.5090
  809SOL    HW1 5829   7.471   8.871   8.049 -0.6422  0.0640 -0.2602
  809SOL    HW2 5830   7.509   8.775   7.938 -0.1985 -0.8073  0.6386
  810SOL     OW 5831   3.252   2.008   1.105  0.3060  0.0092 -0.5577
  810SOL    HW1 5832   3.260   1.931   1.162  2.9976  0.4789 -0.1669
  810SOL    HW2 5833   3.294   1.981   1.023  0.5785  0.8149 -0.6930
  811SOL     OW 5834   6.457   7.928   8.424 -0.1398  0.9444  0.2416
  811SOL    HW1 5835   6.389   7.898   8.484 -0.1560  2.7251  1.1899
  811SOL    HW2 5836   6.412   7.989   8.365  0.5797  2.0646  0.8162
  812SOL     OW 5837   3.320  10.529   9.310 -0.4637 -0.6235  0.5658
  812SOL    HW1 5838   3.327  10.595   9.241 -1.1922 -0.4348  0.6616
  812SOL    HW2 5839   3.246  10.474   9.283  0.9752 -2.2747 -0.2291
  813SOL     OW 5840   0.517   7.390   5.241 -0.4370  1.0900  0.0419
  813SOL    HW1 5841   0.481   7.476   5.263  0.8041  1.8647 -0.8194
  813SOL    HW2 5842   0.601   7.409   5.199 -1.1356 -0.4365 -2.2319
  814SOL     OW 5843   5.932   2.568   2.790  0.5451  0.1936  0.0214
  814SOL    HW1 5844   5.995   2.557   2.718  1.6926 -0.1506  1.0447
  814SOL    HW2 5845   5.848   2.541   2.753  1.2592 -0.7719 -0.9559
  815SOL     OW 5846   5.160   2.038   8.391  0.0182  0.0685 -0.0297
  815SOL    HW1 5847   5.099   2.064   8.321  0.1028  0.2444 -0.0387
  815SOL    HW2 5848   5.205   1.961   8.356  0.3226  0.3750 -0.3157
  816SOL     OW 5849   3.205   4.517   0.081  0.3483  0.1639 -0.3493
  816SOL    HW1 5850   3.275   4.536   0.018  0.5883  0.0781 -0.1068
  816SOL    HW2 5851   3.135   4.578   0.057  1.2688  1.7063  0.6955
  817SOL     OW 5852   1.799   9.902   3.557  0.4592  0.3177 -0.1619
  817SOL    HW1 5853   1.780   9.944   3.641  0.4615  0.8662 -0.4253
  817SOL    HW2 5854   1.713   9.875   3.524  0.4671  0.0227  0.0537
  818SOL     OW 5855   3.337   6.709   8.619  0.6271 -0.4295  0.4621
  818SOL    HW1 5856   3.350   6.623   8.580 -0.9586 -0.7290  0.5373
  818SOL    HW2 5857   3.255   6.701   8.669 -0.4665  1.5596 -0.8759
  819SOL     OW 5858   8.199   8.697   4.442  0.0349  0.5693  0.9101
  819SOL    HW1 5859   8.271   8.691   4.505 -1.2086  0.7745  2.3982
  819SOL    HW2 5860   8.132   8.747   4.487 -0.8013  0.9525 -0.7021
  820SOL     OW 5861   3.762   4.315   0.277 -0.4103  0.0156 -0.9230
  820SOL    HW1 5862   3.691   4.266   0.320  0.3130 -0.2955 -0.0598
  820SOL    HW2 5863   3.799   4.252   0.215 -0.1525 -0.2050 -0.5516
  821SOL     OW 5864   8.587   9.409   3.194 -0.9116  0.0572 -0.9591
  821SOL    HW1 5865   8.619   9.353   3.123  0.9420 -1.7866  1.1862
  821SOL    HW2 5866   8.656   9.476   3.204 -0.1914 -0.8206  0.2608
  822SOL     OW 5867   9.332   1.344   7.844  0.5277 -0.4555  0.3394
  822SOL    HW1 5868   9.265   1.412   7.855 -0.8574 -1.4266 -1.5041
  822SOL    HW2 5869   9.283   1.262   7.843  2.2318 -1.6748  3.3590
  823SOL     OW 5870   4.010  10.522   3.648  0.4757 -0.1404 -0.7148
  823SOL    HW1 5871   4.012  10.604   3.598  1.4228  0.8595  0.8807
  823SOL    HW2 5872   3.918  10.512   3.673  0.3555  0.4819 -0.8756
  824SOL     OW 5873  10.697  10.200   4.829 -0.1336 -0.3743  0.6039
  824SOL    HW1 5874  10.609  10.236   4.823  0.2550  0.3933 -1.0411
  824SOL    HW2 5875  10.707  10.148   4.749  0.1829 -2.2308  1.7743
  825SOL     OW 5876   7.462   3.818   7.560 -0.3094  0.3274  0.3315
  825SOL    HW1 5877   7.409   3.829   7.481 -0.4194 -0.3789  0.3064
  825SOL    HW2 5878   7.421   3.745   7.606  0.4822 -0.0383  0.4519
  826SOL     OW 5879   7.852   4.069   2.968 -0.1240  0.2697 -0.0412
  826SOL    HW1 5880   7.844   3.988   3.018  1.9195  0.4645  0.7056
  826SOL    HW2 5881   7.903   4.044   2.890 -1.2049  0.4618 -0.8307
  827SOL     OW 5882   0.998   7.928   4.769  0.5619  0.4043  0.1211
  827SOL    HW1 5883   1.012   7.834   4.772  1.2427  0.5343  2.0745
  827SOL    HW2 5884   1.045   7.957   4.691  3.5257 -0.4141  1.4794
  828SOL     OW 5885   8.894   8.591   5.299 -0.6413  0.3029  0.0353
  828SOL    HW1 5886   8.965   8.634   5.252 -1.2677  0.7350 -0.5389
  828SOL    HW2 5887   8.823   8.656   5.299 -1.5412 -0.6525 -0.6854
  829SOL     OW 5888   5.413   3.827   0.174 -0.0914 -0.0186  0.1573
  829SOL    HW1 5889   5.418   3.879   0.094  1.2022  0.3312  0.4377
  829SOL    HW2 5890   5.407   3.736   0.143  1.6845  0.0112 -0.3782
  830SOL     OW 5891   0.443   3.020   1.779  0.3592 -0.0759 -0.4982
  830SOL    HW1 5892   0.529   3.036   1.819  1.3239 -1.1800 -2.0067
  830SOL    HW2 5893   0.464   2.981   1.694 -1.5840  1.9078 -2.0100
  831SOL     OW 5894  10.298   5.910   8.296  0.0539 -0.1729  0.5786
  831SOL    HW1 5895  10.317   5.816   8.296  1.6359  0.1077 -0.3950
  831SOL    HW2 5896  10.289   5.931   8.389  1.4197 -0.9939  0.9351
  832SOL     OW 5897   8.905   1.775   4.136 -0.2820  0.0091 -0.6480
  832SOL    HW1 5898   8.825   1.796   4.088 -0.6084 -1.4854 -0.8306
  832SOL    HW2 5899   8.947   1.859   4.152 -1.5773  0.7657 -1.0966
  833SOL     OW 5900   3.396   1.690   2.635 -0.1671 -0.4683 -0.0225
  833SOL    HW1 5901   3.457   1.749   2.680 -0.0153 -0.3796 -0.3435
  833SOL    HW2 5902   3.452   1.618   2.604 -0.0903 -0.0209 -0.9722
  834SOL     OW 5903   3.546   8.084   3.511  0.5546  0.1899  0.3373
  834SOL    HW1 5904   3.565   8.155   3.450 -0.0832  0.7408  0.7643
  834SOL    HW2 5905   3.586   8.112   3.594 -2.3169  1.5780  1.3761
  835SOL     OW 5906   7.737   8.507   2.454  0.0124 -0.6067 -0.3050
  835SOL    HW1 5907   7.719   8.421   2.415  2.6023 -0.5033 -2.0154
  835SOL    HW2 5908   7.670   8.565   2.418 -2.0087 -1.8890  1.1659
  836SOL     OW 5909   5.609   8.776   3.008 -0.0563 -0.1050 -0.3060
  836SOL    HW1 5910   5.639   8.687   2.990  2.9745  0.9090 -0.8544
  836SOL    HW2 5911   5.622   8.822   2.925 -0.1284  1.1803  0.3765
  837SOL     OW 5912   2.436   8.171   7.000 -0.5240 -0.1215 -0.0927
  837SOL    HW1 5913   2.453   8.111   6.927 -0.4591  0.5865 -0.6701
  837SOL    HW2 5914   2.341   8.165   7.014 -0.2106 -2.5110  1.7668
  838SOL     OW 5915   2.901   5.178   3.121 -0.2693 -0.1692 -0.3161
  838SOL    HW1 5916   2.946   5.159   3.203 -1.1539 -2.2124 -0.2387
  838SOL    HW2 5917   2.809   5.191   3.146 -0.4286 -0.1121 -0.9029
  839SOL     OW 5918   2.248   7.185   4.500  0.7947 -0.0265  0.1556
  839SOL    HW1 5919   2.204   7.263   4.535  1.3927  0.3863 -0.0062
  839SOL    HW2 5920   2.228   7.186   4.407 -1.9477 -1.8621  0.5893
  840SOL     OW 5921   5.190  10.271   0.931  0.3241 -0.4235 -0.3411
  840SOL    HW1 5922   5.120  10.207   0.947  0.5854 -0.4626  0.7872
  840SOL    HW2 5923   5.264  10.218   0.902 -0.3990 -0.2716 -2.6226
  841SOL     OW 5924   7.872   2.680   5.655 -0.0605  0.5828  0.1172
  841SOL    HW1 5925   7.782   2.708   5.638 -0.3651 -0.4810 -0.0764
  841SOL    HW2 5926   7.926   2.754   5.628 -0.8450  0.9862 -0.3632
  842SOL     OW 5927   1.163   2.434   5.362  0.7129  0.1778  0.3200
  842SOL    HW1 5928   1.245   2.466   5.397  0.4541 -0.4217  1.5175
  842SOL    HW2 5929   1.160   2.469   5.273  2.4025 -0.0485  0.1385
  843SOL     OW 5930   6.827   7.938  10.485  0.2593  0.7872 -0.7214
  843SOL    HW1 5931   6.770   7.901  10.553  3.6488 -0.7833  1.5002
  843SOL    HW2 5932   6.862   8.018  10.524 -0.0048  1.4636 -1.8489
  844SOL     OW 5933   8.340   5.875   2.328  0.3771 -0.0118 -0.2067
  844SOL    HW1 5934   8.301   5.957   2.359  0.9191 -0.3287  1.3685
  844SOL    HW2 5935   8.420   5.865   2.379  1.8226 -0.1198 -2.3784
  845SOL     OW 5936   9.827   7.383   0.544 -0.2711  0.0054 -0.5160
  845SOL    HW1 5937   9.858   7.341   0.464  1.0094  0.0613 -0.0665
  845SOL    HW2 5938   9.755   7.327   0.574 -0.8375  0.0408 -1.7458
  846SOL     OW 5939   7.827   0.254   8.919  0.1156 -0.0589 -0.1741
  846SOL    HW1 5940   7.869   0.304   8.849  0.7355 -0.0596  0.1875
  846SOL    HW2 5941   7.769   0.317   8.962 -1.8510 -0.5546 -1.9381
  847SOL     OW 5942   2.708   9.528   5.784  0.3272  0.6699  0.3444
  847SOL    HW1 5943   2.622   9.562   5.806  0.0591  0.5615 -0.4899
  847SOL    HW2 5944   2.747   9.595   5.728  0.8290  0.7638  0.7980
  848SOL     OW 5945   6.057   9.048   2.679 -0.5286  0.5143 -0.7526
  848SOL    HW1 5946   6.058   9.038   2.584 -2.5323 -0.2100 -0.7549
  848SOL    HW2 5947   5.991   8.985   2.709  1.1423 -0.3767  1.2847
  849SOL     OW 5948   7.136   1.552   5.407  0.5238  0.2180  0.2401
  849SOL    HW1 5949   7.060   1.544   5.351 -0.6414  1.1962  1.6063
  849SOL    HW2 5950   7.111   1.510   5.489  2.7589 -2.6292 -0.3716
  850SOL     OW 5951  10.348   0.061   3.135 -0.2071 -0.2711 -0.1571
  850SOL    HW1 5952  10.380   0.068   3.045  0.4917 -1.7133 -0.0380
  850SOL    HW2 5953  10.389   0.135   3.181 -0.2710  0.2515 -0.9178
  851SOL     OW 5954   5.203   1.780   3.186 -0.1926 -0.1519 -0.4753
  851SOL    HW1 5955   5.294   1.766   3.159 -0.0669  0.2652 -0.2800
  851SOL    HW2 5956   5.155   1.709   3.144  0.2048 -0.3053 -0.6836
  852SOL     OW 5957   5.754   4.755  10.730 -0.0071 -0.0850  0.0549
  852SOL    HW1 5958   5.683   4.816  10.709  1.2244  1.7858  1.0374
  852SOL    HW2 5959   5.821   4.775  10.665 -0.4414 -2.0591 -1.0676
  853SOL     OW 5960   8.773   9.613   3.927  0.1261 -0.1386  0.3640
  853SOL    HW1 5961   8.731   9.618   3.841  0.3708  1.0524  0.3084
  853SOL    HW2 5962   8.844   9.550   3.916 -0.2759 -0.5242 -0.1046
  854SOL     OW 5963  10.806   2.646   8.324 -0.2899  0.2027 -0.4553
  854SOL    HW1 5964  10.732   2.676   8.271  0.2050  0.6838 -0.8885
  854SOL    HW2 5965  10.880   2.697   8.292  0.1421  0.0573  0.2936
  855SOL     OW 5966   3.815   5.307   6.088 -0.1906  0.5463  0.3238
  855SOL    HW1 5967   3.889   5.340   6.037  0.8432  0.4592  1.7225
  855SOL    HW2 5968   3.752   5.277   6.022  1.2411  0.1087 -0.8836
  856SOL     OW 5969   0.516   7.157   9.257 -0.5549 -0.0225  0.7066
  856SOL    HW1 5970   0.466   7.140   9.337 -1.5427  0.8413  0.3015
  856SOL    HW2 5971   0.451   7.150   9.187 -0.8223  3.6986  0.3595
  857SOL     OW 5972   4.305   3.836   6.544 -0.4152  0.1546  0.1777
  857SOL    HW1 5973   4.369   3.860   6.477 -0.4608 -0.8475 -0.2440
  857SOL    HW2 5974   4.220   3.849   6.502 -0.4554  0.0501  0.2273
  858SOL     OW 5975   0.408   8.610   2.355  0.2640 -0.8354 -0.1909
  858SOL    HW1 5976   0.435   8.581   2.442 -0.0238 -0.2230  0.1149
  858SOL    HW2 5977   0.346   8.681   2.373 -0.9544 -1.6975 -0.8705
  859SOL     OW 5978   9.694   0.962   6.075 -0.0212  0.3744 -0.2984
  859SOL    HW1 5979   9.612   0.990   6.115  1.5035  0.8481  2.7176
  859SOL    HW2 5980   9.732   1.043   6.039  0.8446  0.9304  1.7268
  860SOL     OW 5981  10.116   2.428   4.129 -0.0554 -0.3332 -0.1917
  860SOL    HW1 5982  10.131   2.374   4.206  0.9382 -0.2020 -0.2794
  860SOL    HW2 5983  10.083   2.511   4.164  0.8993 -0.0825  0.1468
  861SOL     OW 5984  10.600   6.704   4.678  0.3591  0.1048 -0.5784
  861SOL    HW1 5985  10.536   6.638   4.702 -0.0344  0.3772 -0.8659
  861SOL    HW2 5986  10.682   6.672   4.715 -0.1325  0.2755  0.7086
  862SOL     OW 5987   4.212   9.881   5.575  0.1494 -0.0569  0.6718
  862SOL    HW1 5988   4.284   9.857   5.634  0.3365  0.9497  0.8714
  862SOL    HW2 5989   4.177   9.797   5.545  1.1828 -0.5712  0.8465
  863SOL     OW 5990   8.728   0.714   4.407  0.4179 -0.2094 -0.1574
  863SOL    HW1 5991   8.775   0.732   4.326  0.8124 -0.4987  0.0057
  863SOL    HW2 5992   8.667   0.788   4.417  1.6753  0.7943  0.2701
  864SOL     OW 5993   2.618   2.600   5.234  0.4897  0.4733 -0.2942
  864SOL    HW1 5994   2.526   2.622   5.223  0.7891  1.2386 -1.5400
  864SOL    HW2 5995   2.664   2.682   5.213  1.4127  0.5600  1.8171
  865SOL     OW 5996   3.424   5.556   6.456 -0.7131 -0.3726 -0.2416
  865SOL    HW1 5997   3.352   5.553   6.393 -2.7921  0.2562  1.9774
  865SOL    HW2 5998   3.384   5.536   6.540  1.8231 -0.4795  1.0576
  866SOL     OW 5999   1.826   3.649   9.448 -0.4759 -0.2676 -0.3156
  866SOL    HW1 6000   1.787   3.583   9.391 -0.5510  0.7057 -1.4307
  866SOL    HW2 6001   1.753   3.706   9.473 -0.4233 -0.6116  0.6889
  867SOL     OW 6002   6.993   8.545   4.132 -0.7367  0.3425  0.5011
  867SOL    HW1 6003   6.913   8.598   4.137  0.6341  2.4297  1.8844
  867SOL    HW2 6004   7.022   8.538   4.223  0.6705 -0.3442  0.0220
  868SOL     OW 6005   6.855   9.822  10.725  0.0743 -0.0292  0.2388
  868SOL    HW1 6006   6.855   9.776  10.641  1.2420 -0.0965  0.2544
  868SOL    HW2 6007   6.842   9.914  10.702 -1.6953 -0.2735  0.1640
  869SOL     OW 6008   0.175   6.519   9.096  0.8559 -0.6882 -0.6870
  869SOL    HW1 6009   0.264   6.488   9.079  1.3881 -0.1302  0.8397
  869SOL    HW2 6010   0.170   6.526   9.191 -0.2071  1.0499 -0.8190
  870SOL     OW 6011  10.027   2.106   3.322 -0.3862  0.3316  0.1344
  870SOL    HW1 6012   9.976   2.084   3.400 -1.1082  0.2390 -0.3537
  870SOL    HW2 6013   9.961   2.124   3.255  0.2071 -0.9186 -0.8332
  871SOL     OW 6014   8.228   5.244   4.394  0.6904  0.1413  0.1175
  871SOL    HW1 6015   8.228   5.270   4.301  1.5710 -0.5066 -0.0688
  871SOL    HW2 6016   8.280   5.312   4.438  2.5144 -0.9307 -0.2852
  872SOL     OW 6017   4.942   4.152   1.727  0.1779  0.4217  0.2223
  872SOL    HW1 6018   4.954   4.160   1.821 -0.7844  0.4962  0.3547
  872SOL    HW2 6019   4.848   4.166   1.714  0.2520  0.1172 -0.7122
  873SOL     OW 6020   6.282   8.552   9.323  0.8461 -0.4473  0.0138
  873SOL    HW1 6021   6.248   8.523   9.239  1.5612 -1.1855 -0.0331
  873SOL    HW2 6022   6.351   8.615   9.301  0.8957 -0.4864  0.0559
  874SOL     OW 6023  10.550   7.537   0.416  0.7844 -0.5020 -0.5349
  874SOL    HW1 6024  10.561   7.610   0.356  1.6079  0.2200  0.4569
  874SOL    HW2 6025  10.612   7.555   0.487  2.2461 -3.0069 -1.0690
  875SOL     OW 6026   9.967   0.480  10.177  0.2527  0.1252 -0.4338
  875SOL    HW1 6027   9.883   0.500  10.219  0.8378  2.3644 -0.2347
  875SOL    HW2 6028  10.010   0.565  10.167  3.1734 -1.0760  0.8297
  876SOL     OW 6029   2.327   6.332   6.453  0.2514 -0.3373  0.1116
  876SOL    HW1 6030   2.362   6.404   6.506 -1.6032  2.2026 -1.8619
  876SOL    HW2 6031   2.244   6.309   6.496 -0.6736  0.9184 -0.9122
  877SOL     OW 6032   9.199   1.237   2.634  0.1281  0.0140  0.2331
  877SOL    HW1 6033   9.215   1.171   2.566 -0.2716  0.2495 -0.0949
  877SOL    HW2 6034   9.280   1.288   2.638 -0.4040  1.0352 -1.2304
  878SOL     OW 6035   9.716   4.603  10.399 -0.0707  0.0387 -0.2772
  878SOL    HW1 6036   9.714   4.568  10.310  0.8871 -1.0800  0.1163
  878SOL    HW2 6037   9.725   4.526  10.455  0.5520  0.8042  0.7098
  879SOL     OW 6038   4.694   4.933   6.347 -0.1721 -0.5121 -0.3496
  879SOL    HW1 6039   4.705   4.997   6.277  3.5415 -0.3254  0.2006
  879SOL    HW2 6040   4.656   4.982   6.420  0.8114  0.6315 -0.5756
  880SOL     OW 6041   5.286   9.311   8.720 -0.0717 -0.1776  0.0705
  880SOL    HW1 6042   5.311   9.303   8.628  0.7491 -0.1132  0.2810
  880SOL    HW2 6043   5.272   9.405   8.733  0.0285 -0.1625  0.0696
  881SOL     OW 6044   8.837   3.552   7.248 -0.0829  0.1222  0.6322
  881SOL    HW1 6045   8.802   3.640   7.235 -0.8306  0.8752  5.5247
  881SOL    HW2 6046   8.917   3.566   7.299  0.4696 -2.0026  0.4237
  882SOL     OW 6047   7.997   2.912   7.796 -0.6284 -0.7853 -0.5168
  882SOL    HW1 6048   8.044   2.963   7.730 -0.2880  0.0916  0.3684
  882SOL    HW2 6049   8.056   2.839   7.815 -0.0420 -0.2280 -0.1295
  883SOL     OW 6050   8.681   3.669  10.443 -0.0188 -0.9356 -0.3629
  883SOL    HW1 6051   8.644   3.582  10.428 -0.5587 -0.9128  0.7149
  883SOL    HW2 6052   8.673   3.682  10.538 -0.1623  0.3920 -0.5440
  884SOL     OW 6053   3.658   9.027   4.843  0.1144  0.0234  0.1303
  884SOL    HW1 6054   3.682   8.942   4.808  0.7016  0.5376 -0.7569
  884SOL    HW2 6055   3.586   9.009   4.904  2.0138 -1.4241  2.0798
  885SOL     OW 6056   0.531   7.937   5.329  0.4620 -0.3602  0.7619
  885SOL    HW1 6057   0.442   7.909   5.351  0.0929  1.3838  1.7293
  885SOL    HW2 6058   0.518   8.013   5.272  1.3400 -0.3499  0.5674
  886SOL     OW 6059   3.579   7.361   2.436 -0.2022  0.1083 -0.1034
  886SOL    HW1 6060   3.674   7.350   2.428 -0.4209 -1.3453 -1.2292
  886SOL    HW2 6061   3.547   7.347   2.347 -1.6167 -1.1395  0.5694
  887SOL     OW 6062  10.168   2.299   9.462 -0.0887 -0.7887 -0.5910
  887SOL    HW1 6063  10.185   2.254   9.545  2.7257 -0.1380 -0.6960
  887SOL    HW2 6064  10.185   2.391   9.482 -0.6436 -0.4557 -1.6054
  888SOL     OW 6065   9.638   9.024   7.252  0.2665 -0.0791 -0.0298
  888SOL    HW1 6066   9.721   9.061   7.280  0.6372 -0.6475 -0.3561
  888SOL    HW2 6067   9.607   9.082   7.182  1.2543 -0.8217 -1.1296
  889SOL     OW 6068   3.414   3.845   1.127 -0.1881 -0.2165 -0.2125
  889SOL    HW1 6069   3.351   3.901   1.173  0.0591 -0.3350  0.2807
  889SOL    HW2 6070   3.488   3.837   1.188  0.7195  0.6921 -1.1521
  890SOL     OW 6071   3.903   3.004   2.082  0.3059  0.5131 -0.7601
  890SOL    HW1 6072   3.934   2.958   2.160  0.8992  0.9476 -0.7294
  890SOL    HW2 6073   3.876   3.090   2.115 -1.5943 -0.0687 -0.6744
  891SOL     OW 6074   7.378   2.665   2.230 -0.7871 -0.2254  0.8248
  891SOL    HW1 6075   7.316   2.605   2.270  0.8309 -1.7093  1.2214
  891SOL    HW2 6076   7.434   2.609   2.176  0.5342  0.9753  0.8953
  892SOL     OW 6077   1.806   8.014   2.001  0.1617  0.1283  0.6517
  892SOL    HW1 6078   1.756   7.940   1.967  0.7686  0.3939 -0.9432
  892SOL    HW2 6079   1.867   8.036   1.930  1.9111  0.3961  2.1605
  893SOL     OW 6080   8.020   2.812   4.709  0.1922 -0.6163  0.1907
  893SOL    HW1 6081   7.974   2.869   4.770  2.7212  0.5110  1.2015
  893SOL    HW2 6082   8.093   2.776   4.760 -0.1455 -3.2173 -0.9916
  894SOL     OW 6083  10.605  10.583   9.226  0.5376 -0.2796  0.5455
  894SOL    HW1 6084  10.568  10.507   9.271  1.6693 -0.7114  0.7765
  894SOL    HW2 6085  10.684  10.550   9.185 -0.6252  0.0143 -2.1212
  895SOL     OW 6086   6.661   8.559   0.492  0.3539  0.4683  0.6246
  895SOL    HW1 6087   6.721   8.622   0.532  0.5336  0.0787  0.9778
  895SOL    HW2 6088   6.688   8.474   0.528 -0.4966  0.3039  0.9033
  896SOL     OW 6089   2.608   1.556   1.295 -0.1392  0.3816  0.1159
  896SOL    HW1 6090   2.540   1.597   1.347  0.6474  2.1267 -0.1536
  896SOL    HW2 6091   2.611   1.608   1.214 -1.1591 -2.0855 -1.6284
  897SOL     OW 6092   2.371   4.033   3.588 -0.2958  0.2256  0.2055
  897SOL    HW1 6093   2.302   4.073   3.640 -0.1388 -1.1318  1.5525
  897SOL    HW2 6094   2.361   3.939   3.604 -0.1674 -0.2387 -2.1834
  898SOL     OW 6095   2.075   3.803   6.780  0.3314 -0.5991  0.1681
  898SOL    HW1 6096   2.037   3.772   6.698 -1.0814  2.0323 -0.2821
  898SOL    HW2 6097   2.097   3.895   6.764  1.1687 -0.3555  2.3536
  899SOL     OW 6098   0.915   9.673   4.158 -0.3603 -0.0055  0.2434
  899SOL    HW1 6099   0.926   9.693   4.251  0.4318 -0.1207  0.1867
  899SOL    HW2 6100   0.856   9.598   4.157  1.4463 -1.5193  0.8169
  900SOL     OW 6101   4.274   8.905   5.851 -0.1343 -0.6788 -0.4732
  900SOL    HW1 6102   4.350   8.850   5.830 -0.6047 -1.6368  0.2335
  900SOL    HW2 6103   4.292   8.988   5.808  0.7113 -1.3140 -1.4056
  901SOL     OW 6104   8.881   8.211   8.266 -0.0277  0.5737 -0.3845
  901SOL    HW1 6105   8.951   8.257   8.312  0.8089  0.4401 -1.4714
  901SOL    HW2 6106   8.923   8.130   8.235 -1.6608 -1.4256  2.2417
  902SOL     OW 6107   0.321   0.647   3.514 -0.2109 -0.4212  0.4418
  902SOL    HW1 6108   0.387   0.715   3.500  1.7486 -1.6924  2.7096
  902SOL    HW2 6109   0.327   0.592   3.436 -0.8348  1.1580 -0.7740
  903SOL     OW 6110   7.468   3.972   1.347  0.0436 -0.1094 -0.0714
  903SOL    HW1 6111   7.490   4.045   1.290  2.0006 -0.8864 -0.3940
  903SOL    HW2 6112   7.420   4.011   1.420 -0.0783  1.2901 -0.8837
  904SOL     OW 6113   8.299   1.914   4.209 -0.3022 -0.1688  0.3614
  904SOL    HW1 6114   8.280   1.820   4.207 -0.3536 -0.1605 -1.0152
  904SOL    HW2 6115   8.213   1.956   4.214 -0.2150 -0.1804  2.7444
  905SOL     OW 6116   0.753   4.129   8.630  0.4266  0.0538  0.1049
  905SOL    HW1 6117   0.843   4.118   8.660  0.3483 -1.0282 -0.0370
  905SOL    HW2 6118   0.701   4.132   8.710  0.3138 -1.9728  0.1581
  906SOL     OW 6119   1.479   2.175   3.508  0.6499 -0.3056 -0.0700
  906SOL    HW1 6120   1.416   2.111   3.541  0.1168  0.5172  0.5824
  906SOL    HW2 6121   1.425   2.249   3.480  1.2274 -0.2649 -1.1307
  907SOL     OW 6122  10.541   6.626   5.833 -0.0131  0.4639  0.2695
  907SOL    HW1 6123  10.572   6.677   5.757  0.3390 -0.3484 -0.1499
  907SOL    HW2 6124  10.507   6.692   5.893  1.9581  1.3777  0.4817
  908SOL     OW 6125   0.715   7.821   2.909  0.4112  0.1278 -0.3332
  908SOL    HW1 6126   0.645   7.834   2.973  0.9913  2.3040 -0.0518
  908SOL    HW2 6127   0.728   7.726   2.907 -1.0661 -0.1632  1.1975
  909SOL     OW 6128   4.820   2.112   0.403 -0.1119  0.0705 -0.5877
  909SOL    HW1 6129   4.868   2.031   0.388  0.7976 -0.0191  2.3894
  909SOL    HW2 6130   4.887   2.177   0.424 -0.8237  1.6994 -2.8320
  910SOL     OW 6131   9.991   2.403   4.914  0.2601  0.2520 -0.3319
  910SOL    HW1 6132   9.966   2.489   4.881 -3.2138 -1.0649 -1.5885
  910SOL    HW2 6133  10.021   2.419   5.003 -0.4419  2.7217 -0.4681
  911SOL     OW 6134   8.286   5.240   9.731 -0.2309  0.1640  0.3817
  911SOL    HW1 6135   8.234   5.166   9.761 -0.7383  0.1963 -0.3803
  911SOL    HW2 6136   8.248   5.263   9.646  2.0366 -0.8462 -0.9928
  912SOL     OW 6137   0.706   2.997  10.915  0.3953  0.1140  0.3630
  912SOL    HW1 6138   0.795   3.004  10.881  0.1530 -0.4443 -0.4264
  912SOL    HW2 6139   0.703   3.059  10.988  0.8854  1.5309 -0.7754
  913SOL     OW 6140   6.217   5.392   0.738  0.3326 -0.0940 -0.1391
  913SOL    HW1 6141   6.283   5.335   0.777  1.5114  1.9739  1.0220
  913SOL    HW2 6142   6.234   5.478   0.775 -1.4260  1.0381 -1.7760
  914SOL     OW 6143   7.044   0.818   4.368  0.0379 -0.0246  0.3251
  914SOL    HW1 6144   6.976   0.779   4.422 -1.1439  1.1542 -0.2351
  914SOL    HW2 6145   7.002   0.894   4.328  1.3729  0.1183 -0.9064
  915SOL     OW 6146   8.035   7.913   8.994  0.4679  0.1099 -0.6500
  915SOL    HW1 6147   8.055   7.876   9.079  0.2579  2.7524  0.6491
  915SOL    HW2 6148   7.995   7.841   8.945 -1.3439 -1.0075  2.1977
  916SOL     OW 6149  10.333   8.580   9.397 -0.1724 -0.1786  0.5887
  916SOL    HW1 6150  10.308   8.584   9.489  2.8348  0.0128  1.5081
  916SOL    HW2 6151  10.417   8.626   9.392 -0.3391  0.0393 -2.3213
  917SOL     OW 6152   0.127   5.385  10.419 -0.1113 -0.0852  0.1199
  917SOL    HW1 6153   0.173   5.428  10.492 -1.4541  1.6365  0.0137
  917SOL    HW2 6154   0.080   5.313  10.460  1.5477 -1.0544  0.4337
  918SOL     OW 6155   3.816   0.116   7.288  0.6537 -0.7980  0.1211
  918SOL    HW1 6156   3.724   0.126   7.264  0.4016 -0.1573  1.2656
  918SOL    HW2 6157   3.841   0.031   7.253 -0.2176 -0.7478 -0.6707
  919SOL     OW 6158   5.645   9.552  10.862 -0.1793  0.4946 -0.6861
  919SOL    HW1 6159   5.661   9.561  10.956 -0.5360  0.4093 -0.6135
  919SOL    HW2 6160   5.712   9.490  10.832 -0.0810  0.4992 -0.4812
  920SOL     OW 6161   5.136   2.099   5.292  0.5115  0.7078  0.3411
  920SOL    HW1 6162   5.132   2.048   5.373 -0.2697  0.4307  0.1371
  920SOL    HW2 6163   5.048   2.135   5.282  0.6146  0.7829 -0.3568
  921SOL     OW 6164   4.656   4.300   4.253  0.3729  0.1987 -0.2345
  921SOL    HW1 6165   4.745   4.330   4.234  1.0836 -0.9500  1.0804
  921SOL    HW2 6166   4.667   4.211   4.286 -1.2677  0.0444 -0.0072
  922SOL     OW 6167   0.768   1.905   9.817 -0.2831 -0.0800  0.0791
  922SOL    HW1 6168   0.776   2.000   9.817  1.2924 -0.1589 -1.0295
  922SOL    HW2 6169   0.706   1.885   9.887  0.0028  1.7076  0.8914
  923SOL     OW 6170   8.480  10.423   3.447  0.3254  0.0599  0.2588
  923SOL    HW1 6171   8.562  10.444   3.402  1.0725 -1.5096  0.8043
  923SOL    HW2 6172   8.506  10.411   3.539 -0.7658  0.8938  0.6894
  924SOL     OW 6173  10.796   4.206   9.360  0.4369  0.1551  0.6058
  924SOL    HW1 6174  10.795   4.128   9.305  0.2278  0.4150  0.2365
  924SOL    HW2 6175  10.711   4.206   9.404  0.8859 -0.4435  1.4879
  925SOL     OW 6176   9.220   5.097   4.350 -0.3116 -0.0163 -0.3949
  925SOL    HW1 6177   9.145   5.080   4.408 -0.5477  0.3533 -0.5860
  925SOL    HW2 6178   9.180   5.119   4.266  0.0314 -1.1136 -0.8732
  926SOL     OW 6179   9.052   2.380   1.196  0.4113 -0.6117 -0.0425
  926SOL    HW1 6180   9.068   2.339   1.111  0.8250  0.6064 -0.5814
  926SOL    HW2 6181   8.957   2.374   1.208  0.1510  0.4334 -1.2790
  927SOL     OW 6182   3.575   4.853   1.513 -0.0541 -0.7217 -0.3203
  927SOL    HW1 6183   3.483   4.830   1.510  0.1167 -1.2820 -1.6033
  927SOL    HW2 6184   3.591   4.875   1.605 -1.7821  0.7980 -0.3295
  928SOL     OW 6185   5.001   1.389   6.160 -0.2403 -0.1286  0.2328
  928SOL    HW1 6186   4.983   1.295   6.167  0.6707 -0.4289 -1.0292
  928SOL    HW2 6187   4.945   1.429   6.226 -3.0827 -1.2765 -1.2920
  929SOL     OW 6188   0.025  10.755  10.622  0.1004  0.4191 -0.2242
  929SOL    HW1 6189   0.116  10.726  10.630  0.9385  2.9116  0.1614
  929SOL    HW2 6190  -0.012  10.743  10.710  0.4500  0.6103 -0.0498
  930SOL     OW 6191   8.931   6.377   6.429  0.0429  0.0541 -0.5973
  930SOL    HW1 6192   8.846   6.346   6.400 -0.6382 -0.0511  1.4028
  930SOL    HW2 6193   8.990   6.358   6.356 -1.3987 -0.9814 -1.5217
  931SOL     OW 6194   4.080   3.502   3.347  0.5773  0.2350  0.2814
  931SOL    HW1 6195   4.163   3.460   3.372  0.0539 -0.7074  0.4734
  931SOL    HW2 6196   4.019   3.429   3.334  0.2553  0.8034 -1.7104
  932SOL     OW 6197   4.197   0.435   5.880 -0.5391 -0.0649  0.0516
  932SOL    HW1 6198   4.278   0.389   5.904 -0.1853  0.2060 -0.5875
  932SOL    HW2 6199   4.216   0.527   5.899  0.0857  0.2820 -2.0532
  933SOL     OW 6200   4.010   2.502   2.384  0.3241 -0.2207 -0.0534
  933SOL    HW1 6201   4.076   2.569   2.364  1.1397 -1.0744 -0.2574
  933SOL    HW2 6202   3.937   2.552   2.421  0.6993  0.8476 -0.6999
  934SOL     OW 6203   4.028   5.801   4.356 -0.1476 -0.1625  0.6448
  934SOL    HW1 6204   3.958   5.754   4.402  0.9305 -2.2713  0.2681
  934SOL    HW2 6205   4.029   5.763   4.269  0.5929  0.7985  0.2187
  935SOL     OW 6206  10.560   3.429   8.428 -0.1019 -0.0228  0.7150
  935SOL    HW1 6207  10.615   3.362   8.468  0.1837 -0.2511 -0.0412
  935SOL    HW2 6208  10.528   3.389   8.347 -0.0351  0.7047  0.3220
  936SOL     OW 6209   5.246   1.988   1.484 -0.4688  0.1219 -0.5204
  936SOL    HW1 6210   5.302   2.001   1.560  1.3655  1.4779 -2.0044
  936SOL    HW2 6211   5.248   1.894   1.467  0.1781 -0.0164  0.3045
  937SOL     OW 6212  10.733   8.034  10.623  0.4799  0.5141 -0.4465
  937SOL    HW1 6213  10.732   7.946  10.585 -2.5541  0.3420 -0.2459
  937SOL    HW2 6214  10.794   8.084  10.568  2.2155 -1.6500 -0.6066
  938SOL     OW 6215   6.084   8.542   1.250  0.5450 -0.4550 -0.7257
  938SOL    HW1 6216   6.073   8.514   1.159 -1.6263 -2.9922  0.1981
  938SOL    HW2 6217   6.053   8.632   1.251  0.7073 -0.3357 -2.4853
  939SOL     OW 6218   9.456   9.458  10.769  0.0941  0.0293  0.1229
  939SOL    HW1 6219   9.480   9.541  10.811  2.6149  0.6898 -2.3698
  939SOL    HW2 6220   9.496   9.392  10.825  1.9250  0.7857 -0.2207
  940SOL     OW 6221   9.424   1.634   2.527  0.2318 -0.2069 -0.1914
  940SOL    HW1 6222   9.372   1.693   2.581  0.5932  0.9542 -1.0856
  940SOL    HW2 6223   9.514   1.662   2.539  0.2945  0.3314 -1.6644
  941SOL     OW 6224   1.463   0.925   9.137 -0.4798  0.0760 -0.4113
  941SOL    HW1 6225   1.437   0.999   9.191 -2.3307 -1.3515  0.7996
  941SOL    HW2 6226   1.386   0.908   9.082 -0.0459 -0.8552 -0.7538
  942SOL     OW 6227   6.813   4.799   2.507  0.2424  0.2848  0.2567
  942SOL    HW1 6228   6.899   4.826   2.540  0.0482 -1.1181  2.0859
  942SOL    HW2 6229   6.752   4.822   2.577 -1.1589  2.4680 -1.5493
  943SOL     OW 6230   8.730   6.888   7.209 -0.0434 -0.1409 -0.6660
  943SOL    HW1 6231   8.806   6.914   7.261  0.6943 -0.6848 -1.4521
  943SOL    HW2 6232   8.725   6.793   7.220 -0.7574 -0.0799 -0.4321
  944SOL     OW 6233   9.758   0.739   7.447  0.4392  0.2050 -0.0101
  944SOL    HW1 6234   9.683   0.739   7.388  0.1322  1.8441  0.3360
  944SOL    HW2 6235   9.829   0.780   7.397  0.6991 -0.0534  0.1423
  945SOL     OW 6236   5.454  10.205   1.346  0.1940  0.2845  0.2426
  945SOL    HW1 6237   5.422  10.264   1.277  0.1298  0.7653  0.6811
  945SOL    HW2 6238   5.415  10.239   1.426  0.0791 -0.4179  0.4864
  946SOL     OW 6239   5.196   3.237   6.845 -0.1467  0.2076 -0.3051
  946SOL    HW1 6240   5.264   3.201   6.902  0.4467 -0.2604 -1.2743
  946SOL    HW2 6241   5.220   3.329   6.834 -0.3828  0.3498  0.3629
  947SOL     OW 6242   8.647   9.160  10.852  0.4621  0.0530 -0.1027
  947SOL    HW1 6243   8.712   9.192  10.915  0.7719 -1.1499  0.2103
  947SOL    HW2 6244   8.569   9.214  10.869  1.2643  1.3158 -0.2890
  948SOL     OW 6245   4.902   6.675   8.520 -0.0168  0.1954  0.3430
  948SOL    HW1 6246   4.909   6.644   8.611 -1.3512 -0.3506  0.2820
  948SOL    HW2 6247   4.854   6.757   8.526 -0.1339  0.1429  0.1347
  949SOL     OW 6248   5.631   0.229   9.350 -0.3247  0.3342 -0.0071
  949SOL    HW1 6249   5.677   0.231   9.265  2.0381 -0.8747  1.1440
  949SOL    HW2 6250   5.667   0.304   9.398 -0.0214 -0.2353  0.6696
  950SOL     OW 6251   2.749   0.340   3.058 -0.2960 -0.6298 -0.0209
  950SOL    HW1 6252   2.661   0.311   3.033 -0.9099 -0.3559  1.6795
  950SOL    HW2 6253   2.754   0.430   3.027 -1.2336 -0.1217  1.2062
  951SOL     OW 6254   7.081   2.527   4.743  0.4663  0.4716 -0.0994
  951SOL    HW1 6255   7.042   2.606   4.706 -0.9999 -0.2665 -0.2051
  951SOL    HW2 6256   7.090   2.467   4.669  1.0425  0.3209  0.0826
  952SOL     OW 6257   0.557   3.703  10.692 -0.0830 -0.0401  0.0382
  952SOL    HW1 6258   0.504   3.734  10.618 -1.1414 -0.7052  0.4873
  952SOL    HW2 6259   0.596   3.782  10.729  1.2284  0.2375 -1.7579
  953SOL     OW 6260   5.978   9.205   2.148  0.1570 -0.2596 -0.0164
  953SOL    HW1 6261   5.904   9.265   2.150  0.1759 -0.2471  1.5332
  953SOL    HW2 6262   5.971   9.161   2.063  0.2237  1.9955 -1.2744
  954SOL     OW 6263   7.673   7.813   1.250  0.2219 -0.4356 -0.0594
  954SOL    HW1 6264   7.607   7.881   1.243  1.1325  0.4285 -0.5311
  954SOL    HW2 6265   7.736   7.847   1.314  0.2612 -1.2070  0.3302
  955SOL     OW 6266   7.321   2.115   0.543  0.0535 -0.8367  0.3834
  955SOL    HW1 6267   7.253   2.114   0.611  0.2284 -0.5886  0.5658
  955SOL    HW2 6268   7.396   2.157   0.586  0.1548 -0.6534  0.0269
  956SOL     OW 6269   6.281   4.755   0.258 -0.2105 -0.2574 -0.7676
  956SOL    HW1 6270   6.323   4.718   0.336 -0.0090  1.2748 -0.1113
  956SOL    HW2 6271   6.330   4.718   0.184  0.3534 -0.8346 -0.1170
  957SOL     OW 6272   6.884   3.908   7.157  0.1710 -0.7841 -0.1659
  957SOL    HW1 6273   6.952   3.959   7.113  0.2629  0.1503  1.0163
  957SOL    HW2 6274   6.843   3.858   7.087  0.7457  0.1564 -1.2075
  958SOL     OW 6275   6.666   3.034   1.936 -0.2674  0.0678 -0.1700
  958SOL    HW1 6276   6.736   2.999   1.881  1.3327  0.1518  1.6873
  958SOL    HW2 6277   6.681   2.994   2.022 -0.1194  3.0432  1.2943
  959SOL     OW 6278  10.386  10.841   6.429  0.0231 -0.7226 -0.3868
  959SOL    HW1 6279  10.310  10.796   6.465 -1.8213  2.8147  0.6073
  959SOL    HW2 6280  10.368  10.848   6.335 -0.6206 -0.4166 -0.2431
  960SOL     OW 6281   2.012   9.461   0.575 -0.0451  0.1675  0.6582
  960SOL    HW1 6282   1.924   9.499   0.585  0.6688  2.0053  0.4087
  960SOL    HW2 6283   2.016   9.434   0.483 -0.0309  0.9855  0.4089
  961SOL     OW 6284   1.135   6.076  10.122  0.0785 -0.4503  0.3558
  961SOL    HW1 6285   1.051   6.113  10.148  0.4706 -0.3306  1.5328
  961SOL    HW2 6286   1.200   6.129  10.169  0.6614 -2.7357  2.3186
  962SOL     OW 6287   8.351   6.122   1.063  0.2345  0.3151 -0.0643
  962SOL    HW1 6288   8.447   6.119   1.059  0.3533 -0.0462  1.9756
  962SOL    HW2 6289   8.322   6.041   1.021  0.8681 -0.0110  0.1213
  963SOL     OW 6290   6.383   5.896   2.355 -0.2641  0.0734  0.4343
  963SOL    HW1 6291   6.451   5.953   2.391 -1.3878  0.2187  2.4790
  963SOL    HW2 6292   6.396   5.812   2.399 -0.0211 -0.5868 -0.8663
  964SOL     OW 6293   5.256   8.788   5.905 -0.1985 -1.1064  0.2086
  964SOL    HW1 6294   5.250   8.790   5.810  0.7705 -2.1852  0.1007
  964SOL    HW2 6295   5.311   8.712   5.924  0.3727 -0.3818  1.5932
  965SOL     OW 6296   4.521   8.816   0.168 -0.2956 -0.1215  0.0674
  965SOL    HW1 6297   4.608   8.856   0.160 -0.3627  0.1159  0.4962
  965SOL    HW2 6298   4.535   8.723   0.150 -0.1012  0.0539 -0.7406
  966SOL     OW 6299   8.576   3.643   7.983 -0.5034 -0.3596 -0.1423
  966SOL    HW1 6300   8.531   3.628   8.066 -0.6717  0.7963  0.0013
  966SOL    HW2 6301   8.520   3.706   7.937 -0.2935 -0.8127 -1.0344
  967SOL     OW 6302   9.460   5.384   4.432 -0.3009  0.5743 -0.1719
  967SOL    HW1 6303   9.496   5.356   4.348  1.4861  0.6083  0.5303
  967SOL    HW2 6304   9.486   5.315   4.493 -0.5683  1.1097  0.5629
  968SOL     OW 6305   9.870   6.252   7.116  0.0332 -0.2130 -0.2463
  968SOL    HW1 6306   9.877   6.225   7.024 -0.7089 -0.9459 -0.0968
  968SOL    HW2 6307   9.861   6.347   7.112  0.9202 -0.1463 -0.8836
  969SOL     OW 6308   7.925   5.063   1.786  0.0510  0.3338 -0.0949
  969SOL    HW1 6309   7.990   5.120   1.744  0.9289  0.6542  1.6125
  969SOL    HW2 6310   7.841   5.106   1.769  0.4241  0.6737 -1.1328
  970SOL     OW 6311   2.346   0.106   3.633 -0.5647  0.0244  0.0249
  970SOL    HW1 6312   2.315   0.193   3.607 -0.9418  0.1284  0.7831
  970SOL    HW2 6313   2.269   0.050   3.628 -0.1776 -0.4258 -1.0992
  971SOL     OW 6314   5.019   1.121   5.424  0.0543 -0.0322 -0.2560
  971SOL    HW1 6315   5.094   1.069   5.396  0.1108 -0.4501  0.6313
  971SOL    HW2 6316   4.964   1.129   5.345  0.6574 -0.3544 -0.7167
  972SOL     OW 6317   5.547   7.815   1.083  0.2629 -0.0452  0.6552
  972SOL    HW1 6318   5.472   7.863   1.117 -0.4597  0.0582 -1.0046
  972SOL    HW2 6319   5.511   7.759   1.014  1.4598 -1.2164  0.9370
  973SOL     OW 6320   7.495   6.159   9.704  0.4383  0.3034 -0.0937
  973SOL    HW1 6321   7.492   6.072   9.744  2.9039 -0.4195 -1.3254
  973SOL    HW2 6322   7.403   6.181   9.688 -0.3388 -1.3538  1.6684
  974SOL     OW 6323   2.666  10.028   6.853 -0.1092  0.2783  0.2880
  974SOL    HW1 6324   2.649   9.985   6.770  1.2913 -1.1050  0.6715
  974SOL    HW2 6325   2.712  10.109   6.830 -1.6791  1.0243 -0.3657
  975SOL     OW 6326   3.445   8.198   2.930  0.3460 -0.2941 -0.2608
  975SOL    HW1 6327   3.431   8.205   2.835  1.2511  0.9333 -0.3280
  975SOL    HW2 6328   3.512   8.263   2.949 -0.6780  0.3448  1.4234
  976SOL     OW 6329   9.864   2.850   7.082 -0.5516  0.3938 -0.2970
  976SOL    HW1 6330   9.798   2.915   7.057  0.4108  1.9834  1.0609
  976SOL    HW2 6331   9.816   2.788   7.137 -1.0731  1.1914  0.1813
  977SOL     OW 6332   7.803   2.765   4.564  0.3509 -0.6996  0.1358
  977SOL    HW1 6333   7.882   2.782   4.615 -0.5236  0.7328  1.0818
  977SOL    HW2 6334   7.819   2.680   4.523  1.3672 -1.5713  2.2179
  978SOL     OW 6335   3.432   0.744   2.781 -0.0947 -0.1450  0.2521
  978SOL    HW1 6336   3.385   0.799   2.843 -0.3854 -0.1897  0.0733
  978SOL    HW2 6337   3.413   0.654   2.809 -0.9544 -0.1865 -0.4249
  979SOL     OW 6338   4.437   5.110   1.231 -0.1768 -0.0097 -0.5990
  979SOL    HW1 6339   4.420   5.090   1.323  0.7836 -1.7709 -0.7734
  979SOL    HW2 6340   4.366   5.169   1.207 -0.6918  0.1481  1.1495
  980SOL     OW 6341   7.960   0.076   1.372 -0.9126  0.1780  0.0547
  980SOL    HW1 6342   8.045   0.060   1.332 -2.3305  0.6964 -3.5371
  980SOL    HW2 6343   7.944  -0.002   1.425  1.2495 -0.4773 -0.1456
  981SOL     OW 6344   6.976   9.521   8.920 -0.6177  0.3490  0.3301
  981SOL    HW1 6345   6.947   9.448   8.975 -0.5228 -0.2503 -0.3848
  981SOL    HW2 6346   7.055   9.554   8.963 -1.1192  0.5667  1.0998
  982SOL     OW 6347   6.705   0.947  10.838 -0.1807  0.0827  0.1147
  982SOL    HW1 6348   6.742   0.991  10.915 -0.8473  2.5786 -0.8850
  982SOL    HW2 6349   6.618   0.987  10.828 -0.8572 -1.5407 -0.8860
  983SOL     OW 6350   0.526   5.574   3.280  0.2326 -0.2464  0.1660
  983SOL    HW1 6351   0.450   5.557   3.335  0.1518 -0.7741 -0.1044
  983SOL    HW2 6352   0.592   5.609   3.340  0.5045 -1.7828  0.8169
  984SOL     OW 6353   1.134   7.603   0.752  0.0739 -0.0658  0.2046
  984SOL    HW1 6354   1.175   7.638   0.674 -0.5599  1.2175  0.4237
  984SOL    HW2 6355   1.064   7.546   0.718 -1.0356  1.4838 -0.1982
  985SOL     OW 6356   5.760   2.177   0.069  0.0514 -0.5028 -0.5387
  985SOL    HW1 6357   5.685   2.169   0.010 -0.0236 -3.5734 -0.1875
  985SOL    HW2 6358   5.721   2.177   0.157  0.3814  0.3670 -0.3747
  986SOL     OW 6359   0.316   4.658   8.369  0.3406 -0.0040 -0.5043
  986SOL    HW1 6360   0.368   4.676   8.448 -0.9177  0.0269  0.3388
  986SOL    HW2 6361   0.372   4.600   8.317  1.0670 -0.2787  0.5406
  987SOL     OW 6362  10.037   8.292   8.006 -0.5294 -0.0998 -0.3650
  987SOL    HW1 6363  10.065   8.302   7.915 -1.5790 -0.9635 -0.7985
  987SOL    HW2 6364  10.092   8.354   8.054 -0.7009  1.1635 -1.7238
  988SOL     OW 6365   5.970   1.907   6.003 -1.2800  0.3620  0.5353
  988SOL    HW1 6366   6.060   1.896   6.036 -2.0329 -0.1887  2.5234
  988SOL    HW2 6367   5.959   2.002   5.996 -0.7328  0.4545  0.8182
  989SOL     OW 6368   8.638   2.651  10.414 -0.2957 -0.2045 -0.2217
  989SOL    HW1 6369   8.582   2.614  10.345 -2.3272 -0.4078  1.4384
  989SOL    HW2 6370   8.691   2.577  10.443  0.2284 -0.2328 -1.1997
  990SOL     OW 6371   2.576   5.961   2.273 -0.5208  0.1729  0.1689
  990SOL    HW1 6372   2.524   5.884   2.299  0.9453 -0.2390  2.0586
  990SOL    HW2 6373   2.554   6.027   2.339  0.2204  0.4856  0.1031
  991SOL     OW 6374   2.687   0.466   5.209  0.4045  0.1178  0.1321
  991SOL    HW1 6375   2.770   0.418   5.217  0.5277 -0.0531 -1.6799
  991SOL    HW2 6376   2.713   0.558   5.201  0.5231 -0.0309 -1.4787
  992SOL     OW 6377   5.056   9.696   6.958  0.2013  0.0494 -0.3561
  992SOL    HW1 6378   5.018   9.647   7.031 -2.2025  0.9701 -0.9017
  992SOL    HW2 6379   5.029   9.647   6.880  0.9783  0.2080 -0.7305
  993SOL     OW 6380   4.801   3.103  10.294 -0.6089  0.3398  0.4586
  993SOL    HW1 6381   4.809   3.191  10.258 -1.7929  0.3328  0.1275
  993SOL    HW2 6382   4.718   3.071  10.258 -0.4014 -0.7418  0.9295
  994SOL     OW 6383   2.630   0.892   9.379  0.7122  0.1293 -0.3848
  994SOL    HW1 6384   2.552   0.845   9.409  0.7961  0.4024  0.2711
  994SOL    HW2 6385   2.612   0.910   9.286 -0.3255  0.7872 -0.0860
  995SOL     OW 6386   8.873   0.399   1.481 -0.0025  0.0750 -0.5657
  995SOL    HW1 6387   8.902   0.489   1.492  1.2405 -0.4252  0.6183
  995SOL    HW2 6388   8.939   0.359   1.424 -1.7141  0.4156 -2.9111
  996SOL     OW 6389   8.131   3.335   6.582 -0.3141  0.1783 -0.0808
  996SOL    HW1 6390   8.050   3.351   6.534 -0.3185 -0.1158 -0.1712
  996SOL    HW2 6391   8.187   3.410   6.562 -0.7274  0.5974  0.3256
  997SOL     OW 6392   2.247   3.891   3.944  0.2516 -0.1770  0.3725
  997SOL    HW1 6393   2.174   3.913   3.886  1.1181 -1.2179 -1.1659
  997SOL    HW2 6394   2.312   3.959   3.928  0.2490 -0.1198  0.6007
  998SOL     OW 6395   3.290   4.616   1.911 -0.3444  0.4710  0.2411
  998SOL    HW1 6396   3.220   4.668   1.870 -0.5320  0.9556  1.1570
  998SOL    HW2 6397   3.351   4.598   1.840 -1.6841 -0.4672 -0.7267
  999SOL     OW 6398   2.840   6.378   7.118  0.3714  0.6182 -0.8094
  999SOL    HW1 6399   2.810   6.299   7.161 -0.9271  1.0007 -0.9656
  999SOL    HW2 6400   2.880   6.431   7.187  1.5618 -0.3039 -0.7712
 1000SOL     OW 6401   3.327   3.177   1.070  0.0956  0.5402 -0.5868
 1000SOL    HW1 6402   3.417   3.167   1.101 -0.0400  0.5435 -0.1881
 1000SOL    HW2 6403   3.332   3.248   1.006  0.1861  1.2998  0.2443
 1001SOL     OW 6404   0.272   7.869   2.269 -0.2307  0.0255 -0.2436
 1001SOL    HW1 6405   0.228   7.865   2.184 -0.1081 -0.5414 -0.2858
 1001SOL    HW2 6406   0.292   7.777   2.290 -1.4585  0.0097  1.0211
 1002SOL     OW 6407   0.595   1.700   1.063  0.1669 -0.1376 -0.0363
 1002SOL    HW1 6408   0.514   1.680   1.110  0.5650 -1.1979  0.2278
 1002SOL    HW2 6409   0.567   1.716   0.973 -0.3092 -0.7876 -0.0127
 1003SOL     OW 6410   3.206   7.214   5.378  0.0336  0.7650  0.1198
 1003SOL    HW1 6411   3.155   7.212   5.459 -0.3567  0.3413 -0.1366
 1003SOL    HW2 6412   3.143   7.239   5.311 -0.4016 -2.0242 -0.6048
 1004SOL     OW 6413   5.208   4.703   7.529 -0.0326 -0.2662 -0.0260
 1004SOL    HW1 6414   5.117   4.677   7.527  0.8176 -3.7344  0.7594
 1004SOL    HW2 6415   5.247   4.653   7.601  2.5036  1.0669 -0.3422
 1005SOL     OW 6416   6.774  10.308   2.996  0.0918  0.1269 -0.7840
 1005SOL    HW1 6417   6.789  10.384   2.939  0.2921  0.9479  0.3311
 1005SOL    HW2 6418   6.701  10.335   3.052  0.0142 -0.5940 -0.5355
 1006SOL     OW 6419   1.250   2.450   9.769 -0.4446 -0.7259 -0.0972
 1006SOL    HW1 6420   1.343   2.470   9.756 -0.4968  0.4970  1.2150
 1006SOL    HW2 6421   1.250   2.361   9.806  0.1017 -1.2560 -1.3266
 1007SOL     OW 6422   8.719   9.442   2.355  0.1486  0.1658  0.8392
 1007SOL    HW1 6423   8.747   9.473   2.269 -0.1011  0.8338  0.9960
 1007SOL    HW2 6424   8.653   9.376   2.335 -1.1290  1.4902  0.5180
 1008SOL     OW 6425  10.247  10.846  10.696 -0.9854  0.0117 -0.0877
 1008SOL    HW1 6426  10.281  10.934  10.680 -1.1356  0.3583  1.3611
 1008SOL    HW2 6427  10.306  10.788  10.647  0.4674  0.7455  0.7268
 1009SOL     OW 6428   3.041   3.803   3.106 -0.0469  0.1215 -0.0395
 1009SOL    HW1 6429   3.082   3.854   3.177  1.6289  0.1509 -0.9787
 1009SOL    HW2 6430   2.999   3.730   3.150  1.1382  0.0287  0.9993
 1010SOL     OW 6431  10.904   4.357   1.279  0.0354 -0.5871 -0.6140
 1010SOL    HW1 6432  10.819   4.399   1.273  0.3523  0.2298  0.3252
 1010SOL    HW2 6433  10.911   4.329   1.371  1.6547  1.3558 -0.0602
 1011SOL     OW 6434   4.242   0.571  10.193 -0.0597 -0.5469 -0.6497
 1011SOL    HW1 6435   4.263   0.523  10.113  1.0588  0.4308 -0.9566
 1011SOL    HW2 6436   4.270   0.512  10.263 -1.0910 -1.4283 -0.9341
 1012SOL     OW 6437   6.602   7.266   8.811 -0.0506  0.2072 -0.3984
 1012SOL    HW1 6438   6.575   7.347   8.855 -0.9554 -0.4809  0.3751
 1012SOL    HW2 6439   6.520   7.219   8.796  0.5506 -1.0793  0.2040
 1013SOL     OW 6440   0.191   5.138   3.213  0.8969  0.1382 -0.2843
 1013SOL    HW1 6441   0.105   5.169   3.242  0.7640 -0.3816 -0.1102
 1013SOL    HW2 6442   0.179   5.044   3.201  0.4846  0.4804 -3.5220
 1014SOL     OW 6443   0.640   4.033   5.782  0.3985  0.1631 -0.2756
 1014SOL    HW1 6444   0.590   4.006   5.705 -1.4832  0.8936  0.6390
 1014SOL    HW2 6445   0.658   3.952   5.829 -0.0660 -0.0851 -0.5276
 1015SOL     OW 6446   9.206   1.916   6.288  0.0332  0.2288  0.6311
 1015SOL    HW1 6447   9.208   1.822   6.272 -2.1901  0.3314 -0.6678
 1015SOL    HW2 6448   9.173   1.925   6.377  0.2952 -0.2190  0.7718
 1016SOL     OW 6449   0.297   1.356   4.600  0.3737 -0.1880 -0.2810
 1016SOL    HW1 6450   0.302   1.280   4.658 -1.4940 -0.2344 -0.1329
 1016SOL    HW2 6451   0.388   1.379   4.584  0.9589 -1.1748  1.3597
 1017SOL     OW 6452   8.454   6.339  10.482 -0.5082  0.0917 -0.4968
 1017SOL    HW1 6453   8.442   6.377  10.569 -0.9199 -1.6711  0.2561
 1017SOL    HW2 6454   8.465   6.415  10.424  1.1246  1.2971  1.2598
 1018SOL     OW 6455   9.410   2.467   2.617 -0.3777 -0.0763 -0.4529
 1018SOL    HW1 6456   9.327   2.444   2.658  1.4258 -3.1872  1.8743
 1018SOL    HW2 6457   9.461   2.507   2.688  0.4623  0.9767 -1.6092
 1019SOL     OW 6458   6.240   0.433   1.295 -0.2876 -0.7163  0.0540
 1019SOL    HW1 6459   6.219   0.412   1.204 -1.3703 -0.2418  0.1831
 1019SOL    HW2 6460   6.224   0.351   1.342  0.2805 -0.9645 -0.1784
 1020SOL     OW 6461   8.316   7.451   2.661 -0.0428  0.5065  0.1501
 1020SOL    HW1 6462   8.370   7.393   2.715  0.4209  0.4020 -0.4177
 1020SOL    HW2 6463   8.283   7.516   2.722  0.8432  0.6534  0.4924
 1021SOL     OW 6464   0.672   4.099   6.764  0.3028  0.0915  0.0739
 1021SOL    HW1 6465   0.617   4.177   6.772 -1.5582 -1.0916 -0.5931
 1021SOL    HW2 6466   0.700   4.080   6.854  0.7790  1.4768  0.2452
 1022SOL     OW 6467   7.997   7.840   2.055  0.6773  0.8562 -0.2163
 1022SOL    HW1 6468   7.963   7.905   2.117 -1.3051 -0.2270 -0.1062
 1022SOL    HW2 6469   8.044   7.777   2.111 -0.9829 -0.0405  0.2340
 1023SOL     OW 6470  10.148   3.121   2.977  0.8492  0.0639  0.0064
 1023SOL    HW1 6471  10.172   3.162   3.060 -1.8137  1.2268  0.3080
 1023SOL    HW2 6472  10.124   3.031   3.000  1.2299  0.0290  0.2784
 1024SOL     OW 6473   1.371   4.799   3.190  0.3807  0.0142  0.5865
 1024SOL    HW1 6474   1.301   4.737   3.169 -1.4583  2.4190 -0.9671
 1024SOL    HW2 6475   1.351   4.829   3.278  0.2226 -0.2950  0.6569
 1025SOL     OW 6476   1.252   6.179   9.125 -0.5491 -0.6001 -0.1014
 1025SOL    HW1 6477   1.256   6.087   9.097 -0.0727 -0.8455  0.7210
 1025SOL    HW2 6478   1.306   6.226   9.061 -1.7395 -0.6987 -1.2081
 1026SOL     OW 6479   7.323  10.309   4.355 -0.1500 -0.2438 -0.0580
 1026SOL    HW1 6480   7.387  10.282   4.421 -1.5890 -0.4618  1.2859
 1026SOL    HW2 6481   7.275  10.230   4.332 -0.2455 -0.0006 -0.7392
 1027SOL     OW 6482   7.038   3.785   5.590 -0.4192  0.2570 -0.4107
 1027SOL    HW1 6483   7.009   3.704   5.632  1.2752 -0.6064 -0.8176
 1027SOL    HW2 6484   6.997   3.782   5.503  0.3126 -0.6341 -0.7483
 1028SOL     OW 6485   0.825   5.293   7.789  0.1547 -0.3720  0.2296
 1028SOL    HW1 6486   0.756   5.243   7.746  0.6029 -0.6293 -0.2057
 1028SOL    HW2 6487   0.902   5.280   7.734  0.9572 -1.3607  1.5215
 1029SOL     OW 6488  10.370   4.877   8.078  0.5669 -0.0889 -0.5461
 1029SOL    HW1 6489  10.434   4.948   8.076 -0.3031  0.7184 -0.2464
 1029SOL    HW2 6490  10.345   4.870   8.170 -0.7364  0.4916 -0.8371
 1030SOL     OW 6491   9.975   4.809   5.994 -0.7584 -0.2022  0.2550
 1030SOL    HW1 6492   9.976   4.795   6.088 -1.3081 -0.0599  0.2846
 1030SOL    HW2 6493  10.028   4.737   5.958  0.2485  0.2831  0.7340
 1031SOL     OW 6494   8.567   3.157   8.125 -0.6237 -0.2671  0.4888
 1031SOL    HW1 6495   8.508   3.084   8.144 -1.3481  0.3082  0.5030
 1031SOL    HW2 6496   8.512   3.221   8.080  0.1295  0.0502  0.0069
 1032SOL     OW 6497   7.845   1.405   3.384 -0.1776  0.5386 -0.0386
 1032SOL    HW1 6498   7.865   1.329   3.439 -0.1793  0.7954  0.3145
 1032SOL    HW2 6499   7.893   1.477   3.423 -0.0773  0.6972 -0.4499
 1033SOL     OW 6500   7.248   2.306   9.896 -0.2766  0.9240  0.3509
 1033SOL    HW1 6501   7.339   2.311   9.865 -0.2463  2.5070  0.6121
 1033SOL    HW2 6502   7.245   2.368   9.969 -1.4631  0.5400  0.6411
 1034SOL     OW 6503   8.210   3.740   8.557  0.1187 -0.3044  0.6004
 1034SOL    HW1 6504   8.184   3.667   8.500  0.8667 -0.0263 -0.1177
 1034SOL    HW2 6505   8.282   3.782   8.510 -1.5185  2.0863  0.0240
 1035SOL     OW 6506   2.746  10.252   2.364  0.1562 -0.0591  0.0190
 1035SOL    HW1 6507   2.841  10.265   2.367  0.6553 -2.2162 -2.5895
 1035SOL    HW2 6508   2.730  10.177   2.421  0.1782 -0.3096 -0.3008
 1036SOL     OW 6509   0.977   0.976   7.401 -0.3710 -0.4709  0.5771
 1036SOL    HW1 6510   1.047   1.013   7.455  1.2462 -0.2028 -1.5659
 1036SOL    HW2 6511   0.924   1.051   7.374  0.5753 -0.1702 -0.5456
 1037SOL     OW 6512   5.995   6.150   4.140 -0.3573  0.1055 -0.2893
 1037SOL    HW1 6513   5.913   6.172   4.185  0.0039  0.3995  0.2503
 1037SOL    HW2 6514   6.060   6.209   4.180  0.7127 -2.0094  1.3321
 1038SOL     OW 6515   7.549   1.658   5.018  0.0367 -0.1723  1.0591
 1038SOL    HW1 6516   7.576   1.726   5.079  1.5225 -1.0329  1.4251
 1038SOL    HW2 6517   7.469   1.622   5.056 -1.1308  1.7514  0.5165
 1039SOL     OW 6518   0.879   5.981   3.933  0.0573 -0.1629  0.0112
 1039SOL    HW1 6519   0.919   5.902   3.970 -0.6320 -0.4753  0.1051
 1039SOL    HW2 6520   0.853   6.033   4.009  0.1134 -0.0454 -0.0494
 1040SOL     OW 6521   9.392  10.370   3.304  0.2931  0.1684 -0.0221
 1040SOL    HW1 6522   9.360  10.434   3.368 -0.1930  1.2530 -1.2935
 1040SOL    HW2 6523   9.315  10.322   3.277  0.8963 -2.3941  2.3055
 1041SOL     OW 6524   9.751   0.906   2.384  0.3863 -0.6834 -0.3268
 1041SOL    HW1 6525   9.803   0.930   2.307 -0.1563  2.1860  0.0952
 1041SOL    HW2 6526   9.737   0.988   2.431 -1.6636 -1.8830  1.3797
 1042SOL     OW 6527   9.706   8.299  10.553 -0.9239 -0.1510  0.5383
 1042SOL    HW1 6528   9.738   8.226  10.499  1.2541 -0.6105  2.2708
 1042SOL    HW2 6529   9.636   8.339  10.502  0.0212 -1.4544 -1.9206
 1043SOL     OW 6530   0.905   4.491  10.617  0.1456  0.3032 -0.3724
 1043SOL    HW1 6531   0.878   4.582  10.609  0.3030  0.2444 -1.8390
 1043SOL    HW2 6532   0.845   4.443  10.560 -0.6669 -0.6899  1.2446
 1044SOL     OW 6533   6.782   1.079   8.597  1.0398  0.2645  0.0916
 1044SOL    HW1 6534   6.804   1.124   8.515 -0.8021  1.5454  0.2533
 1044SOL    HW2 6535   6.733   1.002   8.570  1.2603  0.1717 -0.0463
 1045SOL     OW 6536   0.761   4.330   6.163 -0.5877 -0.1094 -0.0340
 1045SOL    HW1 6537   0.763   4.347   6.069  0.0623  0.1592  0.0280
 1045SOL    HW2 6538   0.738   4.414   6.202  0.7320  0.1852  0.1465
 1046SOL     OW 6539   3.290   4.227   7.609  0.8676  0.5575 -0.6014
 1046SOL    HW1 6540   3.304   4.254   7.700  0.5540 -2.8642  0.6029
 1046SOL    HW2 6541   3.378   4.228   7.570  0.9680  2.2906 -0.4173
 1047SOL     OW 6542   5.570   2.992   6.919 -0.0861 -0.2514 -0.1277
 1047SOL    HW1 6543   5.537   3.080   6.936  0.3616 -0.0417 -0.3256
 1047SOL    HW2 6544   5.491   2.940   6.904 -0.4459 -0.2319  1.5191
 1048SOL     OW 6545   3.601   3.422   9.852 -0.3087 -1.0164 -0.6156
 1048SOL    HW1 6546   3.687   3.414   9.811  0.9470 -0.2614  1.6804
 1048SOL    HW2 6547   3.569   3.508   9.825  0.9050 -0.1385  0.6006
 1049SOL     OW 6548   9.655   0.380   4.849 -0.5007  0.5224  0.0285
 1049SOL    HW1 6549   9.650   0.466   4.892 -2.9963 -0.0741  1.1171
 1049SOL    HW2 6550   9.661   0.400   4.756 -0.5857  1.8822  0.2932
 1050SOL     OW 6551   9.394   7.764   5.344 -0.3672  0.1394 -0.0657
 1050SOL    HW1 6552   9.471   7.748   5.289 -0.4105  1.3946 -0.5133
 1050SOL    HW2 6553   9.371   7.855   5.327 -0.6112  0.4460  1.7836
 1051SOL     OW 6554   2.718   4.525   8.774 -0.4044 -0.6308 -0.5197
 1051SOL    HW1 6555   2.801   4.520   8.728 -0.4543 -0.0283 -0.6777
 1051SOL    HW2 6556   2.738   4.569   8.857 -0.6121 -0.2205 -0.6829
 1052SOL     OW 6557   9.708   2.911   7.590  0.0943 -0.2529 -0.7086
 1052SOL    HW1 6558   9.780   2.952   7.638 -1.4938 -0.4885  2.0166
 1052SOL    HW2 6559   9.648   2.983   7.571 -0.4618 -0.5628 -0.1276
 1053SOL     OW 6560   2.624   1.825   9.993 -0.6080 -0.0673  0.0877
 1053SOL    HW1 6561   2.539   1.834  10.036 -0.7455 -1.1140  0.0524
 1053SOL    HW2 6562   2.687   1.857  10.057 -0.9157 -0.4966  0.6114
 1054SOL     OW 6563   9.488   9.847   8.042 -0.3862 -0.1731 -0.0370
 1054SOL    HW1 6564   9.457   9.833   7.953  2.2031 -3.8594 -0.5828
 1054SOL    HW2 6565   9.409   9.842   8.096 -1.8678  1.0606 -1.9281
 1055SOL     OW 6566   2.929   6.260   6.035 -0.0473 -0.0213  0.1916
 1055SOL    HW1 6567   3.016   6.251   5.997 -0.0641 -0.3355  0.2260
 1055SOL    HW2 6568   2.918   6.183   6.091 -0.9132 -0.7674 -0.9551
 1056SOL     OW 6569   0.457   7.094   2.033 -0.0667 -0.2182 -0.0169
 1056SOL    HW1 6570   0.547   7.065   2.042 -0.4223 -0.8554  1.8430
 1056SOL    HW2 6571   0.429   7.116   2.122 -1.6896  0.1553 -0.5756
 1057SOL     OW 6572   6.732   3.159   1.034 -0.3662  0.5783 -0.8257
 1057SOL    HW1 6573   6.715   3.162   0.939 -1.8192  1.1877 -0.5765
 1057SOL    HW2 6574   6.645   3.156   1.073  0.2053  1.0483  0.5224
 1058SOL     OW 6575   7.984   5.897   4.092 -1.0801 -0.2401  0.8385
 1058SOL    HW1 6576   8.005   5.980   4.050 -0.0191 -0.2835  1.2348
 1058SOL    HW2 6577   8.020   5.831   4.033 -1.7786 -0.4120  0.6025
 1059SOL     OW 6578   3.883   7.256   8.633  1.0582  0.4381  0.1376
 1059SOL    HW1 6579   3.835   7.176   8.609 -1.4717  0.8197  3.2370
 1059SOL    HW2 6580   3.836   7.326   8.588 -0.8866  0.7075  2.3998
 1060SOL     OW 6581   8.906   5.269   0.455 -0.2594 -0.5695  0.2736
 1060SOL    HW1 6582   8.957   5.200   0.411 -0.7658  0.1201 -1.4528
 1060SOL    HW2 6583   8.849   5.304   0.387 -2.5533 -0.7940  1.9679
 1061SOL     OW 6584   1.944   8.066   9.222  0.0427  0.8420  0.1585
 1061SOL    HW1 6585   1.938   7.975   9.251 -0.5731  0.5873 -0.7356
 1061SOL    HW2 6586   1.959   8.061   9.128 -0.0864  1.6735  0.0835
 1062SOL     OW 6587   5.663   7.208   0.107 -0.0735  0.1121  0.0655
 1062SOL    HW1 6588   5.629   7.287   0.149  2.3073  1.7406 -0.8350
 1062SOL    HW2 6589   5.637   7.217   0.015  0.5492  0.0690 -0.1187
 1063SOL     OW 6590   8.890   0.236   4.045  0.3566 -0.6198 -0.4487
 1063SOL    HW1 6591   8.832   0.160   4.041  1.0641 -1.1613 -0.3848
 1063SOL    HW2 6592   8.847   0.301   3.989  0.0390 -1.2645 -0.9626
 1064SOL     OW 6593   8.671   0.940   9.544  0.1869 -0.4363 -0.1105
 1064SOL    HW1 6594   8.643   1.021   9.501  1.6470 -0.1548 -0.5936
 1064SOL    HW2 6595   8.687   0.965   9.635  1.2248 -0.0244 -0.3977
 1065SOL     OW 6596   4.978   5.378   0.993 -0.2303  0.4469 -0.0517
 1065SOL    HW1 6597   5.010   5.390   1.082  1.5916  0.8478 -0.7059
 1065SOL    HW2 6598   4.956   5.285   0.988  0.3591  0.2575  0.6204
 1066SOL     OW 6599   1.513   4.770   5.468  0.6064 -0.4455  0.6061
 1066SOL    HW1 6600   1.496   4.836   5.536 -0.9380 -2.2611  2.1068
 1066SOL    HW2 6601   1.595   4.728   5.496  2.2138  1.4506 -0.9572
 1067SOL     OW 6602   7.232   7.820   4.685  0.2400 -0.3075 -0.3309
 1067SOL    HW1 6603   7.175   7.890   4.653  0.7653  1.2949  1.9552
 1067SOL    HW2 6604   7.317   7.838   4.645  0.5556  0.8603  0.7940
 1068SOL     OW 6605  10.201   7.333   2.844 -0.0436 -0.4101 -0.3153
 1068SOL    HW1 6606  10.202   7.297   2.755 -0.2506 -2.3164  0.4002
 1068SOL    HW2 6607  10.151   7.269   2.895  0.1180  0.6126  1.1910
 1069SOL     OW 6608   2.343  10.339   4.012  0.1114 -0.1588  0.2168
 1069SOL    HW1 6609   2.271  10.318   4.072 -1.1755 -1.0084 -1.5294
 1069SOL    HW2 6610   2.372  10.426   4.039 -2.3238  0.6891  0.3424
 1070SOL     OW 6611   3.532   7.778  10.038  0.2225 -0.3628 -0.1097
 1070SOL    HW1 6612   3.506   7.865  10.006 -0.2346 -0.2628  0.5011
 1070SOL    HW2 6613   3.479   7.766  10.117  0.4219 -1.1218 -0.0915
 1071SOL     OW 6614   0.348   5.662   5.125 -0.0326 -0.0201 -0.0249
 1071SOL    HW1 6615   0.381   5.725   5.060  1.2720 -0.9601 -0.3050
 1071SOL    HW2 6616   0.269   5.626   5.084  1.2821 -1.2900 -1.5541
 1072SOL     OW 6617   2.141   4.613   0.999  0.0804  0.7539 -0.2839
 1072SOL    HW1 6618   2.086   4.594   1.074 -0.0486  0.8234 -0.3604
 1072SOL    HW2 6619   2.091   4.677   0.948  0.8206  1.8634  0.3435
 1073SOL     OW 6620   0.579   4.643   9.043 -0.3824  0.1650 -0.5956
 1073SOL    HW1 6621   0.580   4.550   9.065  1.4334  0.3661  0.3156
 1073SOL    HW2 6622   0.552   4.686   9.124 -2.1036  0.4203 -1.2618
 1074SOL     OW 6623   5.799   2.779   3.246 -0.4203  0.2724  0.1532
 1074SOL    HW1 6624   5.844   2.697   3.228  0.9476  0.7447  1.2510
 1074SOL    HW2 6625   5.811   2.831   3.167  2.9514  1.2109  1.1185
 1075SOL     OW 6626  10.730   0.272   5.014  0.2784  1.0689 -0.2303
 1075SOL    HW1 6627  10.772   0.188   4.997 -1.7398  0.0222 -0.3131
 1075SOL    HW2 6628  10.654   0.273   4.956 -0.5428  2.3067  0.8139
 1076SOL     OW 6629   4.205   4.826   8.083  0.2617 -0.4908  0.4906
 1076SOL    HW1 6630   4.153   4.756   8.043  0.0058 -0.2773  0.4442
 1076SOL    HW2 6631   4.242   4.873   8.009  0.1601 -0.3734  0.5141
 1077SOL     OW 6632   0.832   5.281   6.681  0.6998  0.1802 -0.3340
 1077SOL    HW1 6633   0.907   5.223   6.697  0.8130  0.5923  0.7304
 1077SOL    HW2 6634   0.760   5.222   6.660  0.6524 -0.4376  1.3722
 1078SOL     OW 6635   5.135   9.350   3.934 -0.4587  0.1088  0.4052
 1078SOL    HW1 6636   5.094   9.268   3.906 -1.3222  0.9643 -0.9364
 1078SOL    HW2 6637   5.100   9.365   4.022  1.6927 -2.2177  1.8183
 1079SOL     OW 6638   6.138   4.241   5.296  0.6162 -0.4476 -0.2205
 1079SOL    HW1 6639   6.153   4.188   5.374 -0.8950 -0.7727 -0.1237
 1079SOL    HW2 6640   6.146   4.331   5.327 -1.7356 -0.5181  0.7602
 1080SOL     OW 6641   7.763   0.750   6.229  0.0013 -0.2198 -0.1193
 1080SOL    HW1 6642   7.737   0.693   6.301  0.0467 -2.4007 -1.7083
 1080SOL    HW2 6643   7.713   0.830   6.242 -0.8964 -1.0014  1.6451
 1081SOL     OW 6644   0.286   2.512   9.226  0.1259 -0.0759 -0.6357
 1081SOL    HW1 6645   0.285   2.602   9.193 -0.6081  0.3852  0.5615
 1081SOL    HW2 6646   0.193   2.491   9.239  0.3633 -0.1663  1.2259
 1082SOL     OW 6647   4.015  10.187   9.281  0.0850  0.7789  0.2433
 1082SOL    HW1 6648   4.001  10.160   9.371  0.4986  0.0587  0.1005
 1082SOL    HW2 6649   3.996  10.281   9.280 -2.2132  0.3665  0.5760
 1083SOL     OW 6650   1.880  10.566   9.663 -0.4875 -0.6256  0.0758
 1083SOL    HW1 6651   1.815  10.557   9.733 -0.3711 -0.7881  0.1653
 1083SOL    HW2 6652   1.964  10.563   9.709 -0.4305  1.0685  0.1392
 1084SOL     OW 6653   2.936   1.260   0.941 -0.1873 -0.1211 -0.2503
 1084SOL    HW1 6654   2.941   1.173   0.980  2.2236 -0.0728 -0.3348
 1084SOL    HW2 6655   2.968   1.319   1.010  2.3750  0.1694 -1.5947
 1085SOL     OW 6656   4.692  10.827   9.107 -0.3002 -0.0276 -0.3126
 1085SOL    HW1 6657   4.640  10.903   9.133  0.8016 -0.0751  2.3739
 1085SOL    HW2 6658   4.639  10.751   9.135 -0.0887 -0.1525 -0.2499
 1086SOL     OW 6659   8.594   0.794  10.837 -0.3976 -0.1141 -0.0970
 1086SOL    HW1 6660   8.581   0.842  10.919  1.0615 -2.0016  1.3030
 1086SOL    HW2 6661   8.688   0.776  10.833 -0.5609 -0.8309 -1.7515
 1087SOL     OW 6662   4.485   6.553  10.113 -0.1102 -0.0895  0.2246
 1087SOL    HW1 6663   4.487   6.462  10.145  0.5868 -0.0695  0.2654
 1087SOL    HW2 6664   4.413   6.555  10.050  0.5950 -0.9699 -0.6433
 1088SOL     OW 6665   7.277   1.180   3.192  0.4161 -0.4319  0.2554
 1088SOL    HW1 6666   7.187   1.209   3.205 -0.4495 -2.4204 -0.9121
 1088SOL    HW2 6667   7.315   1.182   3.280 -1.0182 -0.3219  0.9039
 1089SOL     OW 6668   6.399   6.423   2.934  0.2584 -0.2724  0.2388
 1089SOL    HW1 6669   6.362   6.500   2.890 -0.6903 -1.0214 -0.3384
 1089SOL    HW2 6670   6.370   6.431   3.025 -0.0540 -0.0696  0.1250
 1090SOL     OW 6671   8.235   1.466   2.434 -0.0733  0.2518 -0.2216
 1090SOL    HW1 6672   8.147   1.455   2.470  0.5512 -2.6175  0.6399
 1090SOL    HW2 6673   8.233   1.553   2.393 -2.3850  1.5052  2.2651
 1091SOL     OW 6674   8.261  10.150   3.674 -0.2009 -0.1041  0.2358
 1091SOL    HW1 6675   8.200  10.100   3.620  1.1252 -1.5224  0.0021
 1091SOL    HW2 6676   8.343  10.101   3.671  0.4062  0.6715  2.1705
 1092SOL     OW 6677   9.639   6.521   1.981  0.1150 -0.3601 -0.1078
 1092SOL    HW1 6678   9.582   6.483   1.913  0.0044 -1.0008  0.3351
 1092SOL    HW2 6679   9.647   6.452   2.047  0.2644  0.2382  0.5102
 1093SOL     OW 6680   2.667   8.924   3.607 -0.4818 -0.4747 -0.0580
 1093SOL    HW1 6681   2.710   8.918   3.692 -0.7453 -0.6412  0.0658
 1093SOL    HW2 6682   2.667   9.017   3.586  0.6596 -0.5414 -0.4339
 1094SOL     OW 6683   0.573   3.502   9.537 -0.0105  0.7282  0.1593
 1094SOL    HW1 6684   0.501   3.467   9.589  0.4970  0.2043  0.5151
 1094SOL    HW2 6685   0.591   3.588   9.576 -0.5226  0.9220 -0.0152
 1095SOL     OW 6686   6.255   6.587   8.799  0.4227  0.1391  0.4100
 1095SOL    HW1 6687   6.333   6.561   8.849  0.3133 -1.6136 -0.2720
 1095SOL    HW2 6688   6.181   6.564   8.855  0.3483  0.4631  0.4504
 1096SOL     OW 6689   9.892   5.692   3.745  0.2111  0.1553  0.0983
 1096SOL    HW1 6690   9.890   5.684   3.841  0.2878  0.8072  0.1566
 1096SOL    HW2 6691   9.916   5.604   3.715  0.5837  0.0415  0.6964
 1097SOL     OW 6692   8.881   6.785   1.644  0.2543  0.3770  0.0139
 1097SOL    HW1 6693   8.933   6.711   1.678 -0.6729  0.0202  0.7233
 1097SOL    HW2 6694   8.809   6.793   1.707 -0.2350  1.2168 -0.6443
 1098SOL     OW 6695   0.621   2.795   5.134  0.2670 -0.0815 -0.7922
 1098SOL    HW1 6696   0.604   2.740   5.210  1.4926 -1.8524 -1.7237
 1098SOL    HW2 6697   0.548   2.857   5.132  1.7011  2.1860  3.5735
 1099SOL     OW 6698   0.537   9.914   6.472 -0.1762  0.4598 -0.4729
 1099SOL    HW1 6699   0.453   9.940   6.434 -0.8033  0.9815  1.2068
 1099SOL    HW2 6700   0.518   9.834   6.520  0.8717 -0.8799 -2.1661
 1100SOL     OW 6701   2.210   1.755   8.831  0.2788 -0.1480  0.1368
 1100SOL    HW1 6702   2.295   1.788   8.803 -0.1658  0.2655 -0.7759
 1100SOL    HW2 6703   2.147   1.817   8.794 -0.4968 -1.2545 -0.4377
 1101SOL     OW 6704   4.834   9.226   5.519  0.4878  0.3194 -0.4016
 1101SOL    HW1 6705   4.787   9.152   5.556  1.3929 -0.6060 -1.0527
 1101SOL    HW2 6706   4.898   9.251   5.586 -0.8060  1.5203  0.4460
 1102SOL     OW 6707   2.201   9.793   0.130 -0.7483  0.2799  0.2083
 1102SOL    HW1 6708   2.263   9.822   0.063 -0.1241  0.2345  0.7597
 1102SOL    HW2 6709   2.243   9.716   0.170 -1.5116 -0.2280  0.0607
 1103SOL     OW 6710   0.959   4.611   1.416 -0.0734 -0.0516 -0.4471
 1103SOL    HW1 6711   0.883   4.555   1.430 -0.2416  0.2622 -0.0849
 1103SOL    HW2 6712   0.932   4.697   1.449  1.0824 -0.3737  1.4568
 1104SOL     OW 6713   1.305   6.214   8.164  0.6902 -0.3377  0.4425
 1104SOL    HW1 6714   1.303   6.303   8.129 -1.0542 -0.1104  1.0099
 1104SOL    HW2 6715   1.389   6.208   8.209  1.4995  0.4915 -0.9059
 1105SOL     OW 6716   7.761   3.138   8.945  0.0757 -0.7034 -0.7659
 1105SOL    HW1 6717   7.828   3.206   8.934  0.2176 -0.7340 -0.1340
 1105SOL    HW2 6718   7.689   3.166   8.889  0.6077 -0.6590 -1.4435
 1106SOL     OW 6719   0.095   2.908   8.435  0.2823  0.3568  0.0402
 1106SOL    HW1 6720   0.075   2.833   8.491  0.4461 -0.9403 -1.5557
 1106SOL    HW2 6721   0.086   2.874   8.346  1.0803  2.0545 -0.7270
 1107SOL     OW 6722  10.035  10.518   2.841  0.5275 -0.3061  0.1761
 1107SOL    HW1 6723  10.106  10.576   2.812 -1.2521  3.1669  2.1768
 1107SOL    HW2 6724  10.068  10.478   2.921  0.9612 -0.3295 -0.0108
 1108SOL     OW 6725   3.739   0.600   0.541  0.2592  0.0326 -0.0495
 1108SOL    HW1 6726   3.755   0.685   0.500  0.1378  0.7376  1.3311
 1108SOL    HW2 6727   3.812   0.588   0.602  0.8126 -1.3192 -0.9157
 1109SOL     OW 6728   9.039   6.212   0.149 -0.3390 -0.2361  0.7683
 1109SOL    HW1 6729   9.133   6.208   0.128 -0.5713  0.0701 -0.3962
 1109SOL    HW2 6730   9.023   6.133   0.200  0.2536 -1.1269 -0.3688
 1110SOL     OW 6731   2.139   6.590   1.840 -0.4506 -0.0156 -0.5102
 1110SOL    HW1 6732   2.092   6.672   1.827 -1.1305 -0.3618 -0.2943
 1110SOL    HW2 6733   2.206   6.610   1.906 -1.2596  0.1292  0.2889
 1111SOL     OW 6734   2.099  10.193   7.997 -0.2495 -1.0486  0.0875
 1111SOL    HW1 6735   2.042  10.120   8.020 -1.6652 -0.2772 -0.7958
 1111SOL    HW2 6736   2.090  10.254   8.070 -1.5280 -0.4087 -0.5689
 1112SOL     OW 6737   1.406   2.256   6.914  0.5080  0.5177 -0.3313
 1112SOL    HW1 6738   1.397   2.342   6.955 -1.4464 -0.5553  1.7458
 1112SOL    HW2 6739   1.322   2.243   6.870  0.3876 -0.7065  0.2306
 1113SOL     OW 6740   3.616   0.796   9.742  0.6105 -0.9697  0.4233
 1113SOL    HW1 6741   3.661   0.714   9.762  0.4050 -1.0391  0.6043
 1113SOL    HW2 6742   3.583   0.785   9.653 -0.1213 -1.4023  0.7360
 1114SOL     OW 6743   8.374   4.039  10.432  1.1241 -0.4326 -0.2400
 1114SOL    HW1 6744   8.317   3.972  10.468  2.5627 -2.6533 -1.8182
 1114SOL    HW2 6745   8.418   3.996  10.358  2.4982  2.1124 -1.0319
 1115SOL     OW 6746   9.517   5.516   5.052 -0.3779  1.2784  0.1485
 1115SOL    HW1 6747   9.492   5.541   4.963 -1.0673  0.7949  0.1998
 1115SOL    HW2 6748   9.470   5.579   5.108  0.2168  1.7116  0.1705
 1116SOL     OW 6749   3.460   1.864  10.331 -0.6415 -0.0624  0.3787
 1116SOL    HW1 6750   3.430   1.955  10.322 -0.7520 -0.1586 -0.3056
 1116SOL    HW2 6751   3.407   1.829  10.403 -0.7401  0.3584  0.5148
 1117SOL     OW 6752   4.644  10.025   2.530 -0.1987 -0.3907  0.4756
 1117SOL    HW1 6753   4.627  10.119   2.522 -0.6766 -0.3406  1.8139
 1117SOL    HW2 6754   4.703  10.018   2.605  0.8713 -1.0787 -0.4004
 1118SOL     OW 6755   2.029   9.921   0.411  0.2595  0.0715  0.1252
 1118SOL    HW1 6756   2.018   9.979   0.487  0.0383  1.1496 -0.7067
 1118SOL    HW2 6757   2.116   9.882   0.423  0.4717  0.6852  0.6313
 1119SOL     OW 6758   3.636   3.286   6.878 -0.4707 -0.5567 -0.6107
 1119SOL    HW1 6759   3.668   3.376   6.877  0.0618 -0.6734  1.5654
 1119SOL    HW2 6760   3.714   3.233   6.863 -0.3010 -0.7195  0.7720
 1120SOL     OW 6761   1.382   3.213   9.973  0.0137  0.0477 -0.3813
 1120SOL    HW1 6762   1.404   3.240  10.062 -1.1411 -1.9242  0.5842
 1120SOL    HW2 6763   1.423   3.127   9.964  0.1995  0.2647 -1.8167
 1121SOL     OW 6764   4.249   3.769   1.630  0.1009  0.0843 -0.4062
 1121SOL    HW1 6765   4.243   3.722   1.547 -2.6667 -0.2010 -0.1379
 1121SOL    HW2 6766   4.197   3.848   1.616  0.3547  0.4722  0.7719
 1122SOL     OW 6767   1.079   5.841   9.988 -0.3822 -0.3425  0.5342
 1122SOL    HW1 6768   0.984   5.831   9.982 -0.4016  0.6288 -3.3724
 1122SOL    HW2 6769   1.092   5.935  10.003 -0.0245 -0.3860  0.5062
 1123SOL     OW 6770   5.585   3.580   1.899 -0.2518  0.1853  0.1581
 1123SOL    HW1 6771   5.650   3.554   1.834  0.0930  0.4361  0.3973
 1123SOL    HW2 6772   5.609   3.531   1.978 -1.3182 -0.9484 -0.1990
 1124SOL     OW 6773   0.365   9.833   5.085 -0.0782 -0.4463 -0.0873
 1124SOL    HW1 6774   0.325   9.758   5.130 -0.8295 -0.1443 -0.2436
 1124SOL    HW2 6775   0.344   9.908   5.141  0.2226 -0.2728 -0.2047
 1125SOL     OW 6776   8.521   0.625   2.974 -0.2426  0.0231  0.3722
 1125SOL    HW1 6777   8.490   0.544   2.933  1.1794  0.1311 -0.9926
 1125SOL    HW2 6778   8.580   0.595   3.044  2.9846 -0.2210 -2.2583
 1126SOL     OW 6779   8.288   3.194   9.431  0.6076 -0.0036  0.6037
 1126SOL    HW1 6780   8.363   3.146   9.466  1.6670 -0.2010 -1.7434
 1126SOL    HW2 6781   8.288   3.174   9.337 -0.8879  1.9655  0.1095
 1127SOL     OW 6782  10.389   3.171   0.205 -0.1639 -0.0716 -0.1366
 1127SOL    HW1 6783  10.476   3.204   0.181  0.2560 -1.4649 -0.6536
 1127SOL    HW2 6784  10.380   3.090   0.154 -1.2288 -0.6179  0.8833
 1128SOL     OW 6785   5.844   2.623   2.443  0.0739 -0.0507 -0.2686
 1128SOL    HW1 6786   5.915   2.565   2.415  0.2834 -0.2936  0.7166
 1128SOL    HW2 6787   5.889   2.698   2.483 -0.1380 -1.4309  2.8552
 1129SOL     OW 6788   9.012   7.002   8.072 -0.4120  0.4599 -0.3771
 1129SOL    HW1 6789   8.955   7.016   8.148 -2.2757  2.3412 -2.0138
 1129SOL    HW2 6790   8.970   7.050   8.001  2.6123  0.9221 -2.0150
 1130SOL     OW 6791   7.255   9.424   1.754 -0.0272 -0.4116 -0.3379
 1130SOL    HW1 6792   7.173   9.464   1.784 -0.1776 -0.7151 -0.3418
 1130SOL    HW2 6793   7.231   9.335   1.730  0.1698 -0.2924 -0.9910
 1131SOL     OW 6794  10.610   0.404   5.888  0.3843  0.3164 -0.9899
 1131SOL    HW1 6795  10.661   0.325   5.908  2.0762  1.5333 -0.2183
 1131SOL    HW2 6796  10.675   0.474   5.885 -1.0188  1.6435 -2.0220
 1132SOL     OW 6797   8.151   4.786   8.794  0.0126  0.9496  0.3866
 1132SOL    HW1 6798   8.096   4.754   8.865  0.4369 -2.4241 -0.6489
 1132SOL    HW2 6799   8.092   4.838   8.740 -0.8460  1.6909  1.9828
 1133SOL     OW 6800   4.989  10.837   4.328 -0.4054 -0.0998  0.3864
 1133SOL    HW1 6801   5.003  10.860   4.236 -0.0575  1.0668  0.7279
 1133SOL    HW2 6802   4.913  10.779   4.326  1.1134 -2.1913 -0.9006
 1134SOL     OW 6803   3.165   5.630   5.565  1.0159 -0.2027 -0.2100
 1134SOL    HW1 6804   3.089   5.595   5.517  1.5154 -0.1094 -1.0797
 1134SOL    HW2 6805   3.142   5.618   5.658 -0.1122 -0.0701 -0.4599
 1135SOL     OW 6806   6.672   0.040   4.756  0.3528 -0.6607 -0.5803
 1135SOL    HW1 6807   6.719  -0.043   4.757  0.7803 -0.4608  1.6231
 1135SOL    HW2 6808   6.740   0.105   4.737  0.5704 -0.5933  0.3543
 1136SOL     OW 6809   6.126   3.307   4.270 -0.0128  0.0753 -0.0870
 1136SOL    HW1 6810   6.097   3.390   4.308  0.2195  0.2354 -0.2618
 1136SOL    HW2 6811   6.193   3.276   4.331 -2.1767 -1.5002  1.6933
 1137SOL     OW 6812   2.467   9.422   1.882  0.7785 -0.3834  0.2424
 1137SOL    HW1 6813   2.449   9.516   1.890 -2.8210 -0.8838 -0.0443
 1137SOL    HW2 6814   2.494   9.411   1.790 -0.1810  0.2377 -0.1325
 1138SOL     OW 6815   8.644   8.703   2.804  0.7802  0.3810 -0.1166
 1138SOL    HW1 6816   8.551   8.721   2.821  0.7265  0.7087 -0.7552
 1138SOL    HW2 6817   8.681   8.688   2.891 -0.0852 -0.8031  0.0893
 1139SOL     OW 6818   3.150   0.232   0.324  0.2601  0.3604  0.3499
 1139SOL    HW1 6819   3.170   0.261   0.413  0.2915  0.4229  0.3224
 1139SOL    HW2 6820   3.101   0.304   0.286 -0.4247  0.0164  0.5687
 1140SOL     OW 6821   3.568   9.978   8.831  0.2434  0.0676 -0.0924
 1140SOL    HW1 6822   3.600   9.888   8.822  0.2236 -0.1695  1.8367
 1140SOL    HW2 6823   3.647  10.032   8.826  0.9276 -0.4087  3.0021
 1141SOL     OW 6824   6.925   7.363  10.300  0.1452  0.2355 -0.3126
 1141SOL    HW1 6825   6.998   7.383  10.241 -0.1688 -0.4108 -0.9389
 1141SOL    HW2 6826   6.848   7.361  10.243 -0.3221  0.6264  0.2955
 1142SOL     OW 6827   3.276   7.413  10.304  0.0719  0.4648 -0.3590
 1142SOL    HW1 6828   3.192   7.366  10.302  0.2966 -0.0534  1.3225
 1142SOL    HW2 6829   3.342   7.345  10.292  0.3175  0.6604 -0.1142
 1143SOL     OW 6830  10.228  10.660   7.430 -0.4731  0.0466 -0.0618
 1143SOL    HW1 6831  10.285  10.611   7.372  0.4907  1.9574 -0.8228
 1143SOL    HW2 6832  10.141  10.623   7.416 -0.5160  1.1281 -3.6196
 1144SOL     OW 6833   1.935   3.927   7.201  0.4536  0.6072 -0.4078
 1144SOL    HW1 6834   2.030   3.932   7.210  0.3145  0.9280  1.0885
 1144SOL    HW2 6835   1.921   3.896   7.111  2.0656 -2.8608  0.3681
 1145SOL     OW 6836   6.950   5.894   0.257  0.2086 -0.3373 -0.0744
 1145SOL    HW1 6837   6.868   5.895   0.206  0.3312  1.1079 -0.2981
 1145SOL    HW2 6838   6.949   5.810   0.302 -0.8898 -0.8007 -0.9036
 1146SOL     OW 6839   6.068   4.523   6.807 -0.0957 -0.1582  0.2821
 1146SOL    HW1 6840   6.079   4.434   6.774  0.4718  0.0709 -0.1597
 1146SOL    HW2 6841   6.150   4.541   6.854 -0.4400 -0.0713  0.8636
 1147SOL     OW 6842   8.991   9.865   4.919  0.1371  0.1995 -0.0052
 1147SOL    HW1 6843   9.050   9.791   4.904 -0.2681 -0.0410 -0.4486
 1147SOL    HW2 6844   9.049   9.937   4.942  0.7689  0.3521 -1.8502
 1148SOL     OW 6845   8.579   2.645   9.159  0.7094  0.4972 -0.5460
 1148SOL    HW1 6846   8.628   2.568   9.130  2.7481  1.2356  0.7874
 1148SOL    HW2 6847   8.492   2.610   9.180  0.6230 -0.8812 -2.8046
 1149SOL     OW 6848   3.696  10.408   7.512  0.4242 -0.1458  0.4815
 1149SOL    HW1 6849   3.646  10.464   7.571  1.1734  0.9289  0.1131
 1149SOL    HW2 6850   3.671  10.436   7.424  3.2320  1.9569  0.2231
 1150SOL     OW 6851  10.705  10.915   4.623  0.2667 -0.0382  0.5029
 1150SOL    HW1 6852  10.797  10.923   4.598  0.1920  2.6837  0.7937
 1150SOL    HW2 6853  10.657  10.942   4.544 -0.3507 -1.7780  0.2367
 1151SOL     OW 6854   1.272   2.572   6.448 -0.0660 -0.1280 -0.4474
 1151SOL    HW1 6855   1.215   2.648   6.432  1.5284  1.1903 -0.0821
 1151SOL    HW2 6856   1.330   2.569   6.372  0.0471 -0.8542 -0.3409
 1152SOL     OW 6857   8.590   1.176   8.668  0.3833  0.1803 -0.2062
 1152SOL    HW1 6858   8.611   1.189   8.760 -0.3923  1.3630 -0.1731
 1152SOL    HW2 6859   8.514   1.118   8.668 -0.1817  0.9002 -0.0393
 1153SOL     OW 6860   6.086   4.908   5.373 -0.1801  0.1717  0.5188
 1153SOL    HW1 6861   6.146   4.941   5.306 -0.9187  1.7607  0.6050
 1153SOL    HW2 6862   6.016   4.865   5.324  0.1366 -0.1555  0.3491
 1154SOL     OW 6863   7.075   0.898   1.741  0.1212 -0.6777 -0.0245
 1154SOL    HW1 6864   7.073   0.981   1.694  1.1437 -0.7664 -0.2373
 1154SOL    HW2 6865   7.048   0.921   1.830  0.2179 -0.1539 -0.1268
 1155SOL     OW 6866   3.029   7.541   4.263 -0.3051  0.1473  0.0723
 1155SOL    HW1 6867   3.098   7.493   4.219 -0.5250  1.3009 -1.6334
 1155SOL    HW2 6868   3.069   7.573   4.344  1.1196  0.6781 -0.8192
 1156SOL     OW 6869   8.673   1.462   8.479  0.1887 -0.5958 -0.2580
 1156SOL    HW1 6870   8.589   1.506   8.464 -0.7772 -1.7654  1.3705
 1156SOL    HW2 6871   8.709   1.450   8.391 -0.7543  1.0340 -0.9065
 1157SOL     OW 6872   3.569   2.373  10.199  0.4239 -0.1015 -0.3481
 1157SOL    HW1 6873   3.627   2.448  10.193  0.2054  0.1533  0.6289
 1157SOL    HW2 6874   3.482   2.410  10.212  0.6102 -0.4886  2.7268
 1158SOL     OW 6875   2.690   6.463   4.936  0.3602 -0.3078 -0.2388
 1158SOL    HW1 6876   2.620   6.402   4.959  0.2565 -0.7472 -1.5886
 1158SOL    HW2 6877   2.767   6.407   4.924  0.3401 -0.1489 -1.1752
 1159SOL     OW 6878   9.399   2.858   1.715 -0.4685  0.2953 -0.4476
 1159SOL    HW1 6879   9.339   2.900   1.654 -0.1238  0.6036 -0.5765
 1159SOL    HW2 6880   9.409   2.769   1.681  0.4482  0.7302 -1.3851
 1160SOL     OW 6881   6.820   9.773   5.950  0.3072 -0.4354  0.0037
 1160SOL    HW1 6882   6.778   9.817   6.023  0.2429  0.3469 -0.4833
 1160SOL    HW2 6883   6.748   9.739   5.897  0.3080 -0.1070 -0.2189
 1161SOL     OW 6884   2.923   5.762   4.309 -0.0481 -0.4318  0.2471
 1161SOL    HW1 6885   2.940   5.708   4.386 -0.8935 -1.2492 -0.1165
 1161SOL    HW2 6886   2.841   5.728   4.273 -0.1921  0.5890 -0.4491
 1162SOL     OW 6887   8.726   4.396   1.507  0.0281 -0.0015  1.0065
 1162SOL    HW1 6888   8.743   4.440   1.590 -1.1190  2.6285 -0.0497
 1162SOL    HW2 6889   8.812   4.389   1.466  0.3142  0.7054  1.4669
 1163SOL     OW 6890   1.594   0.001   3.275  0.0587  0.1783 -1.0455
 1163SOL    HW1 6891   1.623  -0.032   3.360 -2.0609 -0.1933 -0.4072
 1163SOL    HW2 6892   1.568  -0.078   3.227 -0.6823  0.5503 -1.2586
 1164SOL     OW 6893  10.876   6.098   0.014  0.1306  0.0607 -0.2506
 1164SOL    HW1 6894  10.910   6.029  -0.043 -1.9918 -1.0221 -0.2955
 1164SOL    HW2 6895  10.815   6.147  -0.041 -0.9986 -0.2215  0.6979
 1165SOL     OW 6896   4.971   7.758   4.374  0.3854 -0.0928  0.0131
 1165SOL    HW1 6897   5.022   7.784   4.450 -0.7422  0.3270  0.6533
 1165SOL    HW2 6898   4.895   7.817   4.375 -0.0973 -0.6807 -0.9108
 1166SOL     OW 6899   6.734   2.452   6.231 -0.6219 -0.0725 -0.1351
 1166SOL    HW1 6900   6.768   2.436   6.319 -3.5132  1.0807  1.3187
 1166SOL    HW2 6901   6.698   2.368   6.204 -0.9415 -0.1098  0.3865
 1167SOL     OW 6902   5.025   5.837   8.576 -0.2289 -0.7836 -0.0615
 1167SOL    HW1 6903   4.958   5.810   8.639 -0.3578 -1.0249 -0.2928
 1167SOL    HW2 6904   5.012   5.931   8.566 -0.1299 -0.7244  0.3594
 1168SOL     OW 6905   2.222   1.854   5.733 -0.1278 -0.7388 -0.0277
 1168SOL    HW1 6906   2.210   1.789   5.664  1.0817 -1.0934  0.0779
 1168SOL    HW2 6907   2.285   1.917   5.696  0.2447 -0.7311  0.6088
 1169SOL     OW 6908   9.248   5.811   9.253 -0.3347  0.1805  0.9293
 1169SOL    HW1 6909   9.319   5.842   9.197  0.1411 -0.4058  1.2008
 1169SOL    HW2 6910   9.170   5.857   9.220  0.0502  0.3409  0.2187
 1170SOL     OW 6911   1.511   7.025   1.040  0.1365 -0.7311  0.0198
 1170SOL    HW1 6912   1.470   7.024   0.953  1.0250  0.8458 -0.4521
 1170SOL    HW2 6913   1.439   7.009   1.101 -0.5809 -1.3862 -0.9730
 1171SOL     OW 6914   0.668   4.750   1.115 -0.0331 -0.3251 -0.2842
 1171SOL    HW1 6915   0.645   4.666   1.074 -0.2927 -0.7482  0.6883
 1171SOL    HW2 6916   0.724   4.793   1.051 -1.7199 -0.2405 -1.7609
 1172SOL     OW 6917   3.510  10.146   2.717 -0.3892 -0.4780 -0.1693
 1172SOL    HW1 6918   3.577  10.211   2.736 -0.6239  0.3420 -2.0079
 1172SOL    HW2 6919   3.433  10.176   2.765 -0.7048  1.0318 -1.5527
 1173SOL     OW 6920   1.930   0.411   3.473 -0.3344 -0.0958 -0.2827
 1173SOL    HW1 6921   1.861   0.452   3.421  0.1430  0.3067 -0.6096
 1173SOL    HW2 6922   2.012   0.446   3.437  0.0565 -0.7778 -0.0880
 1174SOL     OW 6923  10.672   5.910   7.908 -0.0290 -0.5235  0.1109
 1174SOL    HW1 6924  10.709   5.831   7.947  0.8355  0.6329  1.7712
 1174SOL    HW2 6925  10.610   5.942   7.973  1.4233  1.4474  0.6199
 1175SOL     OW 6926   1.268   5.978   0.208  0.0407  0.0929 -0.0718
 1175SOL    HW1 6927   1.349   6.013   0.172  0.2574 -1.1236 -0.8143
 1175SOL    HW2 6928   1.240   5.912   0.145 -2.0783  1.1680 -0.3495
 1176SOL     OW 6929   5.099   6.601   1.360 -0.2062  0.0654 -0.0631
 1176SOL    HW1 6930   5.100   6.695   1.340 -0.3187  0.0894  0.0386
 1176SOL    HW2 6931   5.109   6.598   1.455 -3.0091  0.0995  0.3348
 1177SOL     OW 6932   5.046  10.499   0.940  0.6083 -0.6043 -0.2451
 1177SOL    HW1 6933   5.008  10.480   0.854  0.5016  0.7923 -0.5172
 1177SOL    HW2 6934   5.111  10.430   0.953 -1.0815 -2.2952 -0.3449
 1178SOL     OW 6935   1.112   5.540   3.298 -0.2313  0.0924 -0.0807
 1178SOL    HW1 6936   1.165   5.476   3.346  0.4533 -0.2701 -1.2795
 1178SOL    HW2 6937   1.039   5.488   3.262 -0.5385  0.2962  0.2340
 1179SOL     OW 6938   1.825   1.456   5.016  0.0255  0.1088  0.3506
 1179SOL    HW1 6939   1.736   1.493   5.020  0.8088  2.0293  1.2689
 1179SOL    HW2 6940   1.841   1.443   4.922 -0.9377  0.4834  0.1158
 1180SOL     OW 6941   1.949   9.856   3.932 -0.0394  0.4789 -0.2495
 1180SOL    HW1 6942   1.892   9.808   3.872 -1.1303 -0.5843  1.5376
 1180SOL    HW2 6943   1.956   9.943   3.894 -2.0061  0.3219 -1.0862
 1181SOL     OW 6944   7.070   8.163   4.297 -0.0925  0.7790 -0.2569
 1181SOL    HW1 6945   7.155   8.171   4.340 -0.3899 -0.0750  0.5239
 1181SOL    HW2 6946   7.011   8.217   4.349 -0.5110 -0.4648  0.6180
 1182SOL     OW 6947   1.060   2.786   4.506  0.4560  0.2248  0.1040
 1182SOL    HW1 6948   1.067   2.741   4.422  1.4151  0.1110  0.2328
 1182SOL    HW2 6949   1.084   2.720   4.571 -0.8677  0.1313  0.5369
 1183SOL     OW 6950   4.046  10.517   6.393 -0.7122 -0.7988 -0.0735
 1183SOL    HW1 6951   3.987  10.592   6.385 -0.1032 -0.3384 -0.2947
 1183SOL    HW2 6952   4.025  10.479   6.479 -2.2104 -1.4115 -0.6800
 1184SOL     OW 6953   5.142  10.302   6.710 -0.5444 -0.0535  0.0596
 1184SOL    HW1 6954   5.125  10.363   6.782 -0.9052  0.9859 -0.8792
 1184SOL    HW2 6955   5.194  10.353   6.647  1.2340 -1.4582  0.3150
 1185SOL     OW 6956   9.727  10.701   5.405  0.2742  0.5381 -0.2130
 1185SOL    HW1 6957   9.743  10.621   5.455  2.2731  0.6400 -0.5775
 1185SOL    HW2 6958   9.813  10.723   5.368 -0.2022  2.8936 -0.0548
 1186SOL     OW 6959   2.096   6.070   1.950 -0.4117 -0.8866  0.1699
 1186SOL    HW1 6960   2.136   6.148   1.911 -2.4436 -0.1053 -0.4935
 1186SOL    HW2 6961   2.168   6.008   1.958  1.1060  0.7611 -0.0493
 1187SOL     OW 6962   2.744   4.431   3.490 -0.3426 -0.6032  0.1658
 1187SOL    HW1 6963   2.663   4.437   3.540 -0.4738 -1.0987  0.0181
 1187SOL    HW2 6964   2.726   4.366   3.422 -1.1023  1.9630 -2.3085
 1188SOL     OW 6965   8.531   9.122  10.053 -0.3518  0.5274 -0.1968
 1188SOL    HW1 6966   8.471   9.051  10.032 -0.4072  0.2183  0.9161
 1188SOL    HW2 6967   8.613   9.100  10.008 -0.4388 -0.1268 -0.0382
 1189SOL     OW 6968   8.522   9.138   3.361 -0.2857 -0.1137 -0.1221
 1189SOL    HW1 6969   8.471   9.211   3.325 -1.7549 -0.7387  0.6163
 1189SOL    HW2 6970   8.567   9.175   3.437 -0.0725  0.3048 -0.4469
 1190SOL     OW 6971   1.028  10.529   0.678 -0.2921  0.7736  1.0420
 1190SOL    HW1 6972   1.005  10.619   0.702 -1.6338  0.5769  0.5761
 1190SOL    HW2 6973   1.064  10.536   0.589 -1.7357  0.6995  0.4318
 1191SOL     OW 6974  10.175   9.142   5.404  0.3115 -0.1833 -0.3533
 1191SOL    HW1 6975  10.164   9.074   5.338  2.7648  0.0463 -1.1051
 1191SOL    HW2 6976  10.192   9.094   5.485 -0.5996 -0.4597 -0.3215
 1192SOL     OW 6977   7.646   1.492   6.628  0.0664 -0.2223  0.0645
 1192SOL    HW1 6978   7.659   1.397   6.634  2.0025  0.0680  1.6577
 1192SOL    HW2 6979   7.707   1.520   6.559  1.1283  0.0750  1.0912
 1193SOL     OW 6980   0.389   0.506   0.690  0.6130 -0.4306 -0.3689
 1193SOL    HW1 6981   0.423   0.417   0.695 -0.1002 -0.6565  1.0352
 1193SOL    HW2 6982   0.447   0.557   0.746 -1.1315 -0.7843  1.8928
 1194SOL     OW 6983   5.796   2.389   1.000  0.0678 -0.3262  0.1204
 1194SOL    HW1 6984   5.859   2.396   1.072 -0.4521 -0.4371  0.5959
 1194SOL    HW2 6985   5.735   2.462   1.015  0.6645  0.4124 -0.9212
 1195SOL     OW 6986   1.563   8.797   6.605  0.1866  0.2662  0.0810
 1195SOL    HW1 6987   1.522   8.883   6.600  0.1938  0.2793  0.2334
 1195SOL    HW2 6988   1.578   8.772   6.513 -2.0589 -0.6645 -0.0939
 1196SOL     OW 6989   3.369   8.493  10.534 -0.2241 -0.2501  0.1847
 1196SOL    HW1 6990   3.446   8.537  10.570  0.8733 -0.2817 -1.9815
 1196SOL    HW2 6991   3.385   8.489  10.440 -3.3242  0.5660 -0.4806
 1197SOL     OW 6992   6.037   9.928   6.548 -0.3428  0.1705 -0.0844
 1197SOL    HW1 6993   6.107   9.933   6.612  1.1042 -2.4571 -1.2821
 1197SOL    HW2 6994   6.012   9.835   6.546 -1.8607  0.5336 -1.7541
 1198SOL     OW 6995   1.335   2.894   3.483  0.0116 -0.2592  0.1447
 1198SOL    HW1 6996   1.290   2.979   3.481  0.9802  0.3561  1.8195
 1198SOL    HW2 6997   1.275   2.836   3.529 -1.1348 -0.8542 -1.9640
 1199SOL     OW 6998   2.448   2.346   4.784  0.4442  0.6315 -0.0304
 1199SOL    HW1 6999   2.482   2.262   4.755  1.0597  0.9514 -0.2450
 1199SOL    HW2 7000   2.384   2.371   4.718  0.7872  0.6733 -0.3464
 1200SOL     OW 7001   4.589   1.368   6.386  0.5554 -0.0272 -0.1570
 1200SOL    HW1 7002   4.637   1.286   6.378  0.4445 -0.2426  1.1265
 1200SOL    HW2 7003   4.657   1.434   6.402  0.7513  0.3556 -2.2775
 1201SOL     OW 7004   4.530   8.652   1.212 -0.2842 -0.3305 -0.3329
 1201SOL    HW1 7005   4.504   8.684   1.299  0.0782  1.3340 -0.8121
 1201SOL    HW2 7006   4.452   8.608   1.178 -0.3442 -1.2669  0.9357
 1202SOL     OW 7007   9.293   3.873   0.326  0.3082 -0.6301 -0.1635
 1202SOL    HW1 7008   9.239   3.894   0.250 -0.3906 -1.5104  0.0702
 1202SOL    HW2 7009   9.248   3.800   0.368  1.5904 -1.2896  0.1372
 1203SOL     OW 7010   2.155   8.784   8.205  0.4548  0.5257  0.6790
 1203SOL    HW1 7011   2.250   8.777   8.210  0.5702  0.2894 -1.1229
 1203SOL    HW2 7012   2.124   8.693   8.211  0.3722  0.5656  0.8521
 1204SOL     OW 7013   0.605   0.932   7.446 -0.0324 -0.0738  0.2838
 1204SOL    HW1 7014   0.557   0.968   7.372  0.4697  1.3974  0.6484
 1204SOL    HW2 7015   0.629   0.844   7.418  1.5057  0.9688 -1.9768
 1205SOL     OW 7016   7.482  10.684   1.298 -0.4517 -0.1015  0.6680
 1205SOL    HW1 7017   7.506  10.776   1.292 -3.1949  0.6303 -0.7472
 1205SOL    HW2 7018   7.391  10.685   1.329 -0.4762 -2.3638  0.8500
 1206SOL     OW 7019  10.293   4.382   0.255  0.4607  0.3183 -0.4554
 1206SOL    HW1 7020  10.328   4.471   0.261  1.3638 -0.0803  0.6176
 1206SOL    HW2 7021  10.346   4.340   0.187  0.2196  0.5138 -0.7663
 1207SOL     OW 7022   0.165   1.233   7.367 -0.4336 -0.2968  0.2554
 1207SOL    HW1 7023   0.258   1.247   7.383 -0.5541  0.0115  0.6876
 1207SOL    HW2 7024   0.123   1.314   7.395 -0.7646 -0.1765 -0.5641
 1208SOL     OW 7025   3.745  10.148   8.298  0.0289 -0.2832  0.4703
 1208SOL    HW1 7026   3.829  10.157   8.343 -0.0911 -1.8009  1.0671
 1208SOL    HW2 7027   3.679  10.168   8.366 -0.1275  1.6735 -0.1897
 1209SOL     OW 7028   0.956   1.681   8.616  0.3830 -0.0462 -0.1061
 1209SOL    HW1 7029   0.916   1.724   8.692 -0.5028 -1.4590  0.2735
 1209SOL    HW2 7030   1.049   1.675   8.638  0.2641  0.2954  0.5116
 1210SOL     OW 7031   6.892   0.118   0.110 -0.0667 -1.0629 -0.2133
 1210SOL    HW1 7032   6.927   0.161   0.032  1.2650 -1.7367 -0.0117
 1210SOL    HW2 7033   6.800   0.146   0.113  0.3683  0.5625 -0.8970
 1211SOL     OW 7034   1.435   9.925   4.667 -0.1962 -0.0342  0.0915
 1211SOL    HW1 7035   1.415   9.930   4.574 -1.2022  1.7581  0.3613
 1211SOL    HW2 7036   1.378   9.990   4.708  0.7180 -0.2858  1.8811
 1212SOL     OW 7037   1.944   6.843   5.912  0.2477 -0.3645  0.4082
 1212SOL    HW1 7038   1.993   6.909   5.863 -0.7192 -0.8493 -1.2614
 1212SOL    HW2 7039   1.986   6.843   5.999  0.8871  1.7411  0.1696
 1213SOL     OW 7040   9.137   7.417   1.370 -0.2156  0.3911  1.1489
 1213SOL    HW1 7041   9.042   7.405   1.368 -0.0245 -1.4504 -0.9562
 1213SOL    HW2 7042   9.149   7.511   1.378 -2.2809  0.8788 -0.5145
 1214SOL     OW 7043   3.666   4.688   0.426  0.5193 -0.3922  0.2879
 1214SOL    HW1 7044   3.742   4.646   0.466  0.2958 -0.2334  0.8830
 1214SOL    HW2 7045   3.594   4.670   0.486  0.0573 -0.6149 -0.3116
 1215SOL     OW 7046   0.289   4.940   0.458  0.2500  1.0059  0.1122
 1215SOL    HW1 7047   0.299   4.886   0.379 -0.9961 -0.6250  1.0014
 1215SOL    HW2 7048   0.233   5.012   0.431 -0.5106  0.2409 -0.4200
 1216SOL     OW 7049   7.294   9.690   7.006  0.0803 -0.0903 -0.0651
 1216SOL    HW1 7050   7.374   9.692   6.952 -0.4910 -0.9209 -0.9764
 1216SOL    HW2 7051   7.326   9.683   7.096  1.0490 -1.4047 -0.4715
 1217SOL     OW 7052   9.517   9.203   9.933  0.5355  0.4957 -0.2124
 1217SOL    HW1 7053   9.426   9.231   9.932 -0.0826 -1.3920 -0.2383
 1217SOL    HW2 7054   9.559   9.259   9.999 -0.1594  2.6503 -1.5035
 1218SOL     OW 7055   2.843   8.730   4.742 -0.7382 -0.3136 -0.2245
 1218SOL    HW1 7056   2.830   8.802   4.803 -2.8179  0.4246 -1.4362
 1218SOL    HW2 7057   2.873   8.771   4.661  0.3695 -1.0965 -0.2412
 1219SOL     OW 7058   4.353   6.272  10.073  0.3252  0.1623  0.3881
 1219SOL    HW1 7059   4.303   6.191  10.065 -1.1701  1.1430 -0.8410
 1219SOL    HW2 7060   4.319   6.312  10.153  0.8095 -0.2445  0.8027
 1220SOL     OW 7061   9.700   8.297   6.986 -1.0049 -0.6786 -0.0850
 1220SOL    HW1 7062   9.648   8.302   7.065 -2.0645 -1.9615 -0.6634
 1220SOL    HW2 7063   9.738   8.209   6.987  1.8880  0.4398  0.7158
 1221SOL     OW 7064   6.137   6.292   2.908  0.6084 -0.0803 -0.3096
 1221SOL    HW1 7065   6.227   6.320   2.923  0.7676 -0.2161 -0.9959
 1221SOL    HW2 7066   6.126   6.217   2.967  0.9533 -0.0865 -0.2479
 1222SOL     OW 7067   3.292   2.633  10.473  0.5239 -0.4941  0.5304
 1222SOL    HW1 7068   3.255   2.644  10.386 -0.0497 -1.8999  0.5658
 1222SOL    HW2 7069   3.327   2.719  10.496  0.5068 -0.0602 -0.9946
 1223SOL     OW 7070   8.136  10.566   3.231 -0.1024  0.2368 -0.2774
 1223SOL    HW1 7071   8.185  10.540   3.153 -0.4685  1.1932 -0.8548
 1223SOL    HW2 7072   8.132  10.487   3.285  0.1227 -0.4572 -1.2444
 1224SOL     OW 7073   4.726   2.277   1.996  0.4222  0.5148  0.3177
 1224SOL    HW1 7074   4.779   2.318   2.065  1.0963  1.5842 -0.7713
 1224SOL    HW2 7075   4.653   2.338   1.983 -0.6447 -0.5396  1.2359
 1225SOL     OW 7076  10.607   7.727   8.782 -0.2730 -0.5283 -0.0794
 1225SOL    HW1 7077  10.680   7.724   8.722  0.3489 -0.7007  0.6700
 1225SOL    HW2 7078  10.642   7.694   8.865 -0.4272  1.8747  1.0453
 1226SOL     OW 7079  10.648   5.410   3.160  0.2378 -0.2517  0.1660
 1226SOL    HW1 7080  10.590   5.367   3.223 -1.7207  0.2408 -1.2118
 1226SOL    HW2 7081  10.646   5.503   3.185  0.0235 -0.1630 -0.1715
 1227SOL     OW 7082   8.257   3.060   0.703  0.0628 -0.2683 -0.2483
 1227SOL    HW1 7083   8.325   3.038   0.767  0.0319  0.1075 -0.0799
 1227SOL    HW2 7084   8.203   3.125   0.748 -0.5071 -0.6815 -0.3195
 1228SOL     OW 7085   7.334   5.649   0.196  0.2967 -0.2272  0.2314
 1228SOL    HW1 7086   7.350   5.728   0.145 -2.5142  0.7946  0.7359
 1228SOL    HW2 7087   7.371   5.578   0.143  0.4498  1.1557 -1.5901
 1229SOL     OW 7088   1.253   3.418   9.031 -0.1096 -0.9884  0.3271
 1229SOL    HW1 7089   1.234   3.491   9.091  0.1080 -0.4480 -0.2580
 1229SOL    HW2 7090   1.170   3.401   8.988  0.3259  0.3951 -1.1485
 1230SOL     OW 7091   3.058   0.572   1.472  0.1563  0.2410  0.0331
 1230SOL    HW1 7092   3.074   0.530   1.556  0.4028 -0.4870 -0.3653
 1230SOL    HW2 7093   3.139   0.560   1.423  0.7477  2.3878  0.3696
 1231SOL     OW 7094   8.595   3.459   2.847 -0.4503 -0.1090  0.2232
 1231SOL    HW1 7095   8.679   3.482   2.886 -0.3447  3.1487 -1.5580
 1231SOL    HW2 7096   8.618   3.417   2.764 -0.6456 -1.4318  0.8161
 1232SOL     OW 7097   1.981   8.676   4.854 -0.1600 -0.4350 -0.9452
 1232SOL    HW1 7098   2.054   8.619   4.879 -0.2566  0.2137  0.9736
 1232SOL    HW2 7099   1.997   8.758   4.901 -1.6500  0.0386 -1.2101
 1233SOL     OW 7100   8.633   9.863   7.415  0.1544  0.3485 -0.3938
 1233SOL    HW1 7101   8.555   9.809   7.417 -0.0093  0.4906 -1.9066
 1233SOL    HW2 7102   8.631   9.910   7.498  0.1491 -1.6997  0.8279
 1234SOL     OW 7103   2.894   7.865   9.920 -0.4027 -0.3799 -0.3295
 1234SOL    HW1 7104   2.884   7.917   9.840  0.8511  0.4091  0.0040
 1234SOL    HW2 7105   2.976   7.818   9.907 -1.4345 -2.2297 -0.5702
 1235SOL     OW 7106   2.431   8.338  10.470  0.1472 -0.5329  0.0829
 1235SOL    HW1 7107   2.475   8.294  10.542  0.7099  1.4250  1.0073
 1235SOL    HW2 7108   2.339   8.341  10.495  0.0336 -1.5327 -0.1939
 1236SOL     OW 7109   4.017   8.589   2.833  0.2904 -0.3555  0.2353
 1236SOL    HW1 7110   4.029   8.631   2.748 -2.5391 -1.4695 -0.8472
 1236SOL    HW2 7111   3.965   8.651   2.884  2.2977  0.4771  1.3999
 1237SOL     OW 7112   2.600   3.869   6.616 -0.7402 -0.4477  0.3682
 1237SOL    HW1 7113   2.552   3.859   6.534  1.6404 -0.9222 -1.0737
 1237SOL    HW2 7114   2.591   3.784   6.659 -0.5058 -0.8252 -0.3074
 1238SOL     OW 7115   4.388   7.500   6.111  0.2457  0.5641 -0.1812
 1238SOL    HW1 7116   4.431   7.449   6.043  0.8907 -1.2176  1.4480
 1238SOL    HW2 7117   4.455   7.563   6.140  0.6798 -0.0295  0.1391
 1239SOL     OW 7118   2.517   2.997   0.732  0.0670 -0.0551 -0.0965
 1239SOL    HW1 7119   2.496   2.952   0.813  0.4317 -0.7063 -0.3605
 1239SOL    HW2 7120   2.432   3.023   0.696 -0.0978  0.1836  0.4554
 1240SOL     OW 7121   2.006   7.709   9.531 -0.2455 -0.5489  0.2317
 1240SOL    HW1 7122   1.942   7.638   9.530 -1.7392  0.6769 -3.1620
 1240SOL    HW2 7123   2.074   7.680   9.470  0.1682  0.0914  0.3841
 1241SOL     OW 7124   3.196   9.050   4.327 -0.2510 -0.0983  0.3610
 1241SOL    HW1 7125   3.226   9.134   4.361  2.9487 -1.0664  0.3296
 1241SOL    HW2 7126   3.189   8.994   4.404 -0.9421 -0.1961  0.2334
 1242SOL     OW 7127  10.694   1.057   0.816  0.8903 -0.0028 -0.0488
 1242SOL    HW1 7128  10.652   0.974   0.836 -0.5426  0.6992 -0.0422
 1242SOL    HW2 7129  10.707   1.099   0.901  1.0779  0.0297 -0.0934
 1243SOL     OW 7130   5.187   2.693   1.105 -0.1365 -0.3561 -0.3558
 1243SOL    HW1 7131   5.170   2.689   1.011 -0.5537 -0.0942 -0.2953
 1243SOL    HW2 7132   5.221   2.782   1.119 -1.8309  0.2768  0.0053
 1244SOL     OW 7133  10.760   5.259   5.318 -0.6942 -0.0936  0.4100
 1244SOL    HW1 7134  10.702   5.200   5.271 -0.9476 -0.2139  0.8660
 1244SOL    HW2 7135  10.785   5.326   5.254 -1.2904 -0.0720  0.1979
 1245SOL     OW 7136   3.518   3.641   2.666  0.1997 -0.3817 -0.4220
 1245SOL    HW1 7137   3.430   3.623   2.634 -0.0166  0.9275 -0.6122
 1245SOL    HW2 7138   3.534   3.573   2.732 -0.4538 -1.3863 -1.2744
 1246SOL     OW 7139   7.564   0.098   2.677 -0.0289  0.0147 -0.0736
 1246SOL    HW1 7140   7.507   0.056   2.612 -1.4090 -0.1710  1.1945
 1246SOL    HW2 7141   7.570   0.189   2.648 -1.0530  0.0537 -0.2196
 1247SOL     OW 7142   6.992   1.961   9.211  0.3592 -0.1764 -0.7564
 1247SOL    HW1 7143   7.063   2.005   9.165 -0.0081 -1.3651 -2.5491
 1247SOL    HW2 7144   7.015   1.868   9.209  0.6747 -0.2603  2.1611
 1248SOL     OW 7145   4.138   7.566   7.605  0.3778  0.0083 -0.3391
 1248SOL    HW1 7146   4.085   7.551   7.527 -0.1541 -0.7896  0.1549
 1248SOL    HW2 7147   4.200   7.493   7.607 -0.0359 -0.3389  0.3146
 1249SOL     OW 7148   3.727   2.045   3.580  0.0520  0.1487  0.1663
 1249SOL    HW1 7149   3.743   1.974   3.642 -0.1859  0.8002  0.9917
 1249SOL    HW2 7150   3.784   2.116   3.610 -1.7384  1.2780  1.0469
 1250SOL     OW 7151   1.869   2.680   6.616 -0.1811  0.1201 -0.0360
 1250SOL    HW1 7152   1.870   2.775   6.603 -1.5324  0.0226 -1.1832
 1250SOL    HW2 7153   1.780   2.661   6.646 -0.6257 -0.9901 -1.8969
 1251SOL     OW 7154   4.328   7.589   0.649  0.6633  0.1306  0.4610
 1251SOL    HW1 7155   4.393   7.528   0.617 -1.0750 -1.6615  0.1709
 1251SOL    HW2 7156   4.288   7.545   0.724 -0.5089  0.9927  0.3763
 1252SOL     OW 7157   0.582   8.127  10.849  0.0718 -0.2176 -0.0182
 1252SOL    HW1 7158   0.674   8.105  10.834  0.4802  0.0896  1.7778
 1252SOL    HW2 7159   0.557   8.075  10.925 -0.3741  1.8411  1.3064
 1253SOL     OW 7160   4.271   9.369   7.913  0.2769  0.0184 -0.3594
 1253SOL    HW1 7161   4.267   9.291   7.857  3.0262  0.2183 -0.9738
 1253SOL    HW2 7162   4.313   9.435   7.859 -0.3075  1.3643  0.7778
 1254SOL     OW 7163   7.469   1.951   2.936 -0.2817  0.2924  0.1160
 1254SOL    HW1 7164   7.453   2.019   3.002  1.7756 -0.1419  1.1334
 1254SOL    HW2 7165   7.457   1.869   2.983  0.9293 -0.0261 -0.0996
 1255SOL     OW 7166   2.784   6.155   7.854 -0.2493 -0.0302  0.2146
 1255SOL    HW1 7167   2.792   6.207   7.775  2.8682 -0.0382  0.4060
 1255SOL    HW2 7168   2.735   6.077   7.827  0.6102  0.0324 -1.6934
 1256SOL     OW 7169   4.354   9.972  10.034 -1.0481  0.4567 -0.3432
 1256SOL    HW1 7170   4.390   9.925   9.958  0.1437 -0.0972  0.5344
 1256SOL    HW2 7171   4.345  10.062  10.004 -1.5997  0.0491 -1.4724
 1257SOL     OW 7172   7.391   0.567   4.008 -0.7219 -0.9798 -0.1993
 1257SOL    HW1 7173   7.359   0.600   4.092  0.4789 -0.2151 -0.0160
 1257SOL    HW2 7174   7.472   0.615   3.992 -0.3138 -1.9488 -1.2404
 1258SOL     OW 7175   4.802   5.586   4.234  0.6606 -0.7536 -0.9399
 1258SOL    HW1 7176   4.865   5.652   4.205 -0.1002 -0.1428 -1.2463
 1258SOL    HW2 7177   4.771   5.619   4.319  1.3647 -1.4840 -0.3842
 1259SOL     OW 7178   4.784   9.826   8.127 -0.4620 -0.1525 -0.4227
 1259SOL    HW1 7179   4.752   9.799   8.213  0.5316 -0.6918 -0.2083
 1259SOL    HW2 7180   4.783   9.921   8.130 -0.2494 -0.1673  0.2560
 1260SOL     OW 7181   6.940   9.781   6.703  0.0790 -0.0090 -0.1703
 1260SOL    HW1 7182   6.955   9.782   6.797 -1.3167 -0.7396  0.0979
 1260SOL    HW2 7183   6.853   9.741   6.693  1.2027 -2.2552 -1.8935
 1261SOL     OW 7184   2.115   0.952   8.151 -0.0065  0.3624  0.5155
 1261SOL    HW1 7185   2.042   0.938   8.212  0.6691  1.6743  1.6928
 1261SOL    HW2 7186   2.079   1.013   8.086 -0.7723 -1.1480 -0.5174
 1262SOL     OW 7187   1.595   1.479   9.891 -0.2011  0.4260 -0.1568
 1262SOL    HW1 7188   1.572   1.390   9.864  0.6855  0.2136 -0.2443
 1262SOL    HW2 7189   1.686   1.473   9.920  0.2765  1.5321 -1.2870
 1263SOL     OW 7190  10.103   4.851   8.330 -0.3936 -0.5496  0.1737
 1263SOL    HW1 7191  10.084   4.812   8.245 -2.4283  1.1387 -0.2144
 1263SOL    HW2 7192  10.027   4.829   8.385  1.4455 -2.7623  2.0977
 1264SOL     OW 7193   4.528   9.037   4.955  0.1622  0.3137 -0.0435
 1264SOL    HW1 7194   4.589   9.010   5.023  0.1940 -1.6363 -0.7760
 1264SOL    HW2 7195   4.524   8.962   4.896 -2.5614  0.5732 -0.2947
 1265SOL     OW 7196   9.864   9.747   1.236  0.0084 -0.6040 -0.1858
 1265SOL    HW1 7197   9.830   9.765   1.148 -2.5844 -2.6364  0.2846
 1265SOL    HW2 7198   9.908   9.663   1.228  1.8595  0.3094  0.0174
 1266SOL     OW 7199   4.046   0.867   8.892 -0.0397 -0.1252 -0.2366
 1266SOL    HW1 7200   4.049   0.776   8.921 -0.7390  0.1282  0.6695
 1266SOL    HW2 7201   4.132   0.882   8.852  0.3638 -0.9632  0.2858
 1267SOL     OW 7202   8.668   3.361   6.805 -0.0340  0.2595  1.0153
 1267SOL    HW1 7203   8.688   3.267   6.803 -0.3975  0.1836  0.4872
 1267SOL    HW2 7204   8.615   3.373   6.883 -0.4028 -0.0734  0.8222
 1268SOL     OW 7205   1.971  10.667   2.340  0.4496  0.1051 -0.1406
 1268SOL    HW1 7206   2.050  10.629   2.303  1.1301  0.3640  0.9933
 1268SOL    HW2 7207   1.902  10.605   2.318  0.3961  1.1774 -3.5242
 1269SOL     OW 7208   8.248   5.769   7.514 -0.4167 -0.0806  0.6694
 1269SOL    HW1 7209   8.322   5.827   7.530 -0.8595  0.5569  0.4243
 1269SOL    HW2 7210   8.220   5.789   7.425 -1.1645  0.0110  0.9128
 1270SOL     OW 7211   9.359   8.491   1.064  0.2204 -0.2694 -0.4877
 1270SOL    HW1 7212   9.426   8.549   1.027  0.2004 -0.5403 -0.9598
 1270SOL    HW2 7213   9.290   8.550   1.094  1.3548  0.1547  1.5037
 1271SOL     OW 7214   7.651   9.810  10.507 -0.3209 -0.3292  0.0329
 1271SOL    HW1 7215   7.583   9.857  10.459 -1.3022 -0.9173  0.7985
 1271SOL    HW2 7216   7.604   9.738  10.550  0.7478 -0.5796  0.8156
 1272SOL     OW 7217   9.945   9.079   6.135 -0.4249 -0.0976  0.1660
 1272SOL    HW1 7218  10.008   9.133   6.182 -1.8233 -0.4058  2.5650
 1272SOL    HW2 7219   9.860   9.111   6.164 -1.4477  0.0245 -2.6511
 1273SOL     OW 7220   2.006   6.625   9.088  0.1811  1.0068 -0.0689
 1273SOL    HW1 7221   2.070   6.558   9.116 -0.8096 -0.3778 -0.9608
 1273SOL    HW2 7222   1.960   6.649   9.168 -0.6411 -0.7243  0.0198
 1274SOL     OW 7223  10.297   4.692   5.455  0.6890  0.1252  0.0076
 1274SOL    HW1 7224  10.265   4.613   5.411  1.3619 -0.4203  0.4708
 1274SOL    HW2 7225  10.289   4.672   5.548  0.0594  0.9432  0.1342
 1275SOL     OW 7226   2.439   6.796   1.733  0.1504 -0.4749 -0.0245
 1275SOL    HW1 7227   2.474   6.750   1.810  0.6859 -0.5431 -0.3033
 1275SOL    HW2 7228   2.384   6.731   1.690 -1.2615 -0.0287  1.0221
 1276SOL     OW 7229   2.525   8.207  10.681 -0.5483  0.3530 -0.6842
 1276SOL    HW1 7230   2.485   8.124  10.708  1.8986 -1.2030 -1.4328
 1276SOL    HW2 7231   2.619   8.189  10.683  0.0165  2.8161 -1.9064
 1277SOL     OW 7232   4.382   8.436   7.280  0.0850  0.1021  0.6646
 1277SOL    HW1 7233   4.467   8.464   7.315 -0.0514  1.2847  0.0977
 1277SOL    HW2 7234   4.370   8.348   7.315  1.6318 -0.1677  0.6132
 1278SOL     OW 7235   7.614   5.188   1.730 -0.1687 -0.2104 -0.1021
 1278SOL    HW1 7236   7.627   5.243   1.653  1.0162 -0.7822 -0.3306
 1278SOL    HW2 7237   7.601   5.100   1.695  1.4562 -0.6649  0.3513
 1279SOL     OW 7238   2.553   4.529   6.942 -0.2918 -0.1422  0.4440
 1279SOL    HW1 7239   2.619   4.597   6.942 -1.4134  1.1221 -2.6660
 1279SOL    HW2 7240   2.501   4.545   7.021  0.5464  1.4829  0.6969
 1280SOL     OW 7241   2.060   8.890   6.428  0.4926 -0.2731  0.1773
 1280SOL    HW1 7242   2.099   8.837   6.359  0.2536  0.7348 -0.7649
 1280SOL    HW2 7243   2.132   8.945   6.459  0.6043 -0.7363  0.7644
 1281SOL     OW 7244   5.772   0.929   4.489 -0.5262  0.4679  0.9645
 1281SOL    HW1 7245   5.794   1.012   4.531  0.9799  0.4069  0.3652
 1281SOL    HW2 7246   5.808   0.936   4.401 -0.5153 -0.7434  0.8547
 1282SOL     OW 7247   3.876   3.770   4.184 -0.3128  0.4100  0.2352
 1282SOL    HW1 7248   3.947   3.803   4.238 -1.4302 -0.0333  2.0678
 1282SOL    HW2 7249   3.919   3.710   4.122  0.8706 -0.2079  1.5907
 1283SOL     OW 7250   0.258   7.320   2.469  0.1089 -0.3627 -0.3779
 1283SOL    HW1 7251   0.163   7.325   2.481  0.1101  0.2673 -0.6123
 1283SOL    HW2 7252   0.291   7.405   2.497  0.6781 -0.7875  0.2779
 1284SOL     OW 7253   0.998   6.794   4.149 -0.0703  0.6731  0.2828
 1284SOL    HW1 7254   0.966   6.817   4.062  3.0249  2.0010 -0.6095
 1284SOL    HW2 7255   0.931   6.829   4.208 -2.3804 -0.4734 -1.4491
 1285SOL     OW 7256   3.295   5.041   1.898  0.2914 -0.8683  0.0909
 1285SOL    HW1 7257   3.352   5.113   1.870 -1.0250 -0.1363 -0.8710
 1285SOL    HW2 7258   3.273   5.061   1.988  1.2089 -0.9438  0.3421
 1286SOL     OW 7259   4.375   4.815   6.279 -0.3493 -0.0124  0.8025
 1286SOL    HW1 7260   4.315   4.741   6.294  0.7717 -0.8903  1.1687
 1286SOL    HW2 7261   4.329   4.891   6.315 -1.1986 -0.6789  1.1697
 1287SOL     OW 7262   9.118   8.462   6.050  0.2359 -0.4519  0.1351
 1287SOL    HW1 7263   9.078   8.379   6.077 -1.5571  0.0959 -0.6794
 1287SOL    HW2 7264   9.164   8.441   5.969 -2.5728 -0.1773 -1.6684
 1288SOL     OW 7265   1.392   2.005   1.278 -0.1475  0.3377 -0.0820
 1288SOL    HW1 7266   1.418   1.934   1.220  1.8470 -0.0053  1.1401
 1288SOL    HW2 7267   1.332   1.965   1.341  1.1750 -0.3713  0.7663
 1289SOL     OW 7268   8.921   8.279   0.202  0.0817  0.2494  0.5797
 1289SOL    HW1 7269   8.890   8.221   0.271 -1.8587  1.0766  0.4496
 1289SOL    HW2 7270   8.850   8.279   0.137 -0.4793  3.5093  1.0304
 1290SOL     OW 7271  10.271   4.932   6.387  0.7398  0.2341  0.4161
 1290SOL    HW1 7272  10.263   4.970   6.474  0.6765  1.2821 -0.0375
 1290SOL    HW2 7273  10.347   4.975   6.348  1.2338 -0.7758  0.2189
 1291SOL     OW 7274   9.996   9.295  10.584 -0.1321  0.3592  0.2873
 1291SOL    HW1 7275   9.907   9.313  10.615 -0.5496 -0.3482 -0.4667
 1291SOL    HW2 7276  10.044   9.269  10.663 -0.5507  0.8773  0.7209
 1292SOL     OW 7277   9.838  10.829   8.894 -0.0928 -0.3594 -0.1759
 1292SOL    HW1 7278   9.800  10.894   8.835 -0.4458 -0.5926 -0.2099
 1292SOL    HW2 7279   9.928  10.818   8.864  0.5816  1.5128  0.9907
 1293SOL     OW 7280   4.590   8.435  10.534 -0.3072 -0.0934 -1.0364
 1293SOL    HW1 7281   4.611   8.526  10.557  1.7421 -0.7446 -0.0694
 1293SOL    HW2 7282   4.621   8.426  10.444  1.3038 -0.3152 -0.4929
 1294SOL     OW 7283   5.354   0.920   9.408  0.4579  0.2629  0.5646
 1294SOL    HW1 7284   5.450   0.918   9.416  0.5424 -0.2742 -0.4475
 1294SOL    HW2 7285   5.328   0.997   9.459  1.2970 -0.4120  2.0874
 1295SOL     OW 7286   3.877   6.696   0.698 -0.3781  0.2209 -0.4101
 1295SOL    HW1 7287   3.841   6.753   0.766 -0.8160 -0.9724  0.4002
 1295SOL    HW2 7288   3.827   6.718   0.619 -1.0492  0.4489  0.0722
 1296SOL     OW 7289   7.638   1.830   5.219 -0.0033  0.2326 -0.0991
 1296SOL    HW1 7290   7.594   1.914   5.233  2.0322  1.3691 -0.0987
 1296SOL    HW2 7291   7.680   1.811   5.303 -1.0306 -1.2070  0.1301
 1297SOL     OW 7292   5.866   8.722   0.632  0.3412 -0.2240 -0.2133
 1297SOL    HW1 7293   5.924   8.795   0.653  0.0469  0.1292 -0.5993
 1297SOL    HW2 7294   5.915   8.669   0.569 -0.1009  0.5702 -1.2470
 1298SOL     OW 7295   1.481   8.023   5.438 -0.1960 -0.2978 -0.0242
 1298SOL    HW1 7296   1.438   7.964   5.499  0.3682 -1.1387 -0.4193
 1298SOL    HW2 7297   1.573   7.998   5.441  0.3057  1.5104  0.8569
 1299SOL     OW 7298   6.476   9.829   8.478  0.4822  0.1385 -0.1699
 1299SOL    HW1 7299   6.422   9.780   8.540  0.9168  0.6255  0.6171
 1299SOL    HW2 7300   6.431   9.914   8.470 -1.4541 -1.0056 -3.1439
 1300SOL     OW 7301   5.677   2.523   5.160 -0.9381 -0.0736 -0.3847
 1300SOL    HW1 7302   5.656   2.430   5.158  0.0627 -0.3008 -0.9023
 1300SOL    HW2 7303   5.694   2.542   5.253 -1.5748 -0.3021 -0.2194
 1301SOL     OW 7304   7.804   4.538   7.848 -0.3803  0.6520 -0.0320
 1301SOL    HW1 7305   7.709   4.530   7.838 -0.7224  1.4723  1.9845
 1301SOL    HW2 7306   7.831   4.452   7.881 -0.4704  0.5111 -0.3228
 1302SOL     OW 7307   0.305   3.297  10.083 -0.5622  0.5071 -0.4189
 1302SOL    HW1 7308   0.220   3.286  10.126  0.4963 -2.2284  1.2624
 1302SOL    HW2 7309   0.313   3.219  10.028  1.3330  0.0425  0.4419
 1303SOL     OW 7310  10.445   0.873   0.064 -0.1940 -0.0911  0.1988
 1303SOL    HW1 7311  10.491   0.884  -0.019  0.1928  3.1427  0.7124
 1303SOL    HW2 7312  10.410   0.960   0.084 -0.1242 -0.6709  3.5070
 1304SOL     OW 7313   7.335   2.842   9.289 -0.1671  0.4527  0.4820
 1304SOL    HW1 7314   7.299   2.755   9.271  2.1629 -0.2949 -0.9184
 1304SOL    HW2 7315   7.373   2.836   9.376 -0.8238  0.3968  0.7765
 1305SOL     OW 7316   3.670   5.048   3.832  0.1845  0.5531 -0.4736
 1305SOL    HW1 7317   3.721   4.968   3.830 -0.6184  0.0302 -1.0180
 1305SOL    HW2 7318   3.590   5.025   3.880  0.9153  1.6567  1.3519
 1306SOL     OW 7319   0.131   8.967   6.834  0.8450  0.1639 -0.2023
 1306SOL    HW1 7320   0.084   8.885   6.847  2.4178 -0.5444  1.2921
 1306SOL    HW2 7321   0.147   8.971   6.739  1.1732 -1.4999 -0.2402
 1307SOL     OW 7322   9.658   3.879   7.995  0.7002  0.0945  0.3099
 1307SOL    HW1 7323   9.741   3.854   7.955  0.7686  1.4322 -0.4669
 1307SOL    HW2 7324   9.629   3.802   8.044  1.5174 -0.9765 -0.8650
 1308SOL     OW 7325   6.345   9.534   2.055  0.0983 -0.2486 -0.5300
 1308SOL    HW1 7326   6.302   9.458   2.018  1.2907 -1.4883  0.5396
 1308SOL    HW2 7327   6.438   9.520   2.040  0.3695  0.8605 -0.0594
 1309SOL     OW 7328   2.876   9.720   1.357  0.1144  0.1942 -0.4107
 1309SOL    HW1 7329   2.802   9.774   1.384 -0.6283 -0.3134 -1.3661
 1309SOL    HW2 7330   2.890   9.742   1.265  0.0975 -0.8962 -0.6838
 1310SOL     OW 7331   9.598   0.009   7.632 -0.1487 -0.0019  0.5232
 1310SOL    HW1 7332   9.530   0.071   7.604 -0.6609 -0.9649 -0.4375
 1310SOL    HW2 7333   9.675   0.033   7.581 -0.0550  0.4394  0.8626
 1311SOL     OW 7334   3.487  10.619   6.436  0.0600  0.5494 -0.2155
 1311SOL    HW1 7335   3.512  10.711   6.429  1.7552  0.2142  0.7619
 1311SOL    HW2 7336   3.525  10.578   6.358  1.0686  0.3517  0.3633
 1312SOL     OW 7337   1.133   0.367   7.574 -0.4734  0.2587 -0.0207
 1312SOL    HW1 7338   1.048   0.366   7.619  0.0576  0.1545  1.0278
 1312SOL    HW2 7339   1.163   0.457   7.581 -0.3539  0.2236 -0.0869
 1313SOL     OW 7340   2.648   9.218   6.932 -0.4150  0.3332  0.0781
 1313SOL    HW1 7341   2.660   9.134   6.976 -2.6870 -0.2890 -0.3443
 1313SOL    HW2 7342   2.616   9.196   6.845  1.0078  1.6213 -0.8171
 1314SOL     OW 7343   7.808   5.957   5.221  0.1529  0.4651  0.2101
 1314SOL    HW1 7344   7.789   5.976   5.129 -0.4476  0.1449  0.2618
 1314SOL    HW2 7345   7.780   6.035   5.269  1.0061  0.8681  0.0698
 1315SOL     OW 7346   6.880   1.932   6.956  0.2128 -0.2174  1.0109
 1315SOL    HW1 7347   6.863   1.845   6.991 -1.4212 -0.5319 -0.4553
 1315SOL    HW2 7348   6.808   1.986   6.990 -0.2212 -0.0518 -0.1225
 1316SOL     OW 7349  10.735   2.821  10.542  0.0236 -0.0076  0.0346
 1316SOL    HW1 7350  10.769   2.812  10.631 -1.1082 -1.7351  0.3372
 1316SOL    HW2 7351  10.786   2.758  10.491  0.1109  0.3913 -0.3775
 1317SOL     OW 7352   7.751   8.986   0.995  0.4256 -0.5311  0.5595
 1317SOL    HW1 7353   7.844   8.963   1.001  0.1708 -1.7479 -0.0238
 1317SOL    HW2 7354   7.744   9.069   1.043  1.8876 -0.1946  0.2281
 1318SOL     OW 7355   4.187   4.168   8.636  0.5093  0.4690 -0.5665
 1318SOL    HW1 7356   4.138   4.125   8.706  0.3623 -0.7926 -1.3925
 1318SOL    HW2 7357   4.275   4.180   8.672  0.1757  0.7691  0.1743
 1319SOL     OW 7358   3.763   8.899   8.854  0.7499  0.5822 -0.6417
 1319SOL    HW1 7359   3.742   8.987   8.824 -0.6531  0.1561 -1.0027
 1319SOL    HW2 7360   3.765   8.846   8.774 -0.2520 -0.0356 -0.2836
 1320SOL     OW 7361   6.384   8.472   0.975  0.0634 -0.2248 -0.2977
 1320SOL    HW1 7362   6.377   8.458   0.881  1.5547 -0.8011 -0.3553
 1320SOL    HW2 7363   6.294   8.464   1.007 -0.5502  0.5471 -1.7272
 1321SOL     OW 7364   4.705   4.927   5.814 -0.1019  0.0340  0.0128
 1321SOL    HW1 7365   4.692   4.866   5.742 -1.0618  0.7802 -0.4636
 1321SOL    HW2 7366   4.667   4.883   5.890  0.4550 -0.5363 -0.0272
 1322SOL     OW 7367   5.720   3.201   3.309 -0.3504 -0.0820  0.3754
 1322SOL    HW1 7368   5.767   3.249   3.241 -0.0022 -0.9347  0.0068
 1322SOL    HW2 7369   5.788   3.169   3.367 -0.5126 -0.8282  0.1599
 1323SOL     OW 7370   2.776   6.950   9.341 -0.2200 -0.6654  0.0139
 1323SOL    HW1 7371   2.860   6.906   9.326 -0.2775 -1.2442  1.2430
 1323SOL    HW2 7372   2.770   7.015   9.271  2.9092  1.7996  1.7285
 1324SOL     OW 7373   8.329   4.732   9.068  0.0920 -0.3226  0.1595
 1324SOL    HW1 7374   8.365   4.787   8.998 -0.8330  1.4043  1.0062
 1324SOL    HW2 7375   8.288   4.658   9.021  1.6054 -0.4850 -0.9710
 1325SOL     OW 7376   0.450   8.375   9.331  0.2489  0.1184 -0.1575
 1325SOL    HW1 7377   0.481   8.379   9.422  0.5617  1.1600 -0.2959
 1325SOL    HW2 7378   0.507   8.311   9.289  0.1528 -0.3149  0.3514
 1326SOL     OW 7379   1.965   4.301   0.160  0.6553 -0.2043  0.3895
 1326SOL    HW1 7380   2.039   4.317   0.102 -0.9626 -0.4254 -1.8972
 1326SOL    HW2 7381   1.902   4.252   0.106 -2.2320  2.1616  1.3062
 1327SOL     OW 7382   2.261   5.453   8.053 -0.3504 -0.0671  0.2255
 1327SOL    HW1 7383   2.328   5.471   8.119  1.6178  0.1930 -1.7217
 1327SOL    HW2 7384   2.281   5.366   8.020 -0.3844  0.3594 -0.9990
 1328SOL     OW 7385   5.130   5.803   3.338 -0.2675  0.0815  0.4381
 1328SOL    HW1 7386   5.138   5.893   3.369  0.0393  0.2249 -0.0659
 1328SOL    HW2 7387   5.086   5.757   3.411 -0.6251  0.6779  0.6036
 1329SOL     OW 7388   0.499   7.664   3.532  0.1436 -0.0534 -0.0826
 1329SOL    HW1 7389   0.548   7.586   3.556 -0.7660 -0.4219  0.6415
 1329SOL    HW2 7390   0.481   7.653   3.438 -0.3868 -0.9594  0.1122
 1330SOL     OW 7391   8.380   4.214   4.490  0.0509 -0.2728 -0.9306
 1330SOL    HW1 7392   8.440   4.254   4.553 -0.1911  0.2442 -1.0237
 1330SOL    HW2 7393   8.430   4.209   4.409  0.1857 -0.4443 -0.8362
 1331SOL     OW 7394   3.802   5.057   8.892 -0.0728 -0.0211  0.7064
 1331SOL    HW1 7395   3.754   5.061   8.810  0.2557  0.6171  0.5411
 1331SOL    HW2 7396   3.744   5.009   8.952 -0.0249 -1.0921 -0.0782
 1332SOL     OW 7397   8.650   8.360   6.404 -0.2329  0.0313  0.4818
 1332SOL    HW1 7398   8.631   8.447   6.438  0.9508  0.3217  0.4564
 1332SOL    HW2 7399   8.676   8.375   6.313 -1.2803 -0.5051  0.0741
 1333SOL     OW 7400   5.621   9.619  10.609  0.4260  0.1945 -0.2249
 1333SOL    HW1 7401   5.639   9.622  10.703  1.8568 -1.1565 -0.4238
 1333SOL    HW2 7402   5.704   9.594  10.569 -0.1740  0.6740 -1.8669
 1334SOL     OW 7403   0.428   6.237   2.716 -0.2854  0.2152  0.1132
 1334SOL    HW1 7404   0.387   6.170   2.662 -1.0184  1.4635 -0.9587
 1334SOL    HW2 7405   0.404   6.215   2.806 -1.4117 -0.3493 -0.3122
 1335SOL     OW 7406  10.673   8.977   1.407  0.4062  0.2622 -0.2678
 1335SOL    HW1 7407  10.749   8.956   1.352  0.1662 -0.2769 -0.3982
 1335SOL    HW2 7408  10.685   8.922   1.485  0.0521  0.0378 -0.3724
 1336SOL     OW 7409   4.253   7.430  10.146  0.0395 -0.2841 -0.2106
 1336SOL    HW1 7410   4.237   7.408  10.054  0.3041 -4.6172  0.5552
 1336SOL    HW2 7411   4.166   7.427  10.186  0.2550 -1.8370  0.1967
 1337SOL     OW 7412   6.732   4.154   4.534  0.7640 -0.3196  0.4593
 1337SOL    HW1 7413   6.637   4.158   4.526  0.6934 -0.7801  1.0137
 1337SOL    HW2 7414   6.763   4.159   4.444  0.1887 -0.7030  0.2315
 1338SOL     OW 7415   2.542   4.169   6.439 -0.4194  0.0441 -0.2243
 1338SOL    HW1 7416   2.486   4.091   6.435 -0.9232  0.3884  0.0947
 1338SOL    HW2 7417   2.572   4.172   6.530  0.0418 -0.0877 -0.3728
 1339SOL     OW 7418   9.168   5.309   7.708 -0.0740  0.6798 -0.2338
 1339SOL    HW1 7419   9.194   5.238   7.767 -0.0303 -0.4253 -1.5300
 1339SOL    HW2 7420   9.240   5.372   7.713  1.2367 -0.6660 -1.0889
 1340SOL     OW 7421   7.244  10.368   6.193 -0.9315 -0.6161  0.1636
 1340SOL    HW1 7422   7.287  10.283   6.183 -1.7587 -0.9661 -0.5595
 1340SOL    HW2 7423   7.151  10.347   6.203 -1.1537  0.1950 -0.0972
 1341SOL     OW 7424   4.673   4.254   1.945  0.1360 -0.0321 -0.4838
 1341SOL    HW1 7425   4.657   4.226   1.855 -0.8108 -0.4717 -0.1974
 1341SOL    HW2 7426   4.612   4.327   1.959  0.6072  0.3359 -0.3478
 1342SOL     OW 7427   8.688   0.686   0.755  0.1214  0.0389 -0.6494
 1342SOL    HW1 7428   8.732   0.753   0.703  2.4936 -0.2435  0.7973
 1342SOL    HW2 7429   8.729   0.604   0.728 -1.3737 -0.6151 -1.0386
 1343SOL     OW 7430   9.689   9.833   5.081  0.2369 -0.4609  0.3632
 1343SOL    HW1 7431   9.676   9.787   4.998 -0.1756 -1.5135  0.9925
 1343SOL    HW2 7432   9.759   9.895   5.062 -1.2615  0.8308 -1.3522
 1344SOL     OW 7433   0.544   8.328   1.794  0.1864  0.1655 -0.0668
 1344SOL    HW1 7434   0.532   8.330   1.889  0.1620 -0.5031 -0.0488
 1344SOL    HW2 7435   0.582   8.413   1.773 -1.0258  0.8443  0.3733
 1345SOL     OW 7436   2.695   6.951   1.915 -0.0879 -0.5441  0.0084
 1345SOL    HW1 7437   2.740   6.951   2.000 -2.1363  1.5884  1.1889
 1345SOL    HW2 7438   2.766   6.961   1.851  1.2979  1.0890  1.6684
 1346SOL     OW 7439   2.516   6.581   0.605 -0.1670 -0.1835  0.1114
 1346SOL    HW1 7440   2.483   6.669   0.586  0.2951  0.1317  0.7239
 1346SOL    HW2 7441   2.521   6.577   0.701  0.8361 -0.4829  0.0615
 1347SOL     OW 7442   3.677   2.173   6.262  0.0784 -0.4528  0.0470
 1347SOL    HW1 7443   3.592   2.138   6.289  0.1834  0.1442  1.2075
 1347SOL    HW2 7444   3.695   2.244   6.324  1.1451 -0.1662 -0.5592
 1348SOL     OW 7445   8.357   1.644   9.581  0.0766 -0.5282  0.4767
 1348SOL    HW1 7446   8.323   1.572   9.635 -0.5417 -1.9191 -1.6551
 1348SOL    HW2 7447   8.425   1.603   9.527 -0.9186  0.2415 -1.4386
 1349SOL     OW 7448   6.599   5.637   3.498  0.5293 -0.1082 -0.7995
 1349SOL    HW1 7449   6.661   5.685   3.553 -0.2337  1.5589 -1.3334
 1349SOL    HW2 7450   6.653   5.596   3.431  1.0536  1.9649 -1.7321
 1350SOL     OW 7451   9.610   0.659   0.925  0.0995 -0.0544  0.4437
 1350SOL    HW1 7452   9.684   0.652   0.865  0.4283 -1.4248  0.9658
 1350SOL    HW2 7453   9.595   0.753   0.935  0.5377  0.2064 -1.1520
 1351SOL     OW 7454   9.369   4.232  10.130 -0.1475  0.2386  0.3241
 1351SOL    HW1 7455   9.388   4.308  10.184  2.2386 -0.5166  0.6474
 1351SOL    HW2 7456   9.371   4.264  10.040  1.1112  0.5462  0.4462
 1352SOL     OW 7457   9.437   3.555   2.406 -0.1559 -0.3796 -0.0794
 1352SOL    HW1 7458   9.367   3.594   2.354 -0.6741  1.5477  1.8805
 1352SOL    HW2 7459   9.506   3.622   2.407 -0.7433  0.3384  2.7421
 1353SOL     OW 7460   9.260   4.503   7.436  0.2968 -0.0350 -0.1389
 1353SOL    HW1 7461   9.333   4.460   7.481  1.6842  1.4381 -0.8421
 1353SOL    HW2 7462   9.296   4.588   7.410 -1.8342  0.9347 -0.1328
 1354SOL     OW 7463   4.906   0.143   4.520 -0.4250  0.2351 -0.4464
 1354SOL    HW1 7464   4.906   0.117   4.612 -1.3384 -1.1253 -0.7962
 1354SOL    HW2 7465   4.922   0.062   4.472  1.1131  1.1092 -1.4744
 1355SOL     OW 7466   8.058   2.362   5.495 -0.1347 -0.4620  0.4986
 1355SOL    HW1 7467   8.074   2.289   5.554  0.3279 -2.1373 -1.6048
 1355SOL    HW2 7468   8.133   2.362   5.435 -0.1573  1.6995  0.3786
 1356SOL     OW 7469   9.002   8.057   6.190 -0.6065 -0.1860  0.5022
 1356SOL    HW1 7470   9.052   7.988   6.145  0.9099 -0.3476  2.3120
 1356SOL    HW2 7471   8.982   8.120   6.122  1.3468 -0.5548 -0.5020
 1357SOL     OW 7472   2.052   3.801   1.500  0.5669  0.7266  0.0200
 1357SOL    HW1 7473   2.104   3.721   1.489  0.4955  0.7227 -0.3026
 1357SOL    HW2 7474   2.072   3.853   1.423 -2.5329 -0.7464 -2.0092
 1358SOL     OW 7475   8.198   5.260   0.523 -0.2985 -0.0034 -0.2075
 1358SOL    HW1 7476   8.116   5.278   0.478 -0.1263  0.5213 -0.3273
 1358SOL    HW2 7477   8.258   5.233   0.453 -0.9626 -2.6470  0.1519
 1359SOL     OW 7478   3.021   3.661   2.415  0.1530  0.1766  0.0846
 1359SOL    HW1 7479   3.022   3.753   2.389  0.2620  0.8343  2.2026
 1359SOL    HW2 7480   2.981   3.661   2.502 -0.6348 -1.9026 -0.2120
 1360SOL     OW 7481   8.806   7.662  10.728 -0.1053 -0.6107 -0.4009
 1360SOL    HW1 7482   8.864   7.673  10.804 -1.6194  0.5949  0.6535
 1360SOL    HW2 7483   8.720   7.643  10.766 -0.8356 -0.3272 -1.8316
 1361SOL     OW 7484   4.953   4.476   3.300  0.3874 -0.0687  0.1081
 1361SOL    HW1 7485   4.896   4.418   3.351  1.1887 -0.1558  0.9236
 1361SOL    HW2 7486   4.916   4.563   3.312  0.0701 -0.2046  0.1294
 1362SOL     OW 7487   6.460   6.791   3.307  0.0557 -0.0238  0.3425
 1362SOL    HW1 7488   6.462   6.830   3.395  0.2791  0.3344  0.1818
 1362SOL    HW2 7489   6.529   6.725   3.308  0.0331 -0.0468  0.4458
 1363SOL     OW 7490  10.699   6.585   7.822  0.1417  0.3547 -0.2443
 1363SOL    HW1 7491  10.667   6.526   7.754  0.0131  0.3853 -0.2118
 1363SOL    HW2 7492  10.749   6.529   7.881  0.2445  0.3264 -0.3583
 1364SOL     OW 7493   3.834   7.446   6.976 -0.0560 -0.2411 -0.1761
 1364SOL    HW1 7494   3.805   7.400   6.897 -0.6587  1.1707 -0.8071
 1364SOL    HW2 7495   3.928   7.459   6.964 -0.1461 -0.0413 -0.6571
 1365SOL     OW 7496   8.018   0.932   6.854 -0.0233 -0.1685  0.4358
 1365SOL    HW1 7497   8.092   0.947   6.795 -0.4294 -1.1342 -0.3296
 1365SOL    HW2 7498   7.994   1.020   6.884 -0.1445  0.4187 -1.2517
 1366SOL     OW 7499  10.728   7.324   8.523  0.1281 -0.1325 -0.4679
 1366SOL    HW1 7500  10.716   7.411   8.560 -0.5993 -0.0951 -0.7735
 1366SOL    HW2 7501  10.823   7.313   8.518  0.2530  0.0668  0.9093
 1367SOL     OW 7502   8.547   4.681   5.798  0.2184 -0.1719 -0.8289
 1367SOL    HW1 7503   8.498   4.724   5.868 -1.3076  1.8808 -2.9916
 1367SOL    HW2 7504   8.582   4.602   5.838 -2.0606 -0.0101  1.7593
 1368SOL     OW 7505   1.537   0.148  10.657  0.2420 -0.3141  0.5299
 1368SOL    HW1 7506   1.449   0.119  10.634 -0.8650  1.4303  2.2100
 1368SOL    HW2 7507   1.534   0.244  10.648  2.4904 -0.3090 -0.9221
 1369SOL     OW 7508   0.629   6.470   1.205 -0.2960 -0.4247  0.2559
 1369SOL    HW1 7509   0.633   6.525   1.283  0.2033 -1.1806  0.7752
 1369SOL    HW2 7510   0.558   6.508   1.153 -0.4533  0.2524  0.9430
 1370SOL     OW 7511   2.338   3.325   3.720  0.1117 -0.5949 -0.6303
 1370SOL    HW1 7512   2.245   3.301   3.726  0.3907 -1.5423  0.5962
 1370SOL    HW2 7513   2.373   3.304   3.807  0.7416  3.1124  0.1456
 1371SOL     OW 7514   0.447   6.157  10.643  0.2243  0.2204  0.7877
 1371SOL    HW1 7515   0.485   6.083  10.691  2.1184 -0.4382 -1.5022
 1371SOL    HW2 7516   0.392   6.116  10.576  0.0770  0.9470  0.4617
 1372SOL     OW 7517   0.919   1.070   8.412 -0.1855 -0.1038  0.0213
 1372SOL    HW1 7518   0.964   1.001   8.362 -0.3789  0.5233 -1.0539
 1372SOL    HW2 7519   0.943   1.053   8.503 -0.2694 -1.6185 -0.2139
 1373SOL     OW 7520   6.820   4.035   8.928 -0.4190  0.1040  0.0652
 1373SOL    HW1 7521   6.842   4.074   8.843  0.3420  0.2257  0.3114
 1373SOL    HW2 7522   6.725   4.050   8.937 -0.3974  0.6314 -0.4898
 1374SOL     OW 7523   2.133   8.910   1.325  0.0054 -0.5161 -0.5571
 1374SOL    HW1 7524   2.146   8.996   1.363 -3.8724  0.2642 -0.5501
 1374SOL    HW2 7525   2.160   8.919   1.233 -1.1737  1.0455 -0.7900
 1375SOL     OW 7526   2.237   7.571   6.863 -0.0303  0.5273 -0.2434
 1375SOL    HW1 7527   2.149   7.599   6.886  0.3774  2.4191 -0.8641
 1375SOL    HW2 7528   2.292   7.600   6.936 -0.0038 -1.5376  0.6356
 1376SOL     OW 7529   8.853   9.689   9.943 -0.3908 -0.1816 -0.0019
 1376SOL    HW1 7530   8.905   9.753   9.991  2.8992 -0.7345 -2.4969
 1376SOL    HW2 7531   8.846   9.615  10.002 -0.6103  0.8724  1.3508
 1377SOL     OW 7532   5.365   9.384   5.210 -0.6749  0.3268 -0.5297
 1377SOL    HW1 7533   5.353   9.372   5.116  1.5890  0.2215 -0.8720
 1377SOL    HW2 7534   5.375   9.479   5.220 -1.7407  0.4229 -0.2476
 1378SOL     OW 7535  10.707   5.503   1.536 -0.2722  1.0394 -0.0852
 1378SOL    HW1 7536  10.670   5.513   1.448 -2.7825 -3.1391  0.2482
 1378SOL    HW2 7537  10.760   5.424   1.531  0.7423  1.5297  1.8483
 1379SOL     OW 7538   5.909   9.829   9.660 -0.0451  0.4553  0.7073
 1379SOL    HW1 7539   5.862   9.899   9.706 -1.0613 -0.6756  1.4683
 1379SOL    HW2 7540   5.913   9.757   9.724 -1.8564 -1.3202 -1.0404
 1380SOL     OW 7541   3.320   3.463   9.050  0.3783 -0.2268 -0.3238
 1380SOL    HW1 7542   3.296   3.497   9.137  2.6863  0.8768 -0.0363
 1380SOL    HW2 7543   3.312   3.368   9.059  0.7049 -0.1475  1.1748
 1381SOL     OW 7544   2.215   2.436   9.044  0.2346  0.1938 -0.1820
 1381SOL    HW1 7545   2.256   2.472   9.122  0.6840 -0.6963  0.0097
 1381SOL    HW2 7546   2.276   2.369   9.014 -0.1109  0.2775 -1.0866
 1382SOL     OW 7547   3.029   9.744  10.197  0.2851  0.3178  0.2378
 1382SOL    HW1 7548   3.025   9.809  10.127  0.3223 -0.2406 -0.2940
 1382SOL    HW2 7549   2.947   9.757  10.245 -0.9832 -0.9358 -1.4300
 1383SOL     OW 7550   6.098   0.289   2.005  0.3777  0.4982  0.1915
 1383SOL    HW1 7551   6.071   0.375   1.971  0.1585 -0.2934 -1.7630
 1383SOL    HW2 7552   6.179   0.269   1.958 -0.3831 -1.0216 -0.5331
 1384SOL     OW 7553   0.650   7.898   9.952 -0.0686 -0.4747  0.6627
 1384SOL    HW1 7554   0.714   7.827   9.946  0.5184  0.1383 -2.0184
 1384SOL    HW2 7555   0.565   7.854   9.942  0.3512 -0.8371 -2.9553
 1385SOL     OW 7556   0.665   5.501   0.375 -0.3817  0.1539 -0.0378
 1385SOL    HW1 7557   0.758   5.489   0.394 -0.3129  0.6294 -0.0470
 1385SOL    HW2 7558   0.619   5.468   0.452 -0.2401 -0.7980 -0.3528
 1386SOL     OW 7559   2.586   9.502   8.364 -0.3836 -0.3184  0.0409
 1386SOL    HW1 7560   2.593   9.596   8.382 -0.9660  0.1449 -1.8982
 1386SOL    HW2 7561   2.632   9.490   8.281 -1.0317 -1.6011 -0.1531
 1387SOL     OW 7562   4.518   9.402   0.867 -0.0659 -0.2130 -0.3033
 1387SOL    HW1 7563   4.498   9.316   0.829 -1.9539 -0.3179  0.7978
 1387SOL    HW2 7564   4.608   9.420   0.840 -0.4890 -1.3558 -2.7452
 1388SOL     OW 7565   1.438   2.840   2.581  0.6267 -0.0480 -0.1874
 1388SOL    HW1 7566   1.443   2.875   2.670 -0.0486 -1.7581  0.5690
 1388SOL    HW2 7567   1.350   2.803   2.574  0.3679  0.7889 -1.8781
 1389SOL     OW 7568   1.238   3.662   5.954 -0.0183  0.6244 -0.9014
 1389SOL    HW1 7569   1.242   3.580   5.906  1.5580 -0.4385  0.8917
 1389SOL    HW2 7570   1.151   3.662   5.994 -0.4415  0.3857 -1.8049
 1390SOL     OW 7571   3.639   0.404   8.814  0.1982  0.3654  0.1542
 1390SOL    HW1 7572   3.633   0.408   8.910 -1.1739  0.9980  0.0612
 1390SOL    HW2 7573   3.606   0.489   8.784 -0.9223 -0.4107 -0.9203
 1391SOL     OW 7574   6.157   8.519   6.534 -0.0855 -0.3849 -0.2380
 1391SOL    HW1 7575   6.210   8.539   6.611  0.0831  0.7453 -0.6274
 1391SOL    HW2 7576   6.172   8.426   6.518  1.8514 -0.0958 -0.3769
 1392SOL     OW 7577   7.289  10.346   8.656  0.4745 -0.0150 -0.6012
 1392SOL    HW1 7578   7.320  10.302   8.735 -0.2075  1.0871  0.3057
 1392SOL    HW2 7579   7.195  10.331   8.655  0.5611 -0.5993 -1.5946
 1393SOL     OW 7580   9.224   3.047   4.059 -0.2244 -0.5458 -0.3363
 1393SOL    HW1 7581   9.147   3.062   4.005 -0.5139 -1.2423 -0.1254
 1393SOL    HW2 7582   9.277   3.126   4.048  0.3485 -1.1641 -2.6636
 1394SOL     OW 7583   2.827   8.814   2.969 -0.2326 -0.4449  0.0421
 1394SOL    HW1 7584   2.740   8.850   2.989 -0.8672 -1.6839 -0.3824
 1394SOL    HW2 7585   2.868   8.881   2.914 -0.9916  0.0725  0.0804
 1395SOL     OW 7586   9.166  10.040   8.326 -0.7858 -0.1823 -0.2313
 1395SOL    HW1 7587   9.184   9.946   8.327 -0.5802 -0.2508 -2.8942
 1395SOL    HW2 7588   9.232  10.076   8.266 -0.0880  1.8902  1.6312
 1396SOL     OW 7589   0.311   6.661   1.885 -0.2290  0.2977  0.1627
 1396SOL    HW1 7590   0.329   6.725   1.953 -0.5979  1.3075 -0.6508
 1396SOL    HW2 7591   0.243   6.605   1.922 -0.1894  0.6289  0.7448
 1397SOL     OW 7592   5.367   5.920   4.256 -0.0387 -0.4485  0.1651
 1397SOL    HW1 7593   5.457   5.938   4.285  0.9433 -2.6198 -1.2737
 1397SOL    HW2 7594   5.356   5.826   4.270 -1.5618 -0.4829 -1.0739
 1398SOL     OW 7595   2.068   5.423   9.414  0.1839  0.0239  0.0285
 1398SOL    HW1 7596   1.981   5.427   9.375 -0.5378  0.1741  1.6017
 1398SOL    HW2 7597   2.054   5.384   9.500  1.6308  0.3406  0.4313
 1399SOL     OW 7598   4.061   3.090   4.976  0.9095 -1.2366  0.0145
 1399SOL    HW1 7599   4.093   3.177   4.951 -0.5846 -1.0455 -1.3800
 1399SOL    HW2 7600   4.110   3.029   4.920 -1.1371 -0.9317 -2.2680
 1400SOL     OW 7601   1.172   3.312   0.376  0.2836  0.3362  0.6234
 1400SOL    HW1 7602   1.136   3.315   0.464  3.2128  1.6882  1.9049
 1400SOL    HW2 7603   1.120   3.376   0.327 -0.0267  1.1484  1.9666
 1401SOL     OW 7604   2.126   3.949   1.999  0.4845 -0.3572  0.1272
 1401SOL    HW1 7605   2.131   3.949   1.904 -1.6585  2.2425 -0.0951
 1401SOL    HW2 7606   2.113   3.857   2.023 -0.5500 -0.8862 -2.2089
 1402SOL     OW 7607   8.441   5.387   2.305 -0.2967  0.0005  0.4286
 1402SOL    HW1 7608   8.381   5.317   2.331 -2.2213  0.7054 -1.6807
 1402SOL    HW2 7609   8.386   5.465   2.302  1.7526  1.6577  2.5791
 1403SOL     OW 7610   2.834   5.306   2.018  0.5668 -0.2174  0.0740
 1403SOL    HW1 7611   2.815   5.276   2.106  0.4551  0.1680  0.1825
 1403SOL    HW2 7612   2.896   5.241   1.983  0.0575 -0.7629  0.1757
 1404SOL     OW 7613   9.436   5.963  10.565 -0.1216  0.2979  0.0393
 1404SOL    HW1 7614   9.509   5.918  10.522  0.8609  1.4820  0.4064
 1404SOL    HW2 7615   9.391   5.895  10.614 -0.4313 -0.8228 -1.7312
 1405SOL     OW 7616   0.211   6.046   9.016 -0.3176 -0.0669  0.1174
 1405SOL    HW1 7617   0.169   5.975   9.064 -0.9097  1.0570  1.3197
 1405SOL    HW2 7618   0.156   6.059   8.938 -0.7323 -0.3040  0.3693
 1406SOL     OW 7619   2.799   3.047   1.563 -0.1172 -0.3705 -0.2437
 1406SOL    HW1 7620   2.793   2.971   1.620 -1.8952 -1.5142 -1.8116
 1406SOL    HW2 7621   2.870   3.026   1.502 -0.9561 -1.0819 -1.0139
 1407SOL     OW 7622   2.660   0.365   5.740  0.2126 -0.1675  0.0099
 1407SOL    HW1 7623   2.617   0.296   5.690  1.3404 -0.5826 -0.3975
 1407SOL    HW2 7624   2.594   0.434   5.746 -0.9874 -1.3106  0.5461
 1408SOL     OW 7625   9.220   7.718   0.906 -0.6121  0.4483  0.1636
 1408SOL    HW1 7626   9.230   7.708   1.001 -2.1228  1.6797  0.4920
 1408SOL    HW2 7627   9.134   7.759   0.895 -1.0979 -0.9453 -1.8237
 1409SOL     OW 7628   6.803   0.072   1.721  0.2702 -0.6157  0.1020
 1409SOL    HW1 7629   6.771   0.041   1.806 -0.4473 -1.5980 -0.5016
 1409SOL    HW2 7630   6.771   0.007   1.658 -1.1117  1.2226 -1.2102
 1410SOL     OW 7631   6.344   1.817   6.536  0.1832 -0.1015  0.1570
 1410SOL    HW1 7632   6.409   1.764   6.489  0.9410  2.1808 -1.5527
 1410SOL    HW2 7633   6.381   1.905   6.537 -2.2428  0.9903  0.3946
 1411SOL     OW 7634   8.369   7.974   6.794 -0.1252 -0.1168  0.0322
 1411SOL    HW1 7635   8.464   7.990   6.792 -0.0558 -0.1062  1.9968
 1411SOL    HW2 7636   8.332   8.043   6.738  0.9257  0.7951  0.4159
 1412SOL     OW 7637   6.793   7.361   0.895  0.4782 -0.1405 -0.4646
 1412SOL    HW1 7638   6.728   7.423   0.928  0.4938 -0.8386  0.9583
 1412SOL    HW2 7639   6.787   7.286   0.955  1.1380 -1.0929 -1.5592
 1413SOL     OW 7640   2.271   9.951   5.462  0.4209  0.2110  0.1408
 1413SOL    HW1 7641   2.178   9.937   5.481  0.1340  1.8014  0.0118
 1413SOL    HW2 7642   2.304  10.000   5.537  0.0040  3.7764 -1.7621
 1414SOL     OW 7643   6.121   3.034   0.012  0.4377  0.1062 -0.2109
 1414SOL    HW1 7644   6.184   3.086   0.063  1.9714 -3.0216  1.3341
 1414SOL    HW2 7645   6.100   3.089  -0.063  3.9229  1.9126 -0.0487
 1415SOL     OW 7646   9.701   7.083   9.555 -0.2614 -0.0806  0.4995
 1415SOL    HW1 7647   9.667   7.089   9.466 -1.0578  2.1843  0.8830
 1415SOL    HW2 7648   9.771   7.018   9.550  1.3843  1.6952 -2.3419
 1416SOL     OW 7649   2.415   6.443   5.847  0.7580 -0.4608 -0.0441
 1416SOL    HW1 7650   2.456   6.521   5.886 -0.2645  0.0008  0.1393
 1416SOL    HW2 7651   2.402   6.466   5.755 -1.2341  0.3445  0.3858
 1417SOL     OW 7652   8.352   5.232   8.112  0.3382  0.0913  0.2895
 1417SOL    HW1 7653   8.380   5.301   8.052 -0.9920 -0.7927 -1.4189
 1417SOL    HW2 7654   8.397   5.153   8.081  0.9501 -0.0612  1.5196
 1418SOL     OW 7655   7.948   0.673   5.579  0.7574  0.1055  0.2110
 1418SOL    HW1 7656   7.989   0.727   5.647 -0.6346  1.8207 -0.2154
 1418SOL    HW2 7657   7.859   0.709   5.570  0.2194 -1.4073 -1.0835
 1419SOL     OW 7658   0.695   5.777   3.759 -0.3904  0.1590  0.2403
 1419SOL    HW1 7659   0.709   5.693   3.803 -0.3911 -0.5494 -1.0578
 1419SOL    HW2 7660   0.736   5.842   3.817  0.9372 -0.9041  0.5503
 1420SOL     OW 7661   9.787   0.446   1.639 -0.5211 -0.1042  0.1305
 1420SOL    HW1 7662   9.842   0.510   1.684 -1.7386  1.4301 -0.4702
 1420SOL    HW2 7663   9.845   0.373   1.621  0.6948  0.4096  1.6899
 1421SOL     OW 7664   1.921   3.473   1.729 -0.1473  0.1588 -0.3445
 1421SOL    HW1 7665   1.863   3.544   1.698 -1.9273 -0.6288  1.0280
 1421SOL    HW2 7666   1.931   3.416   1.653 -0.3816  0.8135 -0.8785
 1422SOL     OW 7667   6.157   0.997   4.141  0.0587  0.0724 -0.2144
 1422SOL    HW1 7668   6.224   1.048   4.187 -1.2206  0.4607  1.2812
 1422SOL    HW2 7669   6.196   0.910   4.131  0.3140 -0.0889  1.8236
 1423SOL     OW 7670   5.296   1.366   3.622 -0.3467  0.5122 -0.1031
 1423SOL    HW1 7671   5.245   1.390   3.545 -0.8131 -0.8279 -0.2450
 1423SOL    HW2 7672   5.230   1.344   3.688  0.0521  0.9319  0.4431
 1424SOL     OW 7673   0.027   8.207   1.595 -0.1035  0.5586  0.1610
 1424SOL    HW1 7674   0.018   8.151   1.672 -0.2395  1.5846  0.9023
 1424SOL    HW2 7675   0.113   8.247   1.605 -0.0984  0.6557 -0.2621
 1425SOL     OW 7676   8.333   7.331   6.010  0.2668 -0.2090 -0.0392
 1425SOL    HW1 7677   8.271   7.346   6.081  0.7780 -1.0392  0.6019
 1425SOL    HW2 7678   8.382   7.413   6.004 -0.2130  0.0959  0.1237
 1426SOL     OW 7679   9.792   4.940   7.810  0.7458 -0.3162 -0.1204
 1426SOL    HW1 7680   9.874   4.982   7.837  1.3908 -0.9928 -0.9885
 1426SOL    HW2 7681   9.775   4.875   7.878  1.1031 -0.3931 -0.1005
 1427SOL     OW 7682  10.828   9.655   9.691 -0.1401  0.4527  0.7211
 1427SOL    HW1 7683  10.764   9.672   9.760 -0.9536 -0.2596  0.1526
 1427SOL    HW2 7684  10.890   9.593   9.729  0.4573  1.4177  1.3949
 1428SOL     OW 7685   9.602   5.579   5.808  0.0114 -0.3047 -0.0737
 1428SOL    HW1 7686   9.652   5.502   5.783  0.4455 -0.3460  0.8533
 1428SOL    HW2 7687   9.618   5.643   5.739  1.0972 -0.4329  0.0492
 1429SOL     OW 7688   2.763   1.360  10.079  0.2040 -0.2618 -0.3518
 1429SOL    HW1 7689   2.766   1.265  10.087  1.5829 -0.1398  0.9301
 1429SOL    HW2 7690   2.793   1.392  10.164 -3.2405  1.3621  0.4330
 1430SOL     OW 7691   8.252   7.917   3.245  0.2502 -0.6339  0.2629
 1430SOL    HW1 7692   8.277   7.841   3.193  0.5831 -1.0993  1.0888
 1430SOL    HW2 7693   8.179   7.887   3.298  0.4814 -0.4354  0.7048
 1431SOL     OW 7694  10.715   9.824   5.399  0.7105 -0.4581 -0.1582
 1431SOL    HW1 7695  10.662   9.904   5.400  1.2950 -0.0604 -0.3393
 1431SOL    HW2 7696  10.801   9.853   5.367  0.6242 -1.3554 -1.2386
 1432SOL     OW 7697   2.540  10.850  10.394  0.6499  0.1286  0.4207
 1432SOL    HW1 7698   2.510  10.795  10.466  0.6991 -1.0325 -0.4141
 1432SOL    HW2 7699   2.600  10.794  10.344  1.6249  1.3233  0.1882
 1433SOL     OW 7700  10.419   8.541   4.889  0.2367  0.3953 -0.4181
 1433SOL    HW1 7701  10.329   8.575   4.890  0.2600  0.4527 -0.2579
 1433SOL    HW2 7702  10.413   8.456   4.933  0.4470  0.8661  0.5292
 1434SOL     OW 7703  10.811   6.506  10.116  0.0624  0.9523 -0.5564
 1434SOL    HW1 7704  10.732   6.523  10.168  0.8380  0.5646  0.8009
 1434SOL    HW2 7705  10.873   6.573  10.145  1.6606 -1.2790  1.6162
 1435SOL     OW 7706   8.786   0.470   2.553 -0.0321  0.2027  0.3896
 1435SOL    HW1 7707   8.738   0.497   2.475  0.8185  0.7068  0.0312
 1435SOL    HW2 7708   8.808   0.551   2.599 -0.1560 -0.0636  0.9382
 1436SOL     OW 7709   8.502   6.119   4.637 -0.2349 -0.0021 -0.4291
 1436SOL    HW1 7710   8.461   6.046   4.591 -0.8458 -1.4876  2.2512
 1436SOL    HW2 7711   8.520   6.085   4.725  2.7690  1.9894 -0.1231
 1437SOL     OW 7712   1.645   6.031   9.907  0.5774  0.1655 -0.4721
 1437SOL    HW1 7713   1.591   6.089   9.854 -0.7395 -0.5198  0.0955
 1437SOL    HW2 7714   1.587   5.960   9.933  1.2755  0.2497  1.5178
 1438SOL     OW 7715   8.123   9.934   8.405 -0.6856 -0.7533 -0.0475
 1438SOL    HW1 7716   8.132   9.873   8.332 -0.3814 -0.6833 -0.0700
 1438SOL    HW2 7717   8.206   9.929   8.451  0.2220  1.2115 -1.2956
 1439SOL     OW 7718   3.971  10.545   1.882  0.1191 -0.2597 -0.2619
 1439SOL    HW1 7719   3.909  10.614   1.906 -1.1517 -1.7408  0.9439
 1439SOL    HW2 7720   4.057  10.587   1.887 -0.7513  2.1648 -3.0625
 1440SOL     OW 7721   2.430  10.579   4.067  0.0568  0.0447 -0.3289
 1440SOL    HW1 7722   2.493  10.615   4.131 -0.9980  1.3750  0.0209
 1440SOL    HW2 7723   2.387  10.657   4.030 -1.2510 -0.8190 -0.6848
 1441SOL     OW 7724   8.900   8.108   1.868  0.1084 -0.2985 -0.3863
 1441SOL    HW1 7725   8.967   8.176   1.877 -1.3373  1.4731 -2.0575
 1441SOL    HW2 7726   8.901   8.085   1.775 -3.2620  1.7670 -1.1170
 1442SOL     OW 7727   9.070   6.044   7.092  0.2650  0.3130  0.3541
 1442SOL    HW1 7728   9.115   6.127   7.076  0.6559 -0.0117 -0.2581
 1442SOL    HW2 7729   9.111   6.009   7.171  0.2635  0.5894  0.4768
 1443SOL     OW 7730   9.658   4.545   5.770 -0.1376 -0.6980  0.6301
 1443SOL    HW1 7731   9.571   4.585   5.758 -0.1291 -0.9386 -0.2947
 1443SOL    HW2 7732   9.640   4.451   5.775  0.0620 -0.7439  0.4900
 1444SOL     OW 7733   4.755   2.065   1.621 -0.3493  0.2573  0.1670
 1444SOL    HW1 7734   4.830   2.029   1.575 -1.2559  0.7356 -1.8003
 1444SOL    HW2 7735   4.747   2.011   1.700  1.1810 -0.7219 -0.3031
 1445SOL     OW 7736   9.246   9.233   9.972 -0.4057  0.1030  0.1260
 1445SOL    HW1 7737   9.187   9.161   9.952 -0.0949 -0.1423  0.0858
 1445SOL    HW2 7738   9.237   9.245  10.067 -3.3044  2.5139 -0.3068
 1446SOL     OW 7739   0.197   7.913   5.924  0.6554  0.0602 -0.0720
 1446SOL    HW1 7740   0.123   7.876   5.874  1.3706 -1.0484 -0.3548
 1446SOL    HW2 7741   0.156   7.973   5.985 -0.4927 -0.4630 -0.2869
 1447SOL     OW 7742  10.703   5.748   7.211  0.2771  0.1633  0.4286
 1447SOL    HW1 7743  10.640   5.757   7.139  0.8845 -0.8035 -0.2419
 1447SOL    HW2 7744  10.678   5.666   7.254  0.4461  0.3049  0.7970
 1448SOL     OW 7745   8.284   5.172   8.604  0.2633 -0.3061  0.6258
 1448SOL    HW1 7746   8.298   5.077   8.601  0.2764 -0.2823 -0.5287
 1448SOL    HW2 7747   8.271   5.191   8.696 -0.4436 -1.5466  0.8140
 1449SOL     OW 7748   0.024   1.267   8.939  0.1055 -0.0072 -0.4326
 1449SOL    HW1 7749   0.005   1.175   8.956 -0.0476 -0.0125 -0.6302
 1449SOL    HW2 7750  -0.037   1.315   8.996  1.5117 -0.0207  1.1485
 1450SOL     OW 7751   0.430   8.521   5.715  0.1255  0.2172 -0.5073
 1450SOL    HW1 7752   0.413   8.433   5.682 -1.0916  0.4331 -0.4750
 1450SOL    HW2 7753   0.505   8.551   5.664 -0.6539 -0.1071 -1.8898
 1451SOL     OW 7754   1.944  10.098   8.311  0.1617 -0.1452  0.1742
 1451SOL    HW1 7755   1.994  10.071   8.388  0.6659 -1.8987 -0.7091
 1451SOL    HW2 7756   1.992  10.173   8.276  0.2621  0.2880  1.2151
 1452SOL     OW 7757   4.701   2.786   9.751  0.1856  0.0984  0.2129
 1452SOL    HW1 7758   4.750   2.736   9.685 -0.6420  1.0567 -1.1969
 1452SOL    HW2 7759   4.762   2.793   9.825  0.3240 -2.9263  0.5038
 1453SOL     OW 7760   6.664   2.174   6.143 -0.5536 -0.1246  0.1420
 1453SOL    HW1 7761   6.720   2.096   6.149 -1.0375 -0.4592  0.3777
 1453SOL    HW2 7762   6.601   2.153   6.074 -0.5374  0.1521  0.0437
 1454SOL     OW 7763   2.890   2.960  10.214 -0.2612 -0.0481 -0.3926
 1454SOL    HW1 7764   2.837   3.036  10.237  2.0436  1.4462  0.4094
 1454SOL    HW2 7765   2.951   2.950  10.288  2.4097  0.1735 -2.3972
 1455SOL     OW 7766   3.771   0.987   5.008 -1.1254  0.0498  0.2727
 1455SOL    HW1 7767   3.704   0.982   5.076 -0.5776 -0.7884  0.7648
 1455SOL    HW2 7768   3.799   0.897   4.995 -0.8588  0.2592 -0.7127
 1456SOL     OW 7769   6.185   5.938   2.199 -0.8123  0.2281 -0.5039
 1456SOL    HW1 7770   6.271   5.926   2.237 -0.6159  2.0008 -0.3034
 1456SOL    HW2 7771   6.124   5.904   2.264 -0.4484  2.5397  1.1436
 1457SOL     OW 7772  10.335   3.000   2.799  0.1386  0.3009  0.0591
 1457SOL    HW1 7773  10.403   3.063   2.773 -0.3575  1.4297  1.3755
 1457SOL    HW2 7774  10.273   3.052   2.851 -0.7977 -1.0927  0.3883
 1458SOL     OW 7775   5.213   5.002   2.476  0.2431 -0.4281 -0.2484
 1458SOL    HW1 7776   5.252   4.914   2.471  1.3902  0.0404  0.1250
 1458SOL    HW2 7777   5.199   5.027   2.385 -1.3126 -1.4920 -0.3490
 1459SOL     OW 7778   3.842   8.768   1.010  0.4856  0.5125  0.7071
 1459SOL    HW1 7779   3.760   8.811   0.984 -0.6242 -0.0695  2.9415
 1459SOL    HW2 7780   3.865   8.712   0.936 -0.6774  1.3346 -0.3094
 1460SOL     OW 7781   2.065   0.712   9.304 -0.7889  0.3696  0.7512
 1460SOL    HW1 7782   2.064   0.617   9.319 -1.8831  0.1361 -0.6398
 1460SOL    HW2 7783   2.063   0.750   9.392 -0.6362 -0.8880  1.3216
 1461SOL     OW 7784  10.031   5.601   1.184 -0.3153  0.0175 -0.2980
 1461SOL    HW1 7785  10.019   5.617   1.091 -0.3935 -1.9979 -0.6686
 1461SOL    HW2 7786  10.046   5.688   1.222  1.2064  0.7354 -2.3840
 1462SOL     OW 7787  10.396  10.302   4.831 -0.3736 -0.1957 -0.5574
 1462SOL    HW1 7788  10.344  10.373   4.870 -0.0965  0.2685 -1.0237
 1462SOL    HW2 7789  10.398  10.322   4.738 -2.2836 -2.0984 -1.0926
 1463SOL     OW 7790  10.812   4.932   6.628 -0.4337  0.3069 -0.0913
 1463SOL    HW1 7791  10.786   4.932   6.720 -1.0345 -0.8905 -0.2341
 1463SOL    HW2 7792  10.907   4.940   6.629 -0.3783 -0.3773  0.6622
 1464SOL     OW 7793  10.571   7.572   6.229 -0.0978 -0.3093 -0.0550
 1464SOL    HW1 7794  10.625   7.493   6.227  1.9980  1.0093  0.7168
 1464SOL    HW2 7795  10.590   7.612   6.314 -1.3942  0.8561 -0.2610
 1465SOL     OW 7796  10.264   0.782   9.488 -0.3329  0.0248 -0.1058
 1465SOL    HW1 7797  10.181   0.830   9.491 -0.2036  0.3088 -0.8125
 1465SOL    HW2 7798  10.242   0.697   9.450  0.0377  0.9000 -2.4160
 1466SOL     OW 7799   6.222   0.042   2.821 -0.0187 -0.3772  0.1858
 1466SOL    HW1 7800   6.226   0.138   2.825 -1.0347 -0.3541  1.0754
 1466SOL    HW2 7801   6.310   0.016   2.797  0.9013  0.6931  2.1389
 1467SOL     OW 7802   6.192   5.234  10.624 -0.1518  0.1117  0.2279
 1467SOL    HW1 7803   6.230   5.155  10.586  1.7887  1.3242 -0.4883
 1467SOL    HW2 7804   6.146   5.277  10.552  1.2168  1.0397 -0.1221
 1468SOL     OW 7805   0.045  10.188   8.273 -0.0641 -0.3647 -0.2519
 1468SOL    HW1 7806   0.102  10.212   8.346 -0.6682  0.6346 -0.0971
 1468SOL    HW2 7807   0.035  10.268   8.223 -0.5568 -0.7745 -0.8191
 1469SOL     OW 7808   0.657  10.338   9.686 -0.0758  0.0361  0.1906
 1469SOL    HW1 7809   0.600  10.271   9.650 -0.8091  0.1334  1.1401
 1469SOL    HW2 7810   0.645  10.414   9.629 -0.7368 -0.0148  0.2609
 1470SOL     OW 7811   9.682   0.695   5.343 -0.2304  0.0240 -0.4382
 1470SOL    HW1 7812   9.635   0.762   5.293 -0.8483 -0.5708 -0.6815
 1470SOL    HW2 7813   9.652   0.708   5.433 -1.4372 -0.7843 -0.6904
 1471SOL     OW 7814   2.012   1.035   9.035 -0.5519  0.3226  0.1665
 1471SOL    HW1 7815   1.961   0.967   8.991 -0.4055  0.3683 -0.0789
 1471SOL    HW2 7816   2.011   1.108   8.974  3.2666 -1.0349 -1.8348
 1472SOL     OW 7817   9.245   7.086  10.320  0.4429 -0.2116  0.1105
 1472SOL    HW1 7818   9.186   7.087  10.395  1.4338 -0.1350  0.8953
 1472SOL    HW2 7819   9.243   6.996  10.288 -0.0850 -0.2097  0.1322
 1473SOL     OW 7820   0.844   0.269   6.016 -0.3339  0.3114  0.2347
 1473SOL    HW1 7821   0.874   0.186   6.054  0.3339  0.9842  1.2448
 1473SOL    HW2 7822   0.749   0.258   6.007 -0.1200 -0.9616 -0.6975
 1474SOL     OW 7823   6.952   4.442   2.044  0.0969  0.2917 -0.7769
 1474SOL    HW1 7824   6.902   4.366   2.015  1.2003 -0.9412  0.4247
 1474SOL    HW2 7825   7.043   4.413   2.046  0.4545  1.3563  0.5589
 1475SOL     OW 7826   0.685   8.056   3.596 -0.1796  0.1118  0.0573
 1475SOL    HW1 7827   0.593   8.033   3.614 -0.1689  0.1124  0.1131
 1475SOL    HW2 7828   0.706   8.008   3.516 -1.4240  3.1281 -2.2556
 1476SOL     OW 7829   0.764   9.453   5.874 -0.2988  0.4409 -0.0943
 1476SOL    HW1 7830   0.778   9.513   5.801  1.9817  2.1270  1.5433
 1476SOL    HW2 7831   0.746   9.510   5.949  3.8595 -0.5023  1.9700
 1477SOL     OW 7832   2.595   6.886   0.339  0.2144 -0.4912  0.2033
 1477SOL    HW1 7833   2.581   6.834   0.260 -0.4108  0.4929 -0.3526
 1477SOL    HW2 7834   2.598   6.977   0.308 -0.0667 -0.0886  1.3034
 1478SOL     OW 7835   2.983   0.696   0.022 -0.5200 -0.0983 -0.4422
 1478SOL    HW1 7836   3.000   0.741  -0.061 -1.0216 -0.4706 -0.7547
 1478SOL    HW2 7837   2.901   0.650   0.008 -0.7377  0.0265  0.3474
 1479SOL     OW 7838  10.185   3.822   8.618 -0.0155  0.1149 -0.4102
 1479SOL    HW1 7839  10.091   3.828   8.629  0.1202 -0.6761  1.3591
 1479SOL    HW2 7840  10.199   3.741   8.568 -0.2734  0.4200 -0.9879
 1480SOL     OW 7841   0.998   5.796   6.998 -0.7544  0.5926 -0.3218
 1480SOL    HW1 7842   0.939   5.820   6.927  0.7009  1.1509 -1.4040
 1480SOL    HW2 7843   1.067   5.863   6.995  1.4681 -1.5601 -0.9969
 1481SOL     OW 7844   3.740   0.319   5.574  0.0705 -0.4851  0.4488
 1481SOL    HW1 7845   3.822   0.272   5.587 -0.4355 -1.8395 -0.9445
 1481SOL    HW2 7846   3.678   0.277   5.635  0.4279  0.7145  1.6972
 1482SOL     OW 7847   1.205   4.518  10.598 -0.3237  0.2680  0.1870
 1482SOL    HW1 7848   1.256   4.453  10.549  0.8509  1.2869 -0.0032
 1482SOL    HW2 7849   1.114   4.502  10.573 -0.2081 -2.0310  1.0263
 1483SOL     OW 7850   8.661   1.091   6.598 -0.3568  0.5573 -0.2418
 1483SOL    HW1 7851   8.710   1.160   6.642  0.2014 -1.5460  2.7234
 1483SOL    HW2 7852   8.713   1.071   6.520  1.7749  0.6674  1.0752
 1484SOL     OW 7853   9.192   4.856   6.401  0.0551 -0.5377  0.5963
 1484SOL    HW1 7854   9.240   4.912   6.339 -1.2570 -1.3736 -1.2659
 1484SOL    HW2 7855   9.170   4.778   6.351  0.7250 -2.2212  2.7706
 1485SOL     OW 7856   6.217   4.554   2.123  0.7422 -1.0376 -0.4917
 1485SOL    HW1 7857   6.243   4.645   2.105  0.7742 -0.5767  1.6272
 1485SOL    HW2 7858   6.259   4.503   2.055  1.6253  0.4259 -1.0881
 1486SOL     OW 7859   4.153   4.713   0.827  0.0890  0.1474 -0.1532
 1486SOL    HW1 7860   4.121   4.741   0.742  0.1735 -0.8077 -0.5121
 1486SOL    HW2 7861   4.154   4.793   0.880 -0.0959  0.7220 -0.9991
 1487SOL     OW 7862   2.012   5.744   0.244  0.5941 -0.1411 -0.0966
 1487SOL    HW1 7863   1.924   5.734   0.209 -0.2410  1.8403  1.2191
 1487SOL    HW2 7864   2.064   5.679   0.197 -1.6905 -1.9251 -0.3856
 1488SOL     OW 7865   4.968  10.648   5.236  0.7660 -0.5450 -0.2717
 1488SOL    HW1 7866   4.917  10.728   5.250 -0.3632 -1.2463 -0.1704
 1488SOL    HW2 7867   5.008  10.660   5.150  2.2395  0.9495  0.5713
 1489SOL     OW 7868   5.754   3.365   2.002 -0.0447 -0.1528  0.5738
 1489SOL    HW1 7869   5.843   3.386   1.975  0.2714 -2.9540 -1.0136
 1489SOL    HW2 7870   5.756   3.369   2.097  1.1908  1.8152  0.5048
 1490SOL     OW 7871   4.080   1.369   1.394 -0.3794 -0.4307  1.0060
 1490SOL    HW1 7872   4.171   1.395   1.381 -0.5960 -0.2755 -0.3369
 1490SOL    HW2 7873   4.029   1.446   1.369 -0.9134 -1.0083  0.2622
 1491SOL     OW 7874   4.506   3.432   2.687 -0.0697  0.3844 -0.3418
 1491SOL    HW1 7875   4.454   3.421   2.767 -1.7687 -1.4669 -1.5927
 1491SOL    HW2 7876   4.445   3.470   2.625  1.0460  1.1881 -0.9675
 1492SOL     OW 7877   6.443   3.004   5.065  0.3526  0.2202  0.0095
 1492SOL    HW1 7878   6.490   3.086   5.085 -0.1324  0.2695  1.0172
 1492SOL    HW2 7879   6.464   2.947   5.138  0.6661 -0.5617 -0.6819
 1493SOL     OW 7880   4.492   7.591   1.392 -0.1384  0.4570  0.3686
 1493SOL    HW1 7881   4.504   7.685   1.404 -0.5458  0.4353  0.9799
 1493SOL    HW2 7882   4.433   7.584   1.317 -2.5270  0.8181  2.0829
 1494SOL     OW 7883   5.297   4.773   8.993 -0.4040  0.4949 -0.6540
 1494SOL    HW1 7884   5.303   4.797   9.086 -0.3302  2.7021 -1.1673
 1494SOL    HW2 7885   5.258   4.686   8.993  2.7303 -1.1026  1.5719
 1495SOL     OW 7886   8.688  10.601   8.285 -0.3857  0.0703 -0.7651
 1495SOL    HW1 7887   8.622  10.669   8.300 -1.1855 -0.6913 -0.7477
 1495SOL    HW2 7888   8.637  10.521   8.272  0.5837 -0.8773  0.9630
 1496SOL     OW 7889   5.914   4.982   4.809 -0.0831 -0.0615 -0.1290
 1496SOL    HW1 7890   5.965   4.902   4.817 -0.3259 -0.5600 -2.6182
 1496SOL    HW2 7891   5.919   5.004   4.716 -0.7418  2.3456  0.3367
 1497SOL     OW 7892   9.854   5.968   8.064 -0.5952 -0.2537  0.1447
 1497SOL    HW1 7893   9.922   5.908   8.096 -1.4034 -2.1640 -1.4583
 1497SOL    HW2 7894   9.834   5.936   7.976 -2.1873  1.4597 -0.1712
 1498SOL     OW 7895   9.797   9.701   3.004  0.6427  0.4526 -0.2796
 1498SOL    HW1 7896   9.887   9.733   3.019  0.1464  1.2173  1.3187
 1498SOL    HW2 7897   9.793   9.618   3.052  1.3167 -1.1121 -2.7582
 1499SOL     OW 7898   0.064   0.391   9.725  0.0457  0.8634  0.1717
 1499SOL    HW1 7899  -0.010   0.430   9.678 -0.1041 -1.3584 -1.6128
 1499SOL    HW2 7900   0.024   0.340   9.795 -0.1606 -0.2564 -0.7315
 1500SOL     OW 7901   6.477   3.561   6.834 -0.4045 -0.1679  0.0049
 1500SOL    HW1 7902   6.445   3.560   6.924  0.5544 -0.0151  0.3660
 1500SOL    HW2 7903   6.529   3.480   6.827  1.9437  1.1960  0.5427
 1501SOL     OW 7904   0.117   9.743   6.369  0.4046  0.5330 -0.1491
 1501SOL    HW1 7905   0.154   9.683   6.304  1.4902  1.5191 -0.4892
 1501SOL    HW2 7906   0.024   9.749   6.346  0.0537 -1.7109  0.4766
 1502SOL     OW 7907   5.585   4.889   3.741 -0.0504 -0.1294 -0.2237
 1502SOL    HW1 7908   5.663   4.923   3.785  0.5531 -0.5166 -0.9533
 1502SOL    HW2 7909   5.594   4.794   3.747  0.4964 -0.2232 -1.8684
 1503SOL     OW 7910   2.258   2.045   0.697 -0.1281  0.1103  0.3139
 1503SOL    HW1 7911   2.304   2.085   0.771  2.5517  0.2791 -1.3022
 1503SOL    HW2 7912   2.317   2.057   0.623 -2.3016 -0.8140 -1.7093
 1504SOL     OW 7913   2.517   0.249  10.068  0.4336 -0.3322 -0.2255
 1504SOL    HW1 7914   2.517   0.342  10.088  1.3400 -0.4008  0.1265
 1504SOL    HW2 7915   2.518   0.206  10.153  0.0974 -0.6682 -0.3867
 1505SOL     OW 7916   2.081   6.374   1.352  0.1519  0.3258 -0.4092
 1505SOL    HW1 7917   2.019   6.446   1.342 -0.8044 -0.3406  0.4904
 1505SOL    HW2 7918   2.163   6.407   1.316 -0.4239  1.6455 -0.5439
 1506SOL     OW 7919  10.886   2.038   5.156 -0.4116  0.2153 -0.7191
 1506SOL    HW1 7920  10.850   1.953   5.128  2.8128 -1.6891  0.4095
 1506SOL    HW2 7921  10.899   2.028   5.250 -0.3906  2.1933 -0.4808
 1507SOL     OW 7922   0.933   0.060   2.520 -0.0560 -0.0705  0.0979
 1507SOL    HW1 7923   0.955   0.148   2.487  0.3887 -1.0170 -2.3949
 1507SOL    HW2 7924   1.015   0.011   2.513 -0.3540 -0.7754  1.2521
 1508SOL     OW 7925   1.662   6.723   2.562 -0.0773  0.0407 -0.4890
 1508SOL    HW1 7926   1.744   6.718   2.512  1.3551 -0.0539  1.7692
 1508SOL    HW2 7927   1.630   6.633   2.566  0.1765 -0.0536 -0.5904
 1509SOL     OW 7928   3.766  10.475   2.543 -0.4921  0.2995  0.1915
 1509SOL    HW1 7929   3.758  10.568   2.518 -0.2572 -0.3242 -2.6157
 1509SOL    HW2 7930   3.691  10.434   2.500 -0.0294 -0.9498  0.5612
 1510SOL     OW 7931   4.411   6.999   0.311 -0.1541  0.0651 -0.5231
 1510SOL    HW1 7932   4.352   7.001   0.235 -0.6680 -1.4065 -0.2105
 1510SOL    HW2 7933   4.414   6.906   0.336  2.5077  0.0418 -0.6688
 1511SOL     OW 7934   7.620  10.414   3.561  0.0012  0.1856 -0.4601
 1511SOL    HW1 7935   7.695  10.473   3.571  0.3359  0.0972 -2.0985
 1511SOL    HW2 7936   7.547  10.472   3.537  0.1247  0.0493 -1.2054
 1512SOL     OW 7937   2.753   9.294   7.730 -0.2558  0.3060 -0.3156
 1512SOL    HW1 7938   2.704   9.338   7.800  0.6290  0.5531  0.1584
 1512SOL    HW2 7939   2.685   9.266   7.668 -1.1332 -0.6574  1.0324
 1513SOL     OW 7940   0.153   8.482   5.540  0.1856 -0.3117  0.3020
 1513SOL    HW1 7941   0.189   8.398   5.570 -0.9267 -0.8221  0.2552
 1513SOL    HW2 7942   0.198   8.548   5.593  1.3834 -0.8999  0.0523
 1514SOL     OW 7943   1.408   4.471   1.297 -0.0265 -0.8743 -0.1201
 1514SOL    HW1 7944   1.489   4.490   1.344 -0.1547 -0.3915 -0.0920
 1514SOL    HW2 7945   1.416   4.517   1.214 -0.2639 -0.8447 -0.1272
 1515SOL     OW 7946   0.681   5.990   1.475 -0.6873 -0.6251  0.2475
 1515SOL    HW1 7947   0.728   5.984   1.392 -0.0438 -0.7105  0.6061
 1515SOL    HW2 7948   0.750   5.994   1.541 -1.1130  1.9633  0.6480
 1516SOL     OW 7949  10.363   6.781   0.129  0.2004  0.3683  0.0726
 1516SOL    HW1 7950  10.338   6.706   0.182  0.9023  0.2763  0.2773
 1516SOL    HW2 7951  10.414   6.837   0.188  3.0024 -0.8327 -1.0626
 1517SOL     OW 7952   6.524   3.016   6.304 -0.1136 -0.3178  0.1876
 1517SOL    HW1 7953   6.481   2.940   6.264 -1.1188 -0.1135  0.8534
 1517SOL    HW2 7954   6.462   3.046   6.371  0.8830  0.2392  0.8879
 1518SOL     OW 7955   0.985   1.525   6.901  0.4554 -0.2857 -0.5963
 1518SOL    HW1 7956   0.963   1.459   6.836  0.6516 -0.5063 -0.4387
 1518SOL    HW2 7957   0.914   1.589   6.895  0.5093 -0.2624 -1.0804
 1519SOL     OW 7958   9.137   6.252   2.988 -0.4565 -0.1353  0.0536
 1519SOL    HW1 7959   9.230   6.270   3.001 -0.5853 -0.2958  1.3288
 1519SOL    HW2 7960   9.098   6.264   3.074 -1.1597 -2.8028  0.2060
 1520SOL     OW 7961   8.270   0.527   7.301  0.2680 -0.0613  0.2281
 1520SOL    HW1 7962   8.259   0.557   7.391  1.7010  1.4614 -0.0431
 1520SOL    HW2 7963   8.186   0.542   7.259 -0.2990 -0.4472  1.2006
 1521SOL     OW 7964   4.960   6.786   4.886 -0.3991  0.3497 -0.2192
 1521SOL    HW1 7965   4.871   6.787   4.922 -1.0506  0.9052 -1.7365
 1521SOL    HW2 7966   4.956   6.721   4.816  0.3427  0.5044 -0.4088
 1522SOL     OW 7967   2.835   7.460   0.463 -0.9083 -0.1430  0.1561
 1522SOL    HW1 7968   2.803   7.435   0.549 -0.8971 -0.2703  0.1239
 1522SOL    HW2 7969   2.926   7.431   0.462 -1.3078 -1.4662 -0.4254
 1523SOL     OW 7970   4.600   6.198   4.189  0.1325 -0.2539 -0.2887
 1523SOL    HW1 7971   4.529   6.234   4.242  2.2756  1.7216  1.5079
 1523SOL    HW2 7972   4.633   6.273   4.138 -1.2581 -1.8887 -3.9454
 1524SOL     OW 7973   6.100   2.897   7.885 -0.0266 -0.2513 -0.0968
 1524SOL    HW1 7974   6.128   2.806   7.885  0.4599 -0.1041 -0.6710
 1524SOL    HW2 7975   6.156   2.940   7.950 -0.4272 -0.4057  0.3582
 1525SOL     OW 7976  10.300   5.960   1.963 -0.9085  0.5693  0.1269
 1525SOL    HW1 7977  10.234   6.020   1.927  0.5432  2.6765  0.8081
 1525SOL    HW2 7978  10.274   5.948   2.054 -1.3337 -0.0646 -0.0714
 1526SOL     OW 7979   7.683   6.925   9.015 -0.2639 -0.3897  0.2711
 1526SOL    HW1 7980   7.608   6.867   9.015  0.1271 -0.9060  0.2092
 1526SOL    HW2 7981   7.756   6.870   9.043  0.3671 -0.2794 -1.0809
 1527SOL     OW 7982   6.851   3.846   1.343  0.4193 -0.8041  0.4302
 1527SOL    HW1 7983   6.870   3.852   1.437  0.5158  1.9025  0.3219
 1527SOL    HW2 7984   6.784   3.913   1.328  0.2601 -1.3258 -1.4136
 1528SOL     OW 7985   2.579   5.980   4.582 -0.1060 -0.5678 -0.0281
 1528SOL    HW1 7986   2.648   6.046   4.592 -1.5575  1.3302 -1.5414
 1528SOL    HW2 7987   2.543   5.970   4.670  1.1700 -0.5416  0.5224
 1529SOL     OW 7988   0.517   6.504   4.012 -0.2645 -0.3108 -0.6475
 1529SOL    HW1 7989   0.556   6.460   3.936  0.2068 -0.4301 -0.3393
 1529SOL    HW2 7990   0.592   6.531   4.065 -0.6025 -1.5274  0.5156
 1530SOL     OW 7991  10.221   0.688   6.655 -0.3173  0.2386 -0.1549
 1530SOL    HW1 7992  10.304   0.671   6.610  0.1958 -0.1270  0.9186
 1530SOL    HW2 7993  10.165   0.616   6.628 -0.2155  0.3444 -0.6752
 1531SOL     OW 7994   3.238   0.507   8.931 -0.1541  0.3029  0.9710
 1531SOL    HW1 7995   3.204   0.566   8.864  2.5153  1.2937  0.3396
 1531SOL    HW2 7996   3.261   0.427   8.883  1.1044  0.7520  0.7887
 1532SOL     OW 7997   3.597   3.061   8.427 -0.5519 -0.5902 -0.1035
 1532SOL    HW1 7998   3.690   3.050   8.408 -0.0420  0.6180  1.4680
 1532SOL    HW2 7999   3.593   3.134   8.489 -2.4694 -1.2687  0.6632
 1533SOL     OW 8000   1.773   1.703   7.932  0.4562 -0.0094  0.2485
 1533SOL    HW1 8001   1.848   1.749   7.971 -1.2987  1.4733  2.1228
 1533SOL    HW2 8002   1.699   1.763   7.944 -0.9073 -0.9826 -2.4034
 1534SOL     OW 8003   0.764   4.334   5.039 -0.0735  0.3836  0.0319
 1534SOL    HW1 8004   0.815   4.340   5.120  1.1497 -0.4060 -0.6530
 1534SOL    HW2 8005   0.820   4.286   4.978 -2.4751 -2.6746 -0.0789
 1535SOL     OW 8006   6.687   1.664   0.109  0.4214 -0.0134 -0.4552
 1535SOL    HW1 8007   6.664   1.619   0.190 -0.2839  1.4944  0.2085
 1535SOL    HW2 8008   6.783   1.670   0.112  0.4074 -0.0525  0.2152
 1536SOL     OW 8009   6.879   8.786   4.510  0.6590 -0.0151  0.8084
 1536SOL    HW1 8010   6.972   8.770   4.527  0.9361  0.8821  0.1805
 1536SOL    HW2 8011   6.875   8.815   4.420 -0.1988  0.3299  0.9447
 1537SOL     OW 8012  10.229   1.005   4.271  0.1017  0.8448 -0.3801
 1537SOL    HW1 8013  10.288   0.941   4.311  2.0562  1.9198 -1.3705
 1537SOL    HW2 8014  10.171   0.953   4.216  1.0956 -0.1576 -0.5079
 1538SOL     OW 8015   1.910   5.520   4.713  0.3087  0.0654  0.0842
 1538SOL    HW1 8016   1.816   5.514   4.728  0.4791 -1.1071  0.7704
 1538SOL    HW2 8017   1.949   5.457   4.774  1.5055  0.1251 -0.5792
 1539SOL     OW 8018   7.800   1.857   9.277 -0.2965 -0.2574 -0.4149
 1539SOL    HW1 8019   7.772   1.848   9.186 -0.8375 -1.4288 -0.1616
 1539SOL    HW2 8020   7.731   1.814   9.328 -0.3575  1.0010  0.6146
 1540SOL     OW 8021   7.703   5.666   0.636 -0.0866 -0.1046 -0.3870
 1540SOL    HW1 8022   7.789   5.624   0.634  0.6977  1.3856  0.3558
 1540SOL    HW2 8023   7.676   5.669   0.544 -0.8301 -3.3809 -0.4036
 1541SOL     OW 8024  10.301   9.420   6.208 -0.6717  0.1580  0.0707
 1541SOL    HW1 8025  10.254   9.501   6.192 -0.1049  0.5319  0.2741
 1541SOL    HW2 8026  10.335   9.394   6.122 -1.0764 -0.0150 -0.0427
 1542SOL     OW 8027   9.321   5.204   5.183  0.2966 -0.5066  0.0369
 1542SOL    HW1 8028   9.337   5.298   5.191  0.2131 -0.3315 -1.5389
 1542SOL    HW2 8029   9.231   5.193   5.214  0.0089  0.0783 -0.5608
 1543SOL     OW 8030   8.467   5.059   7.014 -0.8191 -0.0569  0.0582
 1543SOL    HW1 8031   8.404   5.131   7.008  0.7299  1.2996 -0.8056
 1543SOL    HW2 8032   8.498   5.047   6.924  0.2914 -0.5529  0.4957
 1544SOL     OW 8033   9.110   4.969   0.509 -0.2993  0.5974 -0.3976
 1544SOL    HW1 8034   9.026   4.932   0.536  0.3198 -0.9244 -0.4091
 1544SOL    HW2 8035   9.130   5.036   0.574 -0.7868 -0.1211  0.5112
 1545SOL     OW 8036   1.936   7.294   4.672 -0.2841  0.3127  0.3127
 1545SOL    HW1 8037   1.890   7.276   4.754 -0.6567 -0.4957 -0.0596
 1545SOL    HW2 8038   1.952   7.388   4.673 -1.1450  0.4649  0.8625
 1546SOL     OW 8039   5.215   0.767   8.636 -0.2929  0.1679  0.0726
 1546SOL    HW1 8040   5.238   0.737   8.548 -0.4011 -1.1994  0.4788
 1546SOL    HW2 8041   5.287   0.736   8.691 -0.1462  1.1531  0.4398
 1547SOL     OW 8042   0.222   1.448   6.492  0.5420  0.2842  0.4313
 1547SOL    HW1 8043   0.266   1.430   6.409 -0.6751 -0.9956  0.0362
 1547SOL    HW2 8044   0.232   1.367   6.543 -2.6755 -0.7059 -0.2953
 1548SOL     OW 8045   4.915   4.770   2.069 -0.0161  0.2362 -0.0279
 1548SOL    HW1 8046   4.840   4.810   2.111  0.3527  1.0404 -0.1251
 1548SOL    HW2 8047   4.891   4.677   2.061 -0.7272  0.3668  0.5109
 1549SOL     OW 8048   2.241   0.928   9.741  0.1521  1.2202  0.0758
 1549SOL    HW1 8049   2.290   0.902   9.819  1.0641 -0.4265 -0.9667
 1549SOL    HW2 8050   2.307   0.966   9.683  0.9640 -3.0675 -2.2876
 1550SOL     OW 8051   2.958   8.019   7.346 -0.1114  0.2994 -0.1411
 1550SOL    HW1 8052   3.050   8.042   7.350 -0.1552  0.4055  0.4412
 1550SOL    HW2 8053   2.957   7.924   7.333  0.0991  0.1057  1.0843
 1551SOL     OW 8054   8.865   2.111   6.029  0.1771  0.1646 -0.0840
 1551SOL    HW1 8055   8.953   2.092   5.997  1.4341  0.4305  2.8586
 1551SOL    HW2 8056   8.832   2.026   6.060 -0.1326  0.2589 -0.1520
 1552SOL     OW 8057   0.043   2.689   6.866  0.5249 -0.8138  0.6037
 1552SOL    HW1 8058   0.080   2.738   6.939 -1.2810 -0.8100  1.5786
 1552SOL    HW2 8059   0.056   2.597   6.889  1.3196 -0.8166  0.1734
 1553SOL     OW 8060   6.434   8.569   4.689 -0.0868 -0.2894 -0.2418
 1553SOL    HW1 8061   6.489   8.491   4.678 -1.4576 -1.2275 -0.7910
 1553SOL    HW2 8062   6.476   8.636   4.636  1.3927 -0.4846  0.6210
 1554SOL     OW 8063   1.139   9.345   7.922 -0.0662 -0.3690 -0.2047
 1554SOL    HW1 8064   1.141   9.347   7.827 -0.2198  0.5704 -0.1919
 1554SOL    HW2 8065   1.070   9.407   7.946  1.3220  0.9292  0.5678
 1555SOL     OW 8066   9.593   1.333   3.951 -0.5677 -0.3240 -0.2699
 1555SOL    HW1 8067   9.582   1.377   3.866  0.1922 -0.6526 -0.5477
 1555SOL    HW2 8068   9.515   1.278   3.959 -0.0751 -1.2164 -1.3289
 1556SOL     OW 8069  10.511   5.223   8.340  0.6982 -0.5629 -0.0278
 1556SOL    HW1 8070  10.471   5.157   8.396  0.1982  0.5557  0.9630
 1556SOL    HW2 8071  10.603   5.225   8.367  1.1610 -2.1251 -1.3344
 1557SOL     OW 8072   9.663   3.708   2.379 -0.1309 -0.6382  0.2336
 1557SOL    HW1 8073   9.675   3.799   2.352  0.7556 -0.9651 -0.5190
 1557SOL    HW2 8074   9.749   3.668   2.368 -0.7965 -1.8902 -0.7286
 1558SOL     OW 8075  10.804  10.561   6.404 -0.0320  0.8847 -0.5628
 1558SOL    HW1 8076  10.778  10.614   6.479  0.6576  0.0334  0.2968
 1558SOL    HW2 8077  10.872  10.503   6.438 -1.1019 -0.9129 -1.3500
 1559SOL     OW 8078   6.874  10.911   6.994 -0.0428  0.5249 -0.0598
 1559SOL    HW1 8079   6.944  10.861   7.035 -0.6884 -0.9464 -0.6832
 1559SOL    HW2 8080   6.876  10.996   7.038  1.8369  0.3623  0.2202
 1560SOL     OW 8081   5.060   6.970   4.508  0.2070 -0.1244  0.1940
 1560SOL    HW1 8082   5.002   6.995   4.580  0.4422 -0.9301  0.6805
 1560SOL    HW2 8083   5.068   7.049   4.455 -0.6306  0.2484  0.5998
 1561SOL     OW 8084   8.981   4.933   1.641  0.1139 -0.0955 -0.6238
 1561SOL    HW1 8085   8.912   4.879   1.603  0.0359 -0.7078  0.3592
 1561SOL    HW2 8086   9.036   4.958   1.567 -1.1886  0.4532 -1.4424
 1562SOL     OW 8087  10.527  10.300   6.435  0.1502 -0.0956  0.6641
 1562SOL    HW1 8088  10.608  10.288   6.386 -0.5412 -1.9521 -0.1125
 1562SOL    HW2 8089  10.494  10.385   6.407  1.8221  0.7185  1.0450
 1563SOL     OW 8090   8.874   9.412   5.281 -0.4190  0.0690  0.4111
 1563SOL    HW1 8091   8.823   9.369   5.350 -0.6229  0.8277  0.7373
 1563SOL    HW2 8092   8.866   9.505   5.300 -2.5651  0.5072 -2.0311
 1564SOL     OW 8093   8.492   3.425   5.267  0.1247 -0.5945 -0.0969
 1564SOL    HW1 8094   8.437   3.503   5.271  1.9146  0.6844  2.1693
 1564SOL    HW2 8095   8.557   3.445   5.199  1.1150  0.3590  1.0733
 1565SOL     OW 8096   1.533   4.352   6.451  0.4751 -0.3805  0.6482
 1565SOL    HW1 8097   1.538   4.261   6.424 -0.8385 -0.4910  0.7489
 1565SOL    HW2 8098   1.449   4.383   6.417  0.1588  0.3257  2.0132
 1566SOL     OW 8099   9.894   4.932   3.872 -0.3804 -0.4520 -0.0485
 1566SOL    HW1 8100   9.961   4.947   3.940  0.3967 -0.8912 -0.7005
 1566SOL    HW2 8101   9.926   4.980   3.796  1.0922 -3.4248 -1.5177
 1567SOL     OW 8102   1.978   2.346   0.090  1.0658 -0.6310  0.3313
 1567SOL    HW1 8103   1.930   2.387   0.163 -0.2967 -2.2090  0.3809
 1567SOL    HW2 8104   1.921   2.275   0.061  0.0461  1.6756 -4.2749
 1568SOL     OW 8105   6.045   6.069   2.783 -0.2731  0.0040  0.4126
 1568SOL    HW1 8106   5.983   6.137   2.809  2.6566  2.1715  2.3126
 1568SOL    HW2 8107   6.065   6.090   2.692 -0.3626  0.8966  0.5877
 1569SOL     OW 8108   7.644   2.108   9.871  0.4849  0.2440  0.6122
 1569SOL    HW1 8109   7.647   2.037   9.936  1.7083 -1.0667 -0.7993
 1569SOL    HW2 8110   7.713   2.086   9.808 -2.5958 -0.3088 -2.9134
 1570SOL     OW 8111   5.680   7.418   0.810  0.3024 -0.0879  0.3279
 1570SOL    HW1 8112   5.656   7.325   0.809  0.6974 -0.1996  0.6863
 1570SOL    HW2 8113   5.637   7.455   0.733  0.2778 -0.6067  0.0882
 1571SOL     OW 8114   2.674   9.144   5.588 -0.1535  0.5009 -0.3627
 1571SOL    HW1 8115   2.622   9.212   5.545 -2.1392  0.0258  1.1434
 1571SOL    HW2 8116   2.713   9.188   5.663  0.8630  0.6177 -0.9448
 1572SOL     OW 8117   2.181   5.325   4.207 -0.5863 -0.0702  0.2214
 1572SOL    HW1 8118   2.220   5.373   4.134  0.1535  0.5481  1.0091
 1572SOL    HW2 8119   2.202   5.377   4.284 -2.1369 -0.2413  0.7887
 1573SOL     OW 8120   2.002   3.011   4.424 -0.3500 -0.0929  0.8581
 1573SOL    HW1 8121   2.094   3.036   4.417 -0.0380 -1.1050  1.2045
 1573SOL    HW2 8122   1.985   3.008   4.518 -0.6021 -0.3754  0.8060
 1574SOL     OW 8123   7.578   8.211   9.523  0.3284  0.6375 -0.4053
 1574SOL    HW1 8124   7.585   8.186   9.615 -0.5198  0.0533 -0.4864
 1574SOL    HW2 8125   7.514   8.283   9.523 -2.2137 -1.4603 -0.8342
 1575SOL     OW 8126   7.881   0.594   3.442 -0.1130 -0.5982 -0.0490
 1575SOL    HW1 8127   7.790   0.569   3.453 -0.2982  0.3214  0.6278
 1575SOL    HW2 8128   7.924   0.564   3.522 -0.3497  1.2172  0.8020
 1576SOL     OW 8129   2.746   3.369   5.430  0.3001 -0.0788  0.6487
 1576SOL    HW1 8130   2.797   3.326   5.499 -0.0907  1.1375  1.7221
 1576SOL    HW2 8131   2.780   3.330   5.349  2.7988  0.5070  1.3104
 1577SOL     OW 8132   8.477   8.823   9.775  0.1789 -0.2017  0.4203
 1577SOL    HW1 8133   8.393   8.800   9.735 -1.5446  1.6065  2.7717
 1577SOL    HW2 8134   8.525   8.740   9.778 -1.7317 -1.4048 -0.5019
 1578SOL     OW 8135   5.199   3.504   6.807  0.7763 -0.1886 -0.3503
 1578SOL    HW1 8136   5.253   3.582   6.815  0.3743 -0.0028  0.6484
 1578SOL    HW2 8137   5.122   3.533   6.758  0.2466  0.2545  0.7199
 1579SOL     OW 8138   4.540   7.036   9.028  0.5276  0.1577 -0.1434
 1579SOL    HW1 8139   4.485   6.978   9.081  0.5408  1.8790  1.9064
 1579SOL    HW2 8140   4.495   7.041   8.944 -0.5703 -1.1710  0.3195
 1580SOL     OW 8141   7.034   2.665  10.277 -0.3997 -0.2515  0.1291
 1580SOL    HW1 8142   7.000   2.702  10.358  0.9188  1.1317  0.1019
 1580SOL    HW2 8143   6.992   2.580  10.270 -1.6603  0.2137  1.4963
 1581SOL     OW 8144   1.731   5.955   6.710 -0.1129 -0.4458  0.2466
 1581SOL    HW1 8145   1.726   5.860   6.711  0.5456 -0.4756  0.8452
 1581SOL    HW2 8146   1.801   5.975   6.649  1.7197 -0.4568  2.2291
 1582SOL     OW 8147  10.880   3.844   0.524 -0.4635 -0.1923 -0.7105
 1582SOL    HW1 8148  10.950   3.836   0.589  1.7373 -1.5889 -3.0815
 1582SOL    HW2 8149  10.833   3.924   0.550 -0.4836 -1.2447  3.1613
 1583SOL     OW 8150   7.975   2.796   8.925 -0.5129  0.1643  0.0093
 1583SOL    HW1 8151   7.922   2.859   8.973 -1.8121 -1.0529  0.2176
 1583SOL    HW2 8152   7.922   2.771   8.850  0.1429 -0.4077 -0.2757
 1584SOL     OW 8153   5.533   2.051   7.855 -0.5373 -0.5035  0.2311
 1584SOL    HW1 8154   5.511   2.089   7.940 -2.1741 -0.5479 -0.1378
 1584SOL    HW2 8155   5.483   2.103   7.792 -0.9834 -1.7681 -0.4974
 1585SOL     OW 8156   0.015  10.160   9.534  0.7290 -0.2605  0.1706
 1585SOL    HW1 8157   0.075  10.144   9.462  0.2004  0.9868 -0.5727
 1585SOL    HW2 8158  -0.072  10.143   9.497  0.4921 -0.2081  0.6933
 1586SOL     OW 8159   6.405   7.017  10.078  0.5957  1.0036 -0.1916
 1586SOL    HW1 8160   6.444   7.002  10.165 -1.0236 -0.7113  0.2902
 1586SOL    HW2 8161   6.382   7.110  10.079  0.4038  0.9622  1.3052
 1587SOL     OW 8162   1.916   5.236   8.982  0.0448  0.5349  0.0436
 1587SOL    HW1 8163   1.885   5.285   9.058 -0.6049 -0.4201  0.3998
 1587SOL    HW2 8164   2.008   5.216   9.002  0.2974  1.5277 -0.0732
 1588SOL     OW 8165   3.435   1.854   8.739  0.1105  0.3579  0.1016
 1588SOL    HW1 8166   3.355   1.881   8.694 -0.3460 -1.2329 -0.1186
 1588SOL    HW2 8167   3.431   1.899   8.824 -2.9791 -2.3808  1.6868
 1589SOL     OW 8168   2.683   9.916   3.515 -0.2190 -0.1898 -0.6530
 1589SOL    HW1 8169   2.590   9.922   3.495  0.1829  1.2663 -2.4017
 1589SOL    HW2 8170   2.721   9.996   3.477  1.7514 -0.7671 -0.0391
 1590SOL     OW 8171   0.571   4.009   0.414 -0.3371 -0.3040  0.0286
 1590SOL    HW1 8172   0.497   4.063   0.440 -0.3020 -0.3713  0.2687
 1590SOL    HW2 8173   0.536   3.921   0.404 -0.3519 -0.2780 -0.1634
 1591SOL     OW 8174   9.992   5.100   5.952 -0.3030 -0.4403 -0.3182
 1591SOL    HW1 8175   9.997   5.009   5.983 -4.6430 -0.0957  2.1119
 1591SOL    HW2 8176   9.923   5.099   5.885 -1.5838  1.2186  0.8948
 1592SOL     OW 8177   1.957   4.773   3.444  0.2677 -0.1293 -0.1674
 1592SOL    HW1 8178   1.973   4.832   3.518 -0.2910 -0.3778  0.1553
 1592SOL    HW2 8179   1.935   4.689   3.485  1.1012 -0.5807 -0.6212
 1593SOL     OW 8180   6.583   8.113   8.732  0.1547  0.9285  0.5599
 1593SOL    HW1 8181   6.593   8.127   8.826  0.3581 -0.6700  0.8052
 1593SOL    HW2 8182   6.601   8.020   8.719 -0.2206  1.0376 -1.0193
 1594SOL     OW 8183  10.402   7.053   5.301  0.1587  0.1127  1.0573
 1594SOL    HW1 8184  10.385   7.147   5.294  0.1507 -0.0089 -1.0696
 1594SOL    HW2 8185  10.463   7.034   5.230  0.7881 -1.3671  1.9517
 1595SOL     OW 8186   9.470   7.039   7.093 -0.2038  0.1135  0.1857
 1595SOL    HW1 8187   9.492   7.097   7.019  0.8871  0.5396  0.8144
 1595SOL    HW2 8188   9.551   6.991   7.109 -0.8511 -0.9874  0.2282
 1596SOL     OW 8189   5.640   0.026   1.080 -0.5678 -0.0559  0.6086
 1596SOL    HW1 8190   5.589   0.001   1.003 -0.2285 -0.3131  0.4675
 1596SOL    HW2 8191   5.726   0.049   1.046 -0.5405  0.2404  0.8655
 1597SOL     OW 8192   5.576   7.154   9.477  0.0228 -0.5972  0.4432
 1597SOL    HW1 8193   5.659   7.160   9.524  0.3068  0.7659 -0.1763
 1597SOL    HW2 8194   5.536   7.073   9.509 -0.3906  0.8422  4.0564
 1598SOL     OW 8195   8.863   4.414   8.175 -0.1527  0.1925 -0.2891
 1598SOL    HW1 8196   8.929   4.394   8.109 -0.3026  1.7965 -0.9900
 1598SOL    HW2 8197   8.821   4.494   8.142 -2.2591 -0.6261  0.2661
 1599SOL     OW 8198   4.745   8.945   5.604 -0.1861 -0.2343  0.5762
 1599SOL    HW1 8199   4.742   8.879   5.674 -1.9158 -0.1891  0.5856
 1599SOL    HW2 8200   4.655   8.976   5.597  0.6335  2.4754  0.8840
 1600SOL     OW 8201   0.460   9.378   4.369  0.0498 -0.3853 -0.5987
 1600SOL    HW1 8202   0.467   9.283   4.361 -1.9006 -0.6202  0.1614
 1600SOL    HW2 8203   0.447   9.394   4.462 -1.5002  0.4541 -0.9247
 1601SOL     OW 8204   6.544  10.064   2.768  0.7061 -0.2187 -0.2512
 1601SOL    HW1 8205   6.471  10.116   2.801  2.1110  2.0112 -0.4164
 1601SOL    HW2 8206   6.504  10.002   2.708 -1.1692  0.0390  0.6474
 1602SOL     OW 8207   7.487   5.667  10.770  0.3502  0.1031  0.0885
 1602SOL    HW1 8208   7.438   5.660  10.688 -1.8223 -2.2420  1.4390
 1602SOL    HW2 8209   7.570   5.623  10.753 -0.2000 -0.6191 -0.8119
 1603SOL     OW 8210   8.890   3.043   8.890  0.4764 -0.1383 -0.1362
 1603SOL    HW1 8211   8.849   3.062   8.806 -0.7380  1.2628  0.7340
 1603SOL    HW2 8212   8.901   2.948   8.890 -1.3660 -0.3876 -1.0534
 1604SOL     OW 8213   9.048   7.140   4.784 -0.2719 -0.2404 -0.1264
 1604SOL    HW1 8214   8.975   7.201   4.777  0.2763  0.5464  0.7856
 1604SOL    HW2 8215   9.034   7.096   4.868  0.4728  0.1509  0.2063
 1605SOL     OW 8216   8.808   9.800   9.097 -0.4916 -0.2963 -0.0380
 1605SOL    HW1 8217   8.814   9.797   9.001  1.2729  0.9078 -0.0101
 1605SOL    HW2 8218   8.788   9.710   9.122 -1.3311 -0.5651 -1.5463
 1606SOL     OW 8219   2.192   6.508   6.021 -0.0189 -0.5600  0.0759
 1606SOL    HW1 8220   2.245   6.511   5.941  0.4947  2.0693  0.4006
 1606SOL    HW2 8221   2.112   6.556   5.998  0.5178  1.0307  1.3137
 1607SOL     OW 8222   8.252   2.044   2.836 -0.0157 -0.4714  0.2948
 1607SOL    HW1 8223   8.224   2.067   2.925  1.4994 -1.2135  1.0062
 1607SOL    HW2 8224   8.237   1.950   2.830  1.0688 -0.6557  0.2438
 1608SOL     OW 8225   1.866   2.107   3.004 -0.8108  0.0836  0.3379
 1608SOL    HW1 8226   1.860   2.182   2.945 -1.0271  0.2990  0.6321
 1608SOL    HW2 8227   1.888   2.033   2.947  1.0918  0.6711  0.2651
 1609SOL     OW 8228   1.906  10.185   2.343  0.4821  0.0290  0.2271
 1609SOL    HW1 8229   1.883  10.259   2.399  1.7289 -0.1856  1.0662
 1609SOL    HW2 8230   1.959  10.223   2.273  0.5816  0.0138  0.2950
 1610SOL     OW 8231  10.217   7.988   3.132  0.3064  0.7687  0.0521
 1610SOL    HW1 8232  10.178   8.000   3.045  0.7524  2.1941  0.0132
 1610SOL    HW2 8233  10.293   8.046   3.131  1.0007 -0.1018  0.9895
 1611SOL     OW 8234   7.915   5.674  10.830  0.6826  0.1449  0.1390
 1611SOL    HW1 8235   7.948   5.634  10.911 -0.1810 -0.2116  0.3209
 1611SOL    HW2 8236   7.938   5.767  10.838 -0.2378  0.2947  1.2344
 1612SOL     OW 8237   1.302   4.901   3.442 -0.2474  0.0300  0.3786
 1612SOL    HW1 8238   1.388   4.937   3.465  0.3569 -1.2235  0.1821
 1612SOL    HW2 8239   1.284   4.838   3.512 -1.3640  0.8199  0.8177
 1613SOL     OW 8240   9.397   3.009   7.350 -0.5569  0.0431 -0.1241
 1613SOL    HW1 8241   9.453   2.947   7.303  0.0983  0.4512  0.1165
 1613SOL    HW2 8242   9.430   3.095   7.326  0.4018  0.2651  1.7638
 1614SOL     OW 8243   4.836   8.651   4.991  0.3511  0.0923  0.5094
 1614SOL    HW1 8244   4.794   8.569   4.966 -0.2390  0.9273 -1.3728
 1614SOL    HW2 8245   4.925   8.624   5.017 -0.2145 -1.2656  1.1528
 1615SOL     OW 8246   9.907   4.681   4.615  0.0297  0.7083  0.0465
 1615SOL    HW1 8247   9.822   4.700   4.574 -0.1518 -1.5639 -0.7566
 1615SOL    HW2 8248   9.949   4.619   4.556  2.2674  1.7627  0.4612
 1616SOL     OW 8249   6.484  10.607   5.348 -0.2634 -0.2215 -0.5654
 1616SOL    HW1 8250   6.578  10.596   5.334 -0.3338 -1.2352 -0.3342
 1616SOL    HW2 8251   6.477  10.669   5.420  0.1751  1.5089 -1.9300
 1617SOL     OW 8252   9.321   4.745   2.409 -0.6715  0.0032 -0.1269
 1617SOL    HW1 8253   9.409   4.772   2.387  0.2212 -2.2848  0.3587
 1617SOL    HW2 8254   9.291   4.695   2.333 -1.1968 -0.0054  0.0807
 1618SOL     OW 8255   2.559   6.752   8.902  0.0716  0.1125  0.6208
 1618SOL    HW1 8256   2.534   6.728   8.813  1.9277  2.7930 -0.7356
 1618SOL    HW2 8257   2.496   6.819   8.928  0.3934  0.3531  0.7818
 1619SOL     OW 8258   2.405   8.359   8.655  0.1396 -0.1375 -0.2638
 1619SOL    HW1 8259   2.403   8.264   8.669  1.3740 -0.3916 -1.5372
 1619SOL    HW2 8260   2.377   8.396   8.738  0.3283 -1.6054  0.4931
 1620SOL     OW 8261   4.170   1.607   1.233 -0.0485  0.3162  0.3161
 1620SOL    HW1 8262   4.111   1.641   1.166 -3.6409  0.1137  3.0568
 1620SOL    HW2 8263   4.163   1.670   1.305 -0.1499 -1.7562  2.2464
 1621SOL     OW 8264   7.962   1.299   1.395 -0.0834 -0.0811 -0.1864
 1621SOL    HW1 8265   7.993   1.208   1.399 -0.4583 -0.2282 -0.5923
 1621SOL    HW2 8266   8.036   1.347   1.358 -0.6468 -0.5974 -2.1320
 1622SOL     OW 8267   0.571   2.951   1.038  0.4090  0.8138 -0.0254
 1622SOL    HW1 8268   0.615   2.867   1.053 -1.1787  0.0331  0.5462
 1622SOL    HW2 8269   0.526   2.940   0.954  0.0171  0.9980  0.1560
 1623SOL     OW 8270  10.348   8.843   0.054  0.6957 -0.5639 -0.5844
 1623SOL    HW1 8271  10.373   8.791   0.131  1.8352  0.4127 -0.2591
 1623SOL    HW2 8272  10.357   8.934   0.082 -0.8688 -0.1653 -1.2726
 1624SOL     OW 8273   0.070   8.633   2.644 -0.1300  0.0161 -0.5112
 1624SOL    HW1 8274   0.116   8.689   2.706 -1.1301 -0.8775  1.1204
 1624SOL    HW2 8275  -0.007   8.602   2.692 -0.9702 -0.7072 -2.2188
 1625SOL     OW 8276   7.730   1.599   4.313 -0.0560 -0.1469  0.2537
 1625SOL    HW1 8277   7.680   1.599   4.394 -1.3367  0.4140 -0.5064
 1625SOL    HW2 8278   7.784   1.678   4.318 -2.8964  2.0581 -1.0073
 1626SOL     OW 8279   7.476   1.392   7.023 -0.0716  0.2663 -0.1840
 1626SOL    HW1 8280   7.426   1.339   7.084 -2.4571  1.3396 -1.0596
 1626SOL    HW2 8281   7.436   1.479   7.029  1.4235  1.0718 -1.2739
 1627SOL     OW 8282   3.819   8.963  10.649 -0.1273  0.3891 -0.4948
 1627SOL    HW1 8283   3.870   8.979  10.728 -0.8597 -0.4866  0.1723
 1627SOL    HW2 8284   3.878   8.912  10.593 -0.2525 -0.6682  0.2970
 1628SOL     OW 8285   8.992   2.668   2.016  0.5946  0.0231 -0.2504
 1628SOL    HW1 8286   9.047   2.594   1.990 -2.8765 -3.1056  0.4647
 1628SOL    HW2 8287   9.032   2.702   2.096  1.2498 -2.4687  0.5570
 1629SOL     OW 8288   7.418   9.489   3.305 -0.4964 -0.0695  0.2509
 1629SOL    HW1 8289   7.404   9.470   3.397 -0.0517  0.0334  0.3464
 1629SOL    HW2 8290   7.335   9.468   3.262  0.0447 -2.5314  0.2776
 1630SOL     OW 8291   2.516   3.054   4.822  0.1544  0.2999 -0.1391
 1630SOL    HW1 8292   2.604   3.017   4.813  0.4607  1.0656 -0.3801
 1630SOL    HW2 8293   2.464   2.983   4.861  1.3736  0.4981  2.0244
 1631SOL     OW 8294   8.938   1.552   0.388 -0.3170 -0.5215 -0.1711
 1631SOL    HW1 8295   8.851   1.592   0.397 -1.4829 -2.6651 -1.1038
 1631SOL    HW2 8296   8.942   1.523   0.297  1.6793  0.1188 -0.3310
 1632SOL     OW 8297   1.435   0.392  10.599  0.0545 -0.5860 -0.3041
 1632SOL    HW1 8298   1.485   0.397  10.517 -1.2315  0.1494 -1.0719
 1632SOL    HW2 8299   1.448   0.478  10.640  1.5461 -1.3002  0.8176
 1633SOL     OW 8300   0.057   7.841   1.480  0.0096  0.4030 -0.0043
 1633SOL    HW1 8301  -0.013   7.879   1.427 -0.5051  1.4475  1.3803
 1633SOL    HW2 8302   0.011   7.795   1.551  0.6971 -0.2919  0.0011
 1634SOL     OW 8303   6.314   2.939   5.732 -0.1762 -0.1993 -0.1565
 1634SOL    HW1 8304   6.323   2.865   5.792  1.6071  1.5640  1.9641
 1634SOL    HW2 8305   6.232   2.981   5.758 -0.8660 -1.0005 -0.9440
 1635SOL     OW 8306   2.965   6.095   3.933 -0.0453  0.2229  0.0269
 1635SOL    HW1 8307   2.978   6.081   4.027 -2.3169  0.5819  0.4546
 1635SOL    HW2 8308   2.979   6.189   3.920  0.4504  0.1403 -0.0197
 1636SOL     OW 8309   1.162   0.857   2.410 -0.2906 -0.5029 -0.4352
 1636SOL    HW1 8310   1.214   0.875   2.488  1.5982 -2.2308 -1.1795
 1636SOL    HW2 8311   1.217   0.887   2.337 -0.7875 -1.4103 -1.2117
 1637SOL     OW 8312   9.623   4.174   7.519 -0.0205  0.3781 -0.4620
 1637SOL    HW1 8313   9.671   4.192   7.439 -0.4472  1.6165 -0.4593
 1637SOL    HW2 8314   9.690   4.155   7.584  0.4057  1.0228 -0.7108
 1638SOL     OW 8315   8.994   5.673   1.171 -0.0417 -0.4717 -0.3374
 1638SOL    HW1 8316   8.956   5.670   1.083 -0.9064  0.5522 -0.0200
 1638SOL    HW2 8317   9.079   5.715   1.158 -0.4729  0.3548 -0.6052
 1639SOL     OW 8318   4.740   8.992   1.737 -0.2029  0.6320 -0.0254
 1639SOL    HW1 8319   4.716   9.084   1.728  0.3258  0.6601 -1.4060
 1639SOL    HW2 8320   4.815   8.981   1.679 -0.5061 -0.7522 -0.1909
 1640SOL     OW 8321   8.116   6.672   8.868  0.2531 -0.0716 -0.1793
 1640SOL    HW1 8322   8.138   6.718   8.787  0.1751  0.9774  0.3878
 1640SOL    HW2 8323   8.031   6.630   8.849  0.2933  0.0582 -0.6726
 1641SOL     OW 8324   0.720  10.298   2.580 -0.2274 -0.6020 -0.0882
 1641SOL    HW1 8325   0.720  10.364   2.650  0.9557  0.8766 -1.4120
 1641SOL    HW2 8326   0.786  10.329   2.518 -4.4216  0.9312 -4.4155
 1642SOL     OW 8327   9.296   9.686   8.406 -0.2054  0.0704 -0.3184
 1642SOL    HW1 8328   9.302   9.737   8.487  0.1945 -0.4671 -0.0000
 1642SOL    HW2 8329   9.203   9.684   8.385 -0.1928  1.2171 -0.5281
 1643SOL     OW 8330   9.669   8.849   1.076 -0.1987  0.0502  0.2911
 1643SOL    HW1 8331   9.724   8.863   1.153  0.1817 -0.0490  0.0400
 1643SOL    HW2 8332   9.704   8.908   1.010 -1.1142  0.8211  0.4751
 1644SOL     OW 8333   1.560   9.216   5.635 -0.0902 -0.8728  0.4882
 1644SOL    HW1 8334   1.511   9.135   5.648 -0.9802 -0.3478  0.5226
 1644SOL    HW2 8335   1.635   9.209   5.694 -0.6982 -1.2455  1.2403
 1645SOL     OW 8336   3.347   7.397   4.216  0.1841  0.1912  0.4915
 1645SOL    HW1 8337   3.318   7.342   4.289  0.4323  0.5602  0.8734
 1645SOL    HW2 8338   3.386   7.336   4.154  1.2776  0.0277  1.3185
 1646SOL     OW 8339   3.713   5.884   4.132  0.1421 -0.3775  0.2497
 1646SOL    HW1 8340   3.745   5.794   4.137 -0.6812 -0.9677 -2.9294
 1646SOL    HW2 8341   3.639   5.886   4.193  1.4579 -1.1541  1.9873
 1647SOL     OW 8342   3.852   1.510   1.280 -0.6986  0.3687 -0.2294
 1647SOL    HW1 8343   3.818   1.598   1.269 -2.9670 -0.3700  0.2813
 1647SOL    HW2 8344   3.777   1.453   1.261  0.6917 -1.4479 -0.5174
 1648SOL     OW 8345   7.992   6.928   3.955  0.1329  0.1637  0.6692
 1648SOL    HW1 8346   7.995   6.858   4.021 -1.7127  1.5342  2.3077
 1648SOL    HW2 8347   8.056   6.993   3.986  0.8716 -0.1537 -0.1345
 1649SOL     OW 8348   0.629   5.636   9.911  0.7458 -0.2423  0.6198
 1649SOL    HW1 8349   0.627   5.584   9.830  0.5451  0.9874 -0.1937
 1649SOL    HW2 8350   0.669   5.578   9.975  0.4452 -1.4359 -0.2278
 1650SOL     OW 8351   8.987   7.821   0.849  0.0774 -0.4942 -0.0267
 1650SOL    HW1 8352   8.965   7.913   0.865  0.7720 -0.4808  0.8942
 1650SOL    HW2 8353   8.905   7.783   0.815  0.0631  0.6706 -1.4049
 1651SOL     OW 8354   0.402   6.391   8.963 -0.0770  0.0752 -0.0158
 1651SOL    HW1 8355   0.420   6.368   9.055 -0.8316  0.8793  0.3510
 1651SOL    HW2 8356   0.434   6.317   8.913  0.8234 -0.1580  0.8674
 1652SOL     OW 8357   4.973   6.303  10.628  0.4360 -0.1949  0.0230
 1652SOL    HW1 8358   5.060   6.310  10.590  1.7975  1.0615  3.0605
 1652SOL    HW2 8359   4.962   6.383  10.680 -3.1799  0.3986 -1.3760
 1653SOL     OW 8360   8.116   9.658   9.573  0.4400 -0.1101 -0.0227
 1653SOL    HW1 8361   8.071   9.575   9.556  1.4181 -1.3741  2.7826
 1653SOL    HW2 8362   8.046   9.720   9.592 -0.2637 -0.8243 -0.2415
 1654SOL     OW 8363   8.852   9.507   3.211  0.1775  0.2184  0.1245
 1654SOL    HW1 8364   8.930   9.494   3.264  0.0658  0.8864  0.4562
 1654SOL    HW2 8365   8.872   9.582   3.155 -0.8438  1.5048  1.4259
 1655SOL     OW 8366   4.235   2.489   4.942 -0.1005 -0.0513  0.0452
 1655SOL    HW1 8367   4.239   2.503   4.847  0.8815  1.0092  0.2136
 1655SOL    HW2 8368   4.294   2.416   4.958 -2.3033 -2.0498 -0.4148
 1656SOL     OW 8369   2.530   8.739   8.556 -0.1604 -0.0309  0.0266
 1656SOL    HW1 8370   2.538   8.644   8.566  1.6544  0.0945  0.1241
 1656SOL    HW2 8371   2.486   8.751   8.472  0.1651 -0.9617 -0.2867
 1657SOL     OW 8372   7.124   3.778   5.070 -0.1416  0.0169 -0.0371
 1657SOL    HW1 8373   7.152   3.761   4.981 -1.5320 -1.4984 -0.2578
 1657SOL    HW2 8374   7.030   3.759   5.069  0.0127 -1.2151  1.9814
 1658SOL     OW 8375   4.842   5.873   1.883  0.3888  0.1232  0.3615
 1658SOL    HW1 8376   4.752   5.901   1.896  0.5433  1.1122 -0.5283
 1658SOL    HW2 8377   4.857   5.881   1.789  1.8007  1.3126  0.6364
 1659SOL     OW 8378   0.912   4.287   0.187 -0.4402  0.2099 -0.3135
 1659SOL    HW1 8379   0.847   4.218   0.198 -0.4628  0.3817  0.7170
 1659SOL    HW2 8380   0.900   4.318   0.097  0.7044 -2.2744 -1.4070
 1660SOL     OW 8381   9.912   5.999   6.326 -0.1336 -0.6472  0.1574
 1660SOL    HW1 8382   9.860   5.954   6.259  0.2186 -1.2800  0.2997
 1660SOL    HW2 8383   9.849   6.023   6.393 -0.5025  0.0533 -0.4341
 1661SOL     OW 8384   7.479   5.196   7.329  0.3730  0.2407 -0.0829
 1661SOL    HW1 8385   7.422   5.125   7.299  2.0549 -1.0759 -0.3189
 1661SOL    HW2 8386   7.444   5.220   7.414 -0.2686 -0.8654 -0.0152
 1662SOL     OW 8387   5.260   8.918   4.839  0.1767 -0.2507  0.2139
 1662SOL    HW1 8388   5.348   8.895   4.871  0.4982 -0.5084 -0.7969
 1662SOL    HW2 8389   5.239   8.849   4.776 -1.0208 -0.5216  0.8942
 1663SOL     OW 8390   5.279  10.456   4.659  0.0810 -0.0962 -0.3359
 1663SOL    HW1 8391   5.277  10.439   4.565 -0.1206 -1.6995 -0.0638
 1663SOL    HW2 8392   5.365  10.426   4.688  0.1293  0.3499  0.0137
 1664SOL     OW 8393   1.822   9.682   6.709  0.0964 -0.1106 -0.4052
 1664SOL    HW1 8394   1.794   9.759   6.659  0.2539  0.0797 -0.2000
 1664SOL    HW2 8395   1.879   9.717   6.778 -2.3920 -0.0240  1.7371
 1665SOL     OW 8396   4.582   4.642   4.958  0.7132  0.1444  0.1759
 1665SOL    HW1 8397   4.612   4.576   5.020  1.8080 -0.0913 -0.5895
 1665SOL    HW2 8398   4.662   4.677   4.919  0.0662  0.6653 -0.7190
 1666SOL     OW 8399   8.287   5.368   1.544  0.1289  0.0821 -0.0821
 1666SOL    HW1 8400   8.371   5.375   1.588 -0.2979  0.3344  0.7082
 1666SOL    HW2 8401   8.308   5.369   1.451  0.9000  1.5512  0.0805
 1667SOL     OW 8402   5.870   9.061   4.482  0.0958 -0.3511  0.1904
 1667SOL    HW1 8403   5.841   8.998   4.417  1.2984 -0.1789 -0.5623
 1667SOL    HW2 8404   5.966   9.056   4.479  0.1904  0.0335  1.5894
 1668SOL     OW 8405   3.609   9.755   4.550 -0.2749  0.0778 -0.4845
 1668SOL    HW1 8406   3.701   9.730   4.536 -0.2855  0.2018 -0.7817
 1668SOL    HW2 8407   3.576   9.775   4.463 -0.5125  0.2868 -0.3481
 1669SOL     OW 8408   5.968   0.671   6.989  0.3719  0.0308  0.3457
 1669SOL    HW1 8409   6.060   0.659   7.011  0.6319  0.3505 -0.5700
 1669SOL    HW2 8410   5.921   0.617   7.054  1.1952 -0.2086  0.7513
 1670SOL     OW 8411   9.119   0.348   3.031 -0.6669  0.2079 -0.4042
 1670SOL    HW1 8412   9.049   0.398   3.074 -1.7369  0.9484 -2.8076
 1670SOL    HW2 8413   9.093   0.257   3.040  0.0831  0.1694  1.9888
 1671SOL     OW 8414   1.805   1.051   9.632 -0.1310  0.0069 -0.0412
 1671SOL    HW1 8415   1.774   1.072   9.720  0.2248 -1.1993  0.4010
 1671SOL    HW2 8416   1.728   1.057   9.577  0.0025  2.7837 -0.0706
 1672SOL     OW 8417   9.951   8.184   1.997  0.2425 -0.1181 -0.2195
 1672SOL    HW1 8418   9.957   8.089   1.989  2.9054  0.0139 -0.8579
 1672SOL    HW2 8419   9.991   8.217   1.916 -1.6823  1.6033 -0.5708
 1673SOL     OW 8420   2.032   8.591   0.387  0.0247  0.1248  0.1096
 1673SOL    HW1 8421   2.108   8.645   0.367 -0.3716  0.6656  0.0337
 1673SOL    HW2 8422   1.967   8.613   0.320 -1.5517  2.4484  2.2335
 1674SOL     OW 8423   3.135   0.416  10.554  0.2593  0.0026  0.0006
 1674SOL    HW1 8424   3.085   0.390  10.632 -0.7382  0.7373 -0.3832
 1674SOL    HW2 8425   3.095   0.366  10.483 -0.9715  1.7319 -0.5669
 1675SOL     OW 8426   9.566   7.352   5.946  0.0071  0.0422  0.5856
 1675SOL    HW1 8427   9.521   7.298   5.881 -0.6991  2.6866 -1.2811
 1675SOL    HW2 8428   9.533   7.441   5.931  3.6414  1.6681  1.1495
 1676SOL     OW 8429   7.971   1.990   6.092  0.1220  0.0376  0.7396
 1676SOL    HW1 8430   7.890   1.981   6.142  0.8342  1.4082  2.2659
 1676SOL    HW2 8431   7.966   2.078   6.054  0.8629  0.1344  0.8458
 1677SOL     OW 8432   7.141   5.592  10.541 -0.6739 -0.0678  0.1867
 1677SOL    HW1 8433   7.206   5.662  10.531 -0.5111 -0.1479  0.6696
 1677SOL    HW2 8434   7.062   5.637  10.572 -1.2602  0.2203 -1.5773
 1678SOL     OW 8435   0.931   9.593   0.210 -0.4536  0.1930  0.2944
 1678SOL    HW1 8436   1.002   9.624   0.154 -1.4764 -1.1824 -1.8884
 1678SOL    HW2 8437   0.974   9.535   0.273  0.4501 -0.0991 -0.5650
 1679SOL     OW 8438   5.203   9.288   6.636 -0.1822 -0.7768  0.7788
 1679SOL    HW1 8439   5.188   9.327   6.550  0.0264 -0.6657  0.7919
 1679SOL    HW2 8440   5.258   9.351   6.682  0.8384 -1.4472  0.5137
 1680SOL     OW 8441   6.831   8.510   2.407 -0.0154  0.1426  0.0118
 1680SOL    HW1 8442   6.880   8.428   2.412  0.7352  0.5267 -0.7334
 1680SOL    HW2 8443   6.739   8.484   2.413  0.2496 -0.6489  0.7910
 1681SOL     OW 8444   3.544   3.200   9.220  0.0386 -0.7515  0.2381
 1681SOL    HW1 8445   3.468   3.171   9.271 -0.7169  0.0654 -0.4055
 1681SOL    HW2 8446   3.531   3.294   9.210  1.7609 -0.3856  1.1452
 1682SOL     OW 8447   8.822   9.433   1.797 -0.0427 -0.5808  0.1231
 1682SOL    HW1 8448   8.830   9.521   1.762 -0.9378 -0.7571 -0.5693
 1682SOL    HW2 8449   8.730   9.426   1.822  0.1764 -1.0866  0.8207
 1683SOL     OW 8450   0.134   4.648   2.497 -0.4356 -0.0705  0.1584
 1683SOL    HW1 8451   0.117   4.652   2.591 -0.2421  0.2289  0.1848
 1683SOL    HW2 8452   0.215   4.597   2.490  1.8874  3.2368  0.4992
 1684SOL     OW 8453   8.810   0.766   0.415  0.0378 -0.3231 -0.3051
 1684SOL    HW1 8454   8.847   0.838   0.364  1.8377 -0.7646  0.2987
 1684SOL    HW2 8455   8.776   0.808   0.495 -0.5925  0.0580 -0.7634
 1685SOL     OW 8456   0.018   1.552   2.251 -0.0669  0.2354  0.0210
 1685SOL    HW1 8457   0.062   1.506   2.180 -0.7367  1.4977 -1.2598
 1685SOL    HW2 8458  -0.075   1.551   2.227 -0.1120  2.1979 -0.0633
 1686SOL     OW 8459   1.265   5.273   0.141  0.2483  0.0607 -0.7775
 1686SOL    HW1 8460   1.318   5.219   0.082 -0.7239 -0.1770 -1.4553
 1686SOL    HW2 8461   1.279   5.363   0.110  1.2802  0.1407 -0.1192
 1687SOL     OW 8462   5.434   8.458   1.248  0.0636  0.1632  0.2890
 1687SOL    HW1 8463   5.344   8.490   1.255  0.4236  1.6798 -1.2964
 1687SOL    HW2 8464   5.440   8.422   1.160  0.6626 -1.2003  0.8531
 1688SOL     OW 8465   1.896   3.489  10.890 -0.6751  0.3106  0.0644
 1688SOL    HW1 8466   1.927   3.458  10.974  0.0947  0.5347 -0.1334
 1688SOL    HW2 8467   1.892   3.584  10.899  0.8998  0.4760 -0.6238
 1689SOL     OW 8468   4.783   6.215   5.409 -0.3748  0.1283  0.6620
 1689SOL    HW1 8469   4.748   6.293   5.454 -0.8136  1.1301 -1.3107
 1689SOL    HW2 8470   4.733   6.210   5.328  3.1847  0.9830 -1.8422
 1690SOL     OW 8471   7.580  10.682  10.323 -0.6904 -0.0103 -0.1835
 1690SOL    HW1 8472   7.487  10.684  10.304 -0.8901 -1.0602  0.5742
 1690SOL    HW2 8473   7.604  10.589  10.318  0.4384  0.3056 -0.9277
 1691SOL     OW 8474  10.495   4.909   0.555 -0.2252 -0.2813 -0.2253
 1691SOL    HW1 8475  10.405   4.926   0.583 -0.3558 -1.4391  0.1201
 1691SOL    HW2 8476  10.532   4.996   0.537 -1.7494  0.1494 -1.4915
 1692SOL     OW 8477   8.603   8.749   4.370 -0.2582 -0.0558 -0.1063
 1692SOL    HW1 8478   8.555   8.721   4.447 -0.7175 -0.0259 -0.3761
 1692SOL    HW2 8479   8.694   8.754   4.398 -0.7241  2.4945  1.1639
 1693SOL     OW 8480   3.350   7.424   1.743  0.1250  0.1721 -0.1853
 1693SOL    HW1 8481   3.383   7.512   1.760  0.3292  0.1120 -0.2720
 1693SOL    HW2 8482   3.424   7.377   1.707  0.1359 -0.1613  0.2595
 1694SOL     OW 8483   7.019   5.805   9.685  0.0911 -0.0481 -0.4781
 1694SOL    HW1 8484   7.095   5.837   9.636 -0.2857  0.5994 -0.6488
 1694SOL    HW2 8485   7.044   5.814   9.777  0.0428  0.5972 -0.5283
 1695SOL     OW 8486   9.569   3.498   8.549  0.3077  0.5194 -0.1653
 1695SOL    HW1 8487   9.663   3.479   8.547 -0.0651 -1.6438 -0.3794
 1695SOL    HW2 8488   9.549   3.513   8.641  1.1318  2.8033 -0.3133
 1696SOL     OW 8489   8.226   5.117   2.830  0.7432 -0.1378  0.0504
 1696SOL    HW1 8490   8.158   5.185   2.836  0.8912  0.1705 -1.4422
 1696SOL    HW2 8491   8.177   5.035   2.819  0.5684  0.1556 -1.6710
 1697SOL     OW 8492   0.310  10.197   6.368  0.2062  0.1978 -0.3543
 1697SOL    HW1 8493   0.346  10.180   6.281  1.0927 -0.6977  0.1721
 1697SOL    HW2 8494   0.316  10.113   6.413 -1.0270  0.4459  0.3031
 1698SOL     OW 8495   8.511   4.566   8.101 -0.0021 -0.7325  0.0822
 1698SOL    HW1 8496   8.486   4.594   8.189 -2.8061 -0.6092 -0.6574
 1698SOL    HW2 8497   8.591   4.615   8.082  0.0638  0.0513  2.1318
 1699SOL     OW 8498   6.425   1.807   4.272 -0.5484 -0.0980  0.0785
 1699SOL    HW1 8499   6.509   1.849   4.291 -0.2141 -0.6366 -0.1685
 1699SOL    HW2 8500   6.392   1.780   4.358 -0.7129  0.5563  0.2257
 1700SOL     OW 8501   3.413   0.440   7.984 -0.0700 -0.8469 -0.3803
 1700SOL    HW1 8502   3.482   0.399   8.036 -1.0313 -0.6589  1.0872
 1700SOL    HW2 8503   3.336   0.385   7.998 -0.9123  0.4351  0.2095
 1701SOL     OW 8504   9.055   8.518   0.450 -0.4784 -0.0353 -0.2007
 1701SOL    HW1 8505   8.963   8.503   0.426 -0.6201  0.0949  0.2422
 1701SOL    HW2 8506   9.080   8.438   0.497  0.1351 -0.7700 -1.7187
 1702SOL     OW 8507  10.510   8.960   5.707  0.2642 -0.3807  0.1347
 1702SOL    HW1 8508  10.584   9.021   5.705 -0.8833  1.2278  1.8838
 1702SOL    HW2 8509  10.483   8.951   5.616  1.4775  0.4628 -0.3339
 1703SOL     OW 8510  10.162  10.802   1.159  0.3705  0.7825 -0.0278
 1703SOL    HW1 8511  10.086  10.796   1.102 -0.3297  0.9000  0.8759
 1703SOL    HW2 8512  10.202  10.886   1.136 -0.5786  1.3856  0.4602
 1704SOL     OW 8513   9.439   9.779   3.434 -0.3857  0.7561 -0.1818
 1704SOL    HW1 8514   9.353   9.763   3.472 -0.7598  0.8682 -0.9795
 1704SOL    HW2 8515   9.497   9.719   3.482 -1.1117 -0.2309 -0.4889
 1705SOL     OW 8516   6.253  10.620   9.110 -0.0969  0.6178 -0.5016
 1705SOL    HW1 8517   6.201  10.550   9.149 -1.9031  1.6925 -0.8601
 1705SOL    HW2 8518   6.343  10.597   9.130 -0.8020  0.3861  3.0821
 1706SOL     OW 8519   3.080  10.402   6.937 -0.5866 -0.4445  0.0826
 1706SOL    HW1 8520   3.007  10.452   6.902 -0.6807  0.2834  1.2609
 1706SOL    HW2 8521   3.142  10.395   6.865 -1.3438 -0.1500 -0.6106
 1707SOL     OW 8522   3.883   0.497   7.226 -0.8238  0.1271  0.0400
 1707SOL    HW1 8523   3.829   0.567   7.261 -1.7595 -0.3193 -0.4687
 1707SOL    HW2 8524   3.887   0.432   7.297  0.0986  0.7086  0.5347
 1708SOL     OW 8525   6.613   7.180   9.393 -0.3145 -0.0283 -0.0059
 1708SOL    HW1 8526   6.637   7.118   9.324  0.7419 -0.5968  0.8336
 1708SOL    HW2 8527   6.521   7.200   9.376 -1.4037 -3.4913  0.8913
 1709SOL     OW 8528   5.360   0.651   1.724 -0.3194  0.3916 -0.8113
 1709SOL    HW1 8529   5.398   0.570   1.758  0.6177  0.6175 -1.2792
 1709SOL    HW2 8530   5.334   0.699   1.803  0.3918  0.2287 -0.4625
 1710SOL     OW 8531  10.668   2.144   1.731 -0.0463  0.0250  0.2131
 1710SOL    HW1 8532  10.595   2.111   1.783  0.4369 -2.0073 -0.3134
 1710SOL    HW2 8533  10.745   2.103   1.770  0.5779  0.4399 -0.5652
 1711SOL     OW 8534   8.573   4.054   6.214 -0.2376 -0.1691  0.3744
 1711SOL    HW1 8535   8.501   4.049   6.152 -1.3595  0.5999  1.5658
 1711SOL    HW2 8536   8.550   3.992   6.283 -0.2937  0.8351  1.2758
 1712SOL     OW 8537   3.799   7.647   8.765 -0.1722  0.1091 -0.0218
 1712SOL    HW1 8538   3.724   7.695   8.802 -0.4951 -0.8524  0.6272
 1712SOL    HW2 8539   3.775   7.631   8.674 -0.0925  1.0908 -0.2285
 1713SOL     OW 8540   2.463   9.128   6.263 -0.6255  0.1494 -0.2761
 1713SOL    HW1 8541   2.402   9.132   6.336  0.4962 -1.4622  0.8195
 1713SOL    HW2 8542   2.494   9.037   6.262  1.2357  0.7366 -1.1858
 1714SOL     OW 8543   4.086  10.790   3.597  0.3938 -0.0862  0.0228
 1714SOL    HW1 8544   4.032  10.865   3.574 -0.5378 -0.6722  0.2715
 1714SOL    HW2 8545   4.160  10.795   3.536 -0.1324  0.5069 -0.5864
 1715SOL     OW 8546  10.369   0.608   7.865  0.5788 -0.4903 -0.3576
 1715SOL    HW1 8547  10.454   0.650   7.881  0.8678 -0.7756 -1.1240
 1715SOL    HW2 8548  10.384   0.516   7.889  0.5932 -0.6139 -0.8303
 1716SOL     OW 8549   5.845   0.317   0.461 -0.0312  0.3016  0.1691
 1716SOL    HW1 8550   5.827   0.400   0.416 -0.5750  1.5996  2.6129
 1716SOL    HW2 8551   5.806   0.250   0.404 -1.5816  1.9306 -0.7883
 1717SOL     OW 8552   8.274   5.997   3.890  0.3541  0.1413  0.6379
 1717SOL    HW1 8553   8.361   6.018   3.857 -0.4045  4.6955  0.8645
 1717SOL    HW2 8554   8.217   6.000   3.813 -0.2502  2.7197  1.0855
 1718SOL     OW 8555   6.190   3.146   1.304 -0.2702 -0.3359 -0.1036
 1718SOL    HW1 8556   6.167   3.217   1.364  2.0290 -0.0817  0.5431
 1718SOL    HW2 8557   6.185   3.186   1.217  0.1382  0.3783  0.1898
 1719SOL     OW 8558   4.067   2.799   9.424  0.0964 -0.3086 -0.1297
 1719SOL    HW1 8559   4.000   2.754   9.372 -0.5362 -0.1068  0.5022
 1719SOL    HW2 8560   4.128   2.731   9.449  1.5435 -0.1328 -2.7896
 1720SOL     OW 8561   2.158   6.038   7.057  0.5201  0.6742 -0.2685
 1720SOL    HW1 8562   2.162   6.044   7.152 -0.4873  2.0995 -0.2838
 1720SOL    HW2 8563   2.126   5.949   7.040  0.3780  0.5198  0.7374
 1721SOL     OW 8564  10.336   7.626   8.476 -0.2040 -0.1436  0.1747
 1721SOL    HW1 8565  10.261   7.677   8.443 -0.3193  0.1461  0.8775
 1721SOL    HW2 8566  10.405   7.644   8.413  0.0392  1.6541  0.8961
 1722SOL     OW 8567   1.320   4.426   0.076  0.0505 -0.2964 -0.1996
 1722SOL    HW1 8568   1.317   4.357   0.009 -1.2622 -0.4989  0.0338
 1722SOL    HW2 8569   1.362   4.384   0.151  0.1343 -0.5478 -0.3847
 1723SOL     OW 8570   1.455   7.059   4.570 -0.2659 -0.5400  0.1043
 1723SOL    HW1 8571   1.518   6.991   4.546 -1.1785 -1.6098  0.6671
 1723SOL    HW2 8572   1.449   7.114   4.492  2.5551  0.5727  0.5471
 1724SOL     OW 8573   7.614   2.540   6.271  0.4868  0.0361  0.1562
 1724SOL    HW1 8574   7.675   2.502   6.208 -0.3126 -2.4134  0.7218
 1724SOL    HW2 8575   7.666   2.551   6.351  1.1209  1.7238 -0.4496
 1725SOL     OW 8576   6.649   4.661   1.454 -0.4719  0.1200  0.1747
 1725SOL    HW1 8577   6.577   4.722   1.471 -0.8311  0.3481 -1.9179
 1725SOL    HW2 8578   6.699   4.660   1.536 -1.8063  1.3734  1.0579
 1726SOL     OW 8579   8.929   3.569   3.342 -0.5275  0.0628 -0.0657
 1726SOL    HW1 8580   9.021   3.569   3.316 -0.7884  0.7072 -1.0166
 1726SOL    HW2 8581   8.896   3.484   3.313  0.2550 -1.0828  2.1667
 1727SOL     OW 8582   1.489  10.433   0.511 -0.6891 -0.4752 -0.0022
 1727SOL    HW1 8583   1.421  10.366   0.500 -0.7444 -0.8320  2.1011
 1727SOL    HW2 8584   1.450  10.497   0.570  0.4961 -0.2265  0.5189
 1728SOL     OW 8585   5.406   7.864  10.916 -0.1240 -0.2937 -0.2265
 1728SOL    HW1 8586   5.362   7.949  10.909 -3.2027 -1.5542  1.8174
 1728SOL    HW2 8587   5.420   7.837  10.826 -0.0215  1.8876 -0.9271
 1729SOL     OW 8588   7.026   3.078   6.105  0.0288  0.6198 -0.7124
 1729SOL    HW1 8589   7.064   3.094   6.019  0.7062 -0.9166 -0.7295
 1729SOL    HW2 8590   7.016   3.165   6.143 -0.2874  1.3330 -2.3221
 1730SOL     OW 8591   5.827   3.872   1.806  0.3657 -0.0002 -0.0108
 1730SOL    HW1 8592   5.806   3.963   1.785 -1.7525 -0.7281 -1.3171
 1730SOL    HW2 8593   5.755   3.822   1.769  0.0745 -2.0434  2.9921
 1731SOL     OW 8594   8.576   6.952   8.099 -0.1403  0.2516 -0.5646
 1731SOL    HW1 8595   8.648   6.976   8.157 -0.7121 -0.2119  0.3526
 1731SOL    HW2 8596   8.503   6.933   8.157 -0.3393 -1.5685 -1.3502
 1732SOL     OW 8597   3.094   3.521   6.630 -0.1322  0.2652  0.8595
 1732SOL    HW1 8598   3.062   3.456   6.694 -1.4949 -1.5478 -1.4865
 1732SOL    HW2 8599   3.062   3.605   6.663 -0.6323 -0.5745  2.6263
 1733SOL     OW 8600   5.542  10.000   2.865 -0.1863 -0.0352 -0.3677
 1733SOL    HW1 8601   5.456  10.038   2.848  0.1221  0.6604 -0.4100
 1733SOL    HW2 8602   5.603  10.072   2.850  0.3958 -0.4938 -0.2295
 1734SOL     OW 8603   8.289   7.141  10.666  0.2938  0.1004 -0.0131
 1734SOL    HW1 8604   8.301   7.050  10.692  1.1561 -0.1477 -1.2087
 1734SOL    HW2 8605   8.203   7.143  10.625  0.3379 -0.2062 -0.1252
 1735SOL     OW 8606   4.537   9.527   9.212  0.3087 -0.6315  0.1940
 1735SOL    HW1 8607   4.453   9.509   9.170  0.8327  0.6371 -1.4804
 1735SOL    HW2 8608   4.514   9.582   9.288 -0.4446 -1.1220  0.3288
 1736SOL     OW 8609   2.844   9.809   9.327  0.2457  0.1950  0.1727
 1736SOL    HW1 8610   2.859   9.716   9.345  0.9509  0.0152 -1.2009
 1736SOL    HW2 8611   2.824   9.812   9.234 -2.9890  1.1002  0.7971
 1737SOL     OW 8612   9.575   5.166   7.802 -0.5159 -0.0229  0.0658
 1737SOL    HW1 8613   9.647   5.103   7.798 -1.1815 -0.8190  0.3536
 1737SOL    HW2 8614   9.616   5.250   7.780  0.2932 -0.6278 -0.8263
 1738SOL     OW 8615   3.642   2.432   8.256  0.0502  0.0364  0.2523
 1738SOL    HW1 8616   3.629   2.360   8.195 -0.1912  0.7316 -0.5412
 1738SOL    HW2 8617   3.564   2.430   8.312 -0.6304  0.4786 -0.6281
 1739SOL     OW 8618   7.864   9.740   0.681  0.5703 -0.0294 -0.4369
 1739SOL    HW1 8619   7.882   9.704   0.768 -2.4171 -0.4822  0.1138
 1739SOL    HW2 8620   7.832   9.828   0.697  1.4032  0.4346 -1.2366
 1740SOL     OW 8621  10.298   5.627   2.174  0.4209  0.1567  0.1549
 1740SOL    HW1 8622  10.358   5.695   2.142 -1.8274  2.7180  1.0350
 1740SOL    HW2 8623  10.268   5.582   2.096 -0.4814  2.3800 -0.8603
 1741SOL     OW 8624  10.179   7.731   2.843 -0.3897 -0.4496 -0.0283
 1741SOL    HW1 8625  10.244   7.733   2.772 -1.1000 -0.5943 -0.6928
 1741SOL    HW2 8626  10.160   7.823   2.860  1.2239 -0.3187  1.3480
 1742SOL     OW 8627   1.127   4.013   8.019  0.2762 -0.2476  0.3066
 1742SOL    HW1 8628   1.207   4.000   7.967 -0.5098 -1.1452 -0.7262
 1742SOL    HW2 8629   1.082   4.086   7.977  0.4842  0.1786  0.8150
 1743SOL     OW 8630   4.198  10.342   4.790 -0.3038  0.6073  0.2360
 1743SOL    HW1 8631   4.108  10.335   4.822 -0.2728 -0.8205  0.1066
 1743SOL    HW2 8632   4.252  10.338   4.869 -0.3380  0.6020  0.2590
 1744SOL     OW 8633   8.132   3.636   0.093  0.0903 -0.1020  0.3355
 1744SOL    HW1 8634   8.133   3.554   0.143 -0.0683 -0.7015 -0.6145
 1744SOL    HW2 8635   8.145   3.609   0.002 -0.0449  0.9257 -0.0048
 1745SOL     OW 8636  10.115   0.881   7.666 -0.3435 -0.0181 -0.4356
 1745SOL    HW1 8637  10.180   0.936   7.623 -0.2201  0.3967  0.2775
 1745SOL    HW2 8638  10.099   0.810   7.604  1.6199 -0.7557 -0.1478
 1746SOL     OW 8639   0.503   1.534   2.306 -0.6115  0.1920 -0.4339
 1746SOL    HW1 8640   0.416   1.573   2.299 -1.3483 -1.1119  0.7254
 1746SOL    HW2 8641   0.496   1.451   2.259  0.3366  0.5358 -1.2159
 1747SOL     OW 8642   8.621   1.098   8.360  0.1846  0.1988 -0.3443
 1747SOL    HW1 8643   8.542   1.138   8.325 -0.2241  0.0212  0.3410
 1747SOL    HW2 8644   8.635   1.143   8.444  0.7785  0.1932 -0.4376
 1748SOL     OW 8645  10.367   6.050   6.375 -0.2539  0.1383 -0.2758
 1748SOL    HW1 8646  10.429   5.984   6.344  0.0566  1.3026 -2.2787
 1748SOL    HW2 8647  10.419   6.107   6.432  0.2651  0.4988 -1.1036
 1749SOL     OW 8648   6.490  10.907   2.215  0.4706  0.4038  0.2426
 1749SOL    HW1 8649   6.481  10.812   2.223 -2.1339  0.6471  1.4073
 1749SOL    HW2 8650   6.528  10.921   2.128  1.0478 -1.6899  0.1192
 1750SOL     OW 8651  10.284   2.265   7.153  0.0493  0.0825 -0.4172
 1750SOL    HW1 8652  10.238   2.201   7.098  0.5205 -1.0658  0.4936
 1750SOL    HW2 8653  10.375   2.262   7.123 -0.0270  0.7606 -0.7481
 1751SOL     OW 8654   8.195   9.989   0.133 -0.0215  0.0831 -0.5027
 1751SOL    HW1 8655   8.223  10.058   0.192  1.1503  0.6841 -1.7320
 1751SOL    HW2 8656   8.105  10.013   0.109 -0.3130  0.1197  0.5748
 1752SOL     OW 8657   1.263   8.617   9.895  0.4430  0.2307 -0.4310
 1752SOL    HW1 8658   1.345   8.621   9.944  0.9378  0.5676 -1.2602
 1752SOL    HW2 8659   1.198   8.655   9.953  0.9779  0.4557  0.0340
 1753SOL     OW 8660   4.637   6.707   8.103 -0.2727 -0.4442 -0.6554
 1753SOL    HW1 8661   4.566   6.764   8.132  0.6734 -0.0391  0.9605
 1753SOL    HW2 8662   4.655   6.651   8.178  1.8772  0.2491 -0.5891
 1754SOL     OW 8663  10.115   5.007   8.640 -0.2711 -0.6503  0.1664
 1754SOL    HW1 8664  10.076   4.942   8.582 -0.6859 -0.6837  0.4809
 1754SOL    HW2 8665  10.053   5.015   8.713 -0.7479  0.8370 -0.3618
 1755SOL     OW 8666   5.652   4.281   9.181 -0.0971  0.3374 -0.3745
 1755SOL    HW1 8667   5.619   4.370   9.183 -2.1740 -0.3729 -0.9493
 1755SOL    HW2 8668   5.679   4.267   9.090 -0.4994  0.1504 -0.4695
 1756SOL     OW 8669   0.456   1.952   1.996  0.2341  0.0870 -0.0665
 1756SOL    HW1 8670   0.516   1.883   2.025  1.8296  0.6332 -1.8707
 1756SOL    HW2 8671   0.394   1.906   1.939 -0.7314 -0.3690  1.3003
 1757SOL     OW 8672   9.199   0.094   9.709 -0.0821  0.0473 -0.3357
 1757SOL    HW1 8673   9.265   0.059   9.648  2.0135  0.7053  1.4148
 1757SOL    HW2 8674   9.191   0.186   9.683  1.5785  0.5945  0.9140
 1758SOL     OW 8675   2.673   7.743   9.071  0.3723 -0.0569  0.6023
 1758SOL    HW1 8676   2.586   7.703   9.074 -0.8203  2.1458 -0.9662
 1758SOL    HW2 8677   2.677   7.798   9.149 -0.2856  0.9226 -0.0244
 1759SOL     OW 8678   2.026  10.071   4.445  0.2533  0.2147 -0.0675
 1759SOL    HW1 8679   2.072  10.029   4.372  0.8947  1.0887 -0.1825
 1759SOL    HW2 8680   2.093  10.080   4.513 -0.3923 -0.7947  0.7334
 1760SOL     OW 8681   6.899   1.354   6.745  0.7852 -0.4936  0.2158
 1760SOL    HW1 8682   6.825   1.398   6.704  0.8597 -0.2224  0.3706
 1760SOL    HW2 8683   6.895   1.380   6.837 -0.6741 -2.8109  0.8982
 1761SOL     OW 8684   1.115   1.568   8.930  0.0726  0.0125  0.6933
 1761SOL    HW1 8685   1.182   1.501   8.945  0.7555  0.7905  1.2161
 1761SOL    HW2 8686   1.118   1.623   9.008  1.4681  2.2871 -0.8357
 1762SOL     OW 8687   2.291   1.263   3.697  0.3058  0.3639  0.3112
 1762SOL    HW1 8688   2.332   1.230   3.617 -0.4621  1.1843 -0.4515
 1762SOL    HW2 8689   2.211   1.212   3.706 -0.5668  1.5196 -0.5253
 1763SOL     OW 8690   4.771   2.586  10.881  0.6795  0.0328 -0.0880
 1763SOL    HW1 8691   4.762   2.577  10.976  1.4744  0.1847  0.0113
 1763SOL    HW2 8692   4.847   2.532  10.859  0.4883 -0.0160 -0.6447
 1764SOL     OW 8693   5.598   4.362   3.942  0.3850 -0.0334  0.3141
 1764SOL    HW1 8694   5.687   4.356   3.977  0.6257  0.7735 -0.1626
 1764SOL    HW2 8695   5.565   4.446   3.972 -0.8926 -1.0571  2.0077
 1765SOL     OW 8696   4.296   6.175  10.855 -0.1984  0.4548 -0.1910
 1765SOL    HW1 8697   4.307   6.107  10.921  0.6279  1.7807  1.0905
 1765SOL    HW2 8698   4.309   6.130  10.771  1.5718 -0.7288  0.6619
 1766SOL     OW 8699   9.646   5.333   1.727 -0.1339 -0.1123 -0.5236
 1766SOL    HW1 8700   9.734   5.359   1.699 -0.1461 -0.7461 -1.1649
 1766SOL    HW2 8701   9.588   5.398   1.687 -0.0934 -0.6342 -1.4706
 1767SOL     OW 8702   9.199  10.751   1.485  0.5892  0.1991  0.7079
 1767SOL    HW1 8703   9.264  10.681   1.494  1.3048  0.8342  0.6233
 1767SOL    HW2 8704   9.211  10.805   1.563 -0.9315 -0.5432  1.4801
 1768SOL     OW 8705   8.826   9.443  10.593 -0.1753  0.2289 -0.3117
 1768SOL    HW1 8706   8.843   9.529  10.555  1.2071 -0.2183 -0.7588
 1768SOL    HW2 8707   8.870   9.382  10.534  0.8060 -0.6036  1.2363
 1769SOL     OW 8708   2.520   7.600   5.150 -0.7448  0.3584 -0.1474
 1769SOL    HW1 8709   2.454   7.643   5.206  0.1373  0.9287  0.4759
 1769SOL    HW2 8710   2.468   7.555   5.083 -1.8514 -0.6330  1.3118
 1770SOL     OW 8711   2.885   5.574   6.156 -0.0447  0.3440 -0.6908
 1770SOL    HW1 8712   2.858   5.505   6.217 -0.1731  0.6000 -0.4536
 1770SOL    HW2 8713   2.980   5.574   6.161 -0.0783  0.9468  0.1765
 1771SOL     OW 8714  10.721  10.002   7.189 -0.1305 -0.7168 -0.0685
 1771SOL    HW1 8715  10.640   9.950   7.188  0.4057 -1.6714  1.6414
 1771SOL    HW2 8716  10.728  10.033   7.280  0.4170  1.0351 -0.6705
 1772SOL     OW 8717   2.704   9.133   0.903  0.0352 -0.0259 -0.1546
 1772SOL    HW1 8718   2.668   9.197   0.964 -0.5985 -2.0201  1.6747
 1772SOL    HW2 8719   2.795   9.122   0.930  1.1232  2.2588 -2.4329
 1773SOL     OW 8720   9.818   4.181   2.755  0.2766  0.1745 -0.0085
 1773SOL    HW1 8721   9.746   4.121   2.773 -0.7543  0.7806 -1.8842
 1773SOL    HW2 8722   9.897   4.131   2.778 -0.6632 -0.9092  0.9929
 1774SOL     OW 8723   6.237   3.449  10.730 -0.6389 -0.1760  0.6110
 1774SOL    HW1 8724   6.158   3.495  10.758 -0.5114  0.1593  0.4180
 1774SOL    HW2 8725   6.262   3.491  10.647 -2.3098 -2.5856 -1.2770
 1775SOL     OW 8726   6.876   8.991   2.058 -0.1064  0.6869  0.1317
 1775SOL    HW1 8727   6.957   8.956   2.095 -0.7002 -0.2080  0.6271
 1775SOL    HW2 8728   6.873   9.082   2.087 -0.1629  0.2317  1.6450
 1776SOL     OW 8729   0.996   1.511   6.021 -0.0685 -0.0066 -0.5191
 1776SOL    HW1 8730   0.953   1.429   5.995 -0.6259 -0.7712  2.4550
 1776SOL    HW2 8731   0.930   1.556   6.073  1.0155  1.3020 -0.2468
 1777SOL     OW 8732   3.318   1.364   8.175 -0.5224  0.1464 -0.4768
 1777SOL    HW1 8733   3.413   1.354   8.168 -0.5372 -0.5182  0.1258
 1777SOL    HW2 8734   3.303   1.383   8.268 -1.1836 -2.7435  0.1056
 1778SOL     OW 8735   0.768   1.062   0.065 -0.0002 -0.1622  0.1311
 1778SOL    HW1 8736   0.842   1.080   0.123  0.1155 -0.4095  0.0597
 1778SOL    HW2 8737   0.691   1.079   0.120  0.1066  0.2759  0.1483
 1779SOL     OW 8738  10.191   8.008   3.417 -0.2258  0.4524  0.2703
 1779SOL    HW1 8739  10.164   7.917   3.400 -1.0390  0.7710 -0.1616
 1779SOL    HW2 8740  10.196   8.048   3.330 -1.9042  1.3858  0.5710
 1780SOL     OW 8741   2.750   3.993   9.661  0.0708 -0.6130  0.4436
 1780SOL    HW1 8742   2.752   4.060   9.593 -1.0164 -2.0269 -1.0440
 1780SOL    HW2 8743   2.787   3.915   9.620  2.4143 -0.6782  2.5057
 1781SOL     OW 8744   3.967   2.226   2.374  0.3708 -0.4299 -0.0231
 1781SOL    HW1 8745   3.894   2.215   2.314 -0.4216 -0.3309  0.9053
 1781SOL    HW2 8746   3.986   2.320   2.372  0.1744 -0.3882  0.0729
 1782SOL     OW 8747   2.620   4.001   2.972 -0.1177 -0.2507  0.3868
 1782SOL    HW1 8748   2.659   3.978   3.056 -0.2470 -1.5140  0.1191
 1782SOL    HW2 8749   2.583   3.919   2.939  0.0706  0.1751 -0.9708
 1783SOL     OW 8750   4.779   7.622   5.677  0.8326  0.5958  0.4839
 1783SOL    HW1 8751   4.770   7.585   5.590 -1.2753  0.9986  0.4603
 1783SOL    HW2 8752   4.771   7.717   5.663  1.4839  0.7335  1.0137
 1784SOL     OW 8753   4.990   7.842   1.120  0.1627 -0.5130 -0.6325
 1784SOL    HW1 8754   4.920   7.788   1.156  0.9405 -0.3470  1.2148
 1784SOL    HW2 8755   4.948   7.925   1.099 -0.2008 -0.3826  0.5464
 1785SOL     OW 8756   0.077   1.980   0.943  0.7590  0.1160  0.3165
 1785SOL    HW1 8757   0.109   1.981   1.033 -0.7516 -0.3944  0.8878
 1785SOL    HW2 8758   0.024   2.059   0.935  1.7501  0.7287 -0.4843
 1786SOL     OW 8759   5.231  10.628  10.286 -0.8221 -0.1762 -0.3215
 1786SOL    HW1 8760   5.287  10.573  10.341  0.1416  0.6693 -0.4392
 1786SOL    HW2 8761   5.270  10.715  10.290 -2.3808  0.5440 -0.0650
 1787SOL     OW 8762   4.903   3.791   7.936 -0.3437  0.9188  0.1875
 1787SOL    HW1 8763   4.975   3.779   7.873  1.2244 -0.0353  2.0492
 1787SOL    HW2 8764   4.825   3.765   7.888  0.5441  1.7531 -1.8605
 1788SOL     OW 8765   0.174   6.747   5.250  0.3012  0.6501 -0.1755
 1788SOL    HW1 8766   0.174   6.841   5.232 -2.5828  1.1238  1.6533
 1788SOL    HW2 8767   0.112   6.737   5.322 -0.8396 -2.8419 -1.4304
 1789SOL     OW 8768   0.534   6.280   4.779 -0.8052 -0.2930  0.0096
 1789SOL    HW1 8769   0.506   6.326   4.700 -0.0436 -0.8427 -0.5893
 1789SOL    HW2 8770   0.628   6.295   4.785 -0.7037 -0.9784  0.3281
 1790SOL     OW 8771  10.299   2.486   6.258  0.4799  0.2183  0.7398
 1790SOL    HW1 8772  10.266   2.420   6.198  2.8518 -0.2870 -0.1356
 1790SOL    HW2 8773  10.240   2.483   6.333 -2.6602  0.9351 -1.5101
 1791SOL     OW 8774   3.065   7.688   7.656  0.0352 -0.2243 -0.2898
 1791SOL    HW1 8775   3.140   7.713   7.603  0.0942  0.1363 -0.0438
 1791SOL    HW2 8776   3.006   7.763   7.651 -0.2653 -0.4664 -0.4039
 1792SOL     OW 8777   5.996   3.872   7.297  0.4493  0.3101 -0.0750
 1792SOL    HW1 8778   6.089   3.855   7.310  0.2499 -0.8968 -0.0328
 1792SOL    HW2 8779   5.952   3.816   7.361 -0.3084  0.9179 -0.0420
 1793SOL     OW 8780   3.994   1.928  10.601  0.0738  0.3969 -0.1973
 1793SOL    HW1 8781   4.067   1.903  10.657 -0.3945  2.1234  1.3007
 1793SOL    HW2 8782   3.970   1.847  10.555  2.0024 -0.5246  0.3192
 1794SOL     OW 8783   4.168   6.136   8.421  0.1414 -0.0024  0.0261
 1794SOL    HW1 8784   4.121   6.219   8.429  0.2964  0.0067  0.8599
 1794SOL    HW2 8785   4.111   6.072   8.464 -0.8180 -0.6792 -2.1164
 1795SOL     OW 8786   8.835   9.348   7.722  0.0757 -0.5538 -0.6091
 1795SOL    HW1 8787   8.907   9.315   7.668 -0.3296 -0.4571 -1.2215
 1795SOL    HW2 8788   8.764   9.363   7.660 -0.4990 -0.7167  0.0013
 1796SOL     OW 8789   7.648   2.108   5.874  0.3537 -0.1799  0.7337
 1796SOL    HW1 8790   7.574   2.048   5.877  0.9046 -0.9157  0.0934
 1796SOL    HW2 8791   7.722   2.053   5.851  1.1561  0.4990  1.5850
 1797SOL     OW 8792   0.932   9.845   3.903 -0.0045 -0.3630  0.6571
 1797SOL    HW1 8793   0.937   9.807   3.990  1.8188 -2.0973 -0.1183
 1797SOL    HW2 8794   0.980   9.784   3.847 -0.6058  0.9853 -1.4636
 1798SOL     OW 8795   7.457   9.750   0.310 -0.2529  0.0690  0.4349
 1798SOL    HW1 8796   7.376   9.715   0.273  0.1337 -1.2385  0.7824
 1798SOL    HW2 8797   7.526   9.707   0.261  0.2473 -0.5179  1.6058
 1799SOL     OW 8798   3.407  10.496   0.813 -0.1150  0.7826  0.1867
 1799SOL    HW1 8799   3.403  10.473   0.906  0.0118  1.2285  0.3042
 1799SOL    HW2 8800   3.489  10.544   0.803 -0.2901  1.0272 -0.0905
 1800SOL     OW 8801   4.632   0.300   0.302 -0.2207 -0.2077 -0.5682
 1800SOL    HW1 8802   4.559   0.244   0.330 -0.8622 -0.0931 -1.9636
 1800SOL    HW2 8803   4.678   0.321   0.384 -1.7515 -0.2745  0.3500
 1801SOL     OW 8804   8.115   5.577   1.578 -0.0837  0.3410 -0.3881
 1801SOL    HW1 8805   8.034   5.526   1.588 -0.5869  1.3962  1.4400
 1801SOL    HW2 8806   8.185   5.511   1.577 -0.8858 -0.5314 -0.9154
 1802SOL     OW 8807   4.650   4.283   2.552  0.0676  0.5514 -0.5710
 1802SOL    HW1 8808   4.609   4.319   2.631 -0.7806  0.3106 -0.8844
 1802SOL    HW2 8809   4.708   4.214   2.584 -1.4570 -0.6197 -0.2440
 1803SOL     OW 8810   0.845  10.288   7.543  0.3818  0.0939  0.2677
 1803SOL    HW1 8811   0.795  10.325   7.471  0.4052  0.0852  0.2469
 1803SOL    HW2 8812   0.779  10.254   7.604  0.3570  0.2774  0.3439
 1804SOL     OW 8813   2.521  10.421   2.580  0.6606 -0.3239  0.2499
 1804SOL    HW1 8814   2.595  10.467   2.542 -0.0358  0.1417 -0.5848
 1804SOL    HW2 8815   2.560  10.351   2.632  1.6784 -0.0819 -0.1702
 1805SOL     OW 8816   1.760   4.925   4.140  0.0297 -0.0822 -0.2631
 1805SOL    HW1 8817   1.724   4.952   4.224 -0.4082 -0.5815 -0.2846
 1805SOL    HW2 8818   1.751   5.001   4.084 -0.4533 -0.0174 -0.0957
 1806SOL     OW 8819   4.893   7.924   0.355  0.0735 -0.6657 -0.0117
 1806SOL    HW1 8820   4.843   7.972   0.289 -0.5667 -0.7206  0.4237
 1806SOL    HW2 8821   4.985   7.935   0.329 -0.2373 -2.4355 -2.1322
 1807SOL     OW 8822   6.623   0.234   7.890  0.0928  0.4370  0.3730
 1807SOL    HW1 8823   6.531   0.239   7.863  0.4456  0.0819 -0.9948
 1807SOL    HW2 8824   6.633   0.306   7.952 -1.2626  0.0589  1.0722
 1808SOL     OW 8825   9.993   8.991   4.923  0.2127  0.2558  0.3562
 1808SOL    HW1 8826   9.929   8.981   4.994  0.5587 -0.6696  0.5559
 1808SOL    HW2 8827  10.025   9.081   4.933 -2.5866  1.5603 -1.0803
 1809SOL     OW 8828   1.670   9.708  10.095 -0.3348  0.0075  0.1426
 1809SOL    HW1 8829   1.608   9.729  10.025  0.0527 -0.2792 -0.2900
 1809SOL    HW2 8830   1.654   9.615  10.113 -0.0948 -0.0444  0.0891
 1810SOL     OW 8831   3.636  10.174   5.781 -0.2957 -0.5633  0.1208
 1810SOL    HW1 8832   3.624  10.265   5.806  0.0715 -0.0748 -1.3906
 1810SOL    HW2 8833   3.650  10.128   5.864 -1.5764  0.5606  1.0055
 1811SOL     OW 8834   4.628   1.345   7.246  1.2203 -0.2822 -0.5935
 1811SOL    HW1 8835   4.586   1.277   7.299 -1.5424  1.2969 -0.5357
 1811SOL    HW2 8836   4.613   1.426   7.295 -0.5725  1.1005 -3.1773
 1812SOL     OW 8837  10.596   6.820   9.913 -0.2034 -0.3994 -0.1856
 1812SOL    HW1 8838  10.636   6.815  10.000 -1.6409 -0.2467  0.5165
 1812SOL    HW2 8839  10.623   6.739   9.869 -0.6247 -1.1683  0.9296
 1813SOL     OW 8840   2.548   0.559   0.667  0.4114  0.4328 -0.1149
 1813SOL    HW1 8841   2.598   0.493   0.714  0.7924  0.9630  0.2328
 1813SOL    HW2 8842   2.536   0.522   0.580  0.4254 -0.1904  0.1421
 1814SOL     OW 8843   2.541   4.119  10.639  0.2390 -0.1123  0.2118
 1814SOL    HW1 8844   2.502   4.071  10.566 -1.5109  0.8764  0.4445
 1814SOL    HW2 8845   2.635   4.108  10.627 -0.0301 -0.7996 -1.6201
 1815SOL     OW 8846  10.574  10.862   0.486 -0.2456 -0.0074  0.3396
 1815SOL    HW1 8847  10.642  10.895   0.544  1.5021 -0.8352 -1.1370
 1815SOL    HW2 8848  10.581  10.767   0.492 -0.6581 -0.1095 -0.5157
 1816SOL     OW 8849   8.251   2.948  10.587  0.0844  0.4802 -0.3772
 1816SOL    HW1 8850   8.223   3.039  10.577  0.6983  0.6799 -0.3281
 1816SOL    HW2 8851   8.251   2.913  10.498  0.4096  0.6974 -0.4619
 1817SOL     OW 8852   4.122   3.248   9.126 -0.0045 -0.4746  0.1172
 1817SOL    HW1 8853   4.030   3.237   9.149 -0.2985 -2.0967 -1.5927
 1817SOL    HW2 8854   4.169   3.192   9.187  0.0241  1.2098  1.7375
 1818SOL     OW 8855   4.582   6.299   2.635  0.1573  0.0669  0.5128
 1818SOL    HW1 8856   4.562   6.273   2.725 -0.4573  1.1508  0.6990
 1818SOL    HW2 8857   4.602   6.216   2.591  2.2135 -0.3490  2.0395
 1819SOL     OW 8858   1.508   6.927   6.383  0.4205 -0.0447  0.1197
 1819SOL    HW1 8859   1.518   6.865   6.455  0.6156  2.1667  2.1035
 1819SOL    HW2 8860   1.595   6.965   6.372 -0.0502  1.0948  0.1385
 1820SOL     OW 8861  10.807  10.186   3.875 -0.4648 -0.5270  0.4647
 1820SOL    HW1 8862  10.834  10.268   3.833 -0.3840 -1.0884 -0.6245
 1820SOL    HW2 8863  10.881  10.161   3.929 -0.6340  0.3018  1.1066
 1821SOL     OW 8864   9.743   1.784   1.916  0.3449 -0.2206  0.7771
 1821SOL    HW1 8865   9.741   1.706   1.859  0.4638  0.7382 -0.5801
 1821SOL    HW2 8866   9.835   1.811   1.915  0.0831  0.6622  0.2290
 1822SOL     OW 8867   5.893   5.183   8.907  0.2079  0.1770  0.1723
 1822SOL    HW1 8868   5.851   5.245   8.966 -1.5084 -0.3050 -0.5037
 1822SOL    HW2 8869   5.862   5.208   8.820  0.1093 -1.1371 -0.1843
 1823SOL     OW 8870   0.689   8.960   4.982  0.2173  0.3617 -0.1239
 1823SOL    HW1 8871   0.704   8.923   4.895 -1.2742  1.6281 -0.9455
 1823SOL    HW2 8872   0.598   8.988   4.982 -0.1595 -0.6071  2.2487
 1824SOL     OW 8873   4.026   0.595   6.488  0.5887  0.3304 -0.1679
 1824SOL    HW1 8874   4.119   0.577   6.496  0.7498  1.5025  0.7957
 1824SOL    HW2 8875   4.004   0.645   6.567 -1.4127 -2.1214  0.9758
 1825SOL     OW 8876   0.236   6.779   4.162  0.0463  0.4762  0.2994
 1825SOL    HW1 8877   0.271   6.708   4.217  3.4450  2.5453  1.1048
 1825SOL    HW2 8878   0.304   6.795   4.097 -0.2180  3.3939  0.5926
 1826SOL     OW 8879   9.247   0.509   2.832 -0.4195 -0.0943  0.2341
 1826SOL    HW1 8880   9.219   0.443   2.894  1.8767  0.2398  1.7489
 1826SOL    HW2 8881   9.267   0.586   2.885  2.9593 -0.2312 -0.6249
 1827SOL     OW 8882   6.572   2.808   1.271 -0.3380 -0.4635  0.1179
 1827SOL    HW1 8883   6.552   2.786   1.180 -0.2490  1.5396 -0.4176
 1827SOL    HW2 8884   6.499   2.863   1.299  0.3611  0.1375  0.7872
 1828SOL     OW 8885   0.035   8.646   6.521  0.3402 -0.3529  0.4291
 1828SOL    HW1 8886   0.082   8.726   6.498  0.3045 -0.3629  0.3181
 1828SOL    HW2 8887   0.053   8.633   6.614  0.3984 -0.2507  0.4321
 1829SOL     OW 8888   7.919   0.932   1.521  0.0142  0.0327 -0.4556
 1829SOL    HW1 8889   7.853   0.865   1.539 -1.1190  0.8667 -1.2944
 1829SOL    HW2 8890   7.897   1.003   1.582  0.3912  0.1613 -0.4707
 1830SOL     OW 8891   7.853   9.980   4.397  0.7504 -0.0790 -0.2501
 1830SOL    HW1 8892   7.905  10.055   4.367  0.0514 -0.2201 -1.9432
 1830SOL    HW2 8893   7.782   9.973   4.333 -0.2605 -1.0578  0.9293
 1831SOL     OW 8894   9.772   7.681   3.253 -0.1275  0.3612 -0.0808
 1831SOL    HW1 8895   9.741   7.638   3.173  0.3650  0.7763 -0.5063
 1831SOL    HW2 8896   9.760   7.775   3.236 -1.3453  0.3984  0.9000
 1832SOL     OW 8897   1.294   5.631   5.626 -0.2830 -0.0887 -0.0952
 1832SOL    HW1 8898   1.242   5.668   5.697 -1.1139 -1.1817 -0.1118
 1832SOL    HW2 8899   1.329   5.549   5.662  0.5110  0.0850 -0.4582
 1833SOL     OW 8900   5.562   8.465   1.914 -0.7487  0.1359  0.4259
 1833SOL    HW1 8901   5.575   8.451   2.008 -1.6373 -1.3607  0.3465
 1833SOL    HW2 8902   5.614   8.397   1.872 -1.5184 -0.1243 -0.1254
 1834SOL     OW 8903   9.780   1.018   5.693  0.1089 -0.8055  0.3316
 1834SOL    HW1 8904   9.705   0.959   5.694 -0.2017 -0.4229  1.5477
 1834SOL    HW2 8905   9.757   1.084   5.627 -0.9663 -0.2889  1.1845
 1835SOL     OW 8906  10.909   0.070   2.864 -0.2236  0.4507  0.1814
 1835SOL    HW1 8907  10.911   0.155   2.908  1.7142  1.0022 -0.8747
 1835SOL    HW2 8908  10.989   0.026   2.892  0.2851  0.2002 -1.5695
 1836SOL     OW 8909   3.119   3.208   6.380 -0.5527  0.1051 -0.5254
 1836SOL    HW1 8910   3.105   3.141   6.447  0.2248  2.0863  1.7405
 1836SOL    HW2 8911   3.212   3.229   6.387 -0.5774  0.7509 -1.8960
 1837SOL     OW 8912  10.722   6.051   5.588  0.1298 -0.0664  0.3154
 1837SOL    HW1 8913  10.672   6.015   5.514 -1.2021  1.9041  0.1692
 1837SOL    HW2 8914  10.774   6.121   5.549 -0.4077  0.8342  1.1618
 1838SOL     OW 8915   0.753  10.067   9.507 -0.4451 -0.0703  0.6390
 1838SOL    HW1 8916   0.803  10.020   9.574 -0.5153 -0.7186  0.2413
 1838SOL    HW2 8917   0.663  10.066   9.540 -0.3328  0.4394  0.9860
 1839SOL     OW 8918   5.044   5.409  10.187  0.3784 -0.1482  0.4321
 1839SOL    HW1 8919   4.997   5.488  10.212  0.1761  0.3630 -1.4065
 1839SOL    HW2 8920   5.137   5.433  10.191  0.3525 -0.0865  0.6738
 1840SOL     OW 8921   2.112   2.473   7.446 -0.0864 -0.3016  0.5525
 1840SOL    HW1 8922   2.174   2.405   7.472  0.6522 -0.4687 -1.4294
 1840SOL    HW2 8923   2.088   2.450   7.356 -1.9581  0.5587  0.7903
 1841SOL     OW 8924   0.151   4.657   0.445  0.1183  0.1424  0.1460
 1841SOL    HW1 8925   0.145   4.707   0.526  3.6018 -0.4896  0.9723
 1841SOL    HW2 8926   0.181   4.570   0.473  0.8464 -0.2666 -1.7463
 1842SOL     OW 8927   7.401  10.335   3.896  0.8643 -0.6095  0.1638
 1842SOL    HW1 8928   7.351  10.293   3.826  1.1007 -2.2541  0.9295
 1842SOL    HW2 8929   7.360  10.305   3.976  1.7766 -0.3026  0.7654
 1843SOL     OW 8930   6.861   0.264   0.719  0.6797  0.3820  0.1693
 1843SOL    HW1 8931   6.879   0.284   0.810  2.5485  1.5162 -0.4038
 1843SOL    HW2 8932   6.947   0.249   0.679 -0.0193  0.7014 -1.5700
 1844SOL     OW 8933   8.541   2.408   0.632 -0.0375 -0.4538 -0.7108
 1844SOL    HW1 8934   8.636   2.420   0.633 -0.3086  2.8916  0.8861
 1844SOL    HW2 8935   8.518   2.410   0.540  1.4627 -2.1449 -1.1759
 1845SOL     OW 8936   0.013   9.316   6.272 -0.2573 -0.2632  0.1655
 1845SOL    HW1 8937   0.099   9.358   6.270  0.2082 -1.2073 -0.7156
 1845SOL    HW2 8938  -0.019   9.322   6.182 -0.8605 -0.4536  0.3600
 1846SOL     OW 8939   0.198   0.285   3.207 -0.1071  0.1335 -0.0359
 1846SOL    HW1 8940   0.265   0.226   3.172  0.2254 -0.6773  1.8574
 1846SOL    HW2 8941   0.123   0.274   3.148  0.3811 -1.2548 -0.4401
 1847SOL     OW 8942   4.811   3.162   1.717 -0.4552  0.2778  0.2155
 1847SOL    HW1 8943   4.808   3.201   1.804 -0.0147  1.2976 -0.2123
 1847SOL    HW2 8944   4.869   3.087   1.725 -0.3121  0.4499  0.7642
 1848SOL     OW 8945   3.611   5.010  10.564 -0.1317  0.3280  0.7353
 1848SOL    HW1 8946   3.660   4.992  10.484  1.6476 -1.0514  2.0376
 1848SOL    HW2 8947   3.584   5.101  10.556 -0.3632  0.1241 -1.5745
 1849SOL     OW 8948   1.076   9.995   1.928 -0.2689  0.4234 -0.5872
 1849SOL    HW1 8949   1.072   9.900   1.942 -0.0524  0.7917  2.7307
 1849SOL    HW2 8950   1.165  10.010   1.895  0.0335 -0.4472 -0.2091
 1850SOL     OW 8951   9.510   5.085  10.492  0.1274  0.2902 -0.2819
 1850SOL    HW1 8952   9.504   4.990  10.487  0.5391  0.3172 -1.5248
 1850SOL    HW2 8953   9.596   5.102  10.531 -0.2986  0.1571  0.7481
 1851SOL     OW 8954   1.545   2.174   2.380  0.2606 -0.7395  0.5273
 1851SOL    HW1 8955   1.554   2.269   2.386 -0.6148 -0.6664  0.8297
 1851SOL    HW2 8956   1.621   2.145   2.329 -0.4088  0.3101 -1.1501
 1852SOL     OW 8957   2.306   4.016   4.744  0.4773  0.2584 -0.0962
 1852SOL    HW1 8958   2.300   4.099   4.792  1.2991  1.3246 -1.7613
 1852SOL    HW2 8959   2.229   4.015   4.688 -0.5391 -1.0413  1.2306
 1853SOL     OW 8960   1.982   5.922   8.546  0.7685 -0.2818  0.0104
 1853SOL    HW1 8961   1.946   5.939   8.460 -2.1237  0.1458  1.1853
 1853SOL    HW2 8962   2.077   5.927   8.534  0.4355  2.3662 -2.5962
 1854SOL     OW 8963   8.888   3.937   1.160  0.1131 -0.9047  0.6405
 1854SOL    HW1 8964   8.910   3.935   1.067 -0.5178 -1.4071  0.4971
 1854SOL    HW2 8965   8.945   4.004   1.197 -1.0263  0.7504 -0.4777
 1855SOL     OW 8966   7.850   8.219   9.409  0.3228 -0.1662 -0.3655
 1855SOL    HW1 8967   7.780   8.184   9.465  1.1664 -0.5633  0.4708
 1855SOL    HW2 8968   7.883   8.295   9.457  1.5204 -0.9169  0.0357
 1856SOL     OW 8969  10.360   1.540   8.437  0.1195 -0.2498  0.2362
 1856SOL    HW1 8970  10.283   1.512   8.486 -1.6531  0.5413 -1.9272
 1856SOL    HW2 8971  10.394   1.461   8.397  0.2167 -0.5346  0.8656
 1857SOL     OW 8972   2.177   7.985   6.250 -0.1234  0.0420 -0.3254
 1857SOL    HW1 8973   2.135   8.070   6.239  0.3392  0.2178 -0.7676
 1857SOL    HW2 8974   2.218   7.967   6.165  1.3870  0.2602  0.3152
 1858SOL     OW 8975   7.617   8.455   1.199  0.1158 -0.8288 -0.3532
 1858SOL    HW1 8976   7.568   8.507   1.263  1.2494  0.6727 -0.6407
 1858SOL    HW2 8977   7.638   8.374   1.245 -2.6582 -1.5687 -0.2531
 1859SOL     OW 8978   8.588   7.510   5.337  0.0031 -0.2365  0.2444
 1859SOL    HW1 8979   8.667   7.485   5.385 -0.6264  0.9663  2.0116
 1859SOL    HW2 8980   8.552   7.584   5.387 -2.2613 -0.7661 -0.4835
 1860SOL     OW 8981   0.551   9.818  10.559  0.4942 -0.2060  0.1539
 1860SOL    HW1 8982   0.503   9.899  10.540  2.4559  0.6028 -1.8085
 1860SOL    HW2 8983   0.511   9.753  10.501  1.4197  0.3591 -1.1600
 1861SOL     OW 8984   7.005   9.728   6.266 -0.2679 -0.3442 -0.5802
 1861SOL    HW1 8985   6.959   9.646   6.247  1.2340 -1.6273  0.9857
 1861SOL    HW2 8986   7.009   9.731   6.361  0.4069  1.1712 -0.6402
 1862SOL     OW 8987  10.476   8.911   4.513 -0.0832  0.0586  0.3092
 1862SOL    HW1 8988  10.495   8.840   4.574 -0.0167 -0.1372  0.0607
 1862SOL    HW2 8989  10.539   8.980   4.536  0.7964 -0.5043 -0.3769
 1863SOL     OW 8990   5.698   6.684   6.042  0.5386 -0.1164  0.3183
 1863SOL    HW1 8991   5.737   6.674   6.129  1.1498  0.6918  0.1492
 1863SOL    HW2 8992   5.604   6.683   6.058  0.5921 -2.0355  0.7481
 1864SOL     OW 8993   5.494   3.222   5.424  0.1336 -0.2309 -0.1753
 1864SOL    HW1 8994   5.499   3.317   5.413 -1.8291  0.1822  1.7387
 1864SOL    HW2 8995   5.484   3.209   5.519 -1.7912 -2.1619 -0.5547
 1865SOL     OW 8996   6.318   4.494  10.198 -0.3512  0.5546  0.1994
 1865SOL    HW1 8997   6.286   4.544  10.122 -0.5264  1.0779  0.6097
 1865SOL    HW2 8998   6.239   4.453  10.234 -0.4266  1.1064  0.6753
 1866SOL     OW 8999   4.396   7.056   8.443  0.0630  0.4341 -0.0287
 1866SOL    HW1 9000   4.393   6.994   8.515 -2.3183 -1.9498 -2.0002
 1866SOL    HW2 9001   4.321   7.114   8.458  0.8791  1.3823  0.5301
 1867SOL     OW 9002   7.092   1.250   6.034  0.7591 -0.1252  0.5589
 1867SOL    HW1 9003   7.039   1.176   6.065 -0.7774  0.3670 -0.7655
 1867SOL    HW2 9004   7.155   1.210   5.975 -0.1035 -0.4053 -0.1997
 1868SOL     OW 9005   1.557   5.459   5.755 -0.8039  0.0147  0.2932
 1868SOL    HW1 9006   1.632   5.442   5.813 -1.1670  0.1535  0.8076
 1868SOL    HW2 9007   1.597   5.471   5.669 -0.2353 -0.0067  0.5427
 1869SOL     OW 9008   6.718   2.542   8.087 -0.3475 -0.2117 -0.7070
 1869SOL    HW1 9009   6.677   2.573   8.006 -1.3985  1.2971  0.3430
 1869SOL    HW2 9010   6.775   2.615   8.114 -1.9043  0.3873  1.1687
 1870SOL     OW 9011   2.497   6.628   8.670 -0.5361 -0.6584  0.1688
 1870SOL    HW1 9012   2.483   6.534   8.666 -1.0961 -0.5460 -1.8147
 1870SOL    HW2 9013   2.536   6.650   8.585 -0.0752  0.8454  0.7403
 1871SOL     OW 9014   2.643   0.103   7.638 -0.0645  0.2838  0.1993
 1871SOL    HW1 9015   2.585   0.062   7.702  0.1512 -1.7362 -0.8259
 1871SOL    HW2 9016   2.729   0.063   7.655  0.4750  1.3406  0.0401
 1872SOL     OW 9017  10.146   7.330   8.385 -0.0682 -0.2325  0.2759
 1872SOL    HW1 9018  10.055   7.328   8.415 -0.2069 -4.0160  0.0462
 1872SOL    HW2 9019  10.195   7.285   8.454  1.3566  0.2068 -0.4086
 1873SOL     OW 9020   8.086   4.327   1.417  0.6642 -0.4502 -0.5186
 1873SOL    HW1 9021   8.041   4.258   1.368 -0.5305 -0.5722  0.6755
 1873SOL    HW2 9022   8.138   4.280   1.483 -1.0932 -0.2576  1.0924
 1874SOL     OW 9023   2.296   8.596   6.875  0.1799  0.0016  0.1251
 1874SOL    HW1 9024   2.295   8.589   6.971  1.2518 -2.4481  0.0382
 1874SOL    HW2 9025   2.221   8.651   6.854 -2.5624 -2.5799  2.2024
 1875SOL     OW 9026   3.007  10.031   6.827  0.7991 -0.3941 -0.3807
 1875SOL    HW1 9027   3.094  10.070   6.823 -0.2733  2.2538 -0.1743
 1875SOL    HW2 9028   2.948  10.106   6.832 -1.3229 -1.9347  4.9524
 1876SOL     OW 9029   1.863   9.855   5.714  0.5011  0.4086  0.0342
 1876SOL    HW1 9030   1.827   9.803   5.785  1.9829 -0.1327  0.4320
 1876SOL    HW2 9031   1.895   9.935   5.757  0.9287  0.3077 -0.0857
 1877SOL     OW 9032   7.701   7.981   3.767 -0.1191 -0.6865 -0.6616
 1877SOL    HW1 9033   7.796   7.979   3.780  0.0038 -0.7157 -1.4985
 1877SOL    HW2 9034   7.679   7.891   3.739 -0.6381 -1.1273  1.0762
 1878SOL     OW 9035   2.858   9.373   6.839  0.2298 -0.1068  0.2575
 1878SOL    HW1 9036   2.886   9.299   6.786 -0.0506  0.8049 -1.2287
 1878SOL    HW2 9037   2.774   9.346   6.876  0.5272 -0.8386  0.4130
 1879SOL     OW 9038   1.697   3.326   2.132  0.4427  0.1561  0.6877
 1879SOL    HW1 9039   1.669   3.405   2.179 -0.5146 -0.1527  0.6587
 1879SOL    HW2 9040   1.792   3.326   2.141  0.5760  1.8829 -0.2017
 1880SOL     OW 9041   2.308   4.960   1.435  0.7747 -0.3709 -0.0397
 1880SOL    HW1 9042   2.305   4.864   1.426  2.5896 -0.4959  0.3103
 1880SOL    HW2 9043   2.216   4.987   1.433  0.1879 -2.1778  0.4574
 1881SOL     OW 9044   3.050  10.411  10.269  0.0799 -0.3081 -0.1326
 1881SOL    HW1 9045   2.984  10.436  10.333  0.9532  1.0663  0.2582
 1881SOL    HW2 9046   3.035  10.469  10.194 -1.4878 -2.4666 -1.6159
 1882SOL     OW 9047   8.698   9.575   2.595 -0.3667 -0.2114 -0.0577
 1882SOL    HW1 9048   8.609   9.607   2.582 -0.3925 -0.0424  0.5039
 1882SOL    HW2 9049   8.717   9.522   2.518 -2.5423 -3.9104  1.7032
 1883SOL     OW 9050   8.873   5.916   1.293 -0.4799 -0.4999 -0.2029
 1883SOL    HW1 9051   8.923   5.834   1.291 -1.2426 -1.0229  0.6358
 1883SOL    HW2 9052   8.781   5.887   1.293 -0.7691  0.2662  1.5614
 1884SOL     OW 9053  10.218   5.542   2.412  0.3429  0.0529  0.0659
 1884SOL    HW1 9054  10.291   5.565   2.469  0.3425 -1.7528  0.8409
 1884SOL    HW2 9055  10.236   5.588   2.330  1.4217  1.0170  0.8056
 1885SOL     OW 9056  10.578   6.954   8.076 -0.3241 -0.2639 -0.7998
 1885SOL    HW1 9057  10.544   6.946   8.165  0.8438 -0.6559 -0.3669
 1885SOL    HW2 9058  10.631   7.033   8.078 -1.4151  0.5086 -1.5478
 1886SOL     OW 9059  10.642   6.511   9.304  0.7515 -0.0706 -0.0086
 1886SOL    HW1 9060  10.585   6.497   9.229  1.4179 -2.0146 -0.2090
 1886SOL    HW2 9061  10.693   6.589   9.281  2.4675 -1.7960 -2.6045
 1887SOL     OW 9062   6.428   8.784   0.249  0.1166  0.2599  0.1953
 1887SOL    HW1 9063   6.378   8.812   0.172 -0.3565  1.1792  0.8246
 1887SOL    HW2 9064   6.426   8.688   0.245  0.0958  0.2948 -0.9250
 1888SOL     OW 9065   8.706   9.274   0.208  0.5388 -0.0056  0.1114
 1888SOL    HW1 9066   8.727   9.366   0.223 -0.4147  0.3217 -0.4738
 1888SOL    HW2 9067   8.614   9.267   0.230  0.8206 -1.0421  1.0420
 1889SOL     OW 9068  10.370   5.383   6.660 -0.1322  0.5619 -0.6890
 1889SOL    HW1 9069  10.381   5.453   6.725  0.6096 -0.5958  0.4823
 1889SOL    HW2 9070  10.352   5.429   6.578 -1.0418  2.0788  0.3063
 1890SOL     OW 9071   5.766   8.921   6.016  0.5409 -0.0463 -0.0753
 1890SOL    HW1 9072   5.779   8.979   6.091 -0.8397 -0.2611  0.3537
 1890SOL    HW2 9073   5.781   8.833   6.050 -0.2411 -0.1570 -0.0042
 1891SOL     OW 9074  10.120   1.828   1.717 -0.2556 -0.7374  0.0557
 1891SOL    HW1 9075  10.105   1.861   1.806  0.5535 -1.7419  0.5820
 1891SOL    HW2 9076  10.159   1.902   1.671 -1.9201  0.2480  0.1184
 1892SOL     OW 9077   8.804   8.016   2.103  0.0250  0.2115 -0.0463
 1892SOL    HW1 9078   8.831   8.061   2.023  2.3090 -0.3976  0.3186
 1892SOL    HW2 9079   8.850   7.933   2.101  1.9195  1.0256  2.8635
 1893SOL     OW 9080   7.340   4.325   4.555  0.0884  0.3444 -0.2013
 1893SOL    HW1 9081   7.318   4.263   4.485 -2.4324  1.4080 -0.4779
 1893SOL    HW2 9082   7.397   4.390   4.513 -0.8828  0.6170 -1.1541
 1894SOL     OW 9083   3.233   9.015  10.893  0.3781 -0.0649  0.1079
 1894SOL    HW1 9084   3.307   8.995  10.951  0.2609 -2.1142 -0.3723
 1894SOL    HW2 9085   3.161   9.035  10.953  1.0548  1.0742  0.5889
 1895SOL     OW 9086   2.221   2.736  10.662 -0.6005 -0.3412  0.5056
 1895SOL    HW1 9087   2.171   2.739  10.580  0.4009  0.9786 -0.0843
 1895SOL    HW2 9088   2.154   2.746  10.730 -1.2065  1.2898 -0.2636
 1896SOL     OW 9089   9.505   8.015   7.268 -0.5524  0.1267 -0.6775
 1896SOL    HW1 9090   9.552   7.947   7.317  1.1893 -0.2216 -2.6656
 1896SOL    HW2 9091   9.464   8.069   7.335  0.3224 -1.2642  1.0744
 1897SOL     OW 9092   1.447   4.391  10.013 -0.2611 -0.5835  0.0234
 1897SOL    HW1 9093   1.464   4.454  10.084  0.5473  1.4703 -1.8753
 1897SOL    HW2 9094   1.438   4.307  10.058 -1.0783  0.7915  2.6767
 1898SOL     OW 9095   8.172   6.226   1.635  0.1698  0.2563 -0.5723
 1898SOL    HW1 9096   8.150   6.278   1.713 -1.8639  0.6018 -1.3265
 1898SOL    HW2 9097   8.263   6.250   1.616  0.1151  1.5787  0.6182
 1899SOL     OW 9098   9.053   8.826   2.787  0.2504  0.6149  0.3485
 1899SOL    HW1 9099   9.010   8.777   2.717 -1.3456  0.6547  1.2571
 1899SOL    HW2 9100   9.106   8.892   2.742 -1.1734  0.9918 -0.8165
 1900SOL     OW 9101   7.983   1.228   7.970 -0.4894  0.2929 -0.4042
 1900SOL    HW1 9102   8.027   1.148   7.942  0.9132  0.5357  0.9522
 1900SOL    HW2 9103   7.986   1.285   7.894  0.8533 -0.0139 -0.6094
 1901SOL     OW 9104   2.753   7.641   7.896 -0.8010 -0.5647 -0.4558
 1901SOL    HW1 9105   2.688   7.675   7.958  0.3484 -0.4615  0.7241
 1901SOL    HW2 9106   2.737   7.547   7.895 -1.0008 -0.5357 -0.2057
 1902SOL     OW 9107   2.454   5.131   6.592 -0.7517  0.5312 -0.5397
 1902SOL    HW1 9108   2.535   5.080   6.593 -0.5968  0.6608 -2.7505
 1902SOL    HW2 9109   2.389   5.072   6.633  0.2593  0.1627  0.6124
 1903SOL     OW 9110   6.208  10.280  10.646 -0.1942  0.1196  0.0466
 1903SOL    HW1 9111   6.205  10.288  10.551  0.4681  4.2242  0.1942
 1903SOL    HW2 9112   6.120  10.255  10.672 -0.8517  0.6531 -1.5803
 1904SOL     OW 9113   2.197   3.903   7.150  0.3356  0.3882 -0.3665
 1904SOL    HW1 9114   2.242   3.865   7.225 -0.9713 -1.3210 -0.3865
 1904SOL    HW2 9115   2.257   3.971   7.118  1.0406  0.9901  2.0267
 1905SOL     OW 9116   9.743   2.978   3.476 -0.0426  0.5855 -0.3234
 1905SOL    HW1 9117   9.823   3.031   3.463  0.8802 -0.8659 -0.7794
 1905SOL    HW2 9118   9.770   2.910   3.538 -0.1326 -1.4589 -2.3846
 1906SOL     OW 9119   5.026   2.287   0.478 -0.4657 -0.5167  0.9380
 1906SOL    HW1 9120   5.042   2.338   0.398 -1.8549 -0.2743  0.7875
 1906SOL    HW2 9121   5.086   2.325   0.543  0.1145 -0.1908  0.2291
 1907SOL     OW 9122   3.690   5.513   0.100  0.0929 -0.6087  0.1787
 1907SOL    HW1 9123   3.655   5.489   0.186  2.8945 -0.3905  1.4889
 1907SOL    HW2 9124   3.733   5.434   0.068 -0.0469 -0.3950 -0.5705
 1908SOL     OW 9125   2.903   1.781   0.088  0.7067  0.4316 -0.2075
 1908SOL    HW1 9126   2.927   1.872   0.108  1.4539  0.5900 -1.6751
 1908SOL    HW2 9127   2.808   1.780   0.095  0.7892  0.8997  1.4305
 1909SOL     OW 9128   3.004   2.508   0.032 -0.5360 -0.2615 -0.0243
 1909SOL    HW1 9129   3.013   2.447  -0.042  0.6106 -0.4436  0.2446
 1909SOL    HW2 9130   3.068   2.477   0.096 -1.7071 -0.2815  1.1840
 1910SOL     OW 9131   0.831   6.807   6.907 -0.0015  0.3587  0.2584
 1910SOL    HW1 9132   0.792   6.721   6.917  0.4879  0.3064  2.0706
 1910SOL    HW2 9133   0.757   6.868   6.910 -0.2889  0.0485 -0.4136
 1911SOL     OW 9134   7.523   1.475   9.997 -0.1794  0.1765  0.5299
 1911SOL    HW1 9135   7.458   1.544   9.987 -1.2814 -0.3013  3.4484
 1911SOL    HW2 9136   7.486   1.400   9.951 -0.8618  0.4137  0.6870
 1912SOL     OW 9137   7.426   7.135   3.345 -0.6975 -0.2720 -0.2957
 1912SOL    HW1 9138   7.471   7.183   3.415 -0.4977  0.6299 -1.0308
 1912SOL    HW2 9139   7.428   7.194   3.270 -0.5977 -1.3702 -1.1811
 1913SOL     OW 9140   7.664   7.685   9.448  0.4654 -0.1122 -0.1587
 1913SOL    HW1 9141   7.635   7.594   9.451 -0.5124  0.1719 -0.6233
 1913SOL    HW2 9142   7.591   7.732   9.408  0.4347  1.0865  1.2546
 1914SOL     OW 9143   3.632   8.862   8.072  0.5127 -0.3793  0.2038
 1914SOL    HW1 9144   3.667   8.781   8.110 -0.7287 -1.4211 -0.7867
 1914SOL    HW2 9145   3.624   8.922   8.147  2.4571 -0.7557  0.7891
 1915SOL     OW 9146   9.082   9.307   6.246 -0.3753 -0.2827 -0.2299
 1915SOL    HW1 9147   9.063   9.367   6.319  0.0283  1.5297 -1.5639
 1915SOL    HW2 9148   9.037   9.226   6.271 -2.0676  0.9606  1.0330
 1916SOL     OW 9149   0.706   4.488   0.472  0.3294 -0.2360  0.6836
 1916SOL    HW1 9150   0.643   4.547   0.514  0.7615  0.0212  0.9896
 1916SOL    HW2 9151   0.701   4.407   0.523  1.4843  0.3672  1.8296
 1917SOL     OW 9152   2.027  10.353   8.199 -0.4742  0.0131  0.1626
 1917SOL    HW1 9153   1.954  10.407   8.230  1.0798  1.1821  2.0196
 1917SOL    HW2 9154   2.100  10.414   8.192  0.4050 -1.1481 -1.5367
 1918SOL     OW 9155   3.256   3.604   2.630  0.0221  0.0405  0.4717
 1918SOL    HW1 9156   3.200   3.623   2.705 -0.9539  0.6430 -0.3793
 1918SOL    HW2 9157   3.195   3.595   2.557  1.0792  1.5274 -0.6491
 1919SOL     OW 9158  10.059  10.580   3.808  0.5866 -0.3820 -0.0636
 1919SOL    HW1 9159  10.017  10.537   3.733  0.5107 -0.5718  0.0876
 1919SOL    HW2 9160  10.106  10.654   3.769 -0.5780  0.3440 -0.1458
 1920SOL     OW 9161   7.466   4.790   7.314  0.0073 -0.0473 -0.3828
 1920SOL    HW1 9162   7.404   4.828   7.251 -0.9221  1.1077  1.1473
 1920SOL    HW2 9163   7.430   4.704   7.334 -1.5689  0.8753  1.0023
 1921SOL     OW 9164   2.035   8.402   9.591  0.1663 -0.3192  0.3538
 1921SOL    HW1 9165   2.108   8.415   9.652  1.1345 -0.7743 -0.6567
 1921SOL    HW2 9166   2.075   8.360   9.515 -1.0033  0.2004 -0.5867
 1922SOL     OW 9167   1.920   2.785   5.162 -0.3987 -0.1673  0.3276
 1922SOL    HW1 9168   1.874   2.844   5.221 -4.5818 -2.2681 -0.4756
 1922SOL    HW2 9169   1.987   2.743   5.216 -0.4650  1.8545  2.0758
 1923SOL     OW 9170   6.818   1.917   6.089 -0.7654 -0.0927 -0.4829
 1923SOL    HW1 9171   6.745   1.857   6.105 -1.2647  0.8972  1.1088
 1923SOL    HW2 9172   6.868   1.917   6.171  1.1103 -0.8161 -1.5589
 1924SOL     OW 9173   2.018   3.655   2.842 -0.0535  0.6561 -0.0618
 1924SOL    HW1 9174   1.950   3.625   2.780 -0.3712  1.3582 -0.0634
 1924SOL    HW2 9175   1.979   3.641   2.928  1.1737 -2.2652  0.1241
 1925SOL     OW 9176   2.539   8.713   2.274  0.2161  0.1769 -0.0571
 1925SOL    HW1 9177   2.447   8.725   2.295 -0.2594 -0.2474 -1.7170
 1925SOL    HW2 9178   2.579   8.798   2.289 -0.8690  0.9250 -1.2341
 1926SOL     OW 9179   0.978   3.542   2.683  0.1415  0.3264  0.5406
 1926SOL    HW1 9180   0.894   3.559   2.726 -0.0487 -0.2439  0.4086
 1926SOL    HW2 9181   1.038   3.518   2.753  0.0385  0.1634  0.5730
 1927SOL     OW 9182   5.929   6.688   5.629  0.2881 -0.3183  0.2057
 1927SOL    HW1 9183   5.991   6.750   5.592 -0.2478 -0.3839 -0.8442
 1927SOL    HW2 9184   5.897   6.731   5.709 -1.0756  1.4188 -1.1735
 1928SOL     OW 9185   3.278   4.640   8.755 -0.1792 -0.0073  0.1723
 1928SOL    HW1 9186   3.312   4.666   8.669  0.3236 -0.6400  0.1712
 1928SOL    HW2 9187   3.356   4.621   8.807 -0.3602  2.5346  1.5092
 1929SOL     OW 9188   9.391   5.700   5.206  0.2027  0.5654  0.1270
 1929SOL    HW1 9189   9.313   5.712   5.260 -0.2372 -0.2837 -0.2954
 1929SOL    HW2 9190   9.410   5.787   5.173 -0.6604  0.7666  0.1177
 1930SOL     OW 9191   5.190   7.135   6.163  0.1069  0.6744 -0.5808
 1930SOL    HW1 9192   5.192   7.110   6.071 -0.5160  0.6994 -0.6115
 1930SOL    HW2 9193   5.212   7.228   6.163 -0.1841  0.7450 -0.7390
 1931SOL     OW 9194   6.094   6.654  10.885  0.6903 -0.2241 -0.3348
 1931SOL    HW1 9195   6.117   6.727  10.942  1.8609 -1.9466  1.5459
 1931SOL    HW2 9196   6.173   6.599  10.882  0.1066 -1.0541 -2.2904
 1932SOL     OW 9197   5.158   3.128   0.540  0.3595  0.3229  0.3213
 1932SOL    HW1 9198   5.151   3.219   0.510 -1.3712 -0.1894 -0.9763
 1932SOL    HW2 9199   5.239   3.097   0.499 -0.3099  0.5879 -1.3143
 1933SOL     OW 9200   8.008   5.002   9.259  0.6186  0.8331 -0.0290
 1933SOL    HW1 9201   8.073   4.934   9.272  0.3218  0.4903 -0.2995
 1933SOL    HW2 9202   7.963   4.977   9.178 -0.4700  0.5571  0.6448
 1934SOL     OW 9203   5.487   1.145   1.826  0.1050 -0.2075  0.4538
 1934SOL    HW1 9204   5.404   1.182   1.855  0.2180  2.9049 -2.5709
 1934SOL    HW2 9205   5.553   1.182   1.885 -0.2523  0.9264  0.1618
 1935SOL     OW 9206  10.228   4.155   9.008  0.6227 -0.2667 -0.4812
 1935SOL    HW1 9207  10.156   4.092   8.999 -0.2964  0.9228 -1.7381
 1935SOL    HW2 9208  10.279   4.145   8.928 -1.5303  2.9322 -2.4866
 1936SOL     OW 9209   4.383   5.213   0.011 -0.0623 -0.5555  0.4485
 1936SOL    HW1 9210   4.352   5.131   0.050  0.6746 -0.2004  1.8822
 1936SOL    HW2 9211   4.344   5.282   0.065  0.6887 -0.0255  0.3414
 1937SOL     OW 9212   5.221   5.486   9.630  0.4249 -0.5215  0.0434
 1937SOL    HW1 9213   5.195   5.425   9.561 -0.5121  1.3250 -1.2994
 1937SOL    HW2 9214   5.285   5.436   9.682 -0.7356 -2.8399 -0.6021
 1938SOL     OW 9215   4.497   6.798   9.759 -0.2892  0.3440  0.0319
 1938SOL    HW1 9216   4.580   6.829   9.723  0.2616  0.1194  1.0780
 1938SOL    HW2 9217   4.463   6.738   9.692  0.7403 -0.1137 -0.0975
 1939SOL     OW 9218   9.634  10.763   0.671  0.6674 -0.0658 -0.6422
 1939SOL    HW1 9219   9.689  10.703   0.721  0.8722  0.2332 -0.5068
 1939SOL    HW2 9220   9.694  10.805   0.610  0.4727 -0.2038 -0.9271
 1940SOL     OW 9221   9.973   6.325   6.308 -0.7063 -0.0588 -0.5371
 1940SOL    HW1 9222  10.012   6.308   6.222  1.8187 -0.4476  0.5870
 1940SOL    HW2 9223   9.966   6.239   6.349  0.0496  0.2762  0.3625
 1941SOL     OW 9224   1.468   2.720   3.836  0.5270 -0.5001 -0.3523
 1941SOL    HW1 9225   1.399   2.746   3.775 -1.1261 -0.2548  1.5227
 1941SOL    HW2 9226   1.548   2.757   3.799 -0.7110  1.3352 -1.3596
 1942SOL     OW 9227   7.506   7.107  10.212 -0.0239  0.0225  0.3513
 1942SOL    HW1 9228   7.490   7.086  10.120 -1.3493  0.2796  0.5044
 1942SOL    HW2 9229   7.597   7.083  10.226  0.0597 -0.4908 -0.8995
 1943SOL     OW 9230   8.343   1.153   9.192  0.3217  0.1594  0.0478
 1943SOL    HW1 9231   8.320   1.063   9.170 -1.7776  0.5409  0.4351
 1943SOL    HW2 9232   8.312   1.164   9.282 -0.5544  1.5974 -0.3964
 1944SOL     OW 9233  10.510   7.859   6.613  0.0001  0.7301  0.0857
 1944SOL    HW1 9234  10.516   7.842   6.707  1.1594  0.2971 -0.0600
 1944SOL    HW2 9235  10.460   7.940   6.607 -0.0178  0.8058  1.0778
 1945SOL     OW 9236   2.221   9.798   7.026 -0.0852 -0.4915  0.3133
 1945SOL    HW1 9237   2.180   9.883   7.045  0.6137  0.1011 -0.7614
 1945SOL    HW2 9238   2.311   9.809   7.056  0.1964 -0.6019 -0.4819
 1946SOL     OW 9239   8.371   2.480   3.639  0.4156  0.2812 -0.0344
 1946SOL    HW1 9240   8.283   2.512   3.624  0.6689  1.0104 -0.0220
 1946SOL    HW2 9241   8.398   2.444   3.554 -0.0443 -0.3274  0.0763
 1947SOL     OW 9242   1.607  10.468   8.746  0.2394  0.4352 -0.1374
 1947SOL    HW1 9243   1.615  10.385   8.793  1.0290 -0.4001 -1.6439
 1947SOL    HW2 9244   1.654  10.453   8.664 -0.5753  2.0182 -0.9357
 1948SOL     OW 9245   8.604   4.357   7.693  0.2088  0.1523  0.0507
 1948SOL    HW1 9246   8.610   4.304   7.772 -1.3660  0.1422  0.1853
 1948SOL    HW2 9247   8.545   4.309   7.635  1.8127 -0.1448 -1.4060
 1949SOL     OW 9248   9.335   6.601   2.966  0.5788  0.1288 -0.3101
 1949SOL    HW1 9249   9.363   6.662   2.898  0.1090 -0.1532 -0.7647
 1949SOL    HW2 9250   9.254   6.638   3.000  0.3522 -0.1721 -0.5091
 1950SOL     OW 9251   4.993   3.657  10.493  0.7898  0.5590  0.1734
 1950SOL    HW1 9252   5.055   3.622  10.429  1.2615  0.0348  0.9084
 1950SOL    HW2 9253   4.917   3.683  10.440  0.4877 -1.4003 -0.4276
 1951SOL     OW 9254   2.530   7.782   6.173  0.6323  0.8252 -0.2495
 1951SOL    HW1 9255   2.454   7.787   6.116  0.4391  0.3175 -0.0395
 1951SOL    HW2 9256   2.497   7.743   6.254  1.6543 -2.1910 -1.1448
 1952SOL     OW 9257   0.288   1.245   2.666  0.2257  0.3165  0.0917
 1952SOL    HW1 9258   0.360   1.298   2.630 -0.1125  2.0266  1.8174
 1952SOL    HW2 9259   0.210   1.280   2.624 -0.0308  1.4430  1.4569
 1953SOL     OW 9260   4.876   8.886   9.805 -0.1329 -0.0957 -0.0948
 1953SOL    HW1 9261   4.855   8.974   9.772 -1.2198  0.3044  1.5545
 1953SOL    HW2 9262   4.923   8.901   9.886 -0.2355 -1.0389  0.1487
 1954SOL     OW 9263   8.470   4.226   3.157  1.0307 -0.3373 -0.8439
 1954SOL    HW1 9264   8.498   4.135   3.164  0.6018 -0.4716 -0.8471
 1954SOL    HW2 9265   8.492   4.265   3.242 -0.1484 -0.8292 -0.2951
 1955SOL     OW 9266   8.886   6.517   9.192  0.6767 -0.0863 -0.0551
 1955SOL    HW1 9267   8.812   6.457   9.199  0.5696 -0.0808 -1.0797
 1955SOL    HW2 9268   8.871   6.582   9.261 -0.3015 -0.0472 -0.2898
 1956SOL     OW 9269   9.673   9.735   3.616 -0.0921 -0.0642  0.2034
 1956SOL    HW1 9270   9.618   9.720   3.694 -0.5773  0.1184 -0.0995
 1956SOL    HW2 9271   9.759   9.756   3.652  0.0888 -1.5123  0.6793
 1957SOL     OW 9272   0.756   3.623   2.830 -0.0388 -0.8066  0.2674
 1957SOL    HW1 9273   0.739   3.696   2.889  1.2962 -0.1806 -0.0921
 1957SOL    HW2 9274   0.669   3.596   2.800 -0.5479  0.6998  0.3133
 1958SOL     OW 9275   7.986   5.177   8.072 -0.9128  0.4170  0.5901
 1958SOL    HW1 9276   7.980   5.087   8.104  0.1454  0.0580 -0.1605
 1958SOL    HW2 9277   8.077   5.203   8.091 -0.2762  0.2440 -1.9161
 1959SOL     OW 9278   9.534  10.687   6.077  0.2974 -0.4831  0.5646
 1959SOL    HW1 9279   9.453  10.736   6.066  0.9378  0.5109  0.1945
 1959SOL    HW2 9280   9.521  10.608   6.024  0.4412  0.7494 -1.3943
 1960SOL     OW 9281   4.945   0.528   5.283 -0.3102  0.3482  0.2220
 1960SOL    HW1 9282   4.886   0.518   5.357 -1.0558  0.2959 -0.3590
 1960SOL    HW2 9283   4.924   0.615   5.247 -2.1831 -0.8168 -1.7676
 1961SOL     OW 9284   1.248   7.622   7.426  0.2899  0.3954 -0.2987
 1961SOL    HW1 9285   1.245   7.717   7.410 -0.1850  0.3887 -0.2566
 1961SOL    HW2 9286   1.308   7.589   7.358  1.3868  0.8618  0.4103
 1962SOL     OW 9287   1.073  10.904  10.567  0.0785  0.5344 -0.0112
 1962SOL    HW1 9288   1.030  10.957  10.634 -0.0768  1.4445 -0.8224
 1962SOL    HW2 9289   1.003  10.851  10.529 -0.5902  2.7122 -2.0056
 1963SOL     OW 9290   7.398   3.639   2.260 -0.0185 -0.1680  0.2779
 1963SOL    HW1 9291   7.316   3.624   2.306 -0.6257  2.4420  0.1991
 1963SOL    HW2 9292   7.463   3.649   2.329  0.0019 -0.9469  0.3808
 1964SOL     OW 9293   0.860   2.413   4.819  0.1958 -0.0646  0.1644
 1964SOL    HW1 9294   0.951   2.432   4.797  0.2046  1.0740  1.1204
 1964SOL    HW2 9295   0.848   2.448   4.907 -0.4917 -2.4244  1.0983
 1965SOL     OW 9296   9.712   7.407   0.218 -0.5161  0.1034  0.5863
 1965SOL    HW1 9297   9.732   7.499   0.198 -0.1098 -0.1754 -0.3199
 1965SOL    HW2 9298   9.795   7.371   0.249 -0.5764 -0.0663  0.5526
 1966SOL     OW 9299   5.976   8.104   8.963  0.4947  0.0316  0.1831
 1966SOL    HW1 9300   5.893   8.068   8.931  1.1374 -2.8450  1.4570
 1966SOL    HW2 9301   5.973   8.092   9.058  1.8921  0.9616  0.3725
 1967SOL     OW 9302   8.123   0.910   4.092 -0.3256  0.4307 -0.6220
 1967SOL    HW1 9303   8.200   0.918   4.148 -1.2697  0.7971  0.6673
 1967SOL    HW2 9304   8.146   0.960   4.014  0.8374  0.3269 -0.3732
 1968SOL     OW 9305  10.456   3.930   6.757  0.5966 -0.2377 -0.0669
 1968SOL    HW1 9306  10.514   3.936   6.833  1.4949 -0.3986 -0.7197
 1968SOL    HW2 9307  10.452   4.019   6.723  1.1670 -0.3807 -0.5238
 1969SOL     OW 9308   1.668   7.137  10.540  0.0389  0.5193 -0.1688
 1969SOL    HW1 9309   1.668   7.115  10.447 -0.3858 -0.4037  0.0392
 1969SOL    HW2 9310   1.628   7.061  10.583 -0.3682  1.2091  0.7059
 1970SOL     OW 9311   2.465   9.825   6.246 -0.1992 -0.4365  0.3615
 1970SOL    HW1 9312   2.525   9.775   6.302 -0.1186  1.1078  1.7334
 1970SOL    HW2 9313   2.511   9.907   6.229 -0.7563 -0.3753 -0.9756
 1971SOL     OW 9314   1.378   8.778   5.097  0.0882  0.0760  0.7197
 1971SOL    HW1 9315   1.317   8.821   5.037  0.9749  0.0685 -0.2302
 1971SOL    HW2 9316   1.331   8.700   5.127  0.3094 -1.0445 -1.5836
 1972SOL     OW 9317   8.509   8.166  10.679  0.0047  0.6824 -0.4144
 1972SOL    HW1 9318   8.514   8.256  10.712 -0.8100  0.2797  0.8527
 1972SOL    HW2 9319   8.417   8.153  10.656 -0.7276 -0.9265  2.8106
 1973SOL     OW 9320   6.437   4.353   5.496 -0.1532 -0.3921 -0.6398
 1973SOL    HW1 9321   6.529   4.355   5.470 -0.2270  1.6576 -0.8957
 1973SOL    HW2 9322   6.437   4.304   5.578  1.0024 -1.3274 -1.1644
 1974SOL     OW 9323   3.270   5.570  10.718 -0.1210 -0.4681  0.0553
 1974SOL    HW1 9324   3.203   5.639  10.718 -0.2248 -0.5670  0.1472
 1974SOL    HW2 9325   3.257   5.524  10.636  0.1183 -0.2153 -0.1249
 1975SOL     OW 9326  10.590   3.406   5.293  0.1225 -0.2509 -0.0382
 1975SOL    HW1 9327  10.672   3.384   5.249 -0.4162  0.1839 -1.2859
 1975SOL    HW2 9328  10.613   3.480   5.349  0.2670  0.8966 -1.5551
 1976SOL     OW 9329   1.800   2.158   4.968  0.6494  0.3062  0.1379
 1976SOL    HW1 9330   1.732   2.184   5.031  1.0105  2.8849 -0.4648
 1976SOL    HW2 9331   1.882   2.162   5.018  0.8861  1.9490 -0.3334
 1977SOL     OW 9332   8.112   4.255   9.460  0.2291 -0.3605 -0.2682
 1977SOL    HW1 9333   8.096   4.259   9.554 -1.3256 -3.8241 -0.2300
 1977SOL    HW2 9334   8.200   4.217   9.453  0.8084  0.9428 -0.2649
 1978SOL     OW 9335   2.516   2.760   7.176  0.6248 -0.3067  0.3870
 1978SOL    HW1 9336   2.523   2.674   7.219 -0.7720 -0.3727  0.5102
 1978SOL    HW2 9337   2.434   2.797   7.209  0.0447  0.1089 -1.4131
 1979SOL     OW 9338   8.603  10.751   2.170 -0.2804  0.1483 -0.2273
 1979SOL    HW1 9339   8.572  10.800   2.094  1.0062  0.4564 -0.5847
 1979SOL    HW2 9340   8.549  10.781   2.242 -0.7748  0.6799 -0.8116
 1980SOL     OW 9341   8.520   5.713   2.907 -0.1199  0.2696  0.0013
 1980SOL    HW1 9342   8.451   5.724   2.842 -1.1777 -1.5412  0.7354
 1980SOL    HW2 9343   8.591   5.769   2.876 -0.2395 -1.0988 -3.1788
 1981SOL     OW 9344   6.159  10.817   3.668 -0.4985  0.3211  0.5735
 1981SOL    HW1 9345   6.157  10.886   3.734 -0.7577  0.2843  0.6047
 1981SOL    HW2 9346   6.072  10.818   3.629  0.3172  1.9090 -1.3792
 1982SOL     OW 9347   1.146   1.281   0.311  0.1659 -0.4787 -0.6460
 1982SOL    HW1 9348   1.230   1.326   0.320  0.5055 -1.4175  1.1221
 1982SOL    HW2 9349   1.083   1.353   0.303  0.9269  0.2750 -0.1110
 1983SOL     OW 9350   4.924   4.713   0.135 -0.5752 -0.0038  0.0029
 1983SOL    HW1 9351   4.975   4.789   0.163 -1.8187  0.5249  0.9471
 1983SOL    HW2 9352   4.943   4.704   0.042  0.8788  0.4363  0.2369
 1984SOL     OW 9353   9.343   7.595   8.155  0.3278  0.1840 -0.4740
 1984SOL    HW1 9354   9.248   7.580   8.156  0.3306  0.1285 -1.0005
 1984SOL    HW2 9355   9.380   7.509   8.135  0.5226  0.0602  0.3852
 1985SOL     OW 9356   1.414   6.314   8.953  0.1057 -0.2469 -0.1407
 1985SOL    HW1 9357   1.485   6.263   8.916  0.5156 -1.1195  1.7238
 1985SOL    HW2 9358   1.453   6.398   8.976 -0.2572  0.4725 -1.9960
 1986SOL     OW 9359   2.616   1.604  10.681  0.9813  0.2230 -0.0370
 1986SOL    HW1 9360   2.696   1.641  10.719  0.9890  0.0260  0.1441
 1986SOL    HW2 9361   2.647   1.536  10.622  0.9441  0.0979  0.0881
 1987SOL     OW 9362   1.707   7.115   9.541 -0.2215 -0.2436 -0.1346
 1987SOL    HW1 9363   1.688   7.152   9.627  0.4264 -1.9440  0.8046
 1987SOL    HW2 9364   1.757   7.182   9.495 -0.0438  0.4581  1.0614
 1988SOL     OW 9365   2.505   5.970   7.525 -0.6069 -0.1062  0.1820
 1988SOL    HW1 9366   2.466   6.056   7.505  2.3356  1.9285  2.2607
 1988SOL    HW2 9367   2.581   5.965   7.468  0.0328 -0.6771  1.0756
 1989SOL     OW 9368   2.194   3.446   9.873  0.2608  0.1898 -0.6194
 1989SOL    HW1 9369   2.163   3.501   9.801  2.4368  1.4039 -0.7335
 1989SOL    HW2 9370   2.214   3.508   9.943 -2.2241 -1.0036  1.2960
 1990SOL     OW 9371  10.186   9.860   3.754 -0.1442  0.7433  0.4554
 1990SOL    HW1 9372  10.161   9.866   3.662 -0.7846 -1.5089  0.4273
 1990SOL    HW2 9373  10.266   9.913   3.760 -0.5781  1.6630 -1.1728
 1991SOL     OW 9374   0.378   2.603   7.000  0.0379 -0.4735 -0.1018
 1991SOL    HW1 9375   0.405   2.601   6.908  0.0569  2.8040 -0.2513
 1991SOL    HW2 9376   0.284   2.585   6.998 -0.0450  0.0262 -0.8067
 1992SOL     OW 9377  10.524   8.306   5.865 -0.0030 -0.1444 -0.2091
 1992SOL    HW1 9378  10.479   8.222   5.871 -2.5400  1.1638  4.3721
 1992SOL    HW2 9379  10.455   8.368   5.841  1.3645  0.9802 -1.4323
 1993SOL     OW 9380  10.562   4.042   2.252 -0.5088 -0.4663 -0.4296
 1993SOL    HW1 9381  10.497   4.110   2.237 -1.3554 -0.8640  1.0971
 1993SOL    HW2 9382  10.590   4.014   2.165 -2.8548 -0.6941 -1.1702
 1994SOL     OW 9383   3.847   5.619   5.164  0.4369 -0.1763 -0.0347
 1994SOL    HW1 9384   3.790   5.680   5.118  0.2435 -0.5267 -0.2660
 1994SOL    HW2 9385   3.813   5.616   5.253  1.0599  0.8167  0.2530
 1995SOL     OW 9386   2.758   8.941   6.581 -0.3122 -0.0595 -0.1151
 1995SOL    HW1 9387   2.755   9.001   6.507 -0.0437  0.8893  0.6202
 1995SOL    HW2 9388   2.819   8.872   6.554 -1.8594 -0.9148 -1.6084
 1996SOL     OW 9389   4.396   4.630   4.300 -0.5469  0.0051 -0.3854
 1996SOL    HW1 9390   4.378   4.600   4.211  3.4148 -2.3222 -0.6166
 1996SOL    HW2 9391   4.453   4.706   4.289  0.8763 -0.9625  0.0939
 1997SOL     OW 9392   2.546   0.808   1.831  0.1306 -0.2035  0.6772
 1997SOL    HW1 9393   2.503   0.763   1.903 -0.1311 -1.2609 -0.1115
 1997SOL    HW2 9394   2.582   0.738   1.776  0.4962  0.5741 -0.1122
 1998SOL     OW 9395   9.793   8.987  10.573  0.8513  0.1912 -1.1144
 1998SOL    HW1 9396   9.753   8.916  10.623  0.6096  0.0803 -1.4568
 1998SOL    HW2 9397   9.858   8.944  10.518  0.0413  0.0834 -2.0316
 1999SOL     OW 9398   6.319   7.765   2.617 -0.2973  0.1744 -0.0100
 1999SOL    HW1 9399   6.281   7.685   2.581 -1.8418  1.0812 -0.4708
 1999SOL    HW2 9400   6.297   7.833   2.554  0.2153  1.1250  0.8091
 2000SOL     OW 9401   4.587   8.236   4.606 -0.3661  0.0650 -0.3824
 2000SOL    HW1 9402   4.530   8.159   4.601  0.6873 -0.6649 -2.4059
 2000SOL    HW2 9403   4.674   8.201   4.623 -0.0394  0.9010 -0.2869
 2001SOL     OW 9404   5.669   3.513  10.472  0.1302 -0.1432  0.5072
 2001SOL    HW1 9405   5.760   3.497  10.498  0.2030 -0.4602  0.0674
 2001SOL    HW2 9406   5.628   3.426  10.476 -0.4035  0.1444  1.6379
 2002SOL     OW 9407   0.365  10.495   9.337  0.3135 -0.0506 -0.4522
 2002SOL    HW1 9408   0.410  10.578   9.353  1.5125 -0.8902  0.8296
 2002SOL    HW2 9409   0.436  10.431   9.334 -0.6118 -1.0635 -1.2136
 2003SOL     OW 9410   1.131   5.407  10.573 -0.0904 -0.1936 -0.6350
 2003SOL    HW1 9411   1.042   5.431  10.548 -0.0584 -0.5325 -1.0771
 2003SOL    HW2 9412   1.143   5.447  10.659 -0.4269  0.4446 -0.8725
 2004SOL     OW 9413   6.824   9.807   8.899  0.1232  0.4401  0.1784
 2004SOL    HW1 9414   6.872   9.724   8.893 -0.3550  0.1836 -0.1390
 2004SOL    HW2 9415   6.800   9.827   8.808 -0.8616  0.2713  0.3941
 2005SOL     OW 9416   1.667  10.101   4.662 -0.6829  0.2511 -0.7954
 2005SOL    HW1 9417   1.605  10.038   4.698  0.2853  0.1670  0.8591
 2005SOL    HW2 9418   1.704  10.057   4.585  0.8338 -1.7802  0.9747
 2006SOL     OW 9419  10.617   0.321   2.557  0.3033  0.8977  0.4103
 2006SOL    HW1 9420  10.675   0.255   2.519  0.3473  0.9363  0.4098
 2006SOL    HW2 9421  10.639   0.322   2.650  0.7044  1.3168  0.3141
 2007SOL     OW 9422   1.461   9.410   6.947  0.2268 -0.2386  0.2243
 2007SOL    HW1 9423   1.482   9.501   6.923 -1.6789  0.5241  1.2432
 2007SOL    HW2 9424   1.373   9.397   6.912  0.7931 -2.0245 -0.6382
 2008SOL     OW 9425   1.570  10.565   5.736  0.0920 -0.0914  0.0270
 2008SOL    HW1 9426   1.640  10.630   5.739 -0.1948  0.2095  0.2254
 2008SOL    HW2 9427   1.562  10.533   5.826 -1.4257  1.3866  0.4716
 2009SOL     OW 9428   4.102   7.527   6.094 -0.0938 -0.3544  0.0898
 2009SOL    HW1 9429   4.086   7.518   6.000 -1.6253  2.4004 -0.0080
 2009SOL    HW2 9430   4.197   7.518   6.103  0.0360 -1.0582 -1.6452
 2010SOL     OW 9431   5.059  10.107   7.177  0.2623  0.4072  0.3609
 2010SOL    HW1 9432   5.073  10.091   7.084 -0.4606  2.2714 -0.1254
 2010SOL    HW2 9433   5.032  10.199   7.181 -0.8033  0.0582  2.3001
 2011SOL     OW 9434   8.482   4.244   9.712 -0.5265 -0.0544 -0.3112
 2011SOL    HW1 9435   8.558   4.264   9.766 -0.9234 -0.6964  0.5296
 2011SOL    HW2 9436   8.502   4.159   9.672 -1.7718 -1.5262  1.9344
 2012SOL     OW 9437   7.598  10.495   5.879  0.1476  0.6347 -0.1995
 2012SOL    HW1 9438   7.522  10.553   5.884  1.1856  1.9565  1.5188
 2012SOL    HW2 9439   7.606  10.474   5.786 -1.8874  1.0138 -0.5111
 2013SOL     OW 9440   5.228   5.318   3.682  0.0550  0.2502 -0.4443
 2013SOL    HW1 9441   5.244   5.385   3.748  0.6476  0.7602 -1.0845
 2013SOL    HW2 9442   5.282   5.244   3.709  1.1546  0.8487 -0.9242
 2014SOL     OW 9443   7.448   2.107   6.941  0.4998  0.4519  0.0211
 2014SOL    HW1 9444   7.431   2.170   6.871  1.2828  0.4837 -0.1476
 2014SOL    HW2 9445   7.505   2.154   7.001 -0.3290  0.4908  0.7933
 2015SOL     OW 9446   1.584   0.394  10.290 -0.0121 -0.3775  0.2952
 2015SOL    HW1 9447   1.657   0.332  10.282  2.4825  1.9240  2.9799
 2015SOL    HW2 9448   1.617   0.475  10.252 -1.5203  0.4952  0.7591
 2016SOL     OW 9449   4.700   6.920   0.775 -0.2353 -0.4385  0.5026
 2016SOL    HW1 9450   4.776   6.949   0.826  0.0026  1.7218 -0.8880
 2016SOL    HW2 9451   4.727   6.837   0.737  0.5091 -0.8625  1.9027
 2017SOL     OW 9452   5.800   6.166  10.396 -0.1749 -0.5360 -0.6360
 2017SOL    HW1 9453   5.885   6.210  10.384 -0.5728  0.5502  0.3349
 2017SOL    HW2 9454   5.766   6.156  10.307  0.3675  0.2669 -0.9492
 2018SOL     OW 9455   2.549   2.374   8.233  0.4199 -0.2085 -0.6213
 2018SOL    HW1 9456   2.477   2.415   8.280  1.2223 -0.1578  0.6046
 2018SOL    HW2 9457   2.526   2.281   8.231  0.9045 -0.3835  0.8963
 2019SOL     OW 9458   1.312   4.427   6.331  1.0559  0.1004 -0.1810
 2019SOL    HW1 9459   1.315   4.480   6.251  1.0071 -1.0349 -0.9504
 2019SOL    HW2 9460   1.247   4.359   6.313 -0.0635  0.7016  1.3950
 2020SOL     OW 9461   3.624   6.622  10.836  0.0903 -0.1511 -0.5595
 2020SOL    HW1 9462   3.637   6.563  10.761 -0.5008  1.9408 -2.4159
 2020SOL    HW2 9463   3.535   6.603  10.865  0.0135 -0.3952 -0.9338
 2021SOL     OW 9464  10.737   4.600  10.062  0.8084  0.1574 -0.2430
 2021SOL    HW1 9465  10.755   4.674  10.004  1.9132  0.4516  0.4627
 2021SOL    HW2 9466  10.800   4.533  10.035 -1.0244 -1.0811 -1.7717
 2022SOL     OW 9467   8.756   6.914   9.841 -0.1133 -0.2292 -0.2422
 2022SOL    HW1 9468   8.711   6.993   9.872  1.5149  0.8179 -0.4476
 2022SOL    HW2 9469   8.766   6.860   9.920  0.1870  0.4900  0.2232
 2023SOL     OW 9470  10.649   6.027   9.844 -0.1678  0.1626  0.4034
 2023SOL    HW1 9471  10.627   6.107   9.795 -1.6120  0.5426  1.6096
 2023SOL    HW2 9472  10.692   6.059   9.923  1.5291 -0.4135 -0.2659
 2024SOL     OW 9473   8.612   4.311   4.677 -0.2832  0.2349  0.7817
 2024SOL    HW1 9474   8.659   4.371   4.734 -0.6031  0.5228  0.7520
 2024SOL    HW2 9475   8.559   4.258   4.736  0.9686 -0.9148  0.9134
 2025SOL     OW 9476   6.026   6.309  10.408  0.6945  0.2759 -0.2136
 2025SOL    HW1 9477   6.117   6.282  10.405  0.1545 -1.6786 -0.2491
 2025SOL    HW2 9478   6.009   6.329  10.500  0.6393 -1.3514  0.1456
 2026SOL     OW 9479   5.038   3.351   8.377  0.0569 -0.0076 -0.3438
 2026SOL    HW1 9480   5.054   3.256   8.378  0.4816  0.0693  0.3865
 2026SOL    HW2 9481   4.944   3.359   8.364  0.1307 -0.5133 -1.3479
 2027SOL     OW 9482   0.272   0.678   8.335  0.5189 -0.2720 -0.5572
 2027SOL    HW1 9483   0.323   0.751   8.299  0.5917 -1.5795 -3.4120
 2027SOL    HW2 9484   0.183   0.711   8.340  0.3661 -0.1899 -2.7631
 2028SOL     OW 9485   5.473   7.498   6.058  0.0816  0.0365 -0.0495
 2028SOL    HW1 9486   5.473   7.416   6.008 -0.5416  0.1973 -0.3183
 2028SOL    HW2 9487   5.516   7.561   6.000 -1.7646  0.5408 -0.9375
 2029SOL     OW 9488   6.202  10.336   4.794 -0.0932 -0.1329 -0.4629
 2029SOL    HW1 9489   6.202  10.359   4.887 -0.0905 -1.9505  0.0230
 2029SOL    HW2 9490   6.288  10.365   4.762  0.4955 -0.8024  0.4607
 2030SOL     OW 9491  10.810   5.314   0.510 -0.4901  0.7388 -0.1393
 2030SOL    HW1 9492  10.819   5.342   0.601 -3.2200  1.9767 -0.1335
 2030SOL    HW2 9493  10.894   5.276   0.488  0.5380  1.1530  2.6400
 2031SOL     OW 9494  10.466   3.181   0.484  0.4139  0.1165 -0.3032
 2031SOL    HW1 9495  10.498   3.264   0.520  2.4555 -1.1922  1.1126
 2031SOL    HW2 9496  10.427   3.205   0.400  2.0815  2.3548 -0.5413
 2032SOL     OW 9497   9.697   6.544   2.891  0.6702  0.4695 -0.2861
 2032SOL    HW1 9498   9.688   6.532   2.986  2.2029 -1.8381 -0.3614
 2032SOL    HW2 9499   9.791   6.538   2.876  0.3039 -1.2334 -2.1819
 2033SOL     OW 9500   0.812  10.775   7.411 -0.5135 -0.8589 -0.5178
 2033SOL    HW1 9501   0.859  10.768   7.495  0.4274 -0.4693 -0.9974
 2033SOL    HW2 9502   0.852  10.849   7.367 -2.3880  0.2205 -0.4829
 2034SOL     OW 9503   2.241   5.363   7.497 -0.3651  0.0572 -0.0471
 2034SOL    HW1 9504   2.158   5.319   7.515 -1.1385  1.4445 -0.0889
 2034SOL    HW2 9505   2.241   5.376   7.402 -1.1048  1.8869  0.1537
 2035SOL     OW 9506   5.419   9.835  10.699  0.3455  0.5757  0.1655
 2035SOL    HW1 9507   5.485   9.903  10.691  1.0244 -0.2541 -2.0389
 2035SOL    HW2 9508   5.450   9.764  10.643 -2.1697 -0.0503 -0.5693
 2036SOL     OW 9509   7.217   6.570  10.734 -0.1072 -0.4182  0.6083
 2036SOL    HW1 9510   7.143   6.563  10.795 -0.9183 -1.7229 -0.4567
 2036SOL    HW2 9511   7.232   6.664  10.726  0.3862 -0.2038  3.1859
 2037SOL     OW 9512   7.133   6.215   7.463 -1.0157  0.1207  0.0170
 2037SOL    HW1 9513   7.050   6.264   7.471 -0.4336  1.1609 -0.1583
 2037SOL    HW2 9514   7.201   6.281   7.478 -0.2206 -0.9317  1.2485
 2038SOL     OW 9515   6.958   8.605  10.687  0.0262 -0.1043 -0.2587
 2038SOL    HW1 9516   7.016   8.528  10.687  2.1359  1.3463 -2.5983
 2038SOL    HW2 9517   7.013   8.676  10.722  0.0190  1.4631 -3.1519
 2039SOL     OW 9518   1.809   5.389   5.268 -0.4982 -0.4667  0.4351
 2039SOL    HW1 9519   1.782   5.456   5.206 -0.8649  0.2476  1.3482
 2039SOL    HW2 9520   1.748   5.317   5.253  1.0300 -1.3877 -1.8153
 2040SOL     OW 9521   7.715   0.882   3.477 -0.1101  0.4955  0.0133
 2040SOL    HW1 9522   7.713   0.850   3.568 -0.9459 -2.0898 -0.8314
 2040SOL    HW2 9523   7.667   0.965   3.480 -1.1167 -0.0899  1.7369
 2041SOL     OW 9524  10.138   3.081   4.377  0.3756 -0.0394 -0.2239
 2041SOL    HW1 9525  10.178   2.994   4.369  1.0304  0.2667 -0.3768
 2041SOL    HW2 9526  10.062   3.068   4.434  0.4020 -0.7304 -0.3395
 2042SOL     OW 9527   6.771   5.109   7.728 -0.1268 -0.5121  0.6329
 2042SOL    HW1 9528   6.703   5.127   7.793 -1.7683 -1.4925 -0.7289
 2042SOL    HW2 9529   6.772   5.014   7.720 -0.5032 -0.3948 -1.2898
 2043SOL     OW 9530   3.053   1.309   1.804 -0.3046 -0.1559 -0.1349
 2043SOL    HW1 9531   3.025   1.335   1.716 -0.7695  0.5096  0.2015
 2043SOL    HW2 9532   3.147   1.292   1.795 -0.4899 -0.8256 -0.9171
 2044SOL     OW 9533   2.727   5.245   0.916  0.0949  0.1727  0.3795
 2044SOL    HW1 9534   2.685   5.268   0.833  0.9226 -0.9043 -0.3787
 2044SOL    HW2 9535   2.784   5.319   0.936 -0.6528  0.7581  0.3787
 2045SOL     OW 9536   7.679   3.639   2.857 -0.2270 -0.2214 -0.5061
 2045SOL    HW1 9537   7.750   3.689   2.898 -0.9700 -0.2794  0.9296
 2045SOL    HW2 9538   7.720   3.557   2.828  0.4068 -0.0024 -0.2314
 2046SOL     OW 9539   6.992   6.990   4.551 -0.6556  0.6495 -0.0656
 2046SOL    HW1 9540   7.020   6.938   4.476 -0.2149 -0.4997  0.8853
 2046SOL    HW2 9541   7.012   7.080   4.526  0.7392  0.1647 -0.7929
 2047SOL     OW 9542   1.222   4.355   4.587  0.4240 -1.0757  0.4231
 2047SOL    HW1 9543   1.166   4.423   4.550  1.7628  0.4287  1.0356
 2047SOL    HW2 9544   1.170   4.274   4.580 -0.6044 -0.3016 -1.7411
 2048SOL     OW 9545   5.881   7.675   3.842 -0.1002 -0.1575 -0.3795
 2048SOL    HW1 9546   5.860   7.766   3.818  0.3262  0.2414  0.6933
 2048SOL    HW2 9547   5.810   7.648   3.900 -0.0259 -0.3776 -0.3910
 2049SOL     OW 9548   6.069   7.018  10.504 -0.1929 -0.0457 -0.2754
 2049SOL    HW1 9549   6.068   7.015  10.600 -2.9706 -1.8700 -0.2365
 2049SOL    HW2 9550   5.977   7.026  10.480  0.3100 -0.9147 -2.7954
 2050SOL     OW 9551   8.199   6.812   2.551  0.3481  0.3826 -0.0479
 2050SOL    HW1 9552   8.126   6.868   2.524 -1.4685 -0.7851  2.1165
 2050SOL    HW2 9553   8.159   6.728   2.573  2.2939 -0.2641  1.3623
 2051SOL     OW 9554   0.329   6.275   2.984 -0.3457  0.0973  0.5374
 2051SOL    HW1 9555   0.312   6.297   3.076 -0.2642 -0.2302  0.6327
 2051SOL    HW2 9556   0.249   6.231   2.955 -1.3743  2.3517 -0.2670
 2052SOL     OW 9557   2.186   0.736   7.667 -0.6156 -0.3307  0.3044
 2052SOL    HW1 9558   2.170   0.767   7.756 -1.7450 -1.9391  0.6957
 2052SOL    HW2 9559   2.261   0.677   7.675 -0.3112  0.0131  0.0578
 2053SOL     OW 9560   2.812   2.102   4.573 -0.2487 -0.5252  0.4606
 2053SOL    HW1 9561   2.861   2.142   4.501  1.1485 -0.2232  1.5433
 2053SOL    HW2 9562   2.834   2.009   4.567  1.2298 -0.2758  1.4700
 2054SOL     OW 9563   6.803   1.583   6.420  0.3580  0.3674  0.1493
 2054SOL    HW1 9564   6.835   1.499   6.385  0.3680  0.4238  0.0237
 2054SOL    HW2 9565   6.883   1.630   6.443  0.3333 -0.1080  1.2825
 2055SOL     OW 9566   6.574   3.303   1.940  0.6766 -0.0264 -0.0127
 2055SOL    HW1 9567   6.595   3.210   1.948 -0.2619 -0.1493  1.5726
 2055SOL    HW2 9568   6.657   3.347   1.958  1.0485 -0.5496 -0.4011
 2056SOL     OW 9569   2.111   1.557   3.491  0.0269  0.3098 -0.3577
 2056SOL    HW1 9570   2.130   1.471   3.452  0.9247 -1.5708  3.6689
 2056SOL    HW2 9571   2.018   1.571   3.474  0.4151 -0.1414 -3.2893
 2057SOL     OW 9572   5.501   6.357  10.800  0.4032  0.0214 -0.1417
 2057SOL    HW1 9573   5.469   6.433  10.752 -0.6106 -0.8255 -0.8576
 2057SOL    HW2 9574   5.564   6.316  10.741 -0.8760 -1.0455 -0.8140
 2058SOL     OW 9575   6.014   2.985   1.416  0.4066  0.2428  0.3353
 2058SOL    HW1 9576   5.951   2.955   1.350 -1.2130  2.5813  0.6875
 2058SOL    HW2 9577   6.074   3.042   1.368  1.0880 -0.4384  0.3634
 2059SOL     OW 9578   0.456   4.486  10.579 -0.2301 -0.1460  0.1095
 2059SOL    HW1 9579   0.381   4.544  10.571 -0.2790 -0.1642  0.4143
 2059SOL    HW2 9580   0.459   4.464  10.672  0.4920  0.3077  0.2016
 2060SOL     OW 9581   2.981   4.570   2.431 -0.3638  0.5456 -0.3422
 2060SOL    HW1 9582   3.009   4.567   2.340 -2.0799  3.3017 -1.0857
 2060SOL    HW2 9583   3.017   4.652   2.465 -0.7953  0.1832  1.0866
 2061SOL     OW 9584   6.711   0.664   0.234  0.3188  0.0081 -0.0443
 2061SOL    HW1 9585   6.680   0.579   0.204  2.9170 -0.6288 -1.2753
 2061SOL    HW2 9586   6.637   0.722   0.223 -1.4586 -2.0141  0.5719
 2062SOL     OW 9587   8.974   6.937   7.330  0.0179 -0.1047 -0.0648
 2062SOL    HW1 9588   9.034   6.873   7.366 -0.7363 -0.8287 -0.0705
 2062SOL    HW2 9589   9.020   7.020   7.337  0.9502 -0.6238  0.0727
 2063SOL     OW 9590   9.434   5.171   0.216  0.4738 -0.2604  0.4179
 2063SOL    HW1 9591   9.372   5.098   0.207 -0.9731  1.0252 -0.3553
 2063SOL    HW2 9592   9.492   5.144   0.288 -0.8479 -1.6027  1.0225
 2064SOL     OW 9593   3.241   0.005   1.552 -0.0585  0.0704  0.5520
 2064SOL    HW1 9594   3.190  -0.066   1.514 -0.7809 -0.1774  1.9406
 2064SOL    HW2 9595   3.177   0.058   1.600  0.6364  1.0657  0.4228
 2065SOL     OW 9596   7.296   9.110   4.362 -0.5024 -0.1827  0.4380
 2065SOL    HW1 9597   7.354   9.164   4.309 -1.3305  0.6307  0.3414
 2065SOL    HW2 9598   7.246   9.058   4.299 -2.9604  2.2559  0.2035
 2066SOL     OW 9599   3.460   4.628   0.580 -0.0217  0.3998 -0.3037
 2066SOL    HW1 9600   3.380   4.582   0.556  0.4674 -0.7562  0.1850
 2066SOL    HW2 9601   3.439   4.675   0.660  0.2330 -1.2846  0.7980
 2067SOL     OW 9602   5.009   2.253   8.529  0.2270 -0.7144  0.0462
 2067SOL    HW1 9603   5.056   2.179   8.491  1.3393  0.0109 -0.0353
 2067SOL    HW2 9604   5.074   2.323   8.534 -0.5366 -0.0457  1.0534
 2068SOL     OW 9605   8.319   7.638   1.184  0.3676  0.3867 -0.1060
 2068SOL    HW1 9606   8.414   7.654   1.179  0.5403 -0.4350  0.2220
 2068SOL    HW2 9607   8.303   7.570   1.119  0.4525 -1.2304  1.4763
 2069SOL     OW 9608  10.177   2.850   0.378  0.2001  0.3116 -0.1551
 2069SOL    HW1 9609  10.174   2.918   0.311 -0.2998  0.9714  0.5179
 2069SOL    HW2 9610  10.232   2.887   0.447  0.9891 -0.4977 -0.3309
 2070SOL     OW 9611   7.286   9.363   9.608 -0.4007  0.7607  0.3909
 2070SOL    HW1 9612   7.338   9.391   9.533  1.2515 -1.3282  0.6682
 2070SOL    HW2 9613   7.343   9.376   9.684 -1.6907  1.9098  1.2118
 2071SOL     OW 9614   6.390   7.254  10.577 -0.1827 -0.5115  0.1085
 2071SOL    HW1 9615   6.398   7.326  10.640  1.1701 -1.3880  1.0118
 2071SOL    HW2 9616   6.298   7.254  10.552 -0.5056  0.6387  1.1549
 2072SOL     OW 9617   0.398   1.328   8.659 -0.0848 -0.1260 -0.5162
 2072SOL    HW1 9618   0.433   1.396   8.716  0.0219 -0.6147 -0.0004
 2072SOL    HW2 9619   0.471   1.306   8.601 -0.5832  1.3513 -1.8054
 2073SOL     OW 9620   8.959   4.584   2.227 -0.5039 -0.0093  0.3149
 2073SOL    HW1 9621   9.008   4.660   2.194 -1.3312  0.1592 -0.5561
 2073SOL    HW2 9622   9.026   4.518   2.245  0.1217  0.5187 -0.0296
 2074SOL     OW 9623   1.103   7.586   4.544 -0.2021  0.1038 -0.0905
 2074SOL    HW1 9624   1.172   7.558   4.604 -0.4613  1.2427  0.7796
 2074SOL    HW2 9625   1.021   7.571   4.593 -0.5441 -0.6568 -0.8736
 2075SOL     OW 9626   6.576   3.498  10.387  0.2639 -1.2443  0.4587
 2075SOL    HW1 9627   6.496   3.515  10.437  0.1324  0.2995 -0.2215
 2075SOL    HW2 9628   6.605   3.412  10.417 -1.6273 -1.8355  0.7531
 2076SOL     OW 9629   3.053   6.001   7.558  0.3706 -0.4735 -0.1405
 2076SOL    HW1 9630   3.024   6.053   7.483  2.4390  1.2872  0.1879
 2076SOL    HW2 9631   3.082   5.918   7.519  0.9188  0.2076 -1.2385
 2077SOL     OW 9632   1.904   4.429   2.567 -0.0435  0.0778 -0.7683
 2077SOL    HW1 9633   1.821   4.472   2.588 -0.2268 -0.2276 -0.8797
 2077SOL    HW2 9634   1.894   4.399   2.477 -0.0678 -0.5675 -0.5554
 2078SOL     OW 9635   0.737   5.980   5.842  0.3856  0.6351  0.5627
 2078SOL    HW1 9636   0.736   6.061   5.893  0.6033  0.7556  0.3794
 2078SOL    HW2 9637   0.830   5.960   5.831  0.3360  0.4761  0.4222
 2079SOL     OW 9638   0.087   8.745   1.176 -0.2750  0.1283  0.8167
 2079SOL    HW1 9639   0.053   8.672   1.125  0.6025 -0.0094  0.4146
 2079SOL    HW2 9640   0.037   8.821   1.146  0.2521  0.0550 -0.2830
 2080SOL     OW 9641  10.468   5.643   8.075  0.3317 -0.1491 -0.5058
 2080SOL    HW1 9642  10.547   5.598   8.048  0.4622 -1.2086  1.4629
 2080SOL    HW2 9643  10.496   5.705   8.143 -0.5918 -1.3339  1.0475
 2081SOL     OW 9644   9.160   1.148   7.025  0.2092 -0.0170  0.1193
 2081SOL    HW1 9645   9.255   1.147   7.008  0.2514 -1.4147  0.3020
 2081SOL    HW2 9646   9.148   1.080   7.091 -1.1313 -1.0344 -1.1139
 2082SOL     OW 9647   7.307   0.483   7.507  0.2790 -0.1702  0.1173
 2082SOL    HW1 9648   7.356   0.542   7.450 -1.0109  2.3443  1.4359
 2082SOL    HW2 9649   7.349   0.490   7.592  0.3050 -1.4738  0.2353
 2083SOL     OW 9650  10.322   3.548  10.299 -0.0858  0.5921 -0.3462
 2083SOL    HW1 9651  10.264   3.536  10.224  0.7755 -1.4333 -0.7687
 2083SOL    HW2 9652  10.284   3.494  10.368  1.2660 -0.8137 -0.6479
 2084SOL     OW 9653  10.157   0.961  10.850 -0.0142 -0.3637 -0.0587
 2084SOL    HW1 9654  10.190   0.871  10.852 -1.1400 -0.7935  1.7073
 2084SOL    HW2 9655  10.164   0.991  10.941  2.6495  2.2630 -0.9515
 2085SOL     OW 9656   4.329   7.229   1.374  0.7782  0.8485  0.0135
 2085SOL    HW1 9657   4.306   7.221   1.466  1.0116  0.4819  0.0397
 2085SOL    HW2 9658   4.378   7.149   1.353 -1.3588 -0.2657 -1.0561
 2086SOL     OW 9659   1.183   3.054   4.470  0.2143 -0.3780 -0.4386
 2086SOL    HW1 9660   1.121   2.982   4.479  0.9997 -1.1780 -1.2855
 2086SOL    HW2 9661   1.176   3.079   4.378  0.4602  0.1710 -0.3114
 2087SOL     OW 9662   5.342   4.999   2.737 -0.2899 -0.3562  0.1983
 2087SOL    HW1 9663   5.359   5.092   2.755 -1.8700 -0.2067  1.0631
 2087SOL    HW2 9664   5.328   4.996   2.642  3.5629 -0.4130 -0.5494
 2088SOL     OW 9665   8.775   0.889   9.189 -0.0702  0.4289  0.2806
 2088SOL    HW1 9666   8.751   0.803   9.223 -1.8526  0.2209 -1.3516
 2088SOL    HW2 9667   8.785   0.944   9.266 -0.3199 -0.8899  1.2848
 2089SOL     OW 9668   9.180   9.633  10.054 -0.2673 -0.2823  0.3458
 2089SOL    HW1 9669   9.086   9.616  10.045 -0.3881  0.0449  0.9130
 2089SOL    HW2 9670   9.201   9.695   9.984 -0.2268 -1.2385 -0.5140
 2090SOL     OW 9671   8.711   3.368   8.733 -0.0438 -0.4150 -0.1744
 2090SOL    HW1 9672   8.733   3.431   8.802  2.6495 -1.0647 -0.3205
 2090SOL    HW2 9673   8.766   3.395   8.659 -0.9362 -1.3076 -1.1933
 2091SOL     OW 9674   2.959   4.421   8.975 -0.4018 -0.3052 -0.2403
 2091SOL    HW1 9675   2.959   4.455   8.886 -2.4632 -0.2037 -0.2329
 2091SOL    HW2 9676   2.924   4.491   9.028 -0.1135 -0.7220  0.5230
 2092SOL     OW 9677   0.366   1.266   5.763 -0.5113  0.1026 -0.0884
 2092SOL    HW1 9678   0.318   1.211   5.701 -3.0836  0.1953  1.6413
 2092SOL    HW2 9679   0.438   1.303   5.713  0.5039 -3.6659 -1.7267
 2093SOL     OW 9680   9.820   6.205   4.664 -0.4055  0.3080 -0.4437
 2093SOL    HW1 9681   9.906   6.241   4.686 -0.0081 -0.8375 -0.0420
 2093SOL    HW2 9682   9.781   6.184   4.749 -1.0502  0.7348 -0.6286
 2094SOL     OW 9683   3.740   6.875   7.269 -0.1232  0.6239 -0.3967
 2094SOL    HW1 9684   3.821   6.829   7.291  1.1304  2.9096  0.0297
 2094SOL    HW2 9685   3.728   6.858   7.175  0.6987  0.0650 -0.4150
 2095SOL     OW 9686   7.059   9.215   2.119  0.0726  0.1871  0.1079
 2095SOL    HW1 9687   7.126   9.150   2.097  1.3267  0.7037  2.1438
 2095SOL    HW2 9688   7.015   9.179   2.197 -0.9632  0.5970 -0.2663
 2096SOL     OW 9689   3.148   6.425   1.787 -0.2879  0.4421  0.3295
 2096SOL    HW1 9690   3.176   6.374   1.863  0.1464  0.0595 -0.0799
 2096SOL    HW2 9691   3.230   6.446   1.742 -0.5500  0.6283 -0.0593
 2097SOL     OW 9692   7.089   0.540   9.099 -0.5554  0.3003  0.0005
 2097SOL    HW1 9693   7.030   0.611   9.075  1.1645  2.3609  1.4172
 2097SOL    HW2 9694   7.038   0.484   9.156 -1.0787  2.2878  1.5917
 2098SOL     OW 9695   3.456   5.090   6.984 -0.1165  0.0778  0.1687
 2098SOL    HW1 9696   3.417   5.020   7.038  1.1320 -0.6792  0.1269
 2098SOL    HW2 9697   3.426   5.071   6.895  0.3674 -0.5312  0.1280
 2099SOL     OW 9698   5.252   8.527   5.561  0.2958  0.2874 -0.4020
 2099SOL    HW1 9699   5.340   8.500   5.535  0.4231  0.2520  0.0481
 2099SOL    HW2 9700   5.265   8.605   5.614  0.2375 -0.7462  1.2374
 2100SOL     OW 9701   4.951   1.364  10.264  0.2979 -0.2250  0.2132
 2100SOL    HW1 9702   4.946   1.277  10.225 -1.7582 -0.3112  0.5852
 2100SOL    HW2 9703   4.865   1.403  10.249  1.4556  2.1615 -0.8095
 2101SOL     OW 9704   3.959   6.644   6.105  0.2954 -0.5119  0.3430
 2101SOL    HW1 9705   3.920   6.672   6.187 -0.5560 -0.0191 -0.2071
 2101SOL    HW2 9706   3.887   6.647   6.042  1.0367 -0.3911 -0.5250
 2102SOL     OW 9707   2.254   1.926   3.292  0.2819 -0.1791 -0.4219
 2102SOL    HW1 9708   2.183   1.959   3.348  0.1411 -0.7347 -0.2677
 2102SOL    HW2 9709   2.334   1.952   3.338  0.1748  0.1676 -0.4306
 2103SOL     OW 9710   6.136   1.154   8.792  0.5584  0.0915  0.1019
 2103SOL    HW1 9711   6.145   1.068   8.753  1.3875  0.6182 -0.9107
 2103SOL    HW2 9712   6.224   1.191   8.791  0.5178  0.3705  1.9596
 2104SOL     OW 9713   4.563   7.749   0.302  0.2508 -0.1063 -0.4631
 2104SOL    HW1 9714   4.523   7.835   0.315 -0.8749 -0.5695 -0.7876
 2104SOL    HW2 9715   4.608   7.730   0.384  1.7141  1.3886 -0.8566
 2105SOL     OW 9716   2.775   3.289   0.312 -0.1976 -0.2272 -0.4263
 2105SOL    HW1 9717   2.790   3.372   0.268  0.3305 -1.1385 -2.0565
 2105SOL    HW2 9718   2.696   3.303   0.364 -1.0580  0.8258 -1.9498
 2106SOL     OW 9719   8.924   6.915   2.007 -0.0403 -0.1381  0.1373
 2106SOL    HW1 9720   8.986   6.843   2.019  0.2938  0.1060 -0.1161
 2106SOL    HW2 9721   8.847   6.874   1.967  0.6641 -0.1297 -1.2888
 2107SOL     OW 9722  10.649   2.529   0.355 -0.1939  0.0806 -0.2425
 2107SOL    HW1 9723  10.620   2.528   0.446  1.7573 -2.3320  0.4743
 2107SOL    HW2 9724  10.609   2.452   0.316  0.3417  0.1354 -0.9229
 2108SOL     OW 9725   0.135   4.927   8.453 -0.4052  0.0843 -0.2537
 2108SOL    HW1 9726   0.063   4.898   8.509 -1.0087  1.2765 -0.3808
 2108SOL    HW2 9727   0.162   4.848   8.407 -0.3613 -0.7833  1.1839
 2109SOL     OW 9728   0.179   5.494   0.909 -0.6659 -0.3042 -0.3010
 2109SOL    HW1 9729   0.270   5.484   0.881 -0.5425  1.4099 -0.6193
 2109SOL    HW2 9730   0.133   5.524   0.831 -1.7385 -2.1003 -0.4036
 2110SOL     OW 9731  10.199   3.732   4.086 -0.2132 -0.7771  0.3712
 2110SOL    HW1 9732  10.284   3.756   4.123 -0.9641  1.8221  0.5766
 2110SOL    HW2 9733  10.166   3.812   4.046 -1.1840 -2.4991 -2.6153
 2111SOL     OW 9734   2.262  10.239   4.957 -0.1830  0.0639 -0.1018
 2111SOL    HW1 9735   2.183  10.206   4.999 -0.7562  0.6337 -0.7100
 2111SOL    HW2 9736   2.253  10.213   4.865  1.1503 -1.3498  0.1381
 2112SOL     OW 9737   5.474   8.951   6.397  0.0482 -0.9283 -0.0260
 2112SOL    HW1 9738   5.524   8.907   6.466  1.4236  0.9133  0.2259
 2112SOL    HW2 9739   5.453   9.037   6.434 -0.5127 -0.4710 -1.3440
 2113SOL     OW 9740   2.376   1.514   1.718 -0.2315 -0.2708  0.4409
 2113SOL    HW1 9741   2.353   1.527   1.810 -2.3253  1.8709 -0.2737
 2113SOL    HW2 9742   2.440   1.442   1.719 -2.1074 -2.1089  3.3001
 2114SOL     OW 9743   4.249   5.330   4.936  0.1622  0.4359  0.1567
 2114SOL    HW1 9744   4.320   5.299   4.993 -0.2293 -0.2591  0.2790
 2114SOL    HW2 9745   4.269   5.422   4.922  0.8857  0.3444  0.4980
 2115SOL     OW 9746   9.146   8.501   5.769  0.0741  0.0485 -0.0283
 2115SOL    HW1 9747   9.102   8.538   5.692  0.7488  1.2137  0.1369
 2115SOL    HW2 9748   9.234   8.539   5.767  0.2045 -0.1814  1.1352
 2116SOL     OW 9749  10.210   6.258   3.507  0.1267  0.7262 -0.0839
 2116SOL    HW1 9750  10.125   6.220   3.526 -0.1030  0.2344 -1.9577
 2116SOL    HW2 9751  10.273   6.199   3.548 -0.3072 -0.7470 -1.4638
 2117SOL     OW 9752   1.775   5.938   2.347  0.1003 -0.2422  0.3059
 2117SOL    HW1 9753   1.829   5.875   2.299 -0.3878 -0.3279 -0.1413
 2117SOL    HW2 9754   1.688   5.930   2.307  0.0796  0.8644  0.1091
 2118SOL     OW 9755   6.140   6.050   8.932  0.2127 -0.1708  0.1720
 2118SOL    HW1 9756   6.145   6.080   9.023 -1.6508  0.2848  0.1610
 2118SOL    HW2 9757   6.049   6.064   8.907  0.4334 -1.3335 -1.4273
 2119SOL     OW 9758   9.009   2.580  10.020 -0.1355 -0.1370  0.0671
 2119SOL    HW1 9759   8.954   2.550   9.948  0.7615 -2.4608  0.2531
 2119SOL    HW2 9760   8.958   2.648  10.063 -1.5774 -0.1666 -1.5134
 2120SOL     OW 9761   9.633   8.977   8.842 -0.0443 -0.6138  0.4327
 2120SOL    HW1 9762   9.577   8.904   8.814 -0.0434 -0.9682  1.3271
 2120SOL    HW2 9763   9.672   8.947   8.924  0.6351  0.0542  0.3576
 2121SOL     OW 9764   7.822   7.152   8.145 -0.3921 -0.2241  0.2295
 2121SOL    HW1 9765   7.845   7.149   8.238  0.1305  0.2156  0.1254
 2121SOL    HW2 9766   7.732   7.121   8.140 -0.1310 -1.0967  0.7782
 2122SOL     OW 9767   4.446   8.867   2.146  0.0293  0.0651  0.8380
 2122SOL    HW1 9768   4.476   8.863   2.055 -0.4651  0.1164  0.6699
 2122SOL    HW2 9769   4.526   8.865   2.198  0.2866 -0.4959  0.4182
 2123SOL     OW 9770   1.445   6.274   9.338 -0.0841 -0.0763 -0.2247
 2123SOL    HW1 9771   1.380   6.237   9.278  1.7349 -3.5256 -0.3106
 2123SOL    HW2 9772   1.519   6.298   9.282  0.3430 -0.1702  0.2938
 2124SOL     OW 9773   1.613   5.087   7.409 -0.0311  0.3446 -0.2637
 2124SOL    HW1 9774   1.693   5.120   7.368 -1.0248  1.4463 -1.4114
 2124SOL    HW2 9775   1.585   5.015   7.352  0.5638 -0.5725  0.5904
 2125SOL     OW 9776   0.291  10.537   7.111  0.1740 -0.3269  0.1437
 2125SOL    HW1 9777   0.282  10.448   7.076  0.2313 -0.3059  0.0768
 2125SOL    HW2 9778   0.205  10.556   7.149  0.4067 -0.7323  0.8956
 2126SOL     OW 9779   5.585  10.825   2.174  0.8674 -0.0113  0.8371
 2126SOL    HW1 9780   5.617  10.878   2.101  1.0267 -1.0665  0.1246
 2126SOL    HW2 9781   5.490  10.842   2.175  1.1212  1.6206  1.7412
 2127SOL     OW 9782   2.524   8.837   3.078 -0.0945  0.0741  0.5888
 2127SOL    HW1 9783   2.502   8.782   3.003 -0.3196  0.1421  0.6029
 2127SOL    HW2 9784   2.544   8.775   3.148  2.1526 -0.0301 -0.0685
 2128SOL     OW 9785   2.004   2.689   8.061 -0.3365  0.1124  0.1078
 2128SOL    HW1 9786   1.951   2.681   7.982  0.7904 -0.5671 -0.6103
 2128SOL    HW2 9787   2.094   2.692   8.029  0.0645  1.6337  1.2662
 2129SOL     OW 9788   8.752  10.555   1.020 -0.2123 -0.2308 -0.0119
 2129SOL    HW1 9789   8.765  10.461   1.007 -0.8311 -0.1831 -1.1085
 2129SOL    HW2 9790   8.777  10.570   1.111  0.1406 -1.4100  0.1080
 2130SOL     OW 9791   9.231   8.856  10.674 -0.4532 -0.1811  0.3392
 2130SOL    HW1 9792   9.157   8.876  10.732  0.3409  0.2208  1.2244
 2130SOL    HW2 9793   9.213   8.908  10.595 -0.1522  1.4634  1.3002
 2131SOL     OW 9794  10.087   5.252   3.508 -0.1555 -0.0009 -0.0215
 2131SOL    HW1 9795  10.126   5.329   3.467 -0.1601  0.8144  1.4446
 2131SOL    HW2 9796  10.151   5.182   3.493  0.3097  0.5180 -0.5107
 2132SOL     OW 9797   1.915   3.180  10.258 -0.0304  0.4719 -0.8859
 2132SOL    HW1 9798   1.895   3.248  10.194 -0.1659 -0.8821 -2.3335
 2132SOL    HW2 9799   1.839   3.121  10.256 -0.0686  0.4150  0.5867
 2133SOL     OW 9800   7.570   5.016   6.877 -0.4185  0.1252 -0.1243
 2133SOL    HW1 9801   7.594   5.057   6.960  1.5017  1.1034 -1.1054
 2133SOL    HW2 9802   7.604   4.926   6.885  3.3901  1.3038 -1.2455
 2134SOL     OW 9803  10.599  10.735   6.273  0.3713  0.0028 -0.2513
 2134SOL    HW1 9804  10.678  10.682   6.282  0.7328  0.1573 -2.1220
 2134SOL    HW2 9805  10.584  10.771   6.361  2.5681  0.2332  0.0790
 2135SOL     OW 9806   0.523  10.754   2.856  0.7959 -0.2067  0.0266
 2135SOL    HW1 9807   0.603  10.711   2.884 -0.6849 -1.4677  2.7063
 2135SOL    HW2 9808   0.528  10.842   2.895  1.1176 -0.0899 -0.2771
 2136SOL     OW 9809   0.090  10.449   8.126 -0.1464  0.1910 -0.3744
 2136SOL    HW1 9810   0.185  10.441   8.137 -0.1288  0.9006  0.0610
 2136SOL    HW2 9811   0.079  10.513   8.056 -0.3051 -1.1049 -1.5778
 2137SOL     OW 9812   9.938   0.112   2.144 -0.1371  0.2959 -0.6142
 2137SOL    HW1 9813   9.959   0.179   2.078 -1.7440  0.8451 -0.6137
 2137SOL    HW2 9814   9.845   0.125   2.162  0.0691 -0.3998  1.1543
 2138SOL     OW 9815   8.068   2.318   6.379 -0.6373  0.0381 -0.1011
 2138SOL    HW1 9816   8.156   2.318   6.342 -0.1175  0.9622  1.0680
 2138SOL    HW2 9817   8.077   2.362   6.464 -2.3862  0.9494 -0.3398
 2139SOL     OW 9818   0.398   8.780   0.031  0.1740  0.4842  0.8504
 2139SOL    HW1 9819   0.474   8.800  -0.024  0.5371 -2.0459  0.3040
 2139SOL    HW2 9820   0.372   8.692   0.005 -1.8045  0.5407  2.3651
 2140SOL     OW 9821   7.454   6.514  10.864  0.2839  0.0489  0.1523
 2140SOL    HW1 9822   7.481   6.423  10.853 -0.5272 -0.3692  1.4603
 2140SOL    HW2 9823   7.373   6.521  10.813 -0.3550 -0.3343  1.0828
 2141SOL     OW 9824   4.295   3.973   3.370  0.1125  0.4013 -0.5364
 2141SOL    HW1 9825   4.200   3.984   3.374  0.1989  1.3657 -0.8009
 2141SOL    HW2 9826   4.314   3.959   3.277  0.3572  1.6886 -0.6975
 2142SOL     OW 9827   7.658  10.242   5.971 -0.1978  1.0050  0.2447
 2142SOL    HW1 9828   7.604  10.321   5.974 -2.0339 -0.0297 -1.9548
 2142SOL    HW2 9829   7.704  10.248   5.887  0.4622  0.2320  0.5423
 2143SOL     OW 9830   4.103   5.940   1.208  0.1715 -0.1066 -0.1639
 2143SOL    HW1 9831   4.083   5.972   1.120  0.2319  0.4079  0.0049
 2143SOL    HW2 9832   4.133   5.850   1.195  0.0045 -0.0931 -0.6506
 2144SOL     OW 9833   3.678   5.593   3.169  0.0000 -0.3297 -0.8412
 2144SOL    HW1 9834   3.690   5.662   3.104  0.7925  0.4159  0.0683
 2144SOL    HW2 9835   3.662   5.639   3.252  2.0864 -1.1537  0.0997
 2145SOL     OW 9836   6.019   4.693   7.564  0.1413 -0.6578  0.0426
 2145SOL    HW1 9837   6.025   4.662   7.474  0.1649 -3.6295  0.9838
 2145SOL    HW2 9838   5.934   4.737   7.569 -0.0488 -0.8475 -1.2909
 2146SOL     OW 9839   3.219   1.261   0.905 -0.4087 -0.0634 -0.6426
 2146SOL    HW1 9840   3.132   1.299   0.912 -0.4606  0.0093 -1.5118
 2146SOL    HW2 9841   3.277   1.324   0.948 -0.6799  0.2967 -0.7989
 2147SOL     OW 9842   7.112   7.906  10.873 -0.1280  0.2764 -0.3966
 2147SOL    HW1 9843   7.135   7.831  10.817  1.4627 -0.3313  0.9853
 2147SOL    HW2 9844   7.017   7.904  10.877 -0.1502 -1.3484 -0.8787
 2148SOL     OW 9845   3.299   9.992   9.889  0.1678 -0.1302 -0.3672
 2148SOL    HW1 9846   3.330   9.907   9.855  0.8867 -0.4134  0.9310
 2148SOL    HW2 9847   3.209   9.974   9.918 -1.0937  0.5086 -3.4501
 2149SOL     OW 9848   1.064   9.370   5.865 -0.0498 -0.1529 -0.0305
 2149SOL    HW1 9849   0.972   9.394   5.858 -0.1241 -0.5419 -0.3968
 2149SOL    HW2 9850   1.071   9.285   5.822  0.1245 -1.0168  1.6043
 2150SOL     OW 9851   3.063   9.970   9.291 -0.4046 -0.6845  0.4364
 2150SOL    HW1 9852   2.979   9.926   9.306 -0.5084 -1.3049 -1.6203
 2150SOL    HW2 9853   3.057  10.052   9.339 -2.6998 -0.1660 -0.6127
 2151SOL     OW 9854   0.764   6.452   8.796  0.1537 -0.3438 -0.0737
 2151SOL    HW1 9855   0.756   6.384   8.729 -1.0840 -0.2980  0.0083
 2151SOL    HW2 9856   0.780   6.404   8.877 -0.4492 -0.5395 -0.0616
 2152SOL     OW 9857  10.145   1.487   9.686 -0.2799  0.1120  0.0743
 2152SOL    HW1 9858  10.074   1.461   9.745  0.4678 -0.3450  0.7789
 2152SOL    HW2 9859  10.100   1.532   9.614 -1.5583 -2.2239 -0.7193
 2153SOL     OW 9860  10.217   5.677   0.604 -0.1299  0.0128  0.4901
 2153SOL    HW1 9861  10.296   5.628   0.580 -0.8220 -1.5764  1.3083
 2153SOL    HW2 9862  10.250   5.751   0.656  1.0024  0.9744 -1.4655
 2154SOL     OW 9863   1.952   3.137   9.610  0.2263 -0.0527  0.3194
 2154SOL    HW1 9864   1.958   3.047   9.576  2.1375  0.8509 -2.0465
 2154SOL    HW2 9865   2.033   3.149   9.659  0.1070  0.4742  0.3865
 2155SOL     OW 9866   7.903   4.059   4.632  0.2878 -0.0975 -0.1981
 2155SOL    HW1 9867   7.973   4.118   4.605  0.0823 -0.3028 -1.2403
 2155SOL    HW2 9868   7.927   4.030   4.719  1.0739  0.4826 -0.2180
 2156SOL     OW 9869   7.876   4.028   7.924  0.0688 -0.1078 -0.0993
 2156SOL    HW1 9870   7.802   3.967   7.926 -0.4239  0.1993 -3.3575
 2156SOL    HW2 9871   7.947   3.981   7.966 -1.4794 -1.0698  1.6121
 2157SOL     OW 9872   9.368   8.269   8.096  0.1538  0.2971 -0.3887
 2157SOL    HW1 9873   9.328   8.302   8.016 -0.6164  0.6456  0.1242
 2157SOL    HW2 9874   9.434   8.207   8.066 -3.5460 -3.7207 -1.3122
 2158SOL     OW 9875   1.100   8.713  10.098  0.2151 -0.2364  0.1140
 2158SOL    HW1 9876   1.031   8.648  10.113 -0.8946  0.8445 -0.1384
 2158SOL    HW2 9877   1.150   8.715  10.179 -1.4119  0.5277  1.1532
 2159SOL     OW 9878   0.907   5.856   3.072  0.0870  0.9117  0.0033
 2159SOL    HW1 9879   0.866   5.931   3.114  0.5530  0.9694  0.3724
 2159SOL    HW2 9880   0.869   5.780   3.115  0.3764  0.9659  0.3629
 2160SOL     OW 9881   8.789   2.398   5.758  0.6462 -0.7479  0.1701
 2160SOL    HW1 9882   8.695   2.383   5.767  0.9211 -1.6834  1.9007
 2160SOL    HW2 9883   8.800   2.491   5.778 -0.0932 -0.1201 -2.0402
 2161SOL     OW 9884   9.177   3.587   7.628 -0.2318  0.2571 -0.1687
 2161SOL    HW1 9885   9.256   3.544   7.660 -0.8101 -1.0328 -0.3976
 2161SOL    HW2 9886   9.126   3.606   7.707 -1.0527 -1.7124 -0.1633
 2162SOL     OW 9887   4.280   1.770   5.478  0.2668  0.3165  0.2461
 2162SOL    HW1 9888   4.306   1.847   5.527  0.8474  0.1942  0.1285
 2162SOL    HW2 9889   4.223   1.804   5.409  1.6116  0.8226 -0.6552
 2163SOL     OW 9890   3.353   2.021   7.681  0.1017 -0.1201 -0.8124
 2163SOL    HW1 9891   3.363   2.070   7.763 -1.5253  0.9010 -1.1758
 2163SOL    HW2 9892   3.258   2.021   7.664  0.4614  0.6824 -3.2559
 2164SOL     OW 9893   4.143   0.129   7.146 -0.1106  0.0486 -0.2195
 2164SOL    HW1 9894   4.139   0.094   7.235 -0.8784 -0.4210 -0.4306
 2164SOL    HW2 9895   4.161   0.222   7.158 -1.2539  0.1894  0.4754
 2165SOL     OW 9896   5.450   9.652   2.517 -0.1064  0.3597  0.3450
 2165SOL    HW1 9897   5.419   9.708   2.588 -2.7572  0.2103 -0.5953
 2165SOL    HW2 9898   5.401   9.680   2.440 -0.4496 -2.2469 -0.4835
 2166SOL     OW 9899   6.548   9.669   6.002 -0.0193  0.5119 -0.1756
 2166SOL    HW1 9900   6.549   9.660   6.097  1.4275 -0.5264 -0.2312
 2166SOL    HW2 9901   6.474   9.725   5.982 -0.6211  0.3579  1.5333
 2167SOL     OW 9902   7.627   4.036   0.059 -0.3036 -0.1698 -1.1378
 2167SOL    HW1 9903   7.566   4.012  -0.010 -1.6838 -0.4498  0.1400
 2167SOL    HW2 9904   7.671   3.955   0.083 -2.0888 -0.7529  0.4192
 2168SOL     OW 9905   5.270  10.726   7.487 -0.1405  0.7336  0.3401
 2168SOL    HW1 9906   5.241  10.638   7.512 -1.1176  1.2122  0.9447
 2168SOL    HW2 9907   5.336  10.711   7.420  1.0680 -0.5390  1.7311
 2169SOL     OW 9908   9.663   4.886   1.169 -0.0349  0.2707 -0.2165
 2169SOL    HW1 9909   9.645   4.934   1.250 -1.7533  0.4364 -0.6565
 2169SOL    HW2 9910   9.687   4.798   1.199 -1.6477  0.0338  0.4852
 2170SOL     OW 9911   5.030   8.889  10.352  0.4269 -0.6524  0.2279
 2170SOL    HW1 9912   5.015   8.843  10.269 -0.1552  0.4347 -0.2846
 2170SOL    HW2 9913   4.943   8.921  10.377  0.9111  0.6689  0.2711
 2171SOL     OW 9914   6.887   4.174   5.008  0.5760 -0.3102 -0.0721
 2171SOL    HW1 9915   6.883   4.134   4.921  1.9936 -0.7723  0.0497
 2171SOL    HW2 9916   6.798   4.166   5.042 -0.3891  1.1590 -2.0185
 2172SOL     OW 9917   8.376   1.568   7.328 -0.1242  0.0625  0.1664
 2172SOL    HW1 9918   8.403   1.512   7.400 -0.0506 -0.7686 -0.4933
 2172SOL    HW2 9919   8.318   1.513   7.275 -2.4332  1.5111  1.0527
 2173SOL     OW 9920   0.619   0.038   7.696 -0.1932 -0.0638  0.0790
 2173SOL    HW1 9921   0.624   0.073   7.785  1.8160 -0.2202  0.0731
 2173SOL    HW2 9922   0.700  -0.011   7.685 -1.1337 -1.4090 -1.3064
 2174SOL     OW 9923   0.466   1.727   6.566  0.0900 -0.2330 -0.2501
 2174SOL    HW1 9924   0.440   1.789   6.635  0.8413  2.4073 -2.1972
 2174SOL    HW2 9925   0.387   1.714   6.514 -0.1613 -1.2578  0.3635
 2175SOL     OW 9926   1.273   5.891   0.834  0.2132 -0.3801 -0.4474
 2175SOL    HW1 9927   1.309   5.930   0.914  1.4671  1.7375 -1.9334
 2175SOL    HW2 9928   1.182   5.921   0.831  0.4335  0.3185 -0.2845
 2176SOL     OW 9929   9.767   6.989   1.953  0.6607 -0.4344 -0.1308
 2176SOL    HW1 9930   9.792   7.013   2.043  0.4544  0.9637 -0.4211
 2176SOL    HW2 9931   9.767   7.072   1.906 -1.5617 -0.8041 -0.8737
 2177SOL     OW 9932   9.396   8.942   1.467  0.1193  0.1270 -0.4321
 2177SOL    HW1 9933   9.372   8.914   1.555  0.9587 -1.5399 -0.6924
 2177SOL    HW2 9934   9.444   9.024   1.481  1.2593 -0.6927  0.8107
 2178SOL     OW 9935   8.027   5.867   5.312  0.3580 -0.9511 -0.2257
 2178SOL    HW1 9936   7.937   5.882   5.285  0.2421  1.7468  1.2241
 2178SOL    HW2 9937   8.032   5.773   5.328 -2.7993 -0.9690  1.5209
 2179SOL     OW 9938   1.191   2.344   3.967 -0.1943  0.1253 -0.5812
 2179SOL    HW1 9939   1.106   2.363   4.005 -0.5126 -1.3681 -0.4839
 2179SOL    HW2 9940   1.228   2.276   4.024  0.7195  0.2036 -1.0689
 2180SOL     OW 9941  10.486  10.593   6.818 -0.5652 -0.2588  0.8466
 2180SOL    HW1 9942  10.542  10.534   6.768 -0.1020  1.7947 -1.2606
 2180SOL    HW2 9943  10.546  10.638   6.877 -0.0545  1.1385 -0.6315
 2181SOL     OW 9944   9.553   4.550   1.892 -0.7545 -0.2643  0.1355
 2181SOL    HW1 9945   9.481   4.584   1.840 -0.2927  0.1404 -0.2421
 2181SOL    HW2 9946   9.522   4.465   1.923 -2.0914  0.6339  1.4230
 2182SOL     OW 9947   8.985   7.509   3.356  0.3013  0.2081 -0.0430
 2182SOL    HW1 9948   9.065   7.539   3.399  0.0889 -0.6534  0.9960
 2182SOL    HW2 9949   9.005   7.513   3.263  1.1899  0.9861  0.1723
 2183SOL     OW 9950   6.481   9.794   4.290 -0.2803  0.4079 -0.3451
 2183SOL    HW1 9951   6.391   9.793   4.321  0.3036  0.2422  1.4526
 2183SOL    HW2 9952   6.519   9.712   4.323  0.3267  0.0931 -1.7618
 2184SOL     OW 9953   9.181   1.549   7.953 -0.4160  0.5348  0.3964
 2184SOL    HW1 9954   9.112   1.615   7.957 -0.5811  0.3579  4.8207
 2184SOL    HW2 9955   9.263   1.599   7.956 -0.5032  0.6455  1.1578
 2185SOL     OW 9956   5.546   8.894   4.917 -0.8393  0.0111 -0.2915
 2185SOL    HW1 9957   5.631   8.852   4.928 -1.2593 -0.4157  1.6524
 2185SOL    HW2 9958   5.563   8.966   4.856  0.4618 -1.2667 -1.5206
 2186SOL     OW 9959   0.643   2.276   8.105  0.2883  0.4896  0.0180
 2186SOL    HW1 9960   0.568   2.326   8.072 -0.5881  0.7482  2.2628
 2186SOL    HW2 9961   0.673   2.325   8.181  3.0774  0.6379 -1.0586
 2187SOL     OW 9962   8.197   4.619   4.064  0.2835  0.1730  0.6126
 2187SOL    HW1 9963   8.278   4.583   4.026  0.4118  1.9844 -1.0226
 2187SOL    HW2 9964   8.214   4.624   4.158  1.3330 -1.2497  0.5202
 2188SOL     OW 9965   0.192   1.420  10.268  0.1720  0.3510 -0.1681
 2188SOL    HW1 9966   0.175   1.367  10.191 -0.6011  0.4760 -0.0961
 2188SOL    HW2 9967   0.169   1.509  10.241 -0.7804  0.2960  0.3978
 2189SOL     OW 9968   1.955   9.539   5.372  0.0269 -0.6459 -0.4274
 2189SOL    HW1 9969   1.978   9.454   5.336 -1.0814 -0.9773 -0.3965
 2189SOL    HW2 9970   2.038   9.584   5.383  0.5872 -1.5381 -0.9070
 2190SOL     OW 9971   8.693   9.003   6.271 -0.5942  0.1564 -0.0753
 2190SOL    HW1 9972   8.648   9.076   6.229 -2.2786 -1.1206 -0.5767
 2190SOL    HW2 9973   8.699   9.029   6.363 -1.4564  0.7826 -0.1816
 2191SOL     OW 9974   7.147   0.563   2.000  0.3373 -0.3894 -0.4534
 2191SOL    HW1 9975   7.232   0.530   2.028 -0.0518 -1.6354 -0.6604
 2191SOL    HW2 9976   7.087   0.537   2.070 -0.1089 -0.7605 -0.9711
 2192SOL     OW 9977   2.115   7.226   3.152  0.1937  0.5334  0.2634
 2192SOL    HW1 9978   2.075   7.161   3.095 -0.6410  0.7847  0.5401
 2192SOL    HW2 9979   2.128   7.302   3.096  1.5935 -0.0056 -0.1755
 2193SOL     OW 9980   8.573   7.256   0.110  0.5665  0.2907  0.0138
 2193SOL    HW1 9981   8.494   7.201   0.110  0.2023  0.6757 -2.5740
 2193SOL    HW2 9982   8.632   7.213   0.048  0.0211  3.0172 -2.6102
 2194SOL     OW 9983   9.088   1.348   8.577 -0.3782 -0.0969  0.1422
 2194SOL    HW1 9984   9.142   1.283   8.531 -1.2529 -0.1756 -0.8022
 2194SOL    HW2 9985   9.013   1.299   8.609 -1.0795  0.4538 -0.6326
 2195SOL     OW 9986   3.547   7.021  10.864 -0.3682 -0.4847 -0.3387
 2195SOL    HW1 9987   3.579   7.108  10.840  0.3575 -0.6187  0.1198
 2195SOL    HW2 9988   3.549   6.971  10.782  0.5086 -0.4590 -0.3436
 2196SOL     OW 9989   8.598   8.078   0.247 -0.5321  0.1343  0.2513
 2196SOL    HW1 9990   8.568   8.046   0.332  1.3246  0.5188  1.1018
 2196SOL    HW2 9991   8.580   8.172   0.248  0.6631  0.3798  0.7944
 2197SOL     OW 9992   7.927   8.470   9.513 -0.9991 -0.2716 -0.4054
 2197SOL    HW1 9993   7.905   8.526   9.438 -3.2811  0.7476  0.9214
 2197SOL    HW2 9994   8.020   8.488   9.529 -0.3611 -0.7397 -3.1050
 2198SOL     OW 9995   5.859   7.575   0.930  0.2836  0.0617 -0.4902
 2198SOL    HW1 9996   5.786   7.548   0.874  0.1326 -0.0199 -0.2565
 2198SOL    HW2 9997   5.921   7.501   0.926 -1.0675 -1.3120  1.8134
 2199SOL     OW 9998   6.615   2.857   5.627  0.7020 -0.5223 -0.1159
 2199SOL    HW1 9999   6.530   2.848   5.671  0.0349  0.2922 -1.1931
 2199SOL    HW210000   6.663   2.778   5.652 -0.7095 -1.4587 -0.2345
 2200SOL     OW10001   4.167   5.817   0.354 -0.0471  0.2584  0.1386
 2200SOL    HW110002   4.260   5.804   0.336 -0.3380 -0.0557 -1.2856
 2200SOL    HW210003   4.126   5.820   0.267 -1.3327  0.6286  0.7352
 2201SOL     OW10004   8.741   7.543   8.909  0.3335 -0.0064  0.4500
 2201SOL    HW110005   8.702   7.630   8.903  0.6624  0.1413  0.4445
 2201SOL    HW210006   8.669   7.486   8.938 -0.3948 -0.1193 -1.4468
 2202SOL     OW10007   8.179   4.425   1.003 -0.0072 -0.7538  0.2060
 2202SOL    HW110008   8.106   4.450   0.947 -0.1324 -0.8327  0.3344
 2202SOL    HW210009   8.202   4.506   1.050  0.6672 -0.4630 -0.5961
 2203SOL     OW10010   3.657   6.182   5.761 -0.4379  0.0238 -0.3025
 2203SOL    HW110011   3.734   6.126   5.748  0.0145  0.8661 -1.3921
 2203SOL    HW210012   3.587   6.121   5.787  0.6127 -0.7353  0.8865
 2204SOL     OW10013   7.220   1.461   6.168 -0.1969  1.0647 -0.4724
 2204SOL    HW110014   7.171   1.391   6.125 -0.4510  1.1409 -0.3129
 2204SOL    HW210015   7.304   1.421   6.190 -0.7096  0.4816  0.5446
 2205SOL     OW10016   5.987   1.402  10.431 -0.0166  0.2570 -0.3563
 2205SOL    HW110017   6.060   1.377  10.487 -1.4824  0.3284  1.7001
 2205SOL    HW210018   5.955   1.319  10.396  0.5250  0.1482 -0.6071
 2206SOL     OW10019   5.075   7.503   5.053  0.4553 -0.4938 -0.3224
 2206SOL    HW110020   4.996   7.452   5.070  0.7357 -0.6525  0.5325
 2206SOL    HW210021   5.044   7.592   5.036  0.1527 -0.3261  1.0157
 2207SOL     OW10022   8.460   1.128  10.014 -0.3230 -0.6810  0.0612
 2207SOL    HW110023   8.530   1.149  10.075 -1.7325  0.9244  1.2023
 2207SOL    HW210024   8.425   1.213   9.987 -2.7767 -1.4298  0.6767
 2208SOL     OW10025   2.767   9.096   8.455  0.0676  0.2387 -0.1912
 2208SOL    HW110026   2.764   9.151   8.376  0.7386 -0.3885 -0.6629
 2208SOL    HW210027   2.788   9.009   8.423 -0.9597 -0.3072  0.5595
 2209SOL     OW10028   4.621   6.255   5.747  0.0476  0.3544 -0.3624
 2209SOL    HW110029   4.669   6.263   5.829 -0.7027  1.2571  0.0184
 2209SOL    HW210030   4.624   6.343   5.708  1.1230 -0.2545 -1.7446
 2210SOL     OW10031   7.625  10.093   9.120  0.0318  0.7242 -0.0124
 2210SOL    HW110032   7.616   9.998   9.116 -2.0680  0.8617  0.0664
 2210SOL    HW210033   7.626  10.121   9.028  1.7129  0.5761 -0.0557
 2211SOL     OW10034   3.380   9.183  10.452  0.3133 -0.6248 -0.4980
 2211SOL    HW110035   3.449   9.170  10.517 -1.1262 -1.9760  0.8545
 2211SOL    HW210036   3.299   9.168  10.501 -0.9229  0.2749 -2.1772
 2212SOL     OW10037   6.312   0.749   5.747  0.0923 -0.0920  0.4279
 2212SOL    HW110038   6.244   0.685   5.770 -0.1485 -0.6091 -1.5335
 2212SOL    HW210039   6.314   0.809   5.821 -1.8892 -0.5735  0.9432
 2213SOL     OW10040   0.582   4.519   3.523 -0.0460 -0.0094 -0.2668
 2213SOL    HW110041   0.532   4.600   3.509 -0.2721 -0.1113 -0.0693
 2213SOL    HW210042   0.566   4.497   3.615  0.7762  0.2275 -0.0599
 2214SOL     OW10043  10.523   7.170   6.635 -0.5129  0.0971 -1.0993
 2214SOL    HW110044  10.604   7.134   6.598 -0.1471 -0.1033 -0.1351
 2214SOL    HW210045  10.500   7.242   6.576  0.2742  0.0473 -1.4871
 2215SOL     OW10046   8.058   1.879  10.445  0.0019  0.1836  0.0431
 2215SOL    HW110047   8.109   1.899  10.524 -1.6089  1.2496  0.8723
 2215SOL    HW210048   8.014   1.796  10.465 -1.4535  1.1028  0.8790
 2216SOL     OW10049   6.056   5.342   9.193  0.5799 -0.6272  0.6719
 2216SOL    HW110050   5.962   5.359   9.186  0.3982 -1.7957 -0.0538
 2216SOL    HW210051   6.097   5.416   9.147  0.0797  0.3404  1.7232
 2217SOL     OW10052   9.697   9.895  10.014 -0.0641  0.1031 -0.6125
 2217SOL    HW110053   9.736   9.928  10.095  0.6710 -0.2694 -0.8091
 2217SOL    HW210054   9.727   9.805  10.008  0.3138  0.2844 -1.5658
 2218SOL     OW10055   4.356   5.472   5.343  0.4060  0.0336 -0.4051
 2218SOL    HW110056   4.283   5.530   5.325  0.6021  0.6603  0.6997
 2218SOL    HW210057   4.316   5.388   5.366 -0.0373  0.5769  0.9432
 2219SOL     OW10058   0.366   6.329   8.027  0.4978 -0.0696  0.8100
 2219SOL    HW110059   0.390   6.258   8.087 -0.8668  0.1909  1.7022
 2219SOL    HW210060   0.446   6.380   8.016  1.5487 -1.8024  0.0383
 2220SOL     OW10061   8.529   4.903   9.556 -0.1358 -0.1473  0.6785
 2220SOL    HW110062   8.560   4.976   9.609  1.2800  0.3545 -0.7634
 2220SOL    HW210063   8.449   4.936   9.515  0.3044  0.4896  0.3094
 2221SOL     OW10064   6.659  10.647   9.776 -0.2542  0.1264 -0.0058
 2221SOL    HW110065   6.699  10.723   9.733 -1.3204  0.6006 -0.1821
 2221SOL    HW210066   6.656  10.671   9.869 -1.7329  0.8613 -0.2084
 2222SOL     OW10067  10.850   2.901  10.769  0.1591 -0.4926  0.2861
 2222SOL    HW110068  10.812   2.953  10.840  0.8053 -0.1853  0.4208
 2222SOL    HW210069  10.944   2.904  10.786  0.3866  0.1606 -0.9710
 2223SOL     OW10070   5.691   5.891  10.527 -0.5177  0.4707  0.5480
 2223SOL    HW110071   5.669   5.901  10.620 -1.7390  1.6935  0.1725
 2223SOL    HW210072   5.706   5.981  10.496  0.7723  0.0064 -0.2462
 2224SOL     OW10073   1.754   5.589   2.086 -0.0733 -0.4849  0.1683
 2224SOL    HW110074   1.735   5.497   2.102  1.4718 -1.1145 -1.2864
 2224SOL    HW210075   1.732   5.602   1.994  0.5531  0.3474  0.1251
 2225SOL     OW10076   8.285   6.389   0.497 -0.6221 -0.0421  0.7933
 2225SOL    HW110077   8.261   6.402   0.405  2.7706 -0.3612 -0.3037
 2225SOL    HW210078   8.327   6.303   0.498  2.7744  1.4493  1.7053
 2226SOL     OW10079   6.382   8.739   2.722  0.3445  0.2027 -0.1378
 2226SOL    HW110080   6.311   8.730   2.658 -1.0917 -1.4615  1.5817
 2226SOL    HW210081   6.411   8.649   2.737  1.7526  0.7273  0.3870
 2227SOL     OW10082   5.285   3.860   7.250 -0.0072  0.2950  0.1506
 2227SOL    HW110083   5.262   3.808   7.173  1.6222  0.5453 -0.5532
 2227SOL    HW210084   5.235   3.941   7.241 -0.8210 -0.2179  0.0504
 2228SOL     OW10085   8.438   0.851   7.787  0.0646  0.1563 -0.7036
 2228SOL    HW110086   8.385   0.834   7.866 -0.7123  0.3499 -1.1742
 2228SOL    HW210087   8.374   0.864   7.718  0.7161  1.2029 -1.1341
 2229SOL     OW10088   3.358   3.697   1.859 -0.6301  0.8233  0.7607
 2229SOL    HW110089   3.276   3.655   1.834 -1.2279  1.3785  1.6958
 2229SOL    HW210090   3.375   3.666   1.948  0.1131  0.8035  0.6191
 2230SOL     OW10091   0.250   7.217  10.778  0.5611 -0.0747 -0.1684
 2230SOL    HW110092   0.247   7.159  10.702  0.1804 -1.2611  0.7357
 2230SOL    HW210093   0.323   7.185  10.830  0.1813  0.0946  0.4732
 2231SOL     OW10094   8.225   6.752   4.601  0.1945 -0.3333 -0.2409
 2231SOL    HW110095   8.303   6.804   4.582 -0.4967  0.3641 -1.2520
 2231SOL    HW210096   8.152   6.803   4.564 -0.5781 -1.6629 -0.6141
 2232SOL     OW10097   7.369   2.412   7.567 -0.7538  0.1271  0.1169
 2232SOL    HW110098   7.454   2.451   7.590 -1.3364  1.3773  0.2340
 2232SOL    HW210099   7.325   2.479   7.515 -1.1983 -0.9901 -1.0025
 2233SOL     OW10100   4.148   0.726   8.634 -0.7972  1.2666  0.4145
 2233SOL    HW110101   4.216   0.789   8.657  0.7246  0.4263 -1.5354
 2233SOL    HW210102   4.170   0.648   8.684 -0.8084  1.2437  0.3834
 2234SOL     OW10103   5.188   3.234   5.842 -0.3731  0.5682  0.0536
 2234SOL    HW110104   5.115   3.174   5.855  0.7781 -1.0403 -0.5215
 2234SOL    HW210105   5.164   3.286   5.765 -0.7473 -0.2314 -0.3813
 2235SOL     OW10106   0.489   5.311   1.964  0.3690 -0.1797 -0.5043
 2235SOL    HW110107   0.401   5.311   2.000  0.2478  0.6213 -0.7964
 2235SOL    HW210108   0.497   5.394   1.918  1.0769 -0.4947 -0.9709
 2236SOL     OW10109  10.595  10.734   8.098  0.4233 -0.6410 -0.0065
 2236SOL    HW110110  10.636  10.659   8.055  1.1397 -0.9122  1.1307
 2236SOL    HW210111  10.507  10.704   8.119  1.4048 -2.0467  2.5325
 2237SOL     OW10112   8.290   3.241   2.788  0.4776  0.0437 -0.5729
 2237SOL    HW110113   8.319   3.153   2.766  1.5341  0.2379  0.0249
 2237SOL    HW210114   8.310   3.252   2.881 -1.0837  0.3627 -0.2423
 2238SOL     OW10115   9.675   9.257   6.045  0.4843  0.1822 -0.5429
 2238SOL    HW110116   9.642   9.329   5.992  1.8306 -0.0841 -1.8177
 2238SOL    HW210117   9.606   9.191   6.040 -0.6939  1.2887  0.5143
 2239SOL     OW10118   6.443   1.796   1.338 -0.3001 -0.3338 -0.7927
 2239SOL    HW110119   6.421   1.707   1.365  1.0557 -0.6724 -0.7525
 2239SOL    HW210120   6.362   1.845   1.351  0.0841 -0.4386  3.9730
 2240SOL     OW10121   2.544   2.980   3.947 -0.4920 -0.2244 -0.2020
 2240SOL    HW110122   2.613   2.917   3.930  0.9322  1.8097 -2.7959
 2240SOL    HW210123   2.590   3.061   3.971 -2.0546  0.6768 -0.0643
 2241SOL     OW10124   6.467   7.816   4.246  0.3313  0.3899 -0.7826
 2241SOL    HW110125   6.507   7.776   4.169 -1.6356 -0.6271 -1.3380
 2241SOL    HW210126   6.516   7.781   4.320  0.2845 -1.0930 -1.4228
 2242SOL     OW10127   1.316   8.212   9.540 -0.3968  0.4857  0.5531
 2242SOL    HW110128   1.293   8.133   9.492  0.2565  0.9215 -0.5270
 2242SOL    HW210129   1.243   8.273   9.523  0.5499  1.1812 -1.2288
 2243SOL     OW10130   1.668   8.042   6.357 -0.3654 -0.3235  0.0560
 2243SOL    HW110131   1.630   8.128   6.376  0.8056  0.0122  1.0122
 2243SOL    HW210132   1.717   8.055   6.276 -0.2302 -0.0997  0.1724
 2244SOL     OW10133   6.742   1.903   2.351  0.2258 -0.1100 -0.3070
 2244SOL    HW110134   6.649   1.924   2.349 -0.1436 -1.4361  1.2321
 2244SOL    HW210135   6.768   1.916   2.443  2.0260  2.0072 -1.0043
 2245SOL     OW10136   9.800   2.552   8.188 -0.2359  0.4943  0.0494
 2245SOL    HW110137   9.852   2.623   8.148  3.7529 -2.3969 -0.5410
 2245SOL    HW210138   9.768   2.502   8.113  1.2822 -1.0156  0.3533
 2246SOL     OW10139   1.739   1.740   2.236  0.2314 -0.1075  0.0442
 2246SOL    HW110140   1.645   1.730   2.252  0.1296  0.1344 -0.3835
 2246SOL    HW210141   1.746   1.748   2.141  0.7230 -0.4990  0.0482
 2247SOL     OW10142   6.216   9.361   2.405  0.1567  0.7850 -0.5209
 2247SOL    HW110143   6.146   9.369   2.470 -0.8887  0.2683 -1.5686
 2247SOL    HW210144   6.229   9.451   2.373 -0.8293  0.7140 -1.1452
 2248SOL     OW10145   9.818   5.304   6.373  1.0223 -0.1360 -0.0234
 2248SOL    HW110146   9.819   5.379   6.432  0.4155 -0.7960  0.8469
 2248SOL    HW210147   9.779   5.338   6.292  0.9194  0.5260  0.2951
 2249SOL     OW10148   0.433   8.535   2.608 -0.0597 -0.3820  0.4359
 2249SOL    HW110149   0.462   8.558   2.696  1.8417 -0.4827 -0.1155
 2249SOL    HW210150   0.344   8.503   2.620 -0.0649  0.1761  2.2316
 2250SOL     OW10151   5.143   6.933   6.858  0.3372 -0.4785  0.0188
 2250SOL    HW110152   5.111   6.993   6.925 -0.6117 -1.6681  0.6891
 2250SOL    HW210153   5.218   6.889   6.898  3.0816  2.3445 -1.5721
 2251SOL     OW10154   6.818   6.285   4.276 -0.4802  0.4400 -0.0601
 2251SOL    HW110155   6.805   6.205   4.327 -3.0030  1.1977  0.6646
 2251SOL    HW210156   6.787   6.263   4.188 -1.0916  0.5663  0.1171
 2252SOL     OW10157  10.296   0.997  10.322  0.2044 -0.3802  0.0491
 2252SOL    HW110158  10.390   1.009  10.328  0.1955  1.6533 -2.1464
 2252SOL    HW210159  10.284   0.941  10.244 -0.4072  0.7273 -0.6769
 2253SOL     OW10160  10.335   6.526   7.757 -0.4658 -0.3013 -0.1666
 2253SOL    HW110161  10.408   6.484   7.712 -0.0138  1.6349 -1.3702
 2253SOL    HW210162  10.371   6.608   7.790 -1.7895  0.0996  0.3516
 2254SOL     OW10163   0.190   4.380   2.693  0.2820 -0.8211  0.2817
 2254SOL    HW110164   0.226   4.468   2.704  1.2624 -1.2178  0.3012
 2254SOL    HW210165   0.212   4.356   2.603 -0.8559 -0.6648 -0.0531
 2255SOL     OW10166   8.060   8.130   3.130  0.3199  0.1167 -0.0065
 2255SOL    HW110167   8.087   8.134   3.222  0.5901  0.5142 -0.1024
 2255SOL    HW210168   8.010   8.048   3.124 -1.2752  0.9775  0.9104
 2256SOL     OW10169   4.657   2.878   6.276 -0.1644 -0.2838  0.4695
 2256SOL    HW110170   4.701   2.847   6.356 -0.2158 -0.0752  0.5793
 2256SOL    HW210171   4.719   2.859   6.206  0.2759  0.3610  0.6702
 2257SOL     OW10172   9.858   3.742   7.506 -0.2017  0.3594 -0.7036
 2257SOL    HW110173   9.866   3.664   7.561  0.4101 -0.4328 -1.8759
 2257SOL    HW210174   9.902   3.811   7.555 -0.6060 -0.0634  0.2771
 2258SOL     OW10175   3.173   2.022   9.417  0.5644  0.0894  0.3238
 2258SOL    HW110176   3.109   1.975   9.364  1.1413 -1.2587  0.7591
 2258SOL    HW210177   3.172   1.977   9.501  1.5728  0.4823  0.5645
 2259SOL     OW10178   5.453   6.115   1.308  0.0345 -0.2556 -0.0150
 2259SOL    HW110179   5.510   6.190   1.324  0.4999 -0.5321 -0.3440
 2259SOL    HW210180   5.425   6.125   1.217 -0.2604 -0.2455  0.0746
 2260SOL     OW10181   5.887   1.131   2.997  0.1389 -0.1294 -0.1693
 2260SOL    HW110182   5.893   1.189   3.073  0.3714 -1.9125  1.2544
 2260SOL    HW210183   5.974   1.092   2.990 -0.0111 -0.3246 -1.0854
 2261SOL     OW10184   2.167   9.521   1.623 -0.9641 -0.5427  0.1482
 2261SOL    HW110185   2.245   9.535   1.569 -1.0378  1.0995  0.4381
 2261SOL    HW210186   2.094   9.528   1.562 -1.1603  2.9608  0.5944
 2262SOL     OW10187   4.212  10.496   4.291  0.2311 -0.0248 -0.5424
 2262SOL    HW110188   4.136  10.457   4.247 -0.5685  0.8257  0.0641
 2262SOL    HW210189   4.221  10.446   4.372  0.0533  0.1617 -0.4092
 2263SOL     OW10190   2.409  10.156   6.386 -0.2306 -0.5868  0.0956
 2263SOL    HW110191   2.495  10.199   6.382 -0.2054 -0.7335 -1.3729
 2263SOL    HW210192   2.420  10.088   6.453  1.3379 -1.6764 -1.1834
 2264SOL     OW10193   2.596   0.672   2.636 -0.6183  0.7566 -0.1173
 2264SOL    HW110194   2.539   0.713   2.572 -1.7896 -2.9748 -1.7547
 2264SOL    HW210195   2.683   0.675   2.597 -0.9550  0.3961 -0.9079
 2265SOL     OW10196   9.489   9.339   5.158  0.2231  0.2413  0.2861
 2265SOL    HW110197   9.573   9.344   5.112 -0.0894 -0.2434 -0.3616
 2265SOL    HW210198   9.512   9.314   5.248  0.7120 -0.9808 -0.1471
 2266SOL     OW10199   5.250   6.707   7.013 -0.3060 -0.1393 -0.3376
 2266SOL    HW110200   5.287   6.794   7.030 -1.2213 -0.1111  1.8974
 2266SOL    HW210201   5.325   6.653   6.990  0.6224  0.7248  0.5392
 2267SOL     OW10202   9.836   6.723   1.101  0.8999  0.2282 -0.3981
 2267SOL    HW110203   9.927   6.716   1.129  1.5070 -0.8122 -2.4076
 2267SOL    HW210204   9.840   6.716   1.006 -1.3879 -1.1668 -0.4584
 2268SOL     OW10205   9.541   8.726   9.930 -0.2863 -0.0809  0.0742
 2268SOL    HW110206   9.527   8.820   9.927  0.3638  0.0879  1.6403
 2268SOL    HW210207   9.601   8.708   9.858  0.2277  0.8235  0.2677
 2269SOL     OW10208  10.274   0.183   1.128  0.5368  0.4320 -0.4327
 2269SOL    HW110209  10.281   0.155   1.036 -1.2299  0.5147 -0.6345
 2269SOL    HW210210  10.338   0.253   1.137  0.2798  0.8774 -1.8004
 2270SOL     OW10211   9.106   0.568   4.306  0.4104 -0.1115  0.3358
 2270SOL    HW110212   9.061   0.521   4.376 -2.6270  1.9333 -0.0207
 2270SOL    HW210213   9.197   0.571   4.333 -0.1615 -1.7974  2.7802
 2271SOL     OW10214   7.400   1.758   3.157  0.0165  0.2268 -0.4264
 2271SOL    HW110215   7.341   1.717   3.221  1.4232 -2.9299 -0.9493
 2271SOL    HW210216   7.473   1.791   3.209  0.7448 -1.5610 -0.2405
 2272SOL     OW10217   9.492   7.359   8.114 -0.3395 -0.0973  0.3065
 2272SOL    HW110218   9.586   7.362   8.132 -0.0094 -0.9858 -1.0843
 2272SOL    HW210219   9.483   7.293   8.045 -2.0822 -0.6142  0.9552
 2273SOL     OW10220   0.899   9.190   7.056  0.7403 -0.1840  0.0434
 2273SOL    HW110221   0.962   9.241   7.106 -0.2621 -0.1677  1.3568
 2273SOL    HW210222   0.818   9.240   7.061  0.2500 -0.9109 -0.3485
 2274SOL     OW10223   0.944   6.171   6.102  0.0039 -0.5447  0.3003
 2274SOL    HW110224   0.994   6.090   6.088  0.7321  0.0817 -0.9107
 2274SOL    HW210225   0.946   6.215   6.017 -0.8098  0.5129  0.8100
 2275SOL     OW10226   0.500   4.412   1.528 -0.7487  0.0322  0.2507
 2275SOL    HW110227   0.428   4.373   1.578 -0.9858  0.5054  0.2872
 2275SOL    HW210228   0.477   4.396   1.437  0.1111 -1.5879  0.2911
 2276SOL     OW10229   5.171   5.758   9.055 -0.1084 -0.4072  0.3174
 2276SOL    HW110230   5.200   5.688   8.997 -1.1684 -1.0000  0.4780
 2276SOL    HW210231   5.185   5.723   9.143  0.5638  0.1021  0.4237
 2277SOL     OW10232   3.119   5.317   1.860 -0.3767  0.4485 -0.0542
 2277SOL    HW110233   3.037   5.319   1.811 -1.8160 -5.1216  1.4777
 2277SOL    HW210234   3.187   5.320   1.793 -2.0224 -0.0735 -1.8346
 2278SOL     OW10235   9.396  10.827   9.191 -0.0949 -0.5767 -0.2788
 2278SOL    HW110236   9.401  10.781   9.108  1.1893  0.8856 -1.0562
 2278SOL    HW210237   9.455  10.901   9.182  1.8015 -1.5434  2.7303
 2279SOL     OW10238   2.745   1.902   8.882 -0.1279  0.2516 -0.4287
 2279SOL    HW110239   2.822   1.912   8.938 -0.1715 -0.7451 -0.1724
 2279SOL    HW210240   2.680   1.961   8.921 -0.5062 -1.1840  1.2351
 2280SOL     OW10241   8.829   7.071   8.887  0.0554 -0.4127  0.1098
 2280SOL    HW110242   8.795   7.107   8.805  0.3667  0.3142  0.2825
 2280SOL    HW210243   8.920   7.050   8.868 -0.3943 -2.1001 -0.2782
 2281SOL     OW10244  10.760   7.135   2.603  0.1111 -0.0929  0.8638
 2281SOL    HW110245  10.798   7.084   2.533 -0.0855  0.6200  0.2194
 2281SOL    HW210246  10.708   7.072   2.654  0.6907 -0.7133  0.6946
 2282SOL     OW10247   1.344   7.061   3.827  0.7126 -0.3697  0.0024
 2282SOL    HW110248   1.275   7.069   3.893  0.9788  0.0215  0.2352
 2282SOL    HW210249   1.423   7.045   3.877  0.8403 -0.5386 -0.2517
 2283SOL     OW10250   2.034   4.965  10.323 -0.7016 -0.1771  0.6951
 2283SOL    HW110251   2.088   5.044  10.328 -2.1900  1.0100 -0.6475
 2283SOL    HW210252   2.010   4.960  10.230 -1.8567 -1.3657  1.0443
 2284SOL     OW10253   9.371   4.048   9.403  0.5165 -0.3775  0.3297
 2284SOL    HW110254   9.394   3.973   9.349 -0.1240  0.3891 -1.0491
 2284SOL    HW210255   9.292   4.021   9.450  0.5775 -0.7382  0.2246
 2285SOL     OW10256   0.693   7.235  10.431 -0.4466  0.2720  0.3480
 2285SOL    HW110257   0.759   7.197  10.373 -1.3650  0.6094 -0.9900
 2285SOL    HW210258   0.611   7.193  10.405 -1.7126  3.6461 -1.8974
 2286SOL     OW10259   3.394   8.534   4.932 -0.5370 -0.2062  0.0051
 2286SOL    HW110260   3.308   8.492   4.937 -0.0184 -1.7480 -2.3410
 2286SOL    HW210261   3.438   8.490   4.860  1.7026  1.5494  0.1824
 2287SOL     OW10262   8.077   0.585   8.868  0.1848 -0.0592 -0.2542
 2287SOL    HW110263   8.042   0.496   8.875  0.2901 -0.1065 -0.3318
 2287SOL    HW210264   8.005   0.635   8.828  0.9362 -0.6160 -2.4908
 2288SOL     OW10265   8.370   6.345   6.315  0.2262 -0.1706  0.5033
 2288SOL    HW110266   8.378   6.315   6.225  2.8651 -1.4204  1.0505
 2288SOL    HW210267   8.337   6.268   6.363 -1.4675  0.5772  0.6140
 2289SOL     OW10268   4.242   4.906   1.528 -0.5729  0.3087  0.2433
 2289SOL    HW110269   4.193   4.890   1.609  0.8237 -0.1719  1.0241
 2289SOL    HW210270   4.198   4.851   1.462 -0.8361 -0.4422  1.0231
 2290SOL     OW10271   0.073   3.419   2.997 -0.0358 -0.1226  0.0253
 2290SOL    HW110272   0.104   3.509   2.993 -1.0218  0.2741  0.8238
 2290SOL    HW210273  -0.023   3.427   2.997 -0.1332 -1.1600  0.2284
 2291SOL     OW10274   2.341   8.900   0.003  0.0625 -0.2663 -0.1003
 2291SOL    HW110275   2.271   8.891  -0.063  0.8565  0.5863 -1.1005
 2291SOL    HW210276   2.379   8.812   0.009  0.1695 -0.3005 -1.0245
 2292SOL     OW10277   5.368  10.296   3.303  0.4895 -0.1498 -0.7451
 2292SOL    HW110278   5.396  10.246   3.227  1.5866 -0.8956  0.1096
 2292SOL    HW210279   5.274  10.312   3.288  0.3723 -1.4612 -1.6050
 2293SOL     OW10280   6.291   3.525   0.943  0.1042 -0.2664  0.0796
 2293SOL    HW110281   6.228   3.523   0.871  2.4813  0.2574 -2.1552
 2293SOL    HW210282   6.297   3.617   0.967  0.8977 -0.1435 -0.5662
 2294SOL     OW10283   4.582   2.451   2.819  0.6387  0.0546  0.3204
 2294SOL    HW110284   4.508   2.495   2.776  1.9966  2.8315  0.5774
 2294SOL    HW210285   4.625   2.520   2.869  3.1569 -1.5325  0.5323
 2295SOL     OW10286   3.490   5.985  10.760  0.4903 -0.5851  0.3291
 2295SOL    HW110287   3.538   6.059  10.797  1.4669 -1.1505  0.2179
 2295SOL    HW210288   3.523   5.909  10.807 -0.5939 -0.9473  0.5294
 2296SOL     OW10289   2.334  10.719   0.130 -0.4053  0.0123 -0.6432
 2296SOL    HW110290   2.280  10.746   0.204  0.3683  2.2315 -0.8119
 2296SOL    HW210291   2.353  10.627   0.147 -0.9942  0.2208  1.4626
 2297SOL     OW10292   8.978   9.965   8.035 -0.2345  0.1787 -0.4552
 2297SOL    HW110293   8.890   9.970   8.071  0.3892 -1.0142  1.4315
 2297SOL    HW210294   9.016  10.051   8.053  0.0924 -0.4011  2.0748
 2298SOL     OW10295   0.644   3.092   0.674  0.4002 -0.1535 -0.4351
 2298SOL    HW110296   0.690   3.132   0.748  1.9367 -2.3594 -0.1103
 2298SOL    HW210297   0.711   3.041   0.629 -0.5928  0.7553 -3.1479
 2299SOL     OW10298   0.758   6.390   0.721 -0.6310 -0.4267  0.2602
 2299SOL    HW110299   0.752   6.457   0.652 -3.5437 -1.0807 -0.2484
 2299SOL    HW210300   0.744   6.438   0.802  2.7574  0.3388  0.5613
 2300SOL     OW10301   6.820   3.756   5.062  0.3974  0.4077  0.0375
 2300SOL    HW110302   6.726   3.770   5.070  0.1024 -1.4152  0.2356
 2300SOL    HW210303   6.838   3.767   4.968  0.0778  1.1755  0.0613
 2301SOL     OW10304   9.085   6.519   6.655 -0.0292  0.0119  0.5583
 2301SOL    HW110305   9.173   6.537   6.621 -0.5858  1.1188 -0.3317
 2301SOL    HW210306   9.036   6.487   6.579 -1.6475  3.6990 -0.1520
 2302SOL     OW10307   2.971   3.869   0.178 -0.0860 -0.8305  0.6847
 2302SOL    HW110308   2.909   3.925   0.131 -0.4387 -2.5722 -1.0455
 2302SOL    HW210309   2.966   3.899   0.269 -1.9535  0.4056  0.2265
 2303SOL     OW10310   1.598   4.197   6.094  0.2637 -0.2540 -0.8982
 2303SOL    HW110311   1.694   4.192   6.089  0.2614 -0.2415 -0.9490
 2303SOL    HW210312   1.579   4.291   6.091  0.4341 -0.0089  2.1121
 2304SOL     OW10313   4.359   8.405   4.244 -0.2490  0.4450  0.4965
 2304SOL    HW110314   4.420   8.441   4.308 -1.4314  0.1419  1.8310
 2304SOL    HW210315   4.393   8.317   4.227 -0.2019  0.3484  1.0773
 2305SOL     OW10316   1.676   4.191   7.444  0.4676  0.1223  0.2295
 2305SOL    HW110317   1.648   4.106   7.409  2.0312 -0.8244  1.1362
 2305SOL    HW210318   1.635   4.195   7.531  1.3436 -0.2620  0.6669
 2306SOL     OW10319   5.798   5.841   9.228  0.1904 -0.0842  0.4520
 2306SOL    HW110320   5.784   5.933   9.206 -0.9503 -0.2512  0.4505
 2306SOL    HW210321   5.892   5.835   9.246  0.5673  0.7484 -1.0589
 2307SOL     OW10322   6.111   4.466   7.728 -0.2696  0.1709 -0.0678
 2307SOL    HW110323   6.028   4.468   7.680 -1.3840  0.9204  1.7797
 2307SOL    HW210324   6.128   4.558   7.750  0.5190 -0.0818  0.4302
 2308SOL     OW10325   1.412   7.178   8.674 -0.2893 -0.0391  0.7241
 2308SOL    HW110326   1.443   7.173   8.583  1.3117 -0.0340  1.2340
 2308SOL    HW210327   1.317   7.172   8.667 -0.2526  0.7343 -1.0110
 2309SOL     OW10328   5.471  10.639   1.029 -0.2702  0.6745  0.2392
 2309SOL    HW110329   5.409  10.646   0.957  0.7822  1.5864 -0.6310
 2309SOL    HW210330   5.501  10.729   1.043  0.1595  0.3884  1.2625
 2310SOL     OW10331  10.172   3.012   1.856 -0.3681 -0.3327 -0.1124
 2310SOL    HW110332  10.205   2.928   1.889 -0.9397 -1.4407 -2.1453
 2310SOL    HW210333  10.238   3.040   1.793 -1.0529 -0.2202 -0.7951
 2311SOL     OW10334   2.042   6.223   8.066 -0.3025  0.5104  0.2138
 2311SOL    HW110335   1.975   6.261   8.123  0.0513  0.8817  0.3908
 2311SOL    HW210336   2.077   6.297   8.017  0.7351  0.5074  0.9115
 2312SOL     OW10337   9.641   3.010   5.852 -0.5570 -0.7203 -0.1971
 2312SOL    HW110338   9.674   3.071   5.787  1.8327 -2.8751 -1.1786
 2312SOL    HW210339   9.646   2.924   5.810 -1.7187 -1.8891  1.8474
 2313SOL     OW10340   3.822   5.640   7.124  0.1753  0.0729 -0.4864
 2313SOL    HW110341   3.791   5.709   7.064 -2.9021 -0.5034  0.2733
 2313SOL    HW210342   3.796   5.671   7.211  1.9483 -0.4634  0.2778
 2314SOL     OW10343   7.210   4.081   5.050 -0.5961 -0.0861  0.0768
 2314SOL    HW110344   7.168   3.996   5.059  0.5526 -0.9021 -1.8065
 2314SOL    HW210345   7.303   4.062   5.047 -0.3801  1.0293 -2.0973
 2315SOL     OW10346  10.411   8.023   1.789 -0.0999  0.2190 -0.9479
 2315SOL    HW110347  10.437   8.081   1.718 -2.0251  1.4242 -0.7292
 2315SOL    HW210348  10.489   7.970   1.807  0.7282  0.5792 -3.2462
 2316SOL     OW10349   8.749   4.087   3.773 -0.3111  0.0730 -0.2906
 2316SOL    HW110350   8.716   4.037   3.848 -0.6198  0.2073 -0.3373
 2316SOL    HW210351   8.678   4.147   3.751  0.6586  1.6926  0.8087
 2317SOL     OW10352   3.665   3.150   2.260 -0.4876 -0.1404 -0.2151
 2317SOL    HW110353   3.601   3.156   2.188 -0.1998 -2.9392 -0.8206
 2317SOL    HW210354   3.744   3.189   2.224 -0.3565 -1.4690 -1.4772
 2318SOL     OW10355  10.917  10.275   2.277 -0.4278  0.3767 -0.3931
 2318SOL    HW110356  10.858  10.351   2.284 -0.5688  0.2256  0.1457
 2318SOL    HW210357  10.872  10.206   2.326  0.1390  0.2237 -0.0881
 2319SOL     OW10358   7.422   8.034   9.910 -0.2103  0.4622  0.0414
 2319SOL    HW110359   7.381   8.061   9.827 -0.4342  1.0112  0.3236
 2319SOL    HW210360   7.514   8.019   9.887 -0.7771 -2.2420 -0.9352
 2320SOL     OW10361   2.028   5.768   1.169 -0.6976 -0.1457 -0.5399
 2320SOL    HW110362   2.044   5.735   1.257  0.3475  0.1064 -0.6254
 2320SOL    HW210363   1.954   5.828   1.179 -0.1652  0.3863  0.2819
 2321SOL     OW10364   0.056   7.204   8.971  0.6948 -0.0171 -0.0012
 2321SOL    HW110365  -0.018   7.146   8.990  0.2453  1.1214  2.0593
 2321SOL    HW210366   0.080   7.184   8.881 -1.5041 -1.1051 -0.4163
 2322SOL     OW10367   6.362   2.399   2.999 -0.0232 -0.4029  0.0940
 2322SOL    HW110368   6.323   2.459   3.063  0.2653 -0.4788  0.3449
 2322SOL    HW210369   6.457   2.409   3.012  0.0636  0.2189 -0.9109
 2323SOL     OW10370   0.575   7.055   7.350 -0.2368  0.4714 -0.2881
 2323SOL    HW110371   0.526   7.092   7.424 -0.0349 -0.0860  0.1330
 2323SOL    HW210372   0.656   7.106   7.348 -0.3372  0.6326 -0.2579
 2324SOL     OW10373   6.301   6.747   1.068  0.2089  0.2169 -0.0712
 2324SOL    HW110374   6.251   6.806   1.126 -0.6685 -0.5302 -0.0410
 2324SOL    HW210375   6.241   6.674   1.052  0.8032 -0.0400 -1.1639
 2325SOL     OW10376   0.159   4.063   5.724 -0.2190  0.2093 -0.1021
 2325SOL    HW110377   0.105   4.083   5.647 -0.4251  1.4186  0.3339
 2325SOL    HW210378   0.226   4.131   5.724  0.6025 -0.5854  0.0426
 2326SOL     OW10379   7.000   6.059   4.703  0.1782  0.2281 -0.2614
 2326SOL    HW110380   7.031   5.997   4.636  0.3188 -0.3578  0.3295
 2326SOL    HW210381   6.924   6.016   4.741  1.6438 -0.7265  1.7809
 2327SOL     OW10382   1.404   5.518  10.039  0.0459  0.3206  0.7591
 2327SOL    HW110383   1.422   5.442  10.093  1.0006  0.2222  0.3124
 2327SOL    HW210384   1.315   5.545  10.064  0.9562  1.1503  3.4157
 2328SOL     OW10385   5.330   8.771   5.633  0.1873 -0.0174 -0.2641
 2328SOL    HW110386   5.419   8.804   5.647 -0.1820  0.3154  1.5671
 2328SOL    HW210387   5.288   8.837   5.578  0.4464  0.9238  0.6372
 2329SOL     OW10388   8.039   8.361  10.302  0.8607 -0.4532 -0.4912
 2329SOL    HW110389   8.044   8.291  10.237 -0.0508 -0.1966 -0.8557
 2329SOL    HW210390   7.999   8.434  10.255  1.8146  0.3250 -0.1168
 2330SOL     OW10391   1.175   7.164   5.678 -0.4020 -0.2076  0.0287
 2330SOL    HW110392   1.244   7.116   5.723  0.2452  1.9685  1.5684
 2330SOL    HW210393   1.099   7.106   5.681  0.3392 -1.1636  1.7491
 2331SOL     OW10394   6.843   4.006   2.884 -0.3041  0.3885  0.4533
 2331SOL    HW110395   6.768   3.962   2.924  0.0169 -0.2579  0.3620
 2331SOL    HW210396   6.844   3.975   2.794 -0.7838  1.5303  0.0291
 2332SOL     OW10397   9.363   8.795   7.489 -0.3144  0.6816  0.0877
 2332SOL    HW110398   9.325   8.720   7.535 -0.6295  0.8431  0.0947
 2332SOL    HW210399   9.370   8.766   7.398 -1.1870  0.9127 -0.0679
 2333SOL     OW10400  10.301   8.352   0.767 -0.2820 -0.3896 -0.5079
 2333SOL    HW110401  10.301   8.436   0.813  1.4967 -0.2300 -0.7061
 2333SOL    HW210402  10.394   8.328   0.762 -0.5085 -1.0584 -2.7962
 2334SOL     OW10403   5.246   7.918   4.227 -0.3409 -0.1378 -0.6570
 2334SOL    HW110404   5.213   8.007   4.235 -0.8465 -0.4049  0.3771
 2334SOL    HW210405   5.340   7.928   4.210 -0.5670  0.5969 -1.5011
 2335SOL     OW10406  10.734   4.090   1.508  0.1115  0.6025  0.2198
 2335SOL    HW110407  10.717   4.085   1.414  1.8771 -1.4471 -0.0879
 2335SOL    HW210408  10.817   4.043   1.519  0.7489  2.1170  2.6203
 2336SOL     OW10409   0.814   1.459   9.149  0.1645 -0.1066 -0.0990
 2336SOL    HW110410   0.738   1.517   9.150  0.9714  1.0138 -1.2025
 2336SOL    HW210411   0.877   1.503   9.207 -0.2920 -1.4648  1.5087
 2337SOL     OW10412  10.451   2.016   4.853  0.5406  0.2002  0.4311
 2337SOL    HW110413  10.484   1.948   4.912 -2.0393 -1.5601  0.0281
 2337SOL    HW210414  10.485   1.991   4.767 -1.6764 -1.6889 -0.0092
 2338SOL     OW10415   8.240   6.407   9.048 -0.0612  0.8535 -0.5880
 2338SOL    HW110416   8.239   6.501   9.032 -2.5222  1.2761  1.4312
 2338SOL    HW210417   8.230   6.368   8.961  0.8741  2.4166 -1.4440
 2339SOL     OW10418   3.953   5.403   5.017 -0.1819  0.1513 -0.0231
 2339SOL    HW110419   3.912   5.471   5.069 -0.4760  0.7669 -1.0288
 2339SOL    HW210420   3.893   5.389   4.943 -0.7822 -2.1297  0.8107
 2340SOL     OW10421   4.248   7.385  10.538  0.4222 -0.1939  0.4676
 2340SOL    HW110422   4.273   7.342  10.457  1.5367 -1.2626  1.3498
 2340SOL    HW210423   4.156   7.361  10.552  0.2266  0.0009 -0.4537
 2341SOL     OW10424   1.096   3.258   3.345 -0.0610  0.3798  0.2719
 2341SOL    HW110425   1.095   3.263   3.440 -0.3557  0.9726  0.2390
 2341SOL    HW210426   1.024   3.314   3.316 -0.5942 -0.5491 -0.2728
 2342SOL     OW10427   1.808   9.007   7.763  0.4798 -0.3086 -0.1341
 2342SOL    HW110428   1.756   9.004   7.843  1.1730  3.2912  0.6274
 2342SOL    HW210429   1.896   9.029   7.792  0.3759  3.0588 -1.8342
 2343SOL     OW10430   8.015   3.908   7.082 -0.0971 -0.2262  0.5737
 2343SOL    HW110431   7.998   3.857   7.003 -2.2973  0.4185  0.5702
 2343SOL    HW210432   8.002   3.845   7.153 -0.3289 -0.2647  0.4979
 2344SOL     OW10433   9.626   2.977   6.352 -0.0162 -0.2014 -0.0948
 2344SOL    HW110434   9.609   3.009   6.263 -0.2625 -0.2839 -0.0788
 2344SOL    HW210435   9.716   2.946   6.349 -0.2484 -0.8662 -0.5249
 2345SOL     OW10436   3.267   1.681   3.040  0.7320 -0.6364  0.4451
 2345SOL    HW110437   3.283   1.623   3.115 -0.2335 -1.6663 -0.1063
 2345SOL    HW210438   3.324   1.756   3.055  1.1413 -1.1838  1.8055
 2346SOL     OW10439   1.664   4.780   6.372  0.3784 -0.1137  0.4792
 2346SOL    HW110440   1.627   4.749   6.455 -0.9083  0.2033  0.0491
 2346SOL    HW210441   1.655   4.875   6.375 -0.5957 -0.1616 -0.4243
 2347SOL     OW10442   8.820   1.725   5.284  0.2294  0.0675  0.0569
 2347SOL    HW110443   8.780   1.761   5.205  0.1341  0.4542  0.2801
 2347SOL    HW210444   8.746   1.687   5.332  0.3346 -0.4685 -0.1974
 2348SOL     OW10445   4.288   0.209   4.683 -0.2522  0.0736  0.1665
 2348SOL    HW110446   4.362   0.193   4.741  0.3280  1.1525 -0.2437
 2348SOL    HW210447   4.325   0.205   4.595 -1.0774 -1.3268 -0.1373
 2349SOL     OW10448   8.811   9.504   8.939 -0.0042  0.0527  0.0150
 2349SOL    HW110449   8.720   9.487   8.961 -0.0006  0.9908  0.8338
 2349SOL    HW210450   8.857   9.423   8.959 -0.4370  0.0393  0.9625
 2350SOL     OW10451   1.996   8.231   6.295  0.2075  0.0647 -0.0180
 2350SOL    HW110452   2.017   8.324   6.303  2.3441 -0.3028 -0.8038
 2350SOL    HW210453   1.953   8.223   6.210 -2.7085  0.6830  1.2374
 2351SOL     OW10454  10.809   5.213   9.828 -0.1549  0.0086  0.2562
 2351SOL    HW110455  10.800   5.198   9.734  0.0848 -0.5182  0.3169
 2351SOL    HW210456  10.898   5.186   9.848 -0.0465  0.5744  0.5534
 2352SOL     OW10457   3.765   6.514   8.362 -0.2357  0.4727  0.0678
 2352SOL    HW110458   3.749   6.464   8.282  0.0575  0.3003  0.1144
 2352SOL    HW210459   3.778   6.448   8.430  0.2284  0.6069  0.1156
 2353SOL     OW10460   0.904   0.096   1.480 -0.1098 -0.7437 -0.0852
 2353SOL    HW110461   0.913   0.009   1.518  3.0155 -0.6373 -0.2479
 2353SOL    HW210462   0.914   0.155   1.555 -1.0283 -0.5078 -0.1406
 2354SOL     OW10463   6.284  10.488   6.810 -0.0211  0.3746 -0.2418
 2354SOL    HW110464   6.260  10.516   6.722 -1.1131 -1.4534 -0.5825
 2354SOL    HW210465   6.362  10.433   6.798  0.5402  1.0765  0.0973
 2355SOL     OW10466  10.880   5.573   6.175 -0.0428  0.5134  0.0263
 2355SOL    HW110467  10.950   5.589   6.112 -1.5674 -0.2048 -1.9835
 2355SOL    HW210468  10.922   5.527   6.247  1.1393 -2.7653 -2.4907
 2356SOL     OW10469   0.344   8.093   3.937 -0.0681  0.5409  0.3351
 2356SOL    HW110470   0.262   8.069   3.979  0.8318  0.3394  2.1075
 2356SOL    HW210471   0.411   8.073   4.003  1.3718  1.0021 -0.9238
 2357SOL     OW10472   7.480   5.418   8.856  0.6295 -0.4203  1.0762
 2357SOL    HW110473   7.387   5.419   8.830  0.9484  0.4684 -0.1753
 2357SOL    HW210474   7.479   5.405   8.950 -0.7808 -0.4368  1.0772
 2358SOL     OW10475   6.733   5.105   1.455 -0.4094  0.0678  0.0921
 2358SOL    HW110476   6.752   5.198   1.441  0.6281 -0.3920 -1.9030
 2358SOL    HW210477   6.803   5.075   1.513  0.4556  0.1067 -0.9066
 2359SOL     OW10478   0.962  10.518   7.670 -0.9012 -0.0844 -0.3434
 2359SOL    HW110479   0.923  10.447   7.620  0.8886 -0.0851 -1.8450
 2359SOL    HW210480   1.052  10.522   7.639 -0.5200  1.8029  0.8708
 2360SOL     OW10481   2.559   7.978   5.849  0.5872  0.3283 -0.6279
 2360SOL    HW110482   2.602   7.976   5.935 -0.5439  1.4510  0.0007
 2360SOL    HW210483   2.630   7.988   5.786  1.3289  0.9477  0.2895
 2361SOL     OW10484   3.101  10.143   6.105  0.0948  0.1069 -0.0954
 2361SOL    HW110485   3.177  10.166   6.051 -0.2403  0.5024 -0.4034
 2361SOL    HW210486   3.137  10.087   6.174  0.2340 -2.2184 -1.9161
 2362SOL     OW10487   3.690   1.078   5.796  0.1133 -0.5038  0.8936
 2362SOL    HW110488   3.718   1.012   5.860 -0.1798 -1.2560  0.2607
 2362SOL    HW210489   3.770   1.127   5.776  0.5307 -1.2372  0.7148
 2363SOL     OW10490  10.156   9.684   6.435 -0.1031  0.3611 -0.2967
 2363SOL    HW110491  10.224   9.752   6.430  0.0412  0.1948 -0.5972
 2363SOL    HW210492  10.149   9.650   6.346 -1.0069  0.7891 -0.4043
 2364SOL     OW10493   0.818   1.242   4.203 -0.2953 -0.5756 -0.0783
 2364SOL    HW110494   0.723   1.253   4.206 -0.1803  0.8512 -0.9419
 2364SOL    HW210495   0.847   1.270   4.290 -0.4588  1.5605 -0.6697
 2365SOL     OW10496   4.531   3.408   8.331  0.6648  0.1113 -0.0707
 2365SOL    HW110497   4.525   3.313   8.324 -2.4775  0.2573 -0.9888
 2365SOL    HW210498   4.471   3.431   8.402  0.5001  1.4642 -0.6116
 2366SOL     OW10499   2.698   6.108   5.339  0.3326  0.0052 -0.2348
 2366SOL    HW110500   2.608   6.078   5.354  0.7672 -0.3912  1.8802
 2366SOL    HW210501   2.707   6.110   5.244 -1.4067 -1.4756 -0.4865
 2367SOL     OW10502   0.264   9.215   8.645 -0.0116 -0.1570 -0.2989
 2367SOL    HW110503   0.257   9.222   8.741  2.2807  0.3042 -0.1057
 2367SOL    HW210504   0.211   9.288   8.612  0.6205  0.7944  0.7099
 2368SOL     OW10505   9.385   8.726   5.656  0.0904 -0.5867 -0.3888
 2368SOL    HW110506   9.427   8.661   5.599  0.9030  0.3921 -0.9371
 2368SOL    HW210507   9.439   8.726   5.736 -0.2477 -0.9904 -0.1588
 2369SOL     OW10508   6.018   0.027   9.107 -0.2583  0.1354  0.3737
 2369SOL    HW110509   6.015  -0.069   9.100 -1.8320  0.1939 -0.0665
 2369SOL    HW210510   6.105   0.045   9.142  0.0805 -1.4537  0.4469
 2370SOL     OW10511  10.202   0.600   4.181 -0.2594  0.0899  0.8145
 2370SOL    HW110512  10.147   0.667   4.141  0.4679  0.3566  0.2171
 2370SOL    HW210513  10.176   0.598   4.273 -2.2380 -0.7922  0.2844
 2371SOL     OW10514   9.349   1.063   0.373 -0.1141  0.0997  0.2651
 2371SOL    HW110515   9.406   1.051   0.450  1.2213 -1.2135 -0.8520
 2371SOL    HW210516   9.389   1.135   0.325 -0.0141 -0.1312  0.0037
 2372SOL     OW10517   6.870  10.259   3.715  0.3902  0.2524 -0.1378
 2372SOL    HW110518   6.900  10.293   3.631  0.5679 -1.6933 -0.9107
 2372SOL    HW210519   6.788  10.214   3.695 -0.0343  0.5411  0.9042
 2373SOL     OW10520   7.576   1.524   4.125 -0.4134 -0.1413 -0.2268
 2373SOL    HW110521   7.605   1.434   4.108 -0.2069 -0.2611  0.6605
 2373SOL    HW210522   7.638   1.556   4.191 -0.8106  0.4668 -0.1463
 2374SOL     OW10523   4.505   0.610   2.123 -0.3649 -0.0080 -0.3628
 2374SOL    HW110524   4.425   0.567   2.094  1.6175 -2.5268 -2.6663
 2374SOL    HW210525   4.513   0.687   2.066 -0.7107 -0.2498 -0.7468
 2375SOL     OW10526   2.282   9.512   0.205  0.1540 -0.5030 -0.4416
 2375SOL    HW110527   2.210   9.477   0.152  0.7350  0.2000 -1.7653
 2375SOL    HW210528   2.298   9.446   0.271 -1.7058 -0.6773 -0.1112
 2376SOL     OW10529   5.570   4.967   3.437  0.2065  0.3551  0.6606
 2376SOL    HW110530   5.571   4.949   3.531 -0.6249  1.2888  0.8662
 2376SOL    HW210531   5.583   5.062   3.430  0.1525  0.3136 -0.1694
 2377SOL     OW10532   6.553   7.844   2.752 -0.3544  0.1184 -0.0857
 2377SOL    HW110533   6.499   7.799   2.688  0.6069 -1.9988  0.5062
 2377SOL    HW210534   6.536   7.799   2.834  1.0402  0.4754  0.4356
 2378SOL     OW10535   2.861   1.661   0.745  0.3209  0.9828  0.3606
 2378SOL    HW110536   2.774   1.623   0.758  0.4435  0.1379 -1.0246
 2378SOL    HW210537   2.859   1.692   0.654  1.4557  0.9708  0.3269
 2379SOL     OW10538   8.699   5.007   3.518  0.6535 -0.3947  0.1491
 2379SOL    HW110539   8.625   5.058   3.485 -0.1317 -0.5912  1.5335
 2379SOL    HW210540   8.715   5.041   3.606  1.8678 -0.7338  0.0877
 2380SOL     OW10541   7.587   2.485   9.111 -0.6197 -0.3396  0.9752
 2380SOL    HW110542   7.670   2.463   9.070 -0.2407  1.5069  0.6475
 2380SOL    HW210543   7.526   2.495   9.037 -0.8815 -0.7337  1.1388
 2381SOL     OW10544   0.385   1.939   6.734 -0.3032 -0.4450  0.6701
 2381SOL    HW110545   0.377   1.938   6.829 -0.5262 -2.2584  0.6639
 2381SOL    HW210546   0.295   1.945   6.702 -0.5009 -2.6648  0.6218
 2382SOL     OW10547   5.644   0.757   7.270  0.7245 -0.0787 -0.3158
 2382SOL    HW110548   5.713   0.815   7.237 -0.4982  2.2477  0.9564
 2382SOL    HW210549   5.589   0.740   7.194  1.2287  0.2496 -0.7603
 2383SOL     OW10550   9.716   2.514   6.416  0.6460 -0.5077  0.1843
 2383SOL    HW110551   9.627   2.515   6.451  1.0242 -0.3275  1.1836
 2383SOL    HW210552   9.706   2.530   6.323 -0.2950  0.5858  0.4576
 2384SOL     OW10553   1.566  10.244   9.973  0.0588 -0.3404  0.5532
 2384SOL    HW110554   1.640  10.196  10.009  0.1950 -1.7345 -1.4190
 2384SOL    HW210555   1.489  10.193  10.001 -0.0598  0.2605  1.3429
 2385SOL     OW10556   8.985   2.179   7.121  0.3654 -0.7858  0.2379
 2385SOL    HW110557   9.023   2.095   7.096 -0.4802 -1.1653  0.2290
 2385SOL    HW210558   8.906   2.157   7.170  0.2900 -0.0024  0.4815
 2386SOL     OW10559   7.437   8.395   8.802 -0.0842  0.4462  0.2253
 2386SOL    HW110560   7.380   8.443   8.743  0.6957  1.5266  0.3184
 2386SOL    HW210561   7.378   8.340   8.853 -0.6641 -1.9545 -2.7516
 2387SOL     OW10562   6.227   1.671   9.141  0.0136  0.1850 -0.1882
 2387SOL    HW110563   6.248   1.720   9.062  2.0974  1.1141  0.8723
 2387SOL    HW210564   6.301   1.611   9.152 -1.2652 -1.4453 -0.0616
 2388SOL     OW10565   8.458   8.055   4.009 -0.2282  0.3588  0.3551
 2388SOL    HW110566   8.544   8.013   4.017  0.1017  0.8203 -0.6098
 2388SOL    HW210567   8.471   8.141   4.049  0.2206  1.0364 -1.2070
 2389SOL     OW10568   0.704   8.363   8.203 -0.4662 -0.0459  0.4283
 2389SOL    HW110569   0.619   8.379   8.243  0.5302  2.6844  1.6674
 2389SOL    HW210570   0.767   8.393   8.269  1.4002 -0.2276 -1.2022
 2390SOL     OW10571  10.162   9.002   3.037 -0.1259 -0.2699  0.0302
 2390SOL    HW110572  10.109   8.971   3.110 -1.0691 -0.1932 -0.5983
 2390SOL    HW210573  10.143   8.940   2.966 -0.2917  0.4506 -0.5629
 2391SOL     OW10574   0.469   1.226   7.469 -0.0804  0.1772  0.5055
 2391SOL    HW110575   0.430   1.205   7.554 -2.4108  0.5081 -0.3865
 2391SOL    HW210576   0.464   1.144   7.419 -1.2771  0.6109 -0.1547
 2392SOL     OW10577  10.125  10.734   9.620  0.5095  0.8370 -0.0662
 2392SOL    HW110578  10.165  10.650   9.597 -0.2357 -0.1486  2.0397
 2392SOL    HW210579  10.075  10.716   9.700 -0.6662  3.0128 -0.2414
 2393SOL     OW10580   3.231   3.000   0.868  0.4449 -0.5480 -0.0907
 2393SOL    HW110581   3.262   3.055   0.941 -0.4046  0.5388 -0.5163
 2393SOL    HW210582   3.184   3.061   0.811 -0.2802 -1.6873 -0.7411
 2394SOL     OW10583   2.051   0.172   5.664 -0.0269 -0.0034  0.0608
 2394SOL    HW110584   2.100   0.118   5.727 -0.3924 -0.3026  0.0896
 2394SOL    HW210585   1.960   0.162   5.690  0.0366  2.6077  1.6411
 2395SOL     OW10586   8.403   9.574   0.778 -0.3112 -0.2371  0.5614
 2395SOL    HW110587   8.445   9.592   0.862  2.2413  0.8046 -0.8083
 2395SOL    HW210588   8.417   9.653   0.727  0.7990 -1.8302 -1.7766
 2396SOL     OW10589   8.744   6.202  10.032 -0.2418  0.3352 -0.5196
 2396SOL    HW110590   8.671   6.145  10.009  0.6342 -1.4908  0.9614
 2396SOL    HW210591   8.756   6.190  10.126  2.7031 -0.4081 -0.8751
 2397SOL     OW10592  10.460   0.577   0.797  0.1013  0.0791 -0.2059
 2397SOL    HW110593  10.510   0.497   0.814 -1.2757 -0.5202  1.3596
 2397SOL    HW210594  10.399   0.553   0.727 -0.6720 -0.4453  0.6233
 2398SOL     OW10595   5.458   0.333  10.067  0.0631  0.0477  0.1292
 2398SOL    HW110596   5.406   0.364   9.993  0.5262 -0.8499 -0.5967
 2398SOL    HW210597   5.533   0.289  10.027  1.5612  1.5680  1.1594
 2399SOL     OW10598   2.028  10.355   9.261 -0.1350 -0.0717 -0.2109
 2399SOL    HW110599   2.110  10.306   9.259  0.0143  0.1286 -2.7104
 2399SOL    HW210600   2.051  10.440   9.298  1.0090  0.2622 -1.6000
 2400SOL     OW10601   6.339   1.874   5.260  0.1419  0.2171 -0.2219
 2400SOL    HW110602   6.325   1.825   5.340  0.9158 -2.1314 -1.4216
 2400SOL    HW210603   6.312   1.814   5.190 -0.3980  2.1332 -1.7322
 2401SOL     OW10604   3.754   8.976   7.842 -0.1182 -0.1166 -0.1347
 2401SOL    HW110605   3.672   9.026   7.834 -0.4765 -0.6758 -0.0441
 2401SOL    HW210606   3.738   8.916   7.915  0.2447 -0.4732 -0.3429
 2402SOL     OW10607  10.059   4.775   5.084  0.3866  0.0708 -0.0392
 2402SOL    HW110608  10.101   4.693   5.058  0.4127 -0.2701  1.0223
 2402SOL    HW210609   9.993   4.749   5.148 -0.4874  0.7567 -0.6320
 2403SOL     OW10610   4.724   5.572   9.611 -0.4947  0.2100 -0.4415
 2403SOL    HW110611   4.735   5.477   9.605  0.2852  0.3477 -1.3056
 2403SOL    HW210612   4.703   5.588   9.703 -0.1768 -0.7520 -0.1973
 2404SOL     OW10613   5.691   5.242   1.616  0.3150  0.4066 -0.4510
 2404SOL    HW110614   5.770   5.278   1.656  0.8436 -0.9843 -0.1942
 2404SOL    HW210615   5.703   5.148   1.619 -1.1903  0.1760 -0.7738
 2405SOL     OW10616   1.539   9.256   6.338 -0.9146  0.7426 -0.1611
 2405SOL    HW110617   1.443   9.252   6.342 -0.8597 -0.6850  0.3575
 2405SOL    HW210618   1.562   9.334   6.389 -1.7672  0.5585  0.5327
 2406SOL     OW10619   3.154   7.925   3.821 -0.5190  0.9172  0.2519
 2406SOL    HW110620   3.152   8.020   3.815  0.8555  1.1386  2.2915
 2406SOL    HW210621   3.196   7.907   3.905 -2.1713 -1.4923  0.6636
 2407SOL     OW10622   9.147   0.894   6.580  0.0110  0.3173  0.5141
 2407SOL    HW110623   9.076   0.934   6.631 -0.6580 -0.0581 -0.0987
 2407SOL    HW210624   9.186   0.967   6.533 -1.3150  0.2851 -0.7317
 2408SOL     OW10625   2.324   1.241   4.850  0.0905 -0.0157  0.2210
 2408SOL    HW110626   2.298   1.283   4.768  0.0705  0.8624  0.6655
 2408SOL    HW210627   2.247   1.249   4.907 -0.9021 -2.9620 -0.4871
 2409SOL     OW10628   0.922   4.011   4.178  0.3232  0.0391  0.3540
 2409SOL    HW110629   0.935   4.084   4.118 -0.0766  1.4470  1.9330
 2409SOL    HW210630   1.009   3.969   4.184 -0.0079 -1.3617 -2.6216
 2410SOL     OW10631   3.948   5.844   1.806  0.4130  0.3374  0.2293
 2410SOL    HW110632   4.008   5.897   1.754 -0.8210 -0.8176 -2.5102
 2410SOL    HW210633   3.976   5.754   1.791 -0.3712 -0.0613  1.0779
 2411SOL     OW10634   5.040   1.085   2.641 -0.1661  0.2901 -0.2037
 2411SOL    HW110635   5.020   1.121   2.728 -1.8140 -1.6694  0.3161
 2411SOL    HW210636   4.956   1.052   2.609  0.7079 -0.3982 -1.9027
 2412SOL     OW10637   5.873   7.367   5.671 -0.4590 -0.0591 -0.1124
 2412SOL    HW110638   5.935   7.351   5.601 -0.1886 -0.3471  0.1871
 2412SOL    HW210639   5.843   7.280   5.698 -0.1947  0.0140  0.4461
 2413SOL     OW10640   4.201   7.569   8.964  0.6413  0.2298  0.3491
 2413SOL    HW110641   4.289   7.599   8.989  1.5172 -0.6235 -1.5179
 2413SOL    HW210642   4.142   7.637   8.997  2.0571  1.1266  1.1246
 2414SOL     OW10643   6.642  10.131   0.222  0.4025 -0.1200 -0.1052
 2414SOL    HW110644   6.711  10.065   0.229  1.1973  0.6076 -0.9644
 2414SOL    HW210645   6.642  10.174   0.308 -0.9323 -1.9688  0.9073
 2415SOL     OW10646   4.945   0.591   2.179  0.3853 -0.6174 -0.4486
 2415SOL    HW110647   5.001   0.520   2.213  0.1841 -1.4827 -1.8669
 2415SOL    HW210648   4.952   0.584   2.084  1.2451  1.9851 -0.6787
 2416SOL     OW10649   9.454   6.153   5.954 -0.2590 -0.5291 -0.4685
 2416SOL    HW110650   9.517   6.205   5.905 -0.4385 -0.3550 -0.5157
 2416SOL    HW210651   9.487   6.153   6.044 -1.0806  1.0045 -0.1267
 2417SOL     OW10652   7.023   3.597   5.957 -0.0501  0.3603  0.2879
 2417SOL    HW110653   6.935   3.597   5.995 -0.1295 -0.7326  0.1515
 2417SOL    HW210654   7.008   3.579   5.864  0.3016  0.4078  0.2209
 2418SOL     OW10655   1.080   3.493   6.559  0.1243 -0.2332  0.3200
 2418SOL    HW110656   1.018   3.506   6.631  0.2146 -1.2276  0.5945
 2418SOL    HW210657   1.138   3.423   6.590 -0.0485 -0.9176 -0.8535
 2419SOL     OW10658   2.992  10.102   1.340 -0.5762  0.2637 -0.1619
 2419SOL    HW110659   2.918  10.043   1.327 -0.4056  0.6139 -3.9283
 2419SOL    HW210660   2.956  10.177   1.386 -2.0371 -0.5023 -0.0077
 2420SOL     OW10661   9.167   0.169   6.785 -0.0909  0.0093 -0.1188
 2420SOL    HW110662   9.143   0.084   6.750 -1.7943 -0.5014  2.0662
 2420SOL    HW210663   9.213   0.150   6.867 -2.0011  1.1203  1.2904
 2421SOL     OW10664   1.097   7.611  10.050 -0.0097 -0.1524  0.0891
 2421SOL    HW110665   1.075   7.664   9.974  1.3494  0.2133 -0.0867
 2421SOL    HW210666   1.166   7.552  10.019  2.8604  2.0833  1.6957
 2422SOL     OW10667   0.225   7.230   0.755  0.0438  0.6045  0.2994
 2422SOL    HW110668   0.182   7.262   0.835  3.6441  0.8481  2.3378
 2422SOL    HW210669   0.224   7.135   0.764  1.1831  0.6514  1.1341
 2423SOL     OW10670   4.696   3.083   0.125  0.1394  0.1026 -0.5572
 2423SOL    HW110671   4.657   3.170   0.116 -0.8287 -0.2938 -0.3156
 2423SOL    HW210672   4.660   3.033   0.052  1.9109  0.3058 -1.6495
 2424SOL     OW10673   7.985   4.168   7.163 -0.0371  0.4159  0.3956
 2424SOL    HW110674   7.931   4.211   7.097  1.1202  1.9955  0.3889
 2424SOL    HW210675   7.993   4.078   7.134  1.4533  1.3315 -2.3625
 2425SOL     OW10676   4.311   7.649   8.528  0.3302 -0.1545 -0.1707
 2425SOL    HW110677   4.374   7.693   8.585 -0.2795 -0.1847  0.5358
 2425SOL    HW210678   4.251   7.605   8.588 -0.1009 -0.4981 -0.8455
 2426SOL     OW10679   1.841   2.449   3.645 -0.8595  0.5165  0.3340
 2426SOL    HW110680   1.774   2.426   3.709 -0.7685  0.4766  0.4150
 2426SOL    HW210681   1.852   2.369   3.592 -0.9704  0.5656  0.2376
 2427SOL     OW10682   6.205   5.228  10.112  0.3869  0.2373  0.1550
 2427SOL    HW110683   6.176   5.306  10.063  0.5856 -0.7004 -1.5281
 2427SOL    HW210684   6.142   5.160  10.089 -1.0570  0.3525  3.2637
 2428SOL     OW10685   0.150   6.051   2.915  0.3429  0.0995  0.7592
 2428SOL    HW110686   0.092   6.023   2.987  0.7959 -0.6588  0.8366
 2428SOL    HW210687   0.143   5.981   2.851  0.6422  0.3474  0.4588
 2429SOL     OW10688  10.634   4.688   3.495  0.7895  0.0302 -0.0357
 2429SOL    HW110689  10.600   4.775   3.477 -0.6750 -0.1634  1.5962
 2429SOL    HW210690  10.721   4.704   3.532  1.2236  0.6834 -1.2794
 2430SOL     OW10691   1.987   9.627   9.782  0.0744  0.2284  0.2836
 2430SOL    HW110692   2.002   9.720   9.792  1.3135  0.1383 -0.5731
 2430SOL    HW210693   1.892   9.616   9.796 -0.0207  1.5456  0.7377
 2431SOL     OW10694   9.318   9.538   5.557  0.0570 -0.5020 -0.4879
 2431SOL    HW110695   9.321   9.624   5.517  1.8098 -1.2777 -2.1770
 2431SOL    HW210696   9.267   9.484   5.496  0.0270 -0.9640 -0.0662
 2432SOL     OW10697   0.978   1.083   8.852 -0.0145 -0.1409  0.0343
 2432SOL    HW110698   1.054   1.124   8.810  1.3528 -0.7341  1.8194
 2432SOL    HW210699   0.927   1.156   8.887  0.4400  0.1999 -0.0105
 2433SOL     OW10700   4.555   9.670   8.982  0.3993 -0.2850 -0.3719
 2433SOL    HW110701   4.581   9.760   9.000  1.9204 -0.7375 -0.0731
 2433SOL    HW210702   4.566   9.625   9.066  0.2884 -0.8762 -0.6698
 2434SOL     OW10703   5.595  10.797  10.793 -0.0204 -0.1148  0.2301
 2434SOL    HW110704   5.618  10.848  10.870 -0.5031  1.8259 -0.8491
 2434SOL    HW210705   5.511  10.756  10.814 -2.2353  3.5677 -0.5393
 2435SOL     OW10706   6.656   1.918   4.335 -0.0601 -0.4609  0.0166
 2435SOL    HW110707   6.727   1.855   4.349  1.6304  1.4809  0.6884
 2435SOL    HW210708   6.671   1.953   4.248  0.9594  1.2231  0.8058
 2436SOL     OW10709   1.671   0.783   3.004  0.0381 -0.0457  0.3630
 2436SOL    HW110710   1.767   0.789   3.007  0.0632 -0.6790  2.2287
 2436SOL    HW210711   1.650   0.779   2.911  1.6333  2.6160 -0.2331
 2437SOL     OW10712  10.215   1.136   9.648  0.3195 -0.2870  0.6117
 2437SOL    HW110713  10.222   1.200   9.577  0.2650 -0.5861  0.3333
 2437SOL    HW210714  10.172   1.061   9.608  0.6338 -0.6055  0.8634
 2438SOL     OW10715   6.300   6.306   0.444  0.0308  0.1869  0.4083
 2438SOL    HW110716   6.346   6.341   0.369  0.6948 -0.6422  0.4158
 2438SOL    HW210717   6.258   6.226   0.412  1.6537 -1.0677  1.2813
 2439SOL     OW10718  10.620   4.353   7.033 -0.5579  0.5610 -0.0487
 2439SOL    HW110719  10.541   4.305   7.008 -1.4364  1.0805  1.5690
 2439SOL    HW210720  10.656   4.302   7.106 -0.2026  1.0954  0.1571
 2440SOL     OW10721   4.085   5.036   9.363  0.8583 -0.6311 -0.0542
 2440SOL    HW110722   4.030   4.962   9.336 -1.3205  0.8563 -0.0111
 2440SOL    HW210723   4.101   5.022   9.456 -0.2172 -0.6703  0.1369
 2441SOL     OW10724   2.408  10.289   6.010 -0.3009 -0.6269  0.0042
 2441SOL    HW110725   2.429  10.370   5.963 -1.1846 -0.7603 -0.6617
 2441SOL    HW210726   2.486  10.235   6.000  0.2520  0.0942  0.3479
 2442SOL     OW10727   2.055   8.420   0.813  0.8510 -0.0402 -0.3512
 2442SOL    HW110728   1.991   8.450   0.748  1.3703 -1.3434 -1.5064
 2442SOL    HW210729   2.014   8.439   0.897 -1.9454 -2.5420 -0.9949
 2443SOL     OW10730   3.905   0.286   7.480  0.1279 -0.3784  0.5704
 2443SOL    HW110731   3.851   0.221   7.437  1.4604 -1.3820  0.3359
 2443SOL    HW210732   3.914   0.255   7.570  2.3993 -1.6885 -0.0265
 2444SOL     OW10733   9.189   2.827   5.028 -0.0368 -0.3272  0.4916
 2444SOL    HW110734   9.191   2.843   4.934  1.5954 -1.0845  0.3709
 2444SOL    HW210735   9.159   2.910   5.066  1.0701  0.5818 -0.5680
 2445SOL     OW10736   1.164  10.299   0.259 -0.4085 -0.0913 -0.0982
 2445SOL    HW110737   1.069  10.297   0.246 -0.3961  1.3791 -0.5374
 2445SOL    HW210738   1.197  10.236   0.195 -1.0821 -0.6003  0.0423
 2446SOL     OW10739   6.931   9.260   7.087 -0.8548  0.5745  0.0020
 2446SOL    HW110740   6.872   9.214   7.027 -1.2096  0.9619  0.0493
 2446SOL    HW210741   6.960   9.337   7.037  1.6882 -0.9037 -1.0335
 2447SOL     OW10742   2.862   9.065   9.765 -0.6032  0.2529  0.1445
 2447SOL    HW110743   2.777   9.108   9.769 -0.9520 -0.5049  1.3251
 2447SOL    HW210744   2.864   9.025   9.679 -1.7200 -0.2574  0.3383
 2448SOL     OW10745   7.311   8.226   0.088  0.1273  0.5720  0.5928
 2448SOL    HW110746   7.288   8.284   0.161 -2.5022  0.5338 -0.1044
 2448SOL    HW210747   7.314   8.138   0.126 -0.6747  0.6221  0.7879
 2449SOL     OW10748   4.553   5.396   9.342  0.0261  0.5267 -0.7130
 2449SOL    HW110749   4.497   5.322   9.365  0.3270  0.7922  0.9892
 2449SOL    HW210750   4.547   5.401   9.247  1.3426 -2.7576 -1.1154
 2450SOL     OW10751  10.137   3.756   4.857 -0.3041  0.0735 -0.0555
 2450SOL    HW110752  10.143   3.710   4.941 -2.6641 -0.0422  0.1032
 2450SOL    HW210753  10.229   3.769   4.831  0.4942 -0.2890  2.2934
 2451SOL     OW10754   9.470   5.406   0.624  0.5482 -0.1304 -0.8186
 2451SOL    HW110755   9.462   5.479   0.562 -1.2565  0.8890  0.5014
 2451SOL    HW210756   9.561   5.376   0.614  0.0804 -0.8489 -4.7545
 2452SOL     OW10757   9.321   3.155   4.355  0.3677 -0.0433 -0.3400
 2452SOL    HW110758   9.414   3.133   4.367  0.2664 -1.5598 -1.9646
 2452SOL    HW210759   9.314   3.244   4.389  2.0279 -0.4960  1.4378
 2453SOL     OW10760   3.321   5.916   9.460 -0.2493 -0.3933 -0.6881
 2453SOL    HW110761   3.347   5.946   9.547  0.6420 -0.5160 -0.9043
 2453SOL    HW210762   3.273   5.990   9.423  0.8608  0.3064 -0.7495
 2454SOL     OW10763   0.118   4.019   4.243  0.4467 -0.7848 -0.2356
 2454SOL    HW110764   0.128   4.094   4.183 -0.3337 -0.7426 -0.3253
 2454SOL    HW210765   0.196   4.022   4.298  0.3409  0.2125 -0.1169
 2455SOL     OW10766   6.558  10.875   3.912  0.3588 -0.2664 -0.1302
 2455SOL    HW110767   6.646  10.887   3.875 -0.2810  0.7625 -1.3698
 2455SOL    HW210768   6.500  10.919   3.851 -1.1674 -1.8754  0.0857
 2456SOL     OW10769   4.490   4.569   8.917 -0.0081 -0.0000  0.1856
 2456SOL    HW110770   4.433   4.636   8.880 -0.1480  0.5507  1.3492
 2456SOL    HW210771   4.519   4.606   9.000  2.1943 -0.2025 -0.4407
 2457SOL     OW10772   0.012   2.008   8.368  0.0001 -0.4781  0.0983
 2457SOL    HW110773  -0.074   2.032   8.334  0.2699 -0.9566 -0.9877
 2457SOL    HW210774   0.009   1.912   8.373  1.3740 -0.7757 -2.6978
 2458SOL     OW10775   9.630   0.432   5.205 -0.0949 -0.7691 -0.1770
 2458SOL    HW110776   9.538   0.443   5.182 -0.1492 -0.8699 -0.0025
 2458SOL    HW210777   9.673   0.510   5.170 -0.3201 -0.4970  0.1521
 2459SOL     OW10778   6.116   6.112   4.516  0.7115  0.0892 -0.0949
 2459SOL    HW110779   6.028   6.107   4.553  0.3687 -0.1647 -0.9008
 2459SOL    HW210780   6.148   6.022   4.519  0.9648  0.1904  0.2441
 2460SOL     OW10781   5.073   4.765   0.874  0.4007  0.4511 -0.1200
 2460SOL    HW110782   5.120   4.843   0.845  0.0879  0.5563 -0.3537
 2460SOL    HW210783   5.086   4.763   0.969  1.2072  0.2516 -0.2348
 2461SOL     OW10784   0.768   5.307   8.720  0.3047  0.5730 -0.6539
 2461SOL    HW110785   0.763   5.227   8.774  1.5000  1.3029  0.6134
 2461SOL    HW210786   0.780   5.274   8.631 -0.6313 -0.6708 -0.3586
 2462SOL     OW10787   2.938   5.257   3.930  0.3777 -0.0804  0.4890
 2462SOL    HW110788   2.971   5.342   3.900  0.4308  0.0697  0.9658
 2462SOL    HW210789   2.973   5.247   4.018  0.3124 -0.5676  0.4659
 2463SOL     OW10790   9.236   0.603   5.708 -0.2958  0.4020 -0.0030
 2463SOL    HW110791   9.232   0.522   5.658 -0.0681  2.0747 -2.9753
 2463SOL    HW210792   9.185   0.666   5.656  0.8759  2.5687  1.3152
 2464SOL     OW10793   1.223  10.499   7.551  0.5693  0.2475 -0.7383
 2464SOL    HW110794   1.282  10.464   7.618 -3.3132 -0.3013  2.7698
 2464SOL    HW210795   1.189  10.422   7.506  1.0978  0.4534 -1.5169
 2465SOL     OW10796   6.615   2.572   9.563 -0.2579 -0.2417 -0.3304
 2465SOL    HW110797   6.708   2.581   9.582 -0.0325 -0.2394 -1.4218
 2465SOL    HW210798   6.610   2.552   9.470 -1.2077 -3.0788  0.2390
 2466SOL     OW10799   5.313   5.831   7.647  0.0875  0.2693 -0.3027
 2466SOL    HW110800   5.261   5.796   7.719 -1.4019  0.1035 -1.4177
 2466SOL    HW210801   5.362   5.756   7.614  1.4437  0.5133  1.0210
 2467SOL     OW10802   7.263   0.677   5.518  0.2168 -0.1484  0.2590
 2467SOL    HW110803   7.211   0.731   5.459 -0.4893 -1.5012 -0.4003
 2467SOL    HW210804   7.198   0.631   5.572  0.8388  1.5508  2.6055
 2468SOL     OW10805   3.626   8.482  10.405 -0.4924  0.0033  0.3035
 2468SOL    HW110806   3.683   8.542  10.356 -0.8942 -0.4267 -0.7091
 2468SOL    HW210807   3.658   8.488  10.496  0.1072  0.9930  0.0475
 2469SOL     OW10808   2.728   5.469   2.674 -0.3814  0.0626  0.4063
 2469SOL    HW110809   2.709   5.541   2.735  1.6726 -0.3882  1.7276
 2469SOL    HW210810   2.796   5.418   2.719 -0.3108 -1.5404 -1.3870
 2470SOL     OW10811   8.322   8.099   8.162 -0.2974  0.6626  0.7227
 2470SOL    HW110812   8.366   8.114   8.246  0.0919  0.4926  0.5465
 2470SOL    HW210813   8.378   8.140   8.097  0.0280 -0.2561  0.4056
 2471SOL     OW10814   9.726   0.583  10.237 -0.0110 -0.4355  0.1341
 2471SOL    HW110815   9.739   0.567  10.330  0.5928 -0.5696  0.0279
 2471SOL    HW210816   9.631   0.582  10.226 -0.2228  1.9127  1.1462
 2472SOL     OW10817   7.420   5.409   9.986  0.0037  0.2622 -0.6035
 2472SOL    HW110818   7.343   5.415  10.042  0.3384 -0.3087 -0.0672
 2472SOL    HW210819   7.489   5.454  10.035  0.9473 -2.3543  0.6417
 2473SOL     OW10820  10.513   0.783   5.962 -0.0514 -0.6202 -0.6067
 2473SOL    HW110821  10.461   0.816   6.035  0.2002  0.7606 -1.0118
 2473SOL    HW210822  10.604   0.803   5.986  0.0422 -0.2645 -1.2227
 2474SOL     OW10823   9.270   9.186   5.231  0.0470 -0.2868  0.2106
 2474SOL    HW110824   9.300   9.096   5.236  0.5142 -0.1843 -0.5132
 2474SOL    HW210825   9.340   9.232   5.185 -1.5160 -0.2045 -2.2829
 2475SOL     OW10826   6.626   5.020   5.129  0.0967  0.1451 -0.3020
 2475SOL    HW110827   6.664   5.060   5.051  0.6551  0.5202  0.1493
 2475SOL    HW210828   6.619   5.092   5.192 -1.4907  0.1037 -0.4063
 2476SOL     OW10829   3.380   1.769   3.851 -0.0713 -0.0639  0.4103
 2476SOL    HW110830   3.349   1.737   3.936  1.9020  0.2028  1.2912
 2476SOL    HW210831   3.383   1.864   3.861  0.3830 -0.0451  0.1456
 2477SOL     OW10832   7.329   0.769  10.282  0.1554 -0.1575 -0.3534
 2477SOL    HW110833   7.344   0.781  10.188  1.2825  1.3975 -0.0110
 2477SOL    HW210834   7.329   0.858  10.318  4.2642 -0.7855  1.7266
 2478SOL     OW10835  10.120  10.247   4.214  0.4296 -0.2939 -0.0078
 2478SOL    HW110836  10.167  10.239   4.297 -1.5526 -1.8449  1.0596
 2478SOL    HW210837  10.163  10.184   4.156 -1.3110 -3.1121  1.5401
 2479SOL     OW10838   1.200   4.784   2.776  0.7252 -0.1340  0.2224
 2479SOL    HW110839   1.122   4.836   2.792  1.5077  0.4853  2.3952
 2479SOL    HW210840   1.209   4.729   2.854  1.6480 -1.2709 -0.6375
 2480SOL     OW10841   6.203   9.297   0.478 -0.2033 -0.2390  0.2158
 2480SOL    HW110842   6.189   9.263   0.566 -2.1985 -1.7821 -0.6301
 2480SOL    HW210843   6.156   9.380   0.477 -0.2861 -0.2785  0.5399
 2481SOL     OW10844   4.044   5.659   5.763 -0.1536  0.3155 -0.6090
 2481SOL    HW110845   4.031   5.737   5.817 -0.4447  1.3301 -2.0975
 2481SOL    HW210846   4.126   5.676   5.717  1.0229 -1.3210  0.7750
 2482SOL     OW10847   5.645   4.526   2.105  0.5236  0.1345 -0.0092
 2482SOL    HW110848   5.640   4.479   2.188  0.9080  2.2678  1.2932
 2482SOL    HW210849   5.737   4.553   2.099  0.6949 -0.6998 -1.5740
 2483SOL     OW10850   1.155   4.823   2.517  0.3393  0.0537 -0.1670
 2483SOL    HW110851   1.209   4.825   2.597  2.0057 -1.9326 -1.1389
 2483SOL    HW210852   1.088   4.758   2.536 -0.0891  0.5612  0.0779
 2484SOL     OW10853   7.854   2.895   5.935 -0.4210  0.2593  0.5954
 2484SOL    HW110854   7.912   2.853   5.998 -1.4059 -2.6168 -0.2480
 2484SOL    HW210855   7.902   2.891   5.852 -0.6370  0.5527  0.4543
 2485SOL     OW10856   5.290   1.235   6.374 -0.3165  0.4385 -0.2663
 2485SOL    HW110857   5.295   1.146   6.341 -0.4104 -0.2469  1.4613
 2485SOL    HW210858   5.365   1.242   6.434 -1.1510  1.0218  0.7328
 2486SOL     OW10859   2.122  10.544   1.097 -0.1824  0.0247 -0.3570
 2486SOL    HW110860   2.092  10.615   1.041 -0.3886  0.4492  0.2902
 2486SOL    HW210861   2.104  10.464   1.046  0.4408  0.4440 -1.2652
 2487SOL     OW10862   5.071   7.499  10.144 -0.3333 -0.5320  0.1187
 2487SOL    HW110863   5.050   7.592  10.152  0.4077 -0.3197 -0.2926
 2487SOL    HW210864   5.135   7.482  10.213 -1.1628 -0.9646  0.7968
 2488SOL     OW10865   3.622   6.303   8.815  0.0817  0.4164 -0.3078
 2488SOL    HW110866   3.598   6.384   8.771  1.3647  1.2795  0.4952
 2488SOL    HW210867   3.718   6.302   8.811  0.0895 -1.2020 -0.5160
 2489SOL     OW10868   2.817   0.307   1.643  0.0092 -0.3385 -0.5517
 2489SOL    HW110869   2.816   0.400   1.665  1.3753 -0.4877  0.2611
 2489SOL    HW210870   2.755   0.267   1.704  1.7403 -0.3562  1.3107
 2490SOL     OW10871   0.333   2.757   7.383  0.0557  0.3736 -0.7649
 2490SOL    HW110872   0.382   2.791   7.308  0.5902 -0.2094 -0.6899
 2490SOL    HW210873   0.266   2.700   7.344 -0.9202  1.5793 -0.8970
 2491SOL     OW10874   3.416   8.672   4.315 -0.0222  1.0063 -0.1081
 2491SOL    HW110875   3.398   8.578   4.319 -0.2972  1.0604 -0.0204
 2491SOL    HW210876   3.351   8.711   4.374  1.5521  1.0678  1.6660
 2492SOL     OW10877   5.045   3.726   3.972 -0.2924 -0.2483  0.1492
 2492SOL    HW110878   5.043   3.773   4.055  0.6581 -0.0149  0.0439
 2492SOL    HW210879   5.035   3.795   3.905 -2.8576 -0.5767  0.0656
 2493SOL     OW10880   3.921   0.623   4.104  0.2540  0.4918  0.1445
 2493SOL    HW110881   3.852   0.588   4.160 -0.5632  1.6928 -0.0804
 2493SOL    HW210882   4.000   0.578   4.133 -0.7973 -1.9181 -0.4892
 2494SOL     OW10883   7.569   7.394   9.489  0.1185 -0.3504  0.1788
 2494SOL    HW110884   7.478   7.420   9.482 -0.1263 -1.1474  0.2704
 2494SOL    HW210885   7.583   7.335   9.414  1.5607  2.4944 -2.0152
 2495SOL     OW10886   9.514   5.989   5.618 -0.2166  0.4300 -0.0089
 2495SOL    HW110887   9.427   6.019   5.641  0.5227  2.3288  0.4622
 2495SOL    HW210888   9.539   6.043   5.543  0.6550  0.0907  0.0249
 2496SOL     OW10889   2.567   2.184   9.224 -0.2416  0.3894  0.6053
 2496SOL    HW110890   2.477   2.216   9.219 -0.8713 -1.1025  1.4025
 2496SOL    HW210891   2.618   2.259   9.254 -1.3266  1.1117  0.7154
 2497SOL     OW10892   9.186   8.568   4.086 -0.3076  0.0656  0.0959
 2497SOL    HW110893   9.212   8.656   4.112  0.5387 -0.4907  1.2529
 2497SOL    HW210894   9.264   8.531   4.046 -0.2727 -0.5515  0.7105
 2498SOL     OW10895   8.766   1.865   6.100 -0.1876  0.1498 -0.6795
 2498SOL    HW110896   8.775   1.788   6.044 -0.3347 -0.7141  0.4683
 2498SOL    HW210897   8.697   1.843   6.162 -1.7446  2.0128 -1.6265
 2499SOL     OW10898   4.213   4.107   6.398  0.2952  0.5312 -0.2074
 2499SOL    HW110899   4.151   4.034   6.399  0.4656  0.3464  1.9531
 2499SOL    HW210900   4.263   4.095   6.318 -1.3898 -0.2300 -1.1959
 2500SOL     OW10901   1.234   7.645   6.726 -0.1441 -0.6253 -0.0704
 2500SOL    HW110902   1.223   7.660   6.632 -2.8556 -1.1184  0.0836
 2500SOL    HW210903   1.231   7.549   6.735 -0.3620 -0.5577  0.5761
 2501SOL     OW10904   2.676   4.814   4.750  1.0724  1.0439  0.0118
 2501SOL    HW110905   2.599   4.867   4.729  1.0644  0.6854 -0.8584
 2501SOL    HW210906   2.732   4.820   4.673  0.6312 -1.0375 -0.5228
 2502SOL     OW10907   8.177   7.866   9.439  0.2208 -0.0576 -0.0583
 2502SOL    HW110908   8.195   7.825   9.354 -0.3887  1.5260 -0.9892
 2502SOL    HW210909   8.085   7.892   9.434 -0.1874 -1.0288  1.5916
 2503SOL     OW10910   3.789   3.766   2.314 -0.1413 -0.3537 -0.0657
 2503SOL    HW110911   3.798   3.857   2.287  2.9580 -0.7825 -0.8376
 2503SOL    HW210912   3.762   3.770   2.406 -1.8519  1.2537 -0.5846
 2504SOL     OW10913   8.170   7.267   0.650 -0.2261  0.6140  0.5781
 2504SOL    HW110914   8.154   7.289   0.558 -0.1923 -1.3906  0.0349
 2504SOL    HW210915   8.265   7.259   0.657 -0.2909 -0.5038  0.4253
 2505SOL     OW10916   1.597   8.282  10.308  0.1430 -0.3832  0.2839
 2505SOL    HW110917   1.602   8.310  10.400  0.2737 -0.5885  0.3400
 2505SOL    HW210918   1.687   8.284  10.277 -0.0466  0.9189 -0.2192
 2506SOL     OW10919   8.224   1.935   7.458  0.1278 -0.0134  0.2364
 2506SOL    HW110920   8.284   1.937   7.532  1.1150 -0.9960 -0.4885
 2506SOL    HW210921   8.192   1.845   7.455  0.5459 -0.1528 -0.8346
 2507SOL     OW10922   3.225   2.681   2.679  0.5764  0.1821  0.4131
 2507SOL    HW110923   3.249   2.732   2.756  2.0593 -1.1266  0.8648
 2507SOL    HW210924   3.299   2.622   2.665 -0.2245 -0.5006 -1.2572
 2508SOL     OW10925  10.312   5.716   0.169  0.1421  0.0217 -0.1932
 2508SOL    HW110926  10.366   5.699   0.092  0.0076 -0.8504 -0.1054
 2508SOL    HW210927  10.244   5.648   0.166 -1.8414  1.9345 -1.0860
 2509SOL     OW10928   2.887   6.241   8.598  0.0235 -0.2186 -0.3841
 2509SOL    HW110929   2.894   6.282   8.511 -1.8546  2.1253  0.4554
 2509SOL    HW210930   2.880   6.315   8.659  2.2014 -1.7600  1.9308
 2510SOL     OW10931   1.241  10.668   8.511  0.1241  0.2457  0.9300
 2510SOL    HW110932   1.266  10.575   8.511 -0.2037  0.1195  2.5335
 2510SOL    HW210933   1.154  10.669   8.471 -0.0306 -0.2099  1.2354
 2511SOL     OW10934   9.486   3.122  10.711 -0.3945 -0.1956 -0.0307
 2511SOL    HW110935   9.460   3.121  10.803  1.5794 -0.5584  0.5760
 2511SOL    HW210936   9.542   3.045  10.701 -0.0696  0.1871 -1.3893
 2512SOL     OW10937   5.734   0.623   5.502 -0.2328  0.4900 -0.1235
 2512SOL    HW110938   5.720   0.623   5.597 -1.6450  0.8177 -0.3122
 2512SOL    HW210939   5.772   0.537   5.484 -1.1367 -0.0898  0.5928
 2513SOL     OW10940   7.393   3.515   8.020  0.0940  0.4742 -0.2624
 2513SOL    HW110941   7.386   3.481   8.109  0.2902  0.6207 -0.1914
 2513SOL    HW210942   7.484   3.544   8.012 -0.1090  1.1035 -0.2848
 2514SOL     OW10943   3.566   3.809   0.900  0.0754  0.0908  0.0236
 2514SOL    HW110944   3.578   3.904   0.911  0.5003  0.1626 -0.9544
 2514SOL    HW210945   3.629   3.770   0.962 -1.5245  0.3946  1.9475
 2515SOL     OW10946  10.677   8.403   3.175  0.2402 -0.1382 -0.2236
 2515SOL    HW110947  10.619   8.408   3.099  0.1399 -0.4142 -0.1681
 2515SOL    HW210948  10.762   8.432   3.142 -0.0686  0.8665 -0.1456
 2516SOL     OW10949   3.209   8.992   2.292 -0.5003 -0.4766 -0.2999
 2516SOL    HW110950   3.186   8.901   2.308  2.1316 -1.6985 -2.7123
 2516SOL    HW210951   3.305   8.993   2.289 -0.4251  2.4122 -0.2221
 2517SOL     OW10952   7.821   9.350   3.234  0.1689  0.3650 -0.8544
 2517SOL    HW110953   7.846   9.393   3.152  3.4688 -0.0729 -0.2122
 2517SOL    HW210954   7.885   9.279   3.245  0.2858  0.8125  2.4135
 2518SOL     OW10955   7.740   3.201   0.348  0.3867  0.0606  0.1014
 2518SOL    HW110956   7.793   3.122   0.353 -0.3387 -0.4776 -0.5145
 2518SOL    HW210957   7.653   3.173   0.378  0.4862  0.9921  1.3762
 2519SOL     OW10958   1.844   2.140  10.890  0.3593 -0.1088  0.0794
 2519SOL    HW110959   1.887   2.160  10.807 -0.9341  0.5086 -0.4797
 2519SOL    HW210960   1.754   2.117  10.865  0.0074 -0.1271  1.2941
 2520SOL     OW10961   7.272   5.542   1.557 -0.1842  0.2106 -0.2441
 2520SOL    HW110962   7.225   5.507   1.633  1.3330 -1.5780 -0.0586
 2520SOL    HW210963   7.350   5.584   1.594  1.4377 -2.1066 -0.7965
 2521SOL     OW10964   1.942   2.541   2.047  0.1186  0.0797 -0.3066
 2521SOL    HW110965   1.853   2.505   2.057  0.6859 -0.8196  2.7698
 2521SOL    HW210966   1.998   2.477   2.091  2.1311  1.3221 -0.9422
 2522SOL     OW10967   6.364   5.056   4.494 -0.0912  0.9598  0.3198
 2522SOL    HW110968   6.376   5.013   4.410  1.4419  1.7969  0.0835
 2522SOL    HW210969   6.280   5.102   4.486  0.0178  0.9870 -0.7299
 2523SOL     OW10970   4.719   8.945   1.318  0.2224  0.4869  0.5730
 2523SOL    HW110971   4.630   8.948   1.283  0.2737  0.7893  0.4720
 2523SOL    HW210972   4.722   8.861   1.365  0.3866 -0.2793 -0.7475
 2524SOL     OW10973   2.258   3.643   2.281  0.4531 -0.7037 -0.2814
 2524SOL    HW110974   2.250   3.718   2.340  0.5534 -0.5395 -0.4733
 2524SOL    HW210975   2.338   3.599   2.309 -0.2808 -1.4716  0.6541
 2525SOL     OW10976   2.283   7.693   5.341  0.3068 -0.4243  0.1067
 2525SOL    HW110977   2.244   7.761   5.395 -0.5898 -1.5878  0.9856
 2525SOL    HW210978   2.254   7.713   5.252  0.5824  0.6797  0.2566
 2526SOL     OW10979   7.907   0.661   5.083 -0.0842  0.6039  0.1721
 2526SOL    HW110980   7.915   0.703   5.169  1.0168  0.6054  0.0852
 2526SOL    HW210981   7.985   0.606   5.076 -0.4003  0.2457 -0.6394
 2527SOL     OW10982   5.467   5.003  10.024  0.1712  0.2532  0.4798
 2527SOL    HW110983   5.561   5.018  10.038  0.4813  1.3076 -2.0587
 2527SOL    HW210984   5.423   5.070  10.077  0.6398 -1.6285  3.4712
 2528SOL     OW10985   7.379   8.419  10.311 -0.0694 -0.8065  0.4281
 2528SOL    HW110986   7.350   8.407  10.220 -1.4379  0.2400  0.7042
 2528SOL    HW210987   7.372   8.332  10.350 -1.0490 -0.9424 -0.0280
 2529SOL     OW10988   0.635   9.041   1.183  0.2253 -0.2141 -0.1899
 2529SOL    HW110989   0.598   9.101   1.118 -1.3476  0.1985  1.0288
 2529SOL    HW210990   0.727   9.066   1.189 -0.0432  1.0264 -0.8337
 2530SOL     OW10991  10.892   2.664   4.290 -0.1713  0.7729 -0.3520
 2530SOL    HW110992  10.984   2.687   4.305 -0.4569  1.5772  0.2518
 2530SOL    HW210993  10.844   2.743   4.312 -1.1778 -0.2604  1.4245
 2531SOL     OW10994   1.251   5.477   8.892  0.3749  0.0319  0.1906
 2531SOL    HW110995   1.305   5.540   8.846  2.2474 -1.1117  0.6931
 2531SOL    HW210996   1.254   5.505   8.984 -3.0009  2.0680 -0.1779
 2532SOL     OW10997   2.823   9.818   4.725 -0.9585  0.4220  0.2398
 2532SOL    HW110998   2.803   9.833   4.632  0.7193  1.9504  0.0883
 2532SOL    HW210999   2.850   9.726   4.728 -2.5512 -0.1213 -0.4675
 2533SOL     OW11000   1.945   9.804  10.107 -0.1697  0.3146 -0.0641
 2533SOL    HW111001   1.932   9.712  10.127 -2.5470  0.6578  0.2530
 2533SOL    HW211002   1.885   9.822  10.035  0.4618  1.5747 -0.3093
 2534SOL     OW11003   2.613   9.993   2.850  0.0786  0.0663 -0.1788
 2534SOL    HW111004   2.658  10.001   2.934 -0.9523 -1.3037  0.5441
 2534SOL    HW211005   2.520   9.991   2.872 -0.1673 -3.0890 -1.0063
 2535SOL     OW11006   5.936  10.545   1.124 -0.5294 -0.2913  0.1776
 2535SOL    HW111007   5.960  10.563   1.033 -0.3143  0.7204  0.4128
 2535SOL    HW211008   5.841  10.561   1.127 -0.2636  1.5447  0.5011
 2536SOL     OW11009   4.833   6.490   2.248  0.1885 -0.3930  0.2373
 2536SOL    HW111010   4.855   6.427   2.179 -0.9714 -1.6244  0.9584
 2536SOL    HW211011   4.908   6.486   2.308  0.9341  0.2556 -0.6245
 2537SOL     OW11012   7.352   3.981  10.163  0.3277 -0.3107 -0.1438
 2537SOL    HW111013   7.440   3.948  10.179  1.1919  0.7669 -2.2064
 2537SOL    HW211014   7.301   3.951  10.238  2.5639 -0.4544  1.4249
 2538SOL     OW11015   9.489   1.652   5.798  0.5066 -0.1088 -0.6000
 2538SOL    HW111016   9.465   1.570   5.755  1.3949 -1.3293  1.0742
 2538SOL    HW211017   9.432   1.656   5.875  0.6995  0.6749 -0.4895
 2539SOL     OW11018   5.156   0.311   4.397  0.5053 -0.0342 -0.0164
 2539SOL    HW111019   5.073   0.264   4.395 -0.0099  0.8516 -1.2034
 2539SOL    HW211020   5.140   0.390   4.344  2.0895  0.1679 -0.2552
 2540SOL     OW11021   8.643  10.176   7.876 -0.2232  0.0832  0.9738
 2540SOL    HW111022   8.653  10.082   7.891  0.3326  0.2445  1.6853
 2540SOL    HW211023   8.725  10.214   7.909 -0.1020  0.7414 -0.0367
 2541SOL     OW11024   4.261   9.856  10.370  0.1008  0.5916 -0.8014
 2541SOL    HW111025   4.307   9.773  10.358 -0.0538  0.4793 -0.6286
 2541SOL    HW211026   4.183   9.848  10.315 -0.9174 -0.1616  0.6909
 2542SOL     OW11027   1.039   8.371   6.670  0.3718  0.5619  0.6434
 2542SOL    HW111028   0.996   8.289   6.648  3.0250 -0.2974 -1.8388
 2542SOL    HW211029   0.968   8.436   6.670 -1.1996 -1.0272 -1.4814
 2543SOL     OW11030  10.864   9.760   8.324  0.4495  0.0109 -0.1057
 2543SOL    HW111031  10.833   9.712   8.400  0.3644 -0.0676 -0.1900
 2543SOL    HW211032  10.786   9.801   8.288  0.6857  1.1815  0.6541
 2544SOL     OW11033   3.703   5.888   4.562 -0.0435 -0.1047 -0.4177
 2544SOL    HW111034   3.611   5.880   4.588  0.3357  0.7793  1.3837
 2544SOL    HW211035   3.720   5.810   4.510 -1.2825 -1.3272  0.9060
 2545SOL     OW11036   3.537   7.759   9.407  0.0626  0.6317 -0.0221
 2545SOL    HW111037   3.577   7.681   9.446 -0.3596  0.9115  1.0070
 2545SOL    HW211038   3.444   7.737   9.400 -0.0575  1.0437  0.2737
 2546SOL     OW11039   8.467  10.307   4.128  0.0812 -0.2054 -0.0958
 2546SOL    HW111040   8.410  10.280   4.056 -1.2533 -1.1456  1.2294
 2546SOL    HW211041   8.487  10.225   4.174  2.1362  0.1802 -0.2354
 2547SOL     OW11042   2.732   9.750   5.023  0.3485 -0.2087 -0.1389
 2547SOL    HW111043   2.642   9.752   5.056  0.2090 -1.0729 -0.4236
 2547SOL    HW211044   2.722   9.765   4.929  0.7505  2.3799  0.1560
 2548SOL     OW11045   1.797   7.036  10.102 -0.6590 -0.1282 -0.0698
 2548SOL    HW111046   1.844   7.053  10.020 -2.1529 -0.5494 -1.0479
 2548SOL    HW211047   1.847   6.965  10.144  0.3455  0.3629 -0.3966
 2549SOL     OW11048   9.889   6.122  10.886  0.8304  0.2631 -0.3580
 2549SOL    HW111049   9.881   6.105  10.980  1.2214  0.2521 -0.3280
 2549SOL    HW211050   9.810   6.172  10.865  0.4523 -0.2308 -0.1403
 2550SOL     OW11051   8.372   6.810   0.897 -0.4023 -0.2689  0.6679
 2550SOL    HW111052   8.435   6.790   0.967  0.4953 -2.1475 -0.6208
 2550SOL    HW211053   8.288   6.816   0.943  0.5696  2.2040  2.4216
 2551SOL     OW11054   9.519   8.347  10.347  0.3744  0.2074  0.1617
 2551SOL    HW111055   9.497   8.269  10.296  0.1081  0.7573 -0.5896
 2551SOL    HW211056   9.437   8.372  10.389  0.3721  0.2928  0.1073
 2552SOL     OW11057   8.983  10.061   4.473 -0.2566 -0.5114  0.1803
 2552SOL    HW111058   8.917   9.997   4.501  2.1475 -3.4159 -0.2922
 2552SOL    HW211059   9.063  10.010   4.460  1.7142  2.5322 -0.9199
 2553SOL     OW11060   9.665   2.100   5.082 -0.2509 -0.2751 -0.4121
 2553SOL    HW111061   9.743   2.084   5.135 -0.5964  0.1524  0.2236
 2553SOL    HW211062   9.654   2.195   5.084 -1.1553 -0.3875  0.0226
 2554SOL     OW11063  10.261  10.384   5.191  0.3054  0.4638 -0.5530
 2554SOL    HW111064  10.208  10.401   5.269  1.7596  1.9964  0.1782
 2554SOL    HW211065  10.229  10.446   5.126 -1.2957 -1.2017 -1.4450
 2555SOL     OW11066   1.218   8.800   3.786 -0.1802 -0.2075  0.6320
 2555SOL    HW111067   1.308   8.829   3.798  0.2683 -1.6865  1.0185
 2555SOL    HW211068   1.173   8.877   3.752  0.9545  0.8975  1.5240
 2556SOL     OW11069   8.764   4.010   0.352 -0.0409 -0.2220  0.4173
 2556SOL    HW111070   8.827   3.939   0.351  1.2671  0.8940 -0.5215
 2556SOL    HW211071   8.679   3.967   0.360  0.6365 -1.9360 -0.9569
 2557SOL     OW11072   8.896   9.647   0.683 -0.1216  0.0855 -0.0730
 2557SOL    HW111073   8.841   9.692   0.618 -0.4345 -1.0691 -0.6471
 2557SOL    HW211074   8.935   9.717   0.734 -1.6564  0.9738 -0.0485
 2558SOL     OW11075  10.104   2.737  10.469  1.3781  0.2554  0.2158
 2558SOL    HW111076  10.176   2.706  10.524  1.8012  0.7475 -0.0543
 2558SOL    HW211077  10.146   2.764  10.387  0.6853 -1.1393 -0.6450
 2559SOL     OW11078   8.596   9.665   3.122  0.2468 -0.0905  0.2953
 2559SOL    HW111079   8.651   9.714   3.060 -0.8805  0.1430 -0.5542
 2559SOL    HW211080   8.565   9.590   3.072 -2.0833  0.9978 -0.0427
 2560SOL     OW11081   0.459   0.278   9.775  0.3428  0.1075 -0.6937
 2560SOL    HW111082   0.408   0.310   9.850  0.0301  0.4791 -1.0635
 2560SOL    HW211083   0.502   0.199   9.808 -0.2448 -0.0553 -0.2929
 2561SOL     OW11084   9.211   9.579   6.675 -0.0702  0.1247 -0.3992
 2561SOL    HW111085   9.304   9.563   6.659 -0.0473  0.8474 -1.0510
 2561SOL    HW211086   9.207   9.619   6.762 -0.0541 -2.5147  0.9150
 2562SOL     OW11087   3.777   8.992   9.911 -0.8287 -0.1837  0.2903
 2562SOL    HW111088   3.709   8.925   9.900 -1.9292  0.6480  1.6862
 2562SOL    HW211089   3.750   9.063   9.852 -2.0525  0.7537  1.8816
 2563SOL     OW11090   5.142   6.043   7.291  0.6325  0.0871  0.4882
 2563SOL    HW111091   5.206   6.102   7.252  0.7529 -0.6472 -0.4689
 2563SOL    HW211092   5.173   5.955   7.267  0.3913 -0.3702  1.7696
 2564SOL     OW11093   6.207   1.841   3.741 -0.0830 -0.4745 -0.1861
 2564SOL    HW111094   6.196   1.806   3.830  2.7702  0.6537  0.7162
 2564SOL    HW211095   6.204   1.936   3.753  2.6471 -0.2235 -0.8194
 2565SOL     OW11096   1.837   9.140   3.753  0.1911  0.0852  0.2138
 2565SOL    HW111097   1.922   9.159   3.713 -0.1647 -0.4493 -0.8401
 2565SOL    HW211098   1.856   9.079   3.824  0.6644 -0.2525 -0.1964
 2566SOL     OW11099   3.504   0.444   5.440  0.4821 -0.2045 -0.3628
 2566SOL    HW111100   3.465   0.531   5.447 -0.3393 -0.5469 -0.5526
 2566SOL    HW211101   3.573   0.443   5.506  1.9967  1.3523 -1.8178
 2567SOL     OW11102   7.182   1.393   8.795 -0.2999  0.8123  0.1677
 2567SOL    HW111103   7.223   1.314   8.759  0.5949  0.9407  0.8948
 2567SOL    HW211104   7.235   1.416   8.871 -0.4633  2.2123 -0.1233
 2568SOL     OW11105  10.651   3.294   9.285  0.1034  0.2531  0.5213
 2568SOL    HW111106  10.701   3.343   9.219  1.7691 -1.2761  0.5731
 2568SOL    HW211107  10.715   3.275   9.354 -0.5147 -1.7770  0.5937
 2569SOL     OW11108   2.420   7.105   1.967 -0.2287 -0.0969  0.2447
 2569SOL    HW111109   2.445   7.084   2.057  0.1119  0.4866  0.2924
 2569SOL    HW211110   2.470   7.044   1.913 -1.5120 -1.4140  0.5042
 2570SOL     OW11111  10.081   1.192   9.946 -0.2030 -0.4298 -0.0444
 2570SOL    HW111112  10.078   1.198   9.850 -0.3483  0.0417 -0.0104
 2570SOL    HW211113  10.004   1.240   9.975  0.2427  0.0681  0.3358
 2571SOL     OW11114   0.681   7.428   3.390  0.3206  0.0317 -0.0798
 2571SOL    HW111115   0.663   7.389   3.305  0.4003 -0.2878  0.0514
 2571SOL    HW211116   0.648   7.364   3.453 -2.6618  1.5725  0.1433
 2572SOL     OW11117   2.716   0.141   4.909 -0.0258 -0.1910 -0.4151
 2572SOL    HW111118   2.718   0.232   4.877 -1.2198  0.1759  0.4860
 2572SOL    HW211119   2.799   0.130   4.954 -0.0262  0.5938 -0.2028
 2573SOL     OW11120   8.716   6.444   9.825  0.1711  0.2112  0.3285
 2573SOL    HW111121   8.763   6.426   9.744 -0.4386  0.2665 -0.0458
 2573SOL    HW211122   8.695   6.358   9.860 -1.7173  0.1348 -0.8576
 2574SOL     OW11123   1.353   3.455   5.218 -0.1492 -0.2911  0.2903
 2574SOL    HW111124   1.298   3.443   5.141  0.4556 -2.1474  0.1086
 2574SOL    HW211125   1.353   3.370   5.261  1.1906  0.1551  1.2309
 2575SOL     OW11126   8.710   1.506   1.045 -0.0210  0.5575 -0.2242
 2575SOL    HW111127   8.776   1.555   1.095  1.5181 -1.1185 -0.5121
 2575SOL    HW211128   8.653   1.468   1.112  0.9734 -0.2196  0.2161
 2576SOL     OW11129   6.400  10.457   3.521  0.0683 -0.1874 -0.1542
 2576SOL    HW111130   6.488  10.486   3.496  0.1133 -0.3441 -0.1816
 2576SOL    HW211131   6.406  10.361   3.520  0.5140 -0.2289  2.0285
 2577SOL     OW11132   1.693   6.063   3.675 -0.2136 -0.9301  0.1749
 2577SOL    HW111133   1.714   6.155   3.690  1.0751 -0.9403 -1.3146
 2577SOL    HW211134   1.732   6.017   3.750 -1.0718 -0.2695  1.0514
 2578SOL     OW11135   0.184   7.658   8.876 -0.4824  0.2275  0.4743
 2578SOL    HW111136   0.154   7.583   8.927  1.6820  0.1390  1.7268
 2578SOL    HW211137   0.261   7.690   8.923 -0.2073  2.0576 -1.0904
 2579SOL     OW11138   5.991   7.824   3.124  0.4640  0.1615 -0.2435
 2579SOL    HW111139   6.066   7.814   3.065 -0.4286 -0.7955 -1.2929
 2579SOL    HW211140   5.964   7.915   3.114  0.2993  0.0077 -1.4040
 2580SOL     OW11141  10.319  10.148   9.429 -0.6526 -0.4108  0.3758
 2580SOL    HW111142  10.359  10.103   9.503 -0.1044  0.9990  0.9647
 2580SOL    HW211143  10.388  10.151   9.363  0.0285  1.3428  1.1083
 2581SOL     OW11144   2.584   6.239   0.814 -0.2016  0.0721  0.1131
 2581SOL    HW111145   2.620   6.151   0.821 -1.8021 -0.7087 -0.8547
 2581SOL    HW211146   2.631   6.278   0.740 -0.1474 -0.3054 -0.0516
 2582SOL     OW11147   3.973   0.070   5.874  0.6959 -0.6646 -0.1603
 2582SOL    HW111148   3.970   0.164   5.892 -0.6524 -0.8995  0.9953
 2582SOL    HW211149   4.063   0.054   5.846  1.1800  0.8352  0.4314
 2583SOL     OW11150   2.010  10.850   6.420  0.2680  0.4346 -0.0239
 2583SOL    HW111151   2.065  10.862   6.343  0.2180  0.8993  0.0139
 2583SOL    HW211152   2.061  10.886   6.492  1.5149 -2.3720  0.6595
 2584SOL     OW11153   4.015   6.311   2.218 -0.6168  0.1180 -0.0999
 2584SOL    HW111154   3.934   6.360   2.228 -1.3378 -0.5128 -2.2681
 2584SOL    HW211155   3.993   6.222   2.245 -0.3722  0.1468  0.2019
 2585SOL     OW11156   7.564   5.072   9.614  0.2088 -0.4749  0.0543
 2585SOL    HW111157   7.657   5.071   9.591  0.3484  1.5487  0.3934
 2585SOL    HW211158   7.531   5.154   9.578 -1.0922 -0.4489  1.2279
 2586SOL     OW11159   7.668   6.843  10.009  0.0120  0.3249  0.0274
 2586SOL    HW111160   7.637   6.927   9.976 -1.1255 -0.2332 -0.3537
 2586SOL    HW211161   7.690   6.793   9.930 -1.7664 -0.6547  0.1215
 2587SOL     OW11162   3.018   6.429   0.746 -1.0952  0.3270 -0.3401
 2587SOL    HW111163   2.967   6.510   0.737 -1.2612  0.3469  0.6014
 2587SOL    HW211164   3.104   6.459   0.776 -0.2597  0.3530 -2.5959
 2588SOL     OW11165   6.003   0.280   9.938  0.2010  0.1665  0.0042
 2588SOL    HW111166   6.049   0.358   9.907  0.3339 -0.0170 -0.2683
 2588SOL    HW211167   6.058   0.246  10.008 -0.0267  0.5013  0.3551
 2589SOL     OW11168   2.032   6.207  10.242 -0.4083 -0.1201 -0.1918
 2589SOL    HW111169   1.956   6.195  10.184 -0.4707  0.3022 -0.1996
 2589SOL    HW211170   1.996   6.252  10.318 -0.0845  0.4536 -0.3784
 2590SOL     OW11171  10.510   2.665   8.803 -0.3209 -0.0800  0.4999
 2590SOL    HW111172  10.592   2.654   8.851 -0.1671 -0.5246  0.1416
 2590SOL    HW211173  10.536   2.670   8.711 -0.6748  0.0176  0.4006
 2591SOL     OW11174   4.597  10.487   5.414  0.3471  0.2639  0.3547
 2591SOL    HW111175   4.690  10.497   5.435  0.6234  0.4007 -0.8745
 2591SOL    HW211176   4.554  10.478   5.500  1.5675 -0.5408  0.9112
 2592SOL     OW11177   5.100   1.296   4.329  0.0532 -0.1642  0.2613
 2592SOL    HW111178   5.110   1.342   4.412 -2.2229  1.2548 -0.1634
 2592SOL    HW211179   5.092   1.366   4.263  0.9458 -1.2486 -1.0699
 2593SOL     OW11180   5.770   9.060   6.247 -0.0033  0.0123  0.3166
 2593SOL    HW111181   5.728   9.079   6.331  0.4731 -1.2961  0.8670
 2593SOL    HW211182   5.860   9.090   6.258 -0.1822  0.7346 -0.0846
 2594SOL     OW11183   0.981   8.228   9.117 -0.4463 -0.2226 -0.1466
 2594SOL    HW111184   0.950   8.305   9.164 -1.7926  0.2068 -1.6670
 2594SOL    HW211185   1.075   8.225   9.135 -0.3479  1.8185 -0.1211
 2595SOL     OW11186   5.256   1.535   8.782  0.5585 -0.0882 -0.2416
 2595SOL    HW111187   5.203   1.472   8.831  0.5215 -0.0542 -0.2383
 2595SOL    HW211188   5.201   1.613   8.777  0.4408 -0.1921 -0.5933
 2596SOL     OW11189   4.408  10.772   1.578  0.1888  0.4082  0.2321
 2596SOL    HW111190   4.433  10.832   1.507  0.8345  0.5640  0.5884
 2596SOL    HW211191   4.484  10.717   1.591  0.1670  0.5454  0.9814
 2597SOL     OW11192   4.141  10.389   3.458 -0.0339 -0.2178 -0.2813
 2597SOL    HW111193   4.065  10.410   3.512  0.1024  0.4625 -0.3380
 2597SOL    HW211194   4.110  10.399   3.368  0.1047  0.0262 -0.3050
 2598SOL     OW11195   9.349   0.165   0.810 -0.5634  0.0762 -0.1772
 2598SOL    HW111196   9.262   0.206   0.805 -0.8582 -0.2409  1.7073
 2598SOL    HW211197   9.366   0.157   0.903  2.3664  1.9431 -0.4404
 2599SOL     OW11198   0.509   1.963   7.177 -0.1895 -0.0410 -0.6833
 2599SOL    HW111199   0.580   1.972   7.113 -0.5928  0.5459 -1.0577
 2599SOL    HW211200   0.540   2.012   7.254  1.0453 -2.1687  0.2559
 2600SOL     OW11201   2.628   1.944   6.082 -0.1367  0.3734 -0.2403
 2600SOL    HW111202   2.633   1.883   6.155 -1.8185  0.2530 -0.1845
 2600SOL    HW211203   2.698   2.007   6.098  1.4837 -1.3658 -0.1659
 2601SOL     OW11204   2.425   7.362   1.849  0.2438 -0.5870  0.0165
 2601SOL    HW111205   2.477   7.393   1.923  0.3333 -3.0680  1.1209
 2601SOL    HW211206   2.406   7.270   1.871 -0.3858 -1.1852 -2.7078
 2602SOL     OW11207   5.940   9.986   2.047  0.4227 -0.2938 -0.4335
 2602SOL    HW111208   5.883   9.967   1.972 -0.2247 -0.0386 -0.0090
 2602SOL    HW211209   5.918  10.075   2.072  0.2649 -0.5532  0.3855
 2603SOL     OW11210   7.264   3.459   0.424 -0.1247 -0.4534 -0.1512
 2603SOL    HW111211   7.298   3.431   0.509 -0.0662  0.5097  0.1522
 2603SOL    HW211212   7.234   3.548   0.439 -2.8920 -1.2458 -0.3712
 2604SOL     OW11213   5.196   5.699   2.129  0.0465  0.1981  0.2871
 2604SOL    HW111214   5.283   5.687   2.091  0.4797 -3.0137  1.9710
 2604SOL    HW211215   5.208   5.686   2.223 -2.5383 -3.0260  0.3436
 2605SOL     OW11216   9.385   2.105   3.209 -0.0412  0.0214  0.1565
 2605SOL    HW111217   9.412   2.016   3.230 -0.2719 -0.1007 -0.0445
 2605SOL    HW211218   9.411   2.157   3.284 -1.8665 -0.5905  1.2885
 2606SOL     OW11219   3.410   0.834   8.738  0.0811  0.0615 -0.3134
 2606SOL    HW111220   3.383   0.925   8.750  0.1349  0.1247 -0.6684
 2606SOL    HW211221   3.330   0.784   8.752  0.0859  0.1519  0.0463
 2607SOL     OW11222   1.861   0.246   9.094 -0.3396 -0.4086 -0.1870
 2607SOL    HW111223   1.885   0.310   9.161  0.2782  0.9045 -1.5897
 2607SOL    HW211224   1.938   0.241   9.037 -0.5848 -2.0332 -0.4078
 2608SOL     OW11225   2.850   4.486   6.469  0.1742 -0.0292 -0.2024
 2608SOL    HW111226   2.844   4.391   6.481 -2.5819  0.2940  1.8209
 2608SOL    HW211227   2.827   4.500   6.377  1.0799 -1.3125 -0.6557
 2609SOL     OW11228   8.497   0.669   0.424 -0.1470 -0.6999 -0.4157
 2609SOL    HW111229   8.567   0.613   0.458  0.7657 -1.2570 -2.9929
 2609SOL    HW211230   8.434   0.607   0.385 -1.8714 -0.1731  1.3340
 2610SOL     OW11231   1.875  10.846   5.391 -0.3607  0.3293  0.1579
 2610SOL    HW111232   1.831  10.850   5.306 -0.2138  0.6471  0.0958
 2610SOL    HW211233   1.968  10.841   5.370 -0.3689 -3.8698  0.1527
 2611SOL     OW11234   4.146   6.458   5.360  0.0881  0.1300  0.0053
 2611SOL    HW111235   4.197   6.486   5.285 -0.3207  0.7074 -0.0605
 2611SOL    HW211236   4.109   6.374   5.334  0.1748  0.1941 -0.3296
 2612SOL     OW11237   4.786  10.684   0.917 -0.0198 -0.1278 -0.2278
 2612SOL    HW111238   4.837  10.738   0.978  2.1720 -0.5750 -1.5713
 2612SOL    HW211239   4.836  10.686   0.835 -1.3025 -1.9991 -1.1314
 2613SOL     OW11240   7.243   3.102   5.276  0.4028  0.3630  0.4094
 2613SOL    HW111241   7.248   3.009   5.299  1.3850  0.1530 -0.5799
 2613SOL    HW211242   7.203   3.103   5.189 -1.7532  1.0491  1.3270
 2614SOL     OW11243  10.606   0.857   2.751  0.2952 -0.3540  0.3122
 2614SOL    HW111244  10.644   0.770   2.736 -1.6344 -1.0403 -0.9506
 2614SOL    HW211245  10.552   0.846   2.829  0.4907 -0.1161  0.4834
 2615SOL     OW11246   2.521   5.717   6.158 -0.0876  0.4220  0.4211
 2615SOL    HW111247   2.452   5.651   6.152 -1.5132  1.7822  1.2086
 2615SOL    HW211248   2.485   5.794   6.115  1.6302  0.6770 -0.6500
 2616SOL     OW11249  10.205   6.759   0.957 -0.1265 -0.0256 -0.2134
 2616SOL    HW111250  10.166   6.837   0.918  0.2553  0.3904  0.2368
 2616SOL    HW211251  10.288   6.748   0.912 -0.6320 -0.7758 -1.0031
 2617SOL     OW11252   1.783   7.812   2.468 -0.1873  0.2156  0.2459
 2617SOL    HW111253   1.790   7.724   2.506 -1.4927  0.3047  0.7532
 2617SOL    HW211254   1.814   7.802   2.378  1.8949 -0.2441  0.9606
 2618SOL     OW11255   3.341   2.120   7.087 -0.2254 -0.7861  0.5319
 2618SOL    HW111256   3.431   2.135   7.116 -0.1421  0.8219 -0.4128
 2618SOL    HW211257   3.349   2.100   6.994 -0.9430  2.1072 -0.2628
 2619SOL     OW11258   3.204   8.618   0.131 -0.2879 -0.3480 -0.3274
 2619SOL    HW111259   3.162   8.534   0.148 -2.6974  1.2057  2.0073
 2619SOL    HW211260   3.184   8.636   0.039  0.2908 -2.2745 -0.8764
 2620SOL     OW11261   7.278   9.114   9.297 -0.0756 -0.0201 -0.4570
 2620SOL    HW111262   7.266   9.034   9.349  0.7280  0.9851  1.3925
 2620SOL    HW211263   7.356   9.096   9.244  0.6806 -0.1637  0.6547
 2621SOL     OW11264  10.238  10.331   6.740  0.0649  0.1944 -0.1384
 2621SOL    HW111265  10.332  10.317   6.728 -0.0507 -0.8551  0.0643
 2621SOL    HW211266  10.230  10.423   6.765  0.9341  0.5718 -1.1749
 2622SOL     OW11267   9.543   0.050   6.091 -0.5042  0.4007  0.7379
 2622SOL    HW111268   9.593  -0.018   6.138 -3.4804 -2.0993  0.5802
 2622SOL    HW211269   9.568   0.039   6.000 -1.0056 -0.5538  0.7062
 2623SOL     OW11270   7.156   0.418   6.170 -0.3807 -0.2252 -0.4808
 2623SOL    HW111271   7.140   0.346   6.231 -1.2471  0.7174  0.4653
 2623SOL    HW211272   7.238   0.458   6.200 -0.1400 -0.5392 -0.7219
 2624SOL     OW11273   0.103   0.861   6.751 -0.2025 -0.3584 -0.1992
 2624SOL    HW111274   0.130   0.788   6.695  0.4109 -0.2684 -0.0356
 2624SOL    HW211275   0.122   0.832   6.840  0.2329  0.0673 -0.1477
 2625SOL     OW11276   2.633   1.334   2.307  0.3616  0.1006 -0.0438
 2625SOL    HW111277   2.590   1.373   2.231  0.6534  0.6571  0.0661
 2625SOL    HW211278   2.605   1.389   2.381 -0.8073 -1.0951  0.4350
 2626SOL     OW11279   8.924   5.354   3.610 -0.1190  0.1104  0.2151
 2626SOL    HW111280   8.856   5.293   3.638  0.5045 -0.4022  0.6568
 2626SOL    HW211281   8.996   5.339   3.671  0.4498  0.5254 -0.3369
 2627SOL     OW11282   3.362   9.000   9.978 -0.4490  0.3194 -0.5462
 2627SOL    HW111283   3.279   9.033  10.012 -0.6611  0.1708 -0.9096
 2627SOL    HW211284   3.337   8.938   9.910 -0.0402  1.3401 -1.6662
 2628SOL     OW11285   8.526   9.125   7.259 -0.8754 -0.3318  0.1977
 2628SOL    HW111286   8.558   9.128   7.349 -1.6556  0.2558  0.4666
 2628SOL    HW211287   8.561   9.204   7.218 -0.9688 -0.3147  0.1481
 2629SOL     OW11288   2.695   0.405   0.842 -0.2169 -0.2332  0.3861
 2629SOL    HW111289   2.779   0.362   0.853 -0.8648 -1.2711  1.6071
 2629SOL    HW211290   2.654   0.400   0.929 -1.8495 -0.4675 -0.3469
 2630SOL     OW11291   1.497   3.387   6.489  0.1845  0.3882  0.0503
 2630SOL    HW111292   1.501   3.405   6.583 -0.8298 -2.1517  0.6559
 2630SOL    HW211293   1.417   3.430   6.460  0.3990  1.0183  0.3580
 2631SOL     OW11294   9.597   7.233  10.248  0.3354 -0.5867 -0.3097
 2631SOL    HW111295   9.528   7.297  10.266  0.2521 -0.5755 -0.6585
 2631SOL    HW211296   9.678   7.278  10.272  0.1493 -0.9644  1.0678
 2632SOL     OW11297   4.647   9.840   0.274 -0.0427  0.4262  0.0601
 2632SOL    HW111298   4.729   9.798   0.301  0.5202  0.9736 -0.7417
 2632SOL    HW211299   4.603   9.776   0.219 -0.0052  0.2529  0.2299
 2633SOL     OW11300   5.302   7.291   1.289  0.3481  0.1739 -0.0956
 2633SOL    HW111301   5.281   7.268   1.380  1.2652  1.7573  0.5666
 2633SOL    HW211302   5.226   7.340   1.258 -0.0754 -0.5867 -0.2917
 2634SOL     OW11303   8.510   8.574   9.421 -0.4223  0.1250 -0.1634
 2634SOL    HW111304   8.577   8.569   9.352  0.7289 -1.5785  0.9897
 2634SOL    HW211305   8.427   8.574   9.374  0.3381  1.9614 -1.6324
 2635SOL     OW11306   7.663   2.123   1.340 -0.9018 -0.3173  0.0138
 2635SOL    HW111307   7.586   2.146   1.393 -0.0214  0.1754  1.1151
 2635SOL    HW211308   7.682   2.203   1.290 -0.9150 -0.3391 -0.0264
 2636SOL     OW11309   9.928   9.969   9.432 -0.2015 -0.3862  0.0899
 2636SOL    HW111310  10.002   9.922   9.470  0.3951  1.6909  1.6871
 2636SOL    HW211311   9.851   9.919   9.460  0.4510 -1.0702  0.7115
 2637SOL     OW11312   9.641   3.909   4.336 -0.0889  0.6766  0.4784
 2637SOL    HW111313   9.724   3.860   4.335 -0.0175  0.7742  1.1557
 2637SOL    HW211314   9.638   3.948   4.423  0.5293  3.0474 -0.4930
 2638SOL     OW11315   5.612   4.106   3.166  0.6332 -0.1110  0.8685
 2638SOL    HW111316   5.707   4.105   3.155  0.8095 -1.0304  2.2032
 2638SOL    HW211317   5.593   4.192   3.204  0.6824  0.7620 -0.9537
 2639SOL     OW11318   0.434   1.633   2.644  0.0382 -0.4696  0.3130
 2639SOL    HW111319   0.434   1.542   2.612 -0.1243  0.0158 -1.1249
 2639SOL    HW211320   0.351   1.669   2.615  0.2237  0.2334  0.6395
 2640SOL     OW11321   0.073  10.417   0.291  0.4364  0.2496  0.4684
 2640SOL    HW111322   0.073  10.511   0.306  1.1867  0.4057 -0.4126
 2640SOL    HW211323  -0.014  10.399   0.255 -0.3220  0.3139  2.1591
 2641SOL     OW11324  10.353   3.487   2.525  0.6559  0.0532  0.1686
 2641SOL    HW111325  10.360   3.475   2.431  0.1883  2.8015 -0.2910
 2641SOL    HW211326  10.281   3.429   2.551  2.1788 -2.3682 -0.7200
 2642SOL     OW11327   6.864   8.372   6.251  0.0587  0.0121  0.0447
 2642SOL    HW111328   6.825   8.419   6.178  0.5174 -0.8065 -0.7487
 2642SOL    HW211329   6.837   8.421   6.329  0.4836  1.5345 -0.7370
 2643SOL     OW11330   5.300   4.626   0.744 -0.7423 -0.6264  0.0911
 2643SOL    HW111331   5.221   4.654   0.790 -2.2100  0.3164 -2.7222
 2643SOL    HW211332   5.298   4.531   0.747 -1.8069 -0.6048  0.3938
 2644SOL     OW11333  10.195   1.788   0.872  0.2160 -0.3257  0.4115
 2644SOL    HW111334  10.109   1.751   0.854 -0.7257  2.3407 -1.0203
 2644SOL    HW211335  10.179   1.859   0.934  1.4511 -0.1237  0.5267
 2645SOL     OW11336   9.580   0.321   3.177 -0.5478 -0.3504 -0.5636
 2645SOL    HW111337   9.574   0.333   3.082 -1.4119  0.1552 -0.4583
 2645SOL    HW211338   9.579   0.227   3.189 -2.6638 -0.4349 -0.9677
 2646SOL     OW11339   0.901   3.077   1.808 -0.2552  0.0566 -0.3994
 2646SOL    HW111340   0.933   3.038   1.890  1.9246  0.2135 -1.1084
 2646SOL    HW211341   0.914   3.171   1.819 -2.2053  0.3299 -0.0548
 2647SOL     OW11342   9.662   4.796   8.761  0.2784 -0.0000  0.0083
 2647SOL    HW111343   9.590   4.791   8.697 -0.2082 -0.3040  0.5658
 2647SOL    HW211344   9.659   4.712   8.806  0.5768  0.2378  0.4735
 2648SOL     OW11345   5.926   2.073   7.023 -0.6866  0.9877  0.0614
 2648SOL    HW111346   5.998   2.136   7.026 -1.4275  1.8771 -0.2594
 2648SOL    HW211347   5.968   1.988   7.019  0.3659  1.5454 -1.4146
 2649SOL     OW11348   5.618   6.765   5.648 -0.4834 -0.3380  0.1391
 2649SOL    HW111349   5.629   6.673   5.672  1.5127 -0.5688 -1.4165
 2649SOL    HW211350   5.643   6.813   5.727 -1.1640 -1.0954  0.8402
 2650SOL     OW11351   6.573   8.680   2.281 -0.1326  0.0443 -0.1370
 2650SOL    HW111352   6.580   8.714   2.370 -0.3659 -0.6460  0.1520
 2650SOL    HW211353   6.661   8.653   2.258 -0.3902 -1.5317  0.6095
 2651SOL     OW11354  10.136   2.514   3.018  0.1924 -0.2338  0.2363
 2651SOL    HW111355  10.045   2.520   2.988 -0.2057  0.5124  1.5080
 2651SOL    HW211356  10.136   2.558   3.103  1.3081 -2.0391  1.2414
 2652SOL     OW11357   5.687   6.895   5.027  0.0061 -0.0521 -0.3118
 2652SOL    HW111358   5.621   6.951   4.987 -1.6844 -0.9836  1.0158
 2652SOL    HW211359   5.651   6.807   5.019  0.5896 -0.4737  1.3658
 2653SOL     OW11360   7.354   0.118   7.269 -0.4393  0.0689 -0.7656
 2653SOL    HW111361   7.413   0.065   7.324  1.6966  2.5731 -0.4428
 2653SOL    HW211362   7.275   0.127   7.321 -0.0321 -1.0109  0.0937
 2654SOL     OW11363   2.564   4.215   0.623  0.6749 -0.0637  0.2499
 2654SOL    HW111364   2.646   4.166   0.616  0.6571 -0.1934  0.9028
 2654SOL    HW211365   2.587   4.293   0.674  0.6326  0.4592 -0.5076
 2655SOL     OW11366   0.829   6.023   4.647 -0.3667  0.2749 -0.3639
 2655SOL    HW111367   0.867   5.948   4.600 -0.1342  0.9970 -1.3710
 2655SOL    HW211368   0.740   6.031   4.611 -0.5296  0.2441  0.0288
 2656SOL     OW11369   9.541   6.075   0.310  0.1193 -0.2863  0.2324
 2656SOL    HW111370   9.570   6.029   0.232  2.0228 -1.2644  1.4473
 2656SOL    HW211371   9.551   6.012   0.381 -1.5606  0.5638  1.3029
 2657SOL     OW11372   6.396  10.395   2.652  0.0473  0.1350  0.1058
 2657SOL    HW111373   6.464  10.357   2.596 -1.0886 -2.0855  0.1418
 2657SOL    HW211374   6.391  10.336   2.727 -1.2514  0.7996  0.5662
 2658SOL     OW11375   9.552   8.969   3.502  0.2635  0.0582 -0.3932
 2658SOL    HW111376   9.616   8.898   3.497 -0.5127 -0.8271  1.3832
 2658SOL    HW211377   9.485   8.945   3.437  0.2132 -0.6174 -0.1007
 2659SOL     OW11378   8.802   4.216   5.758  0.0475  0.0657 -0.0448
 2659SOL    HW111379   8.871   4.174   5.708 -2.4891 -0.9866 -3.0032
 2659SOL    HW211380   8.803   4.307   5.729  0.9486  0.3777  0.9060
 2660SOL     OW11381   9.081  10.332   2.597  0.3308 -0.4764  0.3642
 2660SOL    HW111382   9.016  10.262   2.594  0.3690 -0.5079  0.2756
 2660SOL    HW211383   9.091  10.359   2.506  1.9590 -1.8675  0.0844
 2661SOL     OW11384   1.090   1.781   9.582 -0.2270 -0.3230  0.7328
 2661SOL    HW111385   1.139   1.862   9.598  2.1103 -1.4708 -0.1743
 2661SOL    HW211386   1.066   1.750   9.669 -0.3485  0.8362  1.1374
 2662SOL     OW11387   4.704   7.959   1.649 -0.0128  0.0996 -0.2155
 2662SOL    HW111388   4.643   7.954   1.723 -0.7208  0.9320 -0.7252
 2662SOL    HW211389   4.771   8.022   1.677  0.3435 -0.4390  0.1519
 2663SOL     OW11390   6.064   4.761   3.861  0.2796  0.1660  0.6201
 2663SOL    HW111391   6.129   4.745   3.929  0.2113  1.6240  1.0649
 2663SOL    HW211392   6.114   4.760   3.779  0.2315 -2.4305  0.5441
 2664SOL     OW11393   5.860   5.791   2.937  0.0782  0.7284 -0.4586
 2664SOL    HW111394   5.878   5.774   3.029 -0.8793 -0.8475 -0.5138
 2664SOL    HW211395   5.764   5.789   2.931  0.0558  2.3903 -1.2351
 2665SOL     OW11396   1.725   0.243   0.475 -0.3820  0.3117 -0.0649
 2665SOL    HW111397   1.705   0.150   0.468  2.8219 -0.4283 -0.6374
 2665SOL    HW211398   1.720   0.261   0.569  0.0106 -0.7118  0.1650
 2666SOL     OW11399   1.737   5.657   6.146 -0.9578 -0.1034 -0.9149
 2666SOL    HW111400   1.743   5.603   6.067 -2.2846 -0.0146 -1.1004
 2666SOL    HW211401   1.784   5.737   6.124 -0.4941 -0.4652 -1.2658
 2667SOL     OW11402   7.349   0.575   8.315  0.4335 -0.0437 -0.3527
 2667SOL    HW111403   7.409   0.503   8.334 -0.4159 -0.4232  1.1002
 2667SOL    HW211404   7.263   0.541   8.340 -0.7015 -0.1080 -3.8928
 2668SOL     OW11405   8.070   3.513   5.981  0.3180 -0.1133  0.0281
 2668SOL    HW111406   8.156   3.552   5.993  1.0110 -1.2045 -1.1918
 2668SOL    HW211407   8.074   3.469   5.896 -1.5263  0.0196 -0.1804
 2669SOL     OW11408   6.580   1.348   6.288  0.5350  0.1335  0.4922
 2669SOL    HW111409   6.609   1.258   6.302  0.0603  0.0798  1.1810
 2669SOL    HW211410   6.657   1.393   6.255  0.2680 -0.9789 -1.9100
 2670SOL     OW11411   7.714   4.877   4.221  0.6289 -0.1202 -0.1784
 2670SOL    HW111412   7.809   4.893   4.226  0.8325 -1.3005 -0.1066
 2670SOL    HW211413   7.691   4.844   4.307  0.1505  0.0900 -0.2225
 2671SOL     OW11414   7.369   9.408  10.908  0.1286  0.4516 -0.2045
 2671SOL    HW111415   7.425   9.486  10.901  1.5654 -0.6866 -3.3989
 2671SOL    HW211416   7.293   9.428  10.854 -0.6120  0.4596  0.8222
 2672SOL     OW11417   6.493   1.943   8.029  0.4551 -0.0515 -1.0370
 2672SOL    HW111418   6.533   2.026   8.053  1.2263 -0.8704  0.6912
 2672SOL    HW211419   6.402   1.951   8.058  0.0946  0.7278 -2.2989
 2673SOL     OW11420   3.242   4.712   2.213  0.3522  0.1739 -0.6196
 2673SOL    HW111421   3.226   4.737   2.122 -0.7689 -0.2839 -0.5593
 2673SOL    HW211422   3.267   4.619   2.208 -0.8821 -0.1825 -0.3664
 2674SOL     OW11423   0.047   2.126   7.891 -0.0586  0.6726 -0.0769
 2674SOL    HW111424   0.109   2.131   7.964  0.0870  0.8366 -0.2119
 2674SOL    HW211425  -0.038   2.140   7.932 -0.3714 -2.4667  0.6098
 2675SOL     OW11426   8.733   4.984   8.672 -0.6550 -0.4809  0.0431
 2675SOL    HW111427   8.762   4.924   8.603 -0.6232 -1.0417  0.5398
 2675SOL    HW211428   8.743   4.934   8.753  0.6261  0.6248  0.6059
 2676SOL     OW11429   0.691   9.050   7.685 -0.9806  0.0348 -0.5366
 2676SOL    HW111430   0.649   9.058   7.770  3.3268 -1.0894  2.0160
 2676SOL    HW211431   0.704   8.956   7.673 -1.3818  0.1708 -2.4796
 2677SOL     OW11432  10.482   3.644   7.967 -0.0053 -0.2212  0.2710
 2677SOL    HW111433  10.402   3.693   7.948 -0.1995 -1.1179 -1.3778
 2677SOL    HW211434  10.500   3.664   8.059 -1.6270  0.6919  0.4421
 2678SOL     OW11435   8.314   7.911   2.484  0.0498 -0.1741 -0.1363
 2678SOL    HW111436   8.223   7.882   2.487 -0.2783  0.8160 -0.2785
 2678SOL    HW211437   8.346   7.900   2.573 -0.4189  0.1290  0.0730
 2679SOL     OW11438   5.581   1.603   5.278 -0.5089  0.2559 -0.2856
 2679SOL    HW111439   5.627   1.667   5.223  1.5343 -0.9630 -0.1152
 2679SOL    HW211440   5.512   1.653   5.321  1.1132  2.4265 -0.0089
 2680SOL     OW11441   8.435   5.196   6.549 -0.3509  0.4970 -0.3965
 2680SOL    HW111442   8.358   5.252   6.546  0.1729  1.2774  0.2339
 2680SOL    HW211443   8.505   5.248   6.509  0.1169  0.2589  0.0833
 2681SOL     OW11444  10.061   0.829   4.096  0.0227  0.7119  0.1013
 2681SOL    HW111445  10.053   0.893   4.025 -2.1684  0.8931  0.4326
 2681SOL    HW211446   9.982   0.775   4.088  0.5702 -0.3345  1.3865
 2682SOL     OW11447   4.399   0.981   2.019  0.7112 -0.4809  0.3693
 2682SOL    HW111448   4.464   1.031   2.069 -1.1759  1.4709  1.0134
 2682SOL    HW211449   4.360   0.922   2.084  1.1762 -1.0099  0.1816
 2683SOL     OW11450   9.480   8.664   0.300  0.3215 -0.1585  0.0969
 2683SOL    HW111451   9.433   8.589   0.335 -1.1968  0.4699 -0.4947
 2683SOL    HW211452   9.481   8.727   0.372 -2.8533  1.1560 -0.8266
 2684SOL     OW11453   3.738   6.953   9.559  0.0017 -0.3279  0.2504
 2684SOL    HW111454   3.824   6.988   9.536 -0.4274  0.2175 -0.5634
 2684SOL    HW211455   3.676   7.014   9.519 -0.7712 -0.5774  1.0307
 2685SOL     OW11456   2.616   0.217   6.718  0.3967 -0.4789  0.6016
 2685SOL    HW111457   2.636   0.310   6.706 -0.5306 -0.4396 -1.0130
 2685SOL    HW211458   2.693   0.171   6.685  0.3506 -0.2813  0.2160
 2686SOL     OW11459   3.640   7.336   4.229  0.0005  0.0873  0.0881
 2686SOL    HW111460   3.585   7.298   4.160 -0.1869  1.3644 -0.4886
 2686SOL    HW211461   3.581   7.394   4.278  0.7717  1.3502 -0.4356
 2687SOL     OW11462   9.157   2.503   7.835  0.5614  0.4139 -0.0660
 2687SOL    HW111463   9.222   2.567   7.804 -0.0509  0.6651 -0.8465
 2687SOL    HW211464   9.103   2.552   7.897  2.5685 -0.4097  2.4887
 2688SOL     OW11465   9.387   6.927   3.884  0.2880 -0.1554  0.1360
 2688SOL    HW111466   9.477   6.904   3.909  1.7236  2.8409 -1.6665
 2688SOL    HW211467   9.343   6.945   3.967  1.4091 -1.3867  1.0516
 2689SOL     OW11468   6.635   2.736   7.027 -0.0806  0.3081 -0.2655
 2689SOL    HW111469   6.604   2.827   7.030 -0.0643  0.2913  0.6288
 2689SOL    HW211470   6.556   2.683   7.023 -0.1569  0.3113  0.8350
 2690SOL     OW11471   7.425   2.720   8.298  0.6232 -0.7216  0.0719
 2690SOL    HW111472   7.510   2.762   8.284  0.2354  0.2997  0.6785
 2690SOL    HW211473   7.411   2.724   8.392  0.5402 -2.1830  0.1407
 2691SOL     OW11474   9.141   5.942   8.597  0.4677  0.2940  0.5799
 2691SOL    HW111475   9.209   5.970   8.658  0.5579  0.9925  0.1710
 2691SOL    HW211476   9.080   6.016   8.593  1.3984  1.0373 -1.5145
 2692SOL     OW11477   3.021   3.795  10.507  0.6292 -0.2319  0.3679
 2692SOL    HW111478   3.054   3.715  10.549 -2.5232 -0.6107  2.4511
 2692SOL    HW211479   3.036   3.781  10.413  1.4031 -2.6710  0.7885
 2693SOL     OW11480   3.800   3.431   2.039 -0.6427  0.4982  0.1090
 2693SOL    HW111481   3.737   3.400   1.974 -0.7621  0.5546  0.1986
 2693SOL    HW211482   3.756   3.504   2.082 -0.4568  0.6356  0.0652
 2694SOL     OW11483   8.172  10.667   8.985 -0.7664 -0.3177  0.0413
 2694SOL    HW111484   8.139  10.594   8.932  3.5821 -1.4667 -1.5162
 2694SOL    HW211485   8.201  10.625   9.066 -0.1962  0.0010  0.0077
 2695SOL     OW11486   4.594   1.296  10.096  0.9444 -0.4673  0.4312
 2695SOL    HW111487   4.629   1.382  10.075 -1.5003  0.8166  1.2866
 2695SOL    HW211488   4.610   1.285  10.190  0.1491 -0.3759  0.5858
 2696SOL     OW11489   7.170   9.669   6.573  0.0836 -0.5686 -0.7184
 2696SOL    HW111490   7.202   9.600   6.631  0.1105  0.5468  0.6506
 2696SOL    HW211491   7.088   9.699   6.614  0.0428  0.1716 -1.3057
 2697SOL     OW11492   3.123   8.799   9.849  0.0531  0.6504  0.0817
 2697SOL    HW111493   3.049   8.742   9.828  0.5677  0.2809 -0.8012
 2697SOL    HW211494   3.187   8.781   9.780  0.8549  1.1663  0.6796
 2698SOL     OW11495   7.289   2.207   3.743 -0.4208 -0.0507  0.2581
 2698SOL    HW111496   7.283   2.196   3.838  0.6228 -0.7785  0.2536
 2698SOL    HW211497   7.367   2.261   3.730 -0.3634 -0.2381 -0.1995
 2699SOL     OW11498   7.077   5.730   1.478  0.0852 -0.1015 -0.3056
 2699SOL    HW111499   7.131   5.652   1.494 -0.5360 -0.2416  1.2749
 2699SOL    HW211500   7.106   5.762   1.393  1.3563 -1.2399 -0.3341
 2700SOL     OW11501   5.927   3.605   1.749 -0.3515  0.1701  0.3387
 2700SOL    HW111502   5.920   3.641   1.838 -2.0922  0.6489  0.0363
 2700SOL    HW211503   5.925   3.682   1.692  0.9396 -0.1259 -0.1366
 2701SOL     OW11504   0.605   3.031   3.464 -0.0526 -0.2792 -0.0846
 2701SOL    HW111505   0.606   3.126   3.472 -0.8694 -0.3419  1.1294
 2701SOL    HW211506   0.614   3.014   3.371  0.5370  0.9679 -0.2757
 2702SOL     OW11507   0.924   7.413  10.850 -0.3760  0.6299 -0.2024
 2702SOL    HW111508   0.987   7.352  10.889 -0.3563  0.3224 -0.7134
 2702SOL    HW211509   0.864   7.357  10.801  0.0008  1.0639 -1.1848
 2703SOL     OW11510   0.191  10.250   7.357  0.2820  0.0671 -0.0908
 2703SOL    HW111511   0.161  10.233   7.446  0.9829  0.1551  0.1730
 2703SOL    HW211512   0.261  10.314   7.367  1.4918 -1.1267 -0.5177
 2704SOL     OW11513   4.853   5.320   1.422 -0.1968  0.5228 -0.3053
 2704SOL    HW111514   4.934   5.353   1.384 -0.4694  1.5123 -0.0428
 2704SOL    HW211515   4.880   5.284   1.507 -0.2652  2.3739  0.5371
 2705SOL     OW11516   4.413   9.608   7.860 -0.6558 -0.0044  0.5114
 2705SOL    HW111517   4.482   9.663   7.897  0.7084 -1.6702  0.6006
 2705SOL    HW211518   4.443   9.590   7.771 -0.5530 -1.3598  0.7947
 2706SOL     OW11519   4.488   8.019   8.962  0.6371  0.4308  0.1864
 2706SOL    HW111520   4.508   8.029   8.869 -0.4420 -3.4322 -0.6427
 2706SOL    HW211521   4.472   8.109   8.993 -1.4858  1.7651 -3.9597
 2707SOL     OW11522   8.008   4.616  10.853  0.2737 -0.4612  0.0512
 2707SOL    HW111523   8.065   4.684  10.817  1.2991 -0.5421  1.4215
 2707SOL    HW211524   7.946   4.596  10.783  0.6988  1.0393 -0.7862
 2708SOL     OW11525   1.961   3.310   2.180  0.5136  0.4958 -0.1260
 2708SOL    HW111526   2.000   3.346   2.100  1.3496  1.1448  0.5488
 2708SOL    HW211527   2.016   3.234   2.201 -0.0753 -0.0427 -0.4861
 2709SOL     OW11528   0.419   5.254   3.068 -0.2048 -0.1296 -0.2887
 2709SOL    HW111529   0.464   5.277   3.149 -1.5075  1.3745  0.0487
 2709SOL    HW211530   0.338   5.210   3.096 -0.0179 -0.8560 -0.8288
 2710SOL     OW11531   4.859   1.696   2.912 -0.3000  0.4266 -0.1888
 2710SOL    HW111532   4.842   1.641   2.835  0.8812 -0.0677 -0.1224
 2710SOL    HW211533   4.903   1.774   2.876  0.5171  0.0640 -0.0039
 2711SOL     OW11534   3.371   7.173   5.992  0.6601  0.1971 -0.5180
 2711SOL    HW111535   3.348   7.225   5.915  1.5930  0.4935 -0.6066
 2711SOL    HW211536   3.297   7.184   6.052  0.4734  0.9384 -0.8823
 2712SOL     OW11537   4.677   2.578   8.185 -0.0734 -0.9127 -0.6641
 2712SOL    HW111538   4.735   2.519   8.234 -0.8017 -1.3220 -0.2650
 2712SOL    HW211539   4.732   2.653   8.163  0.1346 -0.4283  1.3369
 2713SOL     OW11540   5.233   1.510   5.653  0.0619  0.1730  0.3891
 2713SOL    HW111541   5.262   1.419   5.655  1.0049  0.3552 -2.0866
 2713SOL    HW211542   5.160   1.511   5.591 -0.5466  0.9892  1.0811
 2714SOL     OW11543   8.382   3.349   3.525  0.2423  0.2092 -0.2108
 2714SOL    HW111544   8.434   3.399   3.461  0.3041 -1.9008 -1.9517
 2714SOL    HW211545   8.292   3.358   3.494  0.1501  0.0242  0.0050
 2715SOL     OW11546   4.174   5.301   4.685  0.1334 -0.5612  0.2755
 2715SOL    HW111547   4.261   5.307   4.646  0.3933 -0.2308  0.8893
 2715SOL    HW211548   4.190   5.298   4.779 -0.5644  0.5332  0.4503
 2716SOL     OW11549   1.229   5.350   2.383 -0.1035  0.3549  0.5380
 2716SOL    HW111550   1.180   5.404   2.321 -1.6451 -0.2984  1.1345
 2716SOL    HW211551   1.173   5.274   2.398  0.6997  0.0023  1.9462
 2717SOL     OW11552   2.166   2.140   2.879 -0.0073 -0.2900 -0.1209
 2717SOL    HW111553   2.213   2.091   2.812  1.1315  0.7819 -0.1295
 2717SOL    HW211554   2.101   2.077   2.913 -0.0076 -1.1199 -1.5764
 2718SOL     OW11555   4.699   1.295   2.009 -0.0196  0.1309 -0.0073
 2718SOL    HW111556   4.769   1.292   2.075  0.1427  1.5635 -0.0898
 2718SOL    HW211557   4.737   1.252   1.933  0.3519 -0.1453  0.3264
 2719SOL     OW11558   1.526   1.608   2.366 -0.0779 -0.1965  0.1017
 2719SOL    HW111559   1.584   1.537   2.338  1.3487  1.0022 -0.0488
 2719SOL    HW211560   1.549   1.623   2.458  0.7678  1.1163 -0.2979
 2720SOL     OW11561   1.865  10.918   9.195 -0.0784  0.0895  0.2519
 2720SOL    HW111562   1.954  10.901   9.163 -0.9197 -0.9231 -1.7249
 2720SOL    HW211563   1.840  11.000   9.153  0.0923  0.6582  1.2357
 2721SOL     OW11564   9.464   2.656   8.660 -0.6535  0.1889  0.0301
 2721SOL    HW111565   9.484   2.580   8.606 -0.2780  0.3966 -0.1263
 2721SOL    HW211566   9.398   2.625   8.722 -0.7306 -0.1789 -0.2347
 2722SOL     OW11567  10.471   7.822   4.895 -0.2752 -0.0462  0.6552
 2722SOL    HW111568  10.470   7.817   4.800  1.7033  0.9560  0.5266
 2722SOL    HW211569  10.504   7.909   4.915 -0.1889 -0.4011  2.2565
 2723SOL     OW11570   8.309   6.733   9.174  0.6765  0.2358  0.0168
 2723SOL    HW111571   8.352   6.671   9.232  0.1451  1.0161  1.2796
 2723SOL    HW211572   8.334   6.704   9.086  0.6741 -1.5823  0.5622
 2724SOL     OW11573   4.339   4.140   7.413 -0.7486  0.0407  0.0009
 2724SOL    HW111574   4.374   4.062   7.457 -1.1647 -0.1858 -0.0595
 2724SOL    HW211575   4.412   4.201   7.411 -0.6769 -0.0037  0.8829
 2725SOL     OW11576   6.074   5.436  10.443 -0.0756  0.2914 -0.5110
 2725SOL    HW111577   6.106   5.513  10.395  1.0654  0.3263  0.2567
 2725SOL    HW211578   5.980   5.434  10.426 -0.3034  2.4195  0.2103
 2726SOL     OW11579   0.106   8.117   9.134  0.4470  0.6968 -0.0260
 2726SOL    HW111580   0.036   8.127   9.069  0.5825  0.6496 -0.1811
 2726SOL    HW211581   0.080   8.173   9.207 -1.1227 -1.3840  1.1038
 2727SOL     OW11582   6.157   1.069   3.555  0.4991  0.0076  0.1459
 2727SOL    HW111583   6.105   1.108   3.625 -0.1631 -0.9892  0.2332
 2727SOL    HW211584   6.127   1.113   3.475  0.9602  0.8523  0.4249
 2728SOL     OW11585   1.250  10.652   9.114  0.0961 -0.3103 -0.5226
 2728SOL    HW111586   1.328  10.685   9.070 -0.1173 -1.0201 -1.4723
 2728SOL    HW211587   1.272  10.654   9.207  0.3656  1.7243 -0.5780
 2729SOL     OW11588  10.401   5.149   5.070  0.0443  0.0363  0.0864
 2729SOL    HW111589  10.496   5.150   5.062  0.1692  1.7732  1.2081
 2729SOL    HW211590  10.370   5.190   4.989  0.3288  0.5082  0.2093
 2730SOL     OW11591  10.709   3.597   3.722 -0.1148 -0.0466 -0.3234
 2730SOL    HW111592  10.635   3.627   3.669 -0.4733 -1.5606 -0.7336
 2730SOL    HW211593  10.670   3.533   3.783  0.4051  1.1447  1.3470
 2731SOL     OW11594   2.938   4.107   0.975 -0.0842  0.3608  0.2364
 2731SOL    HW111595   2.908   4.144   0.892  1.8359 -1.7054 -1.5048
 2731SOL    HW211596   2.922   4.013   0.967  0.3171  0.0772  2.1657
 2732SOL     OW11597   9.437   3.944   7.843  0.5207 -0.0396 -0.4619
 2732SOL    HW111598   9.360   3.897   7.874  0.0664 -0.8257 -2.5596
 2732SOL    HW211599   9.510   3.908   7.893 -0.1724 -1.1232 -0.2124
 2733SOL     OW11600   5.507  10.517   3.216  0.4754 -0.0282 -0.3499
 2733SOL    HW111601   5.456  10.559   3.285 -0.2752  2.1557 -2.1161
 2733SOL    HW211602   5.471  10.429   3.209 -2.0149  0.9172 -0.4311
 2734SOL     OW11603   0.255   9.850   2.782  0.5564 -0.5047  0.0899
 2734SOL    HW111604   0.313   9.881   2.852  2.2481 -0.6642 -1.1718
 2734SOL    HW211605   0.303   9.777   2.743 -1.2210 -1.6350 -0.0464
 2735SOL     OW11606   6.699   7.082   4.955  0.1758  0.6606  0.1252
 2735SOL    HW111607   6.728   7.130   4.878 -1.0432  0.8212 -0.2560
 2735SOL    HW211608   6.719   6.990   4.935  2.8580  0.9600  1.0121
 2736SOL     OW11609   6.043   9.164   2.991 -0.2907 -0.1239 -0.3733
 2736SOL    HW111610   6.099   9.174   3.069 -0.9285  0.4332  0.0231
 2736SOL    HW211611   6.079   9.088   2.945 -0.0363 -0.5980  0.5861
 2737SOL     OW11612   9.763   1.257   1.725  0.3773  0.0071  0.0471
 2737SOL    HW111613   9.717   1.294   1.649 -1.1430 -1.6113  0.1054
 2737SOL    HW211614   9.812   1.183   1.690 -0.9166 -1.2122  0.6829
 2738SOL     OW11615   8.833   7.794   4.338 -0.2912 -0.4194 -0.0716
 2738SOL    HW111616   8.859   7.885   4.321  0.0368 -0.3045  1.0017
 2738SOL    HW211617   8.895   7.742   4.286  1.5574 -0.1111  1.7030
 2739SOL     OW11618   1.342   9.252   1.227 -0.6582 -0.2750 -0.0988
 2739SOL    HW111619   1.429   9.291   1.237 -1.3075  0.7840  1.9738
 2739SOL    HW211620   1.359   9.158   1.221  0.6819 -0.0081 -1.1496
 2740SOL     OW11621   5.389   9.078   2.606 -0.0932 -0.4911 -0.1214
 2740SOL    HW111622   5.456   9.076   2.675 -1.2023 -3.4852  1.0679
 2740SOL    HW211623   5.317   9.128   2.645  0.2759  0.1081 -0.1941
 2741SOL     OW11624   9.049   6.659   0.279  0.5048  0.1272  0.5022
 2741SOL    HW111625   9.120   6.650   0.342  1.6456 -0.0594 -0.7500
 2741SOL    HW211626   8.975   6.691   0.330  1.9039  1.7594  1.6220
 2742SOL     OW11627   3.454   3.670   1.465 -0.1595  0.0624 -0.0966
 2742SOL    HW111628   3.400   3.601   1.426  2.4609 -1.5064 -1.2341
 2742SOL    HW211629   3.448   3.654   1.559 -0.8408 -0.7260 -0.2573
 2743SOL     OW11630   3.149   7.258   1.163 -0.1352 -0.1735 -0.1957
 2743SOL    HW111631   3.065   7.211   1.162 -0.5273  0.5095 -0.6212
 2743SOL    HW211632   3.202   7.213   1.228 -0.8567 -0.5889  0.1102
 2744SOL     OW11633   9.477   3.380   0.990  0.1787  0.8883 -0.5119
 2744SOL    HW111634   9.451   3.375   1.082 -0.0279 -0.8840 -0.6299
 2744SOL    HW211635   9.573   3.372   0.992  0.0680 -0.7983 -0.5038
 2745SOL     OW11636   8.169   3.407   2.121 -0.4957  0.1426 -0.2078
 2745SOL    HW111637   8.121   3.417   2.202 -0.9864 -0.4171 -0.4207
 2745SOL    HW211638   8.261   3.403   2.147 -0.5239  1.5667  0.1706
 2746SOL     OW11639   3.702   2.464   4.775 -0.6923  0.2445 -0.0040
 2746SOL    HW111640   3.647   2.440   4.701  1.4882 -0.4414 -1.4992
 2746SOL    HW211641   3.712   2.559   4.768 -0.3251  0.1564 -0.7461
 2747SOL     OW11642   0.064   8.464  10.899  0.3872 -0.2098  0.6943
 2747SOL    HW111643  -0.024   8.500  10.902  0.1660 -0.7232  0.4454
 2747SOL    HW211644   0.069   8.419  10.815  0.9587 -0.0059  0.6115
 2748SOL     OW11645   1.719   4.724   2.064  0.4110 -0.2515 -0.0320
 2748SOL    HW111646   1.704   4.632   2.043  1.7575 -0.2659 -1.0552
 2748SOL    HW211647   1.633   4.765   2.061 -0.0967 -1.3318 -0.3132
 2749SOL     OW11648   8.076   4.306   5.862 -1.0411  0.1836  0.2213
 2749SOL    HW111649   8.034   4.392   5.869 -4.6946 -1.3467 -0.6974
 2749SOL    HW211650   8.064   4.280   5.771  2.0647 -0.4675 -0.1236
 2750SOL     OW11651   2.127  10.884   0.255  0.5809  0.3851 -0.0171
 2750SOL    HW111652   2.079  10.865   0.336  0.4040 -0.3634 -0.2868
 2750SOL    HW211653   2.102  10.813   0.196  2.0358 -0.0325 -0.1572
 2751SOL     OW11654   4.416   0.349   8.451  0.0430  0.8833  0.0758
 2751SOL    HW111655   4.476   0.346   8.377 -0.3955 -1.0293 -0.2461
 2751SOL    HW211656   4.446   0.423   8.504 -0.0331  2.7463 -2.3332
 2752SOL     OW11657   4.682   7.756   7.334 -0.1978  0.7534  0.2497
 2752SOL    HW111658   4.644   7.710   7.408 -0.3172  0.5628  0.0714
 2752SOL    HW211659   4.650   7.709   7.257 -0.9250  1.5767  0.0304
 2753SOL     OW11660  10.490   7.553  10.797  0.4118  0.1101  0.6954
 2753SOL    HW111661  10.499   7.548  10.702 -0.4290  0.7121  0.5725
 2753SOL    HW211662  10.406   7.597  10.811  0.8012  0.5602  1.7135
 2754SOL     OW11663   8.629   4.933   6.154 -0.4732  0.1396  0.5110
 2754SOL    HW111664   8.659   4.843   6.140  0.7936  0.4184  1.2740
 2754SOL    HW211665   8.582   4.930   6.238 -0.4263  0.1732  0.5394
 2755SOL     OW11666   9.376   5.516   9.281  0.0007  0.1798 -0.0794
 2755SOL    HW111667   9.363   5.548   9.192 -0.7150  2.6273  0.8331
 2755SOL    HW211668   9.463   5.547   9.305 -0.0269 -0.0027  0.2618
 2756SOL     OW11669   4.301   8.335   1.852  0.4051 -0.0958  0.4249
 2756SOL    HW111670   4.225   8.276   1.851 -0.9236  1.4803  1.4695
 2756SOL    HW211671   4.376   8.279   1.837 -0.9886 -1.7104 -0.8502
 2757SOL     OW11672   3.832   4.591   3.629  0.1120 -0.1480  0.2172
 2757SOL    HW111673   3.836   4.560   3.719 -1.8337 -0.6952  0.1620
 2757SOL    HW211674   3.864   4.517   3.577 -1.0894 -0.7831  0.3334
 2758SOL     OW11675   6.430   9.378   6.176  0.1963 -0.2453  0.2593
 2758SOL    HW111676   6.394   9.389   6.088  1.6794  0.4740 -0.2884
 2758SOL    HW211677   6.492   9.305   6.168  0.2220 -0.2803  0.7427
 2759SOL     OW11678   7.068   3.096   3.478 -0.3290 -0.5233 -0.3177
 2759SOL    HW111679   7.067   3.092   3.573 -1.4922  0.3662 -0.2599
 2759SOL    HW211680   7.021   3.177   3.457 -1.0316 -1.2402 -1.6600
 2760SOL     OW11681   8.744   4.535   0.116 -0.1028  0.5550 -0.0501
 2760SOL    HW111682   8.658   4.514   0.152 -0.5817  0.0316 -1.4392
 2760SOL    HW211683   8.805   4.514   0.186 -0.9981 -0.3447  0.4866
 2761SOL     OW11684   8.273   4.331   4.128  0.1440 -0.0456  0.2476
 2761SOL    HW111685   8.351   4.294   4.170 -0.1995  0.3281  1.2588
 2761SOL    HW211686   8.287   4.316   4.035  1.3605 -0.1083  0.4144
 2762SOL     OW11687   9.247   3.969  10.078  0.4098  0.5598 -0.7451
 2762SOL    HW111688   9.191   3.961  10.155  0.9908 -0.2964 -0.3954
 2762SOL    HW211689   9.301   4.046  10.095  0.5604  0.3529 -0.2731
 2763SOL     OW11690   9.184   4.303   8.076  0.1370 -0.2866 -0.1134
 2763SOL    HW111691   9.205   4.396   8.071  2.0317 -0.7149 -1.3133
 2763SOL    HW211692   9.244   4.268   8.143 -2.1524 -0.3239  2.0686
 2764SOL     OW11693   1.584   1.215   6.309 -0.0456 -0.6801  0.7630
 2764SOL    HW111694   1.535   1.271   6.249  1.2337 -1.2459 -0.8874
 2764SOL    HW211695   1.672   1.252   6.311  0.0823 -0.9936  1.8919
 2765SOL     OW11696   0.612   3.773   4.544  0.1630  0.3717  0.5272
 2765SOL    HW111697   0.608   3.840   4.476 -4.8664 -0.7341 -0.7269
 2765SOL    HW211698   0.658   3.700   4.503 -1.0418  0.4431 -1.0787
 2766SOL     OW11699   2.913   1.720   3.835 -0.0330  0.1164  0.2385
 2766SOL    HW111700   2.968   1.793   3.866 -0.3995  0.6985 -0.4673
 2766SOL    HW211701   2.854   1.760   3.771  0.1923 -0.9181 -0.6422
 2767SOL     OW11702   6.310   0.715   4.102  0.1627  0.0178  0.1976
 2767SOL    HW111703   6.328   0.633   4.147 -3.1419 -0.9857 -0.0517
 2767SOL    HW211704   6.362   0.711   4.022 -1.2218 -2.7298 -0.6741
 2768SOL     OW11705   1.623   0.174   4.130 -0.0735  0.5678  0.0895
 2768SOL    HW111706   1.625   0.181   4.226  0.2219 -1.2687  0.2431
 2768SOL    HW211707   1.658   0.258   4.100  2.2619  0.2510  1.6243
 2769SOL     OW11708   3.915   2.758   7.293  0.2935 -0.1242 -0.2882
 2769SOL    HW111709   3.885   2.716   7.373  0.3530 -0.7576 -0.5894
 2769SOL    HW211710   4.009   2.769   7.305  0.3396 -0.4288 -0.3601
 2770SOL     OW11711   6.475   2.007   0.197  0.0389 -0.2342 -0.0961
 2770SOL    HW111712   6.444   2.020   0.107  1.1900  2.6257 -0.1722
 2770SOL    HW211713   6.570   2.007   0.190  0.1450  0.0482  1.1271
 2771SOL     OW11714   2.369   9.084   2.875 -0.2567 -0.0284 -0.2337
 2771SOL    HW111715   2.303   9.112   2.938 -1.5324 -2.0678 -0.5942
 2771SOL    HW211716   2.449   9.074   2.927 -1.1669 -1.2042  0.9993
 2772SOL     OW11717   5.821  10.218   8.152  0.9747  0.2964  0.9029
 2772SOL    HW111718   5.864  10.304   8.152  0.8598  0.3560  0.6024
 2772SOL    HW211719   5.728  10.238   8.163  0.8253  0.2805 -0.2099
 2773SOL     OW11720   1.330   2.475  10.278  0.2506 -0.0410  0.1983
 2773SOL    HW111721   1.287   2.462  10.363 -0.7398 -2.5979 -0.5776
 2773SOL    HW211722   1.404   2.414  10.280 -0.0780 -0.4930 -0.9488
 2774SOL     OW11723   1.708  10.351   1.116  0.3496  0.0389 -0.1068
 2774SOL    HW111724   1.703  10.365   1.211 -0.1649  0.7143 -0.2314
 2774SOL    HW211725   1.716  10.256   1.108  1.6302  0.0635  0.6534
 2775SOL     OW11726   3.036   3.157   2.999  0.4408  0.2037 -0.0646
 2775SOL    HW111727   2.992   3.087   2.952  3.4254 -1.2874 -0.9292
 2775SOL    HW211728   3.029   3.233   2.941  1.8885 -0.9372 -1.8507
 2776SOL     OW11729   3.860   5.425   0.967 -0.3590 -0.1347  0.4199
 2776SOL    HW111730   3.865   5.455   1.058 -0.0902  0.2206  0.2870
 2776SOL    HW211731   3.946   5.445   0.930 -0.6115  0.1153 -0.0350
 2777SOL     OW11732   2.208   6.645  10.396  0.0772 -0.0764 -0.2889
 2777SOL    HW111733   2.117   6.656  10.424  0.3520 -0.8222  0.9544
 2777SOL    HW211734   2.203   6.649  10.300 -1.0182  1.5374 -0.2065
 2778SOL     OW11735   9.804   4.969   0.300 -0.4830 -0.1306 -0.0252
 2778SOL    HW111736   9.759   5.033   0.355  0.5767 -0.7943  1.7069
 2778SOL    HW211737   9.752   4.965   0.220 -0.4593  3.0991 -0.3732
 2779SOL     OW11738   9.785   9.556  10.341  0.0338  0.2423 -0.2682
 2779SOL    HW111739   9.727   9.510  10.402  0.6862 -0.7278 -0.3555
 2779SOL    HW211740   9.758   9.648  10.347  0.0382  0.1647  1.4383
 2780SOL     OW11741   3.115   9.123   1.383  0.2127  0.0361 -0.3701
 2780SOL    HW111742   3.047   9.119   1.316 -2.2646 -1.6139  2.0565
 2780SOL    HW211743   3.156   9.037   1.380  1.0441  0.4267 -0.6254
 2781SOL     OW11744  10.766   5.628   5.750  0.3352  0.1497 -0.1175
 2781SOL    HW111745  10.830   5.687   5.709  0.0915  0.7677  0.3772
 2781SOL    HW211746  10.738   5.571   5.679  2.3977 -1.0073 -0.0930
 2782SOL     OW11747   2.056   9.314   7.875  0.2951 -0.5049 -0.3888
 2782SOL    HW111748   2.133   9.328   7.930 -1.2886  1.3690  1.5246
 2782SOL    HW211749   2.039   9.220   7.882  1.4920 -0.6932  0.4166
 2783SOL     OW11750   9.935  10.312   3.630 -0.5480 -0.0274 -0.3923
 2783SOL    HW111751   9.924  10.231   3.579  1.9851 -1.1111  0.6432
 2783SOL    HW211752   9.886  10.296   3.710 -0.9743 -0.0809 -0.6595
 2784SOL     OW11753   3.663   7.238   0.813 -0.2905  0.1241  0.3010
 2784SOL    HW111754   3.634   7.172   0.876 -0.4830  2.1779  2.4746
 2784SOL    HW211755   3.730   7.193   0.761 -1.2270 -2.1107  0.9015
 2785SOL     OW11756   5.949   4.710   5.153 -0.2175  0.6089 -0.7778
 2785SOL    HW111757   6.039   4.725   5.124 -0.4533  0.2948 -1.6959
 2785SOL    HW211758   5.914   4.646   5.091 -1.4221  1.5467 -1.0896
 2786SOL     OW11759   2.945   3.261  10.848 -0.4180  0.5807  0.5498
 2786SOL    HW111760   2.991   3.314  10.913  1.1334  1.0286 -0.8491
 2786SOL    HW211761   2.853   3.282  10.862 -0.1986  0.1140  3.0396
 2787SOL     OW11762   5.254  10.427  10.765 -0.6052  0.1507  0.3138
 2787SOL    HW111763   5.167  10.402  10.794 -0.4021 -0.5713  0.3042
 2787SOL    HW211764   5.262  10.387  10.678 -0.5120  0.7693  0.0294
 2788SOL     OW11765   7.037   2.060   6.762 -0.0854  0.4746 -0.4751
 2788SOL    HW111766   6.973   2.030   6.827 -1.5791  0.4798 -1.8765
 2788SOL    HW211767   7.086   1.981   6.738 -0.6222  0.1521 -0.5168
 2789SOL     OW11768   0.512   5.641   7.138  0.3534  0.2107  1.0701
 2789SOL    HW111769   0.420   5.657   7.116  0.2601 -0.1659  1.1790
 2789SOL    HW211770   0.523   5.683   7.223 -0.1594 -1.1428  1.8283
 2790SOL     OW11771  10.367   5.615  10.151 -0.5218 -0.4385  0.2220
 2790SOL    HW111772  10.436   5.661  10.103 -1.0489  1.6739  1.3750
 2790SOL    HW211773  10.308   5.684  10.181 -1.4783 -1.8981  1.8964
 2791SOL     OW11774   3.565   1.201   4.799  0.0825  0.1397  0.1117
 2791SOL    HW111775   3.526   1.193   4.886 -1.8941  0.8112 -0.6734
 2791SOL    HW211776   3.651   1.160   4.809 -1.4903 -3.2268  1.4562
 2792SOL     OW11777   4.898   5.992   1.634  0.4186 -0.5957  0.3858
 2792SOL    HW111778   4.958   6.063   1.655 -0.4472  1.0208 -2.1204
 2792SOL    HW211779   4.811   6.032   1.641 -0.2936 -2.2636  1.7325
 2793SOL     OW11780   0.657   6.635   6.124 -0.0501  0.2887  0.3312
 2793SOL    HW111781   0.625   6.611   6.037 -0.1155  0.4022  0.3233
 2793SOL    HW211782   0.599   6.706   6.152  0.5222  0.8578  0.0963
 2794SOL     OW11783   8.687   9.317   9.613  0.1367  0.4664 -0.7274
 2794SOL    HW111784   8.760   9.327   9.551  0.8961 -0.0262  0.0574
 2794SOL    HW211785   8.696   9.390   9.673  1.1692 -0.6172  0.5121
 2795SOL     OW11786   5.516   2.174   9.760 -0.0777  0.1219 -0.5188
 2795SOL    HW111787   5.611   2.174   9.757  0.0195  2.5227  0.4515
 2795SOL    HW211788   5.489   2.131   9.679  1.8016 -1.5806 -0.2864
 2796SOL     OW11789   1.177   3.887   4.153 -0.9143 -0.0667 -0.2175
 2796SOL    HW111790   1.145   3.818   4.095  0.1666  0.8334 -1.9813
 2796SOL    HW211791   1.271   3.891   4.137 -0.6350  0.4761  1.3606
 2797SOL     OW11792   9.292   4.577   2.174 -0.1902 -0.3428 -0.0277
 2797SOL    HW111793   9.235   4.511   2.214 -0.7159  0.0007 -0.2070
 2797SOL    HW211794   9.380   4.537   2.177 -0.3540 -0.6694  0.6948
 2798SOL     OW11795   6.049   5.371   3.991  0.4677 -0.7790  0.1713
 2798SOL    HW111796   5.961   5.354   4.023 -0.3400  1.1991 -0.8170
 2798SOL    HW211797   6.069   5.460   4.020  1.3406 -0.4682 -1.2786
 2799SOL     OW11798   2.438   8.337   4.614  0.6081 -0.6961 -0.0898
 2799SOL    HW111799   2.478   8.418   4.646 -0.0435  0.3166 -1.7537
 2799SOL    HW211800   2.502   8.302   4.552 -0.1026 -0.2404 -1.0906
 2800SOL     OW11801   4.823   3.494   2.381  0.1423 -0.2456  0.0335
 2800SOL    HW111802   4.875   3.431   2.331 -1.2051  0.7177 -2.8147
 2800SOL    HW211803   4.736   3.454   2.386 -0.9368  1.5701 -2.4819
 2801SOL     OW11804   1.541   8.341   2.415 -0.0991  0.4345 -0.5076
 2801SOL    HW111805   1.526   8.247   2.425 -1.9482  0.6810 -0.5850
 2801SOL    HW211806   1.470   8.370   2.359  1.6292  1.5678 -2.2408
 2802SOL     OW11807   2.738   8.712  10.178 -0.1411  0.0060 -0.0634
 2802SOL    HW111808   2.709   8.641  10.236 -0.3851 -1.0367 -1.3786
 2802SOL    HW211809   2.800   8.669  10.118  0.7673  1.2365 -0.0173
 2803SOL     OW11810   3.763   4.512   1.871  0.3312  0.0659  0.1304
 2803SOL    HW111811   3.682   4.465   1.857  0.1550  0.8700 -1.9346
 2803SOL    HW211812   3.832   4.452   1.842  0.2420  0.3492 -0.7089
 2804SOL     OW11813   3.862   9.546   2.371  0.0333  0.5738  0.2630
 2804SOL    HW111814   3.886   9.623   2.321 -1.6877 -0.5503 -2.5083
 2804SOL    HW211815   3.942   9.495   2.377  0.3689  0.9000 -1.1249
 2805SOL     OW11816   0.378   0.830  10.109 -0.4689 -0.5413  0.0535
 2805SOL    HW111817   0.299   0.808  10.158 -0.7974  0.5009  0.0247
 2805SOL    HW211818   0.393   0.755  10.051 -1.4131 -0.7681  0.0905
 2806SOL     OW11819   7.921  10.022   5.659  0.5298  0.3729 -0.1744
 2806SOL    HW111820   7.843  10.077   5.664  0.4853  0.3933 -1.0218
 2806SOL    HW211821   7.974  10.049   5.735 -0.4901  0.0172  0.6915
 2807SOL     OW11822   1.612   7.132   3.187 -0.1865 -0.3327 -0.2249
 2807SOL    HW111823   1.691   7.169   3.225 -0.7134 -0.1064  0.6825
 2807SOL    HW211824   1.631   7.124   3.094  0.1665  1.6504 -0.3585
 2808SOL     OW11825   4.777   7.193   5.814  0.3058 -0.5088 -0.7836
 2808SOL    HW111826   4.761   7.148   5.897  2.0872 -0.9553 -0.6251
 2808SOL    HW211827   4.778   7.286   5.837  1.4092 -0.6519 -0.1376
 2809SOL     OW11828   3.085   7.353   2.343  0.1198  0.3988  0.3544
 2809SOL    HW111829   3.157   7.415   2.357  0.3696 -0.0826  1.2484
 2809SOL    HW211830   3.084   7.339   2.248  0.1988  1.5943  0.1671
 2810SOL     OW11831   4.089   8.969   2.012  0.5994 -0.2447 -0.0356
 2810SOL    HW111832   4.052   8.904   2.073  2.1668  0.8669  2.2518
 2810SOL    HW211833   4.145   8.917   1.953 -1.0309 -1.3648 -0.6700
 2811SOL     OW11834   9.621  10.755   1.831  0.1780 -0.6158 -0.4599
 2811SOL    HW111835   9.602  10.786   1.920  0.5856 -3.1896  0.6029
 2811SOL    HW211836   9.641  10.835   1.782 -0.9729  0.9753  1.5038
 2812SOL     OW11837   9.591   2.341  10.650 -0.0939  0.4860 -0.1138
 2812SOL    HW111838   9.640   2.275  10.699 -0.7380 -0.4008 -0.6353
 2812SOL    HW211839   9.514   2.359  10.704 -0.2598  0.3025 -0.2868
 2813SOL     OW11840   3.594   6.401   1.786  0.4762  0.3255  0.0157
 2813SOL    HW111841   3.532   6.369   1.851 -0.5509  1.6020 -0.2976
 2813SOL    HW211842   3.590   6.337   1.716 -1.6080  1.0871 -0.6453
 2814SOL     OW11843   8.368   9.793   0.241  0.0806 -0.3882 -0.1057
 2814SOL    HW111844   8.359   9.869   0.183 -2.7250 -1.1109 -0.7512
 2814SOL    HW211845   8.285   9.789   0.289  0.3272 -2.7769  0.2506
 2815SOL     OW11846   0.879   0.045   4.476 -0.2338 -0.5061  0.1854
 2815SOL    HW111847   0.888   0.021   4.568 -2.5749  0.5796  0.7635
 2815SOL    HW211848   0.785   0.056   4.463  0.1094  0.2509 -2.1197
 2816SOL     OW11849   9.172   6.375   8.540  0.0404 -0.1623  0.5934
 2816SOL    HW111850   9.176   6.439   8.610  1.3647 -0.1399  0.5231
 2816SOL    HW211851   9.103   6.314   8.567 -0.8942  0.9865  0.8967
 2817SOL     OW11852   8.208   7.078   1.215  0.1526 -0.5163  0.0932
 2817SOL    HW111853   8.120   7.083   1.251 -0.3161 -0.9332 -0.9612
 2817SOL    HW211854   8.262   7.126   1.278 -0.6951 -0.8671  1.1241
 2818SOL     OW11855   3.714   0.464  10.701  0.2501  0.5454 -0.3156
 2818SOL    HW111856   3.636   0.514  10.677  1.2139  1.8082 -0.9642
 2818SOL    HW211857   3.786   0.512  10.661  1.1899 -1.8432 -1.7114
 2819SOL     OW11858  10.566   4.885   1.001 -0.5175  0.0123 -0.3208
 2819SOL    HW111859  10.485   4.845   0.969  0.1524 -2.4461  0.8653
 2819SOL    HW211860  10.560   4.879   1.096  1.8691 -2.0918 -0.2156
 2820SOL     OW11861   4.828   4.259   2.917 -0.1006 -0.5340 -0.3487
 2820SOL    HW111862   4.882   4.193   2.961  0.2865  0.2576  0.4084
 2820SOL    HW211863   4.757   4.276   2.979  1.0920  1.4668  0.6214
 2821SOL     OW11864  10.385   0.474   9.885 -0.0281 -0.4657 -0.0600
 2821SOL    HW111865  10.319   0.412   9.917 -1.2207 -0.3991 -2.1956
 2821SOL    HW211866  10.337   0.557   9.878  0.3111 -0.3538 -1.3833
 2822SOL     OW11867   9.050  10.760   0.777  0.4556  0.1093 -0.2103
 2822SOL    HW111868   9.111  10.717   0.837  0.0270  0.0671  0.2106
 2822SOL    HW211869   9.105  10.803   0.712  0.8890 -1.2730 -0.7834
 2823SOL     OW11870   6.268   9.242   2.704  0.0924  0.4360 -0.2835
 2823SOL    HW111871   6.196   9.180   2.719  0.1530 -0.2702 -2.5736
 2823SOL    HW211872   6.230   9.310   2.648  0.9422  0.5674 -0.7242
 2824SOL     OW11873   9.851   8.722   9.363  0.1435 -0.3699  0.1868
 2824SOL    HW111874   9.914   8.651   9.373 -0.2927 -1.0372 -1.4022
 2824SOL    HW211875   9.904   8.802   9.367  1.1047 -0.9057 -0.9960
 2825SOL     OW11876   9.143  10.834   6.710 -0.2211  0.3765  0.5226
 2825SOL    HW111877   9.173  10.806   6.796 -0.0871  1.9755  1.0315
 2825SOL    HW211878   9.064  10.783   6.695  0.5558 -0.9885  0.9296
 2826SOL     OW11879   4.684   4.706   1.820  0.0658  0.7518 -0.4658
 2826SOL    HW111880   4.757   4.653   1.851  0.6939  2.3033  0.8526
 2826SOL    HW211881   4.698   4.714   1.726  1.4498  0.7835 -0.2763
 2827SOL     OW11882   3.106   5.856   5.951  0.4258 -0.2723 -0.7765
 2827SOL    HW111883   3.094   5.950   5.942 -1.2259 -0.3282  0.3920
 2827SOL    HW211884   3.170   5.846   6.021 -1.5665  0.0310  1.2024
 2828SOL     OW11885   3.983   5.652   4.845  0.0694  0.3483 -0.3213
 2828SOL    HW111886   3.988   5.609   4.930 -1.1485  0.0231 -0.3966
 2828SOL    HW211887   4.071   5.640   4.807  0.8932  1.2759  1.2242
 2829SOL     OW11888   2.700   1.413   0.941 -0.0297  0.3541 -0.5730
 2829SOL    HW111889   2.767   1.350   0.967 -2.3058 -1.6788  0.8919
 2829SOL    HW211890   2.675   1.386   0.853 -0.8355 -0.7874 -0.0374
 2830SOL     OW11891   4.308   7.364   2.666 -0.1071 -0.4713 -0.0513
 2830SOL    HW111892   4.402   7.357   2.650 -0.1498 -2.5316  0.3733
 2830SOL    HW211893   4.300   7.434   2.731  1.1163 -0.2955 -0.0612
 2831SOL     OW11894   3.952  10.797   6.713 -0.1965 -0.1687 -0.3509
 2831SOL    HW111895   3.946  10.883   6.753  0.6949 -0.0738 -0.4048
 2831SOL    HW211896   4.030  10.801   6.657 -0.8866 -0.5951 -1.3731
 2832SOL     OW11897   7.066   2.128   9.539 -0.2412 -0.3779 -0.4881
 2832SOL    HW111898   7.055   2.111   9.633 -1.1455  1.9772 -0.0900
 2832SOL    HW211899   7.155   2.161   9.531 -0.6386  0.8315 -0.1717
 2833SOL     OW11900   5.509   6.068   6.448  0.1445 -0.3485  0.0744
 2833SOL    HW111901   5.488   6.035   6.360  0.7631 -0.0294 -0.1985
 2833SOL    HW211902   5.586   6.018   6.475  0.8792  0.5945 -0.1991
 2834SOL     OW11903   2.453   1.584   2.877 -0.7256 -0.2140 -0.3934
 2834SOL    HW111904   2.543   1.559   2.900 -0.5430  1.7680  1.2478
 2834SOL    HW211905   2.460   1.673   2.842 -1.9105 -0.5779 -1.6717
 2835SOL     OW11906   2.643   3.054   9.844 -0.2479  0.2591 -0.1902
 2835SOL    HW111907   2.630   3.109   9.921  0.5654 -0.9271  0.8440
 2835SOL    HW211908   2.689   3.110   9.782 -0.5341  1.1122  0.3513
 2836SOL     OW11909   6.835   4.405   1.656  0.2984  0.1146 -0.0521
 2836SOL    HW111910   6.815   4.362   1.739  0.4301 -0.8966 -0.5267
 2836SOL    HW211911   6.891   4.479   1.680 -1.1914  0.9767  0.9443
 2837SOL     OW11912   1.617   0.161   5.031  0.1952  1.1265 -0.0337
 2837SOL    HW111913   1.570   0.219   5.092  0.5800  0.7608  0.6171
 2837SOL    HW211914   1.599   0.073   5.064 -0.2805  0.8754 -0.9430
 2838SOL     OW11915   8.562   0.293   7.750  0.5314  0.2716  0.0875
 2838SOL    HW111916   8.469   0.312   7.766  0.8428  1.2783  0.7812
 2838SOL    HW211917   8.561   0.208   7.706 -0.7606  0.6175 -0.6094
 2839SOL     OW11918   7.365   4.754   2.564 -0.0994  0.4309 -0.2662
 2839SOL    HW111919   7.322   4.732   2.647 -0.2038 -3.1547 -1.0784
 2839SOL    HW211920   7.296   4.792   2.510 -0.9877 -0.5373  0.1482
 2840SOL     OW11921   5.989   8.648   3.139  0.1484  0.0654 -0.4583
 2840SOL    HW111922   5.936   8.571   3.118 -1.4809  0.9786  0.1142
 2840SOL    HW211923   6.068   8.612   3.178 -1.0041 -1.3172  0.7337
 2841SOL     OW11924  10.649   4.157   3.179  0.0094  0.0429  0.1493
 2841SOL    HW111925  10.672   4.068   3.154 -0.2302  0.3892 -1.4940
 2841SOL    HW211926  10.683   4.168   3.267 -0.1183 -1.7252  0.4506
 2842SOL     OW11927   9.115   0.092   1.317  0.1506 -0.0033 -0.3855
 2842SOL    HW111928   9.142   0.005   1.346 -0.6366  0.1382  0.8709
 2842SOL    HW211929   9.039   0.078   1.262  0.9096 -0.1958 -1.4029
 2843SOL     OW11930   3.767   3.378   6.588  0.0105 -0.2611 -0.4463
 2843SOL    HW111931   3.677   3.389   6.615  0.4863  0.2737  0.9869
 2843SOL    HW211932   3.785   3.285   6.599 -0.2515 -0.3023 -0.3754
 2844SOL     OW11933   4.311   6.708   5.889 -0.5588  0.0376  0.3287
 2844SOL    HW111934   4.318   6.673   5.800 -0.9923  1.2808 -0.2171
 2844SOL    HW211935   4.379   6.662   5.938 -0.7638 -1.1680 -0.4634
 2845SOL     OW11936   7.488   9.254   9.832 -0.0485 -0.5435  0.0326
 2845SOL    HW111937   7.477   9.330   9.889 -0.4953  0.3448 -1.1792
 2845SOL    HW211938   7.557   9.203   9.873  0.2282  0.4877  0.9143
 2846SOL     OW11939   4.434   4.292   9.335  0.0308  0.1611  0.2639
 2846SOL    HW111940   4.494   4.343   9.280 -1.1925  0.8522 -0.4604
 2846SOL    HW211941   4.404   4.354   9.401  0.8928 -0.4611  1.2709
 2847SOL     OW11942   2.278   3.116   0.369  0.4636  0.3892 -0.6135
 2847SOL    HW111943   2.197   3.069   0.388 -0.8280  1.4784 -2.9518
 2847SOL    HW211944   2.323   3.123   0.453  0.0104 -3.5459  0.1447
 2848SOL     OW11945   4.557   2.964  10.227  0.4776  0.0793  0.3495
 2848SOL    HW111946   4.527   2.874  10.240  0.7521 -0.0862 -0.1524
 2848SOL    HW211947   4.548   2.979  10.133  1.7536  0.1104  0.2226
 2849SOL     OW11948   4.892   4.293   9.288  0.0521 -0.1189  0.7123
 2849SOL    HW111949   4.831   4.223   9.309 -0.6215  0.5335  0.9659
 2849SOL    HW211950   4.953   4.295   9.363 -0.9330  0.6534  1.5218
 2850SOL     OW11951   5.191   8.987   5.530  0.4934  0.5537 -0.4778
 2850SOL    HW111952   5.221   9.068   5.487  1.7531  0.4685  0.1830
 2850SOL    HW211953   5.150   9.017   5.611  3.5172  0.4926  1.2354
 2851SOL     OW11954  10.911   3.261   2.766 -0.0697  0.1519 -0.6029
 2851SOL    HW111955  10.893   3.336   2.710 -2.2777  0.2698  0.1714
 2851SOL    HW211956  10.943   3.300   2.848 -2.3300  0.4271  0.2326
 2852SOL     OW11957   1.507   4.127   2.816  0.2709 -0.9368 -0.3093
 2852SOL    HW111958   1.458   4.092   2.890 -0.4418 -0.4401 -0.5305
 2852SOL    HW211959   1.594   4.146   2.851  0.3032 -1.8199  0.0940
 2853SOL     OW11960   8.966   4.354   0.983 -0.3799  0.1042  0.0816
 2853SOL    HW111961   8.937   4.423   0.923 -0.0556  0.4720  0.3455
 2853SOL    HW211962   8.886   4.307   1.006 -0.4300 -0.4804 -1.1847
 2854SOL     OW11963   3.208   5.567   1.275 -0.2483  0.1035 -0.5201
 2854SOL    HW111964   3.128   5.600   1.315  0.3008  1.6744 -0.6630
 2854SOL    HW211965   3.187   5.477   1.249 -2.5854  1.0991 -2.3414
 2855SOL     OW11966   1.337   1.683   9.369  0.0804  0.1957  0.2689
 2855SOL    HW111967   1.252   1.721   9.392  0.2992  0.4324  0.6800
 2855SOL    HW211968   1.330   1.591   9.394  0.6512  0.6372  2.2253
 2856SOL     OW11969   1.121   5.669   1.692 -0.1746  0.1590 -0.1289
 2856SOL    HW111970   1.119   5.651   1.786  0.0134 -1.8433 -0.4695
 2856SOL    HW211971   1.036   5.638   1.660  0.7391 -1.6157 -0.9756
 2857SOL     OW11972   8.884  10.605   0.613 -0.4228  0.2843 -0.4167
 2857SOL    HW111973   8.932  10.651   0.681  0.0834 -0.3226 -0.3532
 2857SOL    HW211974   8.836  10.536   0.660 -0.8743  0.4958 -0.5555
 2858SOL     OW11975  10.463   5.980   3.069 -0.2635  0.0298  0.2310
 2858SOL    HW111976  10.442   5.887   3.066 -0.6208  0.0834  0.8845
 2858SOL    HW211977  10.454   6.004   3.162  0.2616  0.6121  0.1381
 2859SOL     OW11978   1.439   4.462   5.601  0.6110 -0.4993  0.0880
 2859SOL    HW111979   1.417   4.488   5.690  0.6674 -2.2331  0.6419
 2859SOL    HW211980   1.358   4.424   5.566  0.9074 -0.9041 -0.1727
 2860SOL     OW11981   3.379   0.316   8.759  0.1740 -0.2696 -0.4305
 2860SOL    HW111982   3.473   0.332   8.764  0.2580 -0.2314 -1.7538
 2860SOL    HW211983   3.364   0.239   8.815  1.2684 -1.3005 -1.5111
 2861SOL     OW11984   0.742   7.372   1.852 -0.0703  0.2447 -0.3850
 2861SOL    HW111985   0.757   7.444   1.791  0.3972 -1.1335 -1.9598
 2861SOL    HW211986   0.667   7.400   1.905 -2.1920  0.4826 -3.3141
 2862SOL     OW11987   0.699   7.922   6.953 -0.1974 -0.1138  0.4399
 2862SOL    HW111988   0.731   7.921   7.044  1.7119  0.4486 -0.1881
 2862SOL    HW211989   0.669   7.833   6.938 -0.6918 -0.1787  1.6645
 2863SOL     OW11990   8.047   6.410   1.876  0.1025 -0.3975  0.4612
 2863SOL    HW111991   7.970   6.369   1.836  1.2646  0.1250 -2.5560
 2863SOL    HW211992   8.011   6.461   1.948 -2.6649  1.0526 -1.7329
 2864SOL     OW11993   0.379   4.108   2.983  0.7988  0.2802 -0.1586
 2864SOL    HW111994   0.348   4.123   2.894 -0.0863 -0.8172 -0.0530
 2864SOL    HW211995   0.392   4.196   3.019 -0.6916  0.7629 -0.7365
 2865SOL     OW11996   0.928   0.478   4.211 -0.4422  0.2741 -0.8120
 2865SOL    HW111997   0.980   0.427   4.274  0.1326  0.3883 -1.1863
 2865SOL    HW211998   0.907   0.416   4.141 -0.8754  0.2098 -0.6265
 2866SOL     OW11999   1.516   4.353  10.690  0.3908  0.5902  0.5979
 2866SOL    HW112000   1.514   4.280  10.627  0.1995 -0.4887  1.8130
 2866SOL    HW212001   1.452   4.329  10.756 -0.2904  2.2986  0.5971
 2867SOL     OW12002   9.777  10.472   7.978  0.0699 -0.4153  0.5106
 2867SOL    HW112003   9.721  10.401   7.944  0.5237 -1.0348  1.0309
 2867SOL    HW212004   9.864  10.433   7.983  0.8691  0.9477 -1.5713
 2868SOL     OW12005   9.141   2.382   9.868  0.3410 -0.0507  0.6641
 2868SOL    HW112006   9.123   2.450   9.933  2.4048  0.9964  0.2230
 2868SOL    HW212007   9.109   2.301   9.909 -1.0927  0.9884  1.7025
 2869SOL     OW12008   4.071   6.175   6.212 -0.5159  0.8060 -0.4632
 2869SOL    HW112009   4.165   6.176   6.228 -0.5307 -0.9210 -0.0465
 2869SOL    HW212010   4.056   6.246   6.149  1.0750  0.9968 -0.6519
 2870SOL     OW12011   8.739   4.666   8.561  0.1142  0.4381  0.1211
 2870SOL    HW112012   8.824   4.626   8.542 -0.5125 -0.7696 -0.2752
 2870SOL    HW212013   8.698   4.605   8.623 -1.1100  0.1198 -0.9678
 2871SOL     OW12014   3.103   9.465   7.234 -0.2480 -0.0193  0.3903
 2871SOL    HW112015   3.117   9.449   7.141  1.3246 -1.0397  0.7801
 2871SOL    HW212016   3.150   9.395   7.279 -0.8490  0.5316  1.9697
 2872SOL     OW12017  10.615   7.347   1.661 -0.4796  0.4900  0.4340
 2872SOL    HW112018  10.555   7.336   1.587 -0.3406  1.1472  0.2160
 2872SOL    HW212019  10.628   7.258   1.694  0.2071  0.0527 -0.9255
 2873SOL     OW12020   6.540   2.476   9.799  0.2440  0.4509  0.5088
 2873SOL    HW112021   6.593   2.528   9.859  1.3899  1.2171 -1.0965
 2873SOL    HW212022   6.558   2.513   9.712 -0.7692 -1.0844 -0.4101
 2874SOL     OW12023   9.887   9.838   4.626  0.5296  0.2905  0.0371
 2874SOL    HW112024   9.981   9.838   4.644  0.4463 -1.4534  0.7331
 2874SOL    HW212025   9.877   9.774   4.556 -0.4347 -2.1446  2.2426
 2875SOL     OW12026   2.698   2.936   5.403  0.7748 -0.2898 -0.2786
 2875SOL    HW112027   2.640   2.978   5.339  1.4920 -0.5379 -1.1228
 2875SOL    HW212028   2.709   3.001   5.472 -0.9015 -0.4266  0.1695
 2876SOL     OW12029   1.782   4.160   4.259  0.2831  0.8944  0.0820
 2876SOL    HW112030   1.766   4.075   4.217  0.8951  1.5244 -1.5095
 2876SOL    HW212031   1.708   4.214   4.230 -0.3901  0.7801  1.5234
 2877SOL     OW12032   0.311   6.139   8.555  0.8384  0.2852  0.5457
 2877SOL    HW112033   0.370   6.163   8.626  2.7996  0.2129 -0.9418
 2877SOL    HW212034   0.243   6.087   8.596  1.4430  0.9299  2.4660
 2878SOL     OW12035   5.757   7.839   6.451 -0.4170  0.2129  0.6549
 2878SOL    HW112036   5.766   7.746   6.430  0.0946  0.2033  0.8979
 2878SOL    HW212037   5.746   7.882   6.367  1.6315  0.1816  0.3055
 2879SOL     OW12038   1.978   4.715   7.225  1.0517  0.4444 -0.0135
 2879SOL    HW112039   2.003   4.724   7.133  1.1190 -0.3908 -0.0796
 2879SOL    HW212040   1.897   4.665   7.224  0.8600  0.7364  0.3659
 2880SOL     OW12041   8.609   8.304   3.920  0.3443  0.0821  0.1184
 2880SOL    HW112042   8.666   8.231   3.895  0.3876  0.0373  0.3465
 2880SOL    HW212043   8.602   8.298   4.015 -2.1199 -1.5067 -0.0602
 2881SOL     OW12044   1.885  10.493   7.365 -0.9518  0.0549 -0.1232
 2881SOL    HW112045   1.923  10.409   7.390 -0.8323 -0.0352 -0.6066
 2881SOL    HW212046   1.923  10.556   7.427 -0.6331 -0.1626 -0.0967
 2882SOL     OW12047   5.382   1.642   5.845 -0.2228  0.3791 -0.2616
 2882SOL    HW112048   5.337   1.667   5.926 -0.6714 -1.3888  0.0748
 2882SOL    HW212049   5.317   1.593   5.795  0.4621  0.2914 -1.0877
 2883SOL     OW12050   8.113   0.023   4.700 -0.2768  0.1626  0.1483
 2883SOL    HW112051   8.176  -0.000   4.769  0.7971 -0.6443 -1.0604
 2883SOL    HW212052   8.148   0.103   4.662 -1.6681  1.4570  1.4674
 2884SOL     OW12053   1.388   8.436   7.569  0.3407 -0.3556 -0.3382
 2884SOL    HW112054   1.453   8.426   7.500  1.6617 -0.3726  0.8449
 2884SOL    HW212055   1.440   8.455   7.648 -1.1912  2.4436  0.1518
 2885SOL     OW12056   4.051   2.726   3.860 -0.2441  0.4173 -0.6598
 2885SOL    HW112057   4.055   2.733   3.956 -0.3768  1.0499 -0.6979
 2885SOL    HW212058   4.132   2.766   3.829  0.7365 -1.5353 -0.7484
 2886SOL     OW12059   7.012   4.124   2.288  0.1816  0.6069 -0.0287
 2886SOL    HW112060   6.989   4.192   2.352 -2.3340  0.5427 -0.7730
 2886SOL    HW212061   6.990   4.041   2.333  3.1508  0.1674  0.8448
 2887SOL     OW12062   7.227  10.705   1.740 -0.5419 -0.1057  0.4907
 2887SOL    HW112063   7.294  10.771   1.723 -1.4051  0.5449 -0.5294
 2887SOL    HW212064   7.246  10.634   1.679 -1.5192  0.6509 -0.7332
 2888SOL     OW12065   6.254   0.351   2.604  0.4497  0.5629 -0.3631
 2888SOL    HW112066   6.328   0.299   2.636  0.1693  0.0912 -0.4762
 2888SOL    HW212067   6.276   0.440   2.630  0.2675  0.2137  1.1161
 2889SOL     OW12068   0.393   8.744   4.215 -0.6229  0.4913  0.0733
 2889SOL    HW112069   0.405   8.649   4.221 -0.3338  0.6014  1.6390
 2889SOL    HW212070   0.304   8.755   4.179 -1.4731 -0.4039  1.7962
 2890SOL     OW12071   1.716   7.156   3.886  0.0938  0.4409 -0.0663
 2890SOL    HW112072   1.787   7.217   3.864  0.1423  0.1431 -0.7584
 2890SOL    HW212073   1.651   7.210   3.931  1.4447  0.4292  2.0409
 2891SOL     OW12074   1.391   8.882   5.347  0.0449 -0.0876  0.0523
 2891SOL    HW112075   1.402   8.809   5.287  2.6620 -0.8908  1.3607
 2891SOL    HW212076   1.406   8.960   5.293 -1.9170 -0.4763 -1.1614
 2892SOL     OW12077   3.160   5.078   4.940  0.0649 -0.2417  0.2635
 2892SOL    HW112078   3.099   5.060   4.869 -0.0353 -1.8198  0.7044
 2892SOL    HW212079   3.200   4.993   4.959  0.1756  0.1607  1.9925
 2893SOL     OW12080   6.429   1.083   1.438 -0.0634 -0.0834 -0.3426
 2893SOL    HW112081   6.353   1.097   1.381  0.2038 -0.5573 -0.8220
 2893SOL    HW212082   6.390   1.067   1.525 -0.4694  0.5905 -0.3880
 2894SOL     OW12083   8.860   8.458   9.122  0.1433 -0.7887 -0.2006
 2894SOL    HW112084   8.861   8.486   9.030 -0.3718  0.5178  0.1693
 2894SOL    HW212085   8.900   8.530   9.169 -4.0219  0.8993  1.1662
 2895SOL     OW12086   3.894   2.387   5.579  0.1550 -0.9283 -0.5595
 2895SOL    HW112087   3.979   2.387   5.535  1.2294  0.7772  1.2949
 2895SOL    HW212088   3.841   2.447   5.527  0.7458 -0.4680 -0.6482
 2896SOL     OW12089   6.060   8.432   6.106  0.0763  0.4651 -0.2886
 2896SOL    HW112090   6.031   8.488   6.178 -0.1304  0.9273 -0.7238
 2896SOL    HW212091   6.046   8.343   6.137 -0.2091  0.6643  0.1618
 2897SOL     OW12092   0.327   0.646   5.837 -0.0155 -0.2128 -0.2963
 2897SOL    HW112093   0.245   0.688   5.810 -1.1507 -1.3620  1.1966
 2897SOL    HW212094   0.301   0.557   5.862  1.3745 -0.0620  1.8598
 2898SOL     OW12095   8.000   1.344   4.947  0.1611 -0.1774 -0.3039
 2898SOL    HW112096   7.985   1.384   5.033 -0.8359  0.2430 -0.6603
 2898SOL    HW212097   8.085   1.300   4.956  0.7740  1.0795  0.4556
 2899SOL     OW12098  10.550   6.094   9.059  0.3417 -0.5095 -0.5572
 2899SOL    HW112099  10.625   6.153   9.069  0.2386 -0.6405  1.3662
 2899SOL    HW212100  10.577   6.014   9.105 -1.2860 -0.2451  0.9533
 2900SOL     OW12101   7.885   0.924   7.126 -0.3463  0.1231 -0.0847
 2900SOL    HW112102   7.858   0.834   7.109  3.0130 -1.3831  1.5644
 2900SOL    HW212103   7.933   0.950   7.048  2.6621 -1.4149  1.0699
 2901SOL     OW12104   0.012   7.592   0.922 -0.1713 -0.7216  0.0401
 2901SOL    HW112105   0.038   7.637   0.842  1.8698  0.2044  1.1506
 2901SOL    HW212106  -0.049   7.652   0.965  0.1956 -0.3814  0.0827
 2902SOL     OW12107   5.853   4.166   4.618 -0.3415 -0.0689 -0.3850
 2902SOL    HW112108   5.853   4.071   4.605  1.7179 -0.4166  1.5393
 2902SOL    HW212109   5.802   4.180   4.697  0.7545  0.2040  0.3020
 2903SOL     OW12110   6.646   9.581   9.818 -0.0327 -0.2339 -0.0556
 2903SOL    HW112111   6.663   9.547   9.730 -1.4937 -1.9527  0.2458
 2903SOL    HW212112   6.725   9.561   9.868  1.4492  2.1438 -1.2665
 2904SOL     OW12113   4.881   7.732   9.308 -0.3096 -0.4899 -0.2054
 2904SOL    HW112114   4.956   7.687   9.268 -0.7137 -1.1784 -0.1948
 2904SOL    HW212115   4.866   7.686   9.390 -1.1693 -0.7862 -0.5212
 2905SOL     OW12116   8.966   8.544   6.372  0.0586  1.2190 -0.3920
 2905SOL    HW112117   8.893   8.572   6.428 -1.0350 -0.4117 -0.9185
 2905SOL    HW212118   8.972   8.449   6.387  1.3116  1.1431 -1.2547
 2906SOL     OW12119   9.476   1.519   2.142  0.1878 -0.6575  0.0613
 2906SOL    HW112120   9.501   1.558   2.226 -0.5890 -0.1226  0.0573
 2906SOL    HW212121   9.549   1.539   2.084  0.7356 -1.0352  0.6021
 2907SOL     OW12122   6.830   9.276   8.648  0.2711 -0.1656  0.1906
 2907SOL    HW112123   6.802   9.326   8.725  1.2618 -0.4701  0.7749
 2907SOL    HW212124   6.805   9.186   8.668 -1.5012  0.0588 -0.8575
 2908SOL     OW12125   5.791   7.353   9.667 -0.6167 -0.0630  0.4621
 2908SOL    HW112126   5.849   7.364   9.742 -1.4456 -0.8937  1.2482
 2908SOL    HW212127   5.800   7.261   9.643  1.1547  0.6114 -1.7617
 2909SOL     OW12128   3.266   6.771   4.259 -0.0147 -0.2443  0.3731
 2909SOL    HW112129   3.337   6.726   4.303  0.8955  0.7075 -0.0742
 2909SOL    HW212130   3.260   6.856   4.302  1.4517  1.0500 -1.7411
 2910SOL     OW12131   4.145   8.010   9.019  0.2404  0.4343  0.0015
 2910SOL    HW112132   4.093   7.949   9.072  0.8437 -1.1992 -1.1975
 2910SOL    HW212133   4.144   7.972   8.931  2.7003  0.8138 -0.2614
 2911SOL     OW12134   8.608  10.665   7.890  0.0704  0.3733  0.4350
 2911SOL    HW112135   8.516  10.673   7.914 -0.1021 -0.0840 -0.0521
 2911SOL    HW212136   8.652  10.736   7.937 -0.6519  1.1032  0.0088
 2912SOL     OW12137  10.816   7.501   3.131 -0.1031  0.0598  0.0238
 2912SOL    HW112138  10.799   7.407   3.128 -0.3560  0.1303 -1.6459
 2912SOL    HW212139  10.731   7.541   3.147 -0.0146  0.0176  0.6159
 2913SOL     OW12140   3.194   8.408   7.516 -0.0318 -0.1532  0.5941
 2913SOL    HW112141   3.107   8.448   7.525  0.5048  1.0898  0.4971
 2913SOL    HW212142   3.192   8.332   7.574 -1.7563 -1.1754 -0.6988
 2914SOL     OW12143  10.803   2.922   1.582 -0.0683 -0.1278 -0.0928
 2914SOL    HW112144  10.889   2.888   1.558 -0.0708 -0.7407  0.7237
 2914SOL    HW212145  10.788   2.994   1.521  0.4077 -0.8971 -1.1648
 2915SOL     OW12146   5.843   8.149   4.599  0.3236 -0.4053  0.2262
 2915SOL    HW112147   5.798   8.069   4.627 -0.5623 -0.1996 -0.5614
 2915SOL    HW212148   5.913   8.161   4.664  0.1906 -1.5646  0.6111
 2916SOL     OW12149  10.391   6.067  10.486 -0.5658  0.0778 -0.1938
 2916SOL    HW112150  10.324   5.999  10.498 -0.4963  0.1094  0.4134
 2916SOL    HW212151  10.471   6.019  10.465 -0.2253 -0.1369  1.4167
 2917SOL     OW12152   5.939   7.720   8.460 -0.0691  0.1911  0.3053
 2917SOL    HW112153   5.939   7.776   8.537 -3.0271 -0.4742  0.9045
 2917SOL    HW212154   5.897   7.772   8.392 -0.3379 -0.3290  0.0657
 2918SOL     OW12155   1.397   6.596   6.790  0.3379 -0.2150  0.0487
 2918SOL    HW112156   1.406   6.674   6.845 -1.4156  0.5697 -0.7086
 2918SOL    HW212157   1.385   6.630   6.702  2.0000 -1.4359 -0.7029
 2919SOL     OW12158   7.719   3.700  10.382 -0.5859 -0.0161  0.3037
 2919SOL    HW112159   7.760   3.757  10.447  0.2103 -1.1834  0.8672
 2919SOL    HW212160   7.631   3.683  10.417 -0.5790  0.3183  0.4810
 2920SOL     OW12161  10.146   8.014   2.846 -0.5014  0.5173 -0.2341
 2920SOL    HW112162  10.206   8.088   2.841  0.0883  0.0243 -0.6627
 2920SOL    HW212163  10.103   8.012   2.760 -2.3586  1.8459  0.5966
 2921SOL     OW12164   2.361   9.579   3.164  0.0139 -0.2419 -0.0073
 2921SOL    HW112165   2.330   9.570   3.074 -0.7836 -0.8246  0.3135
 2921SOL    HW212166   2.282   9.597   3.215  0.5630  0.8925  0.4761
 2922SOL     OW12167   5.696   7.998  10.030  0.0941  0.0630  0.0263
 2922SOL    HW112168   5.620   8.056  10.041  0.3600  0.6921 -1.3353
 2922SOL    HW212169   5.752   8.018  10.105  0.2154  1.6277 -0.4542
 2923SOL     OW12170   4.756   9.040   0.854 -0.4700 -0.0840 -0.3978
 2923SOL    HW112171   4.692   9.043   0.925  1.3921 -1.9440  1.5183
 2923SOL    HW212172   4.714   8.984   0.788 -1.4513  0.0161  0.1116
 2924SOL     OW12173   0.691   2.137   1.112 -0.2578  0.2694 -0.7548
 2924SOL    HW112174   0.782   2.121   1.140 -0.7236 -0.5846  0.3597
 2924SOL    HW212175   0.699   2.173   1.024  1.1208 -2.1707 -1.7448
 2925SOL     OW12176   5.450   8.515   1.524 -0.7220  0.0498  0.3191
 2925SOL    HW112177   5.487   8.429   1.545 -0.8617 -0.0664  0.0801
 2925SOL    HW212178   5.435   8.513   1.430  0.8398  0.9360  0.0186
 2926SOL     OW12179   3.121   8.245   5.488  0.2970  0.5994  0.3540
 2926SOL    HW112180   3.156   8.237   5.577  0.0096  0.3830  0.4478
 2926SOL    HW212181   3.132   8.158   5.450 -0.2977  0.4851  0.4410
 2927SOL     OW12182   1.607   4.442   2.548  0.7299 -0.2487  0.2520
 2927SOL    HW112183   1.633   4.471   2.460  0.6985 -2.4150 -0.5317
 2927SOL    HW212184   1.529   4.494   2.568 -0.6665 -1.2975 -2.0344
 2928SOL     OW12185   0.206  10.517   2.860  0.1954  0.3242 -0.1898
 2928SOL    HW112186   0.294  10.523   2.898  0.6190 -0.5656 -0.9858
 2928SOL    HW212187   0.221  10.492   2.769 -0.8452  1.2987 -0.6474
 2929SOL     OW12188   4.946   1.574   7.595 -0.2821 -0.4240 -0.2661
 2929SOL    HW112189   5.031   1.536   7.616  0.1385  0.2806 -0.6112
 2929SOL    HW212190   4.964   1.632   7.521 -0.7210  1.0576  0.7350
 2930SOL     OW12191   1.581   1.904   4.059  0.0828 -0.2734  0.0724
 2930SOL    HW112192   1.502   1.890   4.111 -0.4404  2.0874  0.0283
 2930SOL    HW212193   1.624   1.818   4.057 -1.6874 -1.2601  1.3716
 2931SOL     OW12194   5.272   8.784   2.807 -0.0719 -0.3324 -0.4844
 2931SOL    HW112195   5.332   8.733   2.752  0.7987  0.4009 -0.2354
 2931SOL    HW212196   5.252   8.726   2.880  0.2925 -0.6030 -0.5955
 2932SOL     OW12197   1.338   8.525  10.492 -0.3049 -0.0208 -0.1648
 2932SOL    HW112198   1.245   8.545  10.480 -0.2381 -0.2022 -1.0633
 2932SOL    HW212199   1.384   8.595  10.445 -0.0344 -1.1208 -1.5828
 2933SOL     OW12200   9.670   5.357   6.112 -0.3726 -0.5676 -0.0892
 2933SOL    HW112201   9.681   5.295   6.040 -1.6211 -0.7893 -0.1022
 2933SOL    HW212202   9.580   5.346   6.140  0.1302 -0.5949  1.6325
 2934SOL     OW12203  10.794   0.646   9.927  0.1270  0.4431 -0.5612
 2934SOL    HW112204  10.798   0.695   9.845 -1.5836 -0.2834 -1.1178
 2934SOL    HW212205  10.774   0.557   9.901 -0.2925  0.1670  0.6457
 2935SOL     OW12206  10.523   2.049   8.513 -0.0752 -0.8844  0.4942
 2935SOL    HW112207  10.443   2.094   8.541  0.6841  3.1334 -2.7493
 2935SOL    HW212208  10.587   2.068   8.581 -0.6357  0.2617  0.7192
 2936SOL     OW12209   6.641  10.521   3.415  0.1065  0.2532 -0.1417
 2936SOL    HW112210   6.735  10.521   3.398 -0.1188  0.5383 -1.5133
 2936SOL    HW212211   6.614  10.612   3.400 -0.8422 -0.3786 -2.7222
 2937SOL     OW12212  10.806   0.079   0.588  0.3851  0.1534 -0.2802
 2937SOL    HW112213  10.822   0.043   0.501  1.1539 -0.0934 -0.0440
 2937SOL    HW212214  10.853   0.162   0.590  0.3595  0.1651 -0.1083
 2938SOL     OW12215   4.887   3.471   5.664  0.2614 -0.2802  0.3547
 2938SOL    HW112216   4.935   3.389   5.648 -0.9442 -0.5940 -2.0140
 2938SOL    HW212217   4.905   3.525   5.588 -0.3251  1.0164  1.1045
 2939SOL     OW12218   3.765   2.165   4.053  0.8671 -0.0361 -0.2952
 2939SOL    HW112219   3.837   2.135   3.998  0.7356 -0.4044 -0.2648
 2939SOL    HW212220   3.687   2.158   3.997  0.7750 -0.1469 -0.1534
 2940SOL     OW12221   4.994   4.078   8.357  0.0062 -0.5733  0.7447
 2940SOL    HW112222   4.974   4.146   8.421 -1.1038 -0.8675  0.7268
 2940SOL    HW212223   4.930   4.009   8.374 -0.1429 -0.7668 -0.5140
 2941SOL     OW12224   9.401   2.383   7.050  0.2355  0.7180  0.0663
 2941SOL    HW112225   9.482   2.429   7.071  0.4531 -0.3271  1.6811
 2941SOL    HW212226   9.347   2.390   7.129 -0.9043  0.6548 -0.6728
 2942SOL     OW12227   4.689   2.331   9.133  0.4977  0.6958 -0.0264
 2942SOL    HW112228   4.735   2.283   9.202 -0.5333  1.2113  1.0554
 2942SOL    HW212229   4.607   2.283   9.122 -0.6952  2.3065  1.3000
 2943SOL     OW12230   0.357  10.477   6.016 -0.0783 -0.5137 -0.8471
 2943SOL    HW112231   0.340  10.571   6.003 -0.7351 -0.1468  1.9161
 2943SOL    HW212232   0.275  10.444   6.053  0.8343 -1.6943  0.2012
 2944SOL     OW12233  10.823   2.490  10.016 -0.3857 -0.0088 -0.1882
 2944SOL    HW112234  10.759   2.541  10.067 -1.4841 -1.4727 -0.0391
 2944SOL    HW212235  10.864   2.554   9.958 -2.3462  0.9077 -0.6348
 2945SOL     OW12236   9.841   2.206   1.580 -0.5767 -0.3456 -0.2877
 2945SOL    HW112237   9.859   2.276   1.518 -0.1982 -0.5537 -0.4183
 2945SOL    HW212238   9.815   2.132   1.525 -0.3763 -0.4891 -0.1921
 2946SOL     OW12239   6.191   4.682  10.021  0.0290 -0.4700 -0.2976
 2946SOL    HW112240   6.137   4.727   9.957  1.0209  0.8648 -0.2485
 2946SOL    HW212241   6.211   4.750  10.087 -1.0632 -1.8116  1.5157
 2947SOL     OW12242   6.060   2.274   5.426  0.2686  0.3424  0.3389
 2947SOL    HW112243   6.032   2.182   5.430  1.1979 -0.0253 -0.9518
 2947SOL    HW212244   6.136   2.278   5.483 -0.1651  0.4727  0.9148
 2948SOL     OW12245   6.716   3.818   3.430 -0.3552 -0.4821  0.3955
 2948SOL    HW112246   6.757   3.863   3.504  0.4840  0.9444 -0.8675
 2948SOL    HW212247   6.634   3.865   3.416 -1.9157 -2.5085  2.0939
 2949SOL     OW12248   4.003   9.352   3.317  0.0123  0.7482 -0.3916
 2949SOL    HW112249   3.970   9.324   3.403 -1.5678 -2.3720 -1.8278
 2949SOL    HW212250   4.088   9.310   3.309  0.0308  0.7987 -0.4594
 2950SOL     OW12251   3.399   2.811   1.031  0.4109  0.3293 -0.1420
 2950SOL    HW112252   3.376   2.901   1.011  0.1336 -0.2266 -2.7237
 2950SOL    HW212253   3.491   2.804   1.005  0.2101 -0.3001 -0.7163
 2951SOL     OW12254   9.445   7.676   6.378  0.7717  0.0663 -0.3098
 2951SOL    HW112255   9.377   7.612   6.358  0.5232  0.0405  0.5707
 2951SOL    HW212256   9.510   7.666   6.308 -0.0094 -0.0718 -1.0216
 2952SOL     OW12257   4.649   6.011   3.652 -0.5557 -0.7145 -0.7082
 2952SOL    HW112258   4.627   5.966   3.734 -1.9980  0.7333 -0.2415
 2952SOL    HW212259   4.728   6.061   3.674 -2.0660  1.3221  0.5562
 2953SOL     OW12260   3.560   0.977   5.212 -0.2901 -0.0607 -0.5195
 2953SOL    HW112261   3.557   0.922   5.290  0.6293  1.2025  0.4384
 2953SOL    HW212262   3.469   1.004   5.198 -0.3704  0.1828  0.4664
 2954SOL     OW12263  10.416   3.774  10.652 -0.1445  0.0917  0.5077
 2954SOL    HW112264  10.451   3.697  10.607 -0.5509 -0.6341  1.3925
 2954SOL    HW212265  10.485   3.840  10.643 -0.2569  0.0262 -1.2440
 2955SOL     OW12266   9.260   4.263   5.924 -0.1261  0.6918  0.1192
 2955SOL    HW112267   9.275   4.339   5.868  3.2320 -0.5444 -0.9228
 2955SOL    HW212268   9.327   4.270   5.992 -0.7640 -0.5393  0.9041
 2956SOL     OW12269   1.565   6.137   8.833 -0.1161 -0.2168 -0.4817
 2956SOL    HW112270   1.575   6.096   8.919 -0.5306  1.0164  0.1813
 2956SOL    HW212271   1.653   6.168   8.811 -0.0387 -0.3997 -0.4260
 2957SOL     OW12272   1.792   1.602   9.378 -0.7558  0.3598  0.6783
 2957SOL    HW112273   1.749   1.567   9.456 -0.2493  0.5661  1.0516
 2957SOL    HW212274   1.733   1.579   9.306 -2.6191  2.4997  1.4025
 2958SOL     OW12275   7.816   1.685   0.499 -0.0624  0.5210 -0.1814
 2958SOL    HW112276   7.890   1.650   0.450  0.7253  0.9462  0.6774
 2958SOL    HW212277   7.753   1.711   0.432 -0.3326 -1.7198 -0.8856
 2959SOL     OW12278   2.931   4.419   2.924  0.0815 -0.0511 -0.0122
 2959SOL    HW112279   2.861   4.361   2.894  0.0936  0.7775 -1.8115
 2959SOL    HW212280   2.964   4.460   2.843  3.7244 -1.5804  0.5140
 2960SOL     OW12281   4.679   7.774   5.917 -0.3405 -0.1842  0.1322
 2960SOL    HW112282   4.662   7.736   5.831  0.2583 -1.0474  0.3741
 2960SOL    HW212283   4.774   7.779   5.923 -0.3548 -0.5963  0.9264
 2961SOL     OW12284   8.710   4.976   2.200 -0.0384  0.1069 -0.6675
 2961SOL    HW112285   8.704   4.904   2.263  0.4070  0.1786 -0.5413
 2961SOL    HW212286   8.796   5.014   2.215  0.1697 -0.0201 -1.4770
 2962SOL     OW12287   5.749   6.898  10.913 -0.5000 -0.5397  0.1277
 2962SOL    HW112288   5.796   6.829  10.958  0.5888 -0.3785 -0.7227
 2962SOL    HW212289   5.743   6.969  10.977 -0.1535 -0.8021  0.4545
 2963SOL     OW12290   6.090   4.550   1.813  0.4981 -0.2723 -0.3400
 2963SOL    HW112291   6.161   4.553   1.750  1.6221  1.2399  0.9080
 2963SOL    HW212292   6.074   4.642   1.836 -1.0010 -0.6654  0.3516
 2964SOL     OW12293   8.504   6.852   9.769 -0.1316 -0.5978  0.0644
 2964SOL    HW112294   8.576   6.911   9.791 -0.1473  0.7883 -3.0692
 2964SOL    HW212295   8.434   6.875   9.831  0.5926  1.2593  0.2494
 2965SOL     OW12296   3.618   2.110   9.587  0.5501 -0.5425 -0.2400
 2965SOL    HW112297   3.584   2.091   9.500 -0.4163 -1.2556  0.2626
 2965SOL    HW212298   3.545   2.092   9.646  0.8827  0.8408  0.6551
 2966SOL     OW12299   8.121   7.736   9.201 -0.0727 -0.2121 -0.4681
 2966SOL    HW112300   8.198   7.684   9.177 -0.6325 -0.8059 -1.0160
 2966SOL    HW212301   8.047   7.684   9.169 -0.8507 -0.7773  2.0366
 2967SOL     OW12302   5.300   7.823   9.419  0.1570 -0.0649 -0.0969
 2967SOL    HW112303   5.297   7.911   9.456  0.5761 -0.5593  1.1923
 2967SOL    HW212304   5.306   7.765   9.496  0.3184 -1.1886 -0.9276
 2968SOL     OW12305   1.388   7.503   8.798  0.3472  0.2060  0.2588
 2968SOL    HW112306   1.375   7.495   8.704 -0.1049  0.8346  0.2619
 2968SOL    HW212307   1.467   7.451   8.816 -0.0406 -0.6102 -0.3290
 2969SOL     OW12308   6.620   5.405   3.031  0.8322  0.4296 -0.1335
 2969SOL    HW112309   6.592   5.318   3.001 -1.4940  0.7661  0.8060
 2969SOL    HW212310   6.550   5.464   3.001  2.6305  2.1082 -1.2387
 2970SOL     OW12311   9.502   3.539   5.959 -0.3777  0.1086 -0.0933
 2970SOL    HW112312   9.549   3.616   5.991  0.0471  0.1682 -0.8419
 2970SOL    HW212313   9.410   3.558   5.977 -0.2373  0.6096  0.1055
 2971SOL     OW12314   0.710   4.237   0.612 -0.1739 -0.1953  0.6236
 2971SOL    HW112315   0.701   4.159   0.557 -0.5964  0.6756 -0.5907
 2971SOL    HW212316   0.792   4.223   0.660  0.1257 -1.0718 -0.1162
 2972SOL     OW12317   5.204   0.529   1.289  0.6598  0.2142 -0.3065
 2972SOL    HW112318   5.247   0.454   1.247  1.4235  0.4677  0.0063
 2972SOL    HW212319   5.178   0.585   1.216 -1.5793 -1.1926 -0.6664
 2973SOL     OW12320   9.746   5.564   2.333  0.1488 -0.7288 -0.5192
 2973SOL    HW112321   9.716   5.474   2.329 -2.9781  0.1580  0.5478
 2973SOL    HW212322   9.842   5.557   2.325  0.3379 -4.3423  2.0421
 2974SOL     OW12323   3.469   8.686   0.770  0.5986 -0.1921  0.4148
 2974SOL    HW112324   3.433   8.740   0.700  0.2556  0.0667  0.7854
 2974SOL    HW212325   3.519   8.747   0.825  1.4043 -0.5036  0.0459
 2975SOL     OW12326   4.142   3.273   7.012  0.6248 -0.2962 -0.0203
 2975SOL    HW112327   4.152   3.348   7.070 -1.2837 -1.5944  2.1589
 2975SOL    HW212328   4.123   3.311   6.926  0.0185  1.6934  0.9381
 2976SOL     OW12329   8.165   1.584   0.862 -0.0899  0.5472  0.0993
 2976SOL    HW112330   8.100   1.641   0.821  0.1702  0.2053 -0.8215
 2976SOL    HW212331   8.141   1.582   0.954 -0.8677  1.1148 -0.0844
 2977SOL     OW12332   8.912   0.586   8.108 -0.3022  0.0720  0.2476
 2977SOL    HW112333   8.919   0.491   8.111  1.6347  0.1893  0.8435
 2977SOL    HW212334   8.908   0.613   8.199  1.1859  0.6373  0.1798
 2978SOL     OW12335  10.859   8.605   9.733 -0.3242 -0.1598 -0.1313
 2978SOL    HW112336  10.930   8.659   9.767 -2.0796  1.8653  0.5209
 2978SOL    HW212337  10.838   8.545   9.805 -0.7232  0.7439  0.5222
 2979SOL     OW12338   0.757   6.056   8.364 -0.6859 -0.3012 -0.5279
 2979SOL    HW112339   0.809   5.977   8.380 -2.3144 -1.1131  1.2047
 2979SOL    HW212340   0.737   6.054   8.271  1.1068 -0.7357 -0.9415
 2980SOL     OW12341   2.147   0.687  10.117  0.4772  0.0651 -0.1662
 2980SOL    HW112342   2.151   0.775  10.153 -3.7829  0.6452 -0.6048
 2980SOL    HW212343   2.100   0.636  10.184  2.3407 -1.8211 -0.1691
 2981SOL     OW12344   9.603   1.540   8.749  0.1885 -0.0185  0.4987
 2981SOL    HW112345   9.584   1.571   8.660 -0.2453  0.9086  0.9066
 2981SOL    HW212346   9.693   1.509   8.744  0.5180  0.9797 -0.0219
 2982SOL     OW12347   2.147   0.567   2.996  0.3027  0.4916 -0.2091
 2982SOL    HW112348   2.154   0.526   2.910 -1.1805  1.3512 -0.7748
 2982SOL    HW212349   2.149   0.493   3.057  1.7090 -0.1145 -0.9173
 2983SOL     OW12350   1.952   1.978   4.495 -0.3102  0.3866 -0.3869
 2983SOL    HW112351   1.926   2.052   4.440  0.6881  0.9582 -0.1229
 2983SOL    HW212352   1.913   1.996   4.580  0.6524  1.0919 -0.0728
 2984SOL     OW12353   7.481   8.221   9.115  0.4159  0.0217 -0.1955
 2984SOL    HW112354   7.537   8.148   9.088  0.1454  0.2474 -1.3835
 2984SOL    HW212355   7.543   8.288   9.144  0.6594 -0.8567  1.5013
 2985SOL     OW12356   3.495   9.413  10.045  0.0043 -0.4908 -0.1158
 2985SOL    HW112357   3.587   9.426  10.066 -0.4446 -0.0615  1.7557
 2985SOL    HW212358   3.483   9.318  10.044  0.1166 -0.5381  1.3956
 2986SOL     OW12359   0.959   9.718   1.972  0.0059 -0.1921 -0.5190
 2986SOL    HW112360   1.030   9.685   1.917 -0.0875 -1.4412  0.0896
 2986SOL    HW212361   0.977   9.683   2.059 -0.7896  0.3496 -0.1179
 2987SOL     OW12362   1.500  10.742   8.994  0.5440  0.2985 -0.5154
 2987SOL    HW112363   1.545  10.658   8.998 -0.2143 -0.2638 -2.3349
 2987SOL    HW212364   1.569  10.807   8.983  1.0679 -0.2288 -0.3328
 2988SOL     OW12365   6.520   0.918   0.891  0.2650 -0.2038  0.3257
 2988SOL    HW112366   6.501   0.896   0.982  0.0913  0.3018  0.4155
 2988SOL    HW212367   6.502   0.838   0.842  0.7059 -0.5846  0.7830
 2989SOL     OW12368   4.773   3.116   3.388  0.0233  0.2213  0.4714
 2989SOL    HW112369   4.810   3.083   3.470 -1.7879 -0.8184  0.9375
 2989SOL    HW212370   4.691   3.067   3.378 -1.0327  2.1217 -0.6678
 2990SOL     OW12371   3.204  10.772   4.304 -0.2724 -0.5582  0.1432
 2990SOL    HW112372   3.135  10.770   4.371 -1.7339  1.4654 -1.1988
 2990SOL    HW212373   3.282  10.800   4.352 -0.3498 -2.6218  1.6433
 2991SOL     OW12374   8.361   6.184   7.387  0.0381  0.2931  0.5889
 2991SOL    HW112375   8.367   6.221   7.299 -1.3253 -0.4891  0.1276
 2991SOL    HW212376   8.311   6.249   7.436  1.1151  0.9016  0.9101
 2992SOL     OW12377  10.040   4.133   0.296 -0.4441 -0.6648  0.5215
 2992SOL    HW112378   9.969   4.192   0.272  0.4021  0.3175  0.3735
 2992SOL    HW212379  10.107   4.190   0.334  1.5072 -1.1049 -1.9624
 2993SOL     OW12380   2.397   5.049  10.160  0.0784  0.2737 -0.2108
 2993SOL    HW112381   2.378   5.090  10.245  1.2278  0.5215 -0.0526
 2993SOL    HW212382   2.373   4.957  10.172 -0.3751  0.4331  0.1704
 2994SOL     OW12383   2.623   1.859   8.534 -0.1724  0.5358  0.0102
 2994SOL    HW112384   2.604   1.786   8.475 -0.6839  2.0495 -1.7990
 2994SOL    HW212385   2.557   1.926   8.512  0.2411  1.5321  1.6290
 2995SOL     OW12386   1.865  10.093   0.251 -0.0198  0.4401 -0.4422
 2995SOL    HW112387   1.908  10.051   0.325 -0.1370  0.9677 -0.0641
 2995SOL    HW212388   1.797  10.148   0.291  0.4939  1.4156 -0.8744
 2996SOL     OW12389   3.050   5.663   1.482 -0.3949  0.8215 -0.0739
 2996SOL    HW112390   3.119   5.617   1.530 -0.1430  0.5007 -0.7206
 2996SOL    HW212391   3.097   5.727   1.428 -0.7581  1.9560  0.9223
 2997SOL     OW12392   1.331   4.802  10.016  0.1087 -0.5607 -0.0567
 2997SOL    HW112393   1.296   4.890  10.027  1.0472  0.3515 -3.2845
 2997SOL    HW212394   1.424   4.811  10.035  0.0276 -1.1245  0.6383
 2998SOL     OW12395   3.350   4.328   5.807  0.4845 -0.0924  0.4161
 2998SOL    HW112396   3.356   4.314   5.902 -0.4241 -0.1480  0.4732
 2998SOL    HW212397   3.411   4.265   5.769  0.6691 -0.2404  0.9482
 2999SOL     OW12398   3.943   8.098   2.183 -0.9126 -0.0490 -0.2412
 2999SOL    HW112399   3.923   8.046   2.261 -0.2665 -0.0248 -0.0554
 2999SOL    HW212400   3.988   8.176   2.217 -1.3141  0.3331 -0.5744
 3000SOL     OW12401   3.229   3.211   2.654  0.6215 -0.0260  0.0616
 3000SOL    HW112402   3.146   3.182   2.618  0.5342  2.4923 -2.0233
 3000SOL    HW212403   3.287   3.218   2.579  1.9969  0.6125  1.1281
 3001SOL     OW12404   9.236   4.128   2.898  0.2976 -0.1166  0.0261
 3001SOL    HW112405   9.149   4.153   2.930 -0.4346 -1.7091 -0.6094
 3001SOL    HW212406   9.249   4.039   2.931  1.2728 -0.2469 -0.6646
 3002SOL     OW12407   7.623   8.597  10.595  0.2695 -0.0415 -0.2669
 3002SOL    HW112408   7.660   8.513  10.567 -0.7969 -0.6903  0.1950
 3002SOL    HW212409   7.696   8.658  10.591  1.1909 -1.0989 -0.1385
 3003SOL     OW12410  10.272   1.274   7.592 -0.3072 -0.5270 -0.3383
 3003SOL    HW112411  10.311   1.188   7.576  0.2344 -0.3995  0.2159
 3003SOL    HW212412  10.333   1.336   7.553  1.4387 -0.1611  2.6261
 3004SOL     OW12413   4.879   1.407   1.053  0.3254  1.1413 -0.1942
 3004SOL    HW112414   4.955   1.349   1.051 -1.1606 -1.2937  3.2255
 3004SOL    HW212415   4.907   1.482   1.105  0.4667  0.1873  1.1714
 3005SOL     OW12416   9.254   2.842   5.631  0.4800  0.0649  0.4649
 3005SOL    HW112417   9.224   2.753   5.650 -0.0468 -0.0822 -0.8968
 3005SOL    HW212418   9.209   2.897   5.695 -1.2247 -0.3796 -0.2862
 3006SOL     OW12419   6.351  10.396   0.239 -0.6789 -0.0543  0.4387
 3006SOL    HW112420   6.258  10.403   0.218 -1.3117 -0.8022  2.6501
 3006SOL    HW212421   6.382  10.324   0.184 -1.6926 -0.5538  0.4851
 3007SOL     OW12422   8.234   2.810  10.330 -0.1861 -0.1589 -0.0583
 3007SOL    HW112423   8.314   2.860  10.311 -1.2474  1.6009 -0.1770
 3007SOL    HW212424   8.191   2.801  10.245 -0.9578  0.4999  0.2426
 3008SOL     OW12425   6.251   1.194   5.341  0.1144 -0.3358  0.1405
 3008SOL    HW112426   6.192   1.129   5.379 -0.9094  0.2444 -0.4209
 3008SOL    HW212427   6.302   1.144   5.277 -0.4601 -0.6474 -0.0824
 3009SOL     OW12428   4.559   6.556   4.601 -0.2562 -0.3686 -0.0510
 3009SOL    HW112429   4.498   6.530   4.669 -0.4683 -0.7381 -0.3766
 3009SOL    HW212430   4.611   6.626   4.640 -0.0498 -0.9066  0.6530
 3010SOL     OW12431   0.065   6.115   3.175 -0.0157  0.0738  0.4377
 3010SOL    HW112432   0.136   6.177   3.164 -0.4617  0.4948 -0.0934
 3010SOL    HW212433  -0.014   6.164   3.152 -0.3458 -0.7748 -0.2925
 3011SOL     OW12434   3.331   1.447   3.279  0.4718  0.1796 -0.1833
 3011SOL    HW112435   3.286   1.363   3.291 -0.4668  0.6530 -0.3466
 3011SOL    HW212436   3.281   1.509   3.332  0.0391  1.0186 -1.5341
 3012SOL     OW12437   9.854   2.837   4.204  0.1753 -0.3423  0.3891
 3012SOL    HW112438   9.779   2.778   4.193  1.5465 -2.3501  1.1068
 3012SOL    HW212439   9.839   2.908   4.142 -3.4951  0.6625  2.1481
 3013SOL     OW12440   3.422  10.729   1.553 -0.6798  0.3441  0.0190
 3013SOL    HW112441   3.378  10.814   1.552  0.7490  1.1095 -0.2506
 3013SOL    HW212442   3.468  10.727   1.638 -1.7971 -0.7566  0.6206
 3014SOL     OW12443   5.780   8.874  10.283  0.0365 -0.0644  0.5171
 3014SOL    HW112444   5.850   8.817  10.316  0.2896  1.4863  2.9156
 3014SOL    HW212445   5.725   8.816  10.231  1.9375 -1.8046  0.2948
 3015SOL     OW12446   7.895   1.300   5.512  0.0033  0.0955  0.3139
 3015SOL    HW112447   7.817   1.299   5.567 -0.4652  0.9484 -0.3064
 3015SOL    HW212448   7.870   1.250   5.434 -0.6266  1.9830 -0.7598
 3016SOL     OW12449   7.808   8.986   0.728  0.2470 -0.0251  0.3013
 3016SOL    HW112450   7.827   8.975   0.821  0.5919  0.6295  0.3074
 3016SOL    HW212451   7.713   8.977   0.722  0.3846 -2.1242  0.4308
 3017SOL     OW12452   5.347   2.410   2.086  0.3224 -0.6365  0.8086
 3017SOL    HW112453   5.254   2.401   2.109  0.1966  1.9938  1.7263
 3017SOL    HW212454   5.349   2.400   1.991 -1.3966  1.7994  0.4043
 3018SOL     OW12455  10.391   4.444   8.023  0.0795 -0.2582  0.3359
 3018SOL    HW112456  10.323   4.483   8.077 -0.6450 -3.4603  1.9675
 3018SOL    HW212457  10.346   4.414   7.945  0.4871  1.3382 -0.5490
 3019SOL     OW12458   0.760   6.256   1.827 -0.1566  0.3513 -0.1670
 3019SOL    HW112459   0.718   6.338   1.853  0.3887  0.6161 -0.1080
 3019SOL    HW212460   0.780   6.213   1.910 -2.9095 -1.1540 -0.1705
 3020SOL     OW12461   1.336   0.617  10.334  0.7390 -0.1501 -0.1184
 3020SOL    HW112462   1.307   0.535  10.294  0.0240  0.6207 -1.2307
 3020SOL    HW212463   1.307   0.611  10.425  1.7762 -1.6393  0.1700
 3021SOL     OW12464   4.089  10.020   3.119  0.1790 -0.6638  0.6532
 3021SOL    HW112465   4.105  10.104   3.077 -3.6210 -0.6496 -1.1835
 3021SOL    HW212466   4.167   9.968   3.100  1.2145  1.3777 -1.0213
 3022SOL     OW12467   0.463   0.940   0.758 -0.1653  0.0199  0.1132
 3022SOL    HW112468   0.402   0.897   0.698 -0.7648 -0.3964  0.9977
 3022SOL    HW212469   0.470   1.029   0.726 -0.8392 -0.0727 -0.3063
 3023SOL     OW12470   5.660   0.965  10.501 -1.2964  0.2295 -0.3114
 3023SOL    HW112471   5.633   1.051  10.467  0.9274  0.4430 -1.7510
 3023SOL    HW212472   5.651   0.973  10.596  1.4673  3.1483 -0.1162
 3024SOL     OW12473   0.204   5.643   2.916 -0.2467  0.0258  0.0891
 3024SOL    HW112474   0.293   5.675   2.907 -0.4522  0.7134  0.4744
 3024SOL    HW212475   0.209   5.551   2.888  0.8947 -0.4145  1.5860
 3025SOL     OW12476   8.624   1.523   2.250 -0.3770 -0.1587 -0.2847
 3025SOL    HW112477   8.680   1.467   2.196  2.5946  1.5428  0.8045
 3025SOL    HW212478   8.581   1.463   2.311  1.3254 -1.4723 -0.3146
 3026SOL     OW12479   4.323   9.380   3.804 -0.4546 -0.1426 -0.0688
 3026SOL    HW112480   4.417   9.383   3.785 -0.4070 -0.5919  0.0784
 3026SOL    HW212481   4.281   9.391   3.718 -0.2799  0.4619 -0.0855
 3027SOL     OW12482   2.228  10.909   2.645  0.0586  0.7998  0.0344
 3027SOL    HW112483   2.258  10.836   2.699 -2.0495 -0.8672 -0.9184
 3027SOL    HW212484   2.277  10.985   2.678  1.6926 -0.8538  1.6279
 3028SOL     OW12485   4.577   8.327   1.654 -0.5465 -0.6807 -0.0199
 3028SOL    HW112486   4.619   8.287   1.578 -2.0669  0.1796 -1.3662
 3028SOL    HW212487   4.600   8.269   1.727  1.8598 -0.9491 -0.8835
 3029SOL     OW12488   6.603   6.511   0.524  0.2679  0.0667 -0.2215
 3029SOL    HW112489   6.514   6.540   0.541  0.2258 -0.6897  1.0640
 3029SOL    HW212490   6.623   6.452   0.598  1.8821  0.3597 -0.3792
 3030SOL     OW12491   7.814   1.206   9.572  0.0926  0.5899 -0.1128
 3030SOL    HW112492   7.859   1.143   9.628  0.4192  1.6772  0.8911
 3030SOL    HW212493   7.878   1.227   9.504 -0.9206 -2.0903 -2.0684
 3031SOL     OW12494   9.778   7.930   8.113  0.4378 -0.4733  0.5101
 3031SOL    HW112495   9.779   8.021   8.144  0.6020  0.2986 -1.6393
 3031SOL    HW212496   9.770   7.878   8.194 -0.7694  1.4554  1.7161
 3032SOL     OW12497   1.921   0.103   3.475 -0.1305  0.4587 -0.2209
 3032SOL    HW112498   1.852   0.155   3.434 -0.7077  0.8265  1.1723
 3032SOL    HW212499   1.876   0.050   3.541  0.6256 -0.9327 -0.7710
 3033SOL     OW12500   3.917   5.096   6.799  0.1202 -0.6544 -0.3210
 3033SOL    HW112501   3.980   5.134   6.860 -1.2889 -0.0843  0.8304
 3033SOL    HW212502   3.831   5.120   6.835 -0.7671 -0.2332 -2.5883
 3034SOL     OW12503   6.104   5.254   0.481 -0.0881  0.0994 -0.3445
 3034SOL    HW112504   6.146   5.273   0.565 -0.8595  0.0002  0.0813
 3034SOL    HW212505   6.175   5.254   0.417  0.0920  4.0415 -0.3704
 3035SOL     OW12506   5.098   7.196   4.030  0.3414  0.0911 -0.0100
 3035SOL    HW112507   5.003   7.188   4.042  0.2425  1.2040  0.0277
 3035SOL    HW212508   5.109   7.278   3.982  1.2938  0.0067  0.0569
 3036SOL     OW12509   3.885  10.801   0.302 -0.5776 -0.3586 -0.5954
 3036SOL    HW112510   3.967  10.849   0.309 -0.4549 -0.6409 -0.0586
 3036SOL    HW212511   3.911  10.711   0.285 -0.6443 -0.9812  2.1114
 3037SOL     OW12512   6.600   0.122   8.258 -0.0399 -0.0042  0.0302
 3037SOL    HW112513   6.656   0.044   8.250  1.0787  0.8495 -0.7081
 3037SOL    HW212514   6.590   0.134   8.352  2.2513  0.6450  0.2594
 3038SOL     OW12515   3.247   1.393   3.610 -0.4820 -0.3751 -0.5234
 3038SOL    HW112516   3.211   1.445   3.682  0.4892  0.3988 -0.5729
 3038SOL    HW212517   3.174   1.383   3.549 -0.8195  0.5073 -0.2740
 3039SOL     OW12518   5.417   0.664   2.022  0.2777 -0.7679  0.4988
 3039SOL    HW112519   5.417   0.759   2.019 -1.3454 -0.6905  1.6513
 3039SOL    HW212520   5.509   0.639   2.015  0.6902  0.8511 -0.1687
 3040SOL     OW12521   6.003   6.413   2.691 -0.1821 -0.3842 -0.3658
 3040SOL    HW112522   6.049   6.355   2.751  1.9199 -0.4146 -1.8847
 3040SOL    HW212523   5.993   6.495   2.738  2.1218 -0.1554 -0.1808
 3041SOL     OW12524   5.085   3.564  10.259  0.8055  0.3806  0.3118
 3041SOL    HW112525   5.166   3.533  10.216  1.0899 -0.0596  1.1293
 3041SOL    HW212526   5.022   3.574  10.188  1.4179  0.1730 -0.2711
 3042SOL     OW12527   9.909   7.344   7.510  0.2402  0.2790 -0.9831
 3042SOL    HW112528   9.862   7.262   7.523 -1.0827  0.8835 -1.7775
 3042SOL    HW212529   9.959   7.330   7.430 -1.1936  0.7539 -1.9877
 3043SOL     OW12530   5.814   9.146   8.987  0.7119  1.0489 -0.1142
 3043SOL    HW112531   5.804   9.221   8.929  0.5818  1.7428  0.7891
 3043SOL    HW212532   5.724   9.121   9.009  0.5883 -1.1399 -2.5695
 3044SOL     OW12533   8.749   2.981   5.920  0.4320 -0.3534 -0.1116
 3044SOL    HW112534   8.767   3.023   5.836 -1.4929 -0.8830 -0.8478
 3044SOL    HW212535   8.730   3.053   5.979  0.9258 -0.0205 -0.3445
 3045SOL     OW12536   3.504   3.438   6.335 -0.0919 -0.1332 -0.0538
 3045SOL    HW112537   3.412   3.431   6.361 -1.0732  2.7083 -2.2601
 3045SOL    HW212538   3.526   3.530   6.349  1.7355 -0.2763 -1.6232
 3046SOL     OW12539   9.737   1.789  10.458 -0.1243 -0.2687  0.2484
 3046SOL    HW112540   9.720   1.739  10.378  0.3936  1.2142 -0.8455
 3046SOL    HW212541   9.750   1.723  10.526 -1.3681 -1.5517 -0.7183
 3047SOL     OW12542   6.677   1.867   9.649 -0.0065  0.2325 -0.4859
 3047SOL    HW112543   6.746   1.887   9.712 -0.4754  0.5981 -0.0733
 3047SOL    HW212544   6.609   1.932   9.668  0.9761  2.2438 -3.2236
 3048SOL     OW12545   6.158   0.280   6.063  0.2435 -0.5146 -0.4340
 3048SOL    HW112546   6.150   0.225   5.985 -1.8045 -1.2717  0.2546
 3048SOL    HW212547   6.185   0.365   6.029 -0.9565 -0.7197 -2.0127
 3049SOL     OW12548   2.706   3.915   7.335 -0.2540  0.3739  0.5100
 3049SOL    HW112549   2.709   3.995   7.282  1.5579 -0.8617 -1.4356
 3049SOL    HW212550   2.783   3.921   7.392  1.7229 -1.2076 -1.7777
 3050SOL     OW12551   4.336   3.160   1.962  0.1151  0.0275 -0.3814
 3050SOL    HW112552   4.342   3.250   1.928  1.5550  0.5921  1.1915
 3050SOL    HW212553   4.315   3.107   1.886 -1.0482  1.7213 -1.3157
 3051SOL     OW12554   0.354   0.490   3.294 -0.4297  0.4122 -0.4577
 3051SOL    HW112555   0.334   0.548   3.220 -0.3975 -0.0637 -0.8439
 3051SOL    HW212556   0.302   0.412   3.278 -0.8400  0.5127  0.3126
 3052SOL     OW12557   3.986   6.257   5.649  0.3372  0.1200 -0.2207
 3052SOL    HW112558   4.027   6.315   5.713 -0.7178  0.4658  0.1586
 3052SOL    HW212559   3.931   6.314   5.595  0.4933 -0.3023 -0.8476
 3053SOL     OW12560   3.445   7.460   3.664  0.1084 -0.7144 -0.6583
 3053SOL    HW112561   3.400   7.381   3.637 -0.7249  0.1574 -1.9384
 3053SOL    HW212562   3.502   7.432   3.736  0.2753 -2.5650 -1.4568
 3054SOL     OW12563   7.533   5.297   7.709  0.2907  0.3394  0.1928
 3054SOL    HW112564   7.570   5.384   7.704 -0.1862  0.4902 -1.2528
 3054SOL    HW212565   7.599   5.244   7.753  0.8906  1.2637  0.4090
 3055SOL     OW12566   3.930   9.656   8.959  0.1882  0.2722  0.1711
 3055SOL    HW112567   3.896   9.697   8.879  2.1289 -0.5182 -1.1313
 3055SOL    HW212568   4.012   9.702   8.976  1.7458 -2.0553 -0.5694
 3056SOL     OW12569   7.244   3.399   0.991  0.2675 -0.3844 -0.1134
 3056SOL    HW112570   7.219   3.412   1.083 -1.3528  0.2604 -0.6095
 3056SOL    HW212571   7.161   3.399   0.944  1.1021 -0.4127 -1.6258
 3057SOL     OW12572   6.926   2.505   9.994  0.0614 -0.2450 -0.3140
 3057SOL    HW112573   6.931   2.453  10.074 -0.0873 -0.6525 -0.5650
 3057SOL    HW212574   6.846   2.557  10.004  0.9309  0.9751  0.5440
 3058SOL     OW12575   2.132   8.356   8.588  0.0530 -0.1379 -0.1940
 3058SOL    HW112576   2.158   8.417   8.519 -0.2536 -0.8306 -0.9478
 3058SOL    HW212577   2.096   8.411   8.657 -0.9840  0.4947 -1.2054
 3059SOL     OW12578  10.396  10.056   2.576 -0.3614  0.7658  0.0360
 3059SOL    HW112579  10.312  10.018   2.598 -0.5246  1.5647  0.8878
 3059SOL    HW212580  10.394  10.068   2.481 -0.4128 -1.0093 -0.2208
 3060SOL     OW12581   2.982   0.473   7.916  0.3214  0.7044 -0.2298
 3060SOL    HW112582   2.912   0.503   7.973  0.0833 -1.3259  0.6293
 3060SOL    HW212583   2.939   0.455   7.832  0.1282  1.0048 -0.1942
 3061SOL     OW12584   6.115   1.472   7.548  1.1293 -0.1643 -0.0672
 3061SOL    HW112585   6.182   1.539   7.560  0.0526  0.9009  0.1457
 3061SOL    HW212586   6.069   1.470   7.631  0.9434 -0.9567 -0.1848
 3062SOL     OW12587   0.422   6.533   5.237  0.0469 -0.2087  0.0953
 3062SOL    HW112588   0.512   6.566   5.229  0.2109 -0.6159  0.2667
 3062SOL    HW212589   0.380   6.592   5.300  0.0119  0.3593 -0.4488
 3063SOL     OW12590   4.586   4.778   6.026 -0.3625 -0.1529 -0.1115
 3063SOL    HW112591   4.669   4.752   6.065 -0.7328  0.7021  1.3489
 3063SOL    HW212592   4.522   4.769   6.097 -1.3302  0.2012 -0.8974
 3064SOL     OW12593   4.298   3.517   8.819  0.0592 -0.2603 -0.1891
 3064SOL    HW112594   4.330   3.528   8.729 -0.6142  1.1269 -0.2732
 3064SOL    HW212595   4.229   3.451   8.812 -0.2666  0.1365 -0.7596
 3065SOL     OW12596   8.631   1.502   3.952  0.0101  0.1015  0.1745
 3065SOL    HW112597   8.617   1.546   4.036 -1.7604 -1.5397  0.8062
 3065SOL    HW212598   8.725   1.513   3.935  0.0476  2.1018  1.3927
 3066SOL     OW12599   8.629   7.661   4.473 -0.3020 -0.6452 -0.0308
 3066SOL    HW112600   8.689   7.716   4.424  0.3601 -0.7667  0.6262
 3066SOL    HW212601   8.549   7.713   4.480 -0.0573 -0.2212 -0.3564
 3067SOL     OW12602   9.078  10.343   5.248 -0.2360  0.0873  0.0386
 3067SOL    HW112603   8.996  10.310   5.286 -0.2970  0.0201 -0.1513
 3067SOL    HW212604   9.146  10.308   5.306 -0.2094 -1.3831 -0.8242
 3068SOL     OW12605   1.040  10.782   1.110  0.2635  0.2576  0.0141
 3068SOL    HW112606   1.024  10.792   1.016  0.8992 -0.2940 -0.1642
 3068SOL    HW212607   1.039  10.871   1.145  0.2394  0.4833 -0.5554
 3069SOL     OW12608   6.584   1.042   8.941 -0.0568  0.1536 -0.1787
 3069SOL    HW112609   6.494   1.033   8.908  0.7724 -0.1174 -2.6278
 3069SOL    HW212610   6.618   1.119   8.895  1.3579 -0.5268 -0.3131
 3070SOL     OW12611   5.394   6.164   8.490 -0.4045 -0.2073  0.1463
 3070SOL    HW112612   5.490   6.169   8.484 -0.4276 -1.0140 -1.5127
 3070SOL    HW212613   5.377   6.120   8.573  0.5803  1.2178  1.1674
 3071SOL     OW12614   8.611   1.243   5.774 -0.0222 -0.7135  0.6561
 3071SOL    HW112615   8.668   1.171   5.799 -0.5774 -1.9282 -1.3143
 3071SOL    HW212616   8.574   1.216   5.690  1.8635  3.0125 -1.6663
 3072SOL     OW12617   7.394   4.569   8.560 -0.0161 -0.4512 -0.1728
 3072SOL    HW112618   7.338   4.579   8.483  1.3419  1.4409 -0.9649
 3072SOL    HW212619   7.433   4.655   8.573  2.7649 -1.6905  0.2942
 3073SOL     OW12620   8.228   9.719  10.650  0.1078  0.1982 -0.0535
 3073SOL    HW112621   8.180   9.792  10.611 -1.1756  0.1204  1.2757
 3073SOL    HW212622   8.201   9.720  10.742  0.5822 -1.5348  0.1350
 3074SOL     OW12623   2.520   8.888   6.393  0.1617  0.0538  0.5041
 3074SOL    HW112624   2.469   8.857   6.467 -0.8617  0.8927  0.1630
 3074SOL    HW212625   2.587   8.821   6.380 -1.4604 -1.6012  0.3148
 3075SOL     OW12626   1.175   9.050   6.005  0.6438  0.3495  0.4982
 3075SOL    HW112627   1.127   9.053   6.088 -1.3920 -0.5196 -0.5846
 3075SOL    HW212628   1.108   9.054   5.938  2.1746  0.0533 -1.1321
 3076SOL     OW12629   6.504   6.200  10.188  0.2259  0.2973  0.3558
 3076SOL    HW112630   6.582   6.243  10.152 -0.8767  2.2637  0.1442
 3076SOL    HW212631   6.494   6.239  10.275  1.4292 -2.5537  1.8899
 3077SOL     OW12632   5.050   6.362   8.935 -0.5944 -0.3989 -0.5333
 3077SOL    HW112633   5.046   6.392   9.026 -0.8431 -2.1730  0.0884
 3077SOL    HW212634   5.128   6.404   8.899 -0.4215  0.2373  0.5416
 3078SOL     OW12635   1.974  10.689   6.857 -0.0537  0.7995 -0.1638
 3078SOL    HW112636   1.990  10.667   6.949 -1.2367  0.7342  0.0422
 3078SOL    HW212637   1.948  10.606   6.816  0.2089  0.8811 -0.5052
 3079SOL     OW12638   2.354   3.261   1.622  0.2500 -0.1470 -0.3717
 3079SOL    HW112639   2.334   3.278   1.530 -1.9152  0.0275  0.0793
 3079SOL    HW212640   2.278   3.213   1.655  1.0094 -0.2745  1.3099
 3080SOL     OW12641   3.470   7.052   8.293 -0.3089  0.1038  0.0585
 3080SOL    HW112642   3.397   7.037   8.353 -0.0933  1.2607  0.6433
 3080SOL    HW212643   3.478   6.971   8.244 -0.9319 -0.6236  1.1292
 3081SOL     OW12644   7.771   6.652   9.530 -0.1314  0.4170 -0.1346
 3081SOL    HW112645   7.682   6.667   9.497 -0.4692 -0.3687  0.3940
 3081SOL    HW212646   7.791   6.562   9.503  0.1476  0.2757  0.5389
 3082SOL     OW12647   1.635   6.253   7.116 -0.0464 -0.1132  0.0820
 3082SOL    HW112648   1.589   6.220   7.193  0.1542 -0.2274  0.1544
 3082SOL    HW212649   1.719   6.208   7.118 -0.6884 -1.4401 -1.1428
 3083SOL     OW12650   2.185   2.238   4.235  0.2064  0.0829  0.1059
 3083SOL    HW112651   2.211   2.147   4.222  1.3438  0.6850 -2.6511
 3083SOL    HW212652   2.122   2.254   4.165  1.0181  1.7483 -0.2908
 3084SOL     OW12653   5.989   4.356   0.848 -0.1160  0.2743 -0.3492
 3084SOL    HW112654   5.905   4.389   0.879 -0.2450  0.7281 -1.1528
 3084SOL    HW212655   6.054   4.416   0.884  0.0272 -0.9137  1.5026
 3085SOL     OW12656   8.611   5.511  10.214 -0.1878  0.1547  0.1069
 3085SOL    HW112657   8.662   5.430  10.217  2.2334  1.5581 -0.5748
 3085SOL    HW212658   8.643   5.562  10.288 -0.9145  0.9392 -0.0989
 3086SOL     OW12659   2.703   6.017   1.057 -0.4694 -0.2247  0.2234
 3086SOL    HW112660   2.766   6.081   1.090  0.3171 -0.3805 -0.9141
 3086SOL    HW212661   2.727   5.935   1.099 -0.7436 -0.0245  0.7845
 3087SOL     OW12662   6.862   4.308   0.809 -0.0150 -0.0394  0.0561
 3087SOL    HW112663   6.834   4.392   0.774 -0.6801 -0.5839 -0.7675
 3087SOL    HW212664   6.957   4.315   0.817  0.0097  0.5445 -0.6852
 3088SOL     OW12665   6.346   7.451  10.739  0.2761  0.1689  0.2986
 3088SOL    HW112666   6.259   7.490  10.753  0.8314  2.6990 -2.2316
 3088SOL    HW212667   6.407   7.522  10.756  1.4638  0.1008 -2.9269
 3089SOL     OW12668   9.769  10.087   2.541  0.7047 -0.3890 -0.4276
 3089SOL    HW112669   9.777  10.003   2.587 -0.5111 -0.1489  0.2757
 3089SOL    HW212670   9.675  10.095   2.522  0.6870  1.0897  0.1073
 3090SOL     OW12671   7.406   2.698   1.427 -0.1234 -0.7062  0.3829
 3090SOL    HW112672   7.367   2.722   1.343  0.9134 -1.8355 -0.4508
 3090SOL    HW212673   7.383   2.771   1.486 -0.3799  0.3792 -1.0157
 3091SOL     OW12674   6.998   6.491   0.643 -0.5190 -0.3417 -0.4600
 3091SOL    HW112675   7.008   6.403   0.679 -0.1224 -1.0596 -2.2146
 3091SOL    HW212676   6.908   6.516   0.665 -0.6383 -1.1831  0.0524
 3092SOL     OW12677   6.491   2.733   3.170  0.2163 -0.1722  0.0779
 3092SOL    HW112678   6.510   2.691   3.254  0.8386 -0.4969 -0.2175
 3092SOL    HW212679   6.409   2.779   3.184  0.0168 -0.7043  0.6976
 3093SOL     OW12680   8.406   4.520   0.286 -0.3414  0.6706 -0.2347
 3093SOL    HW112681   8.431   4.484   0.201  1.7376  0.1597  0.5130
 3093SOL    HW212682   8.321   4.481   0.305  0.7765 -2.1941 -0.4833
 3094SOL     OW12683   5.293   5.737   8.680 -0.1672  0.8772  0.4137
 3094SOL    HW112684   5.353   5.731   8.606 -0.0233 -0.0868  0.5906
 3094SOL    HW212685   5.207   5.752   8.640 -0.5830 -2.3623 -0.2129
 3095SOL     OW12686   2.224  10.557   8.192 -0.4945 -0.1448  0.1951
 3095SOL    HW112687   2.292  10.620   8.213 -0.6293 -0.0468  0.3455
 3095SOL    HW212688   2.202  10.574   8.100  1.6846 -2.0539 -0.7652
 3096SOL     OW12689   9.030   6.296   3.253  0.5233  0.0522 -0.4783
 3096SOL    HW112690   9.078   6.292   3.335  1.2306  2.8265 -0.6442
 3096SOL    HW212691   8.952   6.346   3.273  0.8082  0.9465 -1.4937
 3097SOL     OW12692   4.088   5.974   3.234  0.8200 -0.0991  0.1583
 3097SOL    HW112693   4.183   5.975   3.222  1.1570 -0.3355  2.4465
 3097SOL    HW212694   4.070   6.051   3.288 -0.3912  0.2965 -0.7724
 3098SOL     OW12695  10.692   7.744   0.989 -0.3265 -0.2945 -0.2114
 3098SOL    HW112696  10.714   7.837   0.991 -0.6275 -0.1878  3.0588
 3098SOL    HW212697  10.599   7.742   0.970 -0.0905 -0.0259 -1.4653
 3099SOL     OW12698   1.200   8.593   0.245 -0.6608 -0.1956 -0.4113
 3099SOL    HW112699   1.242   8.507   0.239 -1.3871 -0.6466  0.7135
 3099SOL    HW212700   1.126   8.587   0.184 -0.1034 -0.0007 -1.1108
 3100SOL     OW12701  10.683   1.617   8.949  0.5546  0.0133  0.3160
 3100SOL    HW112702  10.756   1.557   8.967  0.2356 -0.7216 -0.7341
 3100SOL    HW212703  10.724   1.695   8.913  0.8146 -0.5662 -0.6867
 3101SOL     OW12704   6.206   2.040   7.332  0.1172 -0.2621  0.1540
 3101SOL    HW112705   6.254   2.016   7.411 -0.6816 -3.0689 -0.0890
 3101SOL    HW212706   6.253   1.995   7.262  0.0986  1.1782 -0.8099
 3102SOL     OW12707   5.185   2.776   4.016  0.0470 -0.0043  0.2534
 3102SOL    HW112708   5.194   2.820   4.100  0.1561 -0.1410  0.3143
 3102SOL    HW212709   5.106   2.813   3.977  0.1146  0.2122  0.3226
 3103SOL     OW12710   0.180   9.855   4.314 -0.3942  0.2447 -0.6263
 3103SOL    HW112711   0.202   9.794   4.244 -1.4372 -1.5883  0.5608
 3103SOL    HW212712   0.123   9.805   4.373  0.2243  1.7872  1.3977
 3104SOL     OW12713   2.737   8.928   2.305  0.2367 -0.1118 -0.0927
 3104SOL    HW112714   2.716   9.011   2.347 -0.3630 -0.9769  1.3866
 3104SOL    HW212715   2.821   8.943   2.262  0.2048  1.2078  0.2794
 3105SOL     OW12716   8.012   3.515   2.312 -0.0428 -0.2253  0.4169
 3105SOL    HW112717   7.925   3.501   2.276 -1.1310  2.0968  1.9079
 3105SOL    HW212718   7.996   3.539   2.404  2.3213 -1.7832  1.3335
 3106SOL     OW12719   2.062   4.000   5.509 -0.0390 -0.1126  0.1461
 3106SOL    HW112720   1.997   3.938   5.477 -0.4973  0.1545  0.5540
 3106SOL    HW212721   2.024   4.036   5.589  0.0297  1.0009 -0.3050
 3107SOL     OW12722   9.415   2.398  10.218  0.5152  0.2637 -0.0908
 3107SOL    HW112723   9.450   2.433  10.299 -0.4454  2.6621 -0.6413
 3107SOL    HW212724   9.334   2.447  10.202 -0.1286 -1.1950 -1.7199
 3108SOL     OW12725   7.249   0.935   0.506 -0.0283  0.4044  0.7046
 3108SOL    HW112726   7.189   0.872   0.546  0.0087  0.6081  1.0848
 3108SOL    HW212727   7.335   0.910   0.537  0.1182 -0.0356 -0.0342
 3109SOL     OW12728   3.574   9.087   7.228  0.1553  0.2832 -0.3014
 3109SOL    HW112729   3.561   9.052   7.317  0.9503 -0.2820 -0.3985
 3109SOL    HW212730   3.487   9.082   7.188 -0.1272  0.1567  0.3096
 3110SOL     OW12731   4.823   0.114   8.363 -0.1150  0.4966  0.3163
 3110SOL    HW112732   4.895   0.108   8.299 -0.4546  4.0871 -0.6613
 3110SOL    HW212733   4.744   0.095   8.312 -0.1125 -0.1594  0.5582
 3111SOL     OW12734   7.197  10.700   1.348 -0.2864 -0.1053 -0.0491
 3111SOL    HW112735   7.120  10.716   1.293 -0.6446 -0.5003  0.3352
 3111SOL    HW212736   7.221  10.609   1.331 -0.3843 -0.2242  0.4220
 3112SOL     OW12737  10.805   8.119   3.757  0.2446 -0.2887 -0.6147
 3112SOL    HW112738  10.856   8.183   3.805 -1.4260  1.9105 -1.5874
 3112SOL    HW212739  10.840   8.122   3.668 -1.9318  1.8733 -1.5134
 3113SOL     OW12740   2.894   8.150   9.745  0.3233  0.1948 -0.3261
 3113SOL    HW112741   2.971   8.206   9.738 -0.1715  0.8856 -0.3013
 3113SOL    HW212742   2.871   8.154   9.838 -0.6524  1.2283 -0.6021
 3114SOL     OW12743   8.488   8.333   0.230  0.2305 -0.6181  0.6626
 3114SOL    HW112744   8.460   8.359   0.318 -1.2137  0.4433 -0.0653
 3114SOL    HW212745   8.495   8.416   0.182  3.2011 -0.9622  0.3275
 3115SOL     OW12746   5.863   1.101   1.814 -0.0010 -0.0005  0.2542
 3115SOL    HW112747   5.827   1.139   1.734  1.5468  2.3013  0.5337
 3115SOL    HW212748   5.946   1.061   1.787  0.6890  1.0706  0.7032
 3116SOL     OW12749  10.578   4.270   9.744 -0.4092  0.1915  0.5729
 3116SOL    HW112750  10.636   4.313   9.681  1.3429 -0.1568  1.8520
 3116SOL    HW212751  10.539   4.342   9.793  1.7274  0.4549  2.0291
 3117SOL     OW12752   8.301   3.396   7.763  0.0729  0.3259  0.5651
 3117SOL    HW112753   8.222   3.348   7.737  0.2668 -0.0689  0.7027
 3117SOL    HW212754   8.371   3.331   7.761  0.3328  0.5970  0.7708
 3118SOL     OW12755   3.359  10.557   8.664 -0.1065  0.2590 -0.3102
 3118SOL    HW112756   3.327  10.638   8.705  0.0258 -0.0677  0.4550
 3118SOL    HW212757   3.279  10.510   8.639 -0.3112 -0.7645  2.0063
 3119SOL     OW12758   0.575   0.002   1.100 -0.0858  0.3976 -0.4129
 3119SOL    HW112759   0.482   0.024   1.108 -0.8321 -2.5500  0.5827
 3119SOL    HW212760   0.615   0.037   1.179 -0.4186  1.3329 -0.6495
 3120SOL     OW12761   7.196  10.069   2.685 -0.1837  0.4156  0.5851
 3120SOL    HW112762   7.206  10.052   2.592 -1.5351  0.1484  0.4667
 3120SOL    HW212763   7.145  10.150   2.689 -0.9860 -0.0987  1.0748
 3121SOL     OW12764   5.993   4.237   1.580  0.1571 -0.5049 -0.9546
 3121SOL    HW112765   5.965   4.323   1.547  0.9726  0.1944  0.0960
 3121SOL    HW212766   6.086   4.247   1.598  0.0066 -1.1969  0.3840
 3122SOL     OW12767   3.629   3.431   5.926  0.2256  0.1515 -0.0916
 3122SOL    HW112768   3.702   3.401   5.872  0.2030  0.5577 -0.3512
 3122SOL    HW212769   3.551   3.401   5.878  0.2144 -0.1760  0.1238
 3123SOL     OW12770   6.028  10.583   2.037  0.0824 -0.5108 -0.3168
 3123SOL    HW112771   5.994  10.641   2.105  1.9263  0.1883  0.0635
 3123SOL    HW212772   6.085  10.639   1.984 -0.1941 -1.3800 -1.5707
 3124SOL     OW12773   2.643   7.134   0.936  0.1704  0.6157 -0.4012
 3124SOL    HW112774   2.606   7.063   0.988 -0.1037  0.8731 -0.2444
 3124SOL    HW212775   2.698   7.183   0.997  0.8217  0.2058 -0.6432
 3125SOL     OW12776   8.476   1.930   2.625  0.5882 -0.1412  0.1983
 3125SOL    HW112777   8.560   1.883   2.627  0.3363 -0.7037 -1.1423
 3125SOL    HW212778   8.450   1.939   2.716  1.4941 -1.0762  0.5582
 3126SOL     OW12779   2.416  10.218   0.462 -0.0711 -0.0597 -0.3851
 3126SOL    HW112780   2.506  10.207   0.494 -0.9264 -0.4472  2.0958
 3126SOL    HW212781   2.414  10.169   0.380  1.2758 -2.4946  0.9216
 3127SOL     OW12782   4.840   1.103   4.437  0.4056 -0.2103 -0.4823
 3127SOL    HW112783   4.800   1.174   4.386  0.7364  1.5682  1.5596
 3127SOL    HW212784   4.845   1.138   4.526  1.4437 -2.4913  0.4328
 3128SOL     OW12785   4.755   7.441   9.751 -0.1855  0.0564 -0.5701
 3128SOL    HW112786   4.795   7.359   9.723  0.2398 -0.1698  0.6087
 3128SOL    HW212787   4.759   7.438   9.847 -3.5501 -0.2335 -0.3292
 3129SOL     OW12788   6.731   9.195   6.905 -0.2789 -0.7370 -0.3882
 3129SOL    HW112789   6.747   9.241   6.822 -1.4462  2.2702  0.9156
 3129SOL    HW212790   6.637   9.183   6.908 -0.2835 -0.5246  0.6209
 3130SOL     OW12791   1.762   5.465   5.561 -0.5238 -0.4931  0.0134
 3130SOL    HW112792   1.805   5.524   5.622  1.0983 -3.0054  1.4566
 3130SOL    HW212793   1.796   5.490   5.475 -0.6221  1.2037  0.4270
 3131SOL     OW12794   1.845   1.334   8.742  0.2399 -0.5938  0.1444
 3131SOL    HW112795   1.833   1.331   8.837 -0.7611 -1.1754  0.0055
 3131SOL    HW212796   1.907   1.407   8.728  0.4178 -0.5260  1.2332
 3132SOL     OW12797   4.075   4.147   9.472  0.6564  0.2838  0.4188
 3132SOL    HW112798   4.147   4.100   9.430 -0.0100  0.0108 -0.4253
 3132SOL    HW212799   4.101   4.239   9.469  0.3775  0.3377 -1.1071
 3133SOL     OW12800   6.653   3.198   3.263 -0.1849  0.6709 -0.2222
 3133SOL    HW112801   6.734   3.147   3.258  0.1886  1.3442 -2.2946
 3133SOL    HW212802   6.590   3.139   3.304  0.5242 -1.0987 -1.5042
 3134SOL     OW12803   9.831   2.834   6.048 -0.7286 -0.2782  0.3021
 3134SOL    HW112804   9.836   2.898   6.119  2.6768  0.1720 -0.1629
 3134SOL    HW212805   9.781   2.877   5.979 -0.5218  0.9362  0.8935
 3135SOL     OW12806   3.193   6.913   5.164 -0.4964  0.6279  0.3348
 3135SOL    HW112807   3.168   6.855   5.092 -0.9040  0.7874  0.3448
 3135SOL    HW212808   3.135   6.888   5.236  0.7024 -0.3527  1.0105
 3136SOL     OW12809   4.516   9.855   1.838 -0.1949 -0.3101 -0.3079
 3136SOL    HW112810   4.424   9.875   1.819  0.1308 -0.1192 -1.7800
 3136SOL    HW212811   4.526   9.762   1.816 -0.1259 -0.4368  0.2407
 3137SOL     OW12812   5.904   4.142   3.165 -0.2304  0.2387 -0.5809
 3137SOL    HW112813   5.946   4.220   3.128 -0.1402 -1.0185 -3.3457
 3137SOL    HW212814   5.968   4.072   3.153 -0.3526 -0.3530  1.7478
 3138SOL     OW12815   2.968   6.501   9.553  0.3908 -0.4654  0.1856
 3138SOL    HW112816   2.993   6.587   9.585  3.0566 -1.3583  0.7875
 3138SOL    HW212817   2.895   6.475   9.609  1.1961  0.4003  1.7235
 3139SOL     OW12818   2.277   4.707   3.497 -0.1130  0.3186 -0.1632
 3139SOL    HW112819   2.200   4.742   3.453 -0.8628 -0.8401  0.1800
 3139SOL    HW212820   2.320   4.653   3.430  1.3492  2.2321 -0.8676
 3140SOL     OW12821   6.470   3.130   1.110 -0.1621 -0.3572  0.1344
 3140SOL    HW112822   6.395   3.189   1.111  0.9649  1.4464  4.9773
 3140SOL    HW212823   6.432   3.042   1.109 -2.0592  0.4048 -1.9228
 3141SOL     OW12824   0.960   2.970   5.509 -0.2720  0.0995  0.5680
 3141SOL    HW112825   0.915   3.037   5.561  0.3200  0.5255  0.5457
 3141SOL    HW212826   1.044   3.010   5.487 -0.5188 -0.0710 -0.7347
 3142SOL     OW12827  10.430   2.647   9.240 -0.2378  0.1746  0.0587
 3142SOL    HW112828  10.377   2.717   9.278  0.8110  1.7700 -1.3149
 3142SOL    HW212829  10.380   2.616   9.165 -0.7600 -0.6712  0.7387
 3143SOL     OW12830   6.650   3.488   2.294 -0.1086 -0.0453  0.0322
 3143SOL    HW112831   6.709   3.455   2.226 -0.4521 -0.4983 -0.0513
 3143SOL    HW212832   6.698   3.476   2.376  0.8870  1.7806 -0.2139
 3144SOL     OW12833   2.485   6.292   5.001  0.7030  0.6832  0.1032
 3144SOL    HW112834   2.535   6.213   5.020  1.0501  0.7050 -0.6740
 3144SOL    HW212835   2.412   6.290   5.063  0.6442 -0.3031  0.0195
 3145SOL     OW12836   7.279  10.395   5.468  0.4913  0.0557  0.2295
 3145SOL    HW112837   7.264  10.322   5.528  0.4803  1.1123  1.5632
 3145SOL    HW212838   7.191  10.427   5.446  0.5253  0.6219  0.8863
 3146SOL     OW12839  10.304   0.104   0.046  0.0950  0.0781 -0.1394
 3146SOL    HW112840  10.340   0.073  -0.037 -0.9484  0.3833 -0.7185
 3146SOL    HW212841  10.332   0.195   0.052  0.5928 -0.0822  0.1043
 3147SOL     OW12842   1.591   3.490   2.332  0.0580 -0.0139  0.4756
 3147SOL    HW112843   1.636   3.438   2.399 -2.8160 -1.8644  1.1401
 3147SOL    HW212844   1.528   3.543   2.381 -0.7440  0.0830 -0.6247
 3148SOL     OW12845   9.527   2.891   3.826 -0.3866 -0.3160  0.0305
 3148SOL    HW112846   9.593   2.919   3.888  0.9082 -1.9276 -0.5551
 3148SOL    HW212847   9.498   2.972   3.783  2.1586  0.3245 -0.6334
 3149SOL     OW12848   0.376   0.286   8.922  0.2273  0.2788 -0.8010
 3149SOL    HW112849   0.462   0.270   8.883  0.2053  2.0679 -1.7109
 3149SOL    HW212850   0.334   0.348   8.862 -0.7813  1.2550  0.8298
 3150SOL     OW12851   2.103   4.753  10.776  0.1789  0.2974  0.2565
 3150SOL    HW112852   2.036   4.689  10.800  1.2529 -0.6169  0.9575
 3150SOL    HW212853   2.167   4.702  10.726  0.3617  1.1472 -0.3976
 3151SOL     OW12854   0.499  10.641   7.583 -0.7020  0.4169  0.1444
 3151SOL    HW112855   0.585  10.605   7.609 -1.2416 -0.7495  0.4024
 3151SOL    HW212856   0.474  10.698   7.656 -0.4453  0.2307  0.3834
 3152SOL     OW12857   4.757  10.768   8.141  0.2172  0.3028  0.3023
 3152SOL    HW112858   4.730  10.707   8.210  0.4293 -1.2489 -0.9363
 3152SOL    HW212859   4.830  10.724   8.097 -1.7417 -0.1941 -2.7876
 3153SOL     OW12860   9.337   3.282   9.747  0.2988 -0.4621 -0.6349
 3153SOL    HW112861   9.246   3.259   9.766  0.6179 -0.6721  0.8063
 3153SOL    HW212862   9.336   3.309   9.656 -1.2022 -0.4910 -0.6643
 3154SOL     OW12863   4.838   0.382   4.066 -0.3149 -0.0009  0.1888
 3154SOL    HW112864   4.778   0.324   4.113 -1.6755 -0.7708 -2.3166
 3154SOL    HW212865   4.786   0.415   3.993  1.8434  0.6250 -1.1342
 3155SOL     OW12866  10.168   7.172   7.492  0.1504  0.1357 -0.3366
 3155SOL    HW112867  10.232   7.230   7.449 -0.1714 -0.3806 -1.5554
 3155SOL    HW212868  10.190   7.176   7.585  1.3378  0.7242 -0.6299
 3156SOL     OW12869   7.994  10.809   2.145 -0.2334  0.0629 -0.5809
 3156SOL    HW112870   7.956  10.761   2.219  1.3147 -1.3555 -0.6409
 3156SOL    HW212871   7.958  10.765   2.068 -0.1356  0.1023 -0.6491
 3157SOL     OW12872   9.379   7.759   9.519  0.0282 -0.0692  0.2965
 3157SOL    HW112873   9.457   7.814   9.522  0.2434 -0.3390 -0.2009
 3157SOL    HW212874   9.364   7.733   9.610 -0.1255  0.8759  0.5551
 3158SOL     OW12875   8.208  10.608   3.860  0.2138  0.3148 -0.2051
 3158SOL    HW112876   8.266  10.551   3.810 -0.7471 -2.7216  1.8927
 3158SOL    HW212877   8.267  10.671   3.902  1.5930 -0.4799 -0.8819
 3159SOL     OW12878   7.391   6.360  10.452  0.2346  0.6646  0.2544
 3159SOL    HW112879   7.378   6.321  10.538 -1.7554 -0.8625 -0.6397
 3159SOL    HW212880   7.485   6.368  10.442  0.5052  1.7529  2.9080
 3160SOL     OW12881   7.553   6.959   8.178  0.1476 -0.0360  0.3025
 3160SOL    HW112882   7.524   6.868   8.181  0.2897 -0.1042 -0.1888
 3160SOL    HW212883   7.482   7.009   8.217  0.2231 -0.3924  0.9146
 3161SOL     OW12884   1.528   5.397   6.387  0.0608  0.3361  0.8981
 3161SOL    HW112885   1.509   5.488   6.363 -2.6610 -0.6217 -1.1820
 3161SOL    HW212886   1.561   5.357   6.307  0.5180 -0.6905  1.5694
 3162SOL     OW12887   9.790   5.876   7.270  0.5478  0.0634  0.2858
 3162SOL    HW112888   9.823   5.906   7.185  0.7026 -1.5709 -0.2597
 3162SOL    HW212889   9.869   5.848   7.317  0.3158 -0.4908  0.3558
 3163SOL     OW12890   4.975   5.253   5.245  0.1518 -0.1870  0.5124
 3163SOL    HW112891   4.924   5.173   5.228 -3.2403  1.9488 -0.4081
 3163SOL    HW212892   4.981   5.258   5.340 -1.0159 -0.7612  0.6330
 3164SOL     OW12893   3.223   7.175   3.069 -0.3497 -0.1842  0.0740
 3164SOL    HW112894   3.316   7.187   3.049 -0.3516 -1.6474 -1.0503
 3164SOL    HW212895   3.178   7.201   2.988 -0.7397 -1.4957 -0.1594
 3165SOL     OW12896   9.978   7.134   5.524 -0.4789  0.0975  0.1175
 3165SOL    HW112897  10.043   7.189   5.566 -0.4960  1.7256 -1.8210
 3165SOL    HW212898  10.028   7.061   5.488 -0.5290 -1.5998  3.2033
 3166SOL     OW12899   1.292   8.109   6.414 -0.0138  0.5015  0.1713
 3166SOL    HW112900   1.317   8.085   6.324  0.4931  1.1169  0.1441
 3166SOL    HW212901   1.318   8.201   6.422 -0.0608  0.4479  0.9515
 3167SOL     OW12902   7.701   7.708   3.712  0.1815  0.5705  0.2674
 3167SOL    HW112903   7.703   7.614   3.697 -0.1679  0.1388  2.5051
 3167SOL    HW212904   7.614   7.736   3.681  0.5556  0.3139 -1.0510
 3168SOL     OW12905   9.887   9.466   7.689 -0.0492 -0.2848  0.1839
 3168SOL    HW112906   9.963   9.427   7.732  0.2299  0.9340  0.8303
 3168SOL    HW212907   9.851   9.395   7.635  0.7172 -1.2822  0.9474
 3169SOL     OW12908   0.138   8.717   2.393 -0.7149  0.3137  0.4790
 3169SOL    HW112909   0.103   8.685   2.476  3.3406  1.2260  2.8493
 3169SOL    HW212910   0.165   8.638   2.346  0.2036 -0.1598  1.7406
 3170SOL     OW12911   3.838   5.849   1.011  0.1115 -0.3299 -0.2296
 3170SOL    HW112912   3.811   5.784   1.077 -0.2108 -1.2921 -1.2798
 3170SOL    HW212913   3.888   5.798   0.947 -1.8500  0.0402 -2.1543
 3171SOL     OW12914  10.174   2.619   9.803 -0.8024  0.4135  0.5843
 3171SOL    HW112915  10.114   2.546   9.820  0.4389 -1.1378 -1.3281
 3171SOL    HW212916  10.194   2.613   9.710  1.0755  1.8708  0.8333
 3172SOL     OW12917   1.757   4.572   9.084  0.7108 -0.0359 -0.3456
 3172SOL    HW112918   1.747   4.498   9.145  0.3531  0.9664  0.8541
 3172SOL    HW212919   1.835   4.550   9.033  3.1830  0.6514  2.8255
 3173SOL     OW12920   1.080   9.630   3.771 -0.1307 -0.1546 -0.2826
 3173SOL    HW112921   1.056   9.550   3.817  0.7411  0.5078  1.3970
 3173SOL    HW212922   1.170   9.648   3.798 -0.4216  1.5741 -0.3629
 3174SOL     OW12923   3.294   2.041   3.353  0.0673  0.5871  0.0667
 3174SOL    HW112924   3.317   2.102   3.423  2.6273 -0.9643  0.7057
 3174SOL    HW212925   3.319   1.955   3.386 -0.1535 -0.3987 -2.1394
 3175SOL     OW12926   0.767  10.255   1.412 -0.6319 -0.6540  0.0305
 3175SOL    HW112927   0.724  10.287   1.491 -0.5421  1.4017 -0.7026
 3175SOL    HW212928   0.830  10.323   1.389 -0.5147 -1.2859 -1.6905
 3176SOL     OW12929   4.672   3.038   3.822 -0.5630  0.1109 -0.3188
 3176SOL    HW112930   4.661   2.944   3.807 -0.4352  0.2368 -1.2335
 3176SOL    HW212931   4.704   3.044   3.912  0.9104 -0.8318 -0.7447
 3177SOL     OW12932   5.284   0.103   9.069 -0.0811  0.3642  0.2843
 3177SOL    HW112933   5.200   0.057   9.066  0.4635 -0.7434  1.3522
 3177SOL    HW212934   5.260   0.196   9.074 -1.2475  0.0587  0.7224
 3178SOL     OW12935  10.756   9.459   1.689 -0.5614  0.0326 -0.6109
 3178SOL    HW112936  10.786   9.494   1.606  0.0136 -2.0154 -1.3409
 3178SOL    HW212937  10.700   9.385   1.665 -0.3319 -0.6543  0.8054
 3179SOL     OW12938   2.222   5.818   5.938  0.3410  0.2863 -0.3813
 3179SOL    HW112939   2.164   5.892   5.919  0.1953 -0.2141 -2.0284
 3179SOL    HW212940   2.302   5.859   5.971 -0.3241  1.0734  0.3096
 3180SOL     OW12941   4.733  10.345   0.445 -0.0373 -0.3795  0.2720
 3180SOL    HW112942   4.798  10.384   0.387  0.0298  0.7562  1.0601
 3180SOL    HW212943   4.649  10.375   0.410  0.0353  1.0534  1.2136
 3181SOL     OW12944   5.840   2.981   0.982  0.2665  0.9484 -0.1704
 3181SOL    HW112945   5.863   2.920   0.912  0.6981 -1.3312  1.8395
 3181SOL    HW212946   5.923   3.022   1.006  0.8730 -1.1205  1.5030
 3182SOL     OW12947   9.270   4.955   0.092  0.4018  0.6918 -0.3764
 3182SOL    HW112948   9.182   4.924   0.073  0.4030  0.8486 -0.6427
 3182SOL    HW212949   9.321   4.930   0.015  0.4743  1.0632 -0.4506
 3183SOL     OW12950   9.526   6.736   2.823  0.0645  0.3093 -0.0986
 3183SOL    HW112951   9.577   6.657   2.841 -0.4247 -0.5707 -2.2345
 3183SOL    HW212952   9.558   6.766   2.737 -1.1986  1.2386 -0.2691
 3184SOL     OW12953   4.024   7.973   1.361 -0.0927  0.4427 -0.4009
 3184SOL    HW112954   3.942   7.958   1.315 -0.3475  1.7569 -0.4161
 3184SOL    HW212955   4.085   8.001   1.292  0.6860 -1.4861 -0.5596
 3185SOL     OW12956   6.740   0.174   7.180 -0.7282  0.3738  0.0064
 3185SOL    HW112957   6.705   0.204   7.263 -1.1436  1.1973 -0.4531
 3185SOL    HW212958   6.829   0.211   7.176  0.1561 -1.4716  1.0385
 3186SOL     OW12959  10.033   4.957   7.344 -0.3037  0.6008  0.1708
 3186SOL    HW112960   9.977   4.927   7.415  0.7358 -0.1866  0.6816
 3186SOL    HW212961  10.096   5.016   7.386 -0.3157  0.9424 -0.2765
 3187SOL     OW12962   7.282   5.349   6.784 -0.5140 -0.0230  0.8574
 3187SOL    HW112963   7.227   5.321   6.711  0.4592 -0.7744  0.3874
 3187SOL    HW212964   7.362   5.382   6.743 -0.5732  0.9916  1.5280
 3188SOL     OW12965   3.120   6.061  10.149 -0.7502 -0.3878  0.1559
 3188SOL    HW112966   3.065   6.016  10.084  0.1941 -0.7116 -0.4485
 3188SOL    HW212967   3.059   6.117  10.198 -1.1091  2.5499 -3.2275
 3189SOL     OW12968   1.657   3.692   0.216 -0.3000 -0.1020 -0.0100
 3189SOL    HW112969   1.651   3.708   0.310 -0.9932  1.7160 -0.3105
 3189SOL    HW212970   1.728   3.749   0.187  0.7178 -1.5349 -0.4490
 3190SOL     OW12971   4.508   1.289   8.653 -0.0358  0.0347  0.2282
 3190SOL    HW112972   4.515   1.322   8.563 -1.3300 -0.9851 -0.2874
 3190SOL    HW212973   4.423   1.245   8.655  0.2411 -0.4742  1.7967
 3191SOL     OW12974   2.824   2.028   9.381  0.5949 -0.4508  0.7552
 3191SOL    HW112975   2.802   2.066   9.296 -2.4665 -1.9888  0.7479
 3191SOL    HW212976   2.865   1.944   9.359  0.6167 -0.4503  0.7943
 3192SOL     OW12977   0.488   5.213   6.276  0.2926  1.3660 -0.5159
 3192SOL    HW112978   0.458   5.262   6.352  0.0554 -0.2524  0.4912
 3192SOL    HW212979   0.584   5.219   6.279  0.2557  2.0289 -0.6028
 3193SOL     OW12980   1.517   9.547   8.808 -0.5952  0.2533 -0.1045
 3193SOL    HW112981   1.482   9.551   8.719  2.5161 -0.2795 -1.4527
 3193SOL    HW212982   1.554   9.634   8.823  0.5181 -0.2095 -0.0864
 3194SOL     OW12983   6.153   0.619  10.491  0.4326  0.4071 -0.6440
 3194SOL    HW112984   6.130   0.691  10.433  0.7658  0.7913 -0.3026
 3194SOL    HW212985   6.243   0.597  10.468  0.1631 -0.2581 -1.1097
 3195SOL     OW12986   4.298   3.764   4.661 -0.2008 -0.0010  0.1732
 3195SOL    HW112987   4.381   3.748   4.706 -0.1477  0.0412  0.0896
 3195SOL    HW212988   4.321   3.769   4.568 -0.3860 -0.6250  0.0907
 3196SOL     OW12989   3.798  10.289   8.053 -0.1480 -0.0401  0.3051
 3196SOL    HW112990   3.805  10.216   8.114  0.4543 -0.9576 -0.8119
 3196SOL    HW212991   3.828  10.253   7.969 -0.1797  1.3973 -0.3544
 3197SOL     OW12992   8.583   2.150   2.333 -0.2635 -0.2878 -0.7691
 3197SOL    HW112993   8.509   2.203   2.363 -0.1917 -0.5737 -0.0591
 3197SOL    HW212994   8.635   2.209   2.279 -0.4661  0.2101 -0.4263
 3198SOL     OW12995   0.028   3.698   2.749  0.2784  0.4227 -0.1853
 3198SOL    HW112996   0.092   3.701   2.678  0.0928 -0.0166 -0.3831
 3198SOL    HW212997   0.078   3.675   2.827  0.2062 -1.1293 -0.5639
 3199SOL     OW12998   0.322   7.966   6.550 -0.0412  0.4313 -0.3790
 3199SOL    HW112999   0.331   7.968   6.646  0.4560  0.8788 -0.4376
 3199SOL    HW213000   0.410   7.947   6.518  0.2089  2.2238 -0.8241
 3200SOL     OW13001   5.861   2.653   1.323 -0.3143 -0.1422  0.0125
 3200SOL    HW113002   5.843   2.746   1.335 -0.9066 -0.3889  1.2166
 3200SOL    HW213003   5.804   2.626   1.251 -1.2943  0.1045  0.6789
 3201SOL     OW13004  10.401   9.628   8.731 -0.5150  0.4951  0.3080
 3201SOL    HW113005  10.326   9.638   8.789 -1.4657  0.8820 -0.9395
 3201SOL    HW213006  10.402   9.534   8.710 -1.0034  0.5798 -0.1137
 3202SOL     OW13007   4.431   1.697   1.548  0.1712 -0.5823  0.0317
 3202SOL    HW113008   4.384   1.640   1.609  0.6179 -0.9059  0.0771
 3202SOL    HW213009   4.363   1.753   1.511 -0.0194  0.1092  1.3504
 3203SOL     OW13010   3.194   8.184   0.079  0.7387 -0.2586 -0.1699
 3203SOL    HW113011   3.170   8.100   0.118 -1.0069 -0.4529 -1.5162
 3203SOL    HW213012   3.169   8.249   0.145 -0.9092 -0.6503 -0.3726
 3204SOL     OW13013   0.420   5.812   9.839  0.8552  0.0090 -0.0344
 3204SOL    HW113014   0.459   5.885   9.886  2.0029 -0.8837  0.4512
 3204SOL    HW213015   0.476   5.737   9.859 -2.2217 -1.9126  2.5179
 3205SOL     OW13016  10.112   5.652   9.841  0.2419 -0.1014 -0.3345
 3205SOL    HW113017  10.097   5.693   9.926 -0.6293 -0.5224 -0.2746
 3205SOL    HW213018  10.204   5.670   9.821  0.7784 -0.9726  1.2210
 3206SOL     OW13019  10.814   2.313   5.099 -0.0952  0.0782 -0.5171
 3206SOL    HW113020  10.820   2.227   5.142 -0.9825 -0.0813 -0.6992
 3206SOL    HW213021  10.904   2.347   5.101 -0.1216  0.1458  1.5995
 3207SOL     OW13022   3.437   8.668   2.730  0.5297  0.2189 -0.2898
 3207SOL    HW113023   3.466   8.672   2.822 -2.1041 -2.2570  0.7840
 3207SOL    HW213024   3.386   8.748   2.719  1.0697  0.6635  0.3123
 3208SOL     OW13025   5.176  10.002   9.642 -0.1873 -0.0639  0.0470
 3208SOL    HW113026   5.255   9.950   9.655 -0.0621 -0.0710 -0.7250
 3208SOL    HW213027   5.107   9.954   9.688  0.0229 -0.6545 -0.2534
 3209SOL     OW13028   5.564   5.720   6.110  0.0443  0.2146  0.3178
 3209SOL    HW113029   5.484   5.668   6.103 -0.6332  1.0813  1.2454
 3209SOL    HW213030   5.632   5.666   6.069 -1.0779 -0.3863 -0.8195
 3210SOL     OW13031   3.176  10.293   0.961  0.0470 -0.7302 -0.0090
 3210SOL    HW113032   3.142  10.229   1.024 -0.1817  0.3548  1.0082
 3210SOL    HW213033   3.160  10.378   1.003  0.5315 -0.0156 -1.2353
 3211SOL     OW13034   1.498   0.714   0.689  0.2096 -0.2172 -0.2617
 3211SOL    HW113035   1.461   0.637   0.733  0.4335 -0.0311  0.2572
 3211SOL    HW213036   1.592   0.708   0.705  0.1318  0.6620  0.5820
 3212SOL     OW13037  10.590   1.013  10.176  0.7424 -0.0246 -0.3320
 3212SOL    HW113038  10.599   1.091  10.121  1.7246 -1.7235 -2.7287
 3212SOL    HW213039  10.576   0.941  10.115  1.8962 -2.0643  1.6263
 3213SOL     OW13040   7.062   8.720   1.021 -0.0293  0.3064  0.9870
 3213SOL    HW113041   7.147   8.678   1.014  1.2149  2.8379 -0.5027
 3213SOL    HW213042   7.075   8.791   1.084 -0.7988  1.2605  0.0998
 3214SOL     OW13043   1.397   3.437   1.007 -0.1666  0.2904 -0.2985
 3214SOL    HW113044   1.379   3.384   0.930 -0.3259 -1.4292  0.8466
 3214SOL    HW213045   1.365   3.384   1.080  0.2291  1.7295  0.9723
 3215SOL     OW13046   0.742   6.803   7.729  0.0728 -0.3582  0.6294
 3215SOL    HW113047   0.781   6.820   7.644  0.7516  1.0010  1.1752
 3215SOL    HW213048   0.759   6.710   7.746  0.6289 -0.4436 -0.3634
 3216SOL     OW13049   4.031  10.787   4.308 -0.2057  0.4806 -0.3740
 3216SOL    HW113050   4.042  10.827   4.222  0.3793  1.0104 -0.0598
 3216SOL    HW213051   4.120  10.778   4.342 -0.1145 -2.6993 -1.1304
 3217SOL     OW13052   4.669   9.627   1.770  0.8244 -0.3448  0.6474
 3217SOL    HW113053   4.719   9.554   1.807  0.0939 -0.2040  1.9938
 3217SOL    HW213054   4.729   9.701   1.774  1.2518 -0.6586  0.1613
 3218SOL     OW13055  10.602   3.030   4.969 -0.0989  0.3947  0.0764
 3218SOL    HW113056  10.541   3.079   4.913  0.1489 -1.5781 -2.0616
 3218SOL    HW213057  10.553   2.952   4.996  0.0651  0.9182  2.0280
 3219SOL     OW13058   6.250   4.281  10.918  0.1051  0.2703  0.7744
 3219SOL    HW113059   6.176   4.221  10.908  0.1984  0.3668 -0.6866
 3219SOL    HW213060   6.241   4.316  11.007 -2.5275  1.5257  0.0950
 3220SOL     OW13061   9.471   0.936  10.212  0.1346 -0.0499  0.2788
 3220SOL    HW113062   9.492   0.953  10.303 -0.0220 -0.0977  0.3247
 3220SOL    HW213063   9.555   0.916  10.171  0.0920 -1.0091  0.6207
 3221SOL     OW13064   0.010   6.890   3.733  0.0776 -0.1518 -0.0534
 3221SOL    HW113065   0.076   6.955   3.753  1.7181 -2.0283  1.0230
 3221SOL    HW213066  -0.021   6.913   3.645 -0.0352  2.5000  0.6286
 3222SOL     OW13067   1.873   6.296   5.832  0.0406 -0.7271  0.1709
 3222SOL    HW113068   1.948   6.350   5.806  0.8616 -2.2336 -0.7828
 3222SOL    HW213069   1.832   6.344   5.904  1.7589  0.2762  0.5395
 3223SOL     OW13070  10.780   6.404   5.044 -0.0278 -0.5465 -0.4677
 3223SOL    HW113071  10.841   6.436   5.110 -0.3938 -0.4249 -0.1834
 3223SOL    HW213072  10.835   6.360   4.979  0.3432 -0.5662 -0.1413
 3224SOL     OW13073   5.335   6.279   7.757  0.7640  0.0984  0.1337
 3224SOL    HW113074   5.367   6.220   7.689  2.4975 -1.2707  2.0161
 3224SOL    HW213075   5.410   6.336   7.776  0.8210 -0.4893  1.8417
 3225SOL     OW13076   8.132   0.255   8.189 -0.3753  0.6313 -0.8208
 3225SOL    HW113077   8.160   0.169   8.156 -2.4391  0.0475 -1.2082
 3225SOL    HW213078   8.167   0.259   8.278 -0.4436 -0.7179 -0.7095
 3226SOL     OW13079   3.205   9.431   7.933 -0.2834 -0.3101 -0.5354
 3226SOL    HW113080   3.275   9.428   7.999 -1.5222  2.2026  1.0877
 3226SOL    HW213081   3.218   9.516   7.890 -0.2604 -1.3737 -2.7064
 3227SOL     OW13082   3.372   6.677   3.685 -0.7413 -0.2407  0.0592
 3227SOL    HW113083   3.457   6.693   3.728 -0.0660 -1.2772 -0.8265
 3227SOL    HW213084   3.320   6.632   3.751 -0.1901 -0.6134  0.2498
 3228SOL     OW13085   9.584   1.223  10.275  0.2936  0.3152  0.1874
 3228SOL    HW113086   9.491   1.209  10.290  0.4307  0.0460  0.8042
 3228SOL    HW213087   9.628   1.172  10.343  0.9226 -0.4456 -0.7657
 3229SOL     OW13088   3.568   3.188   5.031 -0.4146  0.7326 -0.2252
 3229SOL    HW113089   3.498   3.215   4.972 -0.6111 -1.3547 -1.0209
 3229SOL    HW213090   3.632   3.145   4.975  0.0865 -0.0249  0.8963
 3230SOL     OW13091   9.009   5.288   6.923  0.3731  0.3977  0.7173
 3230SOL    HW113092   8.944   5.218   6.920  0.6483  0.1561 -0.7280
 3230SOL    HW213093   9.065   5.266   6.997 -1.3040  0.7505  2.1652
 3231SOL     OW13094   5.032  10.596   7.421  0.6387  0.2302 -0.7703
 3231SOL    HW113095   5.029  10.647   7.502 -1.3433  2.3596 -2.0521
 3231SOL    HW213096   4.992  10.512   7.444 -1.3907  1.3795  0.1818
 3232SOL     OW13097   9.825   4.840   4.265 -0.5611  0.3822 -0.3609
 3232SOL    HW113098   9.776   4.785   4.204 -1.6251  0.8925  0.0186
 3232SOL    HW213099   9.782   4.827   4.349  0.2817  0.4505  0.0921
 3233SOL     OW13100   9.138   7.655   6.480 -0.5627 -0.1913  0.2176
 3233SOL    HW113101   9.068   7.612   6.432 -1.6767  1.0535  0.6669
 3233SOL    HW213102   9.147   7.741   6.437  2.0544 -1.0230 -1.0971
 3234SOL     OW13103   4.518   3.689   1.001 -0.4674 -0.1145 -0.1057
 3234SOL    HW113104   4.541   3.609   1.048  0.8913  0.2161 -0.1478
 3234SOL    HW213105   4.426   3.704   1.021 -0.4432 -1.0853  0.8010
 3235SOL     OW13106   1.647   9.235   3.375  0.0600  0.6330  0.0577
 3235SOL    HW113107   1.635   9.164   3.312  0.5297  0.3544  0.2752
 3235SOL    HW213108   1.621   9.197   3.459  2.0687  0.1061  0.4923
 3236SOL     OW13109   4.939  10.038   0.215 -0.0169  0.2078  0.6029
 3236SOL    HW113110   4.951  10.072   0.126  1.5686 -0.0956  0.6615
 3236SOL    HW213111   4.933   9.943   0.204  2.3126 -0.0426  0.9246
 3237SOL     OW13112   2.957   6.356  10.533 -0.1338 -0.3684 -0.2867
 3237SOL    HW113113   2.970   6.410  10.611  1.2830  0.2641 -0.9246
 3237SOL    HW213114   2.921   6.416  10.468  4.2096  0.7570 -1.9637
 3238SOL     OW13115   7.818   8.623   9.001 -0.0654  0.0600  0.2649
 3238SOL    HW113116   7.801   8.588   8.914 -0.5335  1.5164 -0.2492
 3238SOL    HW213117   7.764   8.701   9.007  0.1011  0.0916  1.8054
 3239SOL     OW13118   3.673   4.752   2.898 -0.0622 -0.0960  0.2120
 3239SOL    HW113119   3.616   4.803   2.840 -1.5384 -0.4588  1.2840
 3239SOL    HW213120   3.686   4.807   2.975  0.4055 -0.3401  0.3119
 3240SOL     OW13121   2.966   0.137   5.069 -0.6179  0.0514 -0.3006
 3240SOL    HW113122   3.046   0.183   5.044 -0.8447  0.2523 -0.6671
 3240SOL    HW213123   2.926   0.193   5.135 -0.5189  0.0161 -0.2116
 3241SOL     OW13124   8.421   7.542   7.856 -0.8446 -0.0125 -0.5073
 3241SOL    HW113125   8.427   7.555   7.761  0.6802 -2.4141 -0.8183
 3241SOL    HW213126   8.496   7.590   7.892 -0.7369 -0.0777 -0.6465
 3242SOL     OW13127   4.749   9.794   6.694  0.5516 -0.3637  0.3909
 3242SOL    HW113128   4.733   9.728   6.627  2.3979  0.9637 -1.4647
 3242SOL    HW213129   4.696   9.766   6.769 -1.1246 -2.2181 -1.3940
 3243SOL     OW13130   8.674   0.471  10.119  0.2620  0.5911 -0.3476
 3243SOL    HW113131   8.711   0.501  10.201 -0.9199  1.2301 -0.0179
 3243SOL    HW213132   8.738   0.497  10.052  0.4975  1.4915  0.2122
 3244SOL     OW13133   2.329   9.302   0.380  0.1291 -0.5160 -0.2225
 3244SOL    HW113134   2.293   9.272   0.463 -0.4199 -1.5660 -0.8049
 3244SOL    HW213135   2.338   9.222   0.328  2.0494 -0.1161 -0.5991
 3245SOL     OW13136   7.601   9.458   1.301  0.3865  0.0204  0.1029
 3245SOL    HW113137   7.515   9.494   1.322 -0.4533 -1.8029  0.0207
 3245SOL    HW213138   7.584   9.395   1.231  1.9002  0.0659 -0.3424
 3246SOL     OW13139   8.454   6.562   9.809  0.0253  0.8884 -0.2279
 3246SOL    HW113140   8.529   6.503   9.815  0.1184  0.8184 -1.6033
 3246SOL    HW213141   8.491   6.645   9.777 -0.6706  0.2338 -3.0649
 3247SOL     OW13142   9.326   5.981   5.284 -1.1205  0.7476 -0.0137
 3247SOL    HW113143   9.260   5.920   5.317 -0.9178  0.7971  0.4942
 3247SOL    HW213144   9.387   5.992   5.357  0.5713 -0.8495 -1.1304
 3248SOL     OW13145   3.628   3.247   0.743 -0.1265 -0.0549  0.1443
 3248SOL    HW113146   3.621   3.219   0.834 -1.3353  0.8611  0.3565
 3248SOL    HW213147   3.621   3.165   0.693  1.2529 -0.6473  0.8648
 3249SOL     OW13148   9.815   1.110   8.678  0.4129  0.3794  0.1705
 3249SOL    HW113149   9.816   1.018   8.655  0.6037  0.3154  0.4335
 3249SOL    HW213150   9.723   1.136   8.668 -0.3968 -0.7298  3.6165
 3250SOL     OW13151   3.155   8.792   0.755  0.0682 -0.4014  0.1982
 3250SOL    HW113152   3.067   8.761   0.776 -0.0677  1.0321  1.9988
 3250SOL    HW213153   3.212   8.716   0.770 -0.7595 -1.1020 -0.1565
 3251SOL     OW13154   4.012   5.126   0.206 -0.0162  0.0150  0.1099
 3251SOL    HW113155   3.953   5.055   0.233 -0.6438 -0.1977 -1.6779
 3251SOL    HW213156   4.097   5.083   0.194  0.2691  0.1109  1.6387
 3252SOL     OW13157   8.405   3.501   7.310 -0.1104  0.0006  0.0649
 3252SOL    HW113158   8.484   3.502   7.364 -0.3860  0.9873  0.4673
 3252SOL    HW213159   8.339   3.545   7.363 -1.1169 -1.3756 -0.0151
 3253SOL     OW13160   3.407   1.238   7.305 -0.7019  0.5713 -0.1831
 3253SOL    HW113161   3.418   1.319   7.356  0.9415 -0.6503  1.5673
 3253SOL    HW213162   3.313   1.222   7.307 -0.6755 -0.1758  3.9398
 3254SOL     OW13163  10.353   6.097   1.519 -0.1840  0.2232  0.1021
 3254SOL    HW113164  10.419   6.035   1.551 -0.3595  0.4889  1.0084
 3254SOL    HW213165  10.336   6.069   1.429  1.8453  0.7166 -0.4709
 3255SOL     OW13166   6.078   5.213   2.269  1.0433 -0.2803 -0.1334
 3255SOL    HW113167   6.112   5.303   2.276 -0.2152  0.1143  1.4173
 3255SOL    HW213168   6.086   5.178   2.358 -2.8710 -0.0090  0.4671
 3256SOL     OW13169   7.945   7.847   0.575  0.3901 -0.2228 -0.2855
 3256SOL    HW113170   7.869   7.899   0.603  1.4680  2.3988 -1.8238
 3256SOL    HW213171   7.924   7.820   0.486  1.8466  2.1091 -1.4532
 3257SOL     OW13172   0.815   0.362  10.524  0.2833  0.0700  0.3170
 3257SOL    HW113173   0.824   0.286  10.581 -2.2876 -0.7373 -0.2073
 3257SOL    HW213174   0.788   0.433  10.583  2.6834  0.6727  0.8059
 3258SOL     OW13175   9.453   2.602   6.717 -0.2798  0.0475  0.3696
 3258SOL    HW113176   9.441   2.519   6.670  1.2554 -0.0092  0.0130
 3258SOL    HW213177   9.377   2.608   6.775 -0.4165 -1.6259  0.4145
 3259SOL     OW13178   3.963   6.078   6.449 -0.3483  0.1594 -0.2596
 3259SOL    HW113179   3.966   6.153   6.508 -1.4371  0.5871 -0.7226
 3259SOL    HW213180   3.992   6.113   6.364  1.4663 -0.5096  0.0334
 3260SOL     OW13181  10.800   0.918  10.569 -0.2682  0.4049 -0.3717
 3260SOL    HW113182  10.789   0.902  10.475 -1.9647 -1.0582  0.0201
 3260SOL    HW213183  10.721   0.968  10.594 -1.7321 -2.3253  0.8697
 3261SOL     OW13184   3.713   9.980   9.999 -0.4661  0.0661 -0.3226
 3261SOL    HW113185   3.806   9.999  10.004 -0.6958  1.0097  0.5949
 3261SOL    HW213186   3.706   9.887  10.020  0.4285 -0.4964 -2.2677
 3262SOL     OW13187   4.571   2.980   7.090  0.0402 -0.0695  0.3719
 3262SOL    HW113188   4.593   3.066   7.054 -0.4832  0.3383  1.0019
 3262SOL    HW213189   4.504   2.998   7.156  0.2549 -0.9102  0.8398
 3263SOL     OW13190   1.393   3.152   5.715 -0.4750  0.4534 -0.3909
 3263SOL    HW113191   1.328   3.084   5.698  0.0115 -0.0703 -0.2083
 3263SOL    HW213192   1.439   3.163   5.631 -1.0380  1.0860 -0.6193
 3264SOL     OW13193   9.425   9.117   2.460 -0.1326 -0.4540 -0.5291
 3264SOL    HW113194   9.436   9.160   2.375  0.1249  0.9520  0.1865
 3264SOL    HW213195   9.513   9.088   2.484  0.2847  1.3701  0.3531
 3265SOL     OW13196   3.249  10.786   3.036  0.3100 -0.6990 -0.0615
 3265SOL    HW113197   3.205  10.862   3.000 -1.1009 -0.8856  1.1721
 3265SOL    HW213198   3.342  10.808   3.033 -0.0888  1.2275  0.5693
 3266SOL     OW13199   5.055   3.373   1.482 -0.4832 -0.1412  1.0303
 3266SOL    HW113200   5.047   3.428   1.404  1.8623  0.5911  1.2174
 3266SOL    HW213201   4.966   3.344   1.501 -1.1416 -0.3434 -1.8991
 3267SOL     OW13202   7.362   8.444   8.137  0.3676 -0.3037  0.3101
 3267SOL    HW113203   7.322   8.523   8.102  0.0678 -0.4316  0.3595
 3267SOL    HW213204   7.308   8.421   8.213  0.5854 -0.4296  0.4298
 3268SOL     OW13205   0.274   2.944   6.769 -0.1320  0.3606 -0.0202
 3268SOL    HW113206   0.197   2.887   6.777  0.3671 -0.2332  0.7800
 3268SOL    HW213207   0.242   3.021   6.723 -0.7941 -0.6423 -1.3139
 3269SOL     OW13208   2.984   6.516   6.185  0.1179 -0.2332  0.2374
 3269SOL    HW113209   3.012   6.438   6.138  0.6810  0.0504  0.0904
 3269SOL    HW213210   2.914   6.486   6.244  1.9470 -1.3499  1.9739
 3270SOL     OW13211   3.346   8.938   8.164 -0.3341  0.2007 -0.3714
 3270SOL    HW113212   3.423   8.994   8.169  0.2895 -0.6265 -0.4856
 3270SOL    HW213213   3.377   8.859   8.119 -0.9632 -0.5995  0.5566
 3271SOL     OW13214   2.556   5.723  10.200 -0.3092 -0.1403  0.0831
 3271SOL    HW113215   2.507   5.778  10.261 -1.1397  0.2256 -0.8650
 3271SOL    HW213216   2.610   5.785  10.150 -0.2764 -0.3307 -0.1197
 3272SOL     OW13217   4.253  10.800   6.887  0.1379  0.3134  0.2318
 3272SOL    HW113218   4.227  10.708   6.894 -1.4252  0.7441  0.3602
 3272SOL    HW213219   4.345  10.796   6.860 -0.3903 -1.2912 -1.5873
 3273SOL     OW13220   6.325   6.781   0.317 -0.6506 -0.0314  0.3119
 3273SOL    HW113221   6.342   6.850   0.381 -1.1411 -0.3186  0.7638
 3273SOL    HW213222   6.258   6.726   0.358  0.2221 -1.1732  0.2551
 3274SOL     OW13223   0.092   6.032   6.311 -0.2196 -0.6550  0.1864
 3274SOL    HW113224   0.040   6.090   6.256  0.3499 -1.0210 -0.7595
 3274SOL    HW213225   0.033   5.959   6.331 -0.6391 -0.2024  0.6127
 3275SOL     OW13226   8.433   2.571   0.102  0.2305  0.5637  0.0616
 3275SOL    HW113227   8.398   2.629   0.034  1.5701 -0.8303 -1.9506
 3275SOL    HW213228   8.528   2.577   0.092  0.4177 -1.0002  0.6234
 3276SOL     OW13229  10.521   8.318   6.139  0.7686  0.1407 -0.3242
 3276SOL    HW113230  10.528   8.302   6.045  0.2467 -0.5303 -0.2558
 3276SOL    HW213231  10.601   8.365   6.162  1.4971 -0.7962 -0.8747
 3277SOL     OW13232   5.491   2.554   9.428 -0.0026  0.0917 -0.7684
 3277SOL    HW113233   5.418   2.600   9.471 -1.1323 -2.1889 -0.1037
 3277SOL    HW213234   5.450   2.508   9.355  0.1493 -3.3125  1.0958
 3278SOL     OW13235  10.368   2.231   5.747  0.0041 -0.0981 -0.1947
 3278SOL    HW113236  10.352   2.140   5.722 -2.0195  0.2440 -0.3508
 3278SOL    HW213237  10.317   2.243   5.828  0.3184  0.8655 -0.1256
 3279SOL     OW13238   2.540   5.721   9.054  0.5085  0.3473 -0.2022
 3279SOL    HW113239   2.484   5.644   9.041  0.2789  0.5375 -0.3566
 3279SOL    HW213240   2.624   5.685   9.082  0.4963  0.0207 -0.5734
 3280SOL     OW13241   4.556   6.436   2.929  0.1131 -0.0524 -0.0616
 3280SOL    HW113242   4.592   6.522   2.907 -0.4757  0.6362  1.4618
 3280SOL    HW213243   4.479   6.456   2.983 -0.8673 -1.5268 -0.8592
 3281SOL     OW13244   8.659   5.265   0.533  0.0877  0.3317  0.1520
 3281SOL    HW113245   8.642   5.352   0.495  0.4607 -0.1126 -1.0951
 3281SOL    HW213246   8.749   5.245   0.506  0.1100 -0.3109  0.6869
 3282SOL     OW13247   2.288   1.948   7.711  0.3879 -0.4606 -0.3576
 3282SOL    HW113248   2.219   1.937   7.645  1.0966 -0.9875 -1.0300
 3282SOL    HW213249   2.354   1.883   7.687  0.3350 -1.1740  1.3121
 3283SOL     OW13250   0.179   8.912   8.979 -0.1405  0.1430  0.0076
 3283SOL    HW113251   0.118   8.897   8.907  1.7228 -1.1287 -1.4168
 3283SOL    HW213252   0.176   8.831   9.030  0.0946  0.1966  0.1086
 3284SOL     OW13253   6.598   4.134   4.935  0.0353 -0.1950 -0.2477
 3284SOL    HW113254   6.584   4.040   4.941 -0.2605 -0.2424 -1.4102
 3284SOL    HW213255   6.678   4.143   4.884 -0.3919  0.1714 -0.8807
 3285SOL     OW13256  10.567   6.558   3.319  0.5795 -0.5797 -0.0027
 3285SOL    HW113257  10.553   6.511   3.237  0.5854 -0.3084 -0.1617
 3285SOL    HW213258  10.566   6.490   3.386  0.7609 -0.8248 -0.2466
 3286SOL     OW13259  10.033   4.173   6.948 -0.4979  0.3464  0.3881
 3286SOL    HW113260  10.096   4.241   6.926 -0.8125  0.1457 -1.2350
 3286SOL    HW213261  10.082   4.091   6.943 -0.3877  0.3493  1.2457
 3287SOL     OW13262   8.595   6.374   3.552 -0.1816  0.0201  0.1200
 3287SOL    HW113263   8.541   6.417   3.486  0.1609  0.3503  0.0451
 3287SOL    HW213264   8.534   6.329   3.609 -0.5164  0.1923 -0.1025
 3288SOL     OW13265   4.739   3.017   9.401  0.1468  0.2673 -0.3808
 3288SOL    HW113266   4.648   3.011   9.372  0.4867  0.9838 -1.6231
 3288SOL    HW213267   4.759   2.930   9.435 -0.9932  0.1063 -0.0776
 3289SOL     OW13268   8.406   3.080   8.528 -0.7075 -0.3035  0.2044
 3289SOL    HW113269   8.374   3.087   8.618 -2.7037  0.5879 -0.5115
 3289SOL    HW213270   8.382   2.992   8.500 -0.0689 -0.5879  0.5307
 3290SOL     OW13271   7.335   3.163   3.952 -0.1054 -0.6637 -0.0853
 3290SOL    HW113272   7.355   3.090   4.011 -0.9158 -0.1545  0.8454
 3290SOL    HW213273   7.281   3.123   3.883  0.6425 -1.2102 -0.3746
 3291SOL     OW13274   6.665   2.986   7.852 -0.4692  0.4663 -0.2599
 3291SOL    HW113275   6.588   2.960   7.802 -1.1343 -2.4539  1.9968
 3291SOL    HW213276   6.739   2.949   7.802 -0.8475  0.0859 -0.5461
 3292SOL     OW13277   7.960   3.553   3.645 -0.2306  0.0518 -0.6790
 3292SOL    HW113278   7.958   3.555   3.740 -1.7275  0.9691 -0.6926
 3292SOL    HW213279   8.020   3.482   3.623  0.5919  0.2132  0.9370
 3293SOL     OW13280   4.410   5.101   3.650 -0.4496  0.6084 -0.0548
 3293SOL    HW113281   4.382   5.010   3.657  0.6945  0.2391 -0.0534
 3293SOL    HW213282   4.329   5.151   3.641 -1.0393 -0.5204 -1.2668
 3294SOL     OW13283   3.812   7.492   2.417 -0.1880  0.5471  0.2849
 3294SOL    HW113284   3.806   7.564   2.354  0.0093 -0.0860 -0.4797
 3294SOL    HW213285   3.890   7.444   2.391 -0.4301 -0.0588  0.6586
 3295SOL     OW13286   0.611   4.740   5.523  0.3518  0.4380 -0.0291
 3295SOL    HW113287   0.557   4.818   5.511 -0.1337  0.2609  0.8883
 3295SOL    HW213288   0.701   4.772   5.520  0.1547  1.0658  0.4943
 3296SOL     OW13289   1.720   9.544   5.870  0.1132  0.9946  0.2918
 3296SOL    HW113290   1.700   9.473   5.931  2.9273 -0.9958 -0.8909
 3296SOL    HW213291   1.690   9.512   5.785  1.2684  1.2970 -0.2382
 3297SOL     OW13292  10.788   4.949   2.723  0.0154  0.1261  0.3091
 3297SOL    HW113293  10.790   5.011   2.795 -1.1214  1.7677 -0.9912
 3297SOL    HW213294  10.829   4.996   2.650  0.6218 -1.2672 -0.2933
 3298SOL     OW13295   3.694   9.755   9.754  0.6904 -0.1955  0.4866
 3298SOL    HW113296   3.670   9.846   9.772 -0.9465  0.0092 -2.1353
 3298SOL    HW213297   3.625   9.723   9.696  1.5885 -2.9324  0.7694
 3299SOL     OW13298  10.033   7.889   1.091  0.1378  0.2650  0.1212
 3299SOL    HW113299  10.002   7.926   1.008 -0.4841  0.0439  0.2448
 3299SOL    HW213300   9.955   7.848   1.129  0.3026  0.7469  1.0218
 3300SOL     OW13301   5.542   8.034   0.663  0.2152 -0.1737 -0.4110
 3300SOL    HW113302   5.562   7.974   0.591  0.5631  0.6385 -1.0052
 3300SOL    HW213303   5.598   8.004   0.735 -0.3136 -1.1425 -0.3908
 3301SOL     OW13304   0.271   8.910   8.284 -0.3642  0.8129 -0.2520
 3301SOL    HW113305   0.333   8.892   8.354 -1.1075  1.6435  0.6572
 3301SOL    HW213306   0.221   8.829   8.274 -1.2173  1.1322  1.2070
 3302SOL     OW13307   3.423   4.739   8.520 -0.1923  0.0692 -0.1947
 3302SOL    HW113308   3.492   4.804   8.510  1.3361 -1.2472  1.2479
 3302SOL    HW213309   3.351   4.772   8.465  2.4364  0.1750 -3.8976
 3303SOL     OW13310   6.277   7.852   3.638  0.1820  0.3426 -0.1712
 3303SOL    HW113311   6.346   7.790   3.661  0.0669  0.4114  0.3784
 3303SOL    HW213312   6.309   7.937   3.667 -0.0217  0.4118 -0.1448
 3304SOL     OW13313   7.363   7.387   2.595 -0.4768  0.0759 -0.4107
 3304SOL    HW113314   7.294   7.437   2.552 -0.1766 -0.6947 -1.8429
 3304SOL    HW213315   7.357   7.412   2.688 -1.3648  1.5074 -0.8346
 3305SOL     OW13316   4.517  10.244   2.705 -0.0073 -0.0122  0.2377
 3305SOL    HW113317   4.429  10.226   2.739 -0.5208  1.2429 -0.3648
 3305SOL    HW213318   4.576  10.219   2.776 -0.9412  0.6300  1.2606
 3306SOL     OW13319   7.309   7.888   1.768  0.3710  0.3949  0.0488
 3306SOL    HW113320   7.355   7.811   1.801  0.8851  0.2497 -0.9708
 3306SOL    HW213321   7.361   7.918   1.694 -0.6945  0.7644 -0.5844
 3307SOL     OW13322   2.122   3.049   2.688 -0.6110  0.0168  0.0677
 3307SOL    HW113323   2.164   3.134   2.678 -0.1846 -0.1720  0.2486
 3307SOL    HW213324   2.115   3.036   2.782  0.7419 -0.8278  0.0853
 3308SOL     OW13325   1.954   0.667   8.099 -0.0156  0.1405  0.1955
 3308SOL    HW113326   1.902   0.747   8.098 -0.9372 -0.4197  0.8421
 3308SOL    HW213327   1.920   0.618   8.174  2.4297  0.3603  1.5365
 3309SOL     OW13328   4.299   4.036   4.722 -0.6701 -0.1187  0.4702
 3309SOL    HW113329   4.276   4.053   4.813 -1.9898 -1.6030  0.4577
 3309SOL    HW213330   4.296   3.941   4.714 -0.0907 -0.0375 -1.0013
 3310SOL     OW13331   8.593  10.382   3.692  0.4351 -0.3053 -0.2286
 3310SOL    HW113332   8.632  10.361   3.777 -0.7179  1.4472  0.8011
 3310SOL    HW213333   8.643  10.457   3.660 -0.3354  0.2465 -0.1699
 3311SOL     OW13334   8.119   5.951   4.320 -0.1728 -0.2741  0.5929
 3311SOL    HW113335   8.176   5.998   4.259 -0.1830 -0.6009  0.3265
 3311SOL    HW213336   8.045   5.923   4.266 -0.5379  0.0652  0.9162
 3312SOL     OW13337   4.094   0.977   0.313 -0.3065 -0.7248 -0.2861
 3312SOL    HW113338   4.002   0.992   0.291 -0.2933 -0.4074 -0.1347
 3312SOL    HW213339   4.135   1.063   0.305  0.3740 -1.1716 -2.1482
 3313SOL     OW13340   0.746   6.608   0.571  0.0080 -0.1610 -0.2127
 3313SOL    HW113341   0.677   6.662   0.534  0.3094 -0.1095 -0.6984
 3313SOL    HW213342   0.826   6.659   0.561  0.5975 -1.3541 -2.2377
 3314SOL     OW13343   0.972   5.434   8.521  0.0403  0.0439 -0.1189
 3314SOL    HW113344   1.027   5.478   8.456  1.3410  1.4653  1.7981
 3314SOL    HW213345   1.012   5.348   8.532  0.7149  0.3453 -0.1644
 3315SOL     OW13346   6.993   3.443   0.820  0.6718 -0.1798  0.0067
 3315SOL    HW113347   6.981   3.515   0.759 -2.9905 -1.1888 -0.6954
 3315SOL    HW213348   6.999   3.365   0.765 -0.4624 -0.8825  0.8311
 3316SOL     OW13349   9.829   2.538   1.394 -0.0924 -0.1144  0.9667
 3316SOL    HW113350   9.849   2.445   1.383  1.2387  0.3815 -1.4158
 3316SOL    HW213351   9.911   2.578   1.421 -0.3464  0.5447  0.7867
 3317SOL     OW13352   6.777   9.482  10.089 -0.5980  0.4987  0.1559
 3317SOL    HW113353   6.831   9.561  10.097  0.2626  0.4160 -3.2287
 3317SOL    HW213354   6.834   9.411  10.118 -0.0373  0.7689 -0.2599
 3318SOL     OW13355   6.451   9.118   2.528  0.2294  0.0530  0.3125
 3318SOL    HW113356   6.459   9.070   2.610 -2.4303 -0.5599  0.2950
 3318SOL    HW213357   6.405   9.199   2.552  0.5294  0.4420 -0.3918
 3319SOL     OW13358  10.462   8.916   5.044 -0.4594  0.6059 -0.1921
 3319SOL    HW113359  10.458   9.006   5.077 -0.1366  0.3236  0.6576
 3319SOL    HW213360  10.374   8.899   5.012 -0.8504  0.8515  0.7036
 3320SOL     OW13361   2.190   2.870   8.266  0.0408 -0.3810 -0.1226
 3320SOL    HW113362   2.204   2.866   8.171 -1.4711  2.1475 -0.5304
 3320SOL    HW213363   2.231   2.952   8.292 -2.2070  0.4971  0.8535
 3321SOL     OW13364   9.701   6.765   4.693 -0.0696 -0.0592 -0.3468
 3321SOL    HW113365   9.730   6.856   4.692 -1.7456  0.5217 -1.1680
 3321SOL    HW213366   9.693   6.743   4.786  1.0457  0.3790 -0.1359
 3322SOL     OW13367   0.856   5.541  10.917  0.8902  0.0493  0.2675
 3322SOL    HW113368   0.920   5.573  10.981  1.4980 -1.6757  0.5833
 3322SOL    HW213369   0.887   5.454  10.894 -0.5262 -0.2183 -0.7454
 3323SOL     OW13370   1.151   3.724  10.054 -0.1683  0.0443  0.3470
 3323SOL    HW113371   1.111   3.674   9.983  0.6676 -0.0867 -0.0453
 3323SOL    HW213372   1.135   3.816  10.031 -1.1825 -0.0113  0.7631
 3324SOL     OW13373   6.455   1.186   9.242 -0.1468 -0.5894 -0.1234
 3324SOL    HW113374   6.489   1.175   9.331 -1.5858  0.2821  0.5620
 3324SOL    HW213375   6.477   1.276   9.219  3.5697 -1.7885 -2.2073
 3325SOL     OW13376   4.422  10.223   5.916 -0.0529  0.3658  0.2274
 3325SOL    HW113377   4.490  10.279   5.954 -1.0000  1.3851  0.4784
 3325SOL    HW213378   4.360  10.284   5.878 -0.3020 -0.5875 -0.9382
 3326SOL     OW13379   7.382   3.750   5.746  0.6362  0.3539  0.2805
 3326SOL    HW113380   7.351   3.720   5.831 -2.3043  1.4293 -0.2752
 3326SOL    HW213381   7.359   3.680   5.686  0.4280  0.6342  0.0314
 3327SOL     OW13382   4.496   7.500   6.845 -0.2894  0.3167  0.1592
 3327SOL    HW113383   4.529   7.589   6.862  0.0437  0.0942  0.6927
 3327SOL    HW213384   4.411   7.514   6.805  0.2942  0.8996 -0.9207
 3328SOL     OW13385   9.680   9.807   9.445  0.0442 -0.5863 -0.0842
 3328SOL    HW113386   9.667   9.787   9.537  0.5874 -0.5337  0.0029
 3328SOL    HW213387   9.634   9.736   9.399  0.3418 -0.9838  0.2234
 3329SOL     OW13388   6.086   8.382   2.507 -0.0936 -0.1994  0.5936
 3329SOL    HW113389   6.015   8.349   2.562  0.9465 -2.2401  0.8261
 3329SOL    HW213390   6.059   8.360   2.418  0.3005 -1.1401  0.6962
 3330SOL     OW13391   4.964   3.188   5.013 -0.2383  1.0285 -0.0075
 3330SOL    HW113392   4.967   3.195   4.918  0.6104  0.0290 -0.0691
 3330SOL    HW213393   5.054   3.168   5.039 -0.7144 -0.0480  0.8933
 3331SOL     OW13394   7.946   8.769   3.104  0.4629  0.5903 -0.2039
 3331SOL    HW113395   7.875   8.828   3.132  1.1274  1.0008  0.6423
 3331SOL    HW213396   7.913   8.681   3.123  0.1599  0.7743  0.1333
 3332SOL     OW13397   3.271  10.152   6.747  0.5169  0.4193 -0.1660
 3332SOL    HW113398   3.306  10.074   6.790  0.1511  0.5463  0.3720
 3332SOL    HW213399   3.326  10.224   6.778  0.8205  0.3943 -0.6209
 3333SOL     OW13400   5.699   6.253  10.649 -0.2125 -0.0775 -0.7970
 3333SOL    HW113401   5.737   6.184  10.703  0.0909 -0.7737 -1.8744
 3333SOL    HW213402   5.749   6.251  10.568 -0.7907  0.8096 -1.1985
 3334SOL     OW13403   9.052   3.617   5.213  0.4157 -0.4605  0.4324
 3334SOL    HW113404   9.095   3.696   5.244 -2.3857  1.1123  0.6995
 3334SOL    HW213405   9.088   3.602   5.126  0.5940  1.4932  0.1289
 3335SOL     OW13406   0.512   8.567   4.492  0.1745 -0.2975  0.1066
 3335SOL    HW113407   0.600   8.598   4.467 -0.0083  0.2459  0.1238
 3335SOL    HW213408   0.478   8.525   4.413  0.5655 -0.7742  0.1874
 3336SOL     OW13409   2.746   8.979   4.203  0.7214  0.5320 -0.5821
 3336SOL    HW113410   2.706   8.950   4.285  0.8409  1.1957 -0.2842
 3336SOL    HW213411   2.730   8.907   4.141 -0.4212  0.5378 -0.3103
 3337SOL     OW13412   5.460   7.817   3.788 -0.5550  0.6065 -0.1143
 3337SOL    HW113413   5.410   7.878   3.843 -0.6232  1.2062 -0.8282
 3337SOL    HW213414   5.509   7.874   3.728  0.9961  0.0458  0.5617
 3338SOL     OW13415   7.379   9.184   3.897 -0.7910 -0.3598  0.2057
 3338SOL    HW113416   7.333   9.193   3.814 -0.4689 -2.9830 -0.3509
 3338SOL    HW213417   7.332   9.115   3.943  1.1583 -1.4884  0.6168
 3339SOL     OW13418   7.557   0.278   2.189 -0.3685 -0.2681  0.1478
 3339SOL    HW113419   7.651   0.296   2.178 -0.9607  2.4966 -1.4555
 3339SOL    HW213420   7.535   0.220   2.116 -0.3728  1.5128 -1.3637
 3340SOL     OW13421  10.058   6.347   5.739  0.4244  0.6461 -0.4528
 3340SOL    HW113422   9.980   6.298   5.767  0.4943  0.8116  0.0401
 3340SOL    HW213423  10.044   6.436   5.771  0.7505  0.7115 -0.4862
 3341SOL     OW13424   2.518   8.868   2.587 -0.4274 -0.2904  0.0400
 3341SOL    HW113425   2.602   8.825   2.569  0.2122  0.1018  1.8783
 3341SOL    HW213426   2.463   8.798   2.621  0.4214  0.1132  2.4530
 3342SOL     OW13427   8.661   3.415   3.685 -0.1578  0.0713 -0.0735
 3342SOL    HW113428   8.609   3.451   3.613 -0.6154 -0.5994 -0.0967
 3342SOL    HW213429   8.717   3.350   3.643  1.7476  1.7594 -0.2647
 3343SOL     OW13430   5.330   8.616   0.177 -0.4591 -0.1267  0.8175
 3343SOL    HW113431   5.358   8.703   0.204  0.7375 -0.5619  1.0658
 3343SOL    HW213432   5.248   8.630   0.130 -0.3872  1.1038  1.0320
 3344SOL     OW13433   8.753  10.325   0.403  0.0203 -0.0452  0.9166
 3344SOL    HW113434   8.842  10.361   0.400 -0.3834  0.9598 -2.1444
 3344SOL    HW213435   8.737  10.311   0.496  3.2524  0.0179  1.6172
 3345SOL     OW13436   8.806  10.353   8.085  0.1504  0.2959 -0.2162
 3345SOL    HW113437   8.848  10.434   8.116 -2.6895  1.8944 -0.2068
 3345SOL    HW213438   8.717  10.357   8.121 -0.0882 -2.9513 -0.1236
 3346SOL     OW13439   0.115   9.411  10.231  0.0147  0.5169  0.7789
 3346SOL    HW113440   0.085   9.355  10.159  1.1410 -0.1011  0.7669
 3346SOL    HW213441   0.037   9.459  10.258 -1.0281 -1.1536  0.8746
 3347SOL     OW13442   7.855  10.024   7.473  0.2425  0.5769 -0.3740
 3347SOL    HW113443   7.897   9.980   7.547 -1.2081 -0.2770 -0.0186
 3347SOL    HW213444   7.888   9.979   7.396  1.7031  1.4156 -0.2599
 3348SOL     OW13445   7.682   0.415   5.251 -0.1524  0.2641 -0.0539
 3348SOL    HW113446   7.713   0.353   5.185  0.4556 -1.2245  1.5647
 3348SOL    HW213447   7.741   0.490   5.242  0.9128 -0.5636 -0.1872
 3349SOL     OW13448   1.591   6.301   3.090 -0.0210 -0.8240  0.3857
 3349SOL    HW113449   1.498   6.323   3.097 -0.2326 -1.1927 -0.9261
 3349SOL    HW213450   1.610   6.307   2.996  1.1130 -1.4277  0.5566
 3350SOL     OW13451   7.070  10.862   5.826  1.1170 -0.0520  0.2348
 3350SOL    HW113452   7.110  10.949   5.833  0.6451  0.1277  0.7413
 3350SOL    HW213453   6.986  10.877   5.783 -0.0533  0.1094  2.4151
 3351SOL     OW13454   0.816   3.411   6.719 -0.2103  1.1254  0.0024
 3351SOL    HW113455   0.789   3.480   6.780 -0.8589  2.0893 -1.3246
 3351SOL    HW213456   0.749   3.344   6.727 -0.9641  1.8036 -0.5319
 3352SOL     OW13457   5.929   1.070   9.983  0.2302  0.1983 -0.0530
 3352SOL    HW113458   5.992   0.998   9.974  0.7945  0.8903 -2.2021
 3352SOL    HW213459   5.846   1.026  10.003  1.3161 -0.7243  2.9602
 3353SOL     OW13460   8.895   0.829   3.122  0.2993 -0.6768  0.3127
 3353SOL    HW113461   8.945   0.882   3.060  0.1600 -0.4700  0.3767
 3353SOL    HW213462   8.958   0.766   3.156  0.3888 -0.7656 -0.0101
 3354SOL     OW13463   3.582   2.525   9.458  0.0393  0.4697  0.1134
 3354SOL    HW113464   3.641   2.453   9.479  1.8022  1.6935 -0.3993
 3354SOL    HW213465   3.555   2.508   9.367 -0.0277  0.1749  0.1850
 3355SOL     OW13466   2.523   2.889   2.069  0.0849  0.1932 -0.2215
 3355SOL    HW113467   2.574   2.898   1.988  2.1767  0.4344  1.0478
 3355SOL    HW213468   2.472   2.970   2.074  0.6330  0.5909 -0.8497
 3356SOL     OW13469   5.045   6.198   0.220  0.0813 -0.1457  0.0309
 3356SOL    HW113470   5.063   6.265   0.154 -1.6349 -0.6603 -0.9918
 3356SOL    HW213471   4.992   6.132   0.175 -3.5523  0.8021  2.5011
 3357SOL     OW13472   7.431   8.433   9.457 -0.5010 -0.2234 -0.1047
 3357SOL    HW113473   7.456   8.471   9.373 -0.9669 -1.7108 -0.9416
 3357SOL    HW213474   7.430   8.508   9.518  0.0199  0.8390 -1.3620
 3358SOL     OW13475   3.023   7.911   5.683 -0.4746  0.2708  0.6691
 3358SOL    HW113476   3.030   7.998   5.722  2.1494  1.0747 -1.3508
 3358SOL    HW213477   3.093   7.860   5.724  1.2312  0.6453 -1.5735
 3359SOL     OW13478   4.270   6.981   6.021 -0.5621 -0.2235  0.7531
 3359SOL    HW113479   4.343   6.983   6.084 -0.5396  1.4539  0.7231
 3359SOL    HW213480   4.296   6.915   5.957  1.6912  1.3689 -0.0976
 3360SOL     OW13481   9.529   9.213   2.224 -0.1341 -0.8424 -1.0014
 3360SOL    HW113482   9.519   9.302   2.189  0.3146 -0.9450 -1.4058
 3360SOL    HW213483   9.606   9.178   2.178 -1.2916 -2.0317 -2.1017
 3361SOL     OW13484   2.912  10.549   6.737  0.3108 -0.4716 -0.1921
 3361SOL    HW113485   2.837  10.531   6.680  0.6646 -0.2664 -0.7348
 3361SOL    HW213486   2.987  10.521   6.686  0.6779  0.2305 -0.0532
 3362SOL     OW13487  10.104  10.053   9.186  0.1610  0.3701 -0.2263
 3362SOL    HW113488  10.172  10.081   9.248  0.7849 -0.7414 -0.3809
 3362SOL    HW213489  10.037  10.011   9.240  1.0667 -1.3025 -0.3191
 3363SOL     OW13490   0.255   9.804   9.476 -0.1125  0.6571  0.3504
 3363SOL    HW113491   0.212   9.816   9.561 -1.2220 -2.4807  0.3837
 3363SOL    HW213492   0.294   9.716   9.481  2.3530  1.5494 -1.3881
 3364SOL     OW13493   3.607   8.846   5.509  0.3258  0.5438 -0.3433
 3364SOL    HW113494   3.534   8.830   5.450 -0.5824  1.8582  0.3763
 3364SOL    HW213495   3.669   8.775   5.490 -0.1834  0.5851 -2.4285
 3365SOL     OW13496   6.367  10.145   1.782 -0.2052 -0.0032 -0.3026
 3365SOL    HW113497   6.277  10.167   1.758  0.2072  3.3658  0.6632
 3365SOL    HW213498   6.359  10.071   1.842 -2.5262  1.1814  1.0068
 3366SOL     OW13499   1.116   0.675   2.157 -0.2179 -0.2763  0.1639
 3366SOL    HW113500   1.122   0.692   2.251 -1.1867  0.7266  0.0727
 3366SOL    HW213501   1.140   0.583   2.147 -0.0123 -0.3699  1.3791
 3367SOL     OW13502   5.837  10.290   3.227  0.3302 -0.4816  0.4336
 3367SOL    HW113503   5.851  10.361   3.289 -0.0375 -0.2811  0.2964
 3367SOL    HW213504   5.919  10.283   3.178 -0.4920  1.6986 -1.4228
 3368SOL     OW13505   4.360   6.465  10.919 -0.2589  0.2255  0.0852
 3368SOL    HW113506   4.418   6.495  10.989 -1.3883 -1.1630  1.6791
 3368SOL    HW213507   4.338   6.375  10.942 -0.7898 -0.2392 -2.0095
 3369SOL     OW13508   6.976   8.719   9.789 -0.1126 -0.2025  0.0526
 3369SOL    HW113509   6.991   8.801   9.836  1.8899 -0.5245  0.0404
 3369SOL    HW213510   6.906   8.676   9.839 -1.2026  1.4813  0.0461
 3370SOL     OW13511   2.950   9.873   3.185 -0.3187 -0.9422  0.2499
 3370SOL    HW113512   2.993   9.915   3.259  0.3785  0.1617 -0.7395
 3370SOL    HW213513   3.022   9.841   3.130 -0.8156 -3.5124  0.9572
 3371SOL     OW13514   3.032   0.284   5.835  0.3348 -0.2389 -0.4834
 3371SOL    HW113515   2.973   0.241   5.898  1.2999 -0.0973  0.5593
 3371SOL    HW213516   3.063   0.212   5.779 -0.8128 -0.3101 -1.0575
 3372SOL     OW13517   3.026   7.742   7.307 -0.1899  0.4713  0.6081
 3372SOL    HW113518   3.089   7.769   7.240  0.0703 -2.1721 -0.3133
 3372SOL    HW213519   3.081   7.715   7.381 -0.1056 -2.2032 -0.3350
 3373SOL     OW13520   0.723   9.542   3.549 -0.5805 -0.3949 -0.0921
 3373SOL    HW113521   0.798   9.530   3.490 -0.5865 -0.5041 -0.0788
 3373SOL    HW213522   0.743   9.486   3.624  0.0833  0.8082  0.6472
 3374SOL     OW13523   5.906  10.257   9.183  0.4643  0.3375  0.2403
 3374SOL    HW113524   5.886  10.167   9.209  0.1378  0.2715 -0.2250
 3374SOL    HW213525   5.900  10.257   9.088  2.3720  0.4049  0.0898
 3375SOL     OW13526   0.360   3.245   4.805  0.4490 -0.2372  0.7283
 3375SOL    HW113527   0.418   3.249   4.881  0.1615  2.7559  0.9088
 3375SOL    HW213528   0.279   3.207   4.839  0.7350 -0.0940  1.5901
 3376SOL     OW13529   7.449   9.742  10.065 -0.1127 -0.0956  0.2107
 3376SOL    HW113530   7.487   9.817  10.110  0.6025  0.5987 -1.4747
 3376SOL    HW213531   7.355   9.748  10.084  0.1958  0.0169  1.7860
 3377SOL     OW13532  10.713   8.844   9.793  0.9004  0.6455  0.0724
 3377SOL    HW113533  10.722   8.763   9.744 -0.4356 -0.3982  1.4688
 3377SOL    HW213534  10.795   8.850   9.843  0.7748 -0.1692  0.3965
 3378SOL     OW13535   7.865   9.354   2.601 -0.5706 -0.1352 -0.1148
 3378SOL    HW113536   7.778   9.386   2.622 -0.7738 -1.4996  1.3971
 3378SOL    HW213537   7.924   9.422   2.634 -1.0359  0.8929 -1.3370
 3379SOL     OW13538   3.825   1.412   6.856 -0.5991 -0.1537  0.2111
 3379SOL    HW113539   3.812   1.489   6.800 -0.6576  0.3408  0.8912
 3379SOL    HW213540   3.867   1.348   6.799  0.4513  0.7676 -0.1038
 3380SOL     OW13541   2.311   6.164   4.116  0.4797  0.5120  0.4675
 3380SOL    HW113542   2.342   6.094   4.059 -1.4985 -0.3967  0.4265
 3380SOL    HW213543   2.390   6.213   4.139  1.8323 -1.3175 -0.0533
 3381SOL     OW13544   8.479   8.819  10.563 -0.0224  0.5833  0.3599
 3381SOL    HW113545   8.515   8.816  10.652  0.1344  4.3328  0.5984
 3381SOL    HW213546   8.419   8.745  10.558  0.6218 -0.2436  3.2820
 3382SOL     OW13547   3.989   8.357   9.550  0.0561  0.0402 -0.3325
 3382SOL    HW113548   4.044   8.280   9.535  0.0796  0.0345 -0.2158
 3382SOL    HW213549   3.901   8.321   9.559  0.1067 -0.0045  0.0171
 3383SOL     OW13550   8.397   7.950   1.235 -0.0873  0.4563  0.5782
 3383SOL    HW113551   8.314   7.937   1.281  1.0265 -0.6424  2.3850
 3383SOL    HW213552   8.412   7.867   1.189  0.5847  0.2176  1.2282
 3384SOL     OW13553   7.615   2.529   5.209 -0.2746 -0.4175 -0.0358
 3384SOL    HW113554   7.570   2.480   5.141 -2.3531 -1.3257  1.8982
 3384SOL    HW213555   7.634   2.614   5.169 -1.6594 -0.8305 -1.6593
 3385SOL     OW13556   7.688   9.873   0.198  0.6040  0.5114  0.0672
 3385SOL    HW113557   7.626   9.925   0.146  0.9400  1.3302  0.4654
 3385SOL    HW213558   7.663   9.890   0.289  0.4163 -0.4137  0.1950
 3386SOL     OW13559   1.310   6.060   1.632  0.1055  0.2157  0.5510
 3386SOL    HW113560   1.337   6.151   1.648 -0.9806  0.4613  1.0455
 3386SOL    HW213561   1.354   6.010   1.701  0.2737  0.4360  0.6070
 3387SOL     OW13562   6.919   2.288   5.307 -1.0070 -0.0137 -0.0717
 3387SOL    HW113563   6.934   2.243   5.224 -1.1330  1.8170 -1.1283
 3387SOL    HW213564   6.873   2.368   5.283 -2.8515 -0.3572  1.9820
 3388SOL     OW13565   5.219   7.484   0.731  0.3391  1.0830  0.0059
 3388SOL    HW113566   5.227   7.411   0.792 -0.6555  0.1000 -0.9866
 3388SOL    HW213567   5.125   7.505   0.731  0.3513  1.1871 -1.0221
 3389SOL     OW13568   7.260   0.104   8.985 -0.2699  0.1101  0.1481
 3389SOL    HW113569   7.277   0.032   9.046 -1.9588 -0.1025  0.4121
 3389SOL    HW213570   7.201   0.162   9.033  1.9832  2.3404  0.3853
 3390SOL     OW13571   3.449   0.146   3.326  0.1608  0.0115 -0.1706
 3390SOL    HW113572   3.360   0.154   3.290  0.4966  1.2667 -0.8068
 3390SOL    HW213573   3.465   0.231   3.368  0.3944 -0.8578  1.5552
 3391SOL     OW13574   8.194   5.915   0.140  0.1716 -0.3111  0.2772
 3391SOL    HW113575   8.223   5.878   0.056  1.0592  1.0773 -0.0516
 3391SOL    HW213576   8.235   6.001   0.144 -0.0785 -0.2403  2.0310
 3392SOL     OW13577   0.009   2.006   2.800  0.7112 -0.0562 -0.0508
 3392SOL    HW113578   0.047   2.070   2.860  1.6994  1.1209 -1.8407
 3392SOL    HW213579   0.027   2.041   2.713 -1.5295 -1.1878 -1.0587
 3393SOL     OW13580   4.658   4.381   3.116 -0.5438 -0.2940  0.1077
 3393SOL    HW113581   4.667   4.342   3.203 -1.1214  1.7840  1.1595
 3393SOL    HW213582   4.709   4.462   3.121 -0.1732 -0.3815 -1.6719
 3394SOL     OW13583   9.632   1.120   8.001  0.1823 -0.3631  0.3443
 3394SOL    HW113584   9.647   1.116   7.907 -0.2549 -1.2193  0.3069
 3394SOL    HW213585   9.709   1.166   8.035  0.5662 -0.4555 -0.3728
 3395SOL     OW13586   3.747   6.468   3.361  0.2197 -0.1321  0.3271
 3395SOL    HW113587   3.750   6.538   3.427  0.9204  2.7879 -2.5244
 3395SOL    HW213588   3.667   6.486   3.311  0.6523 -1.1273 -0.7616
 3396SOL     OW13589   3.031   1.034   4.828  0.2546  0.1981  0.5557
 3396SOL    HW113590   3.047   1.099   4.896 -2.0760  1.8176 -0.2979
 3396SOL    HW213591   2.999   1.085   4.754 -1.4764 -1.9117 -0.2470
 3397SOL     OW13592  10.251   3.891  10.476 -0.3690  0.0784  0.0937
 3397SOL    HW113593  10.306   3.970  10.478  1.6285 -1.1723 -1.5873
 3397SOL    HW213594  10.305   3.824  10.518 -0.7863 -1.1069 -1.2195
 3398SOL     OW13595  10.760   3.660   4.629  0.1546  0.1930 -0.2457
 3398SOL    HW113596  10.752   3.569   4.658  0.3099 -0.2435 -1.5309
 3398SOL    HW213597  10.670   3.689   4.616 -0.0303  0.9420  2.1969
 3399SOL     OW13598   9.956   7.502   5.937  0.0150  0.1485 -0.1891
 3399SOL    HW113599  10.027   7.437   5.937  0.0992  0.1488  2.4074
 3399SOL    HW213600   9.931   7.511   6.029 -1.7620  1.9252 -0.7657
 3400SOL     OW13601   0.893   9.328   8.398 -0.0932  0.5034 -0.2663
 3400SOL    HW113602   0.836   9.396   8.434  2.1473  2.1249  0.3580
 3400SOL    HW213603   0.900   9.349   8.305 -0.3422  0.4167 -0.3055
 3401SOL     OW13604   8.601  10.741   0.910 -0.1224  0.0964  0.1564
 3401SOL    HW113605   8.672  10.806   0.908  0.8001 -0.7951  2.0098
 3401SOL    HW213606   8.642  10.662   0.944 -2.4449  0.1297  3.4113
 3402SOL     OW13607   5.113  10.686   5.685 -0.5623  0.0395 -0.4395
 3402SOL    HW113608   5.176  10.737   5.735 -0.9712 -1.0489  1.2447
 3402SOL    HW213609   5.166  10.645   5.616  0.7785 -1.3940  1.3319
 3403SOL     OW13610   2.426   7.300   1.206 -0.0883 -0.1146  0.5618
 3403SOL    HW113611   2.494   7.244   1.243 -1.2272 -1.0451  1.2955
 3403SOL    HW213612   2.403   7.360   1.276 -1.5586 -1.2464  1.0944
 3404SOL     OW13613   0.860   2.812   6.708 -0.1120 -0.0340  0.1227
 3404SOL    HW113614   0.852   2.830   6.802 -0.5651 -0.1189  0.1048
 3404SOL    HW213615   0.940   2.760   6.699 -0.8169 -1.2425  0.6334
 3405SOL     OW13616   1.893  10.578   7.084  0.0411  0.6007 -0.1480
 3405SOL    HW113617   1.884  10.599   7.177  0.8820  0.9813 -0.1464
 3405SOL    HW213618   1.925  10.487   7.083 -1.8132 -0.1043 -0.1238
 3406SOL     OW13619   2.562   7.588   2.695 -0.2784 -0.9822  0.8146
 3406SOL    HW113620   2.561   7.497   2.668 -1.0897 -0.1996 -2.0573
 3406SOL    HW213621   2.472   7.618   2.686  0.2792  0.5590 -0.1399
 3407SOL     OW13622   9.915   5.043   6.793 -0.3347 -0.4218 -0.2857
 3407SOL    HW113623   9.908   5.133   6.760 -0.2861  0.2361  1.4116
 3407SOL    HW213624   9.923   5.052   6.888 -0.6232 -2.2423 -0.0417
 3408SOL     OW13625  10.781   9.126   2.711  0.8835  0.1156  0.5903
 3408SOL    HW113626  10.745   9.049   2.753  5.3019 -2.0133  1.0948
 3408SOL    HW213627  10.813   9.180   2.783  0.9822  0.6384  0.1660
 3409SOL     OW13628   0.379   2.202   3.622 -0.2780 -0.1458 -0.4970
 3409SOL    HW113629   0.456   2.146   3.622  1.0136  1.5122  1.2168
 3409SOL    HW213630   0.412   2.289   3.642 -2.5699  0.6764  0.0727
 3410SOL     OW13631   2.264   7.497   9.856  0.1014  0.1058 -0.1962
 3410SOL    HW113632   2.179   7.536   9.871 -0.1277  0.6284 -2.4455
 3410SOL    HW213633   2.317   7.567   9.819  1.0592 -0.5789 -0.1800
 3411SOL     OW13634  10.853   6.323   7.193  0.2280 -0.1203  0.2799
 3411SOL    HW113635  10.815   6.256   7.135  0.7839  0.8032 -1.2018
 3411SOL    HW213636  10.936   6.347   7.151  0.9756  0.1028  1.8364
 3412SOL     OW13637   7.046   9.193   5.437 -0.3033 -0.2479 -0.3506
 3412SOL    HW113638   7.019   9.241   5.516 -0.1541 -1.4316  0.4479
 3412SOL    HW213639   6.989   9.226   5.368  0.4460  1.7803 -0.0680
 3413SOL     OW13640   2.528   8.382   5.619 -0.6537 -0.2864 -0.0338
 3413SOL    HW113641   2.481   8.408   5.540 -0.5269 -2.7059 -0.9704
 3413SOL    HW213642   2.466   8.402   5.690 -3.0806 -2.9426 -1.1865
 3414SOL     OW13643   5.372   9.347   5.480 -0.3369  0.1186  0.3367
 3414SOL    HW113644   5.295   9.388   5.519 -0.8322 -0.4833  0.0282
 3414SOL    HW213645   5.349   9.338   5.387  0.6365  1.1212 -0.0190
 3415SOL     OW13646  10.695   7.012  10.368 -0.0679 -0.2791 -0.4097
 3415SOL    HW113647  10.642   6.965  10.432  1.2413  0.0049  0.9671
 3415SOL    HW213648  10.655   7.099  10.364  0.3259 -0.0157  0.7374
 3416SOL     OW13649   0.609   0.444   7.260 -0.7346  0.4506 -0.4520
 3416SOL    HW113650   0.586   0.356   7.231 -0.0734  0.2634 -0.4279
 3416SOL    HW213651   0.637   0.489   7.179  2.4406 -0.4834 -0.0381
 3417SOL     OW13652   9.749   1.593   6.171 -0.3544  0.1049 -0.7183
 3417SOL    HW113653   9.801   1.628   6.243  2.7883  1.4682 -3.3978
 3417SOL    HW213654   9.780   1.503   6.160 -1.1732 -0.2600 -0.1131
 3418SOL     OW13655  10.130   1.996   4.026 -0.1535 -0.4137 -0.0331
 3418SOL    HW113656  10.120   2.012   3.932  1.7399 -1.3706 -0.4406
 3418SOL    HW213657  10.219   2.023   4.045  0.2172 -2.2380  1.0250
 3419SOL     OW13658   8.992   4.322   2.550 -0.2540  0.6836  0.0601
 3419SOL    HW113659   9.035   4.236   2.550  0.4894  1.0288 -0.8989
 3419SOL    HW213660   8.980   4.343   2.642  0.1908 -0.1480  0.3195
 3420SOL     OW13661   1.390   5.358   0.927 -0.1607 -0.0037  0.2126
 3420SOL    HW113662   1.417   5.342   0.837 -1.9877  1.0529 -0.5994
 3420SOL    HW213663   1.324   5.291   0.945 -0.4386  0.3232  0.4353
 3421SOL     OW13664  10.279   2.721   3.558 -0.7787  0.2750 -0.1990
 3421SOL    HW113665  10.277   2.802   3.609  3.2916  0.9546 -0.7812
 3421SOL    HW213666  10.216   2.664   3.602 -0.7916  2.3383  2.7918
 3422SOL     OW13667   4.089   8.661   5.333  0.1037  0.1955  0.3159
 3422SOL    HW113668   4.139   8.700   5.262  0.4413 -0.6349  0.0861
 3422SOL    HW213669   4.156   8.632   5.395  0.0297 -2.2606 -0.6745
 3423SOL     OW13670   3.165  10.558   7.960 -0.0638 -0.5431 -0.1622
 3423SOL    HW113671   3.187  10.484   8.017 -1.2179 -0.7747 -0.0044
 3423SOL    HW213672   3.249  10.583   7.921  0.3701 -1.8685 -0.1385
 3424SOL     OW13673   3.044   3.871   8.490 -0.0255  0.6491 -0.1156
 3424SOL    HW113674   3.003   3.806   8.547  0.8309  0.4919  0.3342
 3424SOL    HW213675   3.084   3.933   8.550  3.0502 -0.8409 -0.4587
 3425SOL     OW13676  10.007   0.065  10.554 -0.2967 -0.3024  0.5763
 3425SOL    HW113677  10.065   0.107  10.491  0.1486 -0.7140  0.7064
 3425SOL    HW213678  10.066   0.021  10.615 -0.6745  0.9407  1.8978
 3426SOL     OW13679   1.528   4.919   0.492  0.0930 -0.3239 -0.2085
 3426SOL    HW113680   1.502   4.947   0.580  0.4034 -0.2230 -0.1470
 3426SOL    HW213681   1.536   4.824   0.499 -2.6081 -0.6899 -0.8399
 3427SOL     OW13682   5.945   8.098   3.101  0.3639  0.1163  0.4494
 3427SOL    HW113683   5.907   8.158   3.165  0.0526 -1.2198  1.5509
 3427SOL    HW213684   6.039   8.100   3.118  0.3113 -0.0226  0.7447
 3428SOL     OW13685   1.920   3.857   8.461 -0.2321  0.3240  0.2748
 3428SOL    HW113686   2.003   3.836   8.419 -0.7676 -0.5024 -0.4220
 3428SOL    HW213687   1.937   3.936   8.511  1.1401 -0.1888  0.6652
 3429SOL     OW13688   4.271   7.679   7.191  0.0880 -0.0102 -0.0682
 3429SOL    HW113689   4.245   7.715   7.277 -0.4480  0.1952 -0.3085
 3429SOL    HW213690   4.285   7.757   7.137  0.1304 -0.1445 -0.2476
 3430SOL     OW13691  10.494   2.804   1.032  0.4661 -0.1748  0.0668
 3430SOL    HW113692  10.532   2.738   0.973  1.0681 -0.0211  0.2710
 3430SOL    HW213693  10.541   2.792   1.114  2.6972  2.3632 -0.6829
 3431SOL     OW13694  10.261   6.329   7.160 -0.2286 -0.1478 -0.0785
 3431SOL    HW113695  10.231   6.255   7.212 -0.1297  0.0107  0.2091
 3431SOL    HW213696  10.352   6.341   7.185  0.7810 -2.0079 -2.5626
 3432SOL     OW13697  10.755   8.987   7.076 -0.1469  0.1390  0.6117
 3432SOL    HW113698  10.726   8.896   7.075 -1.4143  0.5014  1.7282
 3432SOL    HW213699  10.684   9.036   7.035  1.0525  0.5350 -1.1297
 3433SOL     OW13700  10.068   0.051  10.085  0.1970 -0.2064 -0.0807
 3433SOL    HW113701   9.985   0.066  10.130 -0.2408 -1.7611 -0.2970
 3433SOL    HW213702  10.124   0.011  10.152 -0.0182 -1.3069 -0.5429
 3434SOL     OW13703  10.871   7.150   7.111  0.2700  0.3422 -0.0703
 3434SOL    HW113704  10.789   7.169   7.157  0.0110 -1.8674  0.4794
 3434SOL    HW213705  10.935   7.209   7.152  0.1337 -1.6886  3.4618
 3435SOL     OW13706   8.902   3.700   1.852 -0.0837 -0.1603  0.3605
 3435SOL    HW113707   8.818   3.697   1.899  0.4033  0.1739  1.2891
 3435SOL    HW213708   8.915   3.794   1.835 -0.3896 -0.3019 -0.7195
 3436SOL     OW13709   6.688   0.114   1.986 -0.1642  0.2806 -0.1253
 3436SOL    HW113710   6.668   0.195   2.032  1.6739  0.4270  0.5180
 3436SOL    HW213711   6.773   0.088   2.020  0.7716 -0.2143 -2.6017
 3437SOL     OW13712   8.897   5.716   3.181 -0.0804  0.1261  0.4179
 3437SOL    HW113713   8.806   5.744   3.193 -0.9321 -2.2356 -0.0035
 3437SOL    HW213714   8.910   5.648   3.248  1.1761  0.0211  0.0878
 3438SOL     OW13715   1.182  10.258   8.913  0.3373 -0.5771 -0.2266
 3438SOL    HW113716   1.086  10.255   8.905  0.1918  0.1244  0.9851
 3438SOL    HW213717   1.213  10.188   8.856 -0.9257 -1.1800 -0.2075
 3439SOL     OW13718   4.409   6.289   9.406  0.7038 -0.3049  0.2321
 3439SOL    HW113719   4.340   6.346   9.374 -0.0043 -1.3712 -0.1879
 3439SOL    HW213720   4.489   6.340   9.394 -0.0296  1.1315  1.1725
 3440SOL     OW13721   1.410   9.173   3.968 -0.1808 -0.3131 -0.3271
 3440SOL    HW113722   1.487   9.188   4.023  0.2133 -1.8786 -0.4250
 3440SOL    HW213723   1.409   9.079   3.953 -2.6008 -0.4798  0.3971
 3441SOL     OW13724   4.800   7.016   5.286 -0.4989  0.7068 -0.7801
 3441SOL    HW113725   4.765   7.074   5.353  0.4635  0.5610 -0.1219
 3441SOL    HW213726   4.774   6.928   5.315  2.3011  0.3456  1.0370
 3442SOL     OW13727  10.280   1.030   6.086 -0.1960  0.4852  0.5760
 3442SOL    HW113728  10.230   0.949   6.097 -2.0942  1.3740 -0.8875
 3442SOL    HW213729  10.328   1.041   6.168  1.7530 -3.1371  0.1019
 3443SOL     OW13730   9.559   4.287   6.453 -0.2456 -0.9335 -0.2499
 3443SOL    HW113731   9.622   4.249   6.515  1.2506 -0.4270 -1.3881
 3443SOL    HW213732   9.518   4.359   6.501  1.2548 -0.2259  0.0540
 3444SOL     OW13733   1.986   3.758   2.322 -0.4601  0.1930  0.6641
 3444SOL    HW113734   2.066   3.744   2.271  0.5354  0.2617  2.1403
 3444SOL    HW213735   1.985   3.852   2.339 -0.7078  0.1500  0.8836
 3445SOL     OW13736   1.556   8.956   5.717 -0.4016  0.4869  0.0190
 3445SOL    HW113737   1.522   8.922   5.800 -0.3491  0.9458  0.2319
 3445SOL    HW213738   1.511   8.905   5.650  1.1795 -1.4550  0.3398
 3446SOL     OW13739   6.105   5.841   1.095  0.1329 -0.0300 -0.2796
 3446SOL    HW113740   6.136   5.770   1.152 -0.9781 -1.0477 -0.8790
 3446SOL    HW213741   6.040   5.798   1.038  0.2257  1.2577 -1.3817
 3447SOL     OW13742   2.531   3.753   2.843  0.4788 -0.1950 -0.1565
 3447SOL    HW113743   2.565   3.664   2.849  1.5410  0.1322 -1.0019
 3447SOL    HW213744   2.498   3.760   2.753  1.3152  0.5694 -0.4167
 3448SOL     OW13745   3.594   6.911   1.199 -0.1497 -0.3633 -0.1365
 3448SOL    HW113746   3.605   6.818   1.180  1.5691 -0.2215 -0.0308
 3448SOL    HW213747   3.517   6.915   1.255 -0.3406 -1.7090 -0.2635
 3449SOL     OW13748   3.331   5.122   2.202  0.2310 -0.0777 -0.2153
 3449SOL    HW113749   3.390   5.046   2.201 -0.2459 -0.4545 -0.1886
 3449SOL    HW213750   3.361   5.174   2.277  0.6579 -0.1594 -0.3255
 3450SOL     OW13751   2.214   0.742   5.535 -0.3761 -0.3670 -0.4761
 3450SOL    HW113752   2.133   0.691   5.527 -1.2525  0.7787  0.6506
 3450SOL    HW213753   2.187   0.822   5.580  1.1114  0.7439 -1.4715
 3451SOL     OW13754   1.994   4.692   2.954  0.4679 -0.2725 -0.2306
 3451SOL    HW113755   2.027   4.776   2.921 -1.6409 -0.0388 -1.9369
 3451SOL    HW213756   2.006   4.631   2.882 -1.3397 -0.5214 -0.3739
 3452SOL     OW13757   9.298   9.170   6.752 -0.0648 -0.0594 -0.2748
 3452SOL    HW113758   9.387   9.180   6.716  0.1749  0.1290  0.3553
 3452SOL    HW213759   9.283   9.250   6.802 -0.8878  0.2327 -0.9888
 3453SOL     OW13760   1.020   8.089   1.165 -0.1491 -0.3799  0.0509
 3453SOL    HW113761   1.089   8.086   1.231  0.3507  0.1745 -0.4275
 3453SOL    HW213762   0.956   8.150   1.200  0.2016  0.0506 -0.0428
 3454SOL     OW13763  10.860   6.016   4.115  0.5099 -0.7607 -0.2598
 3454SOL    HW113764  10.929   6.038   4.053  0.5418 -0.5262 -0.1412
 3454SOL    HW213765  10.779   6.039   4.070  0.5497 -0.2541 -0.0779
 3455SOL     OW13766   4.051   0.339   1.145 -0.1706 -0.1216  0.0268
 3455SOL    HW113767   4.018   0.294   1.067 -1.8813  1.3553 -0.1731
 3455SOL    HW213768   4.066   0.429   1.117 -1.2709  0.5610  1.4643
 3456SOL     OW13769   0.312   0.060   9.053  0.3666  0.3422 -0.1776
 3456SOL    HW113770   0.346   0.104   9.131  1.0928  0.3863 -0.5079
 3456SOL    HW213771   0.320   0.125   8.983  2.0019 -0.4705 -0.7940
 3457SOL     OW13772   6.128  10.360   3.976  0.1596 -0.4601  0.0144
 3457SOL    HW113773   6.154  10.379   3.886 -1.9642  1.1315 -0.3434
 3457SOL    HW213774   6.124  10.445   4.019 -1.0166 -0.9522  0.9592
 3458SOL     OW13775   6.888   3.109   7.947  0.5095  0.1882  0.6878
 3458SOL    HW113776   6.816   3.047   7.931 -0.4875  0.7082  2.8111
 3458SOL    HW213777   6.860   3.190   7.905  0.9360 -0.2310 -0.4439
 3459SOL     OW13778   9.554   6.546   4.034  0.5679 -0.0342 -0.0912
 3459SOL    HW113779   9.591   6.544   3.946  1.1936  1.0457  0.1296
 3459SOL    HW213780   9.579   6.632   4.068 -0.6241  0.0130  0.7253
 3460SOL     OW13781   0.913   1.056   2.609  0.1368 -0.1374 -0.5843
 3460SOL    HW113782   0.881   0.976   2.566 -2.3384  0.1271  0.6173
 3460SOL    HW213783   0.907   1.037   2.702 -0.7988  1.5670 -0.2700
 3461SOL     OW13784   9.383   8.374   4.520  0.2670  0.6032  0.3044
 3461SOL    HW113785   9.324   8.449   4.525 -0.2708  0.2383 -0.3360
 3461SOL    HW213786   9.333   8.302   4.558  0.6776  0.5044  0.6625
 3462SOL     OW13787   2.594   3.341   4.439 -0.3062  0.3337  0.0542
 3462SOL    HW113788   2.590   3.312   4.348 -0.6452  0.6674 -0.0386
 3462SOL    HW213789   2.543   3.276   4.488  0.3480 -0.1656  0.0950
 3463SOL     OW13790   2.045   6.850   3.700  0.0566  0.4344  0.5199
 3463SOL    HW113791   2.081   6.792   3.766 -1.3757  0.1865  1.1133
 3463SOL    HW213792   1.958   6.815   3.681 -1.3555  2.9862  1.7338
 3464SOL     OW13793   0.716   2.513   6.057  0.0046 -0.0923 -0.1058
 3464SOL    HW113794   0.708   2.496   5.963 -0.7080  0.0335 -0.0719
 3464SOL    HW213795   0.640   2.470   6.096 -0.2359  0.6991  0.3074
 3465SOL     OW13796   5.792   0.210   9.115 -0.0065  0.2244  0.0194
 3465SOL    HW113797   5.851   0.267   9.066 -0.8455 -0.2747 -1.6161
 3465SOL    HW213798   5.841   0.128   9.123  0.1086  0.2873 -0.0315
 3466SOL     OW13799   8.132   9.588  10.153 -0.6261 -0.0832 -0.5087
 3466SOL    HW113800   8.060   9.557  10.208 -1.2841  2.4097  0.1551
 3466SOL    HW213801   8.090   9.619  10.073 -0.0023 -0.8257 -1.1411
 3467SOL     OW13802   1.283   6.364   4.621 -0.6324  0.4501  0.1584
 3467SOL    HW113803   1.335   6.360   4.540  0.3403  1.8663  0.6667
 3467SOL    HW213804   1.227   6.441   4.609  1.2882  2.2258  1.7635
 3468SOL     OW13805   0.593  10.406   6.239 -0.0389  0.1669  0.2654
 3468SOL    HW113806   0.553  10.320   6.252 -0.8912  0.4694 -0.2709
 3468SOL    HW213807   0.537  10.466   6.290  0.5669  0.4013  0.6610
 3469SOL     OW13808   6.904   0.914   5.236 -0.0873 -0.2560  0.5825
 3469SOL    HW113809   6.835   0.963   5.280 -1.1290 -1.5934  0.4944
 3469SOL    HW213810   6.920   0.838   5.293  0.3182 -0.6914 -0.0961
 3470SOL     OW13811   0.566   2.394   5.032 -0.3384 -0.2015 -0.2343
 3470SOL    HW113812   0.640   2.448   5.005  1.2464 -1.1411  1.9748
 3470SOL    HW213813   0.497   2.458   5.051  0.9361  0.9588  0.7046
 3471SOL     OW13814   6.144   1.364   3.002 -0.3596  0.0951 -0.3095
 3471SOL    HW113815   6.172   1.455   2.991  0.8892 -0.1194  0.9130
 3471SOL    HW213816   6.150   1.348   3.096 -1.1949 -1.0732 -0.4347
 3472SOL     OW13817   0.353   9.351  10.060 -0.9601  0.2488  0.1015
 3472SOL    HW113818   0.395   9.291  10.121  0.6536 -1.6590 -2.6800
 3472SOL    HW213819   0.276   9.383  10.108 -0.6501 -2.2511  2.5544
 3473SOL     OW13820   4.095   1.398   6.334  0.4178 -0.2833 -0.4892
 3473SOL    HW113821   4.133   1.321   6.377 -0.7882 -1.4205 -1.3921
 3473SOL    HW213822   4.171   1.448   6.303  1.2379 -1.8402 -1.1066
 3474SOL     OW13823   1.523  10.190   8.839 -0.5036  0.3012 -0.0658
 3474SOL    HW113824   1.435  10.153   8.841  0.1774 -1.3634  0.7076
 3474SOL    HW213825   1.581  10.115   8.824  0.8671  1.1878  0.5391
 3475SOL     OW13826   6.254   1.844   6.019 -0.5499 -0.2095  0.2398
 3475SOL    HW113827   6.289   1.851   5.930  3.0946  0.1085  1.5410
 3475SOL    HW213828   6.236   1.751   6.030  0.8286 -0.5386 -0.2014
 3476SOL     OW13829   2.093   3.774   5.200 -0.3886  0.2728  0.9493
 3476SOL    HW113830   2.115   3.682   5.184  0.6379  0.4382  1.3472
 3476SOL    HW213831   2.013   3.771   5.252  0.8915 -0.4892  3.0163
 3477SOL     OW13832  10.880  10.223   2.019  0.0757 -0.2965  0.3932
 3477SOL    HW113833  10.863  10.129   2.019 -1.2949 -0.1046  2.3533
 3477SOL    HW213834  10.886  10.246   2.112 -0.8909  1.7533 -0.0079
 3478SOL     OW13835   1.500   6.690   3.348 -0.0659  0.1382 -0.4609
 3478SOL    HW113836   1.528   6.600   3.365 -1.2082 -0.2321 -0.4346
 3478SOL    HW213837   1.566   6.745   3.389 -0.8895 -0.7038  2.1562
 3479SOL     OW13838   6.663   0.174   5.820  0.4279  0.1819  0.3412
 3479SOL    HW113839   6.738   0.161   5.761  0.3106  2.5202 -0.4336
 3479SOL    HW213840   6.693   0.239   5.883 -0.3155 -0.3908  1.3275
 3480SOL     OW13841   9.504   9.049   6.026 -0.0955 -0.4525  0.1991
 3480SOL    HW113842   9.544   8.964   6.011  1.1073  0.0875  0.1959
 3480SOL    HW213843   9.410   9.034   6.019  0.1426 -1.5864 -0.7905
 3481SOL     OW13844   4.499   1.907   5.911 -0.2673 -0.3453  0.1797
 3481SOL    HW113845   4.505   1.842   5.982 -1.0018  0.5468  1.0905
 3481SOL    HW213846   4.441   1.867   5.847 -0.9651 -0.5002  0.8785
 3482SOL     OW13847  10.312   5.246   6.275  0.4600  0.0520 -0.1896
 3482SOL    HW113848  10.318   5.329   6.322 -0.1354  0.6964 -1.2026
 3482SOL    HW213849  10.379   5.190   6.314  0.5694  0.8657  0.7977
 3483SOL     OW13850   9.995   8.323   6.132 -0.1792 -0.2792 -0.8299
 3483SOL    HW113851  10.083   8.328   6.169 -0.6431  0.2895  0.2522
 3483SOL    HW213852   9.942   8.380   6.189 -1.2946 -0.8062 -1.3134
 3484SOL     OW13853   1.490   2.984   2.192 -0.0741 -0.0024  0.4012
 3484SOL    HW113854   1.544   3.048   2.238 -1.6551  0.7854  1.2704
 3484SOL    HW213855   1.550   2.940   2.132  1.6232  0.3919  1.7408
 3485SOL     OW13856   2.935   6.379   5.147 -0.0048 -0.0979 -0.0587
 3485SOL    HW113857   2.931   6.294   5.102 -0.7872  0.3597 -0.8692
 3485SOL    HW213858   2.982   6.436   5.087  1.2121 -0.1236  0.8140
 3486SOL     OW13859   6.779   0.334   6.021 -0.2524 -0.0400  0.1008
 3486SOL    HW113860   6.773   0.411   6.076 -0.9676  0.7385 -1.0259
 3486SOL    HW213861   6.864   0.342   5.978  1.2879 -1.7484  2.6005
 3487SOL     OW13862   3.240   6.796   9.145 -0.1208 -0.1156 -0.0310
 3487SOL    HW113863   3.296   6.723   9.118 -0.3178 -0.6727  1.0226
 3487SOL    HW213864   3.151   6.764   9.129 -0.2226 -0.2836  0.8424
 3488SOL     OW13865   7.185  10.547   7.367  0.2038 -0.0849 -0.0787
 3488SOL    HW113866   7.105  10.596   7.386  1.6115  1.2683  2.8735
 3488SOL    HW213867   7.235  10.604   7.309  0.1187  0.1883  0.1165
 3489SOL     OW13868   0.384   7.971   7.279 -0.2280  0.0910  0.2285
 3489SOL    HW113869   0.394   7.882   7.315 -1.3533  0.3920  1.3660
 3489SOL    HW213870   0.358   7.957   7.188 -0.2230 -0.7470  0.3436
 3490SOL     OW13871   0.455   1.370   4.099 -0.4062  0.2957 -0.1316
 3490SOL    HW113872   0.530   1.356   4.040 -0.4234  1.2078 -0.3900
 3490SOL    HW213873   0.394   1.300   4.077  1.5554 -2.3702  2.1345
 3491SOL     OW13874  10.297   6.835  10.416 -0.1140 -0.0030 -0.7020
 3491SOL    HW113875  10.254   6.903  10.468 -0.0430 -0.9969  0.7165
 3491SOL    HW213876  10.389   6.837  10.445 -0.0781 -0.5828 -0.7570
 3492SOL     OW13877   4.341   3.508   4.441 -0.3015 -0.3883 -0.1773
 3492SOL    HW113878   4.295   3.430   4.412 -2.1042  0.3237  0.6308
 3492SOL    HW213879   4.377   3.484   4.527 -0.2753 -0.5310 -0.2277
 3493SOL     OW13880   2.149   6.546   7.215  0.0624  0.0783  0.1934
 3493SOL    HW113881   2.197   6.519   7.136  0.9322  0.0077  0.7431
 3493SOL    HW213882   2.215   6.552   7.283 -0.9776 -2.2586  1.5548
 3494SOL     OW13883   4.147   6.473   6.208  0.2517  0.2213 -0.0379
 3494SOL    HW113884   4.119   6.473   6.299 -0.8146 -2.4210 -0.2961
 3494SOL    HW213885   4.109   6.553   6.171 -4.1829 -1.3477  0.5159
 3495SOL     OW13886   8.083   8.459   1.706 -0.6820 -0.6777 -0.2204
 3495SOL    HW113887   8.163   8.415   1.679  0.4998  0.0806  1.7828
 3495SOL    HW213888   8.108   8.507   1.785 -2.8828  0.3861 -0.0919
 3496SOL     OW13889   9.482   4.586   6.397 -0.2212 -0.3263  0.1118
 3496SOL    HW113890   9.568   4.608   6.361  0.3328  0.0532  1.5882
 3496SOL    HW213891   9.479   4.491   6.396 -0.3301 -0.3334 -1.1131
 3497SOL     OW13892  10.227   8.844   4.942  0.2117 -0.2431 -0.1519
 3497SOL    HW113893  10.146   8.891   4.924  0.3051  0.5364  1.2945
 3497SOL    HW213894  10.278   8.854   4.861 -1.4110 -1.4497 -1.3813
 3498SOL     OW13895  10.495   6.978   0.284  0.4240 -0.0388  0.6031
 3498SOL    HW113896  10.513   6.913   0.353 -0.7867 -0.2748  0.7212
 3498SOL    HW213897  10.575   7.030   0.279  1.3451 -1.3811  0.6813
 3499SOL     OW13898   8.959   0.176   4.672  0.3400 -0.3144 -0.6605
 3499SOL    HW113899   9.052   0.184   4.693 -0.0357  0.4442  0.8870
 3499SOL    HW213900   8.917   0.160   4.757 -0.6994 -3.2208 -1.6287
 3500SOL     OW13901   5.738   5.093   0.162  0.2370 -0.4419  0.0213
 3500SOL    HW113902   5.657   5.122   0.119  1.3586  1.8480 -0.7186
 3500SOL    HW213903   5.799   5.077   0.090  1.2900  0.6918  0.6241
 3501SOL     OW13904   3.744   9.903   8.413  0.6735  0.3333  0.1140
 3501SOL    HW113905   3.754   9.949   8.329 -0.2091  1.5959  0.6685
 3501SOL    HW213906   3.650   9.883   8.417  0.6888  0.3885  0.8406
 3502SOL     OW13907   8.668   6.652  10.625 -0.5394  0.1385  0.5780
 3502SOL    HW113908   8.678   6.709  10.548 -1.1892 -0.3424  0.1329
 3502SOL    HW213909   8.676   6.712  10.699 -0.3947  0.6875  0.1303
 3503SOL     OW13910  10.734   5.162   3.084  0.2598 -0.5431  0.3221
 3503SOL    HW113911  10.713   5.255   3.090  0.4201 -0.6174  3.1431
 3503SOL    HW213912  10.793   5.155   3.009 -0.1852  1.5197 -0.2698
 3504SOL     OW13913   2.186   3.085   9.080  0.0665  0.3535  0.3556
 3504SOL    HW113914   2.175   3.169   9.124 -0.3539  0.2946  0.3675
 3504SOL    HW213915   2.239   3.033   9.140 -1.2115 -0.0156  1.1816
 3505SOL     OW13916   5.419   1.500   6.629  0.0967  0.0818  0.1526
 3505SOL    HW113917   5.361   1.503   6.706  1.6335  0.1668  1.3691
 3505SOL    HW213918   5.468   1.582   6.633  0.2428  0.0531 -0.8998
 3506SOL     OW13919   8.032   2.042   6.911  0.8199  0.2899 -0.4880
 3506SOL    HW113920   8.076   2.011   6.990  1.8258  1.1208 -0.7001
 3506SOL    HW213921   8.101   2.043   6.844  0.2608  0.7387 -1.0679
 3507SOL     OW13922   8.623   3.829   5.797 -0.4635 -0.1378 -0.4324
 3507SOL    HW113923   8.691   3.881   5.840  1.0004 -0.9087 -1.7260
 3507SOL    HW213924   8.635   3.845   5.704 -0.5280 -2.0762 -0.8179
 3508SOL     OW13925   5.292   2.925   8.356 -0.2162 -0.1498 -0.2376
 3508SOL    HW113926   5.387   2.927   8.360 -0.2093  2.0113 -0.3445
 3508SOL    HW213927   5.272   2.915   8.263 -0.0852 -0.0440 -0.2769
 3509SOL     OW13928   9.366   8.606  10.247  0.0071 -0.4818  0.2760
 3509SOL    HW113929   9.316   8.547  10.191  1.7196 -1.1163 -0.6469
 3509SOL    HW213930   9.340   8.582  10.336 -2.7624  0.5423 -0.1366
 3510SOL     OW13931  10.422   4.873   5.293 -0.1150 -0.4955 -0.1433
 3510SOL    HW113932  10.412   4.804   5.358 -1.6475  0.0013  0.1916
 3510SOL    HW213933  10.416   4.828   5.208 -1.7892 -0.7158  0.0667
 3511SOL     OW13934   5.259   0.634  10.716  0.1577  0.1027  0.4482
 3511SOL    HW113935   5.249   0.729  10.715  0.3767  0.1217 -0.1725
 3511SOL    HW213936   5.196   0.604  10.782 -2.9653  0.3370 -2.1920
 3512SOL     OW13937   2.584   8.363   5.066 -0.0530  0.1034  0.2339
 3512SOL    HW113938   2.665   8.391   5.109 -0.5257 -0.1474  1.3227
 3512SOL    HW213939   2.543   8.445   5.037  1.0293  0.1730 -1.1824
 3513SOL     OW13940   6.771   0.658   0.486 -0.2566 -0.0452 -0.1994
 3513SOL    HW113941   6.766   0.564   0.505  0.2566 -0.1112 -0.3873
 3513SOL    HW213942   6.755   0.664   0.392 -0.0858  0.0345 -0.2239
 3514SOL     OW13943   9.393   0.975   0.675  0.2776 -0.1659 -0.8752
 3514SOL    HW113944   9.328   1.040   0.700 -0.3108 -0.5409 -1.3839
 3514SOL    HW213945   9.366   0.895   0.720 -0.0122 -0.4964 -1.6120
 3515SOL     OW13946  10.508   1.750   3.805  0.0701  0.5220  0.4077
 3515SOL    HW113947  10.549   1.711   3.728  0.9133 -0.2968  1.2595
 3515SOL    HW213948  10.559   1.830   3.822  1.1222 -0.3046  1.2485
 3516SOL     OW13949   5.839  10.090   4.930 -0.2776  0.1553  0.7056
 3516SOL    HW113950   5.775  10.036   4.884 -0.3364 -0.3024  1.3194
 3516SOL    HW213951   5.807  10.179   4.920  0.0624  0.1384 -0.7194
 3517SOL     OW13952   2.211   4.500   8.501 -0.2044 -0.1310 -0.8434
 3517SOL    HW113953   2.222   4.406   8.493 -1.3124 -0.4023  0.4966
 3517SOL    HW213954   2.213   4.517   8.595  0.1104  1.2079 -1.0690
 3518SOL     OW13955   9.272   9.249   0.900 -0.0343 -0.3885  0.3031
 3518SOL    HW113956   9.200   9.218   0.955  1.4672 -0.6342  2.2031
 3518SOL    HW213957   9.347   9.196   0.925  2.0859  3.0203  2.0344
 3519SOL     OW13958   7.241   6.090   0.633  0.2042 -0.2903 -0.2520
 3519SOL    HW113959   7.244   6.115   0.540 -0.9525  1.0757  0.0336
 3519SOL    HW213960   7.252   6.173   0.680 -1.0878 -0.6888  0.8097
 3520SOL     OW13961  10.486   1.992   2.740  0.0032  0.1330 -0.7553
 3520SOL    HW113962  10.574   1.969   2.770 -0.5826 -1.0583  0.1483
 3520SOL    HW213963  10.450   1.910   2.707 -0.1902  0.9599 -2.7463
 3521SOL     OW13964   7.406   0.264   4.341  0.0090 -0.3699  0.3402
 3521SOL    HW113965   7.429   0.296   4.254  0.5001  1.9871  1.2524
 3521SOL    HW213966   7.468   0.194   4.359 -1.3701 -2.3601 -1.9343
 3522SOL     OW13967   3.490  10.261  10.335  0.1209 -0.0885  0.0789
 3522SOL    HW113968   3.417  10.315  10.367  0.2096 -0.0736  0.2597
 3522SOL    HW213969   3.503  10.196  10.403 -1.1070 -1.4266 -0.9088
 3523SOL     OW13970   8.941   6.642   1.192 -0.1780 -0.2284  0.2728
 3523SOL    HW113971   8.986   6.625   1.275 -0.0911 -1.8871 -0.0642
 3523SOL    HW213972   8.904   6.557   1.167 -0.4741  0.2984 -1.2226
 3524SOL     OW13973   0.763   3.244   8.503 -0.1659  0.1421 -0.0992
 3524SOL    HW113974   0.798   3.291   8.579  0.3755 -0.0944 -0.1966
 3524SOL    HW213975   0.690   3.297   8.474  0.2224  0.7453  0.0044
 3525SOL     OW13976   5.796   6.048   2.488  0.6262 -0.0040 -0.5082
 3525SOL    HW113977   5.800   6.131   2.441 -0.2491  0.2139 -0.2159
 3525SOL    HW213978   5.704   6.024   2.486  0.3838  0.4809  1.8953
 3526SOL     OW13979   0.530   1.207  10.382 -0.5535  0.2689 -0.5148
 3526SOL    HW113980   0.605   1.266  10.384 -0.8826  0.6838  1.6700
 3526SOL    HW213981   0.568   1.121  10.361  0.6193  0.4075  0.8577
 3527SOL     OW13982   6.913  10.872   9.184 -0.0902  0.6278 -0.0068
 3527SOL    HW113983   6.928  10.922   9.104  0.2930 -0.8116 -0.8770
 3527SOL    HW213984   6.994  10.823   9.197 -0.6086 -0.0963  0.5593
 3528SOL     OW13985   0.481   8.875   3.225  0.2686 -0.8164 -0.5055
 3528SOL    HW113986   0.500   8.918   3.141  3.3695  2.3949  1.5682
 3528SOL    HW213987   0.559   8.824   3.244  0.5673  0.2614  1.3600
 3529SOL     OW13988   1.747  10.829   5.864 -0.1420 -0.1556  0.3209
 3529SOL    HW113989   1.799  10.813   5.785 -0.3991  2.0826 -0.3748
 3529SOL    HW213990   1.778  10.765   5.928  1.4861 -0.6888 -0.9627
 3530SOL     OW13991   7.253   8.556   4.628  0.1739  0.0582  0.5572
 3530SOL    HW113992   7.338   8.580   4.665 -0.9754  1.4497  2.4941
 3530SOL    HW213993   7.213   8.500   4.695  0.9824 -3.9115 -1.9630
 3531SOL     OW13994   3.640   3.979   3.720 -0.1711  0.1372 -0.3660
 3531SOL    HW113995   3.597   4.060   3.692 -0.4054  0.1403  0.0082
 3531SOL    HW213996   3.704   3.962   3.651  0.9494  1.4656  0.2936
 3532SOL     OW13997   2.967   1.823   5.912 -0.0944  0.1281 -0.1183
 3532SOL    HW113998   3.056   1.792   5.898 -0.4709 -0.7791 -0.5986
 3532SOL    HW213999   2.944   1.867   5.830 -1.2869 -2.6895 -1.4348
 3533SOL     OW14000   5.854   3.104  10.085  0.1775 -0.0776  0.0511
 3533SOL    HW114001   5.777   3.096  10.030 -0.5287  0.3097  0.9526
 3533SOL    HW214002   5.841   3.040  10.155  0.1501  0.7178  0.7924
 3534SOL     OW14003   3.040   2.926  10.447  0.0365  0.8005  0.1600
 3534SOL    HW114004   3.060   2.943  10.539  2.8943  0.5998 -0.3362
 3534SOL    HW214005   2.972   2.858  10.449  1.5593 -0.8034  2.1834
 3535SOL     OW14006   0.891   1.913   7.863 -0.5392 -0.3605 -0.6245
 3535SOL    HW114007   0.942   1.923   7.784 -1.1785  1.0038 -0.8952
 3535SOL    HW214008   0.912   1.990   7.916  0.2454 -1.4718  0.7790
 3536SOL     OW14009   6.414  10.625   3.880 -0.6051 -0.0358  0.0042
 3536SOL    HW114010   6.441  10.714   3.903  0.3795 -0.4591  0.5884
 3536SOL    HW214011   6.497  10.577   3.870 -1.1252 -1.1163  0.6777
 3537SOL     OW14012   1.648   0.146   7.728  0.3275 -0.3473 -0.0159
 3537SOL    HW114013   1.630   0.198   7.807  1.3627  2.3162 -1.4039
 3537SOL    HW214014   1.584   0.177   7.664  0.8426 -0.9571 -0.8392
 3538SOL     OW14015   2.607   1.667   2.258  0.9982  0.3832 -0.0798
 3538SOL    HW114016   2.596   1.586   2.308 -1.0891  0.0586 -0.9705
 3538SOL    HW214017   2.622   1.638   2.168  0.6283  0.9720 -0.3373
 3539SOL     OW14018   7.488   1.321   1.686 -0.4771  0.2535 -0.2797
 3539SOL    HW114019   7.395   1.334   1.705 -0.4734  2.1410 -1.3399
 3539SOL    HW214020   7.508   1.385   1.618  1.4305 -0.6587 -0.6452
 3540SOL     OW14021   4.119  10.273   3.001 -0.4499 -0.2539 -0.1882
 3540SOL    HW114022   4.031  10.300   2.974  0.2125  0.7283 -1.4898
 3540SOL    HW214023   4.144  10.337   3.068 -0.6528 -0.4124  0.0379
 3541SOL     OW14024   8.381   3.268   5.933  0.0603  0.3248 -0.0747
 3541SOL    HW114025   8.290   3.242   5.946 -0.1926  1.1651 -0.0836
 3541SOL    HW214026   8.418   3.201   5.875 -0.6668  0.2011 -0.3987
 3542SOL     OW14027   6.273   3.927   8.437  0.0255 -0.0764  0.6055
 3542SOL    HW114028   6.218   3.871   8.491  1.0644  1.0313  3.0038
 3542SOL    HW214029   6.333   3.969   8.500  1.5164  1.1218 -1.4735
 3543SOL     OW14030   9.035   5.487   5.453  0.3133  0.4107  0.0024
 3543SOL    HW114031   9.039   5.412   5.512 -0.7321  1.1409  1.0485
 3543SOL    HW214032   9.039   5.564   5.510 -1.2645  1.1403 -0.7838
 3544SOL     OW14033  10.324   0.587   5.922 -0.0418  0.1874  0.1535
 3544SOL    HW114034  10.339   0.546   5.837 -1.3958  0.0453 -0.0385
 3544SOL    HW214035  10.400   0.642   5.936 -0.2243  0.9443 -1.5989
 3545SOL     OW14036   3.227   4.813   4.996  0.1474  0.3880 -0.1200
 3545SOL    HW114037   3.172   4.743   4.961 -0.6324  1.1699 -0.4956
 3545SOL    HW214038   3.263   4.777   5.077 -1.6584  0.1546  0.6304
 3546SOL     OW14039  10.164   7.545   6.536  0.0161 -0.5759  0.2867
 3546SOL    HW114040  10.177   7.461   6.491  1.3341  0.0516 -0.5524
 3546SOL    HW214041  10.071   7.565   6.523 -0.4027 -2.0746  0.8175
 3547SOL     OW14042   2.746   5.534   3.664  0.2703  0.0733 -0.2387
 3547SOL    HW114043   2.664   5.498   3.698 -0.2396  0.9317 -0.5278
 3547SOL    HW214044   2.766   5.479   3.587  1.4996 -1.9602  1.4180
 3548SOL     OW14045   1.566  10.322   5.569 -0.6689  0.5884  0.1299
 3548SOL    HW114046   1.584  10.315   5.475  0.6406 -0.4398  0.4256
 3548SOL    HW214047   1.598  10.410   5.593 -2.4723  1.4938 -0.6532
 3549SOL     OW14048   1.549   3.046   7.515  0.3666  0.4757 -0.1432
 3549SOL    HW114049   1.615   3.116   7.519 -0.5248  1.8592 -4.7295
 3549SOL    HW214050   1.469   3.090   7.487 -1.1847 -1.9418  0.2575
 3550SOL     OW14051   5.639   9.110   3.696 -0.3468 -0.0516 -0.0496
 3550SOL    HW114052   5.703   9.080   3.631  0.0298  0.0369  0.2747
 3550SOL    HW214053   5.655   9.204   3.703  0.4293 -0.2454  1.0357
 3551SOL     OW14054   0.917   6.483   6.191 -0.2574 -0.1843 -0.5882
 3551SOL    HW114055   0.906   6.522   6.105  0.0962  1.6394  0.1637
 3551SOL    HW214056   0.919   6.388   6.174 -0.9844  0.0973 -2.4709
 3552SOL     OW14057   4.394  10.853   2.939 -0.2914  0.2040 -0.4795
 3552SOL    HW114058   4.358  10.797   3.008  0.0353  0.0883 -0.3964
 3552SOL    HW214059   4.415  10.792   2.868  1.9175 -0.1246  0.3472
 3553SOL     OW14060   5.284   2.652   4.537  0.0134  0.1594 -0.3497
 3553SOL    HW114061   5.221   2.715   4.503  0.3202  0.4177 -0.4508
 3553SOL    HW214062   5.368   2.700   4.537 -0.1938  0.6675  2.1102
 3554SOL     OW14063   2.640   9.140   9.103 -0.3503 -0.0419  0.1676
 3554SOL    HW114064   2.552   9.173   9.123  0.4778  1.4951  1.4947
 3554SOL    HW214065   2.645   9.056   9.148 -0.3501  0.9603  2.1526
 3555SOL     OW14066   5.585  10.611   9.769  0.2771  0.2457  0.1223
 3555SOL    HW114067   5.489  10.607   9.766  0.2686 -2.8839  0.8275
 3555SOL    HW214068   5.610  10.642   9.682 -1.3654 -0.2371 -0.5617
 3556SOL     OW14069   0.407   4.360   1.266  0.0021  0.0879  0.3055
 3556SOL    HW114070   0.363   4.276   1.270 -0.4438  0.3531  1.1391
 3556SOL    HW214071   0.358   4.410   1.202 -0.0686 -0.0958  0.2170
 3557SOL     OW14072   8.571   1.616   4.193 -0.3155 -0.1730 -0.4194
 3557SOL    HW114073   8.585   1.612   4.287 -2.4661 -0.1309 -0.0359
 3557SOL    HW214074   8.572   1.709   4.172 -1.5961 -0.0619 -0.0835
 3558SOL     OW14075   0.138   5.821   7.314 -0.2990  0.1475 -0.1016
 3558SOL    HW114076   0.213   5.872   7.285 -0.9779  0.8222 -0.7006
 3558SOL    HW214077   0.063   5.879   7.302 -1.1868 -1.2156 -1.4651
 3559SOL     OW14078   1.481   6.699   1.405  0.4520 -0.3796  0.3739
 3559SOL    HW114079   1.505   6.741   1.323 -0.0849 -0.4427  0.1818
 3559SOL    HW214080   1.422   6.628   1.380 -0.7127  0.3755  0.9006
 3560SOL     OW14081   0.757   9.670   7.103 -0.0436  0.0892 -0.0022
 3560SOL    HW114082   0.763   9.585   7.145  1.2308 -0.5589 -1.3875
 3560SOL    HW214083   0.815   9.727   7.154 -0.4228 -0.0256  0.5623
 3561SOL     OW14084   4.723   3.503   1.258  0.0133 -0.0086  0.1981
 3561SOL    HW114085   4.773   3.445   1.316  1.6926  1.9683  0.8416
 3561SOL    HW214086   4.762   3.491   1.172 -0.7495 -1.0084 -0.0306
 3562SOL     OW14087   0.591   1.737   2.829 -0.2537 -0.0414  0.4048
 3562SOL    HW114088   0.675   1.697   2.806 -0.7285 -0.9158  0.1335
 3562SOL    HW214089   0.529   1.699   2.767 -0.7565  1.0260  0.2337
 3563SOL     OW14090   2.973   2.498   8.557  0.4185 -0.3195 -0.3486
 3563SOL    HW114091   2.942   2.462   8.640  0.1471 -0.7786 -0.6408
 3563SOL    HW214092   2.893   2.530   8.514  0.9316  3.9431  1.3792
 3564SOL     OW14093   6.916   0.030   9.448  0.3499 -0.1991 -0.1966
 3564SOL    HW114094   6.909   0.000   9.357 -0.3519 -1.9725  0.3813
 3564SOL    HW214095   7.009   0.023   9.469  0.4431 -0.2949 -0.6273
 3565SOL     OW14096   8.625   3.216   0.186  0.1552  0.4305 -0.5339
 3565SOL    HW114097   8.530   3.230   0.193  0.1650  0.2133  0.0054
 3565SOL    HW214098   8.635   3.121   0.181  0.4962  0.3056  1.7819
 3566SOL     OW14099   7.357  10.908   9.241  0.2901 -0.0026 -0.0442
 3566SOL    HW114100   7.451  10.893   9.235 -0.0147 -2.1017 -0.6088
 3566SOL    HW214101   7.322  10.826   9.277 -1.4527  0.2193 -1.0966
 3567SOL     OW14102   3.881   9.546   4.698 -0.1213  0.0694  0.1913
 3567SOL    HW114103   3.928   9.600   4.634  1.0641 -0.6729  0.4010
 3567SOL    HW214104   3.833   9.609   4.752 -1.7442  0.6696 -1.8428
 3568SOL     OW14105   3.439   7.155   7.547 -0.2728  0.0084 -0.2112
 3568SOL    HW114106   3.514   7.163   7.606 -0.8146 -0.9007  0.6165
 3568SOL    HW214107   3.477   7.128   7.464  0.3644 -0.0066  0.0757
 3569SOL     OW14108   1.984   7.537   5.089  0.6216  0.4398  0.2362
 3569SOL    HW114109   2.025   7.509   5.171 -1.5460 -2.6496  0.4138
 3569SOL    HW214110   1.911   7.476   5.076  0.9671  0.6417 -4.0985
 3570SOL     OW14111   8.674   4.365   7.333  0.7761 -0.0244  0.0519
 3570SOL    HW114112   8.755   4.399   7.371  1.4675 -0.4055 -1.0191
 3570SOL    HW214113   8.627   4.325   7.406  2.5818 -1.7396  0.3404
 3571SOL     OW14114   6.649   5.821  10.685  0.2463 -0.2612  0.4355
 3571SOL    HW114115   6.599   5.739  10.682 -0.4318  0.1461 -3.0131
 3571SOL    HW214116   6.624   5.868  10.606  2.3385  2.3053  1.1463
 3572SOL     OW14117   5.263   5.905   1.507  0.2756 -0.3499  0.4878
 3572SOL    HW114118   5.297   5.851   1.436 -0.0357  0.3073 -0.1875
 3572SOL    HW214119   5.183   5.944   1.470  0.1601  0.0752  1.1731
 3573SOL     OW14120   7.456   9.477   9.972 -0.3271  0.2367 -0.2904
 3573SOL    HW114121   7.428   9.420  10.044 -0.0273  0.1971 -0.2039
 3573SOL    HW214122   7.419   9.563   9.993  0.8742  0.5565  0.6161
 3574SOL     OW14123   7.712   5.835   4.319  0.2321  0.1646  0.1767
 3574SOL    HW114124   7.784   5.777   4.344 -0.4233 -1.3489 -1.2590
 3574SOL    HW214125   7.637   5.801   4.368 -0.0500  0.1182 -0.2866
 3575SOL     OW14126   7.816   8.365   3.646  0.2190 -0.4767  0.4135
 3575SOL    HW114127   7.842   8.364   3.554  0.4621 -1.0053  0.4810
 3575SOL    HW214128   7.729   8.403   3.646  0.3613 -0.1414  0.0042
 3576SOL     OW14129   9.649   1.842   0.020  0.1726 -0.1029 -0.1171
 3576SOL    HW114130   9.560   1.849  -0.015 -0.2713 -0.3010  0.9296
 3576SOL    HW214131   9.679   1.755  -0.006  0.5734  0.4449 -1.5872
 3577SOL     OW14132   4.567   8.108  10.411  0.8287 -0.4977 -0.3275
 3577SOL    HW114133   4.561   8.017  10.383 -0.8151 -0.8109  0.9205
 3577SOL    HW214134   4.542   8.159  10.334  0.0985 -1.1641 -0.5371
 3578SOL     OW14135   4.641   3.101   1.362  0.1805  0.2529  0.0103
 3578SOL    HW114136   4.562   3.082   1.412 -0.1421 -0.4063 -0.7182
 3578SOL    HW214137   4.680   3.014   1.346  1.3544  0.6022  0.8345
 3579SOL     OW14138   4.358   6.995   2.721  0.2703 -0.3476  0.7111
 3579SOL    HW114139   4.334   6.903   2.725 -3.6936  0.4144 -0.7962
 3579SOL    HW214140   4.420   7.000   2.648 -2.3344 -1.5003 -1.7839
 3580SOL     OW14141  10.742   3.469   2.998  0.3403 -0.2678  0.0514
 3580SOL    HW114142  10.666   3.418   3.030  0.2936 -0.1116  0.1898
 3580SOL    HW214143  10.718   3.560   3.014  0.5877 -0.2218  0.1578
 3581SOL     OW14144   7.926   3.333   8.888  0.5898 -0.6391  0.0394
 3581SOL    HW114145   7.918   3.400   8.956  2.0447 -1.3422  0.9496
 3581SOL    HW214146   7.951   3.382   8.810 -0.8931  0.1558  0.0232
 3582SOL     OW14147   2.222   0.185   4.995  0.8776 -0.3043 -0.0889
 3582SOL    HW114148   2.196   0.276   5.007 -0.9913 -0.7078 -0.7905
 3582SOL    HW214149   2.140   0.136   4.995  1.6902 -1.7652 -1.5664
 3583SOL     OW14150   8.636   4.794   1.238 -0.8604  0.8248  0.0763
 3583SOL    HW114151   8.576   4.868   1.236 -0.6393  1.0031 -1.0891
 3583SOL    HW214152   8.585   4.720   1.205 -1.2601  0.2973  1.8186
 3584SOL     OW14153   8.048   9.470   7.301 -0.1357  0.2672  0.2665
 3584SOL    HW114154   7.966   9.459   7.253 -0.2751  2.6106 -0.1174
 3584SOL    HW214155   8.117   9.448   7.237 -0.4141 -0.5040  0.2230
 3585SOL     OW14156  10.518  10.669   1.929  0.0313 -0.6813 -0.1460
 3585SOL    HW114157  10.454  10.598   1.926 -0.2595 -0.4754  0.7633
 3585SOL    HW214158  10.603  10.625   1.925 -0.0913 -0.8559 -3.5402
 3586SOL     OW14159   4.181   2.975   6.652 -0.0279 -0.0235 -0.4245
 3586SOL    HW114160   4.242   2.953   6.581  0.2491  0.5056 -0.3589
 3586SOL    HW214161   4.096   2.981   6.610  0.2075  0.7496 -0.8041
 3587SOL     OW14162   2.933   2.091   4.294  0.0512  0.2419 -0.1412
 3587SOL    HW114163   2.924   2.140   4.213 -0.2541  0.1462 -0.1646
 3587SOL    HW214164   2.952   2.001   4.266  0.6035  0.3420 -0.0985
 3588SOL     OW14165   9.660   8.659   3.734  0.4595 -0.0178  0.0358
 3588SOL    HW114166   9.588   8.624   3.681  0.6922 -0.6878  0.1641
 3588SOL    HW214167   9.711   8.712   3.672  0.7763 -0.8562 -0.4349
 3589SOL     OW14168   2.786   5.897   3.109  0.4829 -0.2123  0.4336
 3589SOL    HW114169   2.828   5.901   3.023  2.7594 -1.1039  1.4105
 3589SOL    HW214170   2.692   5.891   3.090  0.9071 -0.2312 -1.9630
 3590SOL     OW14171   5.604   3.735   8.675 -0.1997 -0.9953 -0.2094
 3590SOL    HW114172   5.536   3.786   8.719 -1.1967 -0.9986 -1.7075
 3590SOL    HW214173   5.567   3.647   8.667  0.0930 -1.0741 -0.7569
 3591SOL     OW14174   7.939   6.120  10.896 -0.1400 -0.2014 -0.2196
 3591SOL    HW114175   7.944   6.215  10.904  0.2327 -0.1676 -0.8204
 3591SOL    HW214176   8.006   6.097  10.832  1.0029 -1.0445  1.2019
 3592SOL     OW14177   5.996  10.871   1.004 -0.3722  0.1488 -0.2301
 3592SOL    HW114178   6.049  10.948   1.027  0.8306 -0.7333  0.0743
 3592SOL    HW214179   6.060  10.805   0.978 -1.3609 -0.8389 -0.2356
 3593SOL     OW14180   7.511   0.220   6.942  0.1086  0.1917 -0.1893
 3593SOL    HW114181   7.514   0.149   7.007 -1.2850  0.7095  0.4755
 3593SOL    HW214182   7.602   0.248   6.933  0.3297  0.2074  1.6678
 3594SOL     OW14183   9.458   5.659   2.887 -0.8128 -0.5419 -0.8672
 3594SOL    HW114184   9.434   5.618   2.804  1.6290  3.0978 -3.6821
 3594SOL    HW214185   9.391   5.726   2.900  0.3869  0.8711 -1.6397
 3595SOL     OW14186   1.947   5.636   3.624 -0.1424 -0.4514  0.4064
 3595SOL    HW114187   1.974   5.576   3.694  1.7826  0.1192  0.2099
 3595SOL    HW214188   1.854   5.617   3.610  0.3542 -3.2477  0.4738
 3596SOL     OW14189   3.443   6.617  10.486 -0.0118 -0.5298 -1.1378
 3596SOL    HW114190   3.534   6.585  10.492  0.2241  0.2955  0.0795
 3596SOL    HW214191   3.448   6.691  10.425  0.7209  1.2833  0.9667
 3597SOL     OW14192   7.792   9.975   3.805  0.1420 -0.2668  0.0594
 3597SOL    HW114193   7.757  10.032   3.736  0.8984  0.7650  0.5049
 3597SOL    HW214194   7.871  10.019   3.836  2.3102 -2.8464 -1.3606
 3598SOL     OW14195   6.580   4.061   9.557 -0.4678 -0.0373 -0.3705
 3598SOL    HW114196   6.604   4.146   9.593  3.3764  0.1301 -2.7871
 3598SOL    HW214197   6.589   4.071   9.462  1.2296 -3.3401 -0.7099
 3599SOL     OW14198   7.106   7.624   3.077 -0.5373  0.0119 -0.2504
 3599SOL    HW114199   7.090   7.529   3.076 -2.2641  0.2436  0.8890
 3599SOL    HW214200   7.061   7.654   3.156  0.1223  1.7638 -0.5219
 3600SOL     OW14201   8.732   0.264   6.513  0.6952 -0.6021  0.0710
 3600SOL    HW114202   8.729   0.347   6.465  0.3677 -1.0650 -0.7335
 3600SOL    HW214203   8.698   0.284   6.600  0.6493  0.1089 -0.1108
 3601SOL     OW14204  10.498   6.395  10.912 -0.4742 -0.8005  0.4439
 3601SOL    HW114205  10.502   6.342  10.991 -2.0761 -0.5849  0.7158
 3601SOL    HW214206  10.431   6.353  10.858  0.3644 -0.7557 -0.6608
 3602SOL     OW14207   4.965   3.373   6.957  0.3197  0.3219  0.1580
 3602SOL    HW114208   4.965   3.468   6.969  0.5692  0.1360  1.7310
 3602SOL    HW214209   5.055   3.352   6.930 -0.0730  0.6553 -1.5589
 3603SOL     OW14210   5.565   8.436   0.736  0.1499 -0.4585  0.6272
 3603SOL    HW114211   5.641   8.380   0.751 -0.3941 -1.3796  0.0159
 3603SOL    HW214212   5.526   8.447   0.823  0.9940  0.0758  0.9589
 3604SOL     OW14213  10.094   1.697   6.192 -0.3379 -0.1169  0.1022
 3604SOL    HW114214  10.101   1.660   6.104  0.6042 -0.1573  0.1865
 3604SOL    HW214215  10.041   1.776   6.180 -0.7052 -0.4284 -0.3985
 3605SOL     OW14216   9.892   7.477   7.747  0.1935  0.3556 -0.2186
 3605SOL    HW114217   9.947   7.414   7.700 -1.2933 -0.0474 -1.4915
 3605SOL    HW214218   9.929   7.480   7.835 -0.0368 -2.7776  0.0852
 3606SOL     OW14219   3.275   3.530   6.442 -0.8212 -0.3635 -0.4043
 3606SOL    HW114220   3.270   3.623   6.421 -0.3312  0.0537  1.1905
 3606SOL    HW214221   3.210   3.517   6.511 -0.3618 -1.0297 -0.0760
 3607SOL     OW14222   1.786   8.123   3.972 -0.4137 -0.3110  0.2695
 3607SOL    HW114223   1.801   8.198   3.914 -0.7557 -0.6428 -0.2630
 3607SOL    HW214224   1.871   8.106   4.012 -0.1600 -0.0969 -0.1708
 3608SOL     OW14225   2.517   1.261   0.051 -0.2457 -0.2401 -0.5294
 3608SOL    HW114226   2.468   1.324  -0.003  0.1960  0.7322  0.1695
 3608SOL    HW214227   2.465   1.253   0.131 -0.0813 -0.4377 -0.4431
 3609SOL     OW14228   5.692  10.222   7.283  0.1307 -0.3637  0.1325
 3609SOL    HW114229   5.714  10.280   7.210  1.5652  0.1379  0.9179
 3609SOL    HW214230   5.619  10.266   7.327  0.7414  0.5096  0.3022
 3610SOL     OW14231   6.643   8.106   3.233 -0.2737  0.2545 -0.6463
 3610SOL    HW114232   6.565   8.124   3.181 -0.4673  0.7987 -0.1766
 3610SOL    HW214233   6.715   8.104   3.169 -0.5702  0.4533 -0.9878
 3611SOL     OW14234   1.108   2.418   8.857 -0.6227 -0.1892 -0.2249
 3611SOL    HW114235   1.071   2.401   8.770 -0.7103  2.4188 -0.7742
 3611SOL    HW214236   1.153   2.502   8.848 -0.3970  0.0199  2.1968
 3612SOL     OW14237   5.301  10.914   2.533 -0.1709 -0.0585  0.0854
 3612SOL    HW114238   5.248  10.853   2.583  0.0788 -1.4952 -1.3320
 3612SOL    HW214239   5.385  10.870   2.521  1.3560  2.0584  2.0520
 3613SOL     OW14240   1.281   5.512  10.916 -0.3971 -0.2240 -0.7155
 3613SOL    HW114241   1.217   5.583  10.926 -1.8316 -1.2619 -2.0280
 3613SOL    HW214242   1.317   5.524  10.828  0.4330 -0.3033 -0.3984
 3614SOL     OW14243   5.051   5.909   0.819  0.3902 -0.4895 -0.0238
 3614SOL    HW114244   5.079   5.826   0.781  0.3244 -0.7653  0.5148
 3614SOL    HW214245   5.015   5.885   0.905 -1.2512 -0.1397 -0.5655
 3615SOL     OW14246   4.048   4.832   0.614 -0.1808  0.2254  0.0057
 3615SOL    HW114247   4.044   4.923   0.643  1.8546  0.4263 -0.2108
 3615SOL    HW214248   4.127   4.827   0.561 -0.7372 -1.4786 -0.7215
 3616SOL     OW14249   6.907   3.583   4.044 -0.0388  0.1298 -0.4941
 3616SOL    HW114250   6.956   3.652   3.999  1.7427 -0.1904  0.8326
 3616SOL    HW214251   6.911   3.509   3.984  0.0302  0.4857 -0.9411
 3617SOL     OW14252   7.092   4.780   3.787 -0.0913  0.8462  0.2396
 3617SOL    HW114253   7.021   4.725   3.820  0.3134  1.3159  2.0043
 3617SOL    HW214254   7.057   4.869   3.788 -0.0100  0.8894 -0.4539
 3618SOL     OW14255   1.239   0.908   6.009 -0.2050  0.1558 -0.2946
 3618SOL    HW114256   1.241   0.812   6.006 -1.4107  0.0902  0.1668
 3618SOL    HW214257   1.319   0.933   6.054 -0.6022 -0.7386  0.9847
 3619SOL     OW14258   5.816   9.136   1.141 -0.0352  0.0877 -0.0793
 3619SOL    HW114259   5.906   9.165   1.156 -0.0766  0.4675 -0.5356
 3619SOL    HW214260   5.775   9.144   1.227  0.6198 -1.0444  0.3562
 3620SOL     OW14261   3.509   1.668   9.035 -0.4349 -0.2157  0.1299
 3620SOL    HW114262   3.600   1.638   9.031 -0.8403 -1.3949 -0.3439
 3620SOL    HW214263   3.468   1.633   8.956 -1.0302  1.2719 -0.2532
 3621SOL     OW14264   4.659   8.243   1.372 -0.0439  0.4187  0.1890
 3621SOL    HW114265   4.720   8.175   1.342  0.3519  1.8513 -2.6406
 3621SOL    HW214266   4.704   8.325   1.352 -2.0698  1.5019 -0.1167
 3622SOL     OW14267   1.424   4.990   8.437 -0.1348  0.3590  0.4524
 3622SOL    HW114268   1.329   4.986   8.448 -0.1799 -0.0412 -0.0453
 3622SOL    HW214269   1.454   4.900   8.450  0.0523  0.2859 -0.4053
 3623SOL     OW14270   6.460  10.855   3.152 -0.0189  0.2659  0.0863
 3623SOL    HW114271   6.534  10.915   3.144 -0.3525  0.6449 -0.2256
 3623SOL    HW214272   6.443  10.850   3.246 -0.0111  0.6894  0.1103
 3624SOL     OW14273   2.226   2.211   0.077 -0.2767  0.0790 -0.2583
 3624SOL    HW114274   2.147   2.264   0.086 -1.7382 -2.0371  0.0485
 3624SOL    HW214275   2.289   2.251   0.137 -1.7800  0.6612  0.9832
 3625SOL     OW14276  10.455   2.539   3.761 -0.3736 -0.2384  0.3658
 3625SOL    HW114277  10.496   2.520   3.845  0.3194  2.5448  0.7235
 3625SOL    HW214278  10.362   2.549   3.782 -0.4236 -0.9679  0.5263
 3626SOL     OW14279  10.592   3.236   9.749  0.0300 -0.0420 -0.3938
 3626SOL    HW114280  10.512   3.275   9.784 -0.1101 -0.0432 -0.7033
 3626SOL    HW214281  10.637   3.308   9.705  0.4541  0.0695  0.2213
 3627SOL     OW14282   0.838   8.773   5.111 -0.3291 -0.0487  0.4380
 3627SOL    HW114283   0.793   8.843   5.064 -2.1938 -1.7442 -0.4129
 3627SOL    HW214284   0.880   8.721   5.042  1.5267  0.4656  1.0968
 3628SOL     OW14285   1.172   9.634   7.133  0.6004  0.0335 -0.1881
 3628SOL    HW114286   1.236   9.700   7.160 -0.2314  0.8556 -0.1581
 3628SOL    HW214287   1.159   9.650   7.039 -1.5484  1.7157  0.3025
 3629SOL     OW14288   2.787   1.315   3.339 -0.3361  0.4255 -0.1274
 3629SOL    HW114289   2.716   1.360   3.383 -0.5072  0.7614 -0.7422
 3629SOL    HW214290   2.789   1.228   3.379 -1.6283  0.1271 -0.6617
 3630SOL     OW14291   8.698   2.036   4.941  0.9691  0.3333  0.2623
 3630SOL    HW114292   8.603   2.024   4.934  0.7567  0.7574  1.9088
 3630SOL    HW214293   8.709   2.102   5.010  2.4660 -0.0374  0.4177
 3631SOL     OW14294   4.291   8.645   6.929  0.0459 -0.1482  0.0086
 3631SOL    HW114295   4.221   8.636   6.993  0.4328 -0.7897  0.3523
 3631SOL    HW214296   4.371   8.634   6.979  0.4829  2.0963 -0.1107
 3632SOL     OW14297   7.831   5.038   3.941  0.1962 -0.0147  0.1528
 3632SOL    HW114298   7.842   4.979   3.866  0.9428  0.4466 -0.1161
 3632SOL    HW214299   7.739   5.062   3.939 -0.0875 -1.0544  0.1793
 3633SOL     OW14300  10.241   2.071   8.244  0.0577  0.7043 -0.1154
 3633SOL    HW114301  10.247   1.984   8.284  2.9922  0.5087 -0.7479
 3633SOL    HW214302  10.202   2.126   8.312  2.4163 -0.1764  2.1243
 3634SOL     OW14303   6.323   9.594   2.871  0.3755  0.2324  0.4361
 3634SOL    HW114304   6.237   9.565   2.843  0.7509 -0.7179  0.2329
 3634SOL    HW214305   6.322   9.587   2.966 -0.1096  1.2162  0.5142
 3635SOL     OW14306   1.777   7.786   0.839  0.6675 -0.1848 -0.3255
 3635SOL    HW114307   1.803   7.870   0.876  1.3834 -0.1370 -0.9112
 3635SOL    HW214308   1.682   7.792   0.829  0.7123  0.5421 -0.3550
 3636SOL     OW14309   0.447   7.431   0.667  0.4799 -0.6064 -0.5130
 3636SOL    HW114310   0.391   7.354   0.677 -0.3872  0.3091  2.7252
 3636SOL    HW214311   0.408   7.480   0.594  0.4692 -2.6463 -1.9796
 3637SOL     OW14312   6.986   0.455   1.057  0.4471  0.5691 -0.3569
 3637SOL    HW114313   6.984   0.517   1.130  0.6401 -0.0407  0.1768
 3637SOL    HW214314   6.920   0.389   1.080  0.5244  0.3654 -0.7213
 3638SOL     OW14315   1.590   8.533   4.861  0.0994  0.0373 -0.0356
 3638SOL    HW114316   1.500   8.508   4.879 -0.3066  0.6944 -1.0520
 3638SOL    HW214317   1.623   8.466   4.802  0.0637  0.1479 -0.1817
 3639SOL     OW14318   3.752   2.042  10.231 -0.3956 -0.4000  0.0957
 3639SOL    HW114319   3.734   2.121  10.180 -1.7347 -0.0887  1.0179
 3639SOL    HW214320   3.833   2.062  10.279  0.0378 -0.1319 -0.7378
 3640SOL     OW14321   8.939  10.491   6.522  0.1148 -0.1933 -0.0951
 3640SOL    HW114322   8.966  10.412   6.476  0.1799  0.1066 -0.5888
 3640SOL    HW214323   8.861  10.520   6.476  0.4876  0.4087 -0.3689
 3641SOL     OW14324   7.633   3.794   5.822  0.6876 -0.5246  0.2828
 3641SOL    HW114325   7.545   3.792   5.783  0.2590  5.5616  0.0520
 3641SOL    HW214326   7.618   3.783   5.916 -0.5121  1.0597  0.3191
 3642SOL     OW14327   5.567   2.828   1.458 -0.2385 -0.3807 -0.2120
 3642SOL    HW114328   5.604   2.813   1.371 -1.0429  0.2930 -0.6841
 3642SOL    HW214329   5.484   2.781   1.457 -0.1575 -0.5454  0.2798
 3643SOL     OW14330   0.175   8.659   6.784  0.2954  0.8718 -0.3159
 3643SOL    HW114331   0.148   8.668   6.876 -0.2334 -1.5567 -0.1666
 3643SOL    HW214332   0.179   8.565   6.770  0.6557  1.1978 -2.7388
 3644SOL     OW14333   0.433   8.725   6.713  0.6481 -0.1190 -0.6805
 3644SOL    HW114334   0.351   8.706   6.757  0.4920  0.1483 -0.8554
 3644SOL    HW214335   0.423   8.813   6.678  0.8214 -0.2715 -1.1304
 3645SOL     OW14336   9.370   0.526   8.096  0.1635 -0.3746  0.8188
 3645SOL    HW114337   9.295   0.586   8.103  0.0837  0.4288 -3.7446
 3645SOL    HW214338   9.441   0.569   8.143 -0.9669  1.3008  1.0604
 3646SOL     OW14339   3.015   2.973   8.836 -0.4450 -0.1743  0.0032
 3646SOL    HW114340   3.010   2.894   8.891 -0.6454 -0.2630 -0.1391
 3646SOL    HW214341   3.104   3.006   8.849 -1.2471  1.2366  2.3461
 3647SOL     OW14342   5.096   5.826   9.527  0.3731  0.0177  0.0834
 3647SOL    HW114343   5.055   5.876   9.456  1.2169  0.3258 -0.2064
 3647SOL    HW214344   5.049   5.743   9.528 -0.6142  0.5593  0.1311
 3648SOL     OW14345   7.879   1.172  10.463 -0.3661 -0.0630 -0.0013
 3648SOL    HW114346   7.902   1.247  10.518 -0.7450 -1.4665  2.1623
 3648SOL    HW214347   7.789   1.150  10.488 -0.5853 -0.7016 -1.2685
 3649SOL     OW14348  10.717   3.640   6.910  0.2901 -0.3057 -0.2516
 3649SOL    HW114349  10.743   3.555   6.873  1.6612 -0.0752  0.1322
 3649SOL    HW214350  10.718   3.700   6.836 -1.1434 -0.6801 -0.6211
 3650SOL     OW14351   7.432   3.351   8.529  0.8488 -0.1534 -0.1380
 3650SOL    HW114352   7.450   3.272   8.581  4.7397 -0.0924 -1.0770
 3650SOL    HW214353   7.358   3.393   8.573  0.0772 -3.1595  1.6979
 3651SOL     OW14354   8.177   8.468   8.536  0.1283 -0.2523  0.4620
 3651SOL    HW114355   8.263   8.450   8.573  0.6532  2.3321  0.6740
 3651SOL    HW214356   8.116   8.442   8.605  0.6829 -1.9685  0.3646
 3652SOL     OW14357  10.349   7.394   8.623  0.1664  0.6467 -0.2563
 3652SOL    HW114358  10.349   7.459   8.553 -1.6920  1.5807  0.5316
 3652SOL    HW214359  10.385   7.441   8.699 -1.6316  0.9482  0.4430
 3653SOL     OW14360   7.185   9.034   7.117  0.1127  0.1872  0.2640
 3653SOL    HW114361   7.149   8.952   7.083  0.2649  0.6087 -0.9760
 3653SOL    HW214362   7.114   9.097   7.108  0.2979  0.4059  0.3185
 3654SOL     OW14363   5.536   2.425   1.359  0.3728  0.1563 -0.4927
 3654SOL    HW114364   5.446   2.445   1.334  0.5297 -0.4321 -1.5911
 3654SOL    HW214365   5.549   2.334   1.331  1.0810 -0.0045  0.3152
 3655SOL     OW14366   6.242   1.728   7.619 -0.0957  0.1294  0.1782
 3655SOL    HW114367   6.330   1.691   7.631 -0.1751  0.1203  0.7878
 3655SOL    HW214368   6.252   1.820   7.645  0.3412  0.8566 -2.3003
 3656SOL     OW14369   6.025  10.029   5.111  0.4081  0.3450  0.1185
 3656SOL    HW114370   5.950  10.050   5.055  1.3838  2.2446 -0.5253
 3656SOL    HW214371   6.100  10.069   5.068  1.5310  0.0291  1.7014
 3657SOL     OW14372   0.194   5.945   4.932  0.2456  0.3306  0.0682
 3657SOL    HW114373   0.148   5.934   4.850 -1.8991 -0.7332  1.3380
 3657SOL    HW214374   0.272   5.889   4.924 -0.7199 -0.9425 -0.6800
 3658SOL     OW14375   1.065   0.615   0.960  0.1380  0.0575 -0.7106
 3658SOL    HW114376   1.021   0.577   0.884 -0.8095 -0.9289  0.2862
 3658SOL    HW214377   0.995   0.655   1.011  0.8569  1.3342 -0.6829
 3659SOL     OW14378   8.051   8.466  10.558  0.2965 -0.4085  0.1550
 3659SOL    HW114379   8.031   8.405  10.488  0.8044 -0.0998 -0.2615
 3659SOL    HW214380   7.966   8.504  10.581  0.0509 -0.9066  0.0840
 3660SOL     OW14381   5.528  10.291   7.011 -0.3190  0.1932 -0.4968
 3660SOL    HW114382   5.582  10.228   7.058  0.3596  1.4328  0.4633
 3660SOL    HW214383   5.578  10.313   6.933 -1.0391 -1.2073 -1.3811
 3661SOL     OW14384   7.480   0.076   6.637  0.0228 -0.3035  0.2125
 3661SOL    HW114385   7.461   0.062   6.730 -0.7261 -0.9003 -0.0197
 3661SOL    HW214386   7.558   0.022   6.621  1.1103  1.0232  0.8355
 3662SOL     OW14387  10.018   5.442  10.768 -0.0922 -0.1042  0.5543
 3662SOL    HW114388   9.957   5.457  10.840 -0.1699 -0.7256  0.6213
 3662SOL    HW214389  10.044   5.530  10.739 -1.4503  0.1741  0.1405
 3663SOL     OW14390   1.017   0.367   7.837 -0.0121 -0.1411 -0.3747
 3663SOL    HW114391   0.993   0.387   7.928  0.4000 -0.5110 -0.1806
 3663SOL    HW214392   1.087   0.301   7.845  0.8513  0.6898 -0.9271
 3664SOL     OW14393   1.253   0.890   5.516 -0.7052 -0.5654 -0.4251
 3664SOL    HW114394   1.196   0.814   5.531 -0.0489 -0.5769  3.0179
 3664SOL    HW214395   1.252   0.936   5.600  2.1027  1.0280 -1.1624
 3665SOL     OW14396   0.315   6.939   1.238  0.0036  0.4028 -0.1352
 3665SOL    HW114397   0.339   6.947   1.145  0.7284  2.0086  0.1523
 3665SOL    HW214398   0.277   7.024   1.260  0.2792  0.2083  1.1505
 3666SOL     OW14399   3.016   8.088   6.713 -0.2744 -0.0273 -0.3202
 3666SOL    HW114400   3.060   8.003   6.723 -1.0865 -0.5448 -0.9922
 3666SOL    HW214401   2.939   8.082   6.769 -0.9419 -0.1729 -1.2390
 3667SOL     OW14402   3.959   0.543   7.544  0.7735 -0.2797 -0.2910
 3667SOL    HW114403   3.880   0.596   7.537  0.8257  0.0300  1.1676
 3667SOL    HW214404   3.930   0.453   7.529 -0.1176 -0.3292  1.5622
 3668SOL     OW14405  10.468   8.806   3.258 -0.1485  0.5735 -0.0057
 3668SOL    HW114406  10.505   8.750   3.326 -0.1494  2.0520  1.2638
 3668SOL    HW214407  10.374   8.801   3.271 -0.2515 -0.4929 -1.0343
 3669SOL     OW14408   8.726   2.850   6.953  0.0966  1.0810  0.1264
 3669SOL    HW114409   8.687   2.795   6.884 -0.8344 -0.9046  2.1302
 3669SOL    HW214410   8.812   2.811   6.967  0.0367  1.0908  0.5058
 3670SOL     OW14411   1.199   3.111   4.184  0.8015 -0.2278 -0.2033
 3670SOL    HW114412   1.255   3.041   4.151 -0.1115 -1.1266  0.1176
 3670SOL    HW214413   1.131   3.121   4.117 -1.1517 -2.1614  1.3208
 3671SOL     OW14414  10.787   5.382   5.567 -0.2362 -0.5990  0.1250
 3671SOL    HW114415  10.880   5.402   5.557 -0.3412 -0.5659 -0.9811
 3671SOL    HW214416  10.761   5.348   5.481 -1.8431  1.9734 -0.5442
 3672SOL     OW14417   6.945   3.636   2.273 -0.5391 -0.6150  0.4000
 3672SOL    HW114418   6.916   3.553   2.235 -3.0702  0.0813  0.6241
 3672SOL    HW214419   6.925   3.701   2.205 -0.0775  0.0084  0.8520
 3673SOL     OW14420   1.699   2.012   1.280 -0.4443 -0.1418 -0.6335
 3673SOL    HW114421   1.612   2.052   1.288 -0.7656 -0.8297 -0.6432
 3673SOL    HW214422   1.708   1.992   1.187 -1.7350 -3.2113 -0.2310
 3674SOL     OW14423  10.304   1.597   8.807  0.0941  0.6986  0.4563
 3674SOL    HW114424  10.220   1.610   8.765 -0.4431 -1.9780  0.5240
 3674SOL    HW214425  10.369   1.625   8.742 -0.7997  0.6705 -0.4546
 3675SOL     OW14426   5.096  10.712   5.000 -0.3375 -0.2549 -0.5950
 3675SOL    HW114427   5.059  10.729   4.914  1.3343 -1.8289 -1.7150
 3675SOL    HW214428   5.170  10.773   5.007 -0.3911 -0.2174 -0.3179
 3676SOL     OW14429   2.087   8.922   0.233  0.9661 -0.3506 -0.0103
 3676SOL    HW114430   2.008   8.962   0.198  1.1891  0.1765  0.0847
 3676SOL    HW214431   2.069   8.828   0.231 -1.4483 -0.2057  4.0284
 3677SOL     OW14432   6.161   2.523   4.036  0.4617 -1.0457 -0.1199
 3677SOL    HW114433   6.129   2.591   4.095 -0.6788 -0.8246 -0.9610
 3677SOL    HW214434   6.208   2.571   3.967 -0.2605 -1.0949 -0.6621
 3678SOL     OW14435   3.929   1.629   8.586 -0.7914  0.0111 -0.0254
 3678SOL    HW114436   3.875   1.706   8.604  1.3165  1.4767  0.3361
 3678SOL    HW214437   3.960   1.642   8.496  0.8260  0.4227  0.5670
 3679SOL     OW14438   2.693   0.823   0.740 -0.1718  0.0888 -0.0264
 3679SOL    HW114439   2.690   0.733   0.707 -1.1446 -0.1600  0.6742
 3679SOL    HW214440   2.674   0.877   0.664 -1.0293 -0.3973 -0.1736
 3680SOL     OW14441  10.364   5.874   5.425 -0.0524 -0.3869 -0.3032
 3680SOL    HW114442  10.318   5.944   5.378 -0.2961 -0.3411  0.0026
 3680SOL    HW214443  10.455   5.883   5.398  0.0706  0.6111  0.4171
 3681SOL     OW14444   4.066  10.047   4.735 -0.1209 -0.5855  0.2058
 3681SOL    HW114445   4.025  10.126   4.771  0.0147 -1.0009  1.2998
 3681SOL    HW214446   4.160  10.066   4.739 -0.1024 -0.6698  0.1624
 3682SOL     OW14447   6.541   7.600   2.424 -0.0510 -0.5891 -0.3512
 3682SOL    HW114448   6.563   7.528   2.365 -1.7023 -0.6331 -0.9626
 3682SOL    HW214449   6.510   7.556   2.504 -1.3783 -0.5913 -0.8462
 3683SOL     OW14450   1.073   0.357   1.057 -0.4108  0.3221  0.5320
 3683SOL    HW114451   1.088   0.450   1.041  1.1044  0.0941  0.4664
 3683SOL    HW214452   1.110   0.313   0.980 -0.1600 -0.3850  1.0410
 3684SOL     OW14453   2.231  10.564   0.620  0.2366  0.7974 -0.0210
 3684SOL    HW114454   2.213  10.614   0.700 -1.6123 -1.2000  0.9107
 3684SOL    HW214455   2.324  10.579   0.602  0.9429  0.6664  2.9872
 3685SOL     OW14456   6.809  10.516   2.824  0.0508  0.3272  0.6684
 3685SOL    HW114457   6.756  10.592   2.849  1.7665  1.4096  1.2106
 3685SOL    HW214458   6.880  10.553   2.772  0.4247 -1.0398  0.1801
 3686SOL     OW14459   7.439   4.700  10.702  0.5067 -0.2785 -0.6111
 3686SOL    HW114460   7.364   4.643  10.683 -0.0671  0.8742 -1.9240
 3686SOL    HW214461   7.410   4.788  10.678  1.5754  0.5228  0.8462
 3687SOL     OW14462   2.498   3.237   3.515 -0.3996  0.0627 -0.3087
 3687SOL    HW114463   2.526   3.153   3.552 -1.3275  0.2110  0.7814
 3687SOL    HW214464   2.455   3.282   3.587 -0.3479  1.2839 -1.0161
 3688SOL     OW14465   7.404   4.657   1.623 -0.2699  0.3418 -0.7192
 3688SOL    HW114466   7.316   4.621   1.621  0.0235 -0.3695 -0.8906
 3688SOL    HW214467   7.461   4.582   1.639  0.2080  0.9770  0.7388
 3689SOL     OW14468   7.807   1.875   6.851 -0.6637  0.2249 -0.2795
 3689SOL    HW114469   7.852   1.824   6.784 -1.0044  0.4416 -0.6785
 3689SOL    HW214470   7.871   1.941   6.878 -0.8514  0.7558 -1.0986
 3690SOL     OW14471  10.486   8.682   2.549  0.2819  0.0892  0.1320
 3690SOL    HW114472  10.465   8.702   2.640 -0.8803 -1.3603  0.2237
 3690SOL    HW214473  10.577   8.710   2.539 -0.6712  3.9463  0.5650
 3691SOL     OW14474  10.193   6.600   4.921  0.2148 -0.2845  0.1663
 3691SOL    HW114475  10.257   6.671   4.925 -1.1334  0.9886 -0.2189
 3691SOL    HW214476  10.203   6.556   5.006  2.4400 -0.9249 -0.3573
 3692SOL     OW14477   8.827   7.384   3.962  0.1351  0.0244  0.4286
 3692SOL    HW114478   8.920   7.364   3.961 -0.0573 -1.2160  2.1849
 3692SOL    HW214479   8.822   7.479   3.962  1.3703  0.1014 -0.2809
 3693SOL     OW14480   7.667   8.096   1.907  0.2574 -0.2211 -0.6953
 3693SOL    HW114481   7.638   8.011   1.938 -1.5350 -0.4199 -2.7238
 3693SOL    HW214482   7.744   8.116   1.961 -0.2599 -2.3255  0.9574
 3694SOL     OW14483   3.983   9.281   6.392  0.3667 -0.0149  0.0997
 3694SOL    HW114484   4.039   9.203   6.393  0.3981 -0.0630 -1.6877
 3694SOL    HW214485   3.989   9.313   6.302 -0.7425  1.2656  0.4519
 3695SOL     OW14486   0.186   3.054   1.866  0.1006 -0.4220  0.4152
 3695SOL    HW114487   0.274   3.048   1.829  0.0377  0.6118  0.0597
 3695SOL    HW214488   0.156   2.964   1.873  0.5282 -0.6920 -1.0454
 3696SOL     OW14489   0.146   0.255   2.021 -0.1724 -0.3827 -0.4985
 3696SOL    HW114490   0.063   0.211   2.040 -1.1202  1.1216 -0.9195
 3696SOL    HW214491   0.128   0.306   1.942  0.7945  0.8829  0.0597
 3697SOL     OW14492   8.317   9.336   5.896 -0.0748  0.1127 -0.0646
 3697SOL    HW114493   8.359   9.418   5.921  0.4002 -0.3497  0.7076
 3697SOL    HW214494   8.321   9.334   5.801  1.3390  0.2619 -0.0275
 3698SOL     OW14495   5.097   2.306   7.711  0.3480  0.2626  0.5483
 3698SOL    HW114496   5.081   2.326   7.619  0.8763  1.2370  0.6475
 3698SOL    HW214497   5.045   2.228   7.729  0.9819 -0.4931 -0.8138
 3699SOL     OW14498  10.714   7.190   8.063  0.0706  0.0520 -0.1007
 3699SOL    HW114499  10.682   7.261   8.118 -2.0353 -0.9835  0.1353
 3699SOL    HW214500  10.714   7.226   7.974  0.3419  0.7471  0.1786
 3700SOL     OW14501   1.410   5.798   6.881  0.3973 -0.1580 -0.3125
 3700SOL    HW114502   1.325   5.755   6.873  0.1367  0.5084 -1.4667
 3700SOL    HW214503   1.464   5.754   6.815  0.5377  0.3053 -0.5144
 3701SOL     OW14504   5.372   9.074  10.115  0.0522 -0.2342  0.4906
 3701SOL    HW114505   5.466   9.087  10.129 -0.1242  0.7855  0.8570
 3701SOL    HW214506   5.340   9.042  10.199 -0.0400  0.1143  0.5895
 3702SOL     OW14507   1.179   0.001   6.432  0.0110  0.1843 -0.1394
 3702SOL    HW114508   1.165   0.092   6.458 -2.5700  0.0253 -0.7549
 3702SOL    HW214509   1.185   0.003   6.337 -0.3450 -0.3286 -0.1767
 3703SOL     OW14510   0.900   8.812   5.856  0.1589 -0.0310  0.5270
 3703SOL    HW114511   0.832   8.880   5.855  0.4978  0.3395 -1.3458
 3703SOL    HW214512   0.967   8.844   5.796  0.4312 -1.9050 -0.2609
 3704SOL     OW14513   9.594   0.171   5.325  0.1200  0.5722  0.0154
 3704SOL    HW114514   9.518   0.125   5.292 -0.4325  0.9453  0.7363
 3704SOL    HW214515   9.592   0.256   5.282 -0.4215  0.9398  0.7462
 3705SOL     OW14516   4.248  10.058   8.304  0.0465  0.3803  0.1215
 3705SOL    HW114517   4.181   9.992   8.323  1.2654 -1.2506 -0.9999
 3705SOL    HW214518   4.303  10.060   8.383  1.2096 -1.5070 -0.5882
 3706SOL     OW14519  10.493   9.048   9.434 -0.1319 -0.2770  0.0209
 3706SOL    HW114520  10.489   9.067   9.528 -2.7688 -2.1704  0.3935
 3706SOL    HW214521  10.518   9.131   9.394  1.1949  0.5579  2.3576
 3707SOL     OW14522   8.371   0.987   8.933 -0.0239 -0.1744  0.0286
 3707SOL    HW114523   8.359   1.029   8.848 -0.5478 -1.3151 -0.4844
 3707SOL    HW214524   8.456   1.018   8.964  1.2574 -1.4943 -1.9622
 3708SOL     OW14525   1.783   1.670   1.741  0.3535 -0.0125 -0.1821
 3708SOL    HW114526   1.703   1.628   1.708 -0.0976  2.0582 -1.9500
 3708SOL    HW214527   1.853   1.632   1.689  0.3875 -0.8747  0.4671
 3709SOL     OW14528   1.390   7.098   2.663  0.4327 -0.0610 -0.0790
 3709SOL    HW114529   1.318   7.070   2.719  0.9693 -0.0966  0.5999
 3709SOL    HW214530   1.347   7.132   2.584 -0.3234 -0.1010  0.3089
 3710SOL     OW14531   1.525   0.722   3.938  0.2342 -0.2809  0.5918
 3710SOL    HW114532   1.607   0.684   3.970 -0.6684 -2.3732  0.5709
 3710SOL    HW214533   1.504   0.672   3.859  0.0265  1.6967 -0.6685
 3711SOL     OW14534   7.425   7.015  10.564 -0.3991  0.2589 -0.5769
 3711SOL    HW114535   7.520   7.025  10.552 -0.2646 -0.2441  0.0125
 3711SOL    HW214536   7.387   7.052  10.485  0.2589  1.0883 -0.5189
 3712SOL     OW14537   8.265   6.954   9.498 -0.5063  0.0421  0.4440
 3712SOL    HW114538   8.327   6.922   9.564 -1.3440  0.2847  1.3745
 3712SOL    HW214539   8.202   7.006   9.548 -0.3731  1.4133 -0.7434
 3713SOL     OW14540   3.246   5.072   5.892  0.0057  0.3623  0.5877
 3713SOL    HW114541   3.254   5.131   5.967  2.4180  0.0270  0.6636
 3713SOL    HW214542   3.234   4.985   5.932 -0.3820  0.4012  0.5530
 3714SOL     OW14543   0.067   8.717   7.717  0.2338  1.0189 -0.4597
 3714SOL    HW114544   0.152   8.750   7.689  0.5452  1.0004  0.4085
 3714SOL    HW214545   0.051   8.761   7.801 -0.1604  0.3060 -0.1452
 3715SOL     OW14546  10.304   5.551   7.041 -0.1090  0.5309  0.3529
 3715SOL    HW114547  10.381   5.500   7.066  0.4927  1.4389  0.4125
 3715SOL    HW214548  10.320   5.576   6.950 -1.7825 -1.8399 -0.6917
 3716SOL     OW14549   1.121   9.015   6.486 -0.0375  0.4352 -0.2834
 3716SOL    HW114550   1.141   8.934   6.534  0.5590  1.4591  1.3010
 3716SOL    HW214551   1.133   8.992   6.394  1.8171 -0.8659  0.2094
 3717SOL     OW14552   8.211   3.324   1.477 -0.1666 -0.4053 -0.3380
 3717SOL    HW114553   8.182   3.413   1.456  0.3841 -0.2744 -0.5696
 3717SOL    HW214554   8.164   3.268   1.415  0.6732 -0.1146 -1.2788
 3718SOL     OW14555   4.223   2.164  10.534  0.1569  0.6238  0.2266
 3718SOL    HW114556   4.278   2.128  10.604 -0.3790  0.7932  0.7365
 3718SOL    HW214557   4.285   2.202  10.472  0.8807 -2.2946 -1.0262
 3719SOL     OW14558   3.774   1.702   9.267  0.7617 -0.0308  0.2814
 3719SOL    HW114559   3.688   1.685   9.305  1.5391 -2.5281  1.0781
 3719SOL    HW214560   3.767   1.669   9.177  0.0341  2.5566 -0.6962
 3720SOL     OW14561   5.914   9.749   8.057  0.5320 -0.2458  0.1589
 3720SOL    HW114562   5.936   9.708   7.973 -1.7442 -1.0677 -0.1180
 3720SOL    HW214563   5.904   9.842   8.036  0.1868 -0.4159 -0.4471
 3721SOL     OW14564   5.530   0.249   5.898  0.1873 -0.7116 -0.4617
 3721SOL    HW114565   5.483   0.176   5.857 -1.9867  0.1894  0.2987
 3721SOL    HW214566   5.462   0.311   5.923  1.4076 -0.6891  3.5143
 3722SOL     OW14567   5.111   7.268   7.799  0.0773  0.4128  0.0688
 3722SOL    HW114568   5.175   7.197   7.798 -0.0663  0.2561  0.8332
 3722SOL    HW214569   5.036   7.232   7.848 -0.2178  0.9012 -0.0157
 3723SOL     OW14570   2.852   4.060   1.792 -0.5540  0.0760  0.0962
 3723SOL    HW114571   2.862   4.113   1.872  1.9903  1.3369 -0.9352
 3723SOL    HW214572   2.807   4.119   1.731  0.0843  0.1821 -0.2802
 3724SOL     OW14573   2.955   9.558   4.848 -0.4687 -0.4221  0.2664
 3724SOL    HW114574   3.031   9.616   4.844 -0.9981  0.3164  0.7399
 3724SOL    HW214575   2.923   9.564   4.938 -1.6650  0.0345 -0.1664
 3725SOL     OW14576  10.196   3.320   1.417  0.4989  0.3148 -0.4307
 3725SOL    HW114577  10.206   3.374   1.495 -3.4537  0.0438  0.4987
 3725SOL    HW214578  10.183   3.383   1.346 -4.2056  0.9364  0.6617
 3726SOL     OW14579   8.273   3.939   1.615 -0.1203 -0.1574  0.0390
 3726SOL    HW114580   8.349   3.911   1.565  0.4004 -0.8703  1.1876
 3726SOL    HW214581   8.301   4.019   1.659  0.4425 -1.0982  1.4732
 3727SOL     OW14582   2.334   1.623   0.679  0.1039  0.3512  0.1494
 3727SOL    HW114583   2.332   1.653   0.587 -2.1989 -0.7420 -0.2206
 3727SOL    HW214584   2.303   1.699   0.729 -0.0100  0.4924 -0.1321
 3728SOL     OW14585   0.856   5.037   8.178 -0.9549 -0.4063  0.1810
 3728SOL    HW114586   0.822   4.949   8.161 -1.0895 -0.5758  1.2530
 3728SOL    HW214587   0.946   5.034   8.145 -1.6059 -0.2696 -1.7427
 3729SOL     OW14588   3.652   0.334   0.427  0.0364 -0.1303 -0.5327
 3729SOL    HW114589   3.647   0.411   0.484  1.2414  0.1333 -0.7661
 3729SOL    HW214590   3.563   0.299   0.427 -0.2174  0.4511  0.6994
 3730SOL     OW14591   3.833   4.250  10.264 -0.1051 -0.5624  0.0709
 3730SOL    HW114592   3.759   4.291  10.221  0.7999  0.4219 -0.5969
 3730SOL    HW214593   3.794   4.184  10.322 -1.4704 -0.1872 -0.3915
 3731SOL     OW14594   4.756   0.499   8.735  0.6945 -0.0135  0.2367
 3731SOL    HW114595   4.748   0.438   8.661  1.4251  2.1378 -1.7294
 3731SOL    HW214596   4.850   0.500   8.755  0.3749 -1.5795  2.2073
 3732SOL     OW14597   2.452   4.114  10.199 -0.5017  0.2460 -0.5811
 3732SOL    HW114598   2.462   4.181  10.266 -0.0165  0.5973 -1.0032
 3732SOL    HW214599   2.357   4.107  10.186 -0.7520 -1.1172  1.4270
 3733SOL     OW14600   1.041   5.181   6.282 -0.4107  0.4945 -0.6291
 3733SOL    HW114601   1.104   5.229   6.337  0.1151 -0.3276 -0.4908
 3733SOL    HW214602   1.066   5.203   6.192  1.2069 -1.1600 -0.6355
 3734SOL     OW14603   7.655   1.530   2.962  0.0006 -0.1371  0.6516
 3734SOL    HW114604   7.585   1.470   2.937  1.5142 -1.6610 -0.1363
 3734SOL    HW214605   7.667   1.586   2.885  2.3489 -2.6028 -0.9723
 3735SOL     OW14606   2.514   3.051   8.894 -0.2238  0.1772  0.0928
 3735SOL    HW114607   2.489   3.091   8.810 -0.4975 -1.0497 -0.4277
 3735SOL    HW214608   2.442   3.074   8.953  0.1728  1.4143  0.1392
 3736SOL     OW14609   2.356   8.178   6.073  0.5843  0.3550  0.0050
 3736SOL    HW114610   2.318   8.259   6.108  1.2311  1.0444 -0.8152
 3736SOL    HW214611   2.389   8.132   6.150  0.2005  0.8704  0.4889
 3737SOL     OW14612   9.637   5.841   9.169  0.3394  0.0059  0.8341
 3737SOL    HW114613   9.580   5.908   9.129  0.9898  1.2003  1.8240
 3737SOL    HW214614   9.649   5.776   9.100 -0.0367  1.0924 -0.3076
 3738SOL     OW14615  10.038   8.232   7.011 -0.1044  0.5119 -0.4863
 3738SOL    HW114616  10.128   8.206   7.032 -0.9207 -0.9235  1.5805
 3738SOL    HW214617  10.021   8.308   7.067 -0.2322  0.7276 -0.8091
 3739SOL     OW14618   8.189   9.797   2.516 -0.2322  0.3817 -0.2025
 3739SOL    HW114619   8.185   9.864   2.585  2.3328  0.2222  0.1992
 3739SOL    HW214620   8.206   9.847   2.436 -0.2130  0.3628 -0.2102
 3740SOL     OW14621   4.763  10.678   4.064 -0.3502  0.1755 -0.2805
 3740SOL    HW114622   4.747  10.694   4.157  0.2767  0.1252 -0.1608
 3740SOL    HW214623   4.831  10.611   4.062 -0.5399 -0.0136 -0.7811
 3741SOL     OW14624   5.097   0.991   0.938 -0.7269 -0.1050  0.5185
 3741SOL    HW114625   5.108   0.964   0.847 -1.8917  1.2334 -0.0593
 3741SOL    HW214626   5.055   0.917   0.980  1.4738 -1.4823  0.4678
 3742SOL     OW14627   3.637   6.084   3.938  0.8082 -0.0346 -0.5112
 3742SOL    HW114628   3.705   6.097   3.873  0.4518 -0.3396 -0.9554
 3742SOL    HW214629   3.660   6.001   3.981  0.7517 -0.1023 -0.6131
 3743SOL     OW14630   7.195   0.648   2.869 -0.2114  0.5741 -0.1870
 3743SOL    HW114631   7.114   0.690   2.896 -0.3708  0.1075  0.0761
 3743SOL    HW214632   7.238   0.624   2.951 -0.2387  0.0124 -0.3344
 3744SOL     OW14633   4.972   1.833   9.470 -0.3559  0.4245  0.7096
 3744SOL    HW114634   5.030   1.839   9.546  0.6322 -0.6645  0.0706
 3744SOL    HW214635   5.023   1.870   9.398 -0.7046  0.0364  0.2602
 3745SOL     OW14636   9.363   1.480   8.273 -0.2374  0.0274 -0.2656
 3745SOL    HW114637   9.377   1.429   8.192  0.5528 -1.8599  0.9885
 3745SOL    HW214638   9.434   1.451   8.331 -1.2758  0.7168  1.3986
 3746SOL     OW14639   8.057  10.446   7.161  0.3820  0.2849  0.0388
 3746SOL    HW114640   8.009  10.384   7.216 -0.9752  0.9087 -0.3833
 3746SOL    HW214641   8.027  10.428   7.072 -0.0324  1.4998 -0.0963
 3747SOL     OW14642   1.208   0.609   5.054  0.3503  0.5708  0.0963
 3747SOL    HW114643   1.143   0.546   5.022 -0.2418  1.0626  0.3177
 3747SOL    HW214644   1.173   0.694   5.029  1.7053  0.7886 -1.2352
 3748SOL     OW14645   4.597   3.458   4.252 -0.2694  0.1514  0.3327
 3748SOL    HW114646   4.551   3.375   4.243 -1.5878  0.6220  2.1354
 3748SOL    HW214647   4.640   3.471   4.168 -2.0682 -1.1476 -0.8561
 3749SOL     OW14648   5.073   4.631   4.808 -0.5684  0.2198  0.1555
 3749SOL    HW114649   5.080   4.558   4.869  1.6385 -0.3413 -0.6728
 3749SOL    HW214650   5.085   4.592   4.721  0.9913  1.5738 -0.2777
 3750SOL     OW14651   2.447   5.931   6.024 -0.0469  0.0666 -0.0681
 3750SOL    HW114652   2.434   5.988   5.949  3.6691 -0.8792 -1.6511
 3750SOL    HW214653   2.522   5.969   6.071 -1.7583  0.1886  2.8418
 3751SOL     OW14654   5.049   6.222   5.399 -0.1512  0.0826 -0.1517
 3751SOL    HW114655   4.958   6.247   5.384  0.0037  0.1940 -0.9702
 3751SOL    HW214656   5.050   6.127   5.385 -0.5554 -0.2957  2.0315
 3752SOL     OW14657   0.769   9.139   4.210 -0.6574  0.3877  0.0408
 3752SOL    HW114658   0.682   9.138   4.250 -1.8228  2.6053 -2.1202
 3752SOL    HW214659   0.825   9.178   4.277 -2.2560  2.8231  0.0985
 3753SOL     OW14660   8.175   9.386   1.426 -0.1638 -0.4379 -0.3227
 3753SOL    HW114661   8.109   9.397   1.495 -0.4900 -1.5793 -0.4286
 3753SOL    HW214662   8.215   9.472   1.417  0.4999 -0.4437  1.9259
 3754SOL     OW14663   1.587   0.562   3.150 -0.2622 -0.1608 -0.0048
 3754SOL    HW114664   1.608   0.647   3.111 -1.6351 -0.0338 -0.5376
 3754SOL    HW214665   1.595   0.500   3.078  1.5188 -0.6510  0.5588
 3755SOL     OW14666   5.087   6.689  10.200 -0.9912  0.3020  0.3576
 3755SOL    HW114667   5.066   6.673  10.292 -2.4975 -1.9400 -0.2955
 3755SOL    HW214668   5.158   6.628  10.181 -3.1341 -2.0597 -0.7846
 3756SOL     OW14669   0.171   6.005   1.521  0.6202  0.7126  0.5459
 3756SOL    HW114670   0.123   6.005   1.438  0.4131  0.5096  0.6664
 3756SOL    HW214671   0.262   5.988   1.495  0.4955  0.2649  0.3934
 3757SOL     OW14672   0.308   0.196   7.940 -0.0579  0.2095  0.3674
 3757SOL    HW114673   0.356   0.260   7.993 -1.6874  0.6293  1.4089
 3757SOL    HW214674   0.277   0.132   8.003 -2.1893  0.8101 -0.0152
 3758SOL     OW14675   6.836   5.418   9.197  0.0766  0.2483  0.6865
 3758SOL    HW114676   6.862   5.351   9.261 -1.1503 -0.6720  0.2510
 3758SOL    HW214677   6.746   5.396   9.174  0.0793  1.3096 -0.4324
 3759SOL     OW14678   4.218   6.637   8.698  0.1641 -0.2387  0.1372
 3759SOL    HW114679   4.254   6.553   8.670 -0.6106 -0.5775  0.1634
 3759SOL    HW214680   4.219   6.634   8.794 -0.8417 -0.6458  0.1447
 3760SOL     OW14681   4.817   9.574   8.076 -0.1727  0.0668  0.3719
 3760SOL    HW114682   4.887   9.551   8.136 -0.3459 -1.7758 -0.0708
 3760SOL    HW214683   4.830   9.667   8.058  2.2858 -0.2626  0.1310
 3761SOL     OW14684   4.050   1.004   4.719  0.2680 -0.3749  0.3539
 3761SOL    HW114685   3.977   1.065   4.728  2.1999  1.9031  1.7392
 3761SOL    HW214686   4.098   1.036   4.642  0.4976 -1.0500  0.2138
 3762SOL     OW14687   9.645   8.275   0.908  0.3122 -0.6507  0.0486
 3762SOL    HW114688   9.652   8.180   0.908  0.9956 -0.6104 -0.7205
 3762SOL    HW214689   9.611   8.297   0.995 -0.8363 -1.6586 -0.1249
 3763SOL     OW14690   9.411   2.791   8.078  0.6039 -0.4796  0.1820
 3763SOL    HW114691   9.476   2.784   8.148  0.3386  1.4502  0.6708
 3763SOL    HW214692   9.329   2.813   8.124  0.2584  0.0655 -0.6787
 3764SOL     OW14693   3.497   1.655   9.304  0.7256  0.3861  0.1872
 3764SOL    HW114694   3.422   1.599   9.324  0.8519 -0.3030 -1.1581
 3764SOL    HW214695   3.490   1.672   9.210  2.6057 -0.2577 -0.1171
 3765SOL     OW14696   9.339   1.759   9.255 -0.0496  0.7121  0.0689
 3765SOL    HW114697   9.282   1.757   9.178  2.0740 -0.1648 -1.5822
 3765SOL    HW214698   9.394   1.836   9.241  0.4766  0.4422  0.6287
 3766SOL     OW14699   2.669   9.976   5.631  0.5194 -0.1216  0.3701
 3766SOL    HW114700   2.699   9.930   5.552 -0.3537  0.1918 -0.1718
 3766SOL    HW214701   2.707  10.063   5.624 -0.4568  0.2725 -0.3111
 3767SOL     OW14702   7.602   1.259   2.348  0.1914  0.5134  0.2014
 3767SOL    HW114703   7.604   1.354   2.365 -0.4280  0.1936  2.4310
 3767SOL    HW214704   7.510   1.240   2.331  0.2798  0.2880 -0.0195
 3768SOL     OW14705   0.241   0.679   0.303  0.2480 -0.1565  0.4623
 3768SOL    HW114706   0.223   0.759   0.352  0.4515  0.4520 -0.4233
 3768SOL    HW214707   0.230   0.704   0.211 -0.0297 -1.2406  0.1861
 3769SOL     OW14708   6.122   8.052  10.706  0.1383  0.4787 -0.6120
 3769SOL    HW114709   6.052   8.000  10.667 -0.4542  1.9780 -1.6563
 3769SOL    HW214710   6.130   8.018  10.795 -0.4227 -1.1524 -1.1420
 3770SOL     OW14711   0.947   9.563   4.821 -0.1133 -0.2453 -0.2831
 3770SOL    HW114712   0.878   9.578   4.886  0.6650  0.8335  0.3314
 3770SOL    HW214713   0.983   9.650   4.804  0.8625 -0.7413 -0.8397
 3771SOL     OW14714   9.669  10.345   0.845 -0.0264 -1.2147 -0.2210
 3771SOL    HW114715   9.713  10.360   0.929 -2.9048 -1.7787  1.5368
 3771SOL    HW214716   9.699  10.259   0.816 -0.5154 -1.9435  1.3380
 3772SOL     OW14717   0.103   1.310   8.659  0.1430 -0.6350  0.1591
 3772SOL    HW114718   0.070   1.319   8.748  0.7083  1.2060  0.2289
 3772SOL    HW214719   0.198   1.317   8.667  0.2281 -0.8776 -0.5493
 3773SOL     OW14720   0.703   4.606   6.176 -0.0615 -0.4534 -0.0511
 3773SOL    HW114721   0.695   4.676   6.242 -0.8015 -0.9246  0.3651
 3773SOL    HW214722   0.780   4.631   6.125  1.0324 -0.4871  1.5081
 3774SOL     OW14723   0.929   6.348   5.835 -0.3329  0.1546  0.2271
 3774SOL    HW114724   0.987   6.419   5.862 -0.8157  0.6729 -0.0822
 3774SOL    HW214725   0.862   6.390   5.782 -1.1646 -0.3821  0.8133
 3775SOL     OW14726   2.860   8.359  10.784  0.4154 -0.2739  1.0733
 3775SOL    HW114727   2.850   8.339  10.691 -1.8234  0.1909  1.1519
 3775SOL    HW214728   2.939   8.414  10.788 -1.2809  2.5934 -1.0879
 3776SOL     OW14729   9.274   9.220   1.264 -0.2378 -0.5856 -0.0081
 3776SOL    HW114730   9.360   9.241   1.227 -0.4398  1.9203  0.7043
 3776SOL    HW214731   9.212   9.270   1.211 -1.2599 -2.0719 -0.2799
 3777SOL     OW14732   4.702   1.795   1.542  0.2937 -0.4963  0.2465
 3777SOL    HW114733   4.618   1.756   1.567  0.3612 -0.5024  0.4673
 3777SOL    HW214734   4.683   1.888   1.530 -0.1284 -0.7764 -1.4693
 3778SOL     OW14735   6.313   6.870   4.855  0.0102  0.5061 -0.5091
 3778SOL    HW114736   6.312   6.778   4.882  0.2090  0.6306 -0.0664
 3778SOL    HW214737   6.357   6.869   4.770  0.9719  0.3013 -0.0323
 3779SOL     OW14738   3.209   2.975   7.092  0.2817 -0.2566 -0.5298
 3779SOL    HW114739   3.226   3.069   7.094  1.6491 -0.4947  0.2536
 3779SOL    HW214740   3.273   2.941   7.029  1.1135 -0.8858  0.6229
 3780SOL     OW14741   8.520   8.446   5.074  0.3977  0.1800  0.1466
 3780SOL    HW114742   8.458   8.373   5.082 -1.0426  1.1501 -1.4365
 3780SOL    HW214743   8.469   8.523   5.101  2.0870  0.6020  2.4579
 3781SOL     OW14744   8.917  10.220   5.426  0.0582 -0.2297  0.6259
 3781SOL    HW114745   8.861  10.146   5.450  0.2365 -0.5084  0.1924
 3781SOL    HW214746   8.936  10.263   5.509 -0.5825 -0.2847  0.8132
 3782SOL     OW14747  10.526   6.170   0.161 -0.1793 -0.4805  0.6309
 3782SOL    HW114748  10.453   6.117   0.127 -1.1740 -0.5772  2.7559
 3782SOL    HW214749  10.588   6.106   0.196 -0.4880 -0.3342  1.4787
 3783SOL     OW14750   4.327   8.374   0.322  0.0186  0.6525  0.1937
 3783SOL    HW114751   4.408   8.389   0.272  0.6274 -0.7843  0.7206
 3783SOL    HW214752   4.348   8.404   0.410  0.7080 -1.5694  0.8507
 3784SOL     OW14753   4.767   1.638   8.810  0.1813  0.2583 -0.4843
 3784SOL    HW114754   4.847   1.651   8.862  0.0763 -0.1602 -0.2124
 3784SOL    HW214755   4.782   1.554   8.766 -0.6463 -0.4723  0.5761
 3785SOL     OW14756  10.346   1.699   6.369  0.4630  0.2879 -0.0002
 3785SOL    HW114757  10.267   1.703   6.315 -0.1159  1.7271  0.8842
 3785SOL    HW214758  10.377   1.609   6.361  0.5263  0.4795 -2.8671
 3786SOL     OW14759   9.066   2.454   4.927 -0.2406  0.3124  0.1718
 3786SOL    HW114760   9.140   2.476   4.871 -0.5143 -0.5116 -0.5425
 3786SOL    HW214761   8.992   2.500   4.888 -0.2106  0.7013  0.5679
 3787SOL     OW14762   9.369   5.174   2.148 -0.3459  0.6367 -0.0197
 3787SOL    HW114763   9.407   5.145   2.231 -0.1889  0.6957 -0.0705
 3787SOL    HW214764   9.336   5.093   2.107 -0.0782  0.5555 -0.0747
 3788SOL     OW14765   8.140   3.200   5.316  0.2519 -0.0293  0.3135
 3788SOL    HW114766   8.121   3.112   5.347  1.3376 -0.0850  0.8791
 3788SOL    HW214767   8.198   3.188   5.241 -2.7808  0.0853 -2.2347
 3789SOL     OW14768   3.385   0.679   9.086  0.5774  0.2706 -0.4248
 3789SOL    HW114769   3.332   0.706   9.162  1.7043  0.6590  0.2567
 3789SOL    HW214770   3.327   0.623   9.035  0.1050 -0.8589  1.2617
 3790SOL     OW14771  10.542   9.414   5.253  0.0911  0.2531  0.2492
 3790SOL    HW114772  10.457   9.426   5.295  0.0534  0.5290  0.0896
 3790SOL    HW214773  10.605   9.443   5.319 -0.0120  1.7179 -0.2750
 3791SOL     OW14774   4.434  10.849   7.844 -0.0576  0.1518 -0.3399
 3791SOL    HW114775   4.385  10.927   7.819 -0.8564  0.2813  1.4747
 3791SOL    HW214776   4.368  10.782   7.857  0.5303 -0.5363 -0.8365
 3792SOL     OW14777   6.816   0.398   4.466  0.5392  0.3159 -0.5332
 3792SOL    HW114778   6.803   0.305   4.446  0.3743  0.7378 -2.6168
 3792SOL    HW214779   6.910   0.411   4.460  0.4147  0.6399 -2.1604
 3793SOL     OW14780   9.627   0.154   9.395 -0.1501  0.2725  0.5781
 3793SOL    HW114781   9.536   0.183   9.390 -0.8515 -1.3295  2.7161
 3793SOL    HW214782   9.640   0.104   9.314 -1.2880  0.2044  0.4245
 3794SOL     OW14783   0.570   7.374   6.833 -0.3892 -0.6075  0.0653
 3794SOL    HW114784   0.564   7.469   6.847  3.5749 -0.1996  0.1390
 3794SOL    HW214785   0.555   7.363   6.739  0.4080  0.2969 -0.1805
 3795SOL     OW14786   2.180   2.661   2.794  0.0795  0.1194 -0.4077
 3795SOL    HW114787   2.133   2.658   2.878 -0.3449  1.5921 -0.5653
 3795SOL    HW214788   2.242   2.588   2.799 -1.2355 -1.0049  0.4004
 3796SOL     OW14789   2.102  10.712  10.121  0.9013 -0.1522 -0.1953
 3796SOL    HW114790   2.172  10.740  10.062  1.6653 -0.7324  0.4025
 3796SOL    HW214791   2.139  10.636  10.166  0.6599  0.7243  1.5866
 3797SOL     OW14792  10.534   4.239   2.753 -0.2593  0.5191  0.3126
 3797SOL    HW114793  10.472   4.297   2.710 -1.0489  0.1489  0.9126
 3797SOL    HW214794  10.616   4.251   2.706 -1.1121  0.0149 -1.3926
 3798SOL     OW14795   3.721   4.735  10.703 -0.1114  0.1832  0.2191
 3798SOL    HW114796   3.723   4.643  10.676 -4.8213 -0.7902  2.2069
 3798SOL    HW214797   3.669   4.779  10.635  0.1086  0.8756  0.4851
 3799SOL     OW14798   5.903   3.198   9.195 -0.2543  0.4710 -0.0175
 3799SOL    HW114799   5.820   3.244   9.201 -0.7998 -0.5635  0.7509
 3799SOL    HW214800   5.902   3.158   9.108 -0.8612 -0.0658  0.2272
 3800SOL     OW14801   8.294   6.300   4.758 -0.5749  0.2697  0.2273
 3800SOL    HW114802   8.220   6.249   4.791  0.4520 -0.8736  0.8884
 3800SOL    HW214803   8.355   6.233   4.725  0.6943  1.0916  0.8451
 3801SOL     OW14804   4.647   4.361  10.869 -0.9381 -0.1809  0.2557
 3801SOL    HW114805   4.674   4.322  10.786 -0.6707  1.9626 -0.7218
 3801SOL    HW214806   4.730   4.381  10.914 -1.0461  0.1829  0.2934
 3802SOL     OW14807   9.630   5.534   7.616 -0.4032  0.7366  0.0974
 3802SOL    HW114808   9.710   5.519   7.566 -0.3127 -1.2705  0.7676
 3802SOL    HW214809   9.626   5.630   7.627  2.1666  0.8679  0.4753
 3803SOL     OW14810  10.570   2.017   8.229 -0.3518 -0.2915  0.2494
 3803SOL    HW114811  10.555   2.105   8.195 -0.9564 -1.1456 -1.8025
 3803SOL    HW214812  10.549   2.024   8.323 -0.2527  1.7560  0.1599
 3804SOL     OW14813  10.889   9.110   4.844  0.0908 -0.7890  0.5343
 3804SOL    HW114814  10.969   9.060   4.833  0.9818  0.5488  0.7475
 3804SOL    HW214815  10.879   9.120   4.939  1.9442  2.4693  0.5235
 3805SOL     OW14816   1.702   1.924   0.115 -0.1177  0.0939 -0.2772
 3805SOL    HW114817   1.782   1.903   0.067 -1.2665 -0.0261 -2.2451
 3805SOL    HW214818   1.631   1.894   0.058 -1.5845  0.3580  1.3289
 3806SOL     OW14819   0.135   0.724   8.900  0.3492 -0.1193 -0.1381
 3806SOL    HW114820   0.105   0.815   8.897  0.7161  0.0705  1.1782
 3806SOL    HW214821   0.055   0.672   8.896  0.1673  0.2305 -1.4195
 3807SOL     OW14822   9.515   2.098   5.528 -0.2631 -0.0170 -0.1610
 3807SOL    HW114823   9.582   2.159   5.559  2.5623 -0.9380 -3.6513
 3807SOL    HW214824   9.523   2.022   5.586 -0.4592  1.0507  1.3016
 3808SOL     OW14825   8.383   8.085   1.898 -0.2056 -0.3457 -0.5626
 3808SOL    HW114826   8.333   8.151   1.946  1.5800  0.0645  0.8684
 3808SOL    HW214827   8.352   8.001   1.932  2.5573 -0.0709  3.2498
 3809SOL     OW14828   6.425   4.144   3.828 -0.2492  0.0351 -0.2612
 3809SOL    HW114829   6.444   4.238   3.834 -0.4486  0.0301  0.5735
 3809SOL    HW214830   6.341   4.133   3.873 -0.2020 -0.5485 -0.3036
 3810SOL     OW14831   8.292   2.675  10.808  0.1323  0.2261 -0.6115
 3810SOL    HW114832   8.208   2.629  10.807  0.2120  0.0809 -0.6550
 3810SOL    HW214833   8.283   2.742  10.740 -0.2446  0.7465 -0.0523
 3811SOL     OW14834   2.849   2.650  10.668  0.6265  0.9807  0.3554
 3811SOL    HW114835   2.815   2.562  10.683 -0.9559  1.5168  0.0907
 3811SOL    HW214836   2.934   2.651  10.712 -0.1027 -0.1237  1.8679
 3812SOL     OW14837   9.711   4.861   2.885 -0.6102 -0.0146 -0.1750
 3812SOL    HW114838   9.622   4.827   2.879 -0.7178  0.3165 -0.4854
 3812SOL    HW214839   9.767   4.789   2.858 -0.8643  0.2083 -1.3169
 3813SOL     OW14840   1.189   4.930   4.611  0.0336  0.3291  0.3351
 3813SOL    HW114841   1.138   5.011   4.612 -0.2497  0.1488  1.7082
 3813SOL    HW214842   1.279   4.958   4.622 -0.1654  0.4158  1.9704
 3814SOL     OW14843   6.974   1.579   2.602 -0.5325 -0.0819  0.3518
 3814SOL    HW114844   7.038   1.509   2.614  1.4395  1.1334 -2.0059
 3814SOL    HW214845   7.010   1.654   2.650 -0.2664  0.5400 -0.7779
 3815SOL     OW14846   2.971   9.347   8.027  0.5106  0.2383  0.1288
 3815SOL    HW114847   3.059   9.361   7.992  1.5178 -0.2966  2.3106
 3815SOL    HW214848   2.976   9.377   8.118 -1.4777 -0.1093  0.3984
 3816SOL     OW14849   9.260   8.825   9.935 -0.0854 -0.1329  0.7595
 3816SOL    HW114850   9.295   8.738   9.915  0.4981  0.1101  0.7127
 3816SOL    HW214851   9.335   8.876   9.964 -0.1710  0.7289 -0.4343
 3817SOL     OW14852   7.696   5.828   8.516 -0.0553  0.2220 -0.2747
 3817SOL    HW114853   7.769   5.780   8.557  0.2813  0.2181 -0.8722
 3817SOL    HW214854   7.618   5.779   8.541  0.1833 -0.0004  0.0415
 3818SOL     OW14855   7.291   7.940   0.144  0.5606 -0.0337 -0.1980
 3818SOL    HW114856   7.211   7.958   0.095  1.6037  1.9043 -1.2861
 3818SOL    HW214857   7.351   7.901   0.080  0.7879 -0.7141  0.4104
 3819SOL     OW14858   6.772   2.065   9.103 -0.3680  0.5444 -0.3251
 3819SOL    HW114859   6.846   2.010   9.128  0.2843  0.9866 -1.1999
 3819SOL    HW214860   6.724   2.080   9.184 -0.3849 -1.0388 -0.0228
 3820SOL     OW14861   1.589   7.181   9.796  0.6760  0.6758  0.2011
 3820SOL    HW114862   1.498   7.209   9.788  0.5331  0.0480 -0.4296
 3820SOL    HW214863   1.634   7.257   9.833  0.2083  1.5642 -1.0094
 3821SOL     OW14864   9.024   7.619   8.145 -0.2278  0.5407 -0.4487
 3821SOL    HW114865   8.989   7.572   8.070 -1.8662  1.0002 -0.0162
 3821SOL    HW214866   8.984   7.706   8.139  0.0689  0.7660  0.6397
 3822SOL     OW14867   6.346   3.560  10.513  0.2039 -0.2197 -0.5079
 3822SOL    HW114868   6.388   3.631  10.563 -0.6228 -0.1778  0.1639
 3822SOL    HW214869   6.262   3.597  10.487 -0.6031 -1.2267  0.5739
 3823SOL     OW14870   5.247   8.164   4.419  0.7050  0.4326 -0.1762
 3823SOL    HW114871   5.329   8.126   4.448 -0.0362 -1.6924 -0.7063
 3823SOL    HW214872   5.262   8.188   4.327  1.3180  1.9286  0.2911
 3824SOL     OW14873   0.695   0.322   1.615 -0.0916 -0.3671 -0.7525
 3824SOL    HW114874   0.739   0.335   1.699 -0.9694 -1.4399 -0.1057
 3824SOL    HW214875   0.702   0.407   1.571  0.4411  0.1890  0.3719
 3825SOL     OW14876   4.971   2.600   2.367 -0.0023 -0.4043  0.4685
 3825SOL    HW114877   4.896   2.657   2.349  0.8699  0.0521 -2.1407
 3825SOL    HW214878   5.041   2.635   2.312  1.2396 -2.6318  0.5429
 3826SOL     OW14879   3.032   1.599   8.650  0.3383  0.3765  0.1087
 3826SOL    HW114880   3.019   1.522   8.705 -0.5926  0.2082 -0.3280
 3826SOL    HW214881   2.962   1.594   8.585  1.3131  0.6561 -0.9968
 3827SOL     OW14882   4.386   3.095   5.564 -0.9157 -0.0320 -0.2983
 3827SOL    HW114883   4.366   3.020   5.508 -1.0048 -0.1594 -0.0969
 3827SOL    HW214884   4.413   3.056   5.647  2.0069  0.0523 -1.1112
 3828SOL     OW14885   8.096   1.025   7.856  0.4199  0.2990 -0.3875
 3828SOL    HW114886   8.112   0.936   7.887  1.8218  0.2269 -1.2478
 3828SOL    HW214887   8.046   1.015   7.775  2.1301  0.1737 -1.4680
 3829SOL     OW14888  10.218   4.936   0.583 -0.4089 -0.2025  0.2628
 3829SOL    HW114889  10.194   4.922   0.491 -0.9229 -2.7113  0.7322
 3829SOL    HW214890  10.147   4.897   0.633  1.8392 -2.7593  1.6989
 3830SOL     OW14891   6.315   6.493   2.503  0.0939 -0.0371 -0.8417
 3830SOL    HW114892   6.402   6.531   2.486  1.1557 -2.2597 -0.7201
 3830SOL    HW214893   6.333   6.404   2.533 -2.1966 -0.0960  0.6071
 3831SOL     OW14894   8.062   9.353   6.020 -0.6589  0.5679 -0.0454
 3831SOL    HW114895   8.021   9.436   5.996  2.2318  1.8479 -1.1047
 3831SOL    HW214896   8.138   9.346   5.962  1.8467 -0.5135  3.0225
 3832SOL     OW14897   9.275   1.898   1.886 -0.0478 -0.4967  0.1813
 3832SOL    HW114898   9.229   1.822   1.850  0.6958 -1.3211  0.9302
 3832SOL    HW214899   9.281   1.880   1.980  0.3284  0.3876  0.3323
 3833SOL     OW14900   0.579   7.113   8.582  0.1270  0.1062  0.4946
 3833SOL    HW114901   0.552   7.172   8.653  1.7374  0.1772  1.0881
 3833SOL    HW214902   0.506   7.115   8.520  0.3706  3.2226  0.1499
 3834SOL     OW14903   4.200   5.071   7.488 -0.0599  0.0791 -0.0833
 3834SOL    HW114904   4.223   5.066   7.580  0.1171 -0.0194 -0.1329
 3834SOL    HW214905   4.214   5.163   7.464 -1.8278  0.5210  0.4375
 3835SOL     OW14906   8.776   8.550   8.376 -0.4432 -0.0086 -0.2306
 3835SOL    HW114907   8.700   8.524   8.323 -1.7078  1.5992  0.6837
 3835SOL    HW214908   8.754   8.522   8.464  0.7996 -0.9777 -0.2059
 3836SOL     OW14909   2.669   8.697   5.803  0.2854 -0.0678  0.1016
 3836SOL    HW114910   2.678   8.788   5.773 -0.9635 -0.0092 -0.1718
 3836SOL    HW214911   2.681   8.645   5.724 -0.7548 -0.0318 -0.0960
 3837SOL     OW14912   3.179   8.023   7.019  0.5424  0.1238  0.1312
 3837SOL    HW114913   3.215   7.949   7.070  1.9428  0.6958  0.0207
 3837SOL    HW214914   3.084   8.010   7.021  0.7893 -2.7380 -1.4524
 3838SOL     OW14915   4.846   2.872   6.078  0.1625 -0.3219 -0.5123
 3838SOL    HW114916   4.787   2.935   6.036  2.0339  0.7991 -1.5744
 3838SOL    HW214917   4.868   2.810   6.008 -0.4470 -1.2772  0.1224
 3839SOL     OW14918   7.809   5.688   5.064  0.4620 -0.8760  0.3802
 3839SOL    HW114919   7.726   5.675   5.109  0.2471 -0.8348 -0.0010
 3839SOL    HW214920   7.850   5.602   5.062  0.4922 -0.8687  0.6917
 3840SOL     OW14921  10.312   9.341   4.627  0.5198  0.3378 -0.5148
 3840SOL    HW114922  10.399   9.303   4.642  0.8617  1.1609 -0.3407
 3840SOL    HW214923  10.325   9.435   4.637 -0.2778  0.5199 -1.0701
 3841SOL     OW14924  10.279   7.788   1.587  0.0136  0.1625 -0.0431
 3841SOL    HW114925  10.240   7.800   1.501 -0.6065  1.3216  0.3634
 3841SOL    HW214926  10.310   7.876   1.611  1.5327 -0.4329  0.2900
 3842SOL     OW14927   9.897   4.983   2.694 -0.8269  0.2217  0.2999
 3842SOL    HW114928   9.815   4.944   2.725  0.8840 -2.0031  2.4005
 3842SOL    HW214929   9.941   5.013   2.774  1.2841 -0.5041 -0.5353
 3843SOL     OW14930   9.022   5.764   6.224  0.1883 -0.1745 -0.2260
 3843SOL    HW114931   8.974   5.691   6.265 -1.8068 -0.3316 -2.6624
 3843SOL    HW214932   9.059   5.727   6.144  0.1741  1.1918 -0.8948
 3844SOL     OW14933   4.478   3.306  10.639 -0.2245 -0.1338 -0.0530
 3844SOL    HW114934   4.385   3.286  10.648 -0.6022  1.5922  0.2847
 3844SOL    HW214935   4.480   3.386  10.585  1.0729 -0.2733 -0.2489
 3845SOL     OW14936   4.000   7.479   5.802 -0.2179  0.0791 -0.0580
 3845SOL    HW114937   3.913   7.493   5.765 -0.0537 -0.2242 -0.5826
 3845SOL    HW214938   4.009   7.384   5.807 -0.2654  0.1186  0.8524
 3846SOL     OW14939   1.953   0.757   7.510  0.1584 -0.4164  0.4521
 3846SOL    HW114940   1.914   0.806   7.581 -0.3276  0.4067 -0.3636
 3846SOL    HW214941   2.044   0.746   7.535 -0.2789 -1.2125  1.7634
 3847SOL     OW14942   5.929   3.903  10.389 -0.2914  0.2498 -0.0349
 3847SOL    HW114943   5.905   3.986  10.347  0.4379  1.2946  1.5184
 3847SOL    HW214944   5.847   3.855  10.396 -1.0548  1.5733  0.5523
 3848SOL     OW14945   0.980   5.161   7.020  0.4215 -0.1360  0.8723
 3848SOL    HW114946   0.903   5.111   7.046  0.6557 -0.7559  0.3725
 3848SOL    HW214947   1.054   5.107   7.047  0.6750 -0.5228 -0.5633
 3849SOL     OW14948   1.177   4.059   3.259  0.6057  0.1018 -0.1944
 3849SOL    HW114949   1.151   4.131   3.316  0.9700 -0.2133  0.3774
 3849SOL    HW214950   1.095   4.022   3.227  0.3533 -0.3991  0.9869
 3850SOL     OW14951   1.163   5.689   4.585  0.3818  0.3031 -0.5632
 3850SOL    HW114952   1.069   5.699   4.595  0.4212  1.1964 -1.0363
 3850SOL    HW214953   1.197   5.697   4.674 -0.0844 -1.4254 -0.1837
 3851SOL     OW14954   0.366   7.824   0.424  0.2034 -0.3598  0.0236
 3851SOL    HW114955   0.287   7.794   0.379  0.1272  0.4710 -0.4219
 3851SOL    HW214956   0.410   7.744   0.451 -0.5330 -0.8448 -0.1730
 3852SOL     OW14957   1.181   5.311   1.587  0.2806 -0.5817 -0.2751
 3852SOL    HW114958   1.233   5.232   1.568  0.6964  0.2305 -2.9222
 3852SOL    HW214959   1.245   5.378   1.609  0.2793 -0.0090 -1.9053
 3853SOL     OW14960   4.669   2.743   2.570 -0.0971  0.1206  0.4242
 3853SOL    HW114961   4.608   2.672   2.591 -0.1783 -0.4687 -1.5689
 3853SOL    HW214962   4.615   2.821   2.565 -0.7183 -0.3612 -1.1208
 3854SOL     OW14963   3.818   3.790  10.338  0.6031 -0.7387  0.1329
 3854SOL    HW114964   3.908   3.763  10.359  1.4434 -0.7441 -2.9401
 3854SOL    HW214965   3.788   3.724  10.275 -2.0203 -1.3285  1.8445
 3855SOL     OW14966   2.417   0.252   9.566 -0.2555 -0.1829 -0.2034
 3855SOL    HW114967   2.324   0.241   9.584 -0.0942 -2.3600 -0.4034
 3855SOL    HW214968   2.439   0.179   9.509  1.6861  0.0022  0.2360
 3856SOL     OW14969   0.500   6.253   5.690 -0.1142  0.7247  0.0565
 3856SOL    HW114970   0.471   6.202   5.766 -2.0370  1.5702 -0.0621
 3856SOL    HW214971   0.526   6.187   5.626  0.8555 -0.0101  1.1589
 3857SOL     OW14972   0.274   4.677   4.951 -0.3147 -0.3351 -0.2307
 3857SOL    HW114973   0.337   4.700   4.883  1.0072 -2.2090  0.2993
 3857SOL    HW214974   0.237   4.761   4.977  0.7725  0.6615 -1.6828
 3858SOL     OW14975   3.795   8.822   2.904 -0.0747 -0.1097 -0.4321
 3858SOL    HW114976   3.776   8.767   2.979  2.1254  1.7290  1.6470
 3858SOL    HW214977   3.747   8.903   2.922 -1.1636 -0.3424 -2.1035
 3859SOL     OW14978   1.408   4.535   4.698  0.7430  0.4144 -0.4159
 3859SOL    HW114979   1.436   4.563   4.611  0.2399 -0.6123 -0.9104
 3859SOL    HW214980   1.322   4.496   4.685 -0.9169  3.2109  1.0424
 3860SOL     OW14981   3.341   8.895   2.656  0.5431  0.6246 -0.5663
 3860SOL    HW114982   3.255   8.930   2.631  0.3638 -0.1256 -1.0168
 3860SOL    HW214983   3.401   8.933   2.592  0.4273  0.5188 -0.7401
 3861SOL     OW14984   3.537   9.124  10.857  0.4940  0.4465  0.7527
 3861SOL    HW114985   3.523   9.218  10.853 -0.5024  0.3443  1.5467
 3861SOL    HW214986   3.586   9.110  10.938  0.5556  0.2709  0.6856
 3862SOL     OW14987   4.038   0.622   0.838 -0.8354 -0.0561  0.0277
 3862SOL    HW114988   4.125   0.611   0.799 -0.7111 -0.8168  0.5032
 3862SOL    HW214989   4.003   0.533   0.845 -0.1684 -0.1913  3.1947
 3863SOL     OW14990   6.867   3.050   3.277 -0.0403 -0.1475 -0.2446
 3863SOL    HW114991   6.843   2.958   3.272  1.6812 -0.7928  1.8304
 3863SOL    HW214992   6.939   3.053   3.341  0.8775  2.4560 -1.2650
 3864SOL     OW14993   9.494   1.549   4.583  0.0420 -0.3166 -0.1139
 3864SOL    HW114994   9.432   1.507   4.643 -1.2302  0.0772 -1.1033
 3864SOL    HW214995   9.475   1.643   4.591  0.8680 -0.1474 -0.0562
 3865SOL     OW14996   1.220  10.567   4.311  1.0607 -0.4809 -0.2303
 3865SOL    HW114997   1.311  10.551   4.337  1.6384  1.8080 -0.6012
 3865SOL    HW214998   1.225  10.644   4.254 -1.0441 -0.7947 -0.9195
 3866SOL     OW14999   5.761   2.361   6.669 -0.1396 -0.0282 -0.4667
 3866SOL    HW115000   5.821   2.405   6.730  0.1258 -0.8772 -0.1075
 3866SOL    HW215001   5.818   2.330   6.598 -0.2203 -0.3997 -0.3712
 3867SOL     OW15002   5.237   9.577   1.125 -0.0400  0.1649 -0.4447
 3867SOL    HW115003   5.171   9.543   1.063 -0.1934 -0.6703  0.1490
 3867SOL    HW215004   5.201   9.660   1.155 -0.2565  0.2850 -1.0197
 3868SOL     OW15005   7.951   3.878   9.444 -0.3179 -0.0507 -0.1858
 3868SOL    HW115006   7.976   3.892   9.353 -1.1752  2.0903 -0.1578
 3868SOL    HW215007   7.989   3.793   9.467 -0.4127 -0.8263 -2.6267
 3869SOL     OW15008   6.571   7.174   9.653 -0.0098  0.0957 -0.0632
 3869SOL    HW115009   6.597   7.173   9.561  0.5347 -0.6460  0.0909
 3869SOL    HW215010   6.504   7.106   9.660 -0.5755  0.6433 -0.0493
 3870SOL     OW15011   0.594  10.545   7.137 -0.1098 -0.4064  0.2491
 3870SOL    HW115012   0.602  10.450   7.139  0.7278 -0.4249 -1.7110
 3870SOL    HW215013   0.503  10.561   7.114 -0.1931 -0.7227  0.3514
 3871SOL     OW15014   1.776   4.385   6.330 -0.3726  0.3095  0.1889
 3871SOL    HW115015   1.692   4.362   6.369 -0.9288 -1.0235 -1.6265
 3871SOL    HW215016   1.763   4.473   6.295 -1.3600 -0.2410 -0.8957
 3872SOL     OW15017   0.758   7.535   2.882  0.4486 -0.5121 -0.0478
 3872SOL    HW115018   0.712   7.451   2.887  0.0031 -0.5339 -2.7198
 3872SOL    HW215019   0.846   7.515   2.913  0.0670 -1.7341  0.3218
 3873SOL     OW15020   3.140   0.007   0.700 -0.3308 -0.2004 -0.1505
 3873SOL    HW115021   3.138   0.102   0.700  0.6503 -0.1688 -0.0854
 3873SOL    HW215022   3.233  -0.015   0.696 -0.3923 -1.1267  2.0013
 3874SOL     OW15023   8.794   4.679   0.996 -0.1763 -0.2274  0.0467
 3874SOL    HW115024   8.754   4.669   1.082 -0.1841  1.4540  0.2606
 3874SOL    HW215025   8.727   4.722   0.943  0.7299  1.1114 -0.0507
 3875SOL     OW15026   6.452   7.058   2.151  0.0409 -0.5943 -0.3826
 3875SOL    HW115027   6.479   7.015   2.070 -0.7709 -0.8516 -0.5270
 3875SOL    HW215028   6.466   6.993   2.220 -0.9020 -1.0036 -0.5598
 3876SOL     OW15029   0.053   4.215   6.331  0.3039 -0.0049  0.3786
 3876SOL    HW115030   0.089   4.243   6.247  0.7369 -0.1109  0.5304
 3876SOL    HW215031   0.015   4.294   6.369 -1.9400 -0.3575 -0.9248
 3877SOL     OW15032   5.814   8.554   0.962  0.4669  0.0710 -0.4646
 3877SOL    HW115033   5.784   8.605   0.886 -1.6947 -0.7816 -0.2733
 3877SOL    HW215034   5.844   8.620   1.025 -0.9843  1.0600 -0.7388
 3878SOL     OW15035   9.901   4.990   8.876  0.0061 -0.5350 -0.0783
 3878SOL    HW115036   9.818   4.943   8.883 -0.0386 -0.7974 -1.9458
 3878SOL    HW215037   9.878   5.082   8.891 -0.3932 -0.7547  0.6877
 3879SOL     OW15038   7.723   8.872  10.111 -0.2740 -0.4071 -0.3073
 3879SOL    HW115039   7.675   8.791  10.131 -0.5605 -0.0833  0.3539
 3879SOL    HW215040   7.761   8.898  10.195 -0.7016  0.4731 -0.3740
 3880SOL     OW15041   7.240   3.002   3.770  0.2487  0.6917  0.0063
 3880SOL    HW115042   7.278   3.052   3.698 -1.5022  0.8110 -0.9013
 3880SOL    HW215043   7.145   3.012   3.758 -0.1758  2.7614  3.7638
 3881SOL     OW15044   0.743   9.179   1.621  0.1933 -0.3204  0.5592
 3881SOL    HW115045   0.648   9.188   1.612  0.0912 -1.5062  0.2264
 3881SOL    HW215046   0.755   9.134   1.704  0.5312  0.7029  1.0776
 3882SOL     OW15047   8.161   7.053   4.409  0.0476  0.1236  0.0612
 3882SOL    HW115048   8.078   7.100   4.400  0.4821  1.3147  1.8178
 3882SOL    HW215049   8.216   7.087   4.338 -0.2510  0.9359  0.2097
 3883SOL     OW15050   3.968   9.906   7.390  0.0953 -0.0766  0.0489
 3883SOL    HW115051   4.060   9.923   7.373  0.4037  0.4935  2.0204
 3883SOL    HW215052   3.930   9.991   7.411 -0.4841 -0.5311  0.9137
 3884SOL     OW15053   0.861   5.214   0.176 -0.4025 -0.1675  0.0913
 3884SOL    HW115054   0.925   5.259   0.122 -0.0677  0.0546  0.6645
 3884SOL    HW215055   0.871   5.121   0.154 -0.2837 -0.0756 -0.2359
 3885SOL     OW15056   0.339   6.571   0.212 -0.2110 -0.8372 -0.5332
 3885SOL    HW115057   0.402   6.633   0.174  1.5428 -0.5393  2.5436
 3885SOL    HW215058   0.263   6.625   0.234 -0.4663 -0.6629 -1.7765
 3886SOL     OW15059   9.819  10.157   8.781  0.4403 -0.4247 -0.4094
 3886SOL    HW115060   9.730  10.193   8.780  0.9914  1.0318  0.1076
 3886SOL    HW215061   9.824  10.103   8.702 -0.2435  1.1907 -1.6136
 3887SOL     OW15062   5.187   4.138   9.194  0.4392  0.1449  0.5493
 3887SOL    HW115063   5.239   4.058   9.192  1.0188  0.4673  2.0269
 3887SOL    HW215064   5.151   4.145   9.105  2.8085 -0.1513 -0.5179
 3888SOL     OW15065  10.021   8.388   0.606  0.6927 -0.4615 -0.1376
 3888SOL    HW115066  10.104   8.415   0.645  1.4982 -0.7376 -1.5939
 3888SOL    HW215067  10.038   8.300   0.572 -0.5425 -0.9813  0.5141
 3889SOL     OW15068   5.714   4.604   3.125 -0.0123  0.6395 -0.0251
 3889SOL    HW115069   5.631   4.607   3.077 -0.6344 -1.3808  0.8174
 3889SOL    HW215070   5.690   4.616   3.216  0.7701  1.1012  0.1304
 3890SOL     OW15071  10.784   9.548   0.056  0.0963  0.0122  0.6986
 3890SOL    HW115072  10.828   9.497   0.123  1.7939  0.9108  0.3184
 3890SOL    HW215073  10.854   9.579  -0.001 -1.1962  0.1181 -0.9157
 3891SOL     OW15074   2.224   0.322   6.746 -0.1423 -0.0017 -0.4055
 3891SOL    HW115075   2.282   0.270   6.801 -2.7139 -1.6398  0.9982
 3891SOL    HW215076   2.216   0.405   6.791 -0.3435 -0.4710  0.4525
 3892SOL     OW15077   2.566   0.216   3.814  0.7288  0.0001  0.0243
 3892SOL    HW115078   2.632   0.156   3.780  1.6486  1.2163 -0.4113
 3892SOL    HW215079   2.487   0.193   3.766  1.8036  1.1589 -2.4852
 3893SOL     OW15080   0.330   7.682   6.274  0.5947  0.2902 -0.6127
 3893SOL    HW115081   0.377   7.742   6.332  0.0799  0.0922  0.0171
 3893SOL    HW215082   0.372   7.598   6.288  0.3322  0.1986 -0.3567
 3894SOL     OW15083   1.516   0.404   1.532 -0.4516  0.3135 -0.5395
 3894SOL    HW115084   1.526   0.484   1.479  0.9516  0.5177 -0.0136
 3894SOL    HW215085   1.592   0.405   1.590 -2.2673  0.4442  1.9681
 3895SOL     OW15086  10.365   8.765  10.685  0.4894  0.1967 -0.5337
 3895SOL    HW115087  10.331   8.749  10.773  0.0159  2.6759 -0.1802
 3895SOL    HW215088  10.326   8.697  10.631 -0.4729 -0.4369  0.9106
 3896SOL     OW15089   5.349   9.363  10.664 -0.9758 -0.1387 -0.1861
 3896SOL    HW115090   5.325   9.291  10.722 -0.7643  0.8392  1.1631
 3896SOL    HW215091   5.361   9.438  10.722  1.3959  0.3905 -1.2441
 3897SOL     OW15092   8.150   8.313   8.167 -0.4061 -0.5322 -0.2562
 3897SOL    HW115093   8.181   8.222   8.169 -0.4957 -0.5680 -0.4501
 3897SOL    HW215094   8.205   8.355   8.101 -1.6124 -0.9079 -1.5324
 3898SOL     OW15095   7.103   0.820   1.291 -0.0524 -0.0927 -0.5743
 3898SOL    HW115096   7.181   0.814   1.235  0.3223  0.8851 -0.1742
 3898SOL    HW215097   7.046   0.749   1.260  1.2877 -1.2867 -0.4197
 3899SOL     OW15098   9.195   0.420   7.009 -0.3007  0.0930 -0.1791
 3899SOL    HW115099   9.180   0.373   7.090 -0.7674 -2.9601 -1.9013
 3899SOL    HW215100   9.116   0.472   6.995 -0.7831 -0.4211  0.6139
 3900SOL     OW15101   9.757   6.796   5.867 -0.0429  0.4272  0.5329
 3900SOL    HW115102   9.839   6.834   5.836  0.3701 -0.4120  0.5728
 3900SOL    HW215103   9.742   6.838   5.952  0.4331  0.4667  0.6002
 3901SOL     OW15104  10.113   6.747   4.577 -0.3187 -0.6369  0.3731
 3901SOL    HW115105  10.114   6.833   4.535 -0.2984 -1.3212 -1.0768
 3901SOL    HW215106  10.021   6.730   4.594 -0.3348 -0.3932  0.5380
 3902SOL     OW15107   4.654   8.555   0.680  0.3499 -0.2585 -0.0159
 3902SOL    HW115108   4.670   8.602   0.762 -0.9219 -0.7291  0.5166
 3902SOL    HW215109   4.662   8.462   0.703 -0.5090 -0.4130 -0.3007
 3903SOL     OW15110   8.004   0.855   3.399  0.0648  0.3529  0.7695
 3903SOL    HW115111   7.960   0.770   3.399 -0.4319  0.6013  0.2710
 3903SOL    HW215112   7.933   0.919   3.396  0.3152  0.7822 -4.0341
 3904SOL     OW15113   1.753   0.669   8.641  0.0786  0.0164 -0.2993
 3904SOL    HW115114   1.768   0.677   8.735 -0.5948 -2.3858  0.0899
 3904SOL    HW215115   1.675   0.614   8.635 -1.4014  2.1521 -2.2867
 3905SOL     OW15116   2.176   9.405   0.794 -0.3985  0.3658  0.0122
 3905SOL    HW115117   2.217   9.322   0.769  0.6501  0.1745  2.1305
 3905SOL    HW215118   2.158   9.449   0.711  1.3378 -0.8819 -1.0973
 3906SOL     OW15119   8.146   2.107   3.088  0.2396 -0.2567  0.7575
 3906SOL    HW115120   8.052   2.109   3.106  0.2233 -0.0787  0.6621
 3906SOL    HW215121   8.181   2.041   3.147  0.3336  0.9616  2.1221
 3907SOL     OW15122   9.950   1.907   5.646  0.0600  0.4278 -0.0837
 3907SOL    HW115123   9.856   1.895   5.662  0.2224  0.3736  0.8796
 3907SOL    HW215124   9.975   1.977   5.706  0.7178  0.1858 -0.0768
 3908SOL     OW15125   4.943   5.157   8.832  0.2212  0.1702 -0.3956
 3908SOL    HW115126   5.029   5.180   8.796  0.4270  1.7257  0.9537
 3908SOL    HW215127   4.889   5.234   8.816  0.4872  1.2337  2.9347
 3909SOL     OW15128   3.619   1.306   9.552  0.5895 -0.1110 -0.0985
 3909SOL    HW115129   3.565   1.332   9.626  1.7278  1.6118  0.1884
 3909SOL    HW215130   3.558   1.303   9.478 -0.5170 -1.6615  0.8072
 3910SOL     OW15131   3.335   2.670   4.718  0.1701  0.8567 -0.3634
 3910SOL    HW115132   3.282   2.596   4.688  0.5177  0.1182  0.7725
 3910SOL    HW215133   3.374   2.705   4.638  0.9302 -0.9161 -0.8229
 3911SOL     OW15134   4.074   2.677  10.015 -0.0139  0.6992  0.2803
 3911SOL    HW115135   4.148   2.716   9.968  0.2854  1.2623  1.1881
 3911SOL    HW215136   4.028   2.752  10.054  0.0743  0.2329  1.3333
 3912SOL     OW15137   5.233   8.222   3.166 -0.5241  0.6020  0.4978
 3912SOL    HW115138   5.239   8.303   3.115  0.8798  0.7705  0.8881
 3912SOL    HW215139   5.280   8.157   3.113  0.2109  0.5780  1.1631
 3913SOL     OW15140  10.136  10.519   2.174 -0.2604  0.0705 -0.1360
 3913SOL    HW115141  10.068  10.493   2.112 -0.9551  2.9100 -0.6905
 3913SOL    HW215142  10.125  10.613   2.185  1.9795  0.2241  1.7647
 3914SOL     OW15143  10.741   8.494   6.171  0.5049  0.2978 -0.3854
 3914SOL    HW115144  10.763   8.520   6.260  2.2156  2.6418 -1.3786
 3914SOL    HW215145  10.823   8.462   6.134 -0.0332 -0.0690 -1.2901
 3915SOL     OW15146   0.871  10.348   6.230  0.5379  0.8219 -0.0593
 3915SOL    HW115147   0.777  10.361   6.221  0.5641  0.7646 -0.4492
 3915SOL    HW215148   0.881  10.256   6.254  0.5166  0.7026 -0.4944
 3916SOL     OW15149   4.982   7.673  10.588 -0.4713 -0.3402  0.3886
 3916SOL    HW115150   4.915   7.664  10.521  0.0561  1.3546 -0.4309
 3916SOL    HW215151   4.945   7.630  10.665 -2.0430 -0.3714 -0.3428
 3917SOL     OW15152   5.831   4.974   3.876  0.3183  0.4858 -0.2797
 3917SOL    HW115153   5.881   4.896   3.851 -0.0143 -0.0938  0.7735
 3917SOL    HW215154   5.786   4.948   3.957 -0.1851  1.6179 -0.1790
 3918SOL     OW15155   4.450  10.496   2.556 -0.0701  0.1702 -0.4868
 3918SOL    HW115156   4.358  10.476   2.536 -1.9759  4.0769  2.7290
 3918SOL    HW215157   4.482  10.419   2.602 -1.6431 -1.3611 -1.8108
 3919SOL     OW15158   7.099  10.468   3.825  0.0131  0.1298  0.5084
 3919SOL    HW115159   7.112  10.485   3.918  1.6159 -1.0878  0.5562
 3919SOL    HW215160   7.094  10.372   3.819 -1.7220  0.2445 -0.4871
 3920SOL     OW15161   2.321   1.473  10.048  0.3818 -0.0569 -0.6542
 3920SOL    HW115162   2.393   1.453  10.108 -0.9352  1.4409  1.5536
 3920SOL    HW215163   2.278   1.389  10.034  0.1156 -0.2990  1.3743
 3921SOL     OW15164   3.216   3.721   5.653 -0.5863 -0.3097  0.2936
 3921SOL    HW115165   3.226   3.813   5.680  0.4543  0.2066 -1.6593
 3921SOL    HW215166   3.269   3.672   5.715  1.0042  0.7339 -0.1709
 3922SOL     OW15167   5.290   9.991   4.740  0.2728  0.1629  0.2522
 3922SOL    HW115168   5.210  10.041   4.719  0.1230  0.1678  0.8343
 3922SOL    HW215169   5.351  10.016   4.671  0.5440  1.9184  1.0528
 3923SOL     OW15170   7.141   6.465   4.468  0.0091 -0.6829  0.6234
 3923SOL    HW115171   7.051   6.492   4.447  0.2948 -0.0963  0.1282
 3923SOL    HW215172   7.160   6.508   4.551  0.5752  0.9856 -0.3143
 3924SOL     OW15173   8.344   4.136   9.388  0.3049  0.0677 -0.0047
 3924SOL    HW115174   8.398   4.074   9.437  0.2014  1.1527  1.5491
 3924SOL    HW215175   8.407   4.186   9.336  0.5069 -0.5077 -0.3229
 3925SOL     OW15176   4.448   7.826   5.714  0.1853 -0.1393  0.6959
 3925SOL    HW115177   4.495   7.763   5.658 -0.5596  0.7667 -1.0471
 3925SOL    HW215178   4.516   7.884   5.747  0.3273  2.3378 -3.3313
 3926SOL     OW15179   5.585   5.552   9.725 -0.4059 -0.7501 -0.4742
 3926SOL    HW115180   5.581   5.609   9.648  0.7281 -0.0170 -0.0087
 3926SOL    HW215181   5.514   5.489   9.711 -1.0700  0.1714 -1.4753
 3927SOL     OW15182   6.595   2.435   2.604 -0.5135 -0.6585  0.3066
 3927SOL    HW115183   6.642   2.514   2.575 -0.6591 -0.8654 -0.5378
 3927SOL    HW215184   6.544   2.409   2.527 -0.7751 -1.3461  0.7090
 3928SOL     OW15185   6.570   8.174   4.045  0.4904 -0.2678 -0.4513
 3928SOL    HW115186   6.653   8.221   4.045  0.3041  0.2746  2.7982
 3928SOL    HW215187   6.506   8.237   4.011  0.8728  0.5288  0.2837
 3929SOL     OW15188   2.544   1.166  10.430  0.7760 -0.2564  0.2722
 3929SOL    HW115189   2.618   1.111  10.405 -0.9643 -1.7026 -2.1194
 3929SOL    HW215190   2.548   1.240  10.370  0.3608 -0.2892  0.2021
 3930SOL     OW15191   9.070   1.640   2.659  0.0547 -0.5323 -0.6449
 3930SOL    HW115192   9.052   1.604   2.572  2.3172 -1.3949 -0.8262
 3930SOL    HW215193   9.125   1.716   2.643 -1.4671  0.7608 -0.0331
 3931SOL     OW15194   1.578   3.574   0.850  0.0010 -0.1355  0.4896
 3931SOL    HW115195   1.517   3.518   0.898 -1.9647  1.3411 -0.1499
 3931SOL    HW215196   1.652   3.586   0.909 -0.3745 -1.8479  1.3703
 3932SOL     OW15197   6.932   4.493   2.300  0.1073 -0.2016  0.8822
 3932SOL    HW115198   6.840   4.518   2.296  0.2025  0.2510  1.3741
 3932SOL    HW215199   6.962   4.497   2.210 -0.9031 -2.5520  0.3564
 3933SOL     OW15200  10.266   9.561   4.894  0.7137  0.5580  0.0955
 3933SOL    HW115201  10.183   9.558   4.848  0.7674 -0.6474  0.0325
 3933SOL    HW215202  10.329   9.594   4.829  0.0796  2.8578  0.5489
 3934SOL     OW15203   4.802   1.595   1.928 -0.3222  0.1829 -0.0867
 3934SOL    HW115204   4.732   1.550   1.975 -0.8440 -0.0573 -1.0794
 3934SOL    HW215205   4.853   1.637   1.997 -1.1406 -0.0608  0.6891
 3935SOL     OW15206   6.610   8.523   8.773  0.2014  0.3627  0.2120
 3935SOL    HW115207   6.700   8.555   8.779  0.6307 -0.7762 -0.0880
 3935SOL    HW215208   6.556   8.601   8.791  1.2370  0.9526  0.8537
 3936SOL     OW15209  10.763   6.653   2.178 -0.2892  0.4915 -0.2690
 3936SOL    HW115210  10.754   6.674   2.271 -1.6100  0.9482 -0.4775
 3936SOL    HW215211  10.850   6.685   2.154  0.9124 -1.4330  1.2514
 3937SOL     OW15212   3.414   2.546   3.122 -0.5102  0.5150  0.4342
 3937SOL    HW115213   3.323   2.519   3.116  0.0525 -1.6359  0.6784
 3937SOL    HW215214   3.460   2.467   3.153  2.0052  0.3172 -3.2385
 3938SOL     OW15215   9.584   1.806   1.427  0.1297 -0.1903 -0.1075
 3938SOL    HW115216   9.635   1.829   1.348  0.6163  3.0906  0.9885
 3938SOL    HW215217   9.638   1.838   1.499 -2.3007  1.0470  1.2688
 3939SOL     OW15218   3.920   1.791   6.804 -0.3084 -0.3191  0.7829
 3939SOL    HW115219   3.842   1.788   6.860 -0.5635 -1.6085  0.4056
 3939SOL    HW215220   3.960   1.876   6.822 -1.2364 -0.0686  1.7571
 3940SOL     OW15221   1.912   2.231   4.332 -0.0594 -0.3495  0.2188
 3940SOL    HW115222   1.985   2.269   4.284 -1.5262  1.2655 -0.8891
 3940SOL    HW215223   1.925   2.261   4.422  0.0024  0.9884 -0.2138
 3941SOL     OW15224   9.049   1.096   6.374 -0.0826 -0.0242  0.2254
 3941SOL    HW115225   9.069   1.110   6.281 -2.6089  0.1766 -0.3565
 3941SOL    HW215226   9.075   1.178   6.416  1.8903 -0.4287 -0.1003
 3942SOL     OW15227   2.440   0.800   4.518  0.7139  0.3087  0.0107
 3942SOL    HW115228   2.476   0.884   4.490  2.2234 -0.0839  0.6611
 3942SOL    HW215229   2.385   0.822   4.594  1.5760  0.6611  0.5502
 3943SOL     OW15230   5.605   7.257   3.529 -0.3081  0.2980  0.4063
 3943SOL    HW115231   5.606   7.299   3.616 -0.4348  1.3728 -0.0935
 3943SOL    HW215232   5.513   7.261   3.503 -0.6974 -2.1173  1.1759
 3944SOL     OW15233   2.240   1.140   2.163 -0.1947  0.5002 -0.0252
 3944SOL    HW115234   2.214   1.132   2.254 -1.5535  0.4889 -0.3895
 3944SOL    HW215235   2.332   1.114   2.161  0.1110  1.3636  1.4682
 3945SOL     OW15236   6.932   4.110   7.555  0.7118  0.0375 -0.2471
 3945SOL    HW115237   6.942   4.175   7.486  0.4827 -0.7096 -0.9955
 3945SOL    HW215238   7.002   4.047   7.540  1.5228  0.5916  1.0457
 3946SOL     OW15239   9.026   5.215   9.759 -0.1667  0.1190 -0.3114
 3946SOL    HW115240   8.976   5.185   9.835 -0.4114  0.8621 -0.1729
 3946SOL    HW215241   9.105   5.161   9.759 -1.1117 -1.3485 -0.7508
 3947SOL     OW15242   8.512   0.298   3.288 -0.2798 -0.1020  0.0412
 3947SOL    HW115243   8.471   0.213   3.305 -1.3414  0.1711 -0.9674
 3947SOL    HW215244   8.548   0.290   3.200 -1.6166  0.9201 -0.6262
 3948SOL     OW15245   3.094   7.128   3.295  0.1206 -0.0361 -0.0510
 3948SOL    HW115246   3.087   7.039   3.329  0.8106 -0.0046  0.2014
 3948SOL    HW215247   3.168   7.125   3.234 -0.5429  0.1195 -0.8671
 3949SOL     OW15248   2.363   0.727   7.246  0.6185  0.6663 -0.2380
 3949SOL    HW115249   2.306   0.688   7.312  0.3399 -1.6092 -1.7058
 3949SOL    HW215250   2.304   0.768   7.183  0.7466  0.6561 -0.3661
 3950SOL     OW15251   8.069   9.508   9.320 -0.5106 -0.3303  0.1562
 3950SOL    HW115252   8.027   9.584   9.360 -0.9829 -0.6720  0.3224
 3950SOL    HW215253   8.161   9.533   9.312 -0.8147  0.5876 -0.6120
 3951SOL     OW15254   3.147   8.453   0.824 -0.2836  0.6827  0.6277
 3951SOL    HW115255   3.192   8.396   0.887  0.1083 -1.9328 -1.8037
 3951SOL    HW215256   3.086   8.504   0.877  0.8942 -0.4453  3.2347
 3952SOL     OW15257   2.044   3.079   7.122 -0.1688 -0.1114  0.5311
 3952SOL    HW115258   1.962   3.126   7.140 -0.7077 -0.2301 -1.4453
 3952SOL    HW215259   2.037   2.999   7.174 -0.8056  0.3754  1.2274
 3953SOL     OW15260   1.551   9.269   4.644  0.0799  0.2257 -0.2417
 3953SOL    HW115261   1.632   9.305   4.607  0.1773  0.7627  0.4897
 3953SOL    HW215262   1.503   9.345   4.676 -0.5116 -0.1346 -0.2544
 3954SOL     OW15263   8.934   5.521  10.726  0.0571  0.5958 -0.1592
 3954SOL    HW115264   8.861   5.550  10.780  0.4547  0.6624  0.3479
 3954SOL    HW215265   8.932   5.426  10.731 -0.6692  0.5487 -1.0557
 3955SOL     OW15266   1.278   4.873   8.868  0.0497  0.0666 -0.1961
 3955SOL    HW115267   1.360   4.859   8.820 -0.1826  0.8464 -0.8525
 3955SOL    HW215268   1.305   4.879   8.960  0.6869 -0.0404 -0.3697
 3956SOL     OW15269   8.975   8.393   2.543 -0.4483  0.4038  0.4229
 3956SOL    HW115270   9.025   8.366   2.620  1.0045 -1.1162 -0.9737
 3956SOL    HW215271   8.886   8.361   2.560  0.4532 -2.3628  0.3541
 3957SOL     OW15272   8.375   3.268   4.570  0.0254  0.0785  0.2359
 3957SOL    HW115273   8.441   3.214   4.526 -0.7774  0.8662 -2.0949
 3957SOL    HW215274   8.313   3.205   4.606  0.9448 -0.6133  0.6398
 3958SOL     OW15275   6.143   6.501   4.150  0.0698 -0.1753 -0.2611
 3958SOL    HW115276   6.155   6.448   4.229  1.5656 -0.1002 -0.4116
 3958SOL    HW215277   6.118   6.587   4.184  0.1322 -0.2965  0.1024
 3959SOL     OW15278   7.567   1.054   9.497  0.3030  0.2249 -0.0564
 3959SOL    HW115279   7.661   1.039   9.481  0.7550  1.2767  1.3723
 3959SOL    HW215280   7.552   1.018   9.585 -0.7110 -0.1871 -0.3905
 3960SOL     OW15281   7.917   7.604   9.089  1.0963 -0.1215 -0.1153
 3960SOL    HW115282   7.906   7.510   9.074  0.0789 -0.3761  1.9270
 3960SOL    HW215283   7.829   7.641   9.078  1.0413  0.2181  1.2209
 3961SOL     OW15284   3.754   8.081   2.480 -0.5930 -0.0619 -0.2730
 3961SOL    HW115285   3.709   8.141   2.422  0.6301  0.2449 -0.9360
 3961SOL    HW215286   3.736   8.114   2.568 -0.8096  0.6481 -0.5810
 3962SOL     OW15287   0.033   9.007   5.648 -0.3013 -0.0041  0.2230
 3962SOL    HW115288  -0.033   8.940   5.663  0.2129 -0.3377  1.0372
 3962SOL    HW215289   0.116   8.960   5.647 -0.0819  0.3510 -1.2002
 3963SOL     OW15290   6.584   4.189   8.495 -0.6833  0.0567  0.0917
 3963SOL    HW115291   6.559   4.140   8.574 -0.1766 -0.2241  0.0787
 3963SOL    HW215292   6.565   4.129   8.423  0.5970 -0.4057  0.1174
 3964SOL     OW15293   9.040   8.834   5.841  0.2724 -0.4718  0.6990
 3964SOL    HW115294   9.035   8.782   5.761  3.1100 -1.6429  1.1482
 3964SOL    HW215295   9.001   8.778   5.908  0.5682 -0.7640  0.6341
 3965SOL     OW15296   3.941   0.761   5.727 -0.2403  0.0391  0.5606
 3965SOL    HW115297   3.954   0.820   5.802  1.0267 -0.4132  0.7241
 3965SOL    HW215298   4.026   0.759   5.684 -0.6171 -0.7106 -0.1622
 3966SOL     OW15299   2.661   7.170   6.218  0.4851 -0.1687 -0.6150
 3966SOL    HW115300   2.649   7.077   6.198 -0.5691 -0.0701 -0.4569
 3966SOL    HW215301   2.669   7.212   6.132 -0.9439 -0.1618 -0.7601
 3967SOL     OW15302   0.738   1.807   0.737 -0.1334  0.4533  0.1715
 3967SOL    HW115303   0.738   1.870   0.809  0.4229  0.7867 -0.1070
 3967SOL    HW215304   0.766   1.859   0.661  1.8194 -0.4282  0.2256
 3968SOL     OW15305   0.394   5.041   7.087  0.3325  0.1806  0.3841
 3968SOL    HW115306   0.422   5.132   7.078 -0.0893  0.4364  1.5301
 3968SOL    HW215307   0.317   5.034   7.029  0.4756  0.5028  0.1542
 3969SOL     OW15308   7.681  10.252   8.190 -0.7470 -0.1873 -0.2097
 3969SOL    HW115309   7.629  10.195   8.246  0.2950 -1.8812 -0.8737
 3969SOL    HW215310   7.772  10.229   8.210 -0.3247  0.7105 -1.0355
 3970SOL     OW15311   6.366   2.684   2.472  0.0973  0.1263 -0.0116
 3970SOL    HW115312   6.373   2.654   2.563 -0.0208  0.2594  0.0403
 3970SOL    HW215313   6.276   2.713   2.463  0.5454  1.7507  0.3408
 3971SOL     OW15314   0.715   7.784   7.225  0.7958  0.8675 -0.0812
 3971SOL    HW115315   0.750   7.835   7.298  1.5612 -0.4971  0.5331
 3971SOL    HW215316   0.734   7.693   7.247 -3.5083 -0.1320  0.5334
 3972SOL     OW15317   3.269   8.086   0.714 -0.2283  0.4376  0.4941
 3972SOL    HW115318   3.184   8.126   0.699  0.0780  1.3658  1.1789
 3972SOL    HW215319   3.273   8.070   0.808  0.0398 -0.3445  0.3629
 3973SOL     OW15320   1.928   1.518   0.323  0.2030 -0.1952  0.3344
 3973SOL    HW115321   1.923   1.430   0.284 -2.2225  0.2464 -0.4842
 3973SOL    HW215322   1.873   1.514   0.400 -1.8047  1.1336 -0.9352
 3974SOL     OW15323   7.751   1.916   6.231  0.3729 -1.1142  0.3218
 3974SOL    HW115324   7.762   1.828   6.196 -0.2662 -0.4607 -1.6458
 3974SOL    HW215325   7.658   1.934   6.223  0.5683 -0.0736  0.2175
 3975SOL     OW15326   9.420   9.482   3.183 -0.5516  0.2999 -0.3704
 3975SOL    HW115327   9.410   9.420   3.111 -0.0915  1.4440 -1.4624
 3975SOL    HW215328   9.469   9.555   3.145 -0.5863  1.0859  1.0223
 3976SOL     OW15329   3.451   0.461   4.241 -0.0250  0.0523  0.0391
 3976SOL    HW115330   3.505   0.402   4.188  0.3106  0.4690 -0.0877
 3976SOL    HW215331   3.514   0.516   4.287 -0.3403  1.1015 -0.7453
 3977SOL     OW15332   4.001   5.912   2.976 -0.1949 -0.1753 -0.3413
 3977SOL    HW115333   4.075   5.961   2.939 -0.0571 -0.4944 -0.4887
 3977SOL    HW215334   4.006   5.930   3.070 -0.0027 -0.0997 -0.3651
 3978SOL     OW15335   9.957   7.999   0.858  0.1163  0.2653 -0.6659
 3978SOL    HW115336   9.872   7.978   0.819  0.2254  0.4364 -0.9982
 3978SOL    HW215337  10.020   7.988   0.787  0.4100 -0.1456 -0.3400
 3979SOL     OW15338   4.378   5.010   2.086  0.0240  0.2059  0.1030
 3979SOL    HW115339   4.343   4.949   2.150 -0.2826 -0.5796 -0.7903
 3979SOL    HW215340   4.308   5.073   2.070 -0.2834 -0.2260 -0.2507
 3980SOL     OW15341   5.502   6.978   9.180 -0.5481  0.3026 -0.3622
 3980SOL    HW115342   5.591   6.948   9.158 -0.3653 -2.4104  3.1878
 3980SOL    HW215343   5.516   7.048   9.243 -0.9740  0.6147 -0.6098
 3981SOL     OW15344   5.728   2.851   7.434 -0.1298  0.0941  0.1363
 3981SOL    HW115345   5.666   2.900   7.381 -0.6422  0.2751  0.8881
 3981SOL    HW215346   5.777   2.919   7.481 -0.3243 -0.0869  0.6046
 3982SOL     OW15347   1.212   4.177   2.136  0.0814  0.2335 -0.8762
 3982SOL    HW115348   1.126   4.166   2.177  0.3420 -0.5166 -0.5291
 3982SOL    HW215349   1.272   4.125   2.189  0.6103  0.0723 -1.6094
 3983SOL     OW15350   3.652   8.771   9.547 -0.1953  0.0043  0.7714
 3983SOL    HW115351   3.711   8.844   9.529 -0.6524  0.1835 -0.0710
 3983SOL    HW215352   3.590   8.805   9.611 -0.1847  0.2376  0.6569
 3984SOL     OW15353   4.376   3.724   7.385  0.1902  0.1529 -0.3284
 3984SOL    HW115354   4.445   3.704   7.321  0.8761  0.7174  0.2138
 3984SOL    HW215355   4.417   3.785   7.446  0.1391 -1.6701  1.6576
 3985SOL     OW15356   6.178   7.135   3.078 -0.1561  0.2798  0.2410
 3985SOL    HW115357   6.180   7.188   3.158  1.7556  0.6571 -0.0092
 3985SOL    HW215358   6.243   7.067   3.093 -1.7301 -1.3585  0.0650
 3986SOL     OW15359   6.520   5.847   2.636  0.0627 -0.1701 -0.3111
 3986SOL    HW115360   6.474   5.767   2.611 -0.3601  0.0440 -0.2166
 3986SOL    HW215361   6.454   5.901   2.679  0.6761 -0.3369  0.8820
 3987SOL     OW15362   7.164   5.421   8.044  0.6930  0.1011 -0.2430
 3987SOL    HW115363   7.258   5.434   8.028  0.7816  0.4767  0.5262
 3987SOL    HW215364   7.121   5.479   7.982  1.0194  1.3689  0.6730
 3988SOL     OW15365   8.547   7.587   2.484  1.0266  0.4036 -0.4553
 3988SOL    HW115366   8.606   7.566   2.412  1.7920 -0.6188  0.4470
 3988SOL    HW215367   8.469   7.623   2.441  2.3486  1.9766 -1.6512
 3989SOL     OW15368   6.336   8.485   2.927  0.3077 -0.3380  0.2822
 3989SOL    HW115369   6.393   8.549   2.970  0.5723 -1.9976  2.6129
 3989SOL    HW215370   6.261   8.477   2.986  0.2211 -2.0132 -0.0041
 3990SOL     OW15371   9.072   7.400  10.671  0.3483  0.5641  0.3475
 3990SOL    HW115372   9.021   7.471  10.633 -1.2861  0.4604  2.2129
 3990SOL    HW215373   9.101   7.434  10.756 -2.1763 -1.5635  2.2210
 3991SOL     OW15374   9.486   7.880   0.366 -0.0619  0.4739 -0.9082
 3991SOL    HW115375   9.456   7.916   0.283 -0.4797  0.0566 -0.9420
 3991SOL    HW215376   9.432   7.802   0.380 -0.0049  0.5465 -0.2373
 3992SOL     OW15377   0.215   9.132   6.577  0.4567  0.1453 -0.2309
 3992SOL    HW115378   0.192   9.136   6.485 -0.4430 -0.8147 -0.0683
 3992SOL    HW215379   0.290   9.191   6.586  0.5427  0.2650 -1.5592
 3993SOL     OW15380   6.970   3.612   0.622 -0.0197 -0.3041  0.9071
 3993SOL    HW115381   7.005   3.648   0.541  0.2768  3.1146  2.3906
 3993SOL    HW215382   6.875   3.613   0.610  0.0034  0.6065  0.7511
 3994SOL     OW15383   7.473   4.519   6.935  0.1769  0.1869 -0.1885
 3994SOL    HW115384   7.402   4.578   6.907 -0.4298  0.4682  1.7918
 3994SOL    HW215385   7.478   4.454   6.865 -1.6881  0.4565 -0.6458
 3995SOL     OW15386   5.111   1.107   9.027  0.0966  0.5208  0.1140
 3995SOL    HW115387   5.167   1.038   8.990 -0.5324 -0.5118  1.0257
 3995SOL    HW215388   5.022   1.072   9.021 -0.2231  1.2143  0.6695
 3996SOL     OW15389   4.776   4.340   4.795 -0.0800 -0.4018  0.7563
 3996SOL    HW115390   4.772   4.429   4.759  1.0107 -0.4059  0.6145
 3996SOL    HW215391   4.702   4.295   4.754  0.1856  0.0515 -0.2614
 3997SOL     OW15392   9.256   5.888   7.709 -0.0896  0.4413 -0.6335
 3997SOL    HW115393   9.307   5.883   7.790  1.0342 -0.0100 -1.3419
 3997SOL    HW215394   9.191   5.819   7.717 -0.3118  0.7257  0.0971
 3998SOL     OW15395   3.954   5.762   9.195 -0.3945 -0.0979  0.3335
 3998SOL    HW115396   3.931   5.846   9.235 -1.9348 -0.3255 -0.0302
 3998SOL    HW215397   3.999   5.714   9.265  0.6118  1.0477  0.5083
 3999SOL     OW15398   3.089   7.146   1.436 -0.6655 -0.1072 -0.1194
 3999SOL    HW115399   3.175   7.167   1.472 -0.7608  0.5664 -0.2680
 3999SOL    HW215400   3.051   7.084   1.498  0.2691 -1.1095 -0.5072
 4000SOL     OW15401   0.589   4.029  10.087  0.4795  0.3306  0.2797
 4000SOL    HW115402   0.631   3.954  10.045  1.7288  1.6566 -0.9342
 4000SOL    HW215403   0.499   3.999  10.105  1.1141 -1.6313  0.4071
 4001SOL     OW15404   2.110   3.394   3.988  0.2463 -0.1684 -0.0588
 4001SOL    HW115405   2.045   3.418   4.054  0.7875  0.0949  0.3910
 4001SOL    HW215406   2.060   3.347   3.921 -0.4568  0.2924  0.1277
 4002SOL     OW15407   4.935   4.937   1.798 -0.7161  1.1201 -0.7091
 4002SOL    HW115408   5.014   4.943   1.744 -0.8796  0.9169 -0.9692
 4002SOL    HW215409   4.950   4.861   1.855 -0.5734  1.2930 -0.5127
 4003SOL     OW15410   6.868   5.365   1.516  0.3060 -0.1415 -0.0037
 4003SOL    HW115411   6.877   5.457   1.495  0.0646 -0.1631 -0.2027
 4003SOL    HW215412   6.876   5.361   1.612 -1.3449  0.2973  0.1827
 4004SOL     OW15413   8.601   1.894   6.381  0.0558  0.0291  0.2212
 4004SOL    HW115414   8.649   1.932   6.454 -0.2560 -0.6698  0.8147
 4004SOL    HW215415   8.593   1.801   6.404  1.6923 -0.6415 -1.6528
 4005SOL     OW15416   1.998   2.265   4.041  0.1113 -0.1689  0.0629
 4005SOL    HW115417   1.978   2.354   4.013  0.6314 -0.2463 -0.5919
 4005SOL    HW215418   1.918   2.215   4.024  0.5761 -0.3291 -1.8381
 4006SOL     OW15419   8.035   7.905   8.674 -0.2142  0.5591  0.0110
 4006SOL    HW115420   8.054   7.816   8.705  0.4552  0.0811 -1.6180
 4006SOL    HW215421   8.116   7.932   8.630 -0.3393  2.0803  0.6479
 4007SOL     OW15422   7.030   5.223   3.653  0.0269 -0.2209  0.5856
 4007SOL    HW115423   7.058   5.164   3.583  1.5395 -0.1623  1.1002
 4007SOL    HW215424   6.996   5.300   3.607 -1.5141 -1.2414 -0.0834
 4008SOL     OW15425   7.889   7.569   8.457  0.3144  0.3083  0.0089
 4008SOL    HW115426   7.804   7.569   8.502  1.0806  0.5902  1.5210
 4008SOL    HW215427   7.872   7.612   8.374 -0.4553  3.0903  1.4835
 4009SOL     OW15428   4.618   3.478   6.774  0.0603 -0.5243  0.5831
 4009SOL    HW115429   4.652   3.394   6.742  0.1362  0.4516 -2.1109
 4009SOL    HW215430   4.588   3.459   6.863  0.6365 -3.2436  0.2825
 4010SOL     OW15431   1.385  10.919   4.425  0.0009  0.3852  0.6552
 4010SOL    HW115432   1.383  10.918   4.329 -0.6980 -0.4098  0.6653
 4010SOL    HW215433   1.407  10.830   4.449 -0.5552  0.3977  1.2386
 4011SOL     OW15434   9.799   0.721   0.146  0.3126 -0.9563 -0.3579
 4011SOL    HW115435   9.782   0.673   0.065 -0.9601 -1.7047  0.3381
 4011SOL    HW215436   9.738   0.684   0.210 -0.1211  0.9889  0.4289
 4012SOL     OW15437   8.105  10.696   2.784 -0.1594 -0.6224 -0.3532
 4012SOL    HW115438   8.048  10.740   2.721 -0.8263 -1.2646 -0.2078
 4012SOL    HW215439   8.095  10.747   2.865 -1.3366 -1.3295 -0.0366
 4013SOL     OW15440   3.280   5.744   2.156  0.7180  0.3715 -0.6329
 4013SOL    HW115441   3.274   5.724   2.250  1.2732 -1.2812 -0.9057
 4013SOL    HW215442   3.331   5.824   2.151 -0.4966  1.2523  0.5295
 4014SOL     OW15443   8.522   8.911  10.825  0.1171  0.2903 -0.1466
 4014SOL    HW115444   8.594   8.854  10.852  1.7849  2.7123  0.8841
 4014SOL    HW215445   8.561   8.998  10.821 -2.5165  1.5399 -0.7561
 4015SOL     OW15446  10.744   8.590  10.883 -0.5832 -0.5063 -0.5370
 4015SOL    HW115447  10.689   8.667  10.868  1.0015  1.0353  1.0720
 4015SOL    HW215448  10.687   8.528  10.927 -1.5280  0.3348 -0.5406
 4016SOL     OW15449   6.854   9.843   1.991 -0.2903  0.0639 -0.1886
 4016SOL    HW115450   6.763   9.831   1.962  0.1554 -1.0750 -1.1989
 4016SOL    HW215451   6.874   9.934   1.968 -0.9678  0.1254 -0.5786
 4017SOL     OW15452   9.737   0.021   4.587 -0.2396 -0.3962 -0.6326
 4017SOL    HW115453   9.831   0.008   4.569 -0.6228 -1.1420 -2.3016
 4017SOL    HW215454   9.735   0.081   4.661  1.5633  0.2260 -1.0350
 4018SOL     OW15455   5.563   4.419   6.047 -0.3183 -0.1218 -0.5439
 4018SOL    HW115456   5.476   4.404   6.084 -0.1096 -0.2236 -0.0837
 4018SOL    HW215457   5.623   4.391   6.116  0.0793 -0.5626 -1.0662
 4019SOL     OW15458   0.979   2.472   5.725  0.5305  0.0183  0.4935
 4019SOL    HW115459   1.014   2.412   5.791  1.3043  1.1260  1.1311
 4019SOL    HW215460   1.050   2.535   5.711 -0.4434  1.0805  0.2263
 4020SOL     OW15461  10.852   6.914   0.870 -0.3186 -0.5457  0.0085
 4020SOL    HW115462  10.810   6.909   0.784 -0.2981 -2.2327  0.0649
 4020SOL    HW215463  10.798   6.976   0.920 -1.3290 -0.8606 -0.6675
 4021SOL     OW15464   6.938  10.512   6.780 -0.5922  0.3363 -0.8380
 4021SOL    HW115465   6.947  10.601   6.748 -0.2648  0.3514 -0.7115
 4021SOL    HW215466   6.965  10.456   6.707  0.1019  0.3696 -0.6144
 4022SOL     OW15467   1.398   5.620   8.056 -0.3337 -0.4315  0.1344
 4022SOL    HW115468   1.304   5.608   8.040  0.0474 -1.2697 -1.7407
 4022SOL    HW215469   1.437   5.624   7.969  1.2552  1.2016  0.8476
 4023SOL     OW15470   3.720   1.777   1.996 -0.3155  0.4830  0.8334
 4023SOL    HW115471   3.693   1.694   1.956  1.2773  1.1257 -1.8165
 4023SOL    HW215472   3.710   1.762   2.090 -0.2016 -2.6679  0.4641
 4024SOL     OW15473   0.767   3.980   9.832 -0.0689  0.2446  0.2661
 4024SOL    HW115474   0.692   3.922   9.828 -1.1184  1.6429 -1.4080
 4024SOL    HW215475   0.829   3.946   9.767  0.9005 -1.0188  1.7768
 4025SOL     OW15476   2.226   2.123   7.262 -0.3410 -0.1825  0.6637
 4025SOL    HW115477   2.209   2.099   7.170  0.3012 -0.8323  0.7064
 4025SOL    HW215478   2.304   2.178   7.258 -0.9676  0.7295  0.7174
 4026SOL     OW15479   3.597   6.173   1.138  0.4734  0.0388  0.1244
 4026SOL    HW115480   3.532   6.236   1.167 -0.2969  0.2251 -1.8883
 4026SOL    HW215481   3.666   6.177   1.204  0.0701  2.3908  0.4656
 4027SOL     OW15482   6.651   3.682   7.376  0.1159 -0.5439 -0.2282
 4027SOL    HW115483   6.636   3.766   7.419  0.5569 -0.6702  0.1804
 4027SOL    HW215484   6.744   3.665   7.388  0.9057  0.7001 -3.5239
 4028SOL     OW15485   1.027   0.413   8.981  0.3240  0.2204  0.0489
 4028SOL    HW115486   1.121   0.421   8.994  0.5637 -0.9115 -0.7947
 4028SOL    HW215487   1.017   0.337   8.923 -1.0995  0.3753  0.0462
 4029SOL     OW15488   6.196   2.264   1.477  0.6014  0.1021 -0.1269
 4029SOL    HW115489   6.217   2.317   1.554 -0.4818  0.1449  0.1505
 4029SOL    HW215490   6.273   2.208   1.466  1.1743  0.7572  0.4057
 4030SOL     OW15491  10.317   1.233   5.645 -0.3375 -0.0683 -0.4063
 4030SOL    HW115492  10.394   1.192   5.607 -0.9885  0.5386 -2.5114
 4030SOL    HW215493  10.297   1.306   5.587 -0.7100  1.7283  1.8086
 4031SOL     OW15494   0.581   7.598   6.074  0.0508 -0.4355 -0.1923
 4031SOL    HW115495   0.590   7.541   5.997 -1.3002 -1.4620  0.3559
 4031SOL    HW215496   0.512   7.659   6.050 -0.1667 -0.5683  0.0965
 4032SOL     OW15497   7.019   0.792   8.844 -0.5502 -0.4166 -0.0415
 4032SOL    HW115498   6.988   0.701   8.848 -2.3609  0.1284 -0.7504
 4032SOL    HW215499   7.014   0.822   8.935 -1.5617 -0.5513 -0.0333
 4033SOL     OW15500   5.410   0.883   1.377 -0.4938  0.6653 -0.2536
 4033SOL    HW115501   5.326   0.883   1.423 -0.3930 -2.3810  0.0934
 4033SOL    HW215502   5.392   0.926   1.293 -2.0733  1.1898  0.3278
 4034SOL     OW15503   4.423   8.384   9.982 -0.1714  0.6393  0.1610
 4034SOL    HW115504   4.329   8.392   9.966  0.0497  1.9765 -0.6312
 4034SOL    HW215505   4.460   8.363   9.897  0.0007 -3.1660  0.9958
 4035SOL     OW15506  10.307   1.363   5.385  0.6429  0.1056  0.1781
 4035SOL    HW115507  10.316   1.271   5.362  1.0644  0.2502 -0.2663
 4035SOL    HW215508  10.304   1.408   5.300 -0.3655  0.4310  0.3784
 4036SOL     OW15509   3.099   8.195   3.879 -0.4590  1.0533 -0.1672
 4036SOL    HW115510   3.165   8.260   3.855 -0.2714  0.9801  0.1423
 4036SOL    HW215511   3.016   8.241   3.869 -0.3539  1.1968 -0.4028
 4037SOL     OW15512   9.323   0.099   7.562 -0.7559 -0.0822 -0.5076
 4037SOL    HW115513   9.262   0.061   7.626 -0.3997  1.2479  0.6890
 4037SOL    HW215514   9.293   0.189   7.550  0.5866  0.4185 -0.3597
 4038SOL     OW15515   6.942   1.102   3.370 -0.6094  0.0854 -0.3029
 4038SOL    HW115516   6.999   1.047   3.317  0.4598  0.7048  0.1866
 4038SOL    HW215517   6.937   1.057   3.454 -0.2708  0.3972 -0.1168
 4039SOL     OW15518   0.853   2.075   5.844 -0.0133 -0.4824  0.8323
 4039SOL    HW115519   0.881   2.001   5.791 -0.7610 -0.7544  0.7957
 4039SOL    HW215520   0.843   2.147   5.781 -1.3509 -0.9251  0.4866
 4040SOL     OW15521   5.041   6.379   7.259  0.3851 -0.3722 -0.2170
 4040SOL    HW115522   5.047   6.394   7.354 -2.5626  0.7610 -0.1117
 4040SOL    HW215523   4.959   6.331   7.248 -1.0605  2.3423 -2.4021
 4041SOL     OW15524   8.829   2.740  10.157 -0.0489 -0.3840  0.0367
 4041SOL    HW115525   8.797   2.831  10.152  0.5012 -0.2471 -1.6711
 4041SOL    HW215526   8.835   2.722  10.251 -0.9885  1.0474  0.4085
 4042SOL     OW15527   8.702   1.307  10.862 -0.1327  0.1035  0.1054
 4042SOL    HW115528   8.794   1.279  10.866 -0.1824 -0.3323 -1.2480
 4042SOL    HW215529   8.703   1.384  10.805 -0.3688  1.2970  1.6558
 4043SOL     OW15530   8.631   1.028   8.999  0.3303 -0.6528  0.0020
 4043SOL    HW115531   8.700   1.044   8.935 -0.8444 -1.2189 -1.4746
 4043SOL    HW215532   8.668   0.964   9.060  2.2654  1.5692  1.2894
 4044SOL     OW15533   9.818   8.764   5.288 -0.2464  0.4409 -0.0448
 4044SOL    HW115534   9.865   8.691   5.329  0.0339  0.2578 -0.6814
 4044SOL    HW215535   9.743   8.723   5.245  0.5726  0.3478 -1.4382
 4045SOL     OW15536   8.726   9.275   5.903 -0.2681 -0.0608  0.2602
 4045SOL    HW115537   8.816   9.304   5.916 -0.2739  0.5526 -0.9467
 4045SOL    HW215538   8.686   9.284   5.990  0.0334  2.5608  0.1953
 4046SOL     OW15539   0.243  10.209   2.371  0.3902 -0.2298  0.1303
 4046SOL    HW115540   0.302  10.264   2.320  0.5273 -1.3018 -0.9175
 4046SOL    HW215541   0.156  10.231   2.338  0.4874 -1.0130 -0.7129
 4047SOL     OW15542   7.816   9.361   2.309 -0.2809  0.0879 -0.6257
 4047SOL    HW115543   7.840   9.393   2.395 -0.7829 -0.5846 -0.2232
 4047SOL    HW215544   7.879   9.291   2.290 -0.0074  0.4089 -0.9269
 4048SOL     OW15545   0.656   8.070   9.655  0.1470 -0.1611 -0.0800
 4048SOL    HW115546   0.589   8.007   9.682  1.2677 -3.0641 -3.3668
 4048SOL    HW215547   0.739   8.026   9.672  1.1666  1.8470  0.4994
 4049SOL     OW15548  10.168   0.624   7.469  0.2812  0.7147 -0.0517
 4049SOL    HW115549  10.215   0.652   7.391  0.3375 -0.0444 -0.3005
 4049SOL    HW215550  10.090   0.579   7.435 -0.5129  1.7387  0.3479
 4050SOL     OW15551   6.321   9.645   8.632  0.5896 -0.4416  0.1768
 4050SOL    HW115552   6.355   9.603   8.711  0.8567  1.1596  0.9478
 4050SOL    HW215553   6.327   9.577   8.565  0.9228 -1.6510  1.3761
 4051SOL     OW15554   9.973   7.366   7.079 -0.0625  0.2001 -0.3900
 4051SOL    HW115555  10.017   7.319   7.008  1.5738 -0.2091  0.8332
 4051SOL    HW215556  10.044   7.395   7.136 -1.1476  2.7257 -0.2062
 4052SOL     OW15557   5.687   4.207   7.359 -0.1840 -0.6209  0.4099
 4052SOL    HW115558   5.780   4.185   7.370 -0.0094 -0.6114 -0.8468
 4052SOL    HW215559   5.652   4.211   7.448  1.2341  0.3023  0.9481
 4053SOL     OW15560   9.127   1.216   5.552  0.1658 -1.0577 -0.0950
 4053SOL    HW115561   9.097   1.134   5.513  1.4325 -1.5699 -0.0423
 4053SOL    HW215562   9.047   1.269   5.562 -0.6005 -2.1025 -0.5349
 4054SOL     OW15563   9.521   9.318   9.244 -0.3099 -0.2604  0.5060
 4054SOL    HW115564   9.519   9.361   9.330  0.1775 -0.2550  0.5148
 4054SOL    HW215565   9.566   9.380   9.187  0.2999 -0.7114  0.4932
 4055SOL     OW15566   3.876   3.992   8.370  0.0219  0.3776 -0.3170
 4055SOL    HW115567   3.945   3.954   8.425  0.9899 -0.8298 -2.2756
 4055SOL    HW215568   3.794   3.964   8.413  0.7379 -1.9196 -0.3269
 4056SOL     OW15569   9.341   6.340   8.284  0.2789  0.0502  0.2869
 4056SOL    HW115570   9.299   6.402   8.224 -0.3111 -1.6269 -1.1101
 4056SOL    HW215571   9.288   6.343   8.363 -1.6704 -0.9008 -0.8916
 4057SOL     OW15572   0.486   6.902   3.188 -0.1479  0.3072 -0.3998
 4057SOL    HW115573   0.486   6.896   3.283  1.2953 -0.2471 -0.4017
 4057SOL    HW215574   0.445   6.821   3.158 -1.3898  0.8609 -0.2703
 4058SOL     OW15575   8.465   5.465   8.001  0.1929  0.3768  0.1181
 4058SOL    HW115576   8.375   5.498   8.007 -0.7594 -2.1471  3.8801
 4058SOL    HW215577   8.504   5.487   8.086  1.5714 -2.2973  0.2935
 4059SOL     OW15578   8.440  10.329   2.756  0.7267 -0.1470 -0.4509
 4059SOL    HW115579   8.463  10.419   2.734  0.5441 -0.7519 -3.6605
 4059SOL    HW215580   8.354  10.316   2.715  0.6695 -1.7244  0.0940
 4060SOL     OW15581   4.338   9.405   0.021  0.4257  0.0038 -0.0187
 4060SOL    HW115582   4.333   9.379  -0.071 -0.1217  0.1599 -0.0372
 4060SOL    HW215583   4.290   9.336   0.068  1.7601 -0.7359  0.2923
 4061SOL     OW15584   6.869   7.333   9.364  0.1224  0.6215 -0.4833
 4061SOL    HW115585   6.806   7.398   9.332  0.5958  1.6301  0.5565
 4061SOL    HW215586   6.815   7.268   9.410 -0.2924  0.6733 -0.8929
 4062SOL     OW15587  10.897   6.541   9.565  0.3019 -0.0135 -0.2463
 4062SOL    HW115588  10.848   6.623   9.558  1.3179  0.9047  2.2882
 4062SOL    HW215589  10.962   6.547   9.495 -0.5068  0.6927 -0.9643
 4063SOL     OW15590  10.882   5.935   4.365 -0.5487  0.4195 -0.0582
 4063SOL    HW115591  10.906   6.015   4.411 -0.6271  0.9288 -0.8973
 4063SOL    HW215592  10.858   5.963   4.277 -1.9029 -0.3583  0.0341
 4064SOL     OW15593   9.570   8.258   3.941 -0.4175 -0.1688  0.1715
 4064SOL    HW115594   9.555   8.165   3.927  1.0394 -0.4526  0.2703
 4064SOL    HW215595   9.639   8.261   4.008  1.6308  0.8751 -1.8174
 4065SOL     OW15596  10.254   7.443   4.443 -0.2429 -0.2950  0.0094
 4065SOL    HW115597  10.203   7.379   4.393 -1.3517 -0.9563  1.8730
 4065SOL    HW215598  10.239   7.419   4.534  1.4501  1.0461  0.6938
 4066SOL     OW15599   1.690   3.268   7.531  0.2139 -0.5507 -0.1152
 4066SOL    HW115600   1.656   3.326   7.463 -1.0277 -0.6154  0.4163
 4066SOL    HW215601   1.781   3.293   7.542  1.1851 -2.0991 -3.4526
 4067SOL     OW15602   4.463   3.828   5.980 -0.1477 -0.3293 -0.3084
 4067SOL    HW115603   4.415   3.792   5.905  1.7485  1.2430 -2.4122
 4067SOL    HW215604   4.442   3.921   5.979  0.6646 -0.1225  0.5525
 4068SOL     OW15605   0.097   0.802   4.454  0.5221  0.1670  0.2178
 4068SOL    HW115606   0.167   0.860   4.483 -1.2593  1.7760  1.5133
 4068SOL    HW215607   0.048   0.853   4.389  0.6438 -1.0329 -0.8783
 4069SOL     OW15608   4.091   8.666   5.890  0.6584 -0.2839 -0.5663
 4069SOL    HW115609   4.095   8.640   5.982 -0.1460 -0.1428 -0.4906
 4069SOL    HW215610   4.142   8.747   5.886  0.8931 -0.4143 -0.2939
 4070SOL     OW15611   1.612   2.588   0.040  0.4151 -0.7402  0.1247
 4070SOL    HW115612   1.654   2.674   0.050  2.5841 -1.4918 -1.7078
 4070SOL    HW215613   1.636   2.541   0.119 -0.6067  0.2299  1.0470
 4071SOL     OW15614   6.813  10.124  10.727  0.5431 -0.2345  0.0025
 4071SOL    HW115615   6.861  10.169  10.656 -0.1433  1.6085  0.6472
 4071SOL    HW215616   6.722  10.151  10.715  0.2444 -0.7913  0.9376
 4072SOL     OW15617   5.957   5.130   9.627 -0.2189  0.3075 -0.2657
 4072SOL    HW115618   5.983   5.160   9.540  1.5670  0.1243  0.1618
 4072SOL    HW215619   5.916   5.207   9.667 -0.9634  0.4233 -1.2041
 4073SOL     OW15620   3.106  10.532   1.078  0.0097  0.2861  0.4922
 4073SOL    HW115621   3.032  10.521   1.137 -0.4850  0.4434 -0.0980
 4073SOL    HW215622   3.072  10.581   1.003  0.6695  0.2438  0.1485
 4074SOL     OW15623   2.712   6.742   2.695  0.0072  0.3789 -0.5475
 4074SOL    HW115624   2.691   6.725   2.787  1.7054 -2.3359 -0.5747
 4074SOL    HW215625   2.804   6.767   2.695 -0.3994  2.0142 -1.3957
 4075SOL     OW15626   6.403   4.234   0.351  0.5195  0.3722  0.0042
 4075SOL    HW115627   6.346   4.292   0.302 -1.1155 -0.2190  1.1365
 4075SOL    HW215628   6.432   4.286   0.426 -1.4154 -0.3895  1.3362
 4076SOL     OW15629   9.167   8.748   6.099  0.1186  0.0366  0.0889
 4076SOL    HW115630   9.170   8.784   6.010 -0.5410 -0.6390 -0.2244
 4076SOL    HW215631   9.147   8.655   6.086  0.9450 -0.2622  0.9079
 4077SOL     OW15632   0.701  10.447   7.375 -0.3494  0.7765 -0.5777
 4077SOL    HW115633   0.737  10.531   7.402  0.7331  0.4359 -0.9182
 4077SOL    HW215634   0.653  10.466   7.295 -1.4772  1.3406  0.1991
 4078SOL     OW15635   6.752   0.529   3.853 -0.0515  0.6629  0.1483
 4078SOL    HW115636   6.767   0.481   3.772  1.4599  1.4147 -0.0579
 4078SOL    HW215637   6.691   0.474   3.903 -0.5449 -0.0835 -1.2398
 4079SOL     OW15638   6.919   1.348   4.408  0.2723  0.0996  0.7555
 4079SOL    HW115639   6.884   1.308   4.487  0.7968 -1.0277  0.4439
 4079SOL    HW215640   7.014   1.333   4.414  0.3178  0.0069 -0.0742
 4080SOL     OW15641   1.636   2.709   9.065 -0.0767 -0.1620 -0.8190
 4080SOL    HW115642   1.604   2.619   9.066 -0.8444  0.0984  0.2077
 4080SOL    HW215643   1.626   2.739   9.156 -0.1458  1.0530 -1.2064
 4081SOL     OW15644   0.015   1.304   0.488  0.1003 -0.1753  0.3594
 4081SOL    HW115645  -0.072   1.342   0.503  0.0936 -0.1747  0.3188
 4081SOL    HW215646   0.024   1.300   0.393  0.6165  0.9103  0.3462
 4082SOL     OW15647   5.598   1.255   2.330 -0.3483  0.0025  0.4310
 4082SOL    HW115648   5.532   1.187   2.335 -0.7253  0.3368  0.0240
 4082SOL    HW215649   5.678   1.210   2.304 -0.8486 -0.1318 -0.9587
 4083SOL     OW15650   6.222   1.724   7.148  1.0149 -0.1811 -0.6873
 4083SOL    HW115651   6.233   1.810   7.107 -3.2075  0.7096 -0.3407
 4083SOL    HW215652   6.221   1.662   7.074  4.1562 -0.0985 -0.9299
 4084SOL     OW15653   7.633   4.931   0.505 -0.0482  0.2651 -0.1370
 4084SOL    HW115654   7.611   4.839   0.493  0.5680 -0.1181  1.4851
 4084SOL    HW215655   7.712   4.944   0.453  0.2137 -0.2796  0.1213
 4085SOL     OW15656   2.909   3.625  10.907 -0.1431  0.1501 -0.0930
 4085SOL    HW115657   2.882   3.598  10.995 -0.1045  1.0704  0.2127
 4085SOL    HW215658   2.899   3.720  10.907  1.2969  0.3272 -0.5855
 4086SOL     OW15659   1.710   3.899   5.193 -0.2612 -0.1779  0.0905
 4086SOL    HW115660   1.782   3.950   5.230  0.3873  1.0733 -2.6536
 4086SOL    HW215661   1.745   3.811   5.185  0.3348  0.0230  0.3797
 4087SOL     OW15662   0.719   1.887   6.061 -0.2542 -0.2065  0.2886
 4087SOL    HW115663   0.767   1.927   5.989  0.2389 -2.5269 -0.7536
 4087SOL    HW215664   0.631   1.873   6.026 -0.3492 -0.2536  0.5451
 4088SOL     OW15665   3.594   5.120   9.388  0.2392  0.3185  0.1679
 4088SOL    HW115666   3.500   5.122   9.403  0.1385 -0.9283 -0.2250
 4088SOL    HW215667   3.612   5.197   9.334 -0.2765  1.5246  1.6242
 4089SOL     OW15668   7.923   7.395   2.411 -0.0794 -0.1671 -0.4225
 4089SOL    HW115669   8.009   7.433   2.429 -0.6580  0.8084  0.4097
 4089SOL    HW215670   7.932   7.303   2.436  0.4816  0.1240  0.5161
 4090SOL     OW15671   6.799   2.796   0.730  0.7934  0.0360 -0.1122
 4090SOL    HW115672   6.868   2.815   0.667 -0.5371 -0.2510 -1.7206
 4090SOL    HW215673   6.845   2.789   0.814  2.3969  2.1130 -0.7355
 4091SOL     OW15674   2.504   5.368   6.477 -0.6038 -0.9316  0.4304
 4091SOL    HW115675   2.472   5.282   6.506 -0.7337 -0.6454  1.1367
 4091SOL    HW215676   2.514   5.358   6.382 -1.3990 -1.4844  0.3913
 4092SOL     OW15677   5.539   3.089   7.732  0.1658 -0.2699  0.4599
 4092SOL    HW115678   5.464   3.104   7.790 -1.0801  0.2762 -1.1926
 4092SOL    HW215679   5.552   2.994   7.735 -0.1867 -0.3052  1.2272
 4093SOL     OW15680   2.293   1.132   3.430  0.4431 -0.4149  0.3436
 4093SOL    HW115681   2.240   1.053   3.427 -0.4057  0.1670 -1.1082
 4093SOL    HW215682   2.283   1.171   3.343 -0.5443  2.1481  1.4908
 4094SOL     OW15683   9.544   9.153   1.007  0.1237 -0.2775  0.3383
 4094SOL    HW115684   9.561   9.215   1.078 -0.0945  2.2796 -1.6875
 4094SOL    HW215685   9.581   9.194   0.930 -0.9788 -2.2158 -1.3355
 4095SOL     OW15686   5.197   8.750   6.590  0.5930  0.1240  0.3894
 4095SOL    HW115687   5.139   8.782   6.659 -0.4498 -0.7338 -0.0417
 4095SOL    HW215688   5.256   8.823   6.572  0.6506  0.4833  1.9224
 4096SOL     OW15689   3.445   0.308   6.219 -0.1110  0.6539 -0.4645
 4096SOL    HW115690   3.420   0.243   6.285  0.3927 -0.7476 -1.6111
 4096SOL    HW215691   3.367   0.363   6.209 -1.0026 -0.5603 -0.3757
 4097SOL     OW15692   4.914   9.504   1.820 -0.0079  0.3333  0.4264
 4097SOL    HW115693   4.977   9.554   1.768  0.2620  0.6245  1.0225
 4097SOL    HW215694   4.931   9.413   1.797  0.2197  0.4486  0.1306
 4098SOL     OW15695   9.807   9.535   2.764  0.0886  0.5608 -0.5408
 4098SOL    HW115696   9.808   9.440   2.751 -1.9236  0.6334 -1.6323
 4098SOL    HW215697   9.797   9.546   2.859  1.1569 -0.2943 -0.3205
 4099SOL     OW15698   5.797  10.534   5.739 -0.0241 -0.4260 -0.1827
 4099SOL    HW115699   5.806  10.624   5.770  1.8746 -0.2671 -1.0634
 4099SOL    HW215700   5.828  10.536   5.649  0.3478 -2.0120 -0.1244
 4100SOL     OW15701   2.220   0.752  10.643  0.1950  0.1681 -0.0054
 4100SOL    HW115702   2.245   0.826  10.588 -1.7155  1.4183  0.7031
 4100SOL    HW215703   2.288   0.749  10.711  0.4639  1.0753 -0.2205
 4101SOL     OW15704   3.537   6.351   7.653  0.0005 -0.2260 -0.1133
 4101SOL    HW115705   3.442   6.356   7.656 -0.0503 -1.0215 -0.3202
 4101SOL    HW215706   3.566   6.441   7.670 -0.7813  0.0222 -0.0583
 4102SOL     OW15707  10.007   4.355   2.529  0.0734  0.2430  0.0378
 4102SOL    HW115708   9.977   4.435   2.573  1.0961  0.4160  0.4480
 4102SOL    HW215709  10.072   4.318   2.588  0.3250 -0.3677 -0.6075
 4103SOL     OW15710  10.588   0.371   1.737  0.2429 -0.1690  0.6498
 4103SOL    HW115711  10.535   0.300   1.701 -1.5014  0.6551  1.4406
 4103SOL    HW215712  10.562   0.448   1.687  0.8004  0.2424  0.9776
 4104SOL     OW15713   2.206   6.421   3.793  0.4598 -0.1552 -0.2077
 4104SOL    HW115714   2.208   6.384   3.705  0.8250 -0.0977 -0.2273
 4104SOL    HW215715   2.298   6.437   3.814  0.4890 -1.4133  0.7177
 4105SOL     OW15716   6.999   3.763   9.051  0.0475  0.5130 -0.1371
 4105SOL    HW115717   6.984   3.854   9.075  0.2217  0.2977  0.8220
 4105SOL    HW215718   6.941   3.747   8.976  0.1419  1.4499 -0.4153
 4106SOL     OW15719   5.913   6.779   9.028  0.1731 -0.1186 -0.5955
 4106SOL    HW115720   5.830   6.774   9.075  0.1714  0.1706 -0.5679
 4106SOL    HW215721   5.977   6.803   9.095 -0.0437  1.6212 -0.9719
 4107SOL     OW15722  10.842   3.126   4.727 -0.1909 -0.0848  0.3575
 4107SOL    HW115723  10.823   3.123   4.821  0.4885 -0.0538  0.4954
 4107SOL    HW215724  10.821   3.038   4.696 -1.2740  0.1499  0.3589
 4108SOL     OW15725   1.564   3.382   4.737 -0.6662 -0.1155 -0.2286
 4108SOL    HW115726   1.622   3.308   4.721  3.0880  2.6934 -0.9113
 4108SOL    HW215727   1.523   3.362   4.821  0.5241 -2.7212 -0.1706
 4109SOL     OW15728   1.575   2.315   7.589 -0.4551 -0.2594 -0.0741
 4109SOL    HW115729   1.662   2.314   7.549  0.2181 -0.8623  1.3410
 4109SOL    HW215730   1.581   2.381   7.658 -1.5339  0.6151 -0.7688
 4110SOL     OW15731   8.280   5.754   6.122 -0.6387 -0.0641 -0.2377
 4110SOL    HW115732   8.221   5.691   6.164 -0.8782  0.0411 -0.4162
 4110SOL    HW215733   8.262   5.745   6.028 -2.3026  1.8565 -0.1738
 4111SOL     OW15734   0.730   5.386   9.122 -0.1975  0.0998 -0.2254
 4111SOL    HW115735   0.826   5.387   9.121 -0.0156 -3.5482  0.3908
 4111SOL    HW215736   0.706   5.369   9.031 -0.2380  0.3026 -0.2529
 4112SOL     OW15737   4.341   6.425   6.481  0.7254 -0.0116  0.3480
 4112SOL    HW115738   4.313   6.517   6.483 -2.2049 -0.7743 -1.0309
 4112SOL    HW215739   4.353   6.402   6.574 -1.4402  0.9841  0.9264
 4113SOL     OW15740   7.940   3.893   7.704 -0.1332  0.2257  0.3026
 4113SOL    HW115741   7.871   3.936   7.653  0.3119 -0.1529 -0.6514
 4113SOL    HW215742   7.949   3.947   7.782 -1.6014  0.1997  0.5137
 4114SOL     OW15743   8.803   1.426  10.023 -0.2377 -0.4003 -0.1163
 4114SOL    HW115744   8.802   1.517  10.053 -1.0336 -0.4805  0.1189
 4114SOL    HW215745   8.817   1.431   9.929 -0.1389 -0.0461 -0.0833
 4115SOL     OW15746   4.592   9.627  10.698 -0.3322  0.0432 -0.0597
 4115SOL    HW115747   4.622   9.584  10.618 -0.8942  0.4476 -0.4944
 4115SOL    HW215748   4.497   9.621  10.695 -0.3409 -2.2117  1.8640
 4116SOL     OW15749   8.660   1.967   3.126 -0.1448  0.6387  0.1124
 4116SOL    HW115750   8.643   2.038   3.187  0.8867  1.7770 -0.8725
 4116SOL    HW215751   8.752   1.977   3.102 -1.2212  2.4099 -4.2120
 4117SOL     OW15752   1.238   5.054   6.020 -0.2439  0.2631  0.5808
 4117SOL    HW115753   1.275   5.032   5.934  0.6891 -0.9070  1.2570
 4117SOL    HW215754   1.166   5.114   6.000 -0.5255 -0.5658 -1.0960
 4118SOL     OW15755   4.360   6.862   8.644 -0.0132  0.1922  0.2435
 4118SOL    HW115756   4.430   6.809   8.682  0.0299  0.1845  0.1549
 4118SOL    HW215757   4.283   6.805   8.648  0.3964 -0.5432 -1.4196
 4119SOL     OW15758   1.792   2.768   6.212 -0.4468 -0.3853 -0.0047
 4119SOL    HW115759   1.837   2.828   6.271 -2.6553  0.2187  1.1765
 4119SOL    HW215760   1.708   2.749   6.255 -1.9580 -0.3683 -2.6617
 4120SOL     OW15761   1.142   1.501   3.452  0.1118 -0.1087 -0.1354
 4120SOL    HW115762   1.058   1.455   3.449 -0.3571  0.7470 -2.3490
 4120SOL    HW215763   1.126   1.577   3.508 -0.3240 -0.4311  0.1824
 4121SOL     OW15764   0.568   0.012   0.814  0.8248 -0.1381 -0.1772
 4121SOL    HW115765   0.525   0.058   0.886 -0.5431 -0.0959 -0.9802
 4121SOL    HW215766   0.545  -0.080   0.828  1.2899 -0.2404 -0.0784
 4122SOL     OW15767   9.899   8.798   7.218 -0.1499  0.0416  0.3505
 4122SOL    HW115768   9.922   8.870   7.276  1.1875 -1.3625  1.6464
 4122SOL    HW215769   9.822   8.757   7.259 -0.2350  0.0634  0.2146
 4123SOL     OW15770   9.962   7.818   4.701  0.0632  0.1341  0.1177
 4123SOL    HW115771  10.052   7.811   4.667  0.0614 -0.0629  0.1514
 4123SOL    HW215772   9.973   7.831   4.795  0.1559  3.5513 -0.2592
 4124SOL     OW15773   3.100   0.892   2.612 -0.2424 -0.5746  0.1106
 4124SOL    HW115774   3.184   0.932   2.632 -1.2770  0.5131  2.7173
 4124SOL    HW215775   3.109   0.801   2.641  0.5974 -1.0221 -1.4408
 4125SOL     OW15776   0.416   8.101   0.916  0.0338  0.2688 -0.0677
 4125SOL    HW115777   0.442   8.077   0.827  1.8440  1.3025  0.1411
 4125SOL    HW215778   0.395   8.194   0.911 -3.8288 -0.4374 -0.1951
 4126SOL     OW15779   4.113   6.602   4.474  0.1117  0.4589  0.4709
 4126SOL    HW115780   4.132   6.599   4.380  1.1801  0.9155  0.6609
 4126SOL    HW215781   4.066   6.520   4.491 -1.8510  1.2493 -0.8008
 4127SOL     OW15782   9.158   3.428   1.285 -0.3743 -0.0221  0.1053
 4127SOL    HW115783   9.129   3.353   1.232  0.2197  0.2189 -0.5804
 4127SOL    HW215784   9.222   3.392   1.346  1.6040  0.2343 -1.6828
 4128SOL     OW15785   0.096  10.406  10.524  0.0640 -0.3010 -0.1157
 4128SOL    HW115786   0.185  10.382  10.496 -0.3627  1.0121 -2.9556
 4128SOL    HW215787   0.104  10.420  10.618  2.7286 -0.8221 -0.1725
 4129SOL     OW15788   8.724   6.666   1.021  0.2453 -0.1962 -0.1181
 4129SOL    HW115789   8.664   6.594   1.041 -0.1185  0.2873  0.5797
 4129SOL    HW215790   8.791   6.662   1.090 -0.1105  0.4840  0.2852
 4130SOL     OW15791   0.555   3.716   0.895  0.3666  0.0626  0.4686
 4130SOL    HW115792   0.571   3.623   0.883  1.3380  0.1226  1.2396
 4130SOL    HW215793   0.634   3.750   0.937  0.3315  1.3717 -0.4501
 4131SOL     OW15794   5.889   6.311   4.950  0.3574 -0.2345 -0.1134
 4131SOL    HW115795   5.861   6.219   4.952  0.4699 -0.2585  0.7302
 4131SOL    HW215796   5.868   6.341   4.862 -0.4289 -0.8387 -0.1401
 4132SOL     OW15797   2.825   0.892   2.378 -0.0555  0.1362 -0.2528
 4132SOL    HW115798   2.804   0.806   2.414 -0.5153 -0.2341 -1.3544
 4132SOL    HW215799   2.740   0.935   2.367  0.0289  0.0503 -1.3355
 4133SOL     OW15800   6.733   4.874  10.372 -0.5748 -0.3733 -0.0661
 4133SOL    HW115801   6.825   4.875  10.400 -0.5353 -0.7006 -0.1842
 4133SOL    HW215802   6.706   4.783  10.381 -0.7537 -0.3614 -0.4730
 4134SOL     OW15803   6.542   3.029   2.396  0.2784 -0.3987  0.7397
 4134SOL    HW115804   6.574   2.951   2.352  1.2180 -1.0581  2.4751
 4134SOL    HW215805   6.607   3.046   2.464 -0.2247  1.5439  0.8013
 4135SOL     OW15806   0.144   6.144   8.319  0.1260 -0.0689 -0.0326
 4135SOL    HW115807   0.210   6.160   8.386 -0.0171 -2.3631  0.7591
 4135SOL    HW215808   0.194   6.131   8.238  0.5463 -0.2177  0.2486
 4136SOL     OW15809   3.771   6.384   6.616 -0.3251  0.2561  0.2948
 4136SOL    HW115810   3.680   6.358   6.624 -0.4947 -0.3331 -2.5785
 4136SOL    HW215811   3.792   6.373   6.523  2.8636 -0.2554  0.9319
 4137SOL     OW15812   4.406  10.254   0.935  0.4500 -0.1072 -0.2740
 4137SOL    HW115813   4.339  10.193   0.966  0.2721 -0.1154 -0.6592
 4137SOL    HW215814   4.487  10.225   0.976  0.2158 -0.0964  0.2015
 4138SOL     OW15815   5.339  10.876   9.682 -0.3081 -0.6917 -0.5957
 4138SOL    HW115816   5.320  10.782   9.684  1.2437 -1.0313 -0.3739
 4138SOL    HW215817   5.425  10.883   9.724 -0.8274  0.9423  0.2716
 4139SOL     OW15818  10.185   0.259   5.726 -0.0183 -0.7977  0.1061
 4139SOL    HW115819  10.176   0.325   5.795  0.8517  0.2864 -0.7786
 4139SOL    HW215820  10.152   0.179   5.766 -1.3207  0.2039  1.1442
 4140SOL     OW15821   0.142   4.593   3.895  0.5024  0.0351  0.7822
 4140SOL    HW115822   0.227   4.555   3.916  0.4911 -0.5285 -0.1179
 4140SOL    HW215823   0.115   4.637   3.975  1.9781  0.8701  0.8740
 4141SOL     OW15824  10.424   7.505   8.857  0.3186  0.4350 -0.1190
 4141SOL    HW115825  10.431   7.598   8.836  1.0096  0.9802  2.1582
 4141SOL    HW215826  10.354   7.501   8.923  0.3167 -0.6588 -0.1719
 4142SOL     OW15827   3.475   1.716  10.779 -0.1734  0.3679  0.0605
 4142SOL    HW115828   3.448   1.735  10.869 -0.9606 -2.5700  0.5751
 4142SOL    HW215829   3.491   1.621  10.779  1.4199  0.5295 -2.5143
 4143SOL     OW15830   1.053   5.955   8.529  0.0103  0.0753  0.0628
 4143SOL    HW115831   1.145   5.931   8.535  0.0289  0.0867 -0.1724
 4143SOL    HW215832   1.044   6.031   8.585  0.4102  0.8407 -0.8852
 4144SOL     OW15833   5.762   4.652   4.687 -0.6822 -0.0960 -0.2443
 4144SOL    HW115834   5.694   4.593   4.655  0.0676 -0.9299 -0.3744
 4144SOL    HW215835   5.772   4.717   4.618 -0.9321 -0.3302 -0.5029
 4145SOL     OW15836   8.604   4.904   8.446 -0.0998 -0.0260 -0.2841
 4145SOL    HW115837   8.665   4.834   8.468  0.6109  0.6429 -0.1000
 4145SOL    HW215838   8.544   4.908   8.521 -0.4689 -0.7659 -0.5219
 4146SOL     OW15839   9.369   8.422   8.680  0.4831  0.0162 -0.1836
 4146SOL    HW115840   9.352   8.470   8.600 -0.4152 -1.7274 -1.1054
 4146SOL    HW215841   9.464   8.426   8.692  0.4769  1.4751 -0.5393
 4147SOL     OW15842  10.011   9.131   8.802  0.6218  0.6184  0.0673
 4147SOL    HW115843  10.073   9.108   8.871 -0.4416  2.1138  1.6229
 4147SOL    HW215844   9.962   9.051   8.786  3.3550 -0.8041 -1.7379
 4148SOL     OW15845   0.598   9.713   0.709 -0.0163  0.3616 -0.2430
 4148SOL    HW115846   0.587   9.804   0.739 -0.5584  0.7394 -1.5341
 4148SOL    HW215847   0.598   9.662   0.790 -0.7128  1.4150  0.4553
 4149SOL     OW15848   6.045   9.854   3.911 -0.1357  0.3477 -0.0804
 4149SOL    HW115849   6.004   9.940   3.906  1.5423  1.1789 -0.5004
 4149SOL    HW215850   6.080   9.848   4.000 -0.4191  0.0163  0.0105
 4150SOL     OW15851   6.762   0.628   0.917 -0.3320  0.1920 -0.7803
 4150SOL    HW115852   6.710   0.585   0.850 -0.4765 -0.0127 -0.5416
 4150SOL    HW215853   6.740   0.581   0.998  1.5498 -1.0700 -0.9458
 4151SOL     OW15854   7.891   7.081   2.021  0.5535  0.1305  0.5153
 4151SOL    HW115855   7.804   7.114   2.043  0.8353  0.8353  0.5905
 4151SOL    HW215856   7.909   7.015   2.088  0.3674  0.4792  0.9147
 4152SOL     OW15857  10.163   7.536   9.702  0.5767  0.2014  0.2313
 4152SOL    HW115858  10.150   7.585   9.622 -0.1287 -1.4961 -0.7544
 4152SOL    HW215859  10.257   7.539   9.718  0.7064  0.6595 -0.5920
 4153SOL     OW15860   8.973   0.725   2.764  0.2970 -0.7802  0.2974
 4153SOL    HW115861   8.998   0.634   2.777 -2.1929 -1.5839 -0.1486
 4153SOL    HW215862   9.036   0.774   2.817  0.8789 -2.8246  1.6225
 4154SOL     OW15863   5.194   9.540   0.748  0.0363 -0.1304 -0.4236
 4154SOL    HW115864   5.127   9.485   0.788  0.0328  0.5787  0.5802
 4154SOL    HW215865   5.189   9.520   0.654 -1.1332 -0.5511 -0.2835
 4155SOL     OW15866   0.828   3.547   3.631 -0.9053  0.0321 -0.5916
 4155SOL    HW115867   0.858   3.594   3.709 -0.2754 -0.7387 -0.3601
 4155SOL    HW215868   0.733   3.544   3.641 -0.9452  1.0723 -0.5156
 4156SOL     OW15869   8.100   0.475   2.305 -0.3686 -0.5996 -0.4058
 4156SOL    HW115870   8.110   0.559   2.262  2.3610  0.0051  1.2111
 4156SOL    HW215871   8.066   0.417   2.237  0.0378  1.2111 -2.2390
 4157SOL     OW15872   7.237   6.093   9.479  0.0492 -0.3186 -0.6041
 4157SOL    HW115873   7.161   6.122   9.530  0.8082 -1.0675  1.0341
 4157SOL    HW215874   7.232   5.998   9.481  1.4597 -0.4082  0.2922
 4158SOL     OW15875  10.538   5.243   5.607 -0.5002  0.2387  0.4895
 4158SOL    HW115876  10.506   5.213   5.522 -2.4691  1.3794  0.7833
 4158SOL    HW215877  10.628   5.272   5.589 -1.0672  1.0189 -1.3637
 4159SOL     OW15878   1.405   1.692  10.462 -0.4986  0.9623  0.1499
 4159SOL    HW115879   1.477   1.714  10.522  0.9781  0.4118 -1.3617
 4159SOL    HW215880   1.390   1.598  10.476  1.2774  0.3278 -1.7258
 4160SOL     OW15881   7.236   4.073   3.182 -0.1345  0.2115  0.3374
 4160SOL    HW115882   7.218   4.066   3.089 -0.1004 -1.4849  0.4377
 4160SOL    HW215883   7.159   4.036   3.225  0.2131  0.2008  0.9647
 4161SOL     OW15884  10.771   4.423   7.957  0.1451 -0.5511  0.2206
 4161SOL    HW115885  10.681   4.392   7.965  0.0755 -0.4001  0.0298
 4161SOL    HW215886  10.786   4.476   8.035  0.4537 -1.5248  0.8382
 4162SOL     OW15887   6.087   8.894   9.213 -0.3047 -0.3713  0.1029
 4162SOL    HW115888   6.113   8.885   9.305 -1.2881 -1.0210  0.3331
 4162SOL    HW215889   6.046   8.981   9.209  1.5435  0.5372 -0.2002
 4163SOL     OW15890   6.886   1.399   4.137 -0.3090 -0.1838 -0.2579
 4163SOL    HW115891   6.892   1.404   4.232 -3.1504 -0.4294  0.0350
 4163SOL    HW215892   6.928   1.316   4.115  1.5765  0.4926  0.5704
 4164SOL     OW15893   5.376   5.149   4.060 -0.1631  0.1113  0.1654
 4164SOL    HW115894   5.450   5.118   4.112  0.5928  2.1666  0.4269
 4164SOL    HW215895   5.307   5.165   4.125 -0.7626 -1.4651 -0.0375
 4165SOL     OW15896   9.757   2.120   9.860 -0.1567  0.3233 -0.5903
 4165SOL    HW115897   9.772   2.143   9.952 -1.1169  1.2206 -0.6492
 4165SOL    HW215898   9.836   2.071   9.835 -0.5507 -1.3120  1.1440
 4166SOL     OW15899   6.014   7.844   8.699 -0.0945 -0.3759 -0.2357
 4166SOL    HW115900   6.064   7.911   8.745 -0.4052  1.2585 -2.1534
 4166SOL    HW215901   5.967   7.798   8.769  2.0977 -0.3444  1.3813
 4167SOL     OW15902   6.204   4.474  10.710  0.2911 -0.6745  0.6568
 4167SOL    HW115903   6.215   4.415  10.784 -0.5564 -1.6126  0.0481
 4167SOL    HW215904   6.124   4.445  10.666  1.2393 -0.7044 -1.1460
 4168SOL     OW15905   8.160   4.620   6.531  0.1531 -0.1878  0.0980
 4168SOL    HW115906   8.115   4.554   6.478 -0.5360  0.7502 -0.5161
 4168SOL    HW215907   8.123   4.608   6.619 -0.8912  0.1778 -0.2741
 4169SOL     OW15908   8.906  10.039   8.347  0.4801  0.6671 -0.4244
 4169SOL    HW115909   8.858  10.113   8.309 -1.6620 -0.3144  0.2191
 4169SOL    HW215910   8.998  10.060   8.331 -0.1749  1.6959 -3.5192
 4170SOL     OW15911  10.478   0.335   7.335 -0.1150 -0.0501  0.1227
 4170SOL    HW115912  10.534   0.412   7.326  0.5644 -0.4737  0.6050
 4170SOL    HW215913  10.419   0.357   7.407 -3.4503  2.0752 -2.9251
 4171SOL     OW15914   6.959   7.277   4.516 -0.0385  0.1446 -0.4774
 4171SOL    HW115915   7.028   7.296   4.453 -0.2693 -1.3694 -1.2522
 4171SOL    HW215916   6.886   7.334   4.492  0.3078  0.4383 -0.8221
 4172SOL     OW15917   2.065   9.289   5.182  0.4963  0.3392  0.0233
 4172SOL    HW115918   2.045   9.320   5.093  2.5298 -0.7338 -0.8708
 4172SOL    HW215919   2.150   9.326   5.202 -0.2207  1.1068  1.8485
 4173SOL     OW15920   3.096   3.450   0.901  0.1725 -0.2208 -0.5479
 4173SOL    HW115921   3.096   3.359   0.871  1.5381 -0.7671  0.9299
 4173SOL    HW215922   3.164   3.492   0.848  0.1179 -0.2647 -0.6542
 4174SOL     OW15923   2.611   8.125   9.901  0.2353  0.4825  0.0239
 4174SOL    HW115924   2.642   8.124   9.810 -0.4394  1.4341 -0.2233
 4174SOL    HW215925   2.683   8.165   9.950  0.9997 -0.8851  0.0883
 4175SOL     OW15926   7.769  10.766   2.957 -0.4265 -0.4838 -0.2370
 4175SOL    HW115927   7.684  10.808   2.949 -0.4685 -0.8472 -2.2906
 4175SOL    HW215928   7.825  10.813   2.895  0.8994 -0.2100  1.1185
 4176SOL     OW15929   9.199   2.703   0.936 -0.0832  0.2136  0.2098
 4176SOL    HW115930   9.120   2.740   0.974 -0.3431 -0.2333  0.1170
 4176SOL    HW215931   9.173   2.616   0.907  1.0657 -1.0528  2.5933
 4177SOL     OW15932   9.226   6.619  10.624 -0.5909 -0.2835 -0.1454
 4177SOL    HW115933   9.223   6.547  10.562 -1.5244  1.7344 -2.6138
 4177SOL    HW215934   9.158   6.598  10.688 -0.4267 -1.8499 -0.4412
 4178SOL     OW15935   6.196   3.384   6.270 -0.3811 -0.1059 -0.4904
 4178SOL    HW115936   6.275   3.377   6.216  2.1415 -0.0232  2.8775
 4178SOL    HW215937   6.213   3.460   6.326 -2.7928 -0.2304  0.4934
 4179SOL     OW15938   9.485   0.631   6.452  0.7339 -0.3086  0.8922
 4179SOL    HW115939   9.401   0.646   6.409  0.7142  0.0118  1.0370
 4179SOL    HW215940   9.464   0.570   6.523 -0.0037  2.0031  2.8475
 4180SOL     OW15941   2.439   4.888   9.905 -0.0609  0.1242 -0.1958
 4180SOL    HW115942   2.516   4.832   9.901 -0.0171  0.0362  1.4231
 4180SOL    HW215943   2.475   4.977   9.903  0.1427  0.0851  1.2331
 4181SOL     OW15944   8.208   9.952   1.399  0.0746 -0.7046  0.4594
 4181SOL    HW115945   8.228   9.880   1.459  0.6657 -2.2923 -1.5443
 4181SOL    HW215946   8.290  10.000   1.391 -0.5863  0.9737  2.6451
 4182SOL     OW15947   8.515   0.904   8.654 -0.0581 -0.3911  0.1133
 4182SOL    HW115948   8.509   0.848   8.731  1.7802 -0.9705 -0.1188
 4182SOL    HW215949   8.502   0.845   8.580  0.4741 -0.2584 -0.0867
 4183SOL     OW15950  10.315   5.191   1.710 -0.1448 -0.5931  0.6063
 4183SOL    HW115951  10.336   5.277   1.674 -0.9789 -0.6534 -0.0365
 4183SOL    HW215952  10.268   5.210   1.791 -1.4007 -0.4205 -0.1469
 4184SOL     OW15953   8.225   4.819   9.318 -0.4141  0.2428  0.3941
 4184SOL    HW115954   8.193   4.733   9.343 -0.4896  0.0233 -0.4480
 4184SOL    HW215955   8.265   4.806   9.232 -2.4190  1.4707 -0.8032
 4185SOL     OW15956   4.392   9.632   1.206  0.6101  0.1040 -0.3617
 4185SOL    HW115957   4.330   9.653   1.135 -1.9776 -0.2469  1.6321
 4185SOL    HW215958   4.377   9.539   1.224  2.3520 -0.1976 -0.3277
 4186SOL     OW15959   1.447   6.959   1.474  0.1560 -0.0653 -0.2220
 4186SOL    HW115960   1.541   6.967   1.455 -0.2595  0.8649 -2.1045
 4186SOL    HW215961   1.420   6.878   1.430  0.5105 -1.8829  2.5774
 4187SOL     OW15962   8.106   2.592   3.548  0.1011  0.3437 -0.7143
 4187SOL    HW115963   8.051   2.666   3.573 -0.7210 -0.5719  0.2924
 4187SOL    HW215964   8.132   2.611   3.458 -0.5748  1.5579 -0.6788
 4188SOL     OW15965   7.411   5.357   5.159 -0.3452  0.4772 -0.3064
 4188SOL    HW115966   7.441   5.270   5.132 -0.1996  0.1162  0.9162
 4188SOL    HW215967   7.319   5.343   5.182 -0.6054  0.8847 -1.0748
 4189SOL     OW15968   8.575   2.876   7.531  0.3389 -0.0149  0.2854
 4189SOL    HW115969   8.534   2.960   7.511 -1.1948 -0.5864  0.8754
 4189SOL    HW215970   8.613   2.848   7.448 -3.9432 -1.2991 -1.5239
 4190SOL     OW15971   1.716   3.829   1.104 -0.1349  0.1124 -0.2023
 4190SOL    HW115972   1.646   3.783   1.150  0.8426 -1.3133 -0.0840
 4190SOL    HW215973   1.755   3.763   1.046  2.4764  0.1874  1.2857
 4191SOL     OW15974   1.258   2.377   6.168 -0.2409  0.8529 -0.5649
 4191SOL    HW115975   1.181   2.431   6.185 -0.8964 -0.8278  2.4217
 4191SOL    HW215976   1.224   2.287   6.165  1.1355  0.3060 -3.1322
 4192SOL     OW15977   3.932   5.988   1.428 -0.0318  0.3103  0.6846
 4192SOL    HW115978   3.997   6.040   1.474 -0.5110 -0.0606  1.8124
 4192SOL    HW215979   3.972   5.968   1.343  0.3289  2.1172  0.4016
 4193SOL     OW15980   9.665   4.815   0.740  0.4243  0.5301 -0.4036
 4193SOL    HW115981   9.684   4.730   0.701  0.9759  0.2778  0.3967
 4193SOL    HW215982   9.569   4.821   0.738  0.3125 -0.6015  0.5290
 4194SOL     OW15983   2.805   8.780   9.032 -0.1128 -0.2860  0.3892
 4194SOL    HW115984   2.810   8.712   8.965  4.1358  0.4292 -0.3328
 4194SOL    HW215985   2.777   8.858   8.985 -0.1286 -0.4728  0.0893
 4195SOL     OW15986  10.104   0.924   6.721 -0.1117  0.2478  0.2571
 4195SOL    HW115987  10.161   0.849   6.702 -1.4378 -0.1861 -2.5656
 4195SOL    HW215988  10.164   0.994   6.743  1.3887 -0.8289 -0.2001
 4196SOL     OW15989   0.722   7.758   9.122 -0.2593  0.4234 -0.4030
 4196SOL    HW115990   0.691   7.771   9.211 -1.3371  2.1972 -0.9765
 4196SOL    HW215991   0.768   7.840   9.101  1.8938 -0.8042 -0.7708
 4197SOL     OW15992   5.293   5.731   3.909  0.2061 -0.3207  0.6415
 4197SOL    HW115993   5.279   5.637   3.897 -2.7061  0.2980 -2.4270
 4197SOL    HW215994   5.377   5.749   3.865 -1.3369 -1.0150 -2.9449
 4198SOL     OW15995   2.345   4.914   5.424 -0.6682 -0.0673  0.3102
 4198SOL    HW115996   2.323   4.852   5.493  1.6834 -0.4052  0.8337
 4198SOL    HW215997   2.357   4.997   5.469  0.2814 -0.1578  0.2435
 4199SOL     OW15998   2.380  10.760   6.895  0.4248  0.1245  0.1097
 4199SOL    HW115999   2.316  10.753   6.825  1.3038 -0.0513 -0.6914
 4199SOL    HW216000   2.425  10.676   6.896 -0.9881 -0.6944  2.3205
 4200SOL     OW16001   1.750   4.230   7.978 -0.0129  0.0169  0.2520
 4200SOL    HW116002   1.802   4.246   7.900  0.4327 -0.1931  0.5039
 4200SOL    HW216003   1.673   4.183   7.947 -0.2446  0.6768 -0.1778
 4201SOL     OW16004   9.108   0.305   5.064 -0.3354 -0.1062  0.1054
 4201SOL    HW116005   9.053   0.233   5.035 -1.0118  0.6055 -0.4108
 4201SOL    HW216006   9.075   0.382   5.018  0.3879  0.5399  0.6178
 4202SOL     OW16007   7.896   3.784   6.347  0.0548 -0.1866  0.0933
 4202SOL    HW116008   7.932   3.828   6.270 -1.0375  0.3574 -0.1356
 4202SOL    HW216009   7.861   3.702   6.313 -0.4659  0.0727 -0.0144
 4203SOL     OW16010   8.745  10.446   9.478  0.0040  0.4310  0.1864
 4203SOL    HW116011   8.796  10.526   9.495  0.2407  0.2397  0.3773
 4203SOL    HW216012   8.669  10.477   9.429  1.3061  0.4446 -1.9225
 4204SOL     OW16013   4.061   1.444   2.670 -0.0511 -0.6242 -0.1753
 4204SOL    HW116014   4.070   1.426   2.577 -0.0019 -1.4133 -0.0240
 4204SOL    HW216015   4.029   1.362   2.708 -1.4182  0.1091  0.3017
 4205SOL     OW16016   2.700   2.382   9.343 -0.5998  0.3909 -0.0246
 4205SOL    HW116017   2.727   2.456   9.289 -2.7861  2.9078  2.0471
 4205SOL    HW216018   2.780   2.357   9.391  0.7338 -0.2387 -2.4337
 4206SOL     OW16019   5.602   7.469   0.233  0.6113 -0.1555 -0.0750
 4206SOL    HW116020   5.587   7.561   0.209 -1.4025 -0.0849  1.1726
 4206SOL    HW216021   5.681   7.472   0.287  0.7473  0.8037 -0.2945
 4207SOL     OW16022   9.688   4.573   5.085  0.8130 -0.2296 -0.1076
 4207SOL    HW116023   9.766   4.535   5.123  1.4711  3.6564  3.1191
 4207SOL    HW216024   9.719   4.652   5.040 -1.0418  0.7939  0.2653
 4208SOL     OW16025   9.990   3.818   1.252 -0.5558  0.3446  0.4795
 4208SOL    HW116026   9.971   3.735   1.210 -0.5207  0.2160  0.7150
 4208SOL    HW216027   9.917   3.875   1.226 -1.5796 -0.3067  1.8006
 4209SOL     OW16028   5.602   7.495   4.582  0.2945  0.3448 -0.9009
 4209SOL    HW116029   5.582   7.436   4.654  0.4771  0.8613 -0.4217
 4209SOL    HW216030   5.578   7.445   4.503  2.8066 -1.3898 -0.6942
 4210SOL     OW16031   5.737   9.588   6.749 -0.1446 -0.0748 -0.0023
 4210SOL    HW116032   5.650   9.571   6.783  0.4191 -1.1956  0.9794
 4210SOL    HW216033   5.792   9.596   6.827  0.1693  3.8266 -0.4498
 4211SOL     OW16034   6.840   6.111  10.856 -0.0915 -0.7587 -0.1341
 4211SOL    HW116035   6.867   6.048  10.789 -0.8266 -0.2352 -0.9410
 4211SOL    HW216036   6.922   6.142  10.894  0.3243 -1.2976 -0.5745
 4212SOL     OW16037   4.511   2.220   8.368 -0.3685 -0.9625 -0.1620
 4212SOL    HW116038   4.425   2.185   8.388 -0.7502 -1.4178 -2.3754
 4212SOL    HW216039   4.495   2.298   8.315  0.5627  0.6673  1.8129
 4213SOL     OW16040   9.940   7.817   8.857 -0.1099 -0.4769 -0.4115
 4213SOL    HW116041   9.947   7.868   8.776  1.7295 -0.1789 -0.1131
 4213SOL    HW216042   9.879   7.868   8.911  0.0547  0.2864 -0.9200
 4214SOL     OW16043   8.661   9.843   1.985 -0.2191 -0.0400  0.1296
 4214SOL    HW116044   8.632   9.779   2.050 -0.8551  0.2756  0.1643
 4214SOL    HW216045   8.581   9.872   1.942  0.0337  0.9500  0.3136
 4215SOL     OW16046   2.264   3.161   4.895  0.1766  0.4659 -0.1657
 4215SOL    HW116047   2.253   3.141   4.988 -0.3782 -1.6592 -0.6226
 4215SOL    HW216048   2.358   3.172   4.884  0.1513  2.0049  0.8385
 4216SOL     OW16049   0.749   9.932   2.573  0.2051 -0.2012 -0.2199
 4216SOL    HW116050   0.700   9.967   2.648 -0.0135 -1.0489  0.0429
 4216SOL    HW216051   0.827   9.893   2.611  0.2359 -0.3784 -0.4625
 4217SOL     OW16052  10.142   5.260   2.614 -0.6621  0.2581 -0.2497
 4217SOL    HW116053  10.078   5.191   2.629 -0.8095  0.3338 -0.5222
 4217SOL    HW216054  10.198   5.226   2.545  0.0175 -0.0917  0.4606
 4218SOL     OW16055   1.631   8.605   5.653 -0.1541  0.1798 -0.1889
 4218SOL    HW116056   1.592   8.587   5.739  0.8360 -1.6007 -0.0597
 4218SOL    HW216057   1.570   8.564   5.591  0.8859 -1.6870 -0.0534
 4219SOL     OW16058   4.671   8.083   5.981  0.3528  0.0051  0.5807
 4219SOL    HW116059   4.637   8.125   5.902  0.3911 -1.4855 -0.2718
 4219SOL    HW216060   4.656   7.990   5.967  0.9047 -0.3424  2.0850
 4220SOL     OW16061   9.799   1.409   7.916 -0.1685  0.7087 -0.5019
 4220SOL    HW116062   9.749   1.471   7.968  0.4051  0.6555  0.1304
 4220SOL    HW216063   9.842   1.352   7.981 -1.1955 -0.7658 -1.0638
 4221SOL     OW16064   7.649   9.828   7.698  0.1322 -0.3081  0.3365
 4221SOL    HW116065   7.597   9.783   7.765  1.7867  1.4761  2.9908
 4221SOL    HW216066   7.587   9.888   7.656 -0.1811  1.6673  3.3183
 4222SOL     OW16067   0.662  10.413   3.209  0.4016  0.2670 -0.7290
 4222SOL    HW116068   0.704  10.450   3.287 -0.8174 -1.0000  0.6012
 4222SOL    HW216069   0.653  10.320   3.229 -1.0494  0.1224 -1.8599
 4223SOL     OW16070   6.885  10.402   4.130 -0.6058 -0.7397 -0.3003
 4223SOL    HW116071   6.966  10.448   4.109  0.3356 -2.3028 -0.2203
 4223SOL    HW216072   6.900  10.311   4.103 -1.7903 -1.3829  1.0320
 4224SOL     OW16073   9.623   9.865   8.416 -0.2575 -0.1545 -0.3167
 4224SOL    HW116074   9.617   9.786   8.362  0.7341 -0.0786 -0.5580
 4224SOL    HW216075   9.669   9.836   8.495 -0.3974  0.0648 -0.1533
 4225SOL     OW16076   2.500   7.785   3.165  0.6125 -0.1355 -0.3120
 4225SOL    HW116077   2.417   7.785   3.118 -0.6446  0.5646  1.7718
 4225SOL    HW216078   2.496   7.706   3.220  0.5422  0.7617  1.0149
 4226SOL     OW16079   1.364   6.438   1.384  0.3936  0.0906 -0.1893
 4226SOL    HW116080   1.312   6.359   1.367 -0.7460  0.5996  0.7766
 4226SOL    HW216081   1.433   6.409   1.443  0.1486 -0.2464 -0.0638
 4227SOL     OW16082   7.072   4.515   7.073  0.0826 -0.1429 -0.6896
 4227SOL    HW116083   6.989   4.468   7.083 -1.0298  1.7087 -0.5764
 4227SOL    HW216084   7.125   4.460   7.016 -0.8141 -1.8735  0.0951
 4228SOL     OW16085   7.015   1.973   6.262 -0.2565  0.1808 -0.2097
 4228SOL    HW116086   7.096   2.024   6.255  0.8713 -1.3793  0.8275
 4228SOL    HW216087   7.029   1.916   6.338 -2.4953  0.1331  0.2294
 4229SOL     OW16088   2.816   4.069   0.027 -0.5126  0.4460 -0.3046
 4229SOL    HW116089   2.811   4.117  -0.055  1.3086 -0.9293 -1.2868
 4229SOL    HW216090   2.836   4.135   0.093  2.1828  1.0978 -1.6468
 4230SOL     OW16091   2.031   1.212   3.979 -0.9718 -0.1363 -0.0807
 4230SOL    HW116092   2.023   1.130   4.028 -0.1298  0.4167  1.0319
 4230SOL    HW216093   2.067   1.186   3.894 -1.1061 -0.9570  0.1046
 4231SOL     OW16094   3.489   9.837   1.861  0.3331 -0.2023  0.1037
 4231SOL    HW116095   3.553   9.869   1.925  0.2067  0.1506  0.0540
 4231SOL    HW216096   3.417   9.803   1.914  1.3402 -2.2942  0.2169
 4232SOL     OW16097   3.365   4.459   8.957  0.3766 -0.3237 -0.2019
 4232SOL    HW116098   3.299   4.393   8.975 -1.5723  1.4911 -0.2848
 4232SOL    HW216099   3.405   4.477   9.042  0.2387 -0.8944 -0.0120
 4233SOL     OW16100  10.544   8.049   3.849  0.1142 -0.2022  0.2311
 4233SOL    HW116101  10.636   8.077   3.847  0.2164 -0.5536 -0.2014
 4233SOL    HW216102  10.495   8.129   3.829  0.4683 -0.5512 -2.4613
 4234SOL     OW16103   7.630   4.963   2.048  0.3941 -0.1146 -0.1545
 4234SOL    HW116104   7.605   4.946   2.139 -0.9790 -0.2904 -0.5530
 4234SOL    HW216105   7.667   4.880   2.018 -0.7592 -0.6079 -0.2674
 4235SOL     OW16106   3.922   5.480   3.544  0.4842 -0.0981 -0.0114
 4235SOL    HW116107   3.887   5.415   3.483 -1.2757  0.2974  0.5235
 4235SOL    HW216108   3.918   5.437   3.629  0.1722  0.3645  0.2142
 4236SOL     OW16109   2.166   4.258  10.462  0.4782  0.4630  0.1117
 4236SOL    HW116110   2.170   4.166  10.489 -0.3494  0.6829  1.0764
 4236SOL    HW216111   2.257   4.285  10.454  0.7819  0.1788  2.1340
 4237SOL     OW16112   5.134   1.906   9.270 -0.0149 -0.1586  0.0168
 4237SOL    HW116113   5.121   1.923   9.177 -0.3182 -2.0523 -0.3330
 4237SOL    HW216114   5.187   1.827   9.272 -1.0660 -0.8726  1.4428
 4238SOL     OW16115   0.948   5.197   9.565  0.1503  0.2423 -0.3455
 4238SOL    HW116116   0.987   5.284   9.555  0.2772  0.1445 -0.7276
 4238SOL    HW216117   0.870   5.212   9.618 -0.7086  0.8491 -1.7008
 4239SOL     OW16118   4.576   5.523   9.846 -0.0579 -0.2199  0.3163
 4239SOL    HW116119   4.530   5.607   9.847  0.2383 -0.0392 -0.4475
 4239SOL    HW216120   4.514   5.461   9.884 -0.2237  0.3625  1.0341
 4240SOL     OW16121   7.750   5.355   2.733 -0.1547 -0.2929 -0.0769
 4240SOL    HW116122   7.710   5.269   2.723 -0.7602  0.0995 -1.1654
 4240SOL    HW216123   7.735   5.399   2.649  0.8829  0.5703  0.1637
 4241SOL     OW16124   1.380   3.208   1.881  0.0290  0.0324 -0.1086
 4241SOL    HW116125   1.474   3.193   1.874  0.0328  0.0818 -0.1634
 4241SOL    HW216126   1.369   3.254   1.964  0.1408  0.7590 -0.4903
 4242SOL     OW16127   2.203   0.594   7.438 -0.2415  0.1774  0.2245
 4242SOL    HW116128   2.186   0.656   7.510 -0.9124  0.4206 -0.1305
 4242SOL    HW216129   2.118   0.584   7.395  0.0416 -0.3689 -0.2236
 4243SOL     OW16130   3.559   7.940   1.005  0.2868 -0.7524  0.1380
 4243SOL    HW116131   3.633   7.998   1.024 -1.1116  1.2827 -0.3909
 4243SOL    HW216132   3.545   7.892   1.086  1.0170  0.1976  0.8526
 4244SOL     OW16133  10.869   7.610  10.165  0.0003 -0.1514 -0.0053
 4244SOL    HW116134  10.879   7.530  10.113 -1.2363  0.3327 -1.0494
 4244SOL    HW216135  10.944   7.664  10.142  0.2640 -0.5706 -0.1284
 4245SOL     OW16136   3.743   1.213   6.135 -0.6804 -0.4847  0.3202
 4245SOL    HW116137   3.813   1.277   6.122 -2.3962  1.3834 -0.3577
 4245SOL    HW216138   3.744   1.194   6.229  0.9451 -0.7953  0.2592
 4246SOL     OW16139   7.612   0.924   5.353 -0.0740  0.2373  0.4520
 4246SOL    HW116140   7.560   0.939   5.274 -0.4842  0.6759  0.7975
 4246SOL    HW216141   7.595   1.001   5.408  0.4356  0.0775  0.8426
 4247SOL     OW16142   8.954   3.892   9.178 -0.2036  0.5225 -0.1109
 4247SOL    HW116143   8.921   3.971   9.220 -1.2676  1.3111 -2.2716
 4247SOL    HW216144   8.883   3.864   9.120  0.7359 -1.1448 -0.5325
 4248SOL     OW16145   0.965   4.446   7.303 -0.1079 -0.2259 -0.5985
 4248SOL    HW116146   1.025   4.407   7.367 -1.0522  0.0719  0.5088
 4248SOL    HW216147   0.958   4.538   7.329 -0.9409 -0.2277 -0.7660
 4249SOL     OW16148   3.791   7.889   3.892  0.0214 -0.0092 -0.4699
 4249SOL    HW116149   3.729   7.816   3.888  0.2305 -0.1218 -1.9746
 4249SOL    HW216150   3.838   7.875   3.975  0.2679 -1.7581 -0.8599
 4250SOL     OW16151   0.161   4.362   8.407 -0.2280  0.7357  0.9692
 4250SOL    HW116152   0.231   4.306   8.374 -0.9902  1.0665 -1.3312
 4250SOL    HW216153   0.207   4.431   8.455  0.8680 -0.2854  1.4477
 4251SOL     OW16154   2.953   0.166   3.423  0.1974  0.1650 -0.1933
 4251SOL    HW116155   2.990   0.231   3.482  2.8317 -0.5786 -0.8829
 4251SOL    HW216156   2.939   0.212   3.341  1.8367 -0.0047 -0.6095
 4252SOL     OW16157   7.431   0.552   6.644 -0.0403  0.3316  0.0417
 4252SOL    HW116158   7.406   0.644   6.650  0.9304  0.6512 -0.4739
 4252SOL    HW216159   7.512   0.546   6.695 -0.8683 -0.5623  1.2922
 4253SOL     OW16160   9.964   0.565   7.141 -0.2646 -0.2444  0.2083
 4253SOL    HW116161  10.013   0.486   7.118 -1.6602 -0.7513 -1.2179
 4253SOL    HW216162   9.872   0.540   7.131 -0.7771  1.2412  0.8593
 4254SOL     OW16163   9.958   7.024   3.870  0.0163 -0.0125  0.2266
 4254SOL    HW116164   9.880   7.059   3.825 -0.5573 -1.4739  0.0339
 4254SOL    HW216165   9.930   6.939   3.903  0.6893  0.6355  2.6636
 4255SOL     OW16166   9.870   5.315   3.241  0.1897  0.6123 -0.0317
 4255SOL    HW116167   9.943   5.253   3.239 -1.7616 -1.9199  0.7214
 4255SOL    HW216168   9.839   5.318   3.150  0.4808  0.7111 -0.1271
 4256SOL     OW16169   4.976   8.532   4.203  0.5385 -0.0419  0.2206
 4256SOL    HW116170   5.047   8.556   4.264 -2.1183  1.8125  2.8675
 4256SOL    HW216171   4.944   8.448   4.236 -0.2311  0.4617  0.7917
 4257SOL     OW16172   8.324  10.734   7.757 -0.8164  0.1598  0.5154
 4257SOL    HW116173   8.324  10.830   7.752 -1.9840  0.1052 -2.4180
 4257SOL    HW216174   8.236  10.709   7.730  0.1355 -1.7646 -1.0649
 4258SOL     OW16175  10.834   6.797   5.524  0.3628  0.0255 -0.2343
 4258SOL    HW116176  10.789   6.746   5.457  1.0437 -0.5608 -0.2577
 4258SOL    HW216177  10.785   6.782   5.604  0.4315 -0.4864 -0.2892
 4259SOL     OW16178   8.896   7.037   0.743  0.4324  0.1057  0.1987
 4259SOL    HW116179   8.843   6.968   0.782 -0.5338 -0.5442 -2.0526
 4259SOL    HW216180   8.984   7.000   0.737  0.5103  0.0809  1.3291
 4260SOL     OW16181   7.587   0.752   1.415 -0.2582 -0.0063 -0.3035
 4260SOL    HW116182   7.509   0.722   1.369 -0.3595  0.4712 -0.4542
 4260SOL    HW216183   7.599   0.843   1.386  1.7064 -0.7554 -2.0842
 4261SOL     OW16184   7.154   5.628   7.860  0.6642 -0.5825  0.4985
 4261SOL    HW116185   7.125   5.719   7.852 -0.8143 -1.0357  0.3403
 4261SOL    HW216186   7.232   5.622   7.806  0.8340  0.6126  0.5895
 4262SOL     OW16187   3.634   1.432   0.224 -0.0814 -0.7295  0.3905
 4262SOL    HW116188   3.557   1.489   0.223  0.4367  0.2146 -4.2609
 4262SOL    HW216189   3.708   1.490   0.239  0.1360 -0.8305 -0.2830
 4263SOL     OW16190   7.315   1.378   9.234  0.3271 -0.2388  0.0168
 4263SOL    HW116191   7.318   1.444   9.165 -0.4675 -0.7366 -0.5093
 4263SOL    HW216192   7.222   1.357   9.244  0.6322 -2.3028 -0.8375
 4264SOL     OW16193   1.924   6.690   4.526  0.0829 -0.2993 -0.1595
 4264SOL    HW116194   2.011   6.663   4.555 -0.4788 -2.0267  0.0551
 4264SOL    HW216195   1.889   6.743   4.598 -0.5297 -2.8848  1.5825
 4265SOL     OW16196   1.028   4.433   1.225  0.5048 -0.4125 -0.1807
 4265SOL    HW116197   1.010   4.499   1.292  1.1122  0.0045 -0.4265
 4265SOL    HW216198   1.099   4.380   1.263  1.7931  0.6402 -1.0215
 4266SOL     OW16199   9.499   8.295   9.556 -0.6294 -0.6678  0.0750
 4266SOL    HW116200   9.558   8.223   9.534 -0.2547 -0.5999  0.8267
 4266SOL    HW216201   9.443   8.305   9.478  2.4281  1.4132 -2.0713
 4267SOL     OW16202   0.789   8.177   0.500 -0.4323  0.4446  0.3151
 4267SOL    HW116203   0.850   8.104   0.501 -0.8528  0.0096  3.0069
 4267SOL    HW216204   0.736   8.164   0.421  0.6081 -1.1730 -0.1627
 4268SOL     OW16205   6.354   8.401   5.005  0.1583 -0.3307  0.6648
 4268SOL    HW116206   6.327   8.487   4.972  1.3755 -0.4336 -0.7053
 4268SOL    HW216207   6.377   8.352   4.926  3.3900 -0.5448  1.6253
 4269SOL     OW16208   9.887  10.809   1.510  0.2708  0.2045  0.0065
 4269SOL    HW116209   9.979  10.810   1.482  0.8413  2.2398  1.6800
 4269SOL    HW216210   9.844  10.874   1.455 -0.4370 -1.4404 -1.4421
 4270SOL     OW16211   9.135   8.002   0.169  0.5645  0.1092 -0.0037
 4270SOL    HW116212   9.058   8.014   0.224  1.3690  3.2733  0.6090
 4270SOL    HW216213   9.123   8.061   0.095  3.1324  2.1917  1.0720
 4271SOL     OW16214   5.975   2.795   5.798 -0.4622 -0.1998  0.3402
 4271SOL    HW116215   5.967   2.890   5.786 -0.8925 -0.5544 -2.9439
 4271SOL    HW216216   5.889   2.760   5.777 -0.3034 -1.3538  1.4930
 4272SOL     OW16217   0.989   4.734   3.865  0.0597  0.1993  0.5612
 4272SOL    HW116218   0.940   4.813   3.887  0.9342  0.5161  1.4135
 4272SOL    HW216219   0.925   4.678   3.820 -0.9973  0.7260  1.3592
 4273SOL     OW16220   8.492   2.005   4.345  0.5218 -0.0188 -0.1769
 4273SOL    HW116221   8.421   1.976   4.288  2.1034 -1.4963 -1.5324
 4273SOL    HW216222   8.531   1.924   4.378  1.5887  0.7475  0.5186
 4274SOL     OW16223   6.279   7.034  10.767 -0.6273  0.1364  0.3587
 4274SOL    HW116224   6.200   7.010  10.814 -0.1310 -1.0790  0.6117
 4274SOL    HW216225   6.299   7.123  10.797 -0.5009 -0.4796  2.2080
 4275SOL     OW16226   7.123   3.588   7.954  0.0493  0.4523 -0.0020
 4275SOL    HW116227   7.209   3.550   7.936  0.1636  0.0537  1.2592
 4275SOL    HW216228   7.135   3.682   7.942  0.2092  0.2692 -1.4763
 4276SOL     OW16229   3.641   2.156   5.569  0.6147  0.4114 -0.5756
 4276SOL    HW116230   3.652   2.136   5.662 -0.9751  2.7413  0.2200
 4276SOL    HW216231   3.731   2.163   5.535  1.3006  1.4580  1.2883
 4277SOL     OW16232   3.119   2.308   0.793 -0.7179  0.6974  0.2137
 4277SOL    HW116233   3.048   2.373   0.788 -1.1050  0.2022 -1.1552
 4277SOL    HW216234   3.173   2.326   0.716 -0.8854 -0.6748 -0.2419
 4278SOL     OW16235   2.237   9.765   2.193 -0.2224 -0.1849  0.3696
 4278SOL    HW116236   2.299   9.694   2.179  0.1781 -0.0350  1.3107
 4278SOL    HW216237   2.221   9.801   2.106  1.2670 -0.0046  0.1590
 4279SOL     OW16238   0.657   0.427   3.990  0.4281 -0.5804 -0.3476
 4279SOL    HW116239   0.716   0.384   4.052 -0.2262 -0.5850  0.2934
 4279SOL    HW216240   0.678   0.521   3.999  0.4146 -0.5909 -0.2051
 4280SOL     OW16241   2.847   8.040   6.274  0.1900  0.7140  0.3987
 4280SOL    HW116242   2.805   8.005   6.195 -0.6541  1.9157  0.2875
 4280SOL    HW216243   2.780   8.034   6.341  0.6049  0.5431  0.8006
 4281SOL     OW16244   1.251   9.212   6.343  0.4064 -0.2027  0.0347
 4281SOL    HW116245   1.179   9.274   6.331 -1.5506 -2.4848 -0.6127
 4281SOL    HW216246   1.225   9.159   6.419  1.7988 -0.5826  0.2838
 4282SOL     OW16247   2.130   0.140   8.721  0.3452  0.2471  0.0865
 4282SOL    HW116248   2.108   0.083   8.647 -0.8933  1.6122 -0.6554
 4282SOL    HW216249   2.206   0.099   8.761  0.2214 -1.2675 -1.1317
 4283SOL     OW16250   0.005   9.886   9.964 -0.1388  0.4391  0.0311
 4283SOL    HW116251   0.046   9.857  10.046  0.4301  0.7001 -0.1598
 4283SOL    HW216252  -0.073   9.831   9.956  0.1070  0.0205  0.4566
 4284SOL     OW16253   8.806   0.084   8.399  0.0303  0.1708  0.1671
 4284SOL    HW116254   8.735   0.121   8.346 -0.6414 -2.9766 -1.3537
 4284SOL    HW216255   8.882   0.138   8.378 -0.8338  0.6334 -2.0300
 4285SOL     OW16256   2.002   3.854   8.805  0.0986 -0.0502 -0.1439
 4285SOL    HW116257   1.919   3.809   8.789  0.1835 -0.1464 -0.3323
 4285SOL    HW216258   2.003   3.926   8.742  0.9308 -1.0965 -1.4035
 4286SOL     OW16259   9.577   4.723   0.401  0.4138 -0.2803 -0.1405
 4286SOL    HW116260   9.495   4.773   0.397  1.6201  1.7756 -1.0135
 4286SOL    HW216261   9.645   4.790   0.404  2.1333 -1.9146 -1.0006
 4287SOL     OW16262  10.887   7.650   2.211 -0.1042  0.2700 -0.2439
 4287SOL    HW116263  10.939   7.571   2.224 -0.4579  0.0970  0.1592
 4287SOL    HW216264  10.801   7.618   2.184 -0.3497  0.4911  0.2421
 4288SOL     OW16265   1.977  10.102   0.599  0.0869 -0.0451 -0.5740
 4288SOL    HW116266   2.025  10.180   0.570  0.3256 -0.4252 -1.2459
 4288SOL    HW216267   1.888  10.133   0.616  0.4149  0.5519  0.0933
 4289SOL     OW16268   8.643   5.244  10.819  0.4025  0.1556  0.5533
 4289SOL    HW116269   8.638   5.278  10.908  0.4758 -1.3787  1.1759
 4289SOL    HW216270   8.708   5.173  10.824  0.3478 -0.0060 -0.6987
 4290SOL     OW16271   1.931   2.443   6.847 -0.4030 -0.4717  0.0978
 4290SOL    HW116272   1.953   2.528   6.808 -2.0699  0.4233  0.9981
 4290SOL    HW216273   1.921   2.385   6.771  0.8577  0.0883 -0.5283
 4291SOL     OW16274   8.843   7.346   9.913 -0.0545  0.3663  0.5073
 4291SOL    HW116275   8.751   7.327   9.897 -0.0854  0.6487  0.3323
 4291SOL    HW216276   8.841   7.418   9.976  0.0506  0.1290  0.7833
 4292SOL     OW16277   9.962   8.647   6.742 -0.2651  0.0360 -0.0367
 4292SOL    HW116278  10.028   8.578   6.735 -0.5717 -0.3987  1.0620
 4292SOL    HW216279   9.879   8.599   6.747 -0.4472  0.4477  1.2072
 4293SOL     OW16280   5.153   9.442   2.518  0.0352 -0.4736 -0.2773
 4293SOL    HW116281   5.214   9.424   2.446  0.3487  1.3747 -0.5433
 4293SOL    HW216282   5.203   9.423   2.597  0.6106  0.0119 -0.5139
 4294SOL     OW16283   7.288  10.136   3.393  0.1385 -0.1606 -0.1222
 4294SOL    HW116284   7.254  10.092   3.315 -0.6780 -0.5437  0.4390
 4294SOL    HW216285   7.329  10.216   3.359  1.8466 -1.4055 -1.1923
 4295SOL     OW16286   8.178   6.534   6.942 -0.0420 -0.5184 -0.4709
 4295SOL    HW116287   8.248   6.520   7.006  0.6974 -0.3164 -1.2146
 4295SOL    HW216288   8.208   6.486   6.864 -0.9428 -0.7943 -0.6537
 4296SOL     OW16289   3.236   8.151   8.486 -0.0472 -0.5729  0.4695
 4296SOL    HW116290   3.219   8.215   8.417 -1.0991  1.7235  2.6870
 4296SOL    HW216291   3.183   8.075   8.462 -0.0596 -0.0316 -1.3969
 4297SOL     OW16292  10.725  10.594   4.461  0.0286 -0.4720 -0.3173
 4297SOL    HW116293  10.780  10.664   4.427  0.5266 -1.0321 -0.6722
 4297SOL    HW216294  10.647  10.596   4.406 -1.5658  2.0152  1.7589
 4298SOL     OW16295   8.257   1.880   0.590  0.8360 -0.4028  0.3515
 4298SOL    HW116296   8.165   1.872   0.566  0.8051  0.1982  0.2742
 4298SOL    HW216297   8.278   1.795   0.629 -0.3033  0.1232  2.2592
 4299SOL     OW16298   8.038   4.494   6.307 -0.0993 -0.3522  0.0197
 4299SOL    HW116299   8.083   4.572   6.274 -0.3547  0.2919  1.1374
 4299SOL    HW216300   7.948   4.502   6.274 -0.0720 -0.2769 -0.0363
 4300SOL     OW16301   0.543   2.097   7.925 -0.0843 -0.0604 -0.1468
 4300SOL    HW116302   0.473   2.105   7.990  1.2904 -1.4812  1.5796
 4300SOL    HW216303   0.611   2.158   7.955  1.3265 -2.0423  0.8472
 4301SOL     OW16304   8.918   0.784   3.730 -0.3436 -0.3495  0.1019
 4301SOL    HW116305   8.932   0.788   3.636  0.5724  0.3321  0.2600
 4301SOL    HW216306   8.825   0.765   3.740 -0.6767  0.7051 -0.9239
 4302SOL     OW16307  10.011   2.857   9.102 -0.2766  0.3418 -0.1392
 4302SOL    HW116308   9.962   2.908   9.167 -0.4317 -1.0957  0.8968
 4302SOL    HW216309  10.097   2.843   9.142 -0.8717 -1.8551  0.4707
 4303SOL     OW16310   0.609  10.915   7.187  0.0909  0.2322  0.2594
 4303SOL    HW116311   0.575  10.863   7.260 -0.1881 -0.4994 -0.3836
 4303SOL    HW216312   0.562  10.998   7.193 -0.3483 -0.0369  0.5671
 4304SOL     OW16313   7.427   6.656   1.148  0.3140  0.3435 -0.2210
 4304SOL    HW116314   7.390   6.589   1.091 -2.5762  2.2475 -0.8440
 4304SOL    HW216315   7.379   6.646   1.231 -0.3930  1.7357 -0.4256
 4305SOL     OW16316   0.403   4.589   2.625  0.5362  0.4947 -0.3141
 4305SOL    HW116317   0.379   4.605   2.716  0.6407  0.2660 -0.2454
 4305SOL    HW216318   0.494   4.559   2.629 -0.0807 -1.5326 -0.2856
 4306SOL     OW16319   1.330  10.094   1.877 -0.1420  0.0161 -0.2094
 4306SOL    HW116320   1.394  10.141   1.823 -1.3276  0.6317 -1.1362
 4306SOL    HW216321   1.380  10.025   1.920  1.0604  0.2288 -1.2250
 4307SOL     OW16322   9.782   2.066   6.512  0.4457  0.0178 -0.2318
 4307SOL    HW116323   9.711   2.019   6.468  1.5086  0.0800 -2.0801
 4307SOL    HW216324   9.759   2.062   6.605 -1.0590 -1.4990 -0.6273
 4308SOL     OW16325   2.765   5.814   6.434 -0.1954 -0.4973  0.4202
 4308SOL    HW116326   2.691   5.863   6.399  0.8660  1.1201  0.3749
 4308SOL    HW216327   2.840   5.843   6.383  0.6237 -1.5420  0.9781
 4309SOL     OW16328   2.796   7.212   8.179  0.0916  0.3584 -0.0195
 4309SOL    HW116329   2.813   7.283   8.241 -0.1256  1.4701 -1.1919
 4309SOL    HW216330   2.869   7.216   8.117  0.3678 -0.8072  0.1990
 4310SOL     OW16331   1.120   7.556   4.256 -0.0503 -0.7247 -0.0444
 4310SOL    HW116332   1.215   7.565   4.259 -0.0609 -0.5211 -0.3221
 4310SOL    HW216333   1.093   7.561   4.348  0.1025  0.4617 -0.0492
 4311SOL     OW16334   2.926   3.905   3.651 -0.1104 -0.5018 -0.1035
 4311SOL    HW116335   2.875   3.946   3.581  0.3509  0.2670 -0.0043
 4311SOL    HW216336   2.861   3.861   3.706 -0.7526  1.1138  0.4653
 4312SOL     OW16337   5.503   1.033   8.769 -0.0915  0.3164 -0.1053
 4312SOL    HW116338   5.598   1.038   8.766  0.0010 -0.5233  0.8023
 4312SOL    HW216339   5.474   1.124   8.779  0.6740  0.4618  0.8972
 4313SOL     OW16340   4.827   5.466   0.460  0.3779 -0.0925  1.2058
 4313SOL    HW116341   4.818   5.491   0.368 -0.1089  1.1109  1.5634
 4313SOL    HW216342   4.882   5.388   0.458  0.1239 -0.2659 -0.1266
 4314SOL     OW16343  10.504   8.827   0.944 -0.3951 -0.4019  0.3901
 4314SOL    HW116344  10.472   8.756   1.000  1.0817 -0.2007  1.5624
 4314SOL    HW216345  10.428   8.882   0.929 -1.4923 -1.9990 -0.2120
 4315SOL     OW16346   4.853   2.929   0.287  0.2491  0.2970  0.1119
 4315SOL    HW116347   4.792   2.986   0.241  0.4286 -1.3689 -2.3718
 4315SOL    HW216348   4.938   2.948   0.246  0.6544 -0.3181  0.6594
 4316SOL     OW16349   6.575   6.497   0.137 -0.1854 -0.6039 -0.0626
 4316SOL    HW116350   6.632   6.563   0.176 -0.8456 -0.7674  1.2726
 4316SOL    HW216351   6.605   6.488   0.047  1.1083  0.1658  0.2697
 4317SOL     OW16352   9.027  10.707   1.089  0.1897 -0.2219 -0.3711
 4317SOL    HW116353   8.934  10.700   1.071 -0.0243  1.1515  0.0744
 4317SOL    HW216354   9.069  10.654   1.021 -0.9156 -1.1075 -0.3842
 4318SOL     OW16355   0.209   7.836  10.896 -0.3277  0.1435  0.3056
 4318SOL    HW116356   0.124   7.879  10.889 -0.3933 -0.1750 -1.0064
 4318SOL    HW216357   0.224   7.797  10.810  0.8484 -0.3682  0.7204
 4319SOL     OW16358   3.465   4.728   8.055  0.0303 -0.0297 -0.2107
 4319SOL    HW116359   3.492   4.775   7.976 -0.0544 -0.4893 -0.5185
 4319SOL    HW216360   3.533   4.747   8.119 -2.0607  4.0798  1.1354
 4320SOL     OW16361   4.677   2.486   7.374  0.0346  0.1825  0.0452
 4320SOL    HW116362   4.719   2.559   7.330 -2.2360  0.9731 -0.9289
 4320SOL    HW216363   4.680   2.509   7.467  0.1556  1.0740 -0.1735
 4321SOL     OW16364  10.134   4.200  10.314  0.1083  0.3746  0.4121
 4321SOL    HW116365  10.188   4.229  10.387  0.9557  0.5741 -0.2876
 4321SOL    HW216366  10.102   4.114  10.341  2.0669 -0.4754  0.1962
 4322SOL     OW16367   6.301   1.843  10.234  0.2495 -0.2015 -0.3417
 4322SOL    HW116368   6.248   1.771  10.266  0.4376 -1.0620 -1.8649
 4322SOL    HW216369   6.315   1.899  10.310 -1.2133 -0.9558  0.5120
 4323SOL     OW16370   9.249   0.380   4.557  0.0101 -0.3594 -0.2931
 4323SOL    HW116371   9.175   0.440   4.557 -0.3885 -0.8430 -0.3449
 4323SOL    HW216372   9.226   0.313   4.492 -0.0997 -1.2148  0.5938
 4324SOL     OW16373  10.844   3.882   3.687 -0.6979  0.3739 -0.5192
 4324SOL    HW116374  10.796   3.806   3.655 -1.6399  0.5296  0.4574
 4324SOL    HW216375  10.902   3.906   3.615  1.2716 -2.5654 -0.0745
 4325SOL     OW16376   2.141  10.271   3.339  0.1341  0.8260  0.1607
 4325SOL    HW116377   2.046  10.280   3.327  0.1856  1.0241 -0.0866
 4325SOL    HW216378   2.173  10.239   3.255 -0.0320 -1.7096  0.9823
 4326SOL     OW16379   3.819   9.361   1.110 -0.8168 -0.1873 -0.0552
 4326SOL    HW116380   3.909   9.347   1.079 -0.0424  2.6793  0.5555
 4326SOL    HW216381   3.807   9.296   1.179  0.5013 -1.1281 -0.6652
 4327SOL     OW16382   3.244   3.428   7.714 -0.3747 -0.0866 -0.4841
 4327SOL    HW116383   3.224   3.497   7.777  0.9221 -1.2679  1.3518
 4327SOL    HW216384   3.214   3.348   7.757 -1.2990 -0.7732 -2.2976
 4328SOL     OW16385   7.951  10.376   2.728 -0.3101 -0.4437 -0.3219
 4328SOL    HW116386   7.868  10.419   2.707 -0.4963 -0.2334  0.7845
 4328SOL    HW216387   7.931  10.324   2.806  0.1870 -1.7028 -1.0104
 4329SOL     OW16388   8.251  10.222   7.093  0.0702  1.1933  0.2320
 4329SOL    HW116389   8.268  10.203   7.001 -0.3827  0.6287  0.2551
 4329SOL    HW216390   8.267  10.138   7.137  2.8934  2.0555  1.0558
 4330SOL     OW16391   6.042   3.788   4.217  0.6721 -0.3209 -0.0469
 4330SOL    HW116392   6.124   3.836   4.231  0.3124 -0.0064  1.0715
 4330SOL    HW216393   5.974   3.856   4.221  0.2368 -0.7874  0.5364
 4331SOL     OW16394   1.645   8.707   2.508  0.6690 -0.1079 -0.2788
 4331SOL    HW116395   1.615   8.632   2.559  0.3380 -0.0571 -0.3942
 4331SOL    HW216396   1.674   8.671   2.425  0.8303 -0.1476 -0.2042
 4332SOL     OW16397  10.889   6.002   9.454 -0.3478 -0.2210  0.0637
 4332SOL    HW116398  10.819   6.061   9.426 -0.1083 -1.0728 -2.5977
 4332SOL    HW216399  10.969   6.041   9.419 -0.2100 -2.1428 -1.9673
 4333SOL     OW16400   3.093   4.595   7.984  0.2994 -0.1425 -0.1793
 4333SOL    HW116401   3.107   4.662   8.051 -1.3569  0.1886 -0.1107
 4333SOL    HW216402   3.004   4.563   8.001 -0.4846  0.4909 -2.6343
 4334SOL     OW16403   5.326   5.618   5.171 -0.2818 -0.1929 -0.5986
 4334SOL    HW116404   5.255   5.681   5.159 -0.2381  0.4378  1.7651
 4334SOL    HW216405   5.287   5.533   5.151 -2.2471 -0.0377  1.9953
 4335SOL     OW16406  10.792   3.953   6.334  0.4279  0.6316  0.1682
 4335SOL    HW116407  10.750   4.001   6.262 -1.2974 -0.2677  0.5140
 4335SOL    HW216408  10.853   4.015   6.373  1.4904  1.1234 -2.1113
 4336SOL     OW16409   5.200  10.271   2.312  0.2439  0.1787  0.3591
 4336SOL    HW116410   5.178  10.284   2.220  2.1234 -1.6324 -0.4111
 4336SOL    HW216411   5.117  10.249   2.354 -0.4883  0.0647 -1.0904
 4337SOL     OW16412   5.570   5.632   2.408  0.8141 -0.8288  0.0597
 4337SOL    HW116413   5.604   5.672   2.488  0.5619 -0.3666 -0.0589
 4337SOL    HW216414   5.596   5.693   2.339 -1.3608  0.2548  0.0966
 4338SOL     OW16415   0.795  10.541   3.667  0.0416  0.4486 -0.0986
 4338SOL    HW116416   0.767  10.626   3.634  1.2231  1.0740  0.4584
 4338SOL    HW216417   0.890  10.542   3.660  0.1030 -0.6428  0.3628
 4339SOL     OW16418   3.055   2.630   0.977  0.3075  0.7157  0.2858
 4339SOL    HW116419   3.073   2.587   1.061  0.5062  0.7792  0.2771
 4339SOL    HW216420   2.989   2.696   0.998  0.3335  0.7098  0.3870
 4340SOL     OW16421   1.598   5.672   7.177  0.5643 -0.3588  0.3196
 4340SOL    HW116422   1.595   5.576   7.176 -0.4527 -0.3419  0.2266
 4340SOL    HW216423   1.628   5.694   7.265 -1.5115 -0.7620  1.1990
 4341SOL     OW16424   2.050   0.730   1.318 -0.2855 -0.1950  0.0783
 4341SOL    HW116425   2.125   0.672   1.306 -0.8820 -0.9231 -0.1501
 4341SOL    HW216426   2.089   0.812   1.350  0.7795  0.0063 -1.6097
 4342SOL     OW16427   3.646   0.418   8.124  0.0566 -0.6773 -0.3121
 4342SOL    HW116428   3.656   0.345   8.186 -2.2153  0.4757  1.5762
 4342SOL    HW216429   3.692   0.491   8.166 -1.1736  0.0139 -0.1243
 4343SOL     OW16430   2.172   3.554   3.766 -0.1967 -0.1096  0.3245
 4343SOL    HW116431   2.227   3.476   3.755  2.0009  1.3144  0.5093
 4343SOL    HW216432   2.106   3.527   3.830  1.5579 -1.3670  1.7452
 4344SOL     OW16433   1.093   9.949   5.920  0.2725 -0.2236  0.4463
 4344SOL    HW116434   1.091   9.993   6.005 -0.3222  1.5951 -0.4495
 4344SOL    HW216435   1.092   9.856   5.941  0.5024  0.1772  2.4276
 4345SOL     OW16436   2.581   4.968   1.448 -0.0762  0.3369 -0.6922
 4345SOL    HW116437   2.605   5.026   1.376 -1.3790 -0.9949 -2.2698
 4345SOL    HW216438   2.487   4.977   1.457  0.0335  0.2925  0.7019
 4346SOL     OW16439   6.596   5.614   4.281 -0.7395  0.0298 -0.2324
 4346SOL    HW116440   6.583   5.621   4.187 -3.1071  0.4945  0.0670
 4346SOL    HW216441   6.689   5.633   4.295 -0.4647  0.4388 -2.4008
 4347SOL     OW16442   5.325   8.883   8.601  0.1843  0.0598 -0.1516
 4347SOL    HW116443   5.388   8.843   8.541  0.0489 -1.3081  0.5887
 4347SOL    HW216444   5.239   8.858   8.567  0.1063 -0.8404  0.6472
 4348SOL     OW16445   7.240   4.101   7.733 -0.1032  0.2016  0.0180
 4348SOL    HW116446   7.214   4.052   7.656  1.0854  0.3934 -0.5358
 4348SOL    HW216447   7.336   4.108   7.726 -0.0726  1.1120  0.9636
 4349SOL     OW16448   9.021   0.748   7.629  0.0910  0.3096 -0.0078
 4349SOL    HW116449   8.977   0.698   7.698  1.3357 -0.9393 -0.0755
 4349SOL    HW216450   8.971   0.728   7.549  1.2796 -1.8741 -0.2685
 4350SOL     OW16451   3.458   6.333   4.992  0.0160  0.1188 -0.2893
 4350SOL    HW116452   3.467   6.287   4.909  2.1319  1.9239 -1.1494
 4350SOL    HW216453   3.454   6.426   4.968 -0.8609  0.5979  1.5472
 4351SOL     OW16454   3.901   5.977   5.693  0.2035  0.2794 -0.0063
 4351SOL    HW116455   3.878   5.905   5.634 -0.6570  0.7938 -0.3179
 4351SOL    HW216456   3.909   6.053   5.636 -1.5395  0.9821  0.5921
 4352SOL     OW16457   3.632   1.558   7.926  0.6167 -0.1909  0.2354
 4352SOL    HW116458   3.602   1.501   7.996  0.2565 -0.9575 -0.5336
 4352SOL    HW216459   3.551   1.595   7.889  0.8571  1.0721  0.9290
 4353SOL     OW16460   0.383   1.164   4.977  0.1721 -0.0567 -0.8041
 4353SOL    HW116461   0.461   1.212   5.004 -0.3438 -0.6068  1.9989
 4353SOL    HW216462   0.310   1.222   4.999 -0.2944  0.4776 -3.4367
 4354SOL     OW16463   2.269   0.668   0.598  0.5237 -0.1345 -0.3757
 4354SOL    HW116464   2.269   0.662   0.693  3.7273 -1.4010 -0.3033
 4354SOL    HW216465   2.222   0.590   0.568  0.2522 -0.1831  0.1763
 4355SOL     OW16466   5.802   8.624   2.560 -0.1114  0.7095 -0.0064
 4355SOL    HW116467   5.872   8.632   2.624  1.2443 -0.1845 -1.2908
 4355SOL    HW216468   5.801   8.530   2.538 -0.1984  1.0574 -1.6128
 4356SOL     OW16469   7.292   2.893   3.469  0.1927  0.1623 -0.3341
 4356SOL    HW116470   7.302   2.879   3.374 -2.0328 -0.7814 -0.4798
 4356SOL    HW216471   7.248   2.978   3.477  1.7906  0.9988 -0.0318
 4357SOL     OW16472  10.123   2.226  10.381 -0.3512  0.5103 -0.3126
 4357SOL    HW116473  10.074   2.168  10.440 -0.5741  0.6572 -0.3519
 4357SOL    HW216474  10.092   2.314  10.403  0.1383  0.6301 -0.1121
 4358SOL     OW16475   9.150   2.617   3.584 -0.5406 -0.0522 -0.4118
 4358SOL    HW116476   9.222   2.593   3.642 -0.1852  0.5460 -0.5983
 4358SOL    HW216477   9.156   2.554   3.512  0.1393  0.3344 -0.7002
 4359SOL     OW16478  10.408   7.808   2.684  0.0112 -0.4090  0.8690
 4359SOL    HW116479  10.488   7.765   2.714  0.0436  0.5876  2.2919
 4359SOL    HW216480  10.439   7.890   2.644 -0.2946 -0.0624  1.3462
 4360SOL     OW16481   8.850  10.678  10.101 -0.4585  0.3079 -0.1642
 4360SOL    HW116482   8.754  10.681  10.098 -0.4131  1.2399 -1.6621
 4360SOL    HW216483   8.876  10.766  10.128 -0.0180 -0.0522  0.6177
 4361SOL     OW16484  10.721   8.307  10.271  0.2056  0.2897  0.2091
 4361SOL    HW116485  10.813   8.330  10.285 -0.0112  1.7475 -0.5201
 4361SOL    HW216486  10.714   8.293  10.177 -0.5337  1.3133  0.0979
 4362SOL     OW16487   4.737   5.529  10.144  0.0871  0.1057  0.9900
 4362SOL    HW116488   4.671   5.479  10.193  2.0058 -2.4831  1.1539
 4362SOL    HW216489   4.739   5.487  10.058  2.9350 -1.3869  1.6648
 4363SOL     OW16490   6.754  10.564   7.437 -0.2168  0.0722 -0.1322
 4363SOL    HW116491   6.709  10.535   7.516 -0.0061 -0.7497 -0.3067
 4363SOL    HW216492   6.696  10.537   7.365 -0.2647  0.5472 -0.2762
 4364SOL     OW16493   7.317   4.555   9.177 -0.2602  0.0077  0.0181
 4364SOL    HW116494   7.266   4.541   9.097 -0.5842  2.5074 -0.2912
 4364SOL    HW216495   7.408   4.561   9.147 -0.1769 -0.8275  0.0885
 4365SOL     OW16496   4.306   1.273   2.099  0.0254 -0.0336 -0.4103
 4365SOL    HW116497   4.222   1.256   2.141  0.7793 -2.2953  0.3584
 4365SOL    HW216498   4.314   1.368   2.099 -1.8790  0.1946  0.7935
 4366SOL     OW16499   0.381   8.317   0.200  0.5008 -0.1470 -1.0402
 4366SOL    HW116500   0.292   8.349   0.211  0.2657 -1.3224  0.9744
 4366SOL    HW216501   0.375   8.250   0.132 -0.0615  0.0881 -1.2270
 4367SOL     OW16502  10.112   2.204   1.839 -0.2638  0.0181 -0.2923
 4367SOL    HW116503  10.049   2.151   1.790 -0.3435  1.7427 -2.2059
 4367SOL    HW216504  10.192   2.151   1.841 -1.1361 -1.3307  0.3723
 4368SOL     OW16505   2.759   3.206   1.206 -0.2267 -0.4166  0.6445
 4368SOL    HW116506   2.765   3.198   1.111  3.2933 -1.5395  0.8186
 4368SOL    HW216507   2.821   3.275   1.229 -1.9260  0.7334  2.1170
 4369SOL     OW16508   0.869   1.256   1.760 -0.5266 -0.4294 -0.4217
 4369SOL    HW116509   0.866   1.249   1.664 -0.7967  0.8632 -0.5363
 4369SOL    HW216510   0.959   1.281   1.779 -0.6528  0.0235 -0.4078
 4370SOL     OW16511   9.239   6.865   4.955 -0.3324 -0.0117 -0.0436
 4370SOL    HW116512   9.311   6.889   5.014 -0.5598 -0.5646  0.4652
 4370SOL    HW216513   9.278   6.867   4.868 -0.2908  2.0896 -0.0453
 4371SOL     OW16514   2.158   2.201  10.299 -0.5258  0.4589 -0.2748
 4371SOL    HW116515   2.174   2.120  10.348 -1.0867 -1.4862 -3.0970
 4371SOL    HW216516   2.065   2.199  10.277  0.1120 -0.0709 -3.4203
 4372SOL     OW16517   4.106   4.881   3.128 -0.6064 -0.1264  0.3050
 4372SOL    HW116518   4.170   4.952   3.119  0.7869 -1.1828  1.2985
 4372SOL    HW216519   4.044   4.913   3.194 -0.6542  0.5989 -0.0790
 4373SOL     OW16520   9.770   6.290   0.552  0.2251 -0.3564 -0.1310
 4373SOL    HW116521   9.854   6.323   0.520  0.8191 -1.3447  0.3667
 4373SOL    HW216522   9.719   6.369   0.573  1.8183  0.2898  1.5633
 4374SOL     OW16523   4.134   0.018   8.954 -0.0691  0.7019  0.5745
 4374SOL    HW116524   4.115   0.055   9.040  2.3565  0.9597  1.0527
 4374SOL    HW216525   4.148  -0.076   8.971 -2.0722  0.2403  0.0053
 4375SOL     OW16526   9.906  10.879   2.589  0.0715  0.0151  0.1680
 4375SOL    HW116527   9.841  10.943   2.620 -0.3650 -0.1916 -0.2995
 4375SOL    HW216528   9.856  10.798   2.581  0.0556  0.1523 -1.4775
 4376SOL     OW16529   4.288   3.595   2.219  0.1767 -0.2083  0.4198
 4376SOL    HW116530   4.241   3.660   2.270  1.6527  1.5406 -0.3608
 4376SOL    HW216531   4.226   3.570   2.150  0.5928  2.8519 -1.2513
 4377SOL     OW16532   8.775   4.682   8.076  0.3269 -0.3502  0.0766
 4377SOL    HW116533   8.797   4.774   8.092  0.1417  0.0850 -1.8506
 4377SOL    HW216534   8.827   4.659   7.999 -0.1333 -1.6712  0.1457
 4378SOL     OW16535   0.556   0.436   8.093 -0.3962 -0.5405 -0.0841
 4378SOL    HW116536   0.603   0.467   8.016  0.2729 -1.8101 -0.2013
 4378SOL    HW216537   0.623   0.428   8.161 -0.7907 -0.4911  0.3181
 4379SOL     OW16538   0.117   4.357   3.530  0.1795 -0.4223 -0.6607
 4379SOL    HW116539   0.136   4.450   3.538 -0.0499 -0.2883 -1.5406
 4379SOL    HW216540   0.044   4.352   3.469  0.1043 -1.1738 -0.5255
 4380SOL     OW16541   3.955   9.178   8.062  0.1527 -0.8736  0.3240
 4380SOL    HW116542   3.972   9.110   8.127 -0.0534 -1.4734 -0.2297
 4380SOL    HW216543   3.971   9.135   7.978  1.9540  0.3223  0.0028
 4381SOL     OW16544   6.336   6.361   5.164  0.3206 -0.5146 -0.0416
 4381SOL    HW116545   6.348   6.344   5.071 -0.7059  0.4563 -0.3792
 4381SOL    HW216546   6.288   6.285   5.197  0.1236 -0.5700 -0.4501
 4382SOL     OW16547   8.698   0.981   0.607 -0.7207 -0.2878  0.2443
 4382SOL    HW116548   8.605   0.962   0.617 -0.8867  0.1153 -0.4288
 4382SOL    HW216549   8.700   1.065   0.561 -0.0173  0.5156  1.6893
 4383SOL     OW16550   4.788   5.708   5.338  0.2132  0.5401 -0.0035
 4383SOL    HW116551   4.737   5.649   5.283  2.0878 -0.0852 -1.1989
 4383SOL    HW216552   4.771   5.678   5.427 -0.1384 -0.7834 -0.4821
 4384SOL     OW16553   4.500   2.240   7.015 -0.3905  0.4911  0.2853
 4384SOL    HW116554   4.420   2.202   7.051 -1.4449  1.6128 -0.7967
 4384SOL    HW216555   4.562   2.239   7.089 -1.3941 -0.3422  1.1533
 4385SOL     OW16556   0.074  10.100  10.471  0.8310 -0.4323  0.2160
 4385SOL    HW116557   0.096  10.082  10.380  3.6394 -0.5075  0.8166
 4385SOL    HW216558   0.037  10.188  10.470  0.5865 -0.5322 -1.0173
 4386SOL     OW16559   3.094   3.822   5.313  0.3010 -0.6336 -0.3233
 4386SOL    HW116560   3.113   3.893   5.374 -0.5987 -1.3687  0.8596
 4386SOL    HW216561   3.135   3.745   5.353 -1.3397 -1.3730  0.0603
 4387SOL     OW16562   4.807   9.905   6.047 -0.4069 -0.0110  0.0743
 4387SOL    HW116563   4.786   9.952   6.128  0.8240  2.9613 -1.1522
 4387SOL    HW216564   4.776   9.964   5.977  1.1765 -1.0592 -1.6086
 4388SOL     OW16565   0.801   2.656   0.576 -0.3024  0.2968 -0.1654
 4388SOL    HW116566   0.711   2.629   0.591  0.9379 -4.9866 -0.0424
 4388SOL    HW216567   0.816   2.638   0.483  1.1073 -1.2713  0.3047
 4389SOL     OW16568   1.475   1.423  10.566 -0.2570  0.1932  0.3596
 4389SOL    HW116569   1.412   1.395  10.633 -1.3788  0.1230 -0.6919
 4389SOL    HW216570   1.518   1.342  10.539 -0.6243  0.0537  0.1829
 4390SOL     OW16571   5.950   0.440  10.427  0.3098  0.4535 -0.0864
 4390SOL    HW116572   6.012   0.498  10.470 -0.2445  0.0062  1.3872
 4390SOL    HW216573   5.939   0.367  10.488 -1.4184  0.3782 -0.4241
 4391SOL     OW16574  10.303   7.356   4.137  0.1004  0.6367 -0.5079
 4391SOL    HW116575  10.384   7.310   4.113  0.2517  0.1207  0.8920
 4391SOL    HW216576  10.233   7.296   4.112  0.2699 -0.0749  0.6516
 4392SOL     OW16577   4.056   7.981   6.562 -0.2523 -0.9157  0.5193
 4392SOL    HW116578   3.970   7.940   6.547 -0.7797  0.1606  0.4994
 4392SOL    HW216579   4.119   7.919   6.526 -1.1820 -0.5283 -1.9755
 4393SOL     OW16580   1.035   7.072   1.011  0.1987  0.2817 -0.5439
 4393SOL    HW116581   1.115   7.024   1.033 -0.2454 -0.2053  0.0426
 4393SOL    HW216582   0.966   7.005   1.008 -0.6102  0.9779  1.2072
 4394SOL     OW16583   8.524   8.489   1.702 -0.7338  0.1698 -0.4459
 4394SOL    HW116584   8.502   8.480   1.795 -1.0171 -0.9565 -0.6084
 4394SOL    HW216585   8.572   8.409   1.681  1.6722  1.5966 -0.6556
 4395SOL     OW16586   7.061   0.826   4.882  0.1238 -0.0488  0.2137
 4395SOL    HW116587   7.003   0.757   4.850  0.3289 -0.4331  0.6510
 4395SOL    HW216588   7.002   0.894   4.913 -0.0791  0.4112 -1.1243
 4396SOL     OW16589   4.816   3.392   0.209 -0.4281 -0.7004  0.2380
 4396SOL    HW116590   4.755   3.364   0.277  1.8819  0.2354  2.9486
 4396SOL    HW216591   4.867   3.314   0.188 -1.2938 -1.0446 -0.5911
 4397SOL     OW16592   3.511   4.593   5.110  0.0048 -0.3136  0.9171
 4397SOL    HW116593   3.537   4.637   5.029 -0.0458  0.4223  1.2910
 4397SOL    HW216594   3.474   4.510   5.081  3.1671 -1.6794  0.3458
 4398SOL     OW16595  10.496   4.966   0.274  0.3048 -0.9206 -0.1247
 4398SOL    HW116596  10.505   4.900   0.342  0.0885  0.6891  1.5313
 4398SOL    HW216597  10.584   4.975   0.237  0.3103 -2.1723 -0.4456
 4399SOL     OW16598   0.621   8.775   0.555  0.1675 -0.2870  0.2519
 4399SOL    HW116599   0.539   8.737   0.523 -0.1647 -0.1228  0.9024
 4399SOL    HW216600   0.608   8.870   0.546  1.1767 -0.2697 -1.8401
 4400SOL     OW16601   3.916   8.019   6.162  0.0748 -0.5971  0.0726
 4400SOL    HW116602   3.905   7.980   6.249  1.6080  0.9218  1.0230
 4400SOL    HW216603   4.010   8.033   6.154 -0.1914  0.7644 -1.1393
 4401SOL     OW16604   1.182   8.301   3.703 -0.1334  0.7364 -0.3518
 4401SOL    HW116605   1.194   8.272   3.613  1.3109  0.0346  0.0489
 4401SOL    HW216606   1.171   8.396   3.696  1.5065  0.8991 -1.1724
 4402SOL     OW16607   8.044   3.075   0.113  0.0680  0.4074  0.6972
 4402SOL    HW116608   8.106   3.008   0.086  0.1202  0.3396  0.9854
 4402SOL    HW216609   8.028   3.127   0.034  0.9632  0.8014  0.7611
 4403SOL     OW16610   3.723   5.175   0.996  0.0669  0.0860 -0.2712
 4403SOL    HW116611   3.745   5.245   0.935 -0.8449  0.5576 -0.0807
 4403SOL    HW216612   3.734   5.215   1.083 -0.6598  0.0667 -0.1628
 4404SOL     OW16613  10.579   2.442   0.870  0.1778 -0.7699  0.3210
 4404SOL    HW116614  10.601   2.439   0.963 -0.0546 -0.7559  0.3789
 4404SOL    HW216615  10.495   2.396   0.864 -0.3733  0.1881  0.2933
 4405SOL     OW16616   3.580   8.474   5.566  0.1636 -0.1209  0.4141
 4405SOL    HW116617   3.603   8.413   5.496 -0.3144  1.5010 -1.2300
 4405SOL    HW216618   3.660   8.481   5.619  1.0290 -0.2799 -0.8209
 4406SOL     OW16619   7.337   2.515   6.021  0.1345 -0.2379  0.8759
 4406SOL    HW116620   7.347   2.420   6.020 -0.2912 -0.2820 -0.3792
 4406SOL    HW216621   7.376   2.542   6.105  1.0533 -1.4227  0.8550
 4407SOL     OW16622   2.436   9.319   8.202 -0.4714  0.1667 -0.3847
 4407SOL    HW116623   2.470   9.399   8.243 -1.5905  0.9264 -0.8958
 4407SOL    HW216624   2.514   9.264   8.189  0.2450  0.9485  0.4468
 4408SOL     OW16625   8.506   4.876   4.669 -0.3573  0.2441  0.0554
 4408SOL    HW116626   8.573   4.813   4.696 -0.7480 -0.5199 -0.7207
 4408SOL    HW216627   8.538   4.960   4.702 -0.2463 -0.4635  1.8605
 4409SOL     OW16628   5.270   7.140   9.891 -0.6254 -1.3647  0.2117
 4409SOL    HW116629   5.203   7.103   9.950 -0.7997 -0.5167  0.5549
 4409SOL    HW216630   5.245   7.108   9.805 -4.0349  2.2511 -0.4096
 4410SOL     OW16631   1.012   9.867   8.116  0.2631 -0.2954 -0.3639
 4410SOL    HW116632   1.026   9.804   8.186  2.1589  0.1792 -0.2667
 4410SOL    HW216633   1.020   9.953   8.158 -0.1057 -0.0025 -0.8817
 4411SOL     OW16634   3.329  10.859  10.414 -0.2745  0.3134 -0.0111
 4411SOL    HW116635   3.244  10.902  10.417  0.0318  0.9894 -0.6173
 4411SOL    HW216636   3.309  10.770  10.384 -0.7274  0.6198 -0.6676
 4412SOL     OW16637   6.328   2.214   9.675 -0.4493 -0.5860  0.0615
 4412SOL    HW116638   6.419   2.230   9.650 -0.4339 -0.0992  0.4271
 4412SOL    HW216639   6.332   2.194   9.769 -0.4565 -2.7918 -0.3457
 4413SOL     OW16640   4.998   1.259   2.012  1.0586  0.7538  0.5060
 4413SOL    HW116641   4.950   1.232   1.934  1.0141  0.6873  0.5570
 4413SOL    HW216642   5.082   1.292   1.979  0.1995  2.7919  0.2120
 4414SOL     OW16643   6.101   3.386   1.742  0.4865  0.4005 -0.1916
 4414SOL    HW116644   6.038   3.438   1.791  0.9247  1.2514 -0.5046
 4414SOL    HW216645   6.184   3.398   1.787  0.8051  0.8343 -0.8709
 4415SOL     OW16646   1.024   9.981   9.841 -0.3362 -0.0980 -0.3071
 4415SOL    HW116647   1.031  10.069   9.804 -1.4987 -0.3234 -1.1370
 4415SOL    HW216648   0.930   9.968   9.853 -0.1310 -0.9792  0.4566
 4416SOL     OW16649   6.658   9.283   0.249  0.1668 -0.2591 -0.6882
 4416SOL    HW116650   6.698   9.226   0.184 -0.5215 -3.2349  1.3118
 4416SOL    HW216651   6.730   9.304   0.309 -0.2060 -1.8515  0.3846
 4417SOL     OW16652   4.852   8.419   1.080  0.1085 -0.0331  0.1476
 4417SOL    HW116653   4.880   8.347   1.024 -1.8918 -0.6953 -0.0922
 4417SOL    HW216654   4.928   8.477   1.085  0.0431  0.7215 -4.2575
 4418SOL     OW16655   5.436  10.210   5.901 -0.0081  0.0978  0.5698
 4418SOL    HW116656   5.480  10.137   5.857  0.9468  1.3045 -0.5613
 4418SOL    HW216657   5.472  10.211   5.989  1.7188  0.5810 -0.1036
 4419SOL     OW16658   5.353   7.661   1.326  0.0989  0.1451 -0.3494
 4419SOL    HW116659   5.417   7.611   1.276  1.3366  0.6719  0.6496
 4419SOL    HW216660   5.391   7.748   1.334 -0.6216  0.3974  0.4912
 4420SOL     OW16661   2.769   8.161   4.756  0.5441  0.1132  0.1256
 4420SOL    HW116662   2.681   8.127   4.767  0.4670  0.2623 -0.0317
 4420SOL    HW216663   2.810   8.105   4.691  1.1509 -1.0555  1.4542
 4421SOL     OW16664   3.734   3.718   4.597 -0.8471 -0.3087 -0.6929
 4421SOL    HW116665   3.816   3.760   4.571  0.4177 -1.8174  0.6066
 4421SOL    HW216666   3.666   3.780   4.572  0.7011  1.1230 -1.5683
 4422SOL     OW16667   5.751   6.922   6.482  0.1041 -0.0769 -0.7175
 4422SOL    HW116668   5.843   6.942   6.497  0.3616 -2.0618  0.7803
 4422SOL    HW216669   5.752   6.857   6.411  0.1040 -1.8354  0.8263
 4423SOL     OW16670   0.173   5.352   9.526  0.1395  0.5515  0.3028
 4423SOL    HW116671   0.205   5.323   9.441 -2.0196 -0.0701 -0.3809
 4423SOL    HW216672   0.181   5.275   9.583  2.6294  1.2827  1.0530
 4424SOL     OW16673   6.179   7.808   9.624  0.2796 -0.1469 -0.2632
 4424SOL    HW116674   6.205   7.800   9.715 -0.0727 -0.1606 -0.1607
 4424SOL    HW216675   6.119   7.883   9.623 -2.2843 -2.0651  0.1063
 4425SOL     OW16676   6.312   2.457   4.339 -0.1427 -0.3833  0.5369
 4425SOL    HW116677   6.217   2.448   4.329 -0.1089 -0.6679  0.4750
 4425SOL    HW216678   6.327   2.443   4.433 -0.3844  1.6312  0.9227
 4426SOL     OW16679   5.802   8.341   1.136  0.3684  0.0767  0.2053
 4426SOL    HW116680   5.855   8.285   1.080  2.0618  1.6476  0.1188
 4426SOL    HW216681   5.790   8.422   1.085 -0.5980  0.4219  0.9477
 4427SOL     OW16682   7.008   6.532   8.764 -0.3297  0.1988  0.0060
 4427SOL    HW116683   6.923   6.544   8.720 -0.5095  0.8025  0.4918
 4427SOL    HW216684   7.054   6.468   8.711  0.0886  2.0411 -1.9682
 4428SOL     OW16685   6.016  10.622  10.524  0.0971 -0.0818  0.0184
 4428SOL    HW116686   6.024  10.625  10.428  0.4946 -1.3108 -0.0024
 4428SOL    HW216687   5.933  10.666  10.542 -0.0679  0.0204 -0.9053
 4429SOL     OW16688   4.786   2.622   4.623  0.1227  0.2883  0.1587
 4429SOL    HW116689   4.768   2.680   4.549 -0.1751  0.6854  0.5414
 4429SOL    HW216690   4.746   2.666   4.698  0.5906 -0.0217  0.5893
 4430SOL     OW16691   4.119   9.966   0.144 -0.2587 -0.0047  0.6575
 4430SOL    HW116692   4.148   9.969   0.053  0.4773 -0.8552  0.8440
 4430SOL    HW216693   4.040   9.911   0.142 -0.7293  0.6669  0.4265
 4431SOL     OW16694   4.148   5.005   9.610  0.1454  0.2534  0.1596
 4431SOL    HW116695   4.112   4.953   9.682 -0.4455 -0.1631 -0.4200
 4431SOL    HW216696   4.184   5.082   9.652 -0.3000  0.0706  0.8994
 4432SOL     OW16697   3.067   2.230   8.735 -0.2043  0.2819 -0.2127
 4432SOL    HW116698   2.975   2.210   8.754  0.0205  0.7483  1.4813
 4432SOL    HW216699   3.113   2.211   8.816  0.8390  2.2741 -0.2753
 4433SOL     OW16700   3.582  10.122   0.041 -0.5149  0.3064 -0.5749
 4433SOL    HW116701   3.591  10.050  -0.022 -1.9823 -0.3496 -0.0802
 4433SOL    HW216702   3.521  10.088   0.107  1.1006  0.9073  1.3253
 4434SOL     OW16703   4.675   2.531   1.803 -0.0932 -0.4136  0.1961
 4434SOL    HW116704   4.720   2.457   1.762 -0.8412 -0.7984  0.0421
 4434SOL    HW216705   4.733   2.559   1.873  1.1666  0.1886 -1.0410
 4435SOL     OW16706   7.676   3.373  10.603  0.0703 -0.2744 -0.0941
 4435SOL    HW116707   7.632   3.457  10.587  0.1679 -0.0555  0.7099
 4435SOL    HW216708   7.711   3.382  10.692 -0.3436 -1.3646  0.1845
 4436SOL     OW16709   9.571   6.616   1.277 -0.5861  0.3036 -0.1496
 4436SOL    HW116710   9.484   6.621   1.239 -0.3959  0.2172 -0.6074
 4436SOL    HW216711   9.557   6.627   1.372 -1.5678 -3.6255  0.3452
 4437SOL     OW16712  10.650   6.599  10.661 -0.1520  0.1971  0.1642
 4437SOL    HW116713  10.564   6.621  10.697  0.1316  2.3205 -0.2694
 4437SOL    HW216714  10.706   6.586  10.737 -0.5238  0.3620  0.4710
 4438SOL     OW16715   5.872   0.315   1.742  0.6301  0.0110 -0.7717
 4438SOL    HW116716   5.830   0.401   1.740 -3.5597 -1.5326  3.0453
 4438SOL    HW216717   5.827   0.264   1.675  2.8398  0.4602 -2.7565
 4439SOL     OW16718   5.895   6.430   5.718 -0.1454 -0.0457 -0.3270
 4439SOL    HW116719   5.805   6.446   5.745  0.5153  1.4343  1.1656
 4439SOL    HW216720   5.930   6.516   5.697  1.0894 -0.5278 -0.3459
 4440SOL     OW16721   0.407   0.071   3.288  0.3905  0.6775  0.4938
 4440SOL    HW116722   0.359   0.109   3.362  1.2562  0.2885  1.2803
 4440SOL    HW216723   0.498   0.095   3.304  0.4752  1.4494 -1.0035
 4441SOL     OW16724   1.373   9.535  10.902  0.2190 -0.1341 -0.0367
 4441SOL    HW116725   1.413   9.486  10.973 -0.9580 -1.1222 -0.0176
 4441SOL    HW216726   1.443   9.547  10.838  0.8322 -0.7744  0.5024
 4442SOL     OW16727   0.183   1.703   4.733 -0.0968 -0.3203 -0.0556
 4442SOL    HW116728   0.265   1.709   4.684 -0.1408 -0.9159 -0.2148
 4442SOL    HW216729   0.125   1.767   4.691  0.1510 -0.1951 -0.2096
 4443SOL     OW16730   6.439   1.152   2.573 -0.2822  0.2418 -0.0646
 4443SOL    HW116731   6.411   1.183   2.659 -1.2747  0.0038 -0.2855
 4443SOL    HW216732   6.418   1.224   2.513 -1.2644 -0.2724 -0.3619
 4444SOL     OW16733   5.842   3.442   3.599 -0.7316  0.1268  0.3141
 4444SOL    HW116734   5.877   3.376   3.658  3.2180  1.2105 -0.5674
 4444SOL    HW216735   5.816   3.392   3.521  0.8739 -0.5981  0.2006
 4445SOL     OW16736   2.407   7.307   2.343 -0.1743  0.2231 -0.3198
 4445SOL    HW116737   2.323   7.351   2.355 -1.0081 -1.1918 -0.8032
 4445SOL    HW216738   2.440   7.340   2.259 -0.4297  0.4695 -0.3231
 4446SOL     OW16739   8.401   7.052   7.245  1.0419 -0.1131 -0.0298
 4446SOL    HW116740   8.467   7.093   7.189  1.9542 -2.1677 -0.5613
 4446SOL    HW216741   8.344   7.124   7.272  1.5659  1.2187 -2.2264
 4447SOL     OW16742   4.342   7.063   6.444  0.0708 -0.2447 -0.1119
 4447SOL    HW116743   4.306   7.146   6.413  1.8388  0.0770 -1.5208
 4447SOL    HW216744   4.267   7.016   6.480 -1.4332  0.9826 -1.4641
 4448SOL     OW16745   4.737   3.335   7.080 -0.5213 -0.1650 -0.2197
 4448SOL    HW116746   4.823   3.331   7.040  0.0975 -0.0509  1.0524
 4448SOL    HW216747   4.679   3.289   7.019  0.3831 -0.0432 -1.1904
 4449SOL     OW16748   5.534   3.737   9.090  0.3076  0.0212 -0.4846
 4449SOL    HW116749   5.522   3.643   9.078 -1.1695  0.0425  0.5667
 4449SOL    HW216750   5.495   3.756   9.175  2.6089  1.2490  0.3764
 4450SOL     OW16751   4.637   7.924   3.260 -0.0162  0.5610  0.6236
 4450SOL    HW116752   4.610   7.952   3.347 -2.1708  0.0699  0.1739
 4450SOL    HW216753   4.620   7.999   3.204 -2.3519 -0.3309  0.0286
 4451SOL     OW16754   5.248   3.176   4.963  0.3106  0.6169 -0.1021
 4451SOL    HW116755   5.285   3.263   4.980 -2.6843  1.8881  0.6108
 4451SOL    HW216756   5.272   3.157   4.873 -0.3494  3.0114 -0.8583
 4452SOL     OW16757   6.722   2.744   8.936  0.3163 -0.0955 -0.6173
 4452SOL    HW116758   6.694   2.795   9.012 -0.7542 -0.5100 -0.7160
 4452SOL    HW216759   6.804   2.704   8.963  0.3241  0.3592  0.0529
 4453SOL     OW16760   9.609   6.673  10.789  0.5972 -0.0022 -0.6060
 4453SOL    HW116761   9.697   6.697  10.762  0.5898 -2.6354 -3.5782
 4453SOL    HW216762   9.551   6.725  10.734  0.3581  0.0646 -0.2942
 4454SOL     OW16763   7.828   8.515   7.887  0.2517 -0.1814 -0.3415
 4454SOL    HW116764   7.893   8.519   7.817  1.5533 -0.3640  0.7916
 4454SOL    HW216765   7.855   8.440   7.940 -2.2721 -1.7177 -1.0779
 4455SOL     OW16766   4.379   9.767   3.468 -0.2420  0.4723 -0.2372
 4455SOL    HW116767   4.360   9.840   3.527 -1.3082  0.0517 -0.0308
 4455SOL    HW216768   4.455   9.724   3.507 -0.0740  1.0193  0.0531
 4456SOL     OW16769   9.357   2.709   7.825  0.3609 -0.1608 -0.3857
 4456SOL    HW116770   9.368   2.767   7.900 -0.3688 -0.2828 -0.1778
 4456SOL    HW216771   9.362   2.767   7.748  3.0996 -0.2687 -0.3995
 4457SOL     OW16772   4.130   6.034   0.930 -0.4844 -0.3311 -0.0985
 4457SOL    HW116773   4.095   6.028   0.841 -0.1864 -2.0468 -0.1471
 4457SOL    HW216774   4.211   5.982   0.928  0.1510  0.5573  0.9015
 4458SOL     OW16775   1.581   4.807   1.207  0.1072 -0.7111 -0.0453
 4458SOL    HW116776   1.557   4.886   1.158  0.6309  1.2250  2.6176
 4458SOL    HW216777   1.540   4.735   1.158 -2.8691  1.4537 -0.9996
 4459SOL     OW16778   9.622   9.545   0.865  0.1911 -0.4122  0.0696
 4459SOL    HW116779   9.632   9.590   0.782  0.0155  2.4954  1.5144
 4459SOL    HW216780   9.704   9.497   0.877  0.8454  0.3998 -1.0540
 4460SOL     OW16781   5.408   9.877  10.102  0.6168  0.0200 -0.8311
 4460SOL    HW116782   5.402   9.971  10.083  1.0078  0.0481 -0.8261
 4460SOL    HW216783   5.417   9.873  10.198  0.5367 -0.0298 -0.8251
 4461SOL     OW16784   1.809   5.919   0.717  0.2796  0.3496 -0.0451
 4461SOL    HW116785   1.856   5.975   0.779  0.0408 -1.3207  1.7384
 4461SOL    HW216786   1.720   5.953   0.717  0.4624  0.8314 -0.0504
 4462SOL     OW16787  10.401   4.903   2.521 -0.5133 -0.4289  0.0060
 4462SOL    HW116788  10.394   4.971   2.587 -2.4089  0.4258 -0.9783
 4462SOL    HW216789  10.381   4.822   2.567  0.1944 -0.1396  0.8581
 4463SOL     OW16790   3.417   0.556   4.683  0.0932  0.3833 -0.1050
 4463SOL    HW116791   3.466   0.492   4.734 -0.9422 -0.6232 -0.3229
 4463SOL    HW216792   3.328   0.551   4.718 -0.7420 -0.6114 -2.2163
 4464SOL     OW16793   8.611   5.117   8.024  0.4091  0.5036  0.6778
 4464SOL    HW116794   8.570   5.087   7.943  1.5503 -0.2510  0.3580
 4464SOL    HW216795   8.654   5.200   8.001  2.2564 -0.5805 -0.0073
 4465SOL     OW16796   8.910   9.175   0.488 -0.0847 -0.2326  0.8703
 4465SOL    HW116797   8.952   9.114   0.548  2.8222 -0.1072 -0.8375
 4465SOL    HW216798   8.906   9.128   0.405  0.5444  1.2359 -0.0309
 4466SOL     OW16799   1.777   7.263   4.421 -0.0470 -0.3727 -0.4512
 4466SOL    HW116800   1.802   7.340   4.371 -0.3885 -0.1032 -0.2160
 4466SOL    HW216801   1.814   7.277   4.508  3.2947 -2.2916 -1.3902
 4467SOL     OW16802   2.038   7.123   1.279  0.1677 -0.0020  0.0851
 4467SOL    HW116803   2.101   7.178   1.325  0.5197 -1.1668  1.0581
 4467SOL    HW216804   1.979   7.185   1.235  0.9837  1.1188  0.5345
 4468SOL     OW16805  10.743   7.440   6.983 -0.2482 -0.2726 -0.2665
 4468SOL    HW116806  10.683   7.370   6.957 -1.4506  0.6327 -0.0566
 4468SOL    HW216807  10.754   7.428   7.077 -2.6348  1.3418  0.3108
 4469SOL     OW16808   5.905   8.640   0.347 -0.2587  0.2407 -0.1226
 4469SOL    HW116809   5.967   8.621   0.276  0.2558  0.8778  0.1464
 4469SOL    HW216810   5.825   8.593   0.322  0.9746 -2.4095  0.5983
 4470SOL     OW16811  10.692   4.115   7.973 -0.0337 -0.4508 -0.0146
 4470SOL    HW116812  10.729   4.068   7.898  0.0707 -0.6882  0.1814
 4470SOL    HW216813  10.598   4.113   7.959  0.0708  1.9778 -1.5965
 4471SOL     OW16814   9.872  10.715   1.072  0.7839 -0.1827 -0.1149
 4471SOL    HW116815   9.904  10.684   1.156  1.2715 -2.6083 -1.1274
 4471SOL    HW216816   9.777  10.720   1.083  0.8076 -0.8411  0.4726
 4472SOL     OW16817  10.432   1.577   4.185  0.0713 -0.0660 -0.3563
 4472SOL    HW116818  10.401   1.526   4.110 -0.6081 -0.2586  0.0434
 4472SOL    HW216819  10.353   1.594   4.236  0.0567  2.5185 -1.1163
 4473SOL     OW16820   3.754   8.558   7.258  0.4988  0.1675  0.4811
 4473SOL    HW116821   3.831   8.598   7.299 -0.3635 -0.0001  2.3613
 4473SOL    HW216822   3.690   8.552   7.329 -0.6516 -1.2692 -0.6286
 4474SOL     OW16823   7.698   9.100   2.143  0.4954 -0.3007 -0.4565
 4474SOL    HW116824   7.663   9.169   2.199  2.2065 -0.1083  0.4219
 4474SOL    HW216825   7.622   9.069   2.094 -0.7154  0.7179  0.6932
 4475SOL     OW16826   5.073   6.440   7.556 -0.2906  0.4883 -0.2787
 4475SOL    HW116827   5.036   6.370   7.610 -1.8570  0.9776 -0.6729
 4475SOL    HW216828   5.075   6.516   7.614  0.7024  0.3270 -0.0799
 4476SOL     OW16829   1.238   3.630   0.873  0.5534  0.2621 -0.2900
 4476SOL    HW116830   1.284   3.554   0.908  0.5948  0.2449 -0.3799
 4476SOL    HW216831   1.278   3.644   0.787 -0.7462 -0.7595 -1.0724
 4477SOL     OW16832   1.100   0.243   2.360 -0.3203  0.1248  1.0642
 4477SOL    HW116833   1.152   0.295   2.299 -0.5356  0.6842  1.3452
 4477SOL    HW216834   1.118   0.152   2.337 -2.4629  0.2534 -1.6418
 4478SOL     OW16835   3.858  10.328   6.593  0.3623  0.0735  0.1453
 4478SOL    HW116836   3.875  10.303   6.684  0.1600  1.0787  0.4668
 4478SOL    HW216837   3.850  10.423   6.595 -4.3172 -0.0699 -0.0950
 4479SOL     OW16838   4.177   5.614   0.656 -0.4665 -0.0037  0.0296
 4479SOL    HW116839   4.095   5.628   0.607 -0.3711  0.7741  0.0877
 4479SOL    HW216840   4.243   5.602   0.588 -0.3900  0.7610 -0.0409
 4480SOL     OW16841   1.925   8.109   5.697  0.2743  0.2735  0.0434
 4480SOL    HW116842   1.865   8.184   5.701  0.1403  0.1030  1.7991
 4480SOL    HW216843   2.012   8.149   5.697  0.2181  0.4886 -1.6670
 4481SOL     OW16844   7.622   8.507   3.348  0.6131 -0.9902 -0.0089
 4481SOL    HW116845   7.712   8.541   3.342 -0.1074  1.5960  2.0593
 4481SOL    HW216846   7.571   8.561   3.288 -0.0202 -0.5008  0.9468
 4482SOL     OW16847   3.979   6.877   1.103  0.1689 -0.2296 -0.2004
 4482SOL    HW116848   3.903   6.892   1.047 -1.7938 -1.7959  1.8366
 4482SOL    HW216849   3.962   6.792   1.144  1.2941  0.9015  2.9197
 4483SOL     OW16850   7.276   4.115   0.730  0.1677 -0.2384  0.6435
 4483SOL    HW116851   7.206   4.057   0.759  0.8244 -1.8705 -0.8748
 4483SOL    HW216852   7.344   4.107   0.797 -0.3328 -0.0643  1.1808
 4484SOL     OW16853  10.300   3.529   1.032  0.2489 -0.4858 -0.0339
 4484SOL    HW116854  10.229   3.553   0.973  1.5302  1.1295 -1.0347
 4484SOL    HW216855  10.292   3.591   1.105  1.6566  1.0056 -1.0597
 4485SOL     OW16856  10.680   3.629   6.567 -0.0990  0.4688  0.2423
 4485SOL    HW116857  10.712   3.701   6.621  2.5367 -0.4362  0.0361
 4485SOL    HW216858  10.671   3.668   6.479 -0.8500  1.0400  0.5546
 4486SOL     OW16859   6.925   5.005   3.804 -0.3001 -0.1586 -0.5343
 4486SOL    HW116860   6.954   5.041   3.721  1.4887 -0.9814 -0.3271
 4486SOL    HW216861   6.861   5.068   3.837 -0.1347  0.8007 -1.9524
 4487SOL     OW16862   2.313   2.703   7.386 -0.0195  0.2115  0.9117
 4487SOL    HW116863   2.385   2.713   7.448 -0.0983  0.6897  0.9254
 4487SOL    HW216864   2.262   2.630   7.422  0.0174  0.3902  1.3347
 4488SOL     OW16865   8.414   5.057   2.198 -0.4745  0.0315 -0.2760
 4488SOL    HW116866   8.429   5.097   2.113 -0.9505 -0.2062 -0.4765
 4488SOL    HW216867   8.500   5.053   2.239 -0.1952 -0.1451 -0.8756
 4489SOL     OW16868   2.953   8.780   9.534 -0.4357 -0.3636  0.1909
 4489SOL    HW116869   2.920   8.784   9.623 -2.8355 -1.1784 -0.5995
 4489SOL    HW216870   2.965   8.686   9.517  1.6883 -0.1413  0.1788
 4490SOL     OW16871  10.365   1.006   8.047 -0.1766  0.2187 -0.0970
 4490SOL    HW116872  10.334   0.948   8.117 -0.4585  0.4413 -0.0339
 4490SOL    HW216873  10.289   1.014   7.988 -0.9976  2.4438  1.1286
 4491SOL     OW16874   8.232   1.000   3.878  0.1085  0.1856 -0.9588
 4491SOL    HW116875   8.193   0.947   3.808  3.0442 -0.4217 -2.2880
 4491SOL    HW216876   8.325   1.004   3.856  1.0616  0.5960  2.5522
 4492SOL     OW16877   3.195   3.691   4.783 -0.3924  0.4009  0.0292
 4492SOL    HW116878   3.165   3.749   4.713  1.4401  1.3809  0.0026
 4492SOL    HW216879   3.120   3.633   4.800 -1.4136  1.1702 -1.6292
 4493SOL     OW16880   2.536   7.013   5.482 -0.0831 -0.6724 -0.2384
 4493SOL    HW116881   2.497   6.937   5.439 -0.9548 -1.9185  2.5052
 4493SOL    HW216882   2.463   7.075   5.491 -0.1251 -0.7687  0.1266
 4494SOL     OW16883   9.391   2.801   9.761  0.0988 -0.0781 -0.0279
 4494SOL    HW116884   9.369   2.866   9.828  0.4310  0.3200 -0.3043
 4494SOL    HW216885   9.452   2.741   9.806 -1.1710 -0.9417  0.6089
 4495SOL     OW16886   1.465   2.053   7.081  0.0434 -0.1102 -0.2913
 4495SOL    HW116887   1.416   1.980   7.043  1.0989 -0.9678 -0.0733
 4495SOL    HW216888   1.425   2.131   7.043 -0.9536 -0.8060 -0.7255
 4496SOL     OW16889   2.218   8.216   7.713  0.4396  0.3074  0.1556
 4496SOL    HW116890   2.312   8.226   7.701  0.4151 -0.0260 -0.3420
 4496SOL    HW216891   2.203   8.122   7.715  0.2729  0.3430  1.5874
 4497SOL     OW16892   0.917   9.263   3.085 -0.7495 -0.2222  0.2301
 4497SOL    HW116893   0.956   9.319   3.017  0.0952 -1.4372 -0.3442
 4497SOL    HW216894   0.984   9.257   3.153 -0.7209 -0.7114  0.1683
 4498SOL     OW16895   1.834   3.623   0.972  0.0186  0.0209  0.4295
 4498SOL    HW116896   1.834   3.544   0.918  0.0452 -0.2326  0.7953
 4498SOL    HW216897   1.912   3.614   1.028  0.9526  1.0866 -0.6473
 4499SOL     OW16898   4.603   4.299   7.145 -0.5203  0.2336  0.2132
 4499SOL    HW116899   4.680   4.242   7.146 -1.3736 -0.9394  1.3848
 4499SOL    HW216900   4.600   4.337   7.233 -0.7515  1.0344 -0.1264
 4500SOL     OW16901   1.656   5.713   4.467 -0.0071  0.3748 -0.4749
 4500SOL    HW116902   1.732   5.656   4.457 -0.7288 -1.1269  1.8901
 4500SOL    HW216903   1.693   5.796   4.499  0.8911  0.7928 -2.4544
 4501SOL     OW16904   4.402   6.243   5.512  0.3532 -0.2256 -0.4361
 4501SOL    HW116905   4.452   6.165   5.487 -0.3442 -0.8080 -0.0527
 4501SOL    HW216906   4.312   6.213   5.518  0.3839 -0.0447  2.3448
 4502SOL     OW16907   0.381   0.368   0.422  0.5513  0.1518 -0.9219
 4502SOL    HW116908   0.330   0.289   0.441 -0.2780  1.0595  0.9698
 4502SOL    HW216909   0.329   0.439   0.460  1.8228  1.4802 -1.5786
 4503SOL     OW16910   2.515   0.361  10.687 -0.1496 -0.0033  0.5978
 4503SOL    HW116911   2.441   0.408  10.725  0.0918  1.1335 -0.2958
 4503SOL    HW216912   2.515   0.387  10.594  0.0842 -1.6590  0.1008
 4504SOL     OW16913  10.858   7.413   6.158 -0.2075 -0.1279 -0.1501
 4504SOL    HW116914  10.876   7.439   6.248 -1.4740  1.0231 -0.2109
 4504SOL    HW216915  10.786   7.350   6.165 -1.6392  1.4146 -0.4556
 4505SOL     OW16916   8.764   6.999   3.427  0.6842  0.0725 -0.3846
 4505SOL    HW116917   8.818   6.984   3.504 -0.9377 -2.5964  0.3510
 4505SOL    HW216918   8.815   6.961   3.355  0.3418 -1.4291  0.1262
 4506SOL     OW16919   7.711   6.848   4.618 -0.6833 -0.5566  0.0351
 4506SOL    HW116920   7.675   6.934   4.642 -0.5453 -0.3353 -0.5263
 4506SOL    HW216921   7.639   6.787   4.631  0.2292 -1.0344  4.1957
 4507SOL     OW16922   0.373   2.513   9.732 -0.3801  0.5420 -0.1908
 4507SOL    HW116923   0.386   2.539   9.824  0.7790 -1.9705  0.4523
 4507SOL    HW216924   0.444   2.556   9.685  0.5733 -0.1630  0.5576
 4508SOL     OW16925   9.001   6.478   5.660 -0.5192  0.1095 -0.1400
 4508SOL    HW116926   8.934   6.410   5.657 -0.3537 -0.0138 -1.6454
 4508SOL    HW216927   9.011   6.506   5.569  1.9590 -0.3610 -0.0736
 4509SOL     OW16928   0.459   6.358   9.227 -0.4773  0.0093 -0.1417
 4509SOL    HW116929   0.395   6.361   9.298 -0.2674 -0.4155  0.0690
 4509SOL    HW216930   0.525   6.296   9.257 -0.2685  0.0042 -0.6075
 4510SOL     OW16931   4.131   6.674   1.638  0.4924  0.3031  0.5743
 4510SOL    HW116932   4.058   6.722   1.679 -1.5225 -0.8540 -1.4317
 4510SOL    HW216933   4.202   6.738   1.635 -1.4433  2.6020 -0.2316
 4511SOL     OW16934   1.692   2.578   9.527  0.2032  0.0410 -0.1657
 4511SOL    HW116935   1.756   2.541   9.466 -1.2843 -0.5369 -1.4560
 4511SOL    HW216936   1.723   2.667   9.543  0.2844  0.4729 -2.3753
 4512SOL     OW16937   9.017   9.191   1.004  0.0270 -0.1510 -0.1598
 4512SOL    HW116938   8.936   9.196   1.055 -0.6720  0.2174 -1.2697
 4512SOL    HW216939   9.009   9.261   0.939  1.6796  0.5475  0.3207
 4513SOL     OW16940  10.495   6.698   0.869  0.1419 -0.3914 -0.2293
 4513SOL    HW116941  10.580   6.658   0.850 -0.2940 -1.7117  0.4951
 4513SOL    HW216942  10.513   6.763   0.937  0.6944 -0.0833 -0.6657
 4514SOL     OW16943   1.327   2.766   1.642  0.3867 -0.3887 -0.5412
 4514SOL    HW116944   1.259   2.802   1.585  1.7538 -0.2179 -2.1500
 4514SOL    HW216945   1.319   2.816   1.723 -1.1224 -0.0919 -0.8475
 4515SOL     OW16946   2.224   6.505   8.452 -0.3796  0.2660  0.1873
 4515SOL    HW116947   2.303   6.546   8.489 -0.6424  0.7893  0.1788
 4515SOL    HW216948   2.258   6.429   8.405  0.0765  0.2364  0.5488
 4516SOL     OW16949   8.810   0.506   0.580  0.1561  0.2749  0.4927
 4516SOL    HW116950   8.856   0.430   0.545  1.9051  1.2352  0.6044
 4516SOL    HW216951   8.826   0.576   0.517  0.3329  1.0865  1.4057
 4517SOL     OW16952  10.459   9.454  10.533  0.0226 -0.1947  0.5083
 4517SOL    HW116953  10.495   9.385  10.588  1.5452 -0.9312 -1.3061
 4517SOL    HW216954  10.432   9.409  10.453  1.2437  1.2984 -0.8073
 4518SOL     OW16955   7.090   5.055   4.631 -0.1354  0.4944 -0.1530
 4518SOL    HW116956   7.120   4.976   4.677  1.1664  1.4939  0.7898
 4518SOL    HW216957   7.072   5.026   4.542  0.7147 -0.7853  0.0703
 4519SOL     OW16958  10.015  10.362   4.546 -0.7955  0.6826 -0.1862
 4519SOL    HW116959  10.056  10.402   4.470 -0.2690  0.2694 -0.1275
 4519SOL    HW216960   9.983  10.435   4.598 -1.5567  0.9568 -1.0175
 4520SOL     OW16961  10.398   3.441   0.005 -0.0870 -0.0298  0.2847
 4520SOL    HW116962  10.475   3.402  -0.037 -0.3528  0.9820 -1.2278
 4520SOL    HW216963  10.417   3.535   0.006 -0.4613  0.0520  1.7134
 4521SOL     OW16964   4.628   4.278   3.648  0.2792  0.1064 -0.1767
 4521SOL    HW116965   4.570   4.216   3.605 -0.1067 -0.3890  1.0228
 4521SOL    HW216966   4.655   4.234   3.729  1.2419  0.8757 -0.0607
 4522SOL     OW16967   3.804   9.991   0.914 -0.2607  0.4515  0.2475
 4522SOL    HW116968   3.742  10.062   0.892 -0.0461  1.0704  1.5548
 4522SOL    HW216969   3.793   9.978   1.008 -0.2134 -1.2091  0.0542
 4523SOL     OW16970   9.982   7.818   0.347  0.4347 -0.0649 -0.5320
 4523SOL    HW116971  10.024   7.835   0.263  2.4699 -0.4458  0.3348
 4523SOL    HW216972  10.055   7.811   0.409 -0.7757 -2.5535  0.7870
 4524SOL     OW16973   9.526   5.161   0.901 -0.0196 -0.1936  0.0505
 4524SOL    HW116974   9.542   5.102   0.827  1.5637  0.2206  0.0154
 4524SOL    HW216975   9.605   5.153   0.955  0.0814  1.5930  0.2292
 4525SOL     OW16976   1.471   4.742   7.962  0.4012 -0.0636  0.3354
 4525SOL    HW116977   1.514   4.718   8.043  0.3373  0.2111  0.4490
 4525SOL    HW216978   1.539   4.736   7.895  0.2435 -1.2047  0.2502
 4526SOL     OW16979  10.169   1.706   7.774  0.3409  0.6490 -0.2704
 4526SOL    HW116980  10.118   1.683   7.696  0.0488  0.4332 -0.0154
 4526SOL    HW216981  10.118   1.672   7.847  0.8986  0.3323 -0.0176
 4527SOL     OW16982   2.770   5.620   4.976  0.0858 -0.1216 -0.0236
 4527SOL    HW116983   2.837   5.554   4.962 -0.0209 -0.4270  0.8434
 4527SOL    HW216984   2.745   5.610   5.068 -1.1091  0.0164 -0.3131
 4528SOL     OW16985   5.725   2.905   0.351  0.0585  1.0355  0.4277
 4528SOL    HW116986   5.814   2.899   0.384  0.2294  1.4609  0.0462
 4528SOL    HW216987   5.732   2.893   0.257 -0.4401 -0.2599  0.5298
 4529SOL     OW16988   7.852   3.148   7.672 -0.5071  0.0586  0.3367
 4529SOL    HW116989   7.908   3.225   7.666 -1.1977  0.5727  0.2572
 4529SOL    HW216990   7.824   3.146   7.764 -1.4847  0.6438  0.0689
 4530SOL     OW16991   2.042  10.632   0.213 -0.0721  0.0568 -0.1820
 4530SOL    HW116992   2.037  10.567   0.142 -2.1449 -0.9052  0.7550
 4530SOL    HW216993   2.082  10.585   0.286  1.2759  0.7997 -0.4105
 4531SOL     OW16994   4.764   7.886   8.843  0.1533  0.0824 -0.5005
 4531SOL    HW116995   4.719   7.842   8.915  1.8639 -0.3540  0.3532
 4531SOL    HW216996   4.842   7.925   8.883  0.7489  0.4676 -1.9691
 4532SOL     OW16997   1.601   5.976   6.137  0.2900  0.1287  0.1557
 4532SOL    HW116998   1.538   5.916   6.097 -0.3738 -1.2842  3.0315
 4532SOL    HW216999   1.687   5.937   6.118  0.3470  1.5221 -2.9240
 4533SOL     OW17000   6.199   7.566   2.952  0.7616 -0.1087 -0.0112
 4533SOL    HW117001   6.105   7.547   2.950  0.7310  0.0218  0.1669
 4533SOL    HW217002   6.203   7.662   2.952  0.8823 -0.1111  0.5632
 4534SOL     OW17003   7.462   6.586   5.275 -0.0345 -0.1264 -0.3879
 4534SOL    HW117004   7.526   6.580   5.205 -0.7381  0.9011 -1.1381
 4534SOL    HW217005   7.391   6.639   5.239 -0.0170  1.2000  1.3689
 4535SOL     OW17006   5.812   4.470   9.356  0.2307 -0.0227 -0.0426
 4535SOL    HW117007   5.763   4.503   9.281  2.0519  0.8924 -0.8928
 4535SOL    HW217008   5.809   4.375   9.346 -0.9316  0.0275 -0.3323
 4536SOL     OW17009   7.626   6.107   3.756  0.5316 -0.3175 -0.2497
 4536SOL    HW117010   7.547   6.134   3.803  1.3471  0.5160  0.6871
 4536SOL    HW217011   7.610   6.132   3.665 -0.8940 -1.5591 -0.3692
 4537SOL     OW17012   4.276   3.039   7.725 -0.2200  0.2275 -0.1259
 4537SOL    HW117013   4.238   2.989   7.797 -2.0742  0.8774 -0.5947
 4537SOL    HW217014   4.200   3.071   7.676  0.9797  0.5709 -1.8368
 4538SOL     OW17015  10.633   3.645   7.300  0.2665 -0.1822  0.3025
 4538SOL    HW117016  10.665   3.569   7.251  1.0872 -0.5808  1.3957
 4538SOL    HW217017  10.562   3.611   7.354  0.8857 -0.2711  1.0741
 4539SOL     OW17018   3.619   8.062   8.498  0.0990 -0.5906  0.2391
 4539SOL    HW117019   3.630   8.153   8.522 -0.5684 -0.5118  0.2776
 4539SOL    HW217020   3.622   8.014   8.580  1.8558 -0.7703  0.0984
 4540SOL     OW17021   1.364   6.924   5.806  0.4195 -0.0988 -0.2569
 4540SOL    HW117022   1.277   6.884   5.800  0.8342 -0.8093 -1.9914
 4540SOL    HW217023   1.371   6.951   5.898 -0.7330 -2.0587  0.4667
 4541SOL     OW17024   5.064   5.950   6.924 -0.3619 -0.1218  0.2252
 4541SOL    HW117025   5.150   5.964   6.964  0.3419 -1.2682 -0.8245
 4541SOL    HW217026   5.080   5.889   6.853 -2.3087 -1.6464  1.0085
 4542SOL     OW17027   1.066   2.937   2.426  0.4549  0.3856 -0.1799
 4542SOL    HW117028   1.083   3.021   2.383  0.5065  1.1285  1.2222
 4542SOL    HW217029   1.011   2.960   2.501  0.8436 -0.7774  0.4804
 4543SOL     OW17030   4.775   4.017   4.511 -0.2320 -0.0837  0.5148
 4543SOL    HW117031   4.713   4.020   4.583 -0.4163 -1.3900  0.4363
 4543SOL    HW217032   4.844   3.958   4.540 -1.5742 -2.7579 -1.2615
 4544SOL     OW17033   4.086   6.436   5.858  0.3045  0.0715  0.3421
 4544SOL    HW117034   4.073   6.518   5.811  2.3599  0.8885  1.0972
 4544SOL    HW217035   4.068   6.457   5.949  0.0381 -0.5523  0.4410
 4545SOL     OW17036   9.002   2.517   5.191 -0.3275 -0.1081  0.3105
 4545SOL    HW117037   8.923   2.563   5.218 -0.9339 -1.7650  1.5268
 4545SOL    HW217038   8.994   2.509   5.096 -1.9006 -0.6628  0.4569
 4546SOL     OW17039   0.524   1.137   7.971 -0.6213 -0.2518 -0.2519
 4546SOL    HW117040   0.570   1.054   7.985  0.4884  0.2392 -0.9155
 4546SOL    HW217041   0.592   1.204   7.976 -1.2660  0.4984 -1.1966
 4547SOL     OW17042   5.045  10.462   0.543 -0.8106 -0.4117  0.6342
 4547SOL    HW117043   4.997  10.379   0.533 -0.0651 -0.7819  0.0426
 4547SOL    HW217044   5.045  10.500   0.455 -0.5058 -0.1386  0.7507
 4548SOL     OW17045   1.236   7.271   8.395  0.4308 -0.4612  0.7525
 4548SOL    HW117046   1.316   7.219   8.387  0.7333  0.0536  0.3305
 4548SOL    HW217047   1.166   7.212   8.365  0.6789 -0.8347  0.8948
 4549SOL     OW17048   2.385   4.802   6.543 -0.4670 -0.0520 -0.1374
 4549SOL    HW117049   2.423   4.803   6.631 -0.0376  1.6300 -0.2968
 4549SOL    HW217050   2.295   4.830   6.557 -0.9425 -1.5428 -0.0556
 4550SOL     OW17051   7.511   3.473   1.650 -0.0129 -0.5618  0.4427
 4550SOL    HW117052   7.598   3.437   1.636 -0.2853 -1.7479  1.6160
 4550SOL    HW217053   7.525   3.551   1.704  0.3270 -0.6156  0.4336
 4551SOL     OW17054   7.792   6.201   5.989 -0.7089  0.1408  0.6691
 4551SOL    HW117055   7.866   6.262   5.988 -0.3441 -0.2907  0.3087
 4551SOL    HW217056   7.736   6.230   5.917 -0.6840  0.2257  0.6836
 4552SOL     OW17057   3.328   6.550   2.688 -0.4318  0.4423  0.7030
 4552SOL    HW117058   3.250   6.496   2.692  0.6633 -1.2365  0.3716
 4552SOL    HW217059   3.305   6.629   2.738 -1.4867 -1.1047  2.7975
 4553SOL     OW17060   3.975   2.800   8.106  0.1715  0.5091  0.1008
 4553SOL    HW117061   3.894   2.759   8.136  1.0687 -3.0834 -1.8160
 4553SOL    HW217062   4.033   2.801   8.182  0.0655 -1.8520  0.2620
 4554SOL     OW17063   0.728   6.230   5.412 -0.7764  0.0073 -0.7341
 4554SOL    HW117064   0.758   6.202   5.326  0.5294 -0.7254 -0.0617
 4554SOL    HW217065   0.655   6.171   5.432 -0.0473 -0.8868 -0.6615
 4555SOL     OW17066   6.923   4.941   5.082  0.0924 -0.2818 -0.2967
 4555SOL    HW117067   6.963   5.008   5.027 -0.2954 -0.7973 -1.2300
 4555SOL    HW217068   6.924   4.979   5.170  1.5792  0.1831 -0.4749
 4556SOL     OW17069   2.765   3.586   4.473 -0.1497  0.4618  0.3163
 4556SOL    HW117070   2.842   3.587   4.417 -1.4731 -0.8689 -1.6445
 4556SOL    HW217071   2.742   3.494   4.481 -2.0243  0.8732  0.1201
 4557SOL     OW17072   6.382   1.262   2.018  0.0298  0.2933  0.1364
 4557SOL    HW117073   6.363   1.264   1.925 -1.2800 -0.6838  0.3553
 4557SOL    HW217074   6.322   1.325   2.057 -0.5997 -0.5016  0.4848
 4558SOL     OW17075   2.670   6.100   5.968 -0.4834 -0.4617 -0.1492
 4558SOL    HW117076   2.655   6.194   5.972 -2.8586 -0.7842 -0.0282
 4558SOL    HW217077   2.765   6.091   5.963 -0.2073  1.9328 -0.3813
 4559SOL     OW17078   1.382   6.585   3.103  0.4305 -0.5949  0.7981
 4559SOL    HW117079   1.339   6.510   3.144  1.3885 -1.1794  0.7759
 4559SOL    HW217080   1.403   6.644   3.176 -0.2744 -0.3587  0.8206
 4560SOL     OW17081   6.574   2.390   7.040 -0.2795 -0.1724  0.1143
 4560SOL    HW117082   6.531   2.424   7.118 -0.9011  1.3315 -0.8263
 4560SOL    HW217083   6.534   2.438   6.968 -0.4706 -2.2634 -1.2538
 4561SOL     OW17084   0.831   6.988   3.457 -0.2790 -0.2743  0.3189
 4561SOL    HW117085   0.763   6.923   3.441 -1.9849  1.6396 -0.6707
 4561SOL    HW217086   0.895   6.973   3.388 -0.7507 -0.7675 -0.0201
 4562SOL     OW17087  10.617   5.855   9.140 -0.3434 -0.4889 -0.6394
 4562SOL    HW117088  10.657   5.796   9.077 -2.0357 -2.4917  0.0452
 4562SOL    HW217089  10.653   5.827   9.225 -0.3606  0.1763 -0.4077
 4563SOL     OW17090   0.019   8.642   3.218 -0.1262  0.1195  0.5925
 4563SOL    HW117091  -0.032   8.667   3.141 -1.4469 -0.2660  1.3211
 4563SOL    HW217092   0.098   8.695   3.212 -0.9268  1.2822 -0.1821
 4564SOL     OW17093   7.662   3.157  10.042 -0.6732 -0.0823 -0.1363
 4564SOL    HW117094   7.583   3.107  10.021 -1.9063  1.9876 -0.6278
 4564SOL    HW217095   7.661   3.230   9.981  2.1141 -0.4461 -0.7419
 4565SOL     OW17096   2.481   0.035   9.421  0.2291 -0.4486 -0.2047
 4565SOL    HW117097   2.430  -0.043   9.399  0.3401 -0.7642  0.6239
 4565SOL    HW217098   2.572   0.005   9.420  0.2703 -0.3342  0.1410
 4566SOL     OW17099   5.792   1.285   1.607 -0.4026 -0.5683  0.1521
 4566SOL    HW117100   5.703   1.317   1.591  0.0239 -0.7934 -3.2857
 4566SOL    HW217101   5.849   1.352   1.570  0.8355 -1.1137  1.0134
 4567SOL     OW17102   8.320   3.970   3.843  0.0942  0.4617 -0.9244
 4567SOL    HW117103   8.297   4.062   3.831 -0.6534  0.5530  0.7845
 4567SOL    HW217104   8.414   3.966   3.829  0.0171  1.3417 -1.7448
 4568SOL     OW17105   4.281   3.564  10.190 -0.0205  0.0869 -0.5671
 4568SOL    HW117106   4.326   3.633  10.239 -1.6585 -0.4505  1.8087
 4568SOL    HW217107   4.211   3.610  10.143 -0.1649  0.2487 -0.1979
 4569SOL     OW17108   7.207   1.582   7.668  0.4404 -0.5640  0.1397
 4569SOL    HW117109   7.188   1.495   7.634  1.2444 -1.1904  1.2456
 4569SOL    HW217110   7.170   1.642   7.603  0.2049 -1.7209 -0.8168
 4570SOL     OW17111   1.839   7.816  10.468 -0.2373  0.5483  0.4477
 4570SOL    HW117112   1.762   7.842  10.519  0.6531  1.4202  1.3978
 4570SOL    HW217113   1.907   7.802  10.534 -0.1289 -2.4467 -0.1655
 4571SOL     OW17114   0.221   1.286  10.818  0.3066 -0.5910  0.1018
 4571SOL    HW117115   0.267   1.258  10.739  1.8933  0.8247  0.4406
 4571SOL    HW217116   0.140   1.326  10.786  0.1998 -1.4022 -0.6784
 4572SOL     OW17117   6.669   3.584   1.668  0.5080 -0.1538 -0.6104
 4572SOL    HW117118   6.654   3.668   1.624  0.0835 -0.6727 -1.4612
 4572SOL    HW217119   6.583   3.560   1.702  0.8382  0.2697  0.5910
 4573SOL     OW17120   7.902   6.875   0.146  0.2360  0.1463 -0.4633
 4573SOL    HW117121   7.929   6.856   0.236  0.8714  2.6506 -0.0575
 4573SOL    HW217122   7.807   6.888   0.152  0.4532  1.6693  0.1682
 4574SOL     OW17123   3.428   4.718   3.933  0.5126 -0.6679  0.4711
 4574SOL    HW117124   3.365   4.653   3.902 -0.0170 -0.0354  0.2128
 4574SOL    HW217125   3.471   4.676   4.008 -0.0095 -1.2147  0.4690
 4575SOL     OW17126   5.422   2.402   9.891 -0.1560  0.0101  0.2569
 4575SOL    HW117127   5.493   2.466   9.887 -0.0699  0.0168  1.5105
 4575SOL    HW217128   5.458   2.323   9.853  0.4576  0.0847  0.6723
 4576SOL     OW17129   7.188   0.800   3.997  0.0805  0.0051  0.1423
 4576SOL    HW117130   7.236   0.786   4.079  0.5964 -1.0624 -0.3213
 4576SOL    HW217131   7.113   0.740   4.003 -1.4164  1.8546  0.9835
 4577SOL     OW17132   3.154   2.145   3.714 -0.1870  0.5927  0.4660
 4577SOL    HW117133   3.223   2.117   3.774 -1.1219 -0.9408  0.8646
 4577SOL    HW217134   3.103   2.208   3.765 -0.0630  0.4691  0.7500
 4578SOL     OW17135   6.389   6.159   4.229 -0.0590  0.6403  0.1267
 4578SOL    HW117136   6.391   6.205   4.145 -0.0605  1.7080  0.6980
 4578SOL    HW217137   6.453   6.204   4.283  1.2728 -1.1697  0.1637
 4579SOL     OW17138   9.538   7.556   8.699 -0.7413  0.7180  0.1740
 4579SOL    HW117139   9.464   7.496   8.708 -0.6018  0.6444  0.9018
 4579SOL    HW217140   9.567   7.545   8.609 -0.5080 -0.5612  0.3848
 4580SOL     OW17141   9.098   2.390   6.624 -0.1451 -0.0649  0.3499
 4580SOL    HW117142   9.144   2.367   6.705  3.0559  0.6833 -1.0636
 4580SOL    HW217143   9.079   2.306   6.582  0.1409 -0.4191  0.9195
 4581SOL     OW17144   6.099  10.398   0.148 -0.2358 -0.2726  0.0528
 4581SOL    HW117145   6.026  10.444   0.188 -0.0309 -0.2820  0.4406
 4581SOL    HW217146   6.066  10.309   0.134 -0.3866 -0.2049 -0.0282
 4582SOL     OW17147   2.567   7.277   6.829  0.0848 -0.5902 -0.1046
 4582SOL    HW117148   2.604   7.219   6.763 -1.4646 -2.2959  0.4401
 4582SOL    HW217149   2.503   7.329   6.782 -0.1732 -0.9662 -0.1706
 4583SOL     OW17150   1.404   6.119   4.536 -0.0478  0.0856  0.3909
 4583SOL    HW117151   1.328   6.146   4.588 -1.2175  0.0769 -1.2503
 4583SOL    HW217152   1.396   6.023   4.531 -1.1406  0.2257 -1.4807
 4584SOL     OW17153   4.489   9.662   0.157  0.2357 -0.2761 -0.3216
 4584SOL    HW117154   4.442   9.671   0.075  1.0284 -0.1713 -0.7752
 4584SOL    HW217155   4.421   9.659   0.224 -0.3627  2.0623 -0.7519
 4585SOL     OW17156   3.657   1.304   4.002  0.2253 -0.6106 -0.7445
 4585SOL    HW117157   3.656   1.253   4.082  2.5213 -0.8897 -0.8175
 4585SOL    HW217158   3.742   1.284   3.961  0.9430  2.6155 -1.1621
 4586SOL     OW17159   7.868   9.418   0.768  0.1339  0.1503 -0.9761
 4586SOL    HW117160   7.853   9.492   0.827 -0.4440 -1.7266  1.4087
 4586SOL    HW217161   7.951   9.437   0.726 -0.3690  2.4887 -1.0519
 4587SOL     OW17162   5.584   7.559   3.735  0.5873 -0.1469  0.1274
 4587SOL    HW117163   5.546   7.641   3.767 -1.8885 -1.4385  0.7640
 4587SOL    HW217164   5.619   7.580   3.649  0.9223  1.7815  0.6842
 4588SOL     OW17165   1.092   8.466  10.314  0.3508 -0.7262  0.1413
 4588SOL    HW117166   1.081   8.374  10.339 -3.5269 -0.8933 -1.4351
 4588SOL    HW217167   1.038   8.514  10.377  0.8158  0.2774 -0.2075
 4589SOL     OW17168   6.660   0.316   1.716 -0.0426 -0.2718  0.0134
 4589SOL    HW117169   6.708   0.235   1.734 -0.1614  0.0752  2.1931
 4589SOL    HW217170   6.568   0.292   1.723 -0.2022 -0.4567 -1.9767
 4590SOL     OW17171   2.438   3.881   6.351 -0.4330 -0.2293 -0.2540
 4590SOL    HW117172   2.467   3.791   6.342 -3.6789 -1.5085  0.7809
 4590SOL    HW217173   2.411   3.906   6.263  1.0955  0.0413 -0.6784
 4591SOL     OW17174   8.000   9.447   1.106 -0.0412 -0.2010 -0.2534
 4591SOL    HW117175   7.960   9.522   1.149  0.0410 -0.0723 -0.4008
 4591SOL    HW217176   8.056   9.485   1.038  0.3207 -0.3788 -0.0590
 4592SOL     OW17177   4.929   3.190   6.215  0.7214  0.3073 -0.3330
 4592SOL    HW117178   5.006   3.244   6.236 -0.1463  0.5802  2.6848
 4592SOL    HW217179   4.951   3.103   6.247 -0.8548  0.8384  2.5248
 4593SOL     OW17180  10.181   7.008   1.205  0.2774  0.4191 -0.4049
 4593SOL    HW117181  10.172   7.000   1.110  1.1984  0.0837 -0.4679
 4593SOL    HW217182  10.115   7.073   1.230 -0.4714 -0.0237 -1.1748
 4594SOL     OW17183   5.624   3.429   3.914 -0.7903 -0.6361 -0.0064
 4594SOL    HW117184   5.574   3.455   3.837 -0.4095  1.3330  0.3538
 4594SOL    HW217185   5.678   3.356   3.883 -0.7011  0.0459 -1.6039
 4595SOL     OW17186   1.244   7.489   0.213  0.0079  0.0007  0.1394
 4595SOL    HW117187   1.177   7.428   0.245 -2.4787 -0.0681 -4.3554
 4595SOL    HW217188   1.325   7.438   0.213 -0.8276 -1.4058  1.7098
 4596SOL     OW17189   5.249   0.370  10.893 -0.2278 -0.0407 -0.2373
 4596SOL    HW117190   5.194   0.413  10.959  1.3634 -0.4504  1.4304
 4596SOL    HW217191   5.337   0.373  10.930  0.7822 -0.0659 -2.4927
 4597SOL     OW17192   3.739   7.650   0.407  0.0427 -0.3487  0.3697
 4597SOL    HW117193   3.662   7.593   0.397  0.2798 -0.8624  1.3164
 4597SOL    HW217194   3.774   7.658   0.318 -2.0528  1.3098 -0.4000
 4598SOL     OW17195   1.830   5.897   9.793  0.0535  0.2833 -0.1534
 4598SOL    HW117196   1.894   5.969   9.788 -0.1036  0.4493  0.1635
 4598SOL    HW217197   1.762   5.930   9.852 -0.2031  0.0129 -0.2967
 4599SOL     OW17198   1.048   9.987   1.523  0.0282  0.6507 -0.5532
 4599SOL    HW117199   1.005  10.061   1.566 -1.9610  0.8744 -2.7291
 4599SOL    HW217200   0.991   9.913   1.540  0.9737  0.0229 -0.0525
 4600SOL     OW17201   7.269   2.927   8.857 -0.0592  0.3178  0.0846
 4600SOL    HW117202   7.246   2.838   8.881  0.0027  0.1096 -0.6122
 4600SOL    HW217203   7.188   2.977   8.873  0.2977  0.4176  1.7808
 4601SOL     OW17204   0.381   3.908   1.518 -0.3341  0.5603  0.1883
 4601SOL    HW117205   0.434   3.829   1.509 -0.5100  0.5418 -0.8098
 4601SOL    HW217206   0.311   3.883   1.577  0.9610  0.6952  1.8398
 4602SOL     OW17207   6.528   5.602   9.771 -0.1688  0.5692 -0.5001
 4602SOL    HW117208   6.620   5.627   9.767 -0.0367  0.7086  1.9943
 4602SOL    HW217209   6.528   5.516   9.812 -1.1440  0.8075  0.0448
 4603SOL     OW17210   0.435   2.725   6.174 -0.2091  0.0412  0.6391
 4603SOL    HW117211   0.362   2.752   6.229 -0.0407  2.2880 -0.1583
 4603SOL    HW217212   0.513   2.748   6.224 -0.0526  0.3788  0.2417
 4604SOL     OW17213   8.067   3.202   1.911  0.3777  0.1262 -0.1339
 4604SOL    HW117214   7.985   3.244   1.885  0.3387 -0.4411 -0.9431
 4604SOL    HW217215   8.105   3.262   1.976 -0.7588  0.3016  0.3951
 4605SOL     OW17216   2.269   2.471  10.342  0.4110  0.0474 -0.6437
 4605SOL    HW117217   2.255   2.376  10.347  1.2836 -0.1334 -1.2606
 4605SOL    HW217218   2.351   2.485  10.390 -1.0633  0.8864  1.8399
 4606SOL     OW17219   6.897   0.050   0.407  0.2143  0.2821 -0.2170
 4606SOL    HW117220   6.962   0.100   0.457 -0.6207  1.5824 -0.3922
 4606SOL    HW217221   6.914   0.073   0.316  2.4796 -2.9480 -0.7857
 4607SOL     OW17222   2.225   7.597   8.731 -0.2626  0.2682  0.3894
 4607SOL    HW117223   2.283   7.522   8.719 -0.3161  0.2706  0.1149
 4607SOL    HW217224   2.185   7.583   8.817 -0.0695  0.1218  0.4555
 4608SOL     OW17225   8.828   9.640   4.977 -0.0027  0.2923 -0.7604
 4608SOL    HW117226   8.847   9.716   4.923 -0.3423  0.5225 -0.5642
 4608SOL    HW217227   8.734   9.647   4.996 -0.5459 -1.3128 -2.5029
 4609SOL     OW17228   5.329   4.152   8.795 -0.5834  0.0423 -0.2068
 4609SOL    HW117229   5.377   4.206   8.857  0.2351 -1.1846  0.2571
 4609SOL    HW217230   5.251   4.203   8.774 -0.2242  1.0445  0.8193
 4610SOL     OW17231   8.821   9.565   7.465 -0.8166  0.1688  0.1861
 4610SOL    HW117232   8.915   9.552   7.477 -1.0362 -0.7432  1.1104
 4610SOL    HW217233   8.812   9.656   7.438  0.1922  0.9410  2.1988
 4611SOL     OW17234   9.824   9.978   9.031  0.0936  0.1303  0.2396
 4611SOL    HW117235   9.797  10.031   8.956  1.6000  0.3147 -0.2194
 4611SOL    HW217236   9.918   9.963   9.016  0.7543  1.2551  2.7363
 4612SOL     OW17237   6.496   2.865   1.665  0.2454  0.1606 -0.3908
 4612SOL    HW117238   6.553   2.914   1.606  1.4608 -2.0482 -1.1591
 4612SOL    HW217239   6.482   2.924   1.739  0.8777  1.9730 -1.6388
 4613SOL     OW17240   5.796  10.810   5.458 -0.1696 -0.1183 -0.7114
 4613SOL    HW117241   5.878  10.767   5.480 -0.4276 -0.2207  0.0892
 4613SOL    HW217242   5.821  10.883   5.401  0.5381  0.2009 -0.0134
 4614SOL     OW17243   5.274   6.597   5.692 -0.0607 -0.1666 -0.3767
 4614SOL    HW117244   5.336   6.557   5.631  0.3798  0.1334 -0.1368
 4614SOL    HW217245   5.188   6.582   5.653  0.1573 -0.6620 -0.6718
 4615SOL     OW17246   2.163   9.698   6.489  0.7308  0.3098 -0.1830
 4615SOL    HW117247   2.174   9.790   6.468 -1.3455  1.1459  1.8294
 4615SOL    HW217248   2.210   9.686   6.572 -0.7192  0.1491  0.6540
 4616SOL     OW17249   0.806   2.411  10.478 -0.6723 -0.6692  0.2800
 4616SOL    HW117250   0.744   2.368  10.419 -0.5058 -0.9519  0.3100
 4616SOL    HW217251   0.838   2.487  10.427  0.9051 -1.9590 -0.7687
 4617SOL     OW17252   3.803   6.307   8.167 -0.2025  1.0124  0.0843
 4617SOL    HW117253   3.829   6.253   8.241  0.8027  3.8144  1.9332
 4617SOL    HW217254   3.876   6.300   8.105  0.1764  0.7287  0.5573
 4618SOL     OW17255   8.149   8.484   7.831  0.0674 -0.2323 -0.4073
 4618SOL    HW117256   8.163   8.511   7.740 -0.3244 -0.4498 -0.5361
 4618SOL    HW217257   8.135   8.566   7.878  0.0403 -0.1321 -0.5881
 4619SOL     OW17258   2.323   0.383   3.687  0.5984  0.2413 -0.4033
 4619SOL    HW117259   2.237   0.345   3.705  1.3699 -1.4364 -0.1516
 4619SOL    HW217260   2.349   0.423   3.770  0.0019  0.8994 -0.5266
 4620SOL     OW17261   8.827   0.623   9.801  0.4837 -0.3676 -0.6068
 4620SOL    HW117262   8.874   0.693   9.756  1.6432  0.2092  1.3558
 4620SOL    HW217263   8.745   0.663   9.830 -0.2679 -0.7424 -2.1138
 4621SOL     OW17264   0.160   3.671   3.001 -0.4847 -0.0130  0.2144
 4621SOL    HW117265   0.159   3.759   3.040 -0.2516  0.4545 -0.7978
 4621SOL    HW217266   0.243   3.634   3.029 -0.0588  0.5367 -0.2798
 4622SOL     OW17267   6.695   8.725   9.220  0.1269 -0.3896 -0.4580
 4622SOL    HW117268   6.719   8.789   9.153  0.4079  0.8697  0.8029
 4622SOL    HW217269   6.678   8.777   9.299  0.0896 -1.8408  0.5397
 4623SOL     OW17270   6.202   1.595   1.212 -0.4103  0.5217  0.6057
 4623SOL    HW117271   6.275   1.534   1.228  1.7768  2.9547  0.6243
 4623SOL    HW217272   6.212   1.621   1.121 -1.7879  0.3062  0.3747
 4624SOL     OW17273   8.561   2.665   2.392 -0.2846  0.2930 -0.0250
 4624SOL    HW117274   8.547   2.606   2.465  0.5778  0.5657  0.3715
 4624SOL    HW217275   8.656   2.679   2.389 -0.4170  1.2487 -0.4181
 4625SOL     OW17276   3.688   8.513  10.662  0.5001 -0.4144  0.4262
 4625SOL    HW117277   3.618   8.575  10.682  0.2006 -0.7061  0.2794
 4625SOL    HW217278   3.748   8.521  10.736  1.1138  0.9679 -0.1896
 4626SOL     OW17279   3.723   9.405   3.943  0.5533 -0.2882  0.7700
 4626SOL    HW117280   3.639   9.384   3.902  0.3996  0.4552  0.6901
 4626SOL    HW217281   3.786   9.347   3.900  0.0629 -0.9574  0.9341
 4627SOL     OW17282   9.932   0.215   0.435  0.2386  0.4226  0.0195
 4627SOL    HW117283  10.013   0.177   0.403  1.3866  1.8130  1.1452
 4627SOL    HW217284   9.893   0.257   0.359  1.1634  0.7106 -0.3054
 4628SOL     OW17285   0.538   8.139   7.436 -0.2344 -0.2982  0.0907
 4628SOL    HW117286   0.477   8.093   7.378 -1.8370 -2.0879  2.9145
 4628SOL    HW217287   0.598   8.070   7.466 -1.1815 -0.1393  2.5816
 4629SOL     OW17288   6.627   3.653   9.447 -0.0362 -0.5072  0.5051
 4629SOL    HW117289   6.586   3.570   9.474 -0.5265 -0.6300 -0.5792
 4629SOL    HW217290   6.705   3.626   9.399 -1.2599 -0.4569 -1.6422
 4630SOL     OW17291   0.085   3.668   7.320  0.3822 -0.0077  0.4380
 4630SOL    HW117292   0.030   3.692   7.394  0.5553 -0.7386  0.8178
 4630SOL    HW217293   0.094   3.573   7.327  1.0330  0.0081 -0.0797
 4631SOL     OW17294   6.212   2.152   4.398  0.2019  0.2684 -0.2275
 4631SOL    HW117295   6.215   2.179   4.490 -0.2028 -0.6675  0.0737
 4631SOL    HW217296   6.303   2.132   4.375 -0.0405 -2.7377  1.0027
 4632SOL     OW17297   0.513   7.016   5.229 -0.5739  0.7721  0.1119
 4632SOL    HW117298   0.476   6.955   5.165 -0.1889 -0.9609  1.4529
 4632SOL    HW217299   0.606   6.994   5.231 -0.3345  1.7540  0.3018
 4633SOL     OW17300   6.495   2.377  10.064 -0.2205  0.1047  0.1416
 4633SOL    HW117301   6.440   2.455  10.066 -1.3318 -0.6331 -0.4695
 4633SOL    HW217302   6.528   2.372   9.974 -1.4867 -0.9886 -0.2990
 4634SOL     OW17303   7.275   0.769   5.187 -0.1219  0.5542 -0.6476
 4634SOL    HW117304   7.321   0.691   5.218  2.1604  2.5936  1.5518
 4634SOL    HW217305   7.319   0.790   5.104  1.9066  1.5107  0.5920
 4635SOL     OW17306   1.657   5.763   8.929 -0.2064  0.2049 -0.2515
 4635SOL    HW117307   1.727   5.702   8.955 -0.7764 -0.2400  0.2753
 4635SOL    HW217308   1.700   5.825   8.871  0.6614  0.0075  0.1579
 4636SOL     OW17309   4.285   9.159   7.756 -0.1936 -0.3413 -0.2054
 4636SOL    HW117310   4.345   9.103   7.706 -0.0602 -0.9257  0.6002
 4636SOL    HW217311   4.202   9.113   7.754 -0.1898 -0.3597  0.1143
 4637SOL     OW17312   2.992   6.769   9.601  0.0280 -0.4910 -0.2411
 4637SOL    HW117313   3.013   6.816   9.520  0.1215 -0.2643 -0.0831
 4637SOL    HW217314   3.033   6.820   9.670  2.1145 -2.0260 -0.2559
 4638SOL     OW17315   9.626   5.750  10.453 -0.2447  0.3436 -0.1453
 4638SOL    HW117316   9.666   5.701  10.381  2.1120  2.5974 -0.5012
 4638SOL    HW217317   9.687   5.738  10.526 -1.0070  0.6313  0.5495
 4639SOL     OW17318   4.788   3.448   4.465  0.2473 -0.0991 -0.2391
 4639SOL    HW117319   4.854   3.379   4.462  0.7756  0.3346  0.8970
 4639SOL    HW217320   4.740   3.439   4.382  0.8122 -1.3122 -0.4539
 4640SOL     OW17321   7.784   6.534   4.689 -0.5731  0.5592  0.3485
 4640SOL    HW117322   7.772   6.579   4.605  1.5238  2.7118  1.0820
 4640SOL    HW217323   7.825   6.451   4.666  0.1917  1.2137 -0.7819
 4641SOL     OW17324   2.012   4.210   8.328  0.0609  0.1263  0.5961
 4641SOL    HW117325   1.927   4.172   8.307 -0.0266  0.2640  0.7011
 4641SOL    HW217326   2.031   4.178   8.416 -0.3138  0.8496  0.9463
 4642SOL     OW17327   3.815   6.390   6.276  0.0330 -0.2349  0.3664
 4642SOL    HW117328   3.776   6.476   6.260 -0.1728 -0.2466  0.7887
 4642SOL    HW217329   3.801   6.342   6.194 -0.6764 -0.1712  0.4451
 4643SOL     OW17330   4.840   2.624   3.793  0.0591  0.3031 -0.0719
 4643SOL    HW117331   4.841   2.689   3.723  2.8484  0.2445 -0.1658
 4643SOL    HW217332   4.914   2.647   3.849 -1.3753 -0.3583  2.2507
 4644SOL     OW17333   0.833   7.493   9.114  0.7844  0.3715 -0.2800
 4644SOL    HW117334   0.810   7.465   9.202 -0.0465 -0.6306 -0.7893
 4644SOL    HW217335   0.823   7.588   9.115  1.5485  0.4460  0.9068
 4645SOL     OW17336   0.788   0.272   9.935  0.1062 -0.3007  0.5579
 4645SOL    HW117337   0.738   0.354   9.939  1.7547  0.8190 -0.6994
 4645SOL    HW217338   0.844   0.274  10.012 -0.9883 -1.0810  1.4184
 4646SOL     OW17339   8.053  10.763   8.580 -0.2429 -0.4504  0.4335
 4646SOL    HW117340   8.004  10.744   8.660  0.2337 -1.1346  0.5639
 4646SOL    HW217341   8.012  10.708   8.513 -0.9435  0.4593  0.0830
 4647SOL     OW17342   2.102  10.031   6.567 -0.8339 -0.2089  0.0781
 4647SOL    HW117343   2.089   9.981   6.648  2.5923  0.6732  1.3286
 4647SOL    HW217344   2.196  10.048   6.563 -1.2106  2.1174 -2.7395
 4648SOL     OW17345   1.638  10.798   4.286 -0.0090 -0.0026 -0.3157
 4648SOL    HW117346   1.655  10.831   4.374  0.7235 -2.1573  0.4214
 4648SOL    HW217347   1.703  10.841   4.231 -0.1856  1.0277  0.2580
 4649SOL     OW17348   4.852   1.462   6.418  0.0512  0.7116  0.2350
 4649SOL    HW117349   4.908   1.390   6.448  2.2434  1.5624 -1.4761
 4649SOL    HW217350   4.860   1.528   6.486  1.7302  1.0690 -0.2636
 4650SOL     OW17351   2.163   7.838   3.308  0.0030 -0.0998  0.3170
 4650SOL    HW117352   2.108   7.905   3.347  1.3781  1.3605 -0.1607
 4650SOL    HW217353   2.218   7.807   3.380 -1.3294 -1.5155  0.7801
 4651SOL     OW17354   3.563   9.141   3.271  0.2969 -0.6212  0.2309
 4651SOL    HW117355   3.524   9.058   3.301  0.8394 -1.2594 -0.7672
 4651SOL    HW217356   3.501   9.174   3.206  0.1392 -0.2992  0.5437
 4652SOL     OW17357   7.688  10.137   2.135  0.0281  0.1960  0.3271
 4652SOL    HW117358   7.655  10.135   2.225 -1.2287  2.4910 -0.0240
 4652SOL    HW217359   7.628  10.081   2.086  0.6969 -1.0352  0.8831
 4653SOL     OW17360   1.345   1.867   4.177 -0.0129 -0.2587  0.5579
 4653SOL    HW117361   1.335   1.865   4.272 -2.3027 -1.5424  0.3647
 4653SOL    HW217362   1.314   1.781   4.148  0.0824  0.3200 -1.3893
 4654SOL     OW17363   8.858   9.086   4.049  0.1047 -0.7916  0.0596
 4654SOL    HW117364   8.935   9.051   4.095 -0.5458 -2.2278  0.1062
 4654SOL    HW217365   8.788   9.083   4.114 -0.3627 -1.0177 -0.4422
 4655SOL     OW17366   4.035   7.017   6.451  0.3993  0.1000 -0.0103
 4655SOL    HW117367   4.038   7.054   6.362 -3.5001 -0.4534 -0.5388
 4655SOL    HW217368   4.033   6.922   6.436  1.9130 -0.1069  0.8806
 4656SOL     OW17369   1.586   1.189   7.691 -0.1765 -0.0206  0.2216
 4656SOL    HW117370   1.497   1.206   7.720  0.3828  1.6169  1.1249
 4656SOL    HW217371   1.638   1.259   7.730  1.1624  0.3738 -2.0852
 4657SOL     OW17372   4.967   8.758   2.904 -0.2734 -0.5669  0.1432
 4657SOL    HW117373   4.975   8.824   2.973 -0.9307  0.2463 -0.5296
 4657SOL    HW217374   5.024   8.687   2.933 -0.1582 -0.0481  1.2837
 4658SOL     OW17375   4.502   8.964   9.969  0.5094 -0.4171 -0.0714
 4658SOL    HW117376   4.420   8.918   9.988 -0.0675  0.6291  0.0667
 4658SOL    HW217377   4.551   8.903   9.914 -0.5865 -0.8484 -0.6145
 4659SOL     OW17378  10.107  10.479   0.720 -0.0074  0.5754 -0.4423
 4659SOL    HW117379  10.155  10.450   0.642 -0.1758  0.0500 -0.3561
 4659SOL    HW217380  10.067  10.399   0.754 -1.3294  1.0760 -0.7786
 4660SOL     OW17381   8.344   9.107   0.514 -0.1877  0.5066  0.8444
 4660SOL    HW117382   8.260   9.090   0.556  0.2432  0.6785  1.7938
 4660SOL    HW217383   8.390   9.164   0.575  1.2775 -0.9075  1.1183
 4661SOL     OW17384   8.542  10.757   7.537  0.2035  0.2550  0.0035
 4661SOL    HW117385   8.465  10.745   7.481  0.3903 -0.5915 -0.0856
 4661SOL    HW217386   8.513  10.730   7.624  0.3221  0.2029  0.0269
 4662SOL     OW17387   7.383  10.828   9.987 -0.3873 -0.0290 -0.1573
 4662SOL    HW117388   7.378  10.765   9.915  0.5488  0.4594 -0.6821
 4662SOL    HW217389   7.476  10.830  10.010 -0.6061  0.1814  0.7512
 4663SOL     OW17390   9.957   6.991   5.027 -0.7598 -0.2878 -0.1712
 4663SOL    HW117391  10.001   6.939   5.094  0.1003 -1.0134 -1.2674
 4663SOL    HW217392   9.979   7.082   5.048  0.4471 -0.5805 -0.1070
 4664SOL     OW17393   1.691   0.788   1.359 -0.2701 -0.1184  0.1108
 4664SOL    HW117394   1.747   0.754   1.429 -1.2978  0.7083  1.3910
 4664SOL    HW217395   1.630   0.717   1.341  0.5481 -0.6653 -0.6132
 4665SOL     OW17396  10.330   6.908   9.359 -0.0702  0.3490  0.2920
 4665SOL    HW117397  10.321   7.003   9.367  0.9553  0.5306 -0.3700
 4665SOL    HW217398  10.241   6.876   9.346 -0.2543  1.4894 -1.7840
 4666SOL     OW17399   7.243   4.187   2.502 -0.1676 -0.1989 -0.3006
 4666SOL    HW117400   7.253   4.131   2.425  1.3939  0.2590 -0.4559
 4666SOL    HW217401   7.162   4.235   2.486  0.5625  0.5259 -2.0956
 4667SOL     OW17402  10.370   3.750   0.780 -0.0249  0.0930 -0.5288
 4667SOL    HW117403  10.295   3.700   0.812 -0.3763  0.3951 -0.8572
 4667SOL    HW217404  10.392   3.810   0.852  1.2934 -1.4615  0.4179
 4668SOL     OW17405   7.428   4.127   6.096 -0.5229  0.1506  0.1200
 4668SOL    HW117406   7.344   4.105   6.057  0.1196  1.5493 -2.2254
 4668SOL    HW217407   7.487   4.056   6.069 -0.9147 -0.9200  1.9047
 4669SOL     OW17408   5.944   3.376  10.050 -0.3093 -0.0409  0.1249
 4669SOL    HW117409   5.954   3.283  10.066 -0.2956 -0.0417  0.1111
 4669SOL    HW217410   5.861   3.383  10.002 -1.7366  0.1968  2.4935
 4670SOL     OW17411   4.832   4.085   2.665 -0.6958 -0.0003  0.3791
 4670SOL    HW117412   4.881   4.120   2.740 -4.1894  1.9807  1.9622
 4670SOL    HW217413   4.848   3.991   2.669 -0.1867  0.1064  3.2687
 4671SOL     OW17414   4.385   1.974   3.467  0.6386  0.3766  0.1764
 4671SOL    HW117415   4.408   2.066   3.480  0.1378  0.3213  1.6309
 4671SOL    HW217416   4.456   1.925   3.509 -0.0245  0.1467  1.0623
 4672SOL     OW17417   2.707   6.094   3.829 -0.3285  0.2177 -0.1618
 4672SOL    HW117418   2.798   6.105   3.856 -0.1524 -1.3716  0.0079
 4672SOL    HW217419   2.684   6.005   3.857 -1.7360  0.3574 -0.7605
 4673SOL     OW17420   5.339   3.038   5.303  0.0569  0.5212 -0.3808
 4673SOL    HW117421   5.381   3.109   5.350  0.7033  0.3455 -0.6804
 4673SOL    HW217422   5.247   3.065   5.296 -0.2361  0.2045  1.6282
 4674SOL     OW17423   2.835   3.887   4.378 -0.3975  0.1539  0.2866
 4674SOL    HW117424   2.758   3.830   4.388 -0.6166 -0.0634 -2.0022
 4674SOL    HW217425   2.807   3.953   4.315  1.0468  0.5478  0.0260
 4675SOL     OW17426   6.905   2.722   8.137 -0.2751 -0.2183 -0.2785
 4675SOL    HW117427   6.986   2.772   8.128 -0.7105  0.2640 -1.6382
 4675SOL    HW217428   6.861   2.763   8.211 -0.9232  1.8929 -1.7514
 4676SOL     OW17429   6.973   2.982   7.385  0.1203  0.8843  0.6572
 4676SOL    HW117430   6.900   3.024   7.433  0.1219  0.3353  1.1499
 4676SOL    HW217431   6.959   3.007   7.294 -2.9120 -2.2404  0.0579
 4677SOL     OW17432   4.307   8.978   1.093  0.0437 -0.4313 -0.2610
 4677SOL    HW117433   4.288   8.899   1.143 -0.3098 -1.2256 -1.6053
 4677SOL    HW217434   4.224   9.024   1.088  0.1746 -0.1363  0.2367
 4678SOL     OW17435   1.762  10.028   7.551  0.2480 -0.3015 -1.0095
 4678SOL    HW117436   1.696  10.097   7.543 -0.7552 -0.9343  1.2012
 4678SOL    HW217437   1.788  10.010   7.461 -0.8081  1.6628 -1.7762
 4679SOL     OW17438   7.833   0.730   2.445 -1.0259 -0.0939 -0.1867
 4679SOL    HW117439   7.829   0.825   2.456 -0.5479 -0.1776  0.7581
 4679SOL    HW217440   7.923   0.707   2.464 -1.3551 -0.8445  0.5160
 4680SOL     OW17441   5.763   9.691   5.136 -0.0030  0.4020  0.0734
 4680SOL    HW117442   5.684   9.639   5.119  0.1972  0.0195  0.2792
 4680SOL    HW217443   5.829   9.654   5.077 -0.1177  1.0746 -0.4868
 4681SOL     OW17444  10.690   8.294   7.523  0.3269 -0.1295 -0.0022
 4681SOL    HW117445  10.770   8.245   7.541  0.2038  0.1342  1.3403
 4681SOL    HW217446  10.692   8.368   7.584 -0.4559  0.4411 -0.6390
 4682SOL     OW17447   7.156   0.782   9.585 -0.4103 -0.3567 -0.3668
 4682SOL    HW117448   7.152   0.710   9.647 -0.8582  0.0241  0.0546
 4682SOL    HW217449   7.211   0.750   9.513  0.7465 -0.5458  0.5739
 4683SOL     OW17450   8.923   6.173   9.087 -0.0686  0.3927  0.9889
 4683SOL    HW117451   8.967   6.239   9.034  0.5221  0.6945  1.8379
 4683SOL    HW217452   8.850   6.220   9.129 -0.2742  0.2550  0.7916
 4684SOL     OW17453   5.664   9.955   5.255  0.2440 -0.2355  0.4817
 4684SOL    HW117454   5.692   9.871   5.219  0.3837 -0.0949  0.2598
 4684SOL    HW217455   5.610   9.994   5.187 -2.4117 -1.4828  1.7412
 4685SOL     OW17456   9.733  10.669   2.577 -0.2891  0.0113  0.1794
 4685SOL    HW117457   9.708  10.694   2.489 -2.0996 -0.6525  0.4727
 4685SOL    HW217458   9.700  10.580   2.588 -0.1220  0.0866  1.5384
 4686SOL     OW17459   2.672   1.269   9.814  0.3234 -0.4035  0.0983
 4686SOL    HW117460   2.669   1.323   9.893 -1.2757  1.9320 -1.3936
 4686SOL    HW217461   2.595   1.297   9.763  2.7381  0.3457 -3.5563
 4687SOL     OW17462   9.574   4.619   6.059  0.1952  0.3464 -0.3954
 4687SOL    HW117463   9.657   4.573   6.055 -0.2399 -0.3940 -1.1158
 4687SOL    HW217464   9.549   4.633   5.967 -0.8106 -0.0655 -0.1986
 4688SOL     OW17465   1.850   4.105   1.576 -0.1427 -0.2172 -0.1036
 4688SOL    HW117466   1.917   4.133   1.638 -0.5981 -1.1335  0.8425
 4688SOL    HW217467   1.792   4.048   1.627 -0.2916 -1.3584 -1.4607
 4689SOL     OW17468   9.499   7.859   7.050 -0.5472  0.1280  0.4007
 4689SOL    HW117469   9.496   7.925   7.119 -1.5639  0.7885 -0.2392
 4689SOL    HW217470   9.430   7.797   7.072 -1.7167  1.0194 -0.6465
 4690SOL     OW17471   9.394   1.316   4.227  0.1110  0.0841  0.0859
 4690SOL    HW117472   9.479   1.360   4.239  0.0443  0.1538  0.3260
 4690SOL    HW217473   9.409   1.227   4.257  0.2968 -0.1080 -0.5800
 4691SOL     OW17474   8.471   9.805   4.477  0.1371 -0.2934 -0.3502
 4691SOL    HW117475   8.423   9.782   4.557  0.7589 -1.3437 -0.2665
 4691SOL    HW217476   8.474   9.724   4.426  0.0060  0.2929 -1.3160
 4692SOL     OW17477   9.870   4.148   0.523 -0.2586 -0.3815  0.0503
 4692SOL    HW117478   9.883   4.232   0.568 -0.0511 -0.2404 -0.2677
 4692SOL    HW217479   9.936   4.148   0.454  0.4288 -1.2611  0.6894
 4693SOL     OW17480   8.462   1.106   5.570  0.3726 -0.5617 -0.0733
 4693SOL    HW117481   8.389   1.046   5.554  0.0948  0.4230 -2.9021
 4693SOL    HW217482   8.533   1.073   5.515  0.3466  1.4187 -1.3703
 4694SOL     OW17483   7.851   1.379   3.107 -0.4623 -0.0942  0.4925
 4694SOL    HW117484   7.844   1.401   3.200 -1.4981 -0.0631  0.4253
 4694SOL    HW217485   7.801   1.448   3.063  0.8972  0.4967 -0.1934
 4695SOL     OW17486  10.597   3.587   8.782 -0.0341  0.2725  0.1267
 4695SOL    HW117487  10.658   3.657   8.807 -1.1675  1.5145 -0.4351
 4695SOL    HW217488  10.551   3.566   8.863  0.4624  0.0155  0.3452
 4696SOL     OW17489   7.404   3.004  10.027  0.1886 -0.0626 -0.0363
 4696SOL    HW117490   7.318   2.979   9.995  0.6549 -2.0363  0.0673
 4696SOL    HW217491   7.413   2.958  10.111  1.1373  0.5311  0.2112
 4697SOL     OW17492   8.376   6.505   8.570 -0.0511  0.7842 -0.4981
 4697SOL    HW117493   8.380   6.445   8.496 -0.9378  1.7043 -1.3123
 4697SOL    HW217494   8.374   6.592   8.531  0.6640  1.3407  0.6518
 4698SOL     OW17495   8.683   3.944  10.659 -0.6256 -0.2836  0.3511
 4698SOL    HW117496   8.697   4.033  10.690  0.8964  0.1844 -1.4646
 4698SOL    HW217497   8.732   3.889  10.720  0.2128  0.3515  0.2709
 4699SOL     OW17498   8.618   3.558   1.252  0.0198 -0.0937  0.1965
 4699SOL    HW117499   8.628   3.647   1.286  2.9182  0.2780 -1.3573
 4699SOL    HW217500   8.667   3.503   1.313  0.6916 -0.1804 -0.4085
 4700SOL     OW17501   6.247   0.775   6.947 -0.0536 -0.1813 -0.0600
 4700SOL    HW117502   6.216   0.839   6.882  0.6878  1.0673  0.7798
 4700SOL    HW217503   6.269   0.697   6.895  1.1917  1.0235 -1.4334
 4701SOL     OW17504   2.466   6.989   6.464  0.2906  0.6868  0.7912
 4701SOL    HW117505   2.393   6.985   6.525  1.2491 -0.1113  1.9384
 4701SOL    HW217506   2.441   7.056   6.401 -2.1328 -0.6961  0.1624
 4702SOL     OW17507   3.988   6.043   8.107  0.5152 -0.4823 -0.1986
 4702SOL    HW117508   4.065   6.099   8.097  1.6535 -1.4765  2.2499
 4702SOL    HW217509   4.012   5.962   8.062  0.2295 -0.2276 -0.8207
 4703SOL     OW17510   0.520   8.834   7.991  0.5080  0.8689 -0.5244
 4703SOL    HW117511   0.504   8.743   8.014  0.5244  1.1979  0.8868
 4703SOL    HW217512   0.564   8.871   8.068  1.9078  1.6846 -1.6712
 4704SOL     OW17513   3.650   4.965   9.139 -0.0434  0.0234  0.1543
 4704SOL    HW117514   3.587   4.966   9.067 -0.0211 -1.0888  0.1027
 4704SOL    HW217515   3.610   5.021   9.206 -1.8346 -1.7825  0.7076
 4705SOL     OW17516   3.792   7.002   8.262 -0.4599 -0.0458 -0.1104
 4705SOL    HW117517   3.778   7.064   8.333  2.2785 -0.5615  1.0246
 4705SOL    HW217518   3.777   6.916   8.302 -1.6662 -0.2522 -0.9597
 4706SOL     OW17519   4.259  10.103   7.425 -0.3040  0.0849  0.5594
 4706SOL    HW117520   4.235  10.195   7.421  1.5311  0.7213  2.3522
 4706SOL    HW217521   4.335  10.095   7.366 -1.2883 -0.6224 -0.6559
 4707SOL     OW17522   9.542   6.746   1.029 -0.4107  0.1528 -0.1989
 4707SOL    HW117523   9.478   6.732   1.100 -1.3096  2.3336 -0.4947
 4707SOL    HW217524   9.627   6.745   1.073 -0.7539 -1.0206  0.4901
 4708SOL     OW17525   4.000  10.735   1.498 -0.0846  0.6648 -0.3100
 4708SOL    HW117526   3.971  10.780   1.577 -0.8586 -0.0969 -0.1446
 4708SOL    HW217527   4.064  10.671   1.529  1.5822  2.0933 -0.6319
 4709SOL     OW17528   7.232   0.113   3.048  0.2332  0.1725  0.1170
 4709SOL    HW117529   7.291   0.180   3.014  0.2430  0.2935  0.3681
 4709SOL    HW217530   7.147   0.156   3.056 -0.0203 -0.1473 -0.7415
 4710SOL     OW17531   4.766   6.288   1.138 -0.4449 -0.2440  0.6843
 4710SOL    HW117532   4.843   6.310   1.190  0.6082  2.2912 -1.6932
 4710SOL    HW217533   4.719   6.371   1.128 -2.0081 -1.1855 -0.2586
 4711SOL     OW17534   7.513   3.029   9.774  0.1163 -0.4342 -0.6937
 4711SOL    HW117535   7.529   3.123   9.764  2.0001 -0.6293  0.0269
 4711SOL    HW217536   7.463   3.022   9.855  1.2938 -0.1202  0.0934
 4712SOL     OW17537   3.606   1.108   6.946  0.0972  0.0656 -0.2359
 4712SOL    HW117538   3.587   1.196   6.977 -2.2339 -0.8727  1.2134
 4712SOL    HW217539   3.590   1.051   7.021  0.9523 -1.6871 -1.3014
 4713SOL     OW17540   8.100   9.113  10.065  0.0717 -0.3633  0.1776
 4713SOL    HW117541   8.137   9.179  10.007 -0.3363 -0.4513 -0.1830
 4713SOL    HW217542   8.177   9.070  10.104  0.3694 -0.9868 -1.0585
 4714SOL     OW17543   3.444  10.256   6.935 -0.0776  0.0896 -0.2799
 4714SOL    HW117544   3.402  10.220   7.013  0.3024  1.7661  0.7445
 4714SOL    HW217545   3.529  10.213   6.931  0.3534  0.8003  0.8838
 4715SOL     OW17546   9.223   0.859   3.275 -0.5769  0.2653 -0.0483
 4715SOL    HW117547   9.173   0.779   3.258  0.0866 -0.3327  0.7440
 4715SOL    HW217548   9.278   0.837   3.350 -1.0041  1.7305  0.7294
 4716SOL     OW17549   9.281   0.524   8.664  0.1410  0.4380 -0.0776
 4716SOL    HW117550   9.376   0.528   8.657  0.1863 -1.7752 -2.8674
 4716SOL    HW217551   9.249   0.552   8.578 -1.4295 -2.4701 -0.5865
 4717SOL     OW17552   4.444   2.711   1.990 -0.2636 -0.3216 -0.4601
 4717SOL    HW117553   4.521   2.691   2.043 -0.8440  0.5391  0.7810
 4717SOL    HW217554   4.372   2.668   2.036 -0.6921 -0.0780 -0.8955
 4718SOL     OW17555   0.171   2.354   4.567  0.3656  0.7600 -0.3606
 4718SOL    HW117556   0.264   2.352   4.546  0.8970 -1.8639  1.6847
 4718SOL    HW217557   0.168   2.359   4.663 -1.4524 -1.5408 -0.1860
 4719SOL     OW17558   0.011   6.636   3.869  0.4609  0.0502  0.0731
 4719SOL    HW117559   0.100   6.600   3.871  0.8102  0.8449 -0.7013
 4719SOL    HW217560   0.013   6.702   3.800 -0.4707  0.7717  0.7091
 4720SOL     OW17561  10.757   4.922   3.855 -0.1999 -0.1348 -0.1754
 4720SOL    HW117562  10.816   4.988   3.893 -1.2344  1.0456 -0.5566
 4720SOL    HW217563  10.741   4.861   3.927  0.9893 -0.1447  0.1105
 4721SOL     OW17564   6.383   1.586   3.800 -0.7352  0.4494 -0.4369
 4721SOL    HW117565   6.438   1.660   3.773  0.5081  0.4874  1.9207
 4721SOL    HW217566   6.310   1.627   3.847 -0.9872  0.2489 -0.6528
 4722SOL     OW17567   9.605  10.073   6.488 -0.0455 -0.3929 -0.1900
 4722SOL    HW117568   9.670  10.047   6.423  0.0672 -0.7136  0.0454
 4722SOL    HW217569   9.521  10.054   6.447 -0.1197  2.1636 -1.4311
 4723SOL     OW17570  10.833   3.508   2.607  0.7778  0.1642  0.2515
 4723SOL    HW117571  10.902   3.566   2.638 -0.4301  1.0033  1.5034
 4723SOL    HW217572  10.869   3.467   2.528  1.7233  2.5435 -0.6382
 4724SOL     OW17573   6.888   9.990   7.315 -0.1445 -0.0009  0.1784
 4724SOL    HW117574   6.900  10.068   7.262  0.2143  0.6577  1.1988
 4724SOL    HW217575   6.796   9.991   7.340 -0.1328  0.1183  0.2170
 4725SOL     OW17576   9.284   0.932   8.390  0.1174 -0.3348 -0.1926
 4725SOL    HW117577   9.253   0.936   8.300  0.8294 -1.0313 -0.4798
 4725SOL    HW217578   9.220   0.983   8.440 -0.7161 -0.5909 -0.9695
 4726SOL     OW17579   9.917   1.759   7.202 -0.2680 -0.0565  0.6241
 4726SOL    HW117580   9.922   1.715   7.117 -0.3258  1.5335 -0.2396
 4726SOL    HW217581   9.826   1.788   7.209 -0.1700  0.1596  1.0602
 4727SOL     OW17582   0.406   3.488   2.571 -0.0183 -0.1033 -0.5331
 4727SOL    HW117583   0.392   3.404   2.614  0.4722  0.5018  0.8434
 4727SOL    HW217584   0.453   3.466   2.490 -1.4681 -1.3084 -1.0979
 4728SOL     OW17585   8.025   1.647   7.914  0.2288 -0.0008 -0.0149
 4728SOL    HW117586   8.077   1.704   7.971  1.6867 -0.3058 -0.9804
 4728SOL    HW217587   7.950   1.701   7.889  1.1803  1.2494 -0.3077
 4729SOL     OW17588   5.246   9.362  10.057  0.3278 -0.2261 -0.3740
 4729SOL    HW117589   5.241   9.289  10.119  1.0667 -0.2602 -0.3495
 4729SOL    HW217590   5.253   9.320   9.971 -2.0886 -0.1992 -0.6578
 4730SOL     OW17591   3.787  10.610   3.198 -0.7144  0.4361  0.2914
 4730SOL    HW117592   3.729  10.643   3.266 -1.0637 -1.7121  1.1364
 4730SOL    HW217593   3.729  10.569   3.134 -0.2340 -1.6251  1.0831
 4731SOL     OW17594   9.763   9.838  10.765  0.0260  0.7828  0.3297
 4731SOL    HW117595   9.807   9.922  10.777  2.4597 -0.3552 -0.0076
 4731SOL    HW217596   9.834   9.774  10.760 -1.5716 -0.9886 -2.0948
 4732SOL     OW17597   8.180   0.097   8.530 -0.6516 -0.0160  0.1757
 4732SOL    HW117598   8.158   0.005   8.516 -0.5034  0.2308 -2.1738
 4732SOL    HW217599   8.097   0.144   8.519 -0.2113  0.3559 -1.9882
 4733SOL     OW17600   5.640   8.624   0.299  0.4326 -0.1841 -0.3673
 4733SOL    HW117601   5.590   8.559   0.348  1.2249 -1.2958 -0.9928
 4733SOL    HW217602   5.603   8.708   0.326 -0.3918 -0.8682  0.7037
 4734SOL     OW17603   0.466   0.482   6.707  0.3561 -0.4937  0.2884
 4734SOL    HW117604   0.472   0.550   6.775  0.2848  0.9125 -1.0405
 4734SOL    HW217605   0.553   0.479   6.668  0.5441 -1.6735  0.7685
 4735SOL     OW17606   0.832   9.852   8.448  0.2208 -0.2929 -0.4702
 4735SOL    HW117607   0.780   9.881   8.522  1.0093 -0.5679  0.2173
 4735SOL    HW217608   0.898   9.795   8.487  0.1267 -1.1353 -1.4920
 4736SOL     OW17609   4.063   1.546  10.294 -0.6180  0.4376  0.4549
 4736SOL    HW117610   4.137   1.487  10.309  0.0895  1.2712  0.3215
 4736SOL    HW217611   4.079   1.621  10.352 -0.6135  1.2623 -0.5776
 4737SOL     OW17612   7.856   9.637   5.428 -0.1063 -0.5306  0.6007
 4737SOL    HW117613   7.776   9.666   5.384  1.5131  3.6055 -0.0944
 4737SOL    HW217614   7.852   9.678   5.515  2.0896  1.7161 -0.2236
 4738SOL     OW17615   7.553   6.338   3.300  0.0262  0.5475  0.7723
 4738SOL    HW117616   7.468   6.362   3.265  0.7445  1.4589 -0.4146
 4738SOL    HW217617   7.615   6.361   3.231  0.9966 -3.0034  0.2913
 4739SOL     OW17618   3.880   7.440   4.314  0.0399 -0.1513  0.2718
 4739SOL    HW117619   3.936   7.366   4.290  0.4809  0.5116 -0.8316
 4739SOL    HW217620   3.791   7.409   4.299  0.2340 -0.3818 -0.4442
 4740SOL     OW17621   7.524  10.800   4.786  0.5943  0.0735 -0.0047
 4740SOL    HW117622   7.580  10.864   4.742 -0.2016  1.2648  0.6773
 4740SOL    HW217623   7.438  10.812   4.747 -0.0101  0.8062  1.4745
 4741SOL     OW17624   4.332   5.651  10.606 -0.0749 -0.1577 -0.5291
 4741SOL    HW117625   4.298   5.658  10.517 -2.4796  0.8489  0.4103
 4741SOL    HW217626   4.271   5.699  10.660  1.1527 -0.9891  1.7571
 4742SOL     OW17627  10.217   4.944   2.718  0.4421 -0.4291  0.7406
 4742SOL    HW117628  10.168   4.884   2.662  0.6543 -0.3022  0.4217
 4742SOL    HW217629  10.162   4.953   2.797  0.0333 -0.4256  0.4594
 4743SOL     OW17630   8.415   0.641   4.774 -0.0904  0.1708  0.2795
 4743SOL    HW117631   8.403   0.563   4.829 -0.6975  1.0872  1.5102
 4743SOL    HW217632   8.403   0.714   4.835  2.5942  1.2536 -0.3516
 4744SOL     OW17633   4.924  10.755  10.158  0.4923  0.0472 -0.4527
 4744SOL    HW117634   4.917  10.673  10.207 -2.3160 -0.2035 -1.0869
 4744SOL    HW217635   4.989  10.806  10.206  0.0343 -1.3319  1.8152
 4745SOL     OW17636   7.839   5.145   4.590  0.1404  0.5157 -0.5897
 4745SOL    HW117637   7.878   5.125   4.675  0.2137 -0.9857 -0.9639
 4745SOL    HW217638   7.748   5.116   4.598  0.4743 -0.8060 -1.4264
 4746SOL     OW17639   1.872   1.438   5.283  0.1424  0.2210  0.1227
 4746SOL    HW117640   1.963   1.412   5.291  0.8657  2.1675 -1.0180
 4746SOL    HW217641   1.857   1.445   5.189 -0.6671  1.5362  0.3243
 4747SOL     OW17642  10.438   4.980  10.811  0.0748 -0.2489 -0.0365
 4747SOL    HW117643  10.477   5.067  10.815  0.2232 -0.3043 -0.2648
 4747SOL    HW217644  10.511   4.920  10.827  0.0155 -0.3393 -0.1041
 4748SOL     OW17645   3.863   8.881   7.216  0.2278  0.2484  0.1149
 4748SOL    HW117646   3.923   8.833   7.273  0.7839 -1.8336 -2.0152
 4748SOL    HW217647   3.787   8.899   7.270  0.7885 -1.4441  1.5630
 4749SOL     OW17648   4.454   4.532   7.680  0.8806  0.1627 -0.1768
 4749SOL    HW117649   4.359   4.532   7.688  0.8810 -1.3293 -0.0752
 4749SOL    HW217650   4.483   4.608   7.731 -0.1791  0.0297  0.6374
 4750SOL     OW17651   2.901   1.242   7.096 -0.0912  0.1183 -0.2670
 4750SOL    HW117652   2.861   1.155   7.086  0.0646 -0.0023  0.1429
 4750SOL    HW217653   2.884   1.266   7.187  1.1128 -0.1199  0.0386
 4751SOL     OW17654  10.138   0.914   4.567 -0.4112  0.8318  0.2136
 4751SOL    HW117655  10.120   0.947   4.479  1.7358 -0.0639 -0.6401
 4751SOL    HW217656  10.203   0.975   4.603 -0.7243  0.7744  0.8864
 4752SOL     OW17657   8.823   7.983   0.151 -0.5241  0.0885 -0.2596
 4752SOL    HW117658   8.820   8.041   0.074  1.0751  0.1488 -0.3193
 4752SOL    HW217659   8.740   7.998   0.196 -1.3638  0.2927 -1.8053
 4753SOL     OW17660   4.402   4.546   1.277 -0.1704  0.3539 -0.1983
 4753SOL    HW117661   4.373   4.458   1.252 -1.1887  0.9048 -0.9708
 4753SOL    HW217662   4.473   4.566   1.216 -0.0097  0.1150 -0.0917
 4754SOL     OW17663   9.651   1.735  10.213 -0.2910  0.7445  0.5641
 4754SOL    HW117664   9.713   1.701  10.148 -1.2226  0.0067  0.0400
 4754SOL    HW217665   9.576   1.763  10.162 -0.4926  1.4195  1.2182
 4755SOL     OW17666   9.158  10.229   9.275 -0.2197  0.3362 -0.4160
 4755SOL    HW117667   9.196  10.317   9.271  1.3897 -0.3544 -2.3942
 4755SOL    HW217668   9.093  10.228   9.205  1.5599 -0.7162 -2.1773
 4756SOL     OW17669   7.126   8.699   3.627 -0.0434  0.2599  0.1235
 4756SOL    HW117670   7.195   8.633   3.624 -0.3959 -0.0915 -2.4620
 4756SOL    HW217671   7.172   8.782   3.622  0.2746  0.1113  0.5396
 4757SOL     OW17672   3.891   7.063   5.337  0.0003  0.3396  0.4886
 4757SOL    HW117673   3.924   7.023   5.257  0.0258 -0.2312  0.7743
 4757SOL    HW217674   3.830   7.130   5.308  0.0245  0.1478 -0.0048
 4758SOL     OW17675   8.521   6.126   1.710  0.5339  0.3366 -0.1170
 4758SOL    HW117676   8.463   6.054   1.682  1.9058 -0.5075 -0.8933
 4758SOL    HW217677   8.504   6.196   1.647  1.5508 -0.5294 -1.4090
 4759SOL     OW17678   6.761   4.113   5.285  0.3537 -0.2321  0.3653
 4759SOL    HW117679   6.713   4.044   5.330  2.2964 -0.2633  2.6153
 4759SOL    HW217680   6.742   4.192   5.336 -0.3960  0.5568 -1.0936
 4760SOL     OW17681   3.730   6.309   6.906  0.4351 -0.0188 -0.0822
 4760SOL    HW117682   3.764   6.366   6.975 -0.1050 -0.2917  0.4146
 4760SOL    HW217683   3.753   6.354   6.824  1.7952 -0.0929  0.2393
 4761SOL     OW17684   9.808   4.302   2.141 -0.2851  0.6594 -0.4095
 4761SOL    HW117685   9.902   4.289   2.154 -0.1265  1.7255 -0.3938
 4761SOL    HW217686   9.783   4.235   2.078  0.6940  1.0196 -1.1975
 4762SOL     OW17687   1.442   4.920  10.728 -0.1113  0.2600  0.2027
 4762SOL    HW117688   1.514   4.901  10.667  0.0383  1.8546 -0.1467
 4762SOL    HW217689   1.424   4.835  10.770  0.1535 -0.7602 -1.6300
 4763SOL     OW17690  10.365   9.002   3.909  0.0967 -0.2877 -0.6616
 4763SOL    HW117691  10.299   9.065   3.882 -0.3325 -0.4597 -0.0270
 4763SOL    HW217692  10.424   9.051   3.966  0.3532 -0.2084 -0.9920
 4764SOL     OW17693   4.709   3.566   6.302  0.0245 -0.5203 -0.4495
 4764SOL    HW117694   4.747   3.514   6.372  0.1948 -1.9399 -1.5425
 4764SOL    HW217695   4.615   3.565   6.319  0.2348  1.5374  1.2867
 4765SOL     OW17696   6.487   7.646   8.785 -0.3903  0.0753 -0.4571
 4765SOL    HW117697   6.548   7.615   8.717 -0.9845  2.8241 -2.4473
 4765SOL    HW217698   6.544   7.692   8.847 -0.0227 -0.9850  0.0144
 4766SOL     OW17699   9.029   7.128   1.854  0.3078 -0.1690  0.1813
 4766SOL    HW117700   9.000   7.041   1.879 -1.3236  0.7752  1.7749
 4766SOL    HW217701   8.993   7.141   1.766  1.3567 -1.4087 -0.4677
 4767SOL     OW17702   5.629   1.533   3.404 -0.3596 -0.2133  0.2314
 4767SOL    HW117703   5.658   1.476   3.475 -0.0146  1.5424  1.5798
 4767SOL    HW217704   5.568   1.595   3.446 -0.6810  0.4431 -1.1394
 4768SOL     OW17705   4.242   6.453   2.111 -0.5812  0.1402 -0.3615
 4768SOL    HW117706   4.161   6.427   2.156  0.2368  1.9388  2.4759
 4768SOL    HW217707   4.218   6.533   2.064 -0.7833 -0.1976 -0.8451
 4769SOL     OW17708   0.866   3.348   1.917  0.0867 -0.1019 -0.1332
 4769SOL    HW117709   0.946   3.397   1.936  0.1499  1.1943 -3.2834
 4769SOL    HW217710   0.817   3.350   2.000  2.0013  1.5695  1.0555
 4770SOL     OW17711   7.452   2.754   7.685 -0.4754  0.0787 -0.5791
 4770SOL    HW117712   7.382   2.735   7.623 -1.0909  0.5358 -0.0470
 4770SOL    HW217713   7.521   2.690   7.665 -1.6565 -1.3999 -0.1218
 4771SOL     OW17714   3.770   2.066   0.601 -0.1759  0.5465  0.0977
 4771SOL    HW117715   3.818   1.991   0.567 -1.0961 -0.6636  1.3362
 4771SOL    HW217716   3.819   2.142   0.570  0.9527 -0.5623 -0.9539
 4772SOL     OW17717   2.763   1.618   8.850 -0.2675 -0.5423 -0.1560
 4772SOL    HW117718   2.772   1.713   8.850  0.1544 -0.5808  0.0880
 4772SOL    HW217719   2.785   1.592   8.940  2.0410 -1.0866 -0.8220
 4773SOL     OW17720   3.045   9.649   0.297  0.4606 -0.3075  0.0712
 4773SOL    HW117721   3.007   9.617   0.216 -0.6828 -2.6287  1.4174
 4773SOL    HW217722   3.043   9.745   0.289 -2.3934 -0.3963 -1.3989
 4774SOL     OW17723   1.762  10.377   8.543 -0.1590 -0.5343 -0.0977
 4774SOL    HW117724   1.742  10.333   8.461 -0.7577  1.3330 -0.9903
 4774SOL    HW217725   1.818  10.451   8.519 -1.1931  0.6646  1.0071
 4775SOL     OW17726   2.884   6.643   0.676 -0.1344  0.6680 -0.4177
 4775SOL    HW117727   2.865   6.677   0.763 -1.4514 -0.2838 -0.3058
 4775SOL    HW217728   2.859   6.713   0.616  1.0321  1.4333 -0.0511
 4776SOL     OW17729  10.357   4.173   8.777  0.6700  0.3979  0.4489
 4776SOL    HW117730  10.370   4.098   8.718 -0.8264  1.3247 -1.1317
 4776SOL    HW217731  10.438   4.224   8.769  0.1229  1.0065 -1.5936
 4777SOL     OW17732   0.315   8.409   9.889  0.0814  0.3419 -0.3800
 4777SOL    HW117733   0.328   8.386   9.797  1.7531 -1.3364  0.2099
 4777SOL    HW217734   0.366   8.489   9.902  1.1854 -0.3142 -0.5646
 4778SOL     OW17735   4.727   3.140   6.047  0.4687 -0.0700  0.0772
 4778SOL    HW117736   4.800   3.162   6.105 -0.5853 -1.1847  1.9464
 4778SOL    HW217737   4.652   3.184   6.087  0.0229  0.8047 -1.6380
 4779SOL     OW17738   3.223   9.503   5.467  0.5280 -0.5232  0.4523
 4779SOL    HW117739   3.280   9.489   5.391  0.7521  1.0833  0.2942
 4779SOL    HW217740   3.279   9.484   5.542  1.0885  0.3210  0.2701
 4780SOL     OW17741   0.759   1.047   0.451  0.3489  0.4238  0.7251
 4780SOL    HW117742   0.754   1.139   0.424  0.8394  0.8221  1.9358
 4780SOL    HW217743   0.852   1.026   0.447  0.1719 -0.2107 -0.1403
 4781SOL     OW17744   2.967   8.483   0.576  0.4252 -0.3808  0.2145
 4781SOL    HW117745   2.907   8.556   0.566  1.4406  0.2425 -1.7316
 4781SOL    HW217746   3.049   8.513   0.536  1.2825 -2.1056  0.5638
 4782SOL     OW17747   6.742   4.436   7.665  0.3526 -0.1364  0.3978
 4782SOL    HW117748   6.712   4.346   7.673 -2.1838  0.4806 -1.2496
 4782SOL    HW217749   6.828   4.429   7.622  0.8367 -1.7693  1.5224
 4783SOL     OW17750   0.561   7.445   5.792 -0.1498 -0.2120 -0.2904
 4783SOL    HW117751   0.479   7.494   5.799 -0.2660  0.0378 -2.5305
 4783SOL    HW217752   0.625   7.510   5.764  0.3687 -0.7757 -0.4255
 4784SOL     OW17753   5.864   5.014   1.468 -0.3549  0.2491  0.0617
 4784SOL    HW117754   5.893   5.026   1.558  0.3955  0.5487 -0.2150
 4784SOL    HW217755   5.790   4.954   1.475  0.3577 -0.5794  0.7714
 4785SOL     OW17756  10.783   6.451   0.584  0.6680  0.4261 -0.0519
 4785SOL    HW117757  10.727   6.400   0.527  0.9265 -1.1649  1.0594
 4785SOL    HW217758  10.872   6.424   0.562  0.8641  1.0535 -0.0581
 4786SOL     OW17759   4.770   8.882   7.765  0.7395 -0.2893 -0.4200
 4786SOL    HW117760   4.698   8.908   7.708  0.9669  0.7915 -0.2297
 4786SOL    HW217761   4.831   8.955   7.762  1.6835 -1.0507 -0.3210
 4787SOL     OW17762   1.234   1.998   8.534  0.0418  0.3345  0.4353
 4787SOL    HW117763   1.308   2.055   8.511  1.3496 -0.9541  1.2977
 4787SOL    HW217764   1.233   1.997   8.630 -2.0584  1.4957  0.4857
 4788SOL     OW17765   9.020   8.420   4.478  0.2539  0.3878 -0.5053
 4788SOL    HW117766   9.078   8.479   4.525  0.2141  0.1259 -0.1276
 4788SOL    HW217767   9.012   8.459   4.391  3.2697 -1.0190 -1.5414
 4789SOL     OW17768   3.832   3.422   7.525 -0.4677 -0.1759 -0.3589
 4789SOL    HW117769   3.758   3.385   7.574 -1.0264  1.5205  0.1572
 4789SOL    HW217770   3.910   3.384   7.566 -1.0023 -0.5550  0.3269
 4790SOL     OW17771   5.404   2.609   3.750  0.2136  0.2037  0.2607
 4790SOL    HW117772   5.369   2.534   3.703 -0.8035  0.6544  0.2825
 4790SOL    HW217773   5.435   2.572   3.833 -1.3017 -0.0528  0.7496
 4791SOL     OW17774   2.014   8.654   9.738  0.2196  0.2418 -0.3611
 4791SOL    HW117775   2.105   8.636   9.761  0.4262  0.8139 -0.7026
 4791SOL    HW217776   1.989   8.581   9.681 -0.0257 -0.7255  0.9239
 4792SOL     OW17777   3.382   5.244  10.198  0.0199  0.6040  0.2729
 4792SOL    HW117778   3.406   5.152  10.197 -1.8145  0.0471  1.3733
 4792SOL    HW217779   3.465   5.292  10.201  1.0205 -0.9621 -1.0733
 4793SOL     OW17780   3.088   0.695  10.432  0.5592 -0.0475  0.3663
 4793SOL    HW117781   3.169   0.731  10.395  0.9668  0.1056  1.3716
 4793SOL    HW217782   3.105   0.601  10.438 -0.2114 -0.3547 -1.5281
 4794SOL     OW17783   2.862   9.458   1.544  0.5503  0.3112  0.0661
 4794SOL    HW117784   2.859   9.504   1.628  0.5215 -1.1367  0.8969
 4794SOL    HW217785   2.866   9.528   1.479 -1.2707  1.5426  1.1541
 4795SOL     OW17786  10.056   0.701   3.136  0.2423 -0.1764 -0.0331
 4795SOL    HW117787  10.118   0.648   3.086  1.0425  0.9084 -0.2257
 4795SOL    HW217788  10.110   0.768   3.177 -0.7354  0.4492  0.2546
 4796SOL     OW17789   7.909   2.745   1.581 -0.5366 -0.2905 -0.0409
 4796SOL    HW117790   7.826   2.746   1.533  0.0188  1.0035 -1.0290
 4796SOL    HW217791   7.885   2.718   1.669 -2.0259  0.1140 -0.2925
 4797SOL     OW17792   4.024   0.899   0.624 -0.1614  0.0018  0.0706
 4797SOL    HW117793   3.982   0.924   0.542 -0.6392  0.9825  0.6002
 4797SOL    HW217794   3.995   0.964   0.687  0.3818 -0.6060  0.9753
 4798SOL     OW17795   3.351  10.780   5.061 -0.3828  0.2197  0.1986
 4798SOL    HW117796   3.306  10.719   5.120 -0.9192  1.5288  1.2078
 4798SOL    HW217797   3.291  10.791   4.988 -0.9003  0.5521  0.6620
 4799SOL     OW17798   8.722  10.352   8.817 -0.7700 -0.4141  0.1570
 4799SOL    HW117799   8.701  10.425   8.760 -2.0928 -0.5057  0.4815
 4799SOL    HW217800   8.762  10.392   8.895  1.8238 -0.3531 -1.1028
 4800SOL     OW17801   0.232   4.407  10.278  0.3677 -0.3036 -0.4164
 4800SOL    HW117802   0.316   4.448  10.300  0.1675 -0.4437  0.6561
 4800SOL    HW217803   0.170   4.479  10.276 -0.1106 -0.5762  2.1145
 4801SOL     OW17804   0.803   2.088   4.498  0.3822  0.2372  0.2491
 4801SOL    HW117805   0.806   2.183   4.489  2.8606  0.1992  0.0908
 4801SOL    HW217806   0.815   2.072   4.592  1.0912  0.0661  0.1329
 4802SOL     OW17807   9.491   8.000   3.850  0.5359  0.2639  0.3956
 4802SOL    HW117808   9.520   7.965   3.934  1.8023  1.7292  0.6089
 4802SOL    HW217809   9.468   7.923   3.798  0.8165 -0.7172  1.6935
 4803SOL     OW17810   8.855   5.834   4.322  0.0011  0.4078 -0.0263
 4803SOL    HW117811   8.828   5.911   4.272  1.8048  0.9812 -0.1750
 4803SOL    HW217812   8.840   5.858   4.414  2.3637  1.7492  0.0734
 4804SOL     OW17813   6.720   3.107   7.411 -0.3968 -0.0004  0.7119
 4804SOL    HW117814   6.690   3.171   7.475  0.2438  2.0913 -0.9526
 4804SOL    HW217815   6.739   3.159   7.332  3.4136 -1.6880  0.2781
 4805SOL     OW17816   3.492   8.762   0.478  0.6674 -0.5856 -0.0075
 4805SOL    HW117817   3.453   8.847   0.496  0.1011 -1.2763  2.3645
 4805SOL    HW217818   3.423   8.714   0.432  0.8711  0.0857 -1.0500
 4806SOL     OW17819   3.411   7.323   4.535  0.1096 -0.6889  0.4637
 4806SOL    HW117820   3.463   7.395   4.500  1.0607 -1.0554  1.0676
 4806SOL    HW217821   3.467   7.246   4.525 -0.8266 -1.3189 -0.0151
 4807SOL     OW17822   7.955   3.557   0.817  0.1856  0.5355  0.5761
 4807SOL    HW117823   7.933   3.559   0.724 -1.8564 -0.3259  0.9871
 4807SOL    HW217824   7.878   3.594   0.861  1.2121  1.1526  1.9199
 4808SOL     OW17825  10.438   6.270   6.860 -0.2223 -0.3947  0.6240
 4808SOL    HW117826  10.366   6.209   6.879  0.0969 -0.7158  0.8091
 4808SOL    HW217827  10.454   6.259   6.766 -1.3651  0.7227  0.2595
 4809SOL     OW17828   4.438   0.631   2.508 -0.0249 -0.2300  0.1484
 4809SOL    HW117829   4.375   0.574   2.465 -0.2349  0.3463 -0.3238
 4809SOL    HW217830   4.478   0.576   2.575 -0.8111 -0.6909  0.2568
 4810SOL     OW17831   5.207   2.222   2.372 -0.2350 -0.0250 -0.1070
 4810SOL    HW117832   5.235   2.136   2.339 -1.6797 -0.2235 -0.9236
 4810SOL    HW217833   5.169   2.203   2.458  3.1083  0.4254  1.6011
 4811SOL     OW17834   6.570   3.128   2.973 -0.0662  0.6635 -0.0808
 4811SOL    HW117835   6.477   3.151   2.973 -1.2556 -3.2176  2.8767
 4811SOL    HW217836   6.601   3.155   3.060  1.1400  0.4056 -0.4146
 4812SOL     OW17837   5.159   7.834   1.708 -0.1246  0.0640  0.4953
 4812SOL    HW117838   5.184   7.915   1.754  0.4430  0.5786 -0.6792
 4812SOL    HW217839   5.096   7.863   1.642 -0.0719 -0.4893  0.2017
 4813SOL     OW17840   1.126   3.312   9.939  0.1867  0.3456 -0.2563
 4813SOL    HW117841   1.077   3.231   9.954 -1.0090  0.9137 -0.9903
 4813SOL    HW217842   1.217   3.287   9.954  0.0807 -1.6364 -2.3328
 4814SOL     OW17843   7.390   5.926  10.288  0.2936 -0.1825 -0.5156
 4814SOL    HW117844   7.299   5.944  10.264  0.3429  0.1858 -0.4371
 4814SOL    HW217845   7.430   5.893  10.208  0.3426  0.6105 -0.8295
 4815SOL     OW17846   2.308   4.469   6.781  0.5969  0.4177 -0.1445
 4815SOL    HW117847   2.283   4.388   6.826 -1.3812  1.7119  1.2055
 4815SOL    HW217848   2.378   4.506   6.834  1.0124 -0.0268 -0.3716
 4816SOL     OW17849   3.501   4.466   1.442 -0.2149  0.1478  0.1763
 4816SOL    HW117850   3.547   4.395   1.486 -0.6786 -0.8159 -0.8349
 4816SOL    HW217851   3.522   4.454   1.349 -0.8565  0.9203 -0.0832
 4817SOL     OW17852   7.670   0.710   5.571 -0.1395 -0.0055 -0.0570
 4817SOL    HW117853   7.673   0.748   5.484  0.0854  0.9776  0.3677
 4817SOL    HW217854   7.625   0.626   5.559 -0.2893  0.2092 -1.0756
 4818SOL     OW17855   0.750   7.692   1.255  0.4816  0.0585 -0.7837
 4818SOL    HW117856   0.797   7.751   1.196 -0.3095  0.7488 -0.7379
 4818SOL    HW217857   0.664   7.733   1.266  0.1878 -0.7150 -0.1450
 4819SOL     OW17858   0.964   1.251   1.517 -0.0792  0.7811 -0.1200
 4819SOL    HW117859   0.922   1.267   1.432  1.7586  3.5966 -0.6386
 4819SOL    HW217860   1.017   1.172   1.503  1.3692  2.0148 -2.1703
 4820SOL     OW17861   5.206   7.029   0.473 -0.4953  0.6200 -0.0088
 4820SOL    HW117862   5.275   7.095   0.472 -3.5803  4.2427 -1.3850
 4820SOL    HW217863   5.166   7.036   0.386 -2.6211 -1.2820  0.7215
 4821SOL     OW17864   3.380   3.030   3.000  0.4687 -0.0682  0.7560
 4821SOL    HW117865   3.459   3.059   3.045  0.5980 -1.2055  1.2962
 4821SOL    HW217866   3.313   3.029   3.068  0.5530 -1.3342  0.8515
 4822SOL     OW17867   3.099   4.549   1.075 -0.5199 -0.5279  0.7075
 4822SOL    HW117868   3.096   4.564   1.169  0.5511 -0.9040  0.8090
 4822SOL    HW217869   3.186   4.512   1.059 -0.2707  0.5713 -0.5801
 4823SOL     OW17870   6.442   7.455   2.648  0.2676 -0.0099 -0.1778
 4823SOL    HW117871   6.445   7.459   2.744  0.4898 -1.8699 -0.0647
 4823SOL    HW217872   6.349   7.454   2.626  0.2119 -0.3518  0.0719
 4824SOL     OW17873   2.217  10.623   2.190 -0.0545  0.0719 -0.3364
 4824SOL    HW117874   2.309  10.610   2.214  0.1479  1.7930 -0.0705
 4824SOL    HW217875   2.217  10.619   2.094  0.1170 -0.8946 -0.3104
 4825SOL     OW17876   4.305   6.037   5.214  0.1453 -0.3237  0.5254
 4825SOL    HW117877   4.336   6.022   5.125  2.0156  1.2145  0.8494
 4825SOL    HW217878   4.250   5.962   5.234  0.4669 -1.1687 -1.5778
 4826SOL     OW17879   1.899   5.255   3.665 -0.4891 -0.1305 -0.0309
 4826SOL    HW117880   1.967   5.268   3.598 -0.2509  1.3837  0.4612
 4826SOL    HW217881   1.833   5.321   3.644 -0.4992  0.2315  1.1173
 4827SOL     OW17882   4.791   0.374   4.892 -0.2431  0.7115 -0.2968
 4827SOL    HW117883   4.699   0.378   4.866 -0.5181  0.5406  0.6304
 4827SOL    HW217884   4.806   0.282   4.914 -0.4086  1.0884  1.4945
 4828SOL     OW17885   1.426   9.061   5.172  0.3399  0.8191 -0.6374
 4828SOL    HW117886   1.437   9.000   5.098  0.5666 -0.9432  0.7755
 4828SOL    HW217887   1.370   9.131   5.137 -0.1319 -0.3050 -2.2794
 4829SOL     OW17888   1.377   3.922   9.491 -0.0305  0.0422 -0.3717
 4829SOL    HW117889   1.303   3.911   9.550  0.1509 -1.1858 -0.3329
 4829SOL    HW217890   1.451   3.943   9.548  0.2175 -1.4818 -0.0873
 4830SOL     OW17891  10.402   3.456   9.269  0.1842  0.0237 -0.3043
 4830SOL    HW117892  10.355   3.378   9.299  0.5085 -0.6468 -1.4706
 4830SOL    HW217893  10.494   3.432   9.275  0.3119  0.5607 -0.0666
 4831SOL     OW17894  10.422   9.136   1.787 -0.6897  0.8137 -0.2941
 4831SOL    HW117895  10.344   9.100   1.744 -0.9895 -0.8113  1.4672
 4831SOL    HW217896  10.495   9.100   1.736 -1.0536  0.4767 -0.5922
 4832SOL     OW17897   1.968   9.882   9.530 -0.3023 -0.1443 -0.8867
 4832SOL    HW117898   1.896   9.846   9.479  0.0768 -1.0065 -0.8331
 4832SOL    HW217899   1.955   9.977   9.526 -0.7615 -0.2319 -1.8671
 4833SOL     OW17900   3.937   0.354   5.899 -0.9143  0.3531  0.2929
 4833SOL    HW117901   4.027   0.382   5.881 -0.4443 -0.6764  0.9367
 4833SOL    HW217902   3.932   0.349   5.994 -1.2597 -0.7924  0.2291
 4834SOL     OW17903   4.164   2.707   2.560  0.7930  0.2230 -0.2814
 4834SOL    HW117904   4.096   2.659   2.606 -0.0767  0.7625 -0.9730
 4834SOL    HW217905   4.185   2.781   2.617  1.2098 -0.2459  0.1842
 4835SOL     OW17906  10.298   7.449   0.372  0.4628  0.1036  0.5552
 4835SOL    HW117907  10.386   7.441   0.336  0.3151  0.0232  0.2053
 4835SOL    HW217908  10.303   7.521   0.434  0.4200  1.0911 -0.5569
 4836SOL     OW17909   7.027   7.076  10.158 -0.3433  0.0471 -0.2101
 4836SOL    HW117910   6.956   7.137  10.135 -0.8837 -0.6116 -0.3136
 4836SOL    HW217911   6.983   7.005  10.205  0.3707  0.0441  0.4831
 4837SOL     OW17912   5.308   9.796   0.050 -0.1548 -0.1459  0.2479
 4837SOL    HW117913   5.323   9.873   0.104 -1.5241  0.8933 -0.7777
 4837SOL    HW217914   5.316   9.829  -0.040 -2.7263 -0.6869 -0.2655
 4838SOL     OW17915   4.329   7.822   4.011  0.2039  0.0402  0.0726
 4838SOL    HW117916   4.317   7.745   3.956 -0.6191  0.9345 -1.0499
 4838SOL    HW217917   4.405   7.867   3.974 -1.4004  1.5938 -1.5876
 4839SOL     OW17918   3.190   3.117   9.160 -0.0543  0.1627  0.0068
 4839SOL    HW117919   3.200   3.035   9.111  0.5491  0.7938 -0.9656
 4839SOL    HW217920   3.245   3.106   9.237  1.5036  0.3213 -1.0344
 4840SOL     OW17921   3.660   4.663   6.385 -0.7310  0.4480  0.2491
 4840SOL    HW117922   3.662   4.759   6.385  1.2195  0.4529 -0.2534
 4840SOL    HW217923   3.620   4.639   6.468 -1.3197  1.6852  0.3443
 4841SOL     OW17924  10.583   8.463   0.524  0.2498  0.0429  0.9032
 4841SOL    HW117925  10.532   8.425   0.596  0.3229 -2.3047 -0.1757
 4841SOL    HW217926  10.517   8.504   0.468 -0.0763 -0.1161  1.1621
 4842SOL     OW17927   9.574   4.671   1.499  0.4831 -0.4917 -0.1549
 4842SOL    HW117928   9.639   4.667   1.428  0.2112 -0.4909 -0.4064
 4842SOL    HW217929   9.605   4.741   1.556  1.2317 -1.1328  0.2510
 4843SOL     OW17930   7.668   9.561   5.828  0.0769 -0.0793  0.1600
 4843SOL    HW117931   7.660   9.489   5.766  2.0803  1.2160 -1.7266
 4843SOL    HW217932   7.705   9.633   5.778  1.5492  1.1586  2.7811
 4844SOL     OW17933   5.449   7.059  10.236  0.1762  0.6290  0.4465
 4844SOL    HW117934   5.490   7.017  10.160  1.6091  2.4951  0.1028
 4844SOL    HW217935   5.375   7.107  10.200 -0.4776 -0.2269  0.6023
 4845SOL     OW17936   1.391   2.441   1.274  0.1849 -1.0668 -0.0081
 4845SOL    HW117937   1.384   2.508   1.206 -0.7489 -0.6000  0.5284
 4845SOL    HW217938   1.431   2.485   1.348  0.1031 -1.2532  0.1498
 4846SOL     OW17939   6.814   8.675   3.339 -0.2309 -0.2511 -0.1926
 4846SOL    HW117940   6.768   8.592   3.324  1.4324 -0.9806 -1.5849
 4846SOL    HW217941   6.793   8.728   3.262  0.2478 -0.1341 -0.2467
 4847SOL     OW17942   0.411   8.348   7.586  0.5288  0.0154 -0.1302
 4847SOL    HW117943   0.454   8.426   7.551  0.8789  0.2345  0.7474
 4847SOL    HW217944   0.333   8.337   7.533 -0.1521  1.6554  0.4639
 4848SOL     OW17945   2.307   2.809   5.831  0.0569 -0.3769  0.1192
 4848SOL    HW117946   2.330   2.858   5.752 -0.1715  0.5928  0.6323
 4848SOL    HW217947   2.212   2.798   5.825  0.1899 -1.4547 -0.3618
 4849SOL     OW17948  10.615   8.523   9.343 -0.2330  0.0232  0.8511
 4849SOL    HW117949  10.689   8.471   9.311  0.0460 -0.0278  1.5543
 4849SOL    HW217950  10.645   8.613   9.336 -0.5322  0.0693  0.0904
 4850SOL     OW17951   9.278   4.702   3.765  0.0328  0.4682 -0.1822
 4850SOL    HW117952   9.351   4.721   3.824 -0.4207  1.6294  0.0277
 4850SOL    HW217953   9.297   4.752   3.686  0.6300 -1.0682 -1.0691
 4851SOL     OW17954   0.668   6.093   8.113 -0.3183 -0.0820 -0.0569
 4851SOL    HW117955   0.722   6.098   8.034  2.0532  0.0976  1.4458
 4851SOL    HW217956   0.670   6.182   8.149 -1.6929 -0.0693  0.0140
 4852SOL     OW17957   4.681   5.051   9.403  0.2958  0.5306  0.9506
 4852SOL    HW117958   4.738   5.013   9.470  2.4596  1.1414 -0.4621
 4852SOL    HW217959   4.620   4.980   9.381  0.1707 -0.0039  2.7936
 4853SOL     OW17960   6.881   6.058   9.013 -0.0455 -0.0467  0.1763
 4853SOL    HW117961   6.935   5.998   8.961  0.1852 -0.5533  0.9829
 4853SOL    HW217962   6.817   6.001   9.057  1.3831  0.0074  2.4783
 4854SOL     OW17963   9.910   2.888  10.080 -0.3199 -0.3836 -0.4951
 4854SOL    HW117964   9.825   2.910  10.119  0.1962 -0.6034  0.8005
 4854SOL    HW217965   9.930   2.963  10.024 -0.8434  0.2150  0.0898
 4855SOL     OW17966   0.848   2.967   0.886 -0.6543 -0.1813 -0.3096
 4855SOL    HW117967   0.832   2.944   0.794 -0.0647 -1.4452 -0.1069
 4855SOL    HW217968   0.810   2.895   0.936 -0.4135  0.1957  0.4266
 4856SOL     OW17969   0.278   4.052   0.508 -0.2097  0.7281 -0.0991
 4856SOL    HW117970   0.197   4.097   0.483  0.2396  0.4430 -2.2368
 4856SOL    HW217971   0.247   3.970   0.547 -1.0003  0.1432 -1.8463
 4857SOL     OW17972   2.403  10.778   8.194  0.4110  1.0420  0.5708
 4857SOL    HW117973   2.334  10.829   8.151  0.1289  0.2898  0.1276
 4857SOL    HW217974   2.466  10.760   8.124  0.4808  0.7313  0.7164
 4858SOL     OW17975   2.238   8.877   7.329 -0.4257  0.7281 -0.1695
 4858SOL    HW117976   2.305   8.809   7.320  0.7410  1.9033 -0.5349
 4858SOL    HW217977   2.158   8.828   7.348  0.9241 -0.6387  2.6816
 4859SOL     OW17978  10.790   5.186   1.027 -0.3381 -0.8610 -0.1452
 4859SOL    HW117979  10.723   5.193   0.960  0.0369  0.0579 -0.4370
 4859SOL    HW217980  10.869   5.160   0.979 -0.0888 -0.2837 -0.0546
 4860SOL     OW17981   9.475   0.171   1.569  0.5000  0.0746 -0.5488
 4860SOL    HW117982   9.400   0.125   1.607  1.0058 -0.1631  0.1779
 4860SOL    HW217983   9.550   0.140   1.620  1.0218  0.7028 -0.9302
 4861SOL     OW17984   8.971   0.101   1.589  0.0984  0.3954 -0.0277
 4861SOL    HW117985   8.953   0.170   1.526  1.2858  0.5499 -0.2275
 4861SOL    HW217986   8.942   0.020   1.546 -0.9398  0.7081  0.0559
 4862SOL     OW17987  10.083   8.362   4.488  0.2409 -0.2528 -0.2177
 4862SOL    HW117988  10.099   8.333   4.578 -1.1787 -0.2891  0.0501
 4862SOL    HW217989   9.994   8.332   4.469 -0.3574  1.7557 -0.8104
 4863SOL     OW17990   8.348   5.152   0.313 -0.1454  0.0927 -0.2197
 4863SOL    HW117991   8.420   5.146   0.251  3.0744 -2.2822  3.2974
 4863SOL    HW217992   8.288   5.083   0.288  1.4447 -1.2957 -0.3919
 4864SOL     OW17993   1.909   8.528   7.221  0.5086 -0.2364  0.2095
 4864SOL    HW117994   1.842   8.596   7.229  1.9102  1.0647  1.4985
 4864SOL    HW217995   1.904   8.480   7.303  2.0121  0.7240  0.8900
 4865SOL     OW17996   3.061   2.061   7.600  0.1961  1.0572  0.1577
 4865SOL    HW117997   3.081   2.132   7.540  0.1616  0.5920 -0.4238
 4865SOL    HW217998   2.974   2.031   7.573  0.3829  0.5286  0.1151
 4866SOL     OW17999   1.086   0.554   3.987 -0.2726  0.0330 -0.0154
 4866SOL    HW118000   1.112   0.641   4.014  0.2527  0.0697 -0.6201
 4866SOL    HW218001   1.160   0.498   4.010 -0.1089 -0.0478 -0.7220
 4867SOL     OW18002   8.925   3.491   1.663 -0.1796  0.6369  0.2464
 4867SOL    HW118003   8.921   3.415   1.721 -0.3329  0.3065 -0.1891
 4867SOL    HW218004   8.905   3.565   1.719 -2.8641  0.0785  0.1574
 4868SOL     OW18005   6.658   7.778   9.886 -0.1149 -0.2693 -0.0689
 4868SOL    HW118006   6.618   7.862   9.910  1.2533  0.0556  1.2688
 4868SOL    HW218007   6.675   7.785   9.792  0.5452  1.2361  0.1276
 4869SOL     OW18008   7.113   1.656   9.206 -0.2670  0.3434 -0.2345
 4869SOL    HW118009   7.024   1.670   9.175 -0.5702  0.4334  0.6413
 4869SOL    HW218010   7.103   1.630   9.297  0.5741 -0.3581 -0.3281
 4870SOL     OW18011   1.601   4.151   3.412  0.0696 -0.8158 -0.3647
 4870SOL    HW118012   1.515   4.134   3.452 -0.1289 -0.5574 -0.6722
 4870SOL    HW218013   1.628   4.067   3.375 -0.8171 -0.5468 -1.7120
 4871SOL     OW18014   5.966  10.461   8.166  0.0349  0.2730 -0.7881
 4871SOL    HW118015   6.042  10.426   8.212  0.3541  0.8566 -0.8657
 4871SOL    HW218016   5.992  10.463   8.074  0.2550  1.3039 -0.7105
 4872SOL     OW18017   2.976   4.163   5.232 -0.0386 -0.7704 -0.0591
 4872SOL    HW118018   2.969   4.256   5.214  0.5326 -0.5240  0.8940
 4872SOL    HW218019   2.897   4.142   5.282  1.2884 -0.0649  2.4979
 4873SOL     OW18020   7.519   4.538   1.897  0.3980  0.5732 -0.3729
 4873SOL    HW118021   7.428   4.510   1.883  0.7333 -0.6173 -0.2129
 4873SOL    HW218022   7.572   4.461   1.879  1.3310  1.0222  0.3345
 4874SOL     OW18023   2.366   4.488   1.265 -0.2470 -0.5911  0.3374
 4874SOL    HW118024   2.449   4.468   1.222 -0.0733  0.3197  0.2252
 4874SOL    HW218025   2.305   4.422   1.232 -0.1394  0.1151 -1.3756
 4875SOL     OW18026   0.238   9.541   4.663 -0.1525  0.0752  0.3596
 4875SOL    HW118027   0.275   9.623   4.630  0.2730  0.4022  1.5656
 4875SOL    HW218028   0.223   9.559   4.756  1.9176 -1.8463  1.1615
 4876SOL     OW18029   2.637   0.719   7.219  0.3031  0.1210  0.3927
 4876SOL    HW118030   2.659   0.728   7.312  0.0223 -1.3878  0.6326
 4876SOL    HW218031   2.541   0.712   7.218  0.2870  0.3671 -0.0395
 4877SOL     OW18032  10.331   5.104   0.825  0.0443  0.3689 -0.5457
 4877SOL    HW118033  10.238   5.126   0.820 -0.1464 -0.4856 -0.9974
 4877SOL    HW218034  10.336   5.012   0.797  0.9057  0.1072  0.3804
 4878SOL     OW18035   1.342   6.969   6.132 -0.5397  0.3171  0.5195
 4878SOL    HW118036   1.387   6.944   6.212  0.5603 -0.9997 -0.4745
 4878SOL    HW218037   1.320   7.061   6.145  1.2805  0.6457  1.5771
 4879SOL     OW18038   9.912  10.117   1.783 -0.0561 -0.2304 -0.1383
 4879SOL    HW118039   9.886  10.116   1.875 -0.1990  1.9959 -0.1033
 4879SOL    HW218040   9.993  10.168   1.781 -0.8949  1.1649 -1.3830
 4880SOL     OW18041   0.045   0.471   8.221 -0.1501 -0.1261 -0.1518
 4880SOL    HW118042   0.131   0.501   8.192 -0.3869  0.6653 -0.0617
 4880SOL    HW218043  -0.002   0.452   8.140  0.1701 -0.7349 -0.1960
 4881SOL     OW18044   6.858   1.706   9.131  0.1532 -0.0094 -0.0466
 4881SOL    HW118045   6.792   1.702   9.200  0.7571 -0.7972  0.4937
 4881SOL    HW218046   6.811   1.744   9.056 -0.6555  0.3263  0.6132
 4882SOL     OW18047   3.734   5.080  10.816  0.2951  0.0210  0.2501
 4882SOL    HW118048   3.713   5.071  10.723 -0.4254  1.9066  0.1789
 4882SOL    HW218049   3.820   5.040  10.825  0.6807  0.3919 -1.3753
 4883SOL     OW18050   4.776   6.488   7.958  0.5341  0.0859 -0.2852
 4883SOL    HW118051   4.755   6.554   8.024 -1.5867 -0.0780 -0.7243
 4883SOL    HW218052   4.709   6.499   7.890 -0.3040 -2.8778 -0.0902
 4884SOL     OW18053   9.148   1.307   9.168 -0.2490  0.3877  0.1211
 4884SOL    HW118054   9.189   1.336   9.086  3.0892  0.2700  1.5506
 4884SOL    HW218055   9.133   1.214   9.156  0.5408  0.3020 -0.2949
 4885SOL     OW18056   7.436   0.014   1.109 -0.2688  0.4856  0.6945
 4885SOL    HW118057   7.406   0.030   1.198 -0.9804  2.7699  0.1215
 4885SOL    HW218058   7.525  -0.019   1.118 -1.5371 -3.0254  2.3248
 4886SOL     OW18059  10.211   7.090   4.291 -0.0060 -0.8087 -0.6915
 4886SOL    HW118060  10.278   7.155   4.310 -1.2153  0.0287  0.9778
 4886SOL    HW218061  10.227   7.019   4.353  1.0369 -1.9577 -2.2103
 4887SOL     OW18062   9.502  10.264   9.918 -0.5147 -0.4995  0.0639
 4887SOL    HW118063   9.429  10.323   9.939  0.4742  0.4095  1.1075
 4887SOL    HW218064   9.542  10.245  10.003  0.2693 -1.2442 -0.4616
 4888SOL     OW18065   3.832   4.951   1.927 -0.6628  0.2273 -0.2042
 4888SOL    HW118066   3.768   4.894   1.885 -0.8465  0.3706 -0.1222
 4888SOL    HW218067   3.781   5.028   1.952 -0.2572  0.7618 -1.0048
 4889SOL     OW18068  10.300   7.773   8.028 -0.5478  0.6538  0.1506
 4889SOL    HW118069  10.251   7.830   7.968 -0.3479 -1.2814 -2.0266
 4889SOL    HW218070  10.263   7.791   8.114 -2.8941  1.5865 -0.9426
 4890SOL     OW18071  10.212  10.600  10.418 -0.2420  0.0730  0.6419
 4890SOL    HW118072  10.277  10.554  10.471 -0.3198 -0.4114  0.3241
 4890SOL    HW218073  10.128  10.574  10.454 -0.3517 -1.2023 -0.4266
 4891SOL     OW18074   0.477   6.112   5.066  0.0565  0.0805  0.0785
 4891SOL    HW118075   0.447   6.171   5.136 -3.7925 -0.2607 -1.0532
 4891SOL    HW218076   0.449   6.155   4.985  0.6732 -1.4930 -1.0071
 4892SOL     OW18077   6.978   0.965   7.421  0.2457 -0.1679  0.2778
 4892SOL    HW118078   6.987   0.870   7.425  3.2185 -0.0958 -1.7993
 4892SOL    HW218079   6.887   0.979   7.394 -0.7458 -2.2688  2.1541
 4893SOL     OW18080   9.632   9.545   0.590  0.1983 -0.0709  0.2332
 4893SOL    HW118081   9.577   9.470   0.570 -0.3356  0.2030  0.6590
 4893SOL    HW218082   9.574   9.621   0.583  1.2422  0.5780 -2.5075
 4894SOL     OW18083   3.520   4.521   4.489 -0.3974  0.1246  0.3539
 4894SOL    HW118084   3.427   4.515   4.507 -0.0229  0.7318  2.9346
 4894SOL    HW218085   3.562   4.512   4.575  1.8011  1.9357 -0.4040
 4895SOL     OW18086   9.538   0.312  10.592 -0.7316 -0.7781  0.1762
 4895SOL    HW118087   9.491   0.371  10.533  0.1283  0.1714  0.4183
 4895SOL    HW218088   9.546   0.361  10.673  1.0991 -0.7001 -0.0154
 4896SOL     OW18089   9.531   7.932   6.585  0.1110 -0.5702  0.0932
 4896SOL    HW118090   9.460   7.994   6.565  1.8352  2.0827  1.7263
 4896SOL    HW218091   9.571   7.915   6.500 -0.4347  0.5367 -0.4148
 4897SOL     OW18092   5.737   0.305  10.052  0.1432  0.2327 -0.1656
 4897SOL    HW118093   5.702   0.385  10.013  0.7173  0.2015 -0.7631
 4897SOL    HW218094   5.832   0.310  10.036  0.1873 -0.5515 -0.1894
 4898SOL     OW18095   0.768   4.437   7.871  0.3696 -0.1588 -0.1850
 4898SOL    HW118096   0.726   4.438   7.957 -1.4096  1.4267 -0.9900
 4898SOL    HW218097   0.737   4.356   7.831 -2.5117  1.1904 -0.9407
 4899SOL     OW18098   8.552   0.821  10.560 -0.2664 -0.0363 -0.2291
 4899SOL    HW118099   8.536   0.784  10.646 -1.5869 -0.1727 -0.5116
 4899SOL    HW218100   8.626   0.881  10.573 -0.2813 -0.2437  0.9264
 4900SOL     OW18101   1.576  10.085   2.959 -0.2319 -0.0229  0.4142
 4900SOL    HW118102   1.598  10.084   3.052  0.7818 -1.0348  0.1813
 4900SOL    HW218103   1.577  10.178   2.935 -2.6299  0.4587  1.8529
 4901SOL     OW18104  10.780   0.850  10.312 -0.3536 -0.6662  0.5291
 4901SOL    HW118105  10.847   0.862  10.245  0.6480 -1.5375  1.3403
 4901SOL    HW218106  10.706   0.902  10.281  0.9442  0.9573 -0.0435
 4902SOL     OW18107   2.165   1.666   2.819  0.2605  0.1175 -0.1039
 4902SOL    HW118108   2.257   1.646   2.831 -0.1235 -0.5011  2.1992
 4902SOL    HW218109   2.136   1.698   2.904 -1.7630 -0.1196 -0.6566
 4903SOL     OW18110   3.084   9.205   4.945  0.1199  0.0297 -0.2799
 4903SOL    HW118111   3.048   9.251   5.021 -1.2901 -0.6553 -0.5033
 4903SOL    HW218112   3.086   9.271   4.876  0.5359  0.4134  0.0951
 4904SOL     OW18113  10.519   9.827   8.870  0.7046  0.6678 -0.0835
 4904SOL    HW118114  10.497   9.755   8.811  0.4551 -1.9296  2.9019
 4904SOL    HW218115  10.435   9.854   8.906  1.0747  0.2016  1.1736
 4905SOL     OW18116   4.225   3.494   0.906  0.0663  0.4928 -0.6718
 4905SOL    HW118117   4.260   3.459   0.825 -0.4592  0.1300 -0.7464
 4905SOL    HW218118   4.262   3.439   0.975 -1.3250 -0.7052 -0.8375
 4906SOL     OW18119   1.402   4.118   8.188 -0.0695 -0.5373 -0.0607
 4906SOL    HW118120   1.315   4.158   8.178 -0.3921 -1.3674 -0.6946
 4906SOL    HW218121   1.424   4.133   8.280  0.1875  1.7965 -0.4399
 4907SOL     OW18122   2.028  10.096   3.855 -0.3034  0.5306 -0.1159
 4907SOL    HW118123   2.021  10.187   3.826  0.2033  0.4368 -0.5552
 4907SOL    HW218124   2.115  10.090   3.894 -1.0068  0.6722  1.5313
 4908SOL     OW18125   7.696   5.592   8.084 -0.2310 -0.1739 -0.6826
 4908SOL    HW118126   7.751   5.530   8.133  0.6677  1.7330  0.8921
 4908SOL    HW218127   7.756   5.635   8.024  0.1640  1.9639  1.0881
 4909SOL     OW18128   8.849   7.890  10.341  0.0516  0.4023  0.0309
 4909SOL    HW118129   8.867   7.973  10.298 -0.6081  0.1910 -0.6527
 4909SOL    HW218130   8.834   7.914  10.433 -3.0497  1.4400 -0.6408
 4910SOL     OW18131   9.279   8.807   1.757 -0.3889 -0.1681 -0.0344
 4910SOL    HW118132   9.206   8.769   1.708 -0.8169  0.0311  0.4298
 4910SOL    HW218133   9.237   8.870   1.816  0.1524 -0.1287  0.3150
 4911SOL     OW18134   8.114   3.011   2.699  0.4143 -0.2660  0.1174
 4911SOL    HW118135   8.084   3.100   2.718 -0.1539 -0.7543  1.6531
 4911SOL    HW218136   8.070   2.987   2.617 -2.5647 -0.5194  1.6646
 4912SOL     OW18137   6.961   5.251   0.139 -0.3496 -0.1645  0.0335
 4912SOL    HW118138   7.037   5.198   0.162 -0.5775 -1.1397 -1.3710
 4912SOL    HW218139   6.980   5.338   0.176  0.1352 -1.1069  2.1560
 4913SOL     OW18140  10.762   0.973   7.112  0.8388 -0.0798 -0.6457
 4913SOL    HW118141  10.835   0.927   7.151  0.3942 -2.1355 -2.0442
 4913SOL    HW218142  10.763   1.060   7.152  1.5966 -1.3445  2.3118
 4914SOL     OW18143   0.065   8.309   6.099 -0.1660 -0.1416  0.3463
 4914SOL    HW118144   0.053   8.222   6.137  1.5759 -1.1362 -1.2026
 4914SOL    HW218145   0.083   8.366   6.173  1.8413 -1.7509  1.1838
 4915SOL     OW18146  10.682   7.463   6.609 -0.1493  0.1605  0.4921
 4915SOL    HW118147  10.631   7.434   6.533  1.6552 -1.4587 -0.1986
 4915SOL    HW218148  10.617   7.503   6.667 -2.2284 -1.8197 -0.2866
 4916SOL     OW18149   2.210   3.538   6.578  0.0951  0.1183 -0.3177
 4916SOL    HW118150   2.152   3.492   6.638 -0.3212 -1.3469 -1.7720
 4916SOL    HW218151   2.283   3.477   6.563  1.5974  1.5508  0.7566
 4917SOL     OW18152   2.132   8.569   3.534  0.5898  0.0123 -0.3993
 4917SOL    HW118153   2.208   8.522   3.498  1.2735  0.1839  0.7677
 4917SOL    HW218154   2.170   8.628   3.599 -0.7025 -1.3081  1.6668
 4918SOL     OW18155   4.092  10.528   8.839 -0.5599 -0.5890 -0.6340
 4918SOL    HW118156   4.150  10.452   8.852 -0.3938 -0.1474  1.6647
 4918SOL    HW218157   4.151  10.603   8.840 -0.7107 -0.3692 -3.0437
 4919SOL     OW18158   6.568   7.710   4.016 -0.0778 -0.0087 -0.3056
 4919SOL    HW118159   6.589   7.618   4.029 -0.2353 -0.1824 -1.1896
 4919SOL    HW218160   6.651   7.752   3.995 -0.1898 -0.2002 -1.1763
 4920SOL     OW18161   8.800   0.054   9.827  0.0129 -0.2223 -0.5634
 4920SOL    HW118162   8.885   0.042   9.870  0.1075  0.8653 -0.4221
 4920SOL    HW218163   8.818   0.043   9.734  0.2497 -0.2759 -0.5113
 4921SOL     OW18164   2.246  10.188   2.470  0.4821  0.5945  0.0452
 4921SOL    HW118165   2.235  10.096   2.495  0.2989 -0.2123 -2.7466
 4921SOL    HW218166   2.340  10.204   2.480  0.9766 -0.7462 -1.9171
 4922SOL     OW18167   4.192   9.208   2.592 -1.0954 -0.4230 -0.1577
 4922SOL    HW118168   4.161   9.158   2.517  0.5778 -0.7659 -0.6624
 4922SOL    HW218169   4.164   9.298   2.575 -0.6423 -0.4796 -1.2528
 4923SOL     OW18170   7.049   1.927   7.823  0.4592  0.1521  0.6802
 4923SOL    HW118171   7.125   1.981   7.802  1.1364 -0.8701  0.4440
 4923SOL    HW218172   7.031   1.946   7.915  1.3657 -0.0204  0.9023
 4924SOL     OW18173   6.311   2.030   9.461 -0.4112 -0.5392 -0.6240
 4924SOL    HW118174   6.301   2.121   9.489 -0.3924 -0.6644 -0.2103
 4924SOL    HW218175   6.349   1.986   9.536 -1.4428 -1.1281 -0.4308
 4925SOL     OW18176   5.640   7.536   5.725  0.2113  0.4611  0.1196
 4925SOL    HW118177   5.696   7.459   5.719 -1.0738 -0.3748 -2.9462
 4925SOL    HW218178   5.700   7.610   5.711  0.8937 -0.2450 -0.7590
 4926SOL     OW18179   9.192   4.486   3.256  0.8922 -0.1357 -0.0073
 4926SOL    HW118180   9.208   4.395   3.231 -0.7697 -1.3781  2.9398
 4926SOL    HW218181   9.266   4.509   3.312  1.2769  0.3375 -0.6960
 4927SOL     OW18182   8.907   6.115   2.934 -0.5267 -0.7643 -0.6951
 4927SOL    HW118183   8.930   6.030   2.972 -1.8450 -0.4730  0.8919
 4927SOL    HW218184   8.981   6.172   2.956 -0.0863 -1.2531 -0.8886
 4928SOL     OW18185   0.409   6.880   2.290  0.0638  0.2963  0.2652
 4928SOL    HW118186   0.377   6.800   2.332 -0.4145 -0.0688 -0.7621
 4928SOL    HW218187   0.445   6.932   2.362  0.6776 -0.9748  0.8946
 4929SOL     OW18188   6.949  10.701   1.254  0.6116  0.0894 -0.7406
 4929SOL    HW118189   6.953  10.637   1.325  2.0222 -0.0758 -0.9505
 4929SOL    HW218190   6.917  10.651   1.179  0.6809 -0.1156 -0.6344
 4930SOL     OW18191   3.316   7.541   0.644 -0.5436  0.2009 -0.5076
 4930SOL    HW118192   3.307   7.619   0.698  1.5377  0.1262  0.0121
 4930SOL    HW218193   3.352   7.474   0.703  0.9336 -0.1396 -1.7426
 4931SOL     OW18194   9.500   0.477   2.696  0.5919  0.4609  0.2880
 4931SOL    HW118195   9.414   0.448   2.726  0.5761  0.3544  0.1363
 4931SOL    HW218196   9.562   0.426   2.748  0.5758  1.7075  1.5810
 4932SOL     OW18197   7.183   3.979   9.941 -0.3381 -0.6070  0.3005
 4932SOL    HW118198   7.166   3.889   9.916  1.0270 -1.1834  1.3153
 4932SOL    HW218199   7.240   3.973  10.018 -1.5198  1.0994  1.4121
 4933SOL     OW18200   1.961   5.154   1.736  0.0351 -0.4771  0.6227
 4933SOL    HW118201   1.892   5.102   1.695  1.5346 -1.1437 -1.1689
 4933SOL    HW218202   1.997   5.097   1.804  0.9749 -1.4700 -0.6429
 4934SOL     OW18203   9.076   0.937   8.836  0.0945 -0.0764  0.2498
 4934SOL    HW118204   9.148   0.930   8.773  0.7392  0.6110  0.8859
 4934SOL    HW218205   9.118   0.971   8.915 -1.1990  1.8981  0.1454
 4935SOL     OW18206   5.167   0.519   5.412  0.1385  0.2894 -0.3983
 4935SOL    HW118207   5.135   0.464   5.484  0.8943  0.0293 -0.2486
 4935SOL    HW218208   5.095   0.521   5.349  0.7490 -2.5767 -1.3785
 4936SOL     OW18209   6.758   9.508   1.721  0.2800 -0.2291 -0.2907
 4936SOL    HW118210   6.750   9.603   1.710  1.9208  0.0222  0.4135
 4936SOL    HW218211   6.678   9.482   1.765 -0.5584  0.6912 -1.2106
 4937SOL     OW18212   8.192   8.997   7.005 -0.2484 -0.4297 -0.4801
 4937SOL    HW118213   8.178   9.034   7.093  0.0983  0.5711 -0.8329
 4937SOL    HW218214   8.286   8.979   7.001  0.2380  1.9271 -1.5101
 4938SOL     OW18215   0.869   0.667   3.913 -0.1978 -0.1982  0.1816
 4938SOL    HW118216   0.928   0.604   3.954 -1.4208 -1.0513  0.6896
 4938SOL    HW218217   0.923   0.710   3.847  2.1286  1.7776  3.0605
 4939SOL     OW18218  10.433   0.069   9.582 -0.0444  0.0768 -0.4838
 4939SOL    HW118219  10.464  -0.003   9.527 -0.5543 -0.4601 -0.0868
 4939SOL    HW218220  10.343   0.084   9.554 -0.0761  0.2775 -0.2763
 4940SOL     OW18221   7.588   0.517   3.482  0.1013 -0.0442 -0.0954
 4940SOL    HW118222   7.589   0.467   3.401  0.4364 -0.1253 -0.0456
 4940SOL    HW218223   7.526   0.472   3.539  2.8197 -2.4626  1.2131
 4941SOL     OW18224   5.631   5.317   0.558  0.7287  0.0739  0.3220
 4941SOL    HW118225   5.615   5.373   0.482 -0.0012  0.8682  1.0420
 4941SOL    HW218226   5.711   5.270   0.536 -0.2227 -0.7775 -1.5480
 4942SOL     OW18227   4.886   6.655   5.783 -0.0509 -0.3274  0.1089
 4942SOL    HW118228   4.928   6.681   5.701 -0.6160  1.0673  0.2344
 4942SOL    HW218229   4.942   6.692   5.851  1.3730 -2.9218  0.4618
 4943SOL     OW18230   0.049   2.391   4.199  0.3512  0.5127  0.6899
 4943SOL    HW118231   0.012   2.474   4.230  0.1175  0.3005  0.9768
 4943SOL    HW218232   0.118   2.370   4.262 -0.4163 -0.1421  1.3351
 4944SOL     OW18233   9.640   9.536   5.971 -0.1882 -0.5293 -0.0180
 4944SOL    HW118234   9.712   9.507   5.915 -0.6070 -2.0534  0.2032
 4944SOL    HW218235   9.566   9.548   5.911  0.1507  0.7539 -0.2026
 4945SOL     OW18236   9.097   6.256   6.234 -0.1530  0.2585  0.5097
 4945SOL    HW118237   9.130   6.253   6.144 -1.4739  1.2299 -0.0431
 4945SOL    HW218238   9.118   6.170   6.270  3.5981  1.0138  0.4872
 4946SOL     OW18239   2.742   6.550  10.387 -0.9939 -0.2960  0.0463
 4946SOL    HW118240   2.708   6.562  10.299 -0.2681 -0.5576 -0.2732
 4946SOL    HW218241   2.731   6.636  10.429 -2.1539 -0.4006  0.0069
 4947SOL     OW18242   2.544   8.647   9.102 -0.1578 -0.2345 -0.3843
 4947SOL    HW118243   2.473   8.590   9.073 -0.1215 -0.3182 -0.3065
 4947SOL    HW218244   2.586   8.675   9.021  0.3646 -1.0056 -0.3842
 4948SOL     OW18245   9.892   6.733   0.843 -0.2701 -0.1758 -0.1315
 4948SOL    HW118246   9.885   6.825   0.820 -1.2797 -0.3050 -0.3737
 4948SOL    HW218247   9.850   6.686   0.771  0.7596 -0.8701 -0.3098
 4949SOL     OW18248   6.213   1.690   1.699 -0.4091  0.3555 -0.2965
 4949SOL    HW118249   6.192   1.773   1.655 -0.2976 -0.1880 -1.4089
 4949SOL    HW218250   6.176   1.700   1.786  1.3672  2.3861  0.3233
 4950SOL     OW18251   7.413   7.273   0.742 -0.5250 -0.0255  0.0751
 4950SOL    HW118252   7.412   7.222   0.661 -0.9418  2.2548 -1.4432
 4950SOL    HW218253   7.374   7.214   0.807 -2.4565 -1.1266 -1.9056
 4951SOL     OW18254   6.542   1.513   8.205 -0.5305  0.2327  0.0222
 4951SOL    HW118255   6.509   1.512   8.115  0.1643  0.8678 -0.2504
 4951SOL    HW218256   6.580   1.600   8.216  0.4603 -0.2429  0.5279
 4952SOL     OW18257  10.427   2.871   7.139 -0.6134  0.5109 -0.2352
 4952SOL    HW118258  10.468   2.898   7.056 -0.0489  1.2972  0.2944
 4952SOL    HW218259  10.334   2.891   7.127 -0.3886  1.5573 -0.3187
 4953SOL     OW18260   3.223  10.615   0.533 -0.3658  0.1606  0.1186
 4953SOL    HW118261   3.303  10.643   0.487 -1.0888  1.7342 -0.2462
 4953SOL    HW218262   3.229  10.659   0.618  0.5900 -2.1300  1.3294
 4954SOL     OW18263   4.204   7.917   7.347 -0.4272 -0.1782 -0.2868
 4954SOL    HW118264   4.227   7.978   7.417 -1.0046 -0.7786  0.4385
 4954SOL    HW218265   4.245   7.954   7.269  0.9291  0.0582  0.5099
 4955SOL     OW18266   6.923   0.300   9.403 -0.1163  0.2175  0.5897
 4955SOL    HW118267   6.996   0.340   9.357 -0.5583  0.7059  0.3041
 4955SOL    HW218268   6.934   0.206   9.388  1.1062  0.1818  1.5199
 4956SOL     OW18269   5.994   0.680  10.717 -0.4434  0.0107  0.1398
 4956SOL    HW118270   6.067   0.659  10.658 -1.4202 -2.7271 -0.2300
 4956SOL    HW218271   5.925   0.713  10.659 -0.1954  0.7539  0.2516
 4957SOL     OW18272   1.726  10.652   1.034 -0.6871  0.2073  0.4416
 4957SOL    HW118273   1.715  10.662   1.128  1.5325 -0.1933  0.8126
 4957SOL    HW218274   1.774  10.730   1.007 -0.1120 -0.3189 -0.1000
 4958SOL     OW18275   0.250   5.140   9.327 -0.3967  0.5912  0.2994
 4958SOL    HW118276   0.339   5.171   9.313  0.2967 -1.4238 -0.1478
 4958SOL    HW218277   0.202   5.168   9.248  0.3670 -0.0295 -0.4032
 4959SOL     OW18278  10.136   5.068   9.857 -0.0681 -0.3692  0.1086
 4959SOL    HW118279  10.094   5.133   9.914  1.4918 -0.6578  1.6709
 4959SOL    HW218280  10.194   5.119   9.801  0.3382 -0.3019  0.5844
 4960SOL     OW18281   5.550   0.753   6.980 -0.3441  0.0083  0.3607
 4960SOL    HW118282   5.609   0.738   6.907  1.3912 -2.0565  2.0451
 4960SOL    HW218283   5.475   0.695   6.963 -0.1640 -0.1134 -0.0087
 4961SOL     OW18284   4.412   2.214   7.576 -0.5601  0.5884 -0.1903
 4961SOL    HW118285   4.432   2.132   7.532  1.0345  0.6823  0.2963
 4961SOL    HW218286   4.375   2.188   7.660  1.9158  0.2605  0.8848
 4962SOL     OW18287   0.277   1.789  10.431 -0.1577  0.6242  0.0470
 4962SOL    HW118288   0.323   1.808  10.349 -2.3419 -0.9725 -1.6943
 4962SOL    HW218289   0.326   1.717  10.470  0.5012  0.9153 -0.2310
 4963SOL     OW18290   7.507   8.081   8.060 -0.7281  0.2250  0.3908
 4963SOL    HW118291   7.571   8.151   8.051 -1.1817  0.3874 -3.2612
 4963SOL    HW218292   7.426   8.118   8.024 -1.1768 -1.8889 -0.9519
 4964SOL     OW18293   6.559   4.018   8.267  0.2103  0.5458  0.0293
 4964SOL    HW118294   6.513   4.059   8.193  1.7850  1.1207 -0.6634
 4964SOL    HW218295   6.599   3.939   8.230  0.7571  0.6721  0.3392
 4965SOL     OW18296   2.976   1.703   9.868 -0.2057  0.1175 -0.5764
 4965SOL    HW118297   3.000   1.611   9.858  0.9638  0.4815 -1.1700
 4965SOL    HW218298   2.926   1.724   9.789 -0.7536 -0.0746 -0.2931
 4966SOL     OW18299   3.112   9.213   3.837  0.2491 -0.4130  0.4050
 4966SOL    HW118300   3.046   9.278   3.813  1.3325  1.5954  2.5193
 4966SOL    HW218301   3.156   9.192   3.754 -0.7290  0.8606 -0.4777
 4967SOL     OW18302   5.095   1.346   3.919  0.1142 -0.1793 -0.3776
 4967SOL    HW118303   5.175   1.303   3.950  0.1527  0.4321  0.3938
 4967SOL    HW218304   5.025   1.303   3.968  0.1195  0.3706  0.1211
 4968SOL     OW18305   5.442   4.735   1.175 -0.0135  0.2031 -0.8229
 4968SOL    HW118306   5.406   4.789   1.105  2.9526  2.0860 -1.1039
 4968SOL    HW218307   5.487   4.664   1.130 -0.4011 -0.1469 -0.6649
 4969SOL     OW18308   7.903   3.116   3.262  0.1069 -0.0573  0.3950
 4969SOL    HW118309   7.831   3.088   3.319  0.3187 -1.6347 -0.0598
 4969SOL    HW218310   7.872   3.198   3.223 -1.0044 -0.1630  1.0072
 4970SOL     OW18311   2.565   1.291   8.573  0.2983 -0.4072 -0.5916
 4970SOL    HW118312   2.577   1.385   8.556 -0.4078 -0.0016  0.9652
 4970SOL    HW218313   2.549   1.286   8.668 -0.8788 -1.9740 -0.8439
 4971SOL     OW18314  10.155   7.438   7.856  0.2172 -0.0605  0.1466
 4971SOL    HW118315  10.181   7.365   7.800  2.3347  1.5683 -1.1583
 4971SOL    HW218316  10.235   7.490   7.865 -1.5585  2.9242 -0.2906
 4972SOL     OW18317   1.622   5.755   2.923  0.5898 -0.1716 -0.5391
 4972SOL    HW118318   1.622   5.763   2.828  0.1977 -1.4970 -0.6631
 4972SOL    HW218319   1.601   5.843   2.954  1.5457  0.4789 -1.6434
 4973SOL     OW18320   3.795   3.656   4.879 -0.1173 -0.3295  0.3803
 4973SOL    HW118321   3.767   3.668   4.788  0.9596  0.5176  0.1322
 4973SOL    HW218322   3.759   3.731   4.925 -1.1415 -1.0500  0.8016
 4974SOL     OW18323   4.411   7.425   4.138  0.3957  0.0752 -0.0850
 4974SOL    HW118324   4.487   7.367   4.150 -0.4210 -0.8035  1.0308
 4974SOL    HW218325   4.368   7.392   4.059 -0.7064 -1.6514  1.1568
 4975SOL     OW18326   2.006   4.576   5.833 -0.4683  0.6621 -0.2814
 4975SOL    HW118327   2.094   4.603   5.859 -1.0797  1.2358  1.3006
 4975SOL    HW218328   2.000   4.484   5.860 -0.2568  0.5294 -0.6778
 4976SOL     OW18329   5.929   0.367   3.806 -0.0688 -0.0906  0.1895
 4976SOL    HW118330   5.842   0.383   3.770  0.1869 -1.2547 -1.0300
 4976SOL    HW218331   5.973   0.452   3.802 -0.4292  0.0569 -1.2681
 4977SOL     OW18332   8.028  10.278   6.901 -0.2605  0.1534 -0.1287
 4977SOL    HW118333   8.086  10.236   6.838  0.2545 -1.1228  1.1408
 4977SOL    HW218334   8.009  10.210   6.966 -1.3684  1.2011  0.7021
 4978SOL     OW18335   3.082   2.535   2.835  0.2316  0.6419 -0.3554
 4978SOL    HW118336   3.142   2.574   2.772 -1.2280  0.8442 -1.6910
 4978SOL    HW218337   3.038   2.466   2.786  2.2429 -2.3628  1.7305
 4979SOL     OW18338  10.233   7.232   2.590 -0.4566 -0.5651 -0.6170
 4979SOL    HW118339  10.301   7.187   2.540  1.6633  1.6467  0.0475
 4979SOL    HW218340  10.163   7.247   2.527  0.4606 -1.3288 -1.8582
 4980SOL     OW18341   5.150   9.857   1.946  0.1180 -0.2379 -0.2256
 4980SOL    HW118342   5.236   9.898   1.951 -0.8371  1.9426 -0.4825
 4980SOL    HW218343   5.128   9.835   2.037  0.6658 -0.1926 -0.0799
 4981SOL     OW18344   2.462  10.732   8.520 -0.3918 -0.0514 -0.0094
 4981SOL    HW118345   2.398  10.757   8.586 -0.6119 -1.4480  0.3306
 4981SOL    HW218346   2.541  10.782   8.542 -1.1144  1.1112  0.0128
 4982SOL     OW18347   8.755  10.586   3.616  0.2781 -0.5219  0.6566
 4982SOL    HW118348   8.846  10.568   3.637 -0.0310 -1.3616  1.3634
 4982SOL    HW218349   8.719  10.624   3.697 -0.1611 -0.8466  0.6214
 4983SOL     OW18350   7.111   8.384  10.781  0.3390  0.2062 -0.3656
 4983SOL    HW118351   7.201   8.415  10.792 -0.2918  1.7146  0.8557
 4983SOL    HW218352   7.082   8.362  10.870 -0.1314 -1.4194 -0.8812
 4984SOL     OW18353   1.689   2.474   3.885  0.4505  0.5412  0.1103
 4984SOL    HW118354   1.668   2.437   3.970  0.7059  0.6406  0.2171
 4984SOL    HW218355   1.607   2.516   3.856  0.0454 -0.4225 -0.1822
 4985SOL     OW18356   7.637   4.307  10.658  0.4743  0.5562 -0.8203
 4985SOL    HW118357   7.705   4.289  10.593  0.8932 -1.9618  0.1868
 4985SOL    HW218358   7.685   4.318  10.740 -0.2199  0.8312 -0.4457
 4986SOL     OW18359  10.280   0.123   9.095 -0.1011  0.1527 -0.2091
 4986SOL    HW118360  10.265   0.136   9.001 -1.3207  0.2760 -0.0077
 4986SOL    HW218361  10.193   0.111   9.132  0.4320 -0.7720  0.7930
 4987SOL     OW18362   7.857  10.830   4.747 -0.5454 -0.1832  0.0329
 4987SOL    HW118363   7.867  10.823   4.842  1.0797  1.0652 -0.0035
 4987SOL    HW218364   7.946  10.829   4.713 -1.1383 -1.8973 -1.6334
 4988SOL     OW18365   4.053   4.005   7.900  0.1473 -0.0673  0.1074
 4988SOL    HW118366   4.069   4.008   7.995 -0.8456 -0.2605  0.2951
 4988SOL    HW218367   4.000   4.083   7.883 -0.4827 -0.5369 -0.1213
 4989SOL     OW18368   5.154   8.183   0.692  0.3357  0.7560 -0.3358
 4989SOL    HW118369   5.242   8.216   0.672  1.7129 -2.5394 -0.3239
 4989SOL    HW218370   5.125   8.141   0.612  0.0013 -0.6308  0.4874
 4990SOL     OW18371   9.891   1.758   9.788  0.4659 -0.3494  0.5313
 4990SOL    HW118372   9.960   1.817   9.819  1.1395 -1.3755  1.0393
 4990SOL    HW218373   9.906   1.751   9.694  1.5566 -1.1713  0.7495
 4991SOL     OW18374   1.009   9.683   9.250 -0.3722  0.3042  0.1863
 4991SOL    HW118375   0.997   9.772   9.282 -1.4483  0.6784 -1.1504
 4991SOL    HW218376   1.096   9.657   9.281 -0.1817  1.6923  0.8563
 4992SOL     OW18377   7.515   9.961  10.213  0.4314 -0.3967  0.5989
 4992SOL    HW118378   7.579  10.029  10.237  0.5397 -0.5788  0.8280
 4992SOL    HW218379   7.438   9.981  10.265  0.2107 -0.0309  0.1383
 4993SOL     OW18380   8.084  10.298   9.190 -0.1448  0.3539  0.2434
 4993SOL    HW118381   8.026  10.329   9.120  0.1009  1.9456  0.6907
 4993SOL    HW218382   8.030  10.304   9.269  0.1905  0.5116  0.4623
 4994SOL     OW18383   0.585   6.115   7.281  0.1823  0.0854 -0.2383
 4994SOL    HW118384   0.673   6.146   7.256  0.0198  0.5672 -0.2270
 4994SOL    HW218385   0.585   6.118   7.376  0.5873 -1.1525 -0.1817
 4995SOL     OW18386   9.935   4.263   4.603 -0.2704 -0.4140  0.4856
 4995SOL    HW118387   9.974   4.342   4.565  0.6553  0.2074  2.5875
 4995SOL    HW218388   9.843   4.286   4.616 -0.5330 -0.5267 -1.0055
 4996SOL     OW18389   2.139   4.491   3.091 -0.0821 -0.0591  0.4464
 4996SOL    HW118390   2.118   4.471   3.182 -0.5116 -1.7404  0.0081
 4996SOL    HW218391   2.083   4.565   3.070 -0.7642 -0.3353  1.2339
 4997SOL     OW18392   8.321   5.267   6.991 -0.1734 -0.3483 -0.0532
 4997SOL    HW118393   8.400   5.307   6.955  0.5099  0.4937  2.1679
 4997SOL    HW218394   8.279   5.337   7.040 -0.2121 -1.7155  1.9975
 4998SOL     OW18395   0.332   8.585  10.162 -0.0713 -0.1377 -0.1449
 4998SOL    HW118396   0.388   8.574  10.085  0.1110 -0.0193 -0.0292
 4998SOL    HW218397   0.391   8.617  10.230  0.1156 -1.7531  0.5159
 4999SOL     OW18398   5.404   9.508   7.482 -0.4711 -0.2426  0.4405
 4999SOL    HW118399   5.490   9.467   7.495  0.4613  1.5112  0.2014
 4999SOL    HW218400   5.423   9.602   7.476 -2.1881  0.0558 -1.5907
 5000SOL     OW18401   5.352   8.938   6.790 -0.6084  0.0153 -0.2578
 5000SOL    HW118402   5.332   9.010   6.850  0.9282 -0.6158  1.0688
 5000SOL    HW218403   5.326   8.859   6.837 -0.0073 -0.4424 -0.6728
 5001SOL     OW18404   7.053   0.724   0.568 -0.2022 -0.0714 -0.0329
 5001SOL    HW118405   6.973   0.767   0.538 -0.0937 -0.5922 -1.1176
 5001SOL    HW218406   7.028   0.681   0.649 -0.7395  0.6538  0.1924
 5002SOL     OW18407   6.760  10.818   8.797 -0.3485  0.2497 -0.3568
 5002SOL    HW118408   6.747  10.783   8.710  0.4339 -1.2786  0.1157
 5002SOL    HW218409   6.842  10.867   8.791 -0.6021  0.6512 -0.6103
 5003SOL     OW18410   6.873   6.981   9.357  0.4017 -0.0202  0.0700
 5003SOL    HW118411   6.952   7.027   9.386 -0.6153  1.8165  0.0610
 5003SOL    HW218412   6.857   7.014   9.269 -1.3396  1.0176  0.7194
 5004SOL     OW18413   5.126   6.808   3.061 -0.1184 -0.3948  0.1745
 5004SOL    HW118414   5.175   6.786   3.140 -0.7400 -2.7408 -0.0093
 5004SOL    HW218415   5.059   6.869   3.091  1.4146  1.0667  0.8477
 5005SOL     OW18416   2.584   1.496   5.950 -0.4363 -0.0993  0.3229
 5005SOL    HW118417   2.604   1.584   5.917 -1.6185  0.3595  0.8094
 5005SOL    HW218418   2.509   1.507   6.008 -2.2778 -1.7577 -1.5525
 5006SOL     OW18419   9.265   4.863   3.020 -0.2972 -0.2071 -0.0861
 5006SOL    HW118420   9.277   4.956   3.002 -1.1887 -0.1792 -0.6008
 5006SOL    HW218421   9.247   4.858   3.114 -1.0063  0.2217 -0.1981
 5007SOL     OW18422   2.992   8.340   1.622  0.3971 -0.4064 -0.0909
 5007SOL    HW118423   2.900   8.318   1.611  0.0623  0.7724  0.1763
 5007SOL    HW218424   2.992   8.433   1.645  1.7077 -0.1430 -1.0037
 5008SOL     OW18425   6.588   1.095   6.379 -0.0396  0.2195  0.4368
 5008SOL    HW118426   6.653   1.075   6.446  0.3146 -0.5303 -0.1123
 5008SOL    HW218427   6.507   1.055   6.410  0.5298 -1.6388 -0.3770
 5009SOL     OW18428   6.209   3.681   6.850 -0.1279 -0.1728 -0.2369
 5009SOL    HW118429   6.136   3.680   6.787  1.5361  0.2516 -2.2891
 5009SOL    HW218430   6.279   3.633   6.806  0.5565 -1.4819  2.1114
 5010SOL     OW18431   6.509   5.531   3.716  0.2439  0.3706 -0.0784
 5010SOL    HW118432   6.548   5.575   3.640 -1.8795 -0.0623 -1.5197
 5010SOL    HW218433   6.423   5.571   3.725  0.0182 -0.3995  1.3942
 5011SOL     OW18434  10.636   0.333   9.019 -0.1809  0.2374 -0.3235
 5011SOL    HW118435  10.613   0.266   9.083  0.3830  0.1673 -0.1878
 5011SOL    HW218436  10.556   0.385   9.009 -0.5375 -0.2859 -0.2261
 5012SOL     OW18437   5.320   8.225   3.737  0.1414  0.3438  0.0988
 5012SOL    HW118438   5.293   8.287   3.669 -0.2344 -0.7511 -0.7779
 5012SOL    HW218439   5.335   8.280   3.814 -0.2519  1.5160 -0.6266
 5013SOL     OW18440   4.002   7.345  10.249 -0.1209 -0.2342 -0.5944
 5013SOL    HW118441   4.042   7.333  10.336  0.0815  1.4773 -0.4106
 5013SOL    HW218442   3.920   7.294  10.253  0.3293 -0.9216  0.2618
 5014SOL     OW18443   8.809   8.179   9.990 -0.1017  0.6255 -0.3644
 5014SOL    HW118444   8.767   8.096  10.013 -2.7458  1.3990 -2.0157
 5014SOL    HW218445   8.800   8.186   9.895  2.3764  1.6539 -0.5880
 5015SOL     OW18446   8.382   3.938   2.957  0.0719 -0.1089 -0.1728
 5015SOL    HW118447   8.352   3.914   3.045 -0.3325  1.0400  0.0230
 5015SOL    HW218448   8.314   3.996   2.923  0.4150 -0.2317 -1.0938
 5016SOL     OW18449   9.026   4.781   5.402 -0.0737  0.0837  0.4702
 5016SOL    HW118450   9.065   4.733   5.330 -0.4249  0.7557 -0.1843
 5016SOL    HW218451   8.947   4.732   5.425  0.2919 -0.3916  0.7223
 5017SOL     OW18452   1.911   3.765  10.083 -0.1525 -0.8437 -0.4026
 5017SOL    HW118453   1.897   3.843  10.029  0.9788 -0.7489 -0.5840
 5017SOL    HW218454   1.845   3.703  10.053 -0.8933 -0.0627 -0.4468
 5018SOL     OW18455   0.878   6.778   1.709 -0.4572 -0.5713  0.1637
 5018SOL    HW118456   0.949   6.843   1.715  0.5340 -1.4015 -1.5318
 5018SOL    HW218457   0.921   6.694   1.727 -1.2328 -0.9819  0.1385
 5019SOL     OW18458   4.454   2.036   2.112  0.0348  0.0587  0.0619
 5019SOL    HW118459   4.408   1.954   2.129 -0.6397  0.3956 -0.0792
 5019SOL    HW218460   4.419   2.097   2.177  3.1038 -0.6260  2.5558
 5020SOL     OW18461   4.808   4.488   4.441 -0.4165  0.2219  0.2142
 5020SOL    HW118462   4.852   4.403   4.438 -0.4505  0.2277 -0.8000
 5020SOL    HW218463   4.845   4.536   4.367  0.1908  1.3900  1.2407
 5021SOL     OW18464   3.733   3.148   0.073  0.1339  0.3579  0.2867
 5021SOL    HW118465   3.809   3.105   0.112  0.0053  0.7531  1.0001
 5021SOL    HW218466   3.658   3.096   0.101  0.0794  0.3732  0.1724
 5022SOL     OW18467   6.434   7.079   4.076  0.2257  0.3130 -0.5337
 5022SOL    HW118468   6.431   7.115   4.164  0.5216  0.7339 -0.6909
 5022SOL    HW218469   6.405   7.151   4.020  1.3283  0.4897 -0.9043
 5023SOL     OW18470   9.503   8.523   5.523 -0.1359 -0.4002 -0.3016
 5023SOL    HW118471   9.529   8.493   5.436  1.7092  0.0065  0.0575
 5023SOL    HW218472   9.502   8.444   5.577  0.6335 -0.4066 -0.2823
 5024SOL     OW18473   1.651   6.003  10.568 -0.1323 -0.0385  0.3696
 5024SOL    HW118474   1.649   6.093  10.600 -1.3236  0.9914 -2.3621
 5024SOL    HW218475   1.673   6.010  10.476  0.3336 -2.6292  0.2014
 5025SOL     OW18476   6.943   2.464   2.664  0.0469 -0.3340 -0.1611
 5025SOL    HW118477   6.947   2.542   2.609 -2.6108  0.0040  0.0079
 5025SOL    HW218478   6.973   2.493   2.750  1.2111 -0.1058 -0.6191
 5026SOL     OW18479   0.840   7.462  10.513  0.0691  0.0005 -0.0203
 5026SOL    HW118480   0.790   7.386  10.483 -0.5624  0.3797  0.0517
 5026SOL    HW218481   0.781   7.507  10.574  0.9575 -0.2110  1.0378
 5027SOL     OW18482   5.222   7.516   5.308  0.0644  0.0290  0.3678
 5027SOL    HW118483   5.218   7.426   5.339  0.4669 -0.3202 -0.5711
 5027SOL    HW218484   5.220   7.509   5.213  1.7781  0.9063  0.2337
 5028SOL     OW18485   3.888   1.826   9.533 -0.3467 -0.4563  0.5003
 5028SOL    HW118486   3.946   1.808   9.606  0.5834  0.3679 -0.0213
 5028SOL    HW218487   3.878   1.741   9.489 -0.2587 -0.7819  1.1017
 5029SOL     OW18488   1.032   7.351   0.334 -0.5146  0.2547  0.1464
 5029SOL    HW118489   1.054   7.388   0.420 -0.5069  1.0269 -0.1824
 5029SOL    HW218490   0.968   7.283   0.354 -0.4181  0.3408  0.7836
 5030SOL     OW18491   1.842   2.307   7.512  0.2997 -0.2358  0.5661
 5030SOL    HW118492   1.905   2.265   7.571  1.1117 -0.0180 -0.1210
 5030SOL    HW218493   1.881   2.297   7.425  1.2635  3.1697  0.4943
 5031SOL     OW18494   4.362   9.382  10.231  0.1186  0.2620 -0.5823
 5031SOL    HW118495   4.320   9.300  10.206  0.4100  0.3151 -1.2755
 5031SOL    HW218496   4.451   9.375  10.198  0.2318  0.7439 -0.3980
 5032SOL     OW18497   1.749  10.340   2.642  0.2828  0.3671  0.1169
 5032SOL    HW118498   1.763  10.410   2.577 -1.3895 -0.9840 -1.8382
 5032SOL    HW218499   1.656  10.318   2.633  0.9218 -2.6853 -0.0002
 5033SOL     OW18500   5.187   8.110   2.726  0.3207 -0.3630  0.1738
 5033SOL    HW118501   5.196   8.058   2.646  1.1514  1.7128 -1.1857
 5033SOL    HW218502   5.096   8.138   2.726  0.2331 -0.6438  0.1360
 5034SOL     OW18503   3.434   9.659   5.003  0.9628 -0.5155  0.0994
 5034SOL    HW118504   3.485   9.686   5.079  0.3308 -1.7250  0.9945
 5034SOL    HW218505   3.351   9.628   5.040  0.6629 -1.1763 -1.0782
 5035SOL     OW18506   0.002   2.494   1.330  0.1451 -0.5486 -0.2647
 5035SOL    HW118507   0.056   2.435   1.382  1.5077 -1.2862 -2.4208
 5035SOL    HW218508  -0.013   2.448   1.248 -1.2754  0.9039 -0.8788
 5036SOL     OW18509   9.364   5.684   3.252  0.0579  0.3022  0.5080
 5036SOL    HW118510   9.382   5.776   3.234  1.2369 -0.1987 -1.1351
 5036SOL    HW218511   9.291   5.662   3.195 -0.3494  0.2401  1.0397
 5037SOL     OW18512   9.210   2.634   6.837  0.0524  0.2061 -0.0464
 5037SOL    HW118513   9.189   2.552   6.793  2.6299  0.0839 -1.2432
 5037SOL    HW218514   9.158   2.633   6.917 -2.0449 -1.2842 -1.3232
 5038SOL     OW18515   4.755   9.611   2.494  0.5568  0.1904  0.2296
 5038SOL    HW118516   4.668   9.647   2.510  1.2825  1.8108  0.7919
 5038SOL    HW218517   4.798   9.675   2.437  1.8673  0.1868  1.1528
 5039SOL     OW18518   9.817   4.114   9.246 -0.0606 -0.6449 -0.5427
 5039SOL    HW118519   9.747   4.174   9.219  0.5329 -0.2944 -1.3098
 5039SOL    HW218520   9.772   4.030   9.258 -0.4413 -0.6805 -2.0904
 5040SOL     OW18521   1.782   2.420   2.878 -0.7057  0.4807  0.4885
 5040SOL    HW118522   1.837   2.436   2.954  0.1933 -2.0331  0.4366
 5040SOL    HW218523   1.822   2.471   2.808  1.1648 -0.6953  0.6397
 5041SOL     OW18524   1.967   5.210   5.975  0.6685  0.5853 -0.2171
 5041SOL    HW118525   2.045   5.259   5.948  1.5591 -1.4006 -1.4140
 5041SOL    HW218526   1.995   5.162   6.053  0.1384  1.0708  0.2822
 5042SOL     OW18527   0.868   8.388  10.742  0.3513  0.2814  0.5765
 5042SOL    HW118528   0.837   8.478  10.739  4.2284  1.7902 -1.5570
 5042SOL    HW218529   0.847   8.352  10.656 -0.9841 -0.8502  1.3404
 5043SOL     OW18530   1.095   8.246   8.323 -0.4572  0.8023  0.5351
 5043SOL    HW118531   1.033   8.228   8.252  0.7305 -2.4715  0.1371
 5043SOL    HW218532   1.048   8.303   8.383 -3.3742 -0.4482 -0.3950
 5044SOL     OW18533   7.867   6.171   0.799 -1.0873  0.3812 -0.5205
 5044SOL    HW118534   7.957   6.184   0.769 -0.9071  1.7609  0.5310
 5044SOL    HW218535   7.828   6.113   0.733  1.0000 -1.5571 -0.1389
 5045SOL     OW18536   6.198   1.651   0.941  0.3945  0.1285 -0.5527
 5045SOL    HW118537   6.235   1.686   0.860 -0.3527  3.2752  0.3597
 5045SOL    HW218538   6.106   1.676   0.938  0.1850 -0.3826  0.9384
 5046SOL     OW18539   6.598  10.047   9.043  0.3390 -0.0193 -0.6109
 5046SOL    HW118540   6.554  10.131   9.039 -1.6711 -0.8599  1.5388
 5046SOL    HW218541   6.640  10.045   9.129 -1.1630 -1.8322  0.1553
 5047SOL     OW18542   4.313   2.181   1.213 -0.9124 -0.0596 -0.3828
 5047SOL    HW118543   4.366   2.257   1.236  0.1453 -0.9233  0.1217
 5047SOL    HW218544   4.267   2.207   1.133 -0.8077  1.2080 -0.0503
 5048SOL     OW18545   5.337  10.143  10.187  0.2737  0.2651 -0.0552
 5048SOL    HW118546   5.397  10.191  10.129  1.4341 -0.4974  0.4796
 5048SOL    HW218547   5.252  10.150  10.144  1.2090 -0.8854 -2.2672
 5049SOL     OW18548   4.580   5.848   6.785 -0.7983  0.1126  0.3285
 5049SOL    HW118549   4.564   5.942   6.788  0.8931  0.4162  1.2018
 5049SOL    HW218550   4.559   5.817   6.873  2.0140  0.3590  1.2043
 5050SOL     OW18551   1.737   4.635   0.747  0.4608  0.5366 -0.1907
 5050SOL    HW118552   1.727   4.710   0.688 -0.4119  1.3022  0.8934
 5050SOL    HW218553   1.812   4.658   0.801  0.4634  0.4329 -0.1517
 5051SOL     OW18554   3.268   0.399   1.388 -0.2588 -0.2075 -0.0117
 5051SOL    HW118555   3.304   0.419   1.474 -0.9845  1.2821 -0.0201
 5051SOL    HW218556   3.303   0.312   1.367  0.9593 -0.0530  1.2122
 5052SOL     OW18557   2.644   4.066   8.250  0.2298  0.2055  0.3258
 5052SOL    HW118558   2.676   4.076   8.161 -1.1981  0.7177 -0.1626
 5052SOL    HW218559   2.580   3.995   8.245  0.0037  0.3596  0.8951
 5053SOL     OW18560   5.668   2.283   4.894 -0.8128 -0.1658 -0.1796
 5053SOL    HW118561   5.648   2.259   4.985 -0.1430  2.1929  0.6809
 5053SOL    HW218562   5.633   2.372   4.885  1.0733  0.5155 -1.4848
 5054SOL     OW18563   8.222   8.688   8.774 -0.3027 -0.2014  0.2026
 5054SOL    HW118564   8.257   8.606   8.740 -0.8269 -0.2165 -0.3151
 5054SOL    HW218565   8.200   8.668   8.865  1.4437 -0.0564  0.6978
 5055SOL     OW18566   9.342   7.177   3.385 -0.6619 -0.6681  0.5364
 5055SOL    HW118567   9.263   7.133   3.352 -1.0945 -0.2468  0.9925
 5055SOL    HW218568   9.330   7.180   3.480 -2.1446  3.1342  0.4036
 5056SOL     OW18569   0.889   6.388   3.203 -0.2350 -0.1814 -0.4870
 5056SOL    HW118570   0.900   6.435   3.286 -0.9569  0.0761 -0.5338
 5056SOL    HW218571   0.932   6.444   3.138 -1.2410  0.5318 -0.5730
 5057SOL     OW18572   6.126   0.794   1.154  0.0069 -0.1921  0.0798
 5057SOL    HW118573   6.061   0.776   1.222  0.0796 -0.6574  0.0287
 5057SOL    HW218574   6.078   0.845   1.088 -0.0954  0.1584  0.4192
 5058SOL     OW18575   0.503   4.813   6.922 -0.5940  0.0812 -0.5851
 5058SOL    HW118576   0.518   4.861   6.841  0.0048  0.6596 -0.1555
 5058SOL    HW218577   0.493   4.881   6.988 -3.0956 -0.3305 -0.4608
 5059SOL     OW18578  10.890   7.944  10.839  0.0241  0.4965  0.3947
 5059SOL    HW118579  10.844   7.861  10.827 -0.1377  0.6880 -0.3679
 5059SOL    HW218580  10.872   7.993  10.758  3.9317 -0.5410 -1.3343
 5060SOL     OW18581   2.036   1.967   8.702  0.1640  0.5423  0.3114
 5060SOL    HW118582   1.978   2.028   8.747 -0.6724  0.8712 -1.1450
 5060SOL    HW218583   2.010   1.973   8.609  0.6719 -1.3280  0.0025
 5061SOL     OW18584   3.722   5.606   7.471 -0.2208 -0.4454  0.0099
 5061SOL    HW118585   3.711   5.532   7.531  0.5246  0.3981  1.2094
 5061SOL    HW218586   3.814   5.629   7.478 -0.3606  0.3501 -0.6712
 5062SOL     OW18587   6.939   3.981   3.850  0.2929 -0.4380 -0.3002
 5062SOL    HW118588   6.947   3.886   3.862  0.3483 -0.4154 -0.1569
 5062SOL    HW218589   6.851   4.002   3.882 -0.0264 -0.5573 -1.0709
 5063SOL     OW18590   9.063   1.004   7.666 -0.4712 -0.3370  0.5428
 5063SOL    HW118591   9.034   0.913   7.658 -1.2700 -0.2007  1.7125
 5063SOL    HW218592   8.985   1.052   7.694  0.0980  0.6088  0.5545
 5064SOL     OW18593   8.766   5.958   4.071  0.4880  0.6020 -0.4719
 5064SOL    HW118594   8.742   5.977   3.981 -1.3234 -0.5379 -0.2715
 5064SOL    HW218595   8.836   6.021   4.091 -0.1437  1.9140 -2.1517
 5065SOL     OW18596   2.223   1.850   1.802  0.7363 -0.1917  0.2909
 5065SOL    HW118597   2.135   1.826   1.831  1.4466 -2.8118  0.5915
 5065SOL    HW218598   2.224   1.831   1.708  0.9584 -0.1118  0.2759
 5066SOL     OW18599   2.822   8.193  10.056 -0.1566 -0.2720  0.1415
 5066SOL    HW118600   2.819   8.102  10.085 -0.4350 -0.1197  0.6139
 5066SOL    HW218601   2.896   8.231  10.104 -0.8493  0.0777  0.9719
 5067SOL     OW18602   6.505   3.412  10.799 -0.8485  0.0556 -0.4722
 5067SOL    HW118603   6.410   3.423  10.791 -0.9007 -0.3947 -0.4845
 5067SOL    HW218604   6.516   3.330  10.847 -0.4991  1.1821  1.4980
 5068SOL     OW18605   1.421   9.448   9.235 -0.4516  0.1261 -0.0790
 5068SOL    HW118606   1.452   9.388   9.167 -0.0221 -1.2187  1.2298
 5068SOL    HW218607   1.480   9.523   9.229  0.0098 -0.2772 -0.7547
 5069SOL     OW18608   8.634   8.587   2.513  0.1045 -0.3413 -0.1125
 5069SOL    HW118609   8.596   8.587   2.601  0.5624 -1.4222  0.1004
 5069SOL    HW218610   8.619   8.676   2.481 -1.4827 -0.3657  0.4435
 5070SOL     OW18611   5.236   9.067   2.908  1.0644 -0.2167 -0.4947
 5070SOL    HW118612   5.263   8.982   2.873  0.7783 -0.4810 -0.0889
 5070SOL    HW218613   5.313   9.100   2.955  2.6835  1.7431 -4.1605
 5071SOL     OW18614   9.752   6.878   1.308 -0.2135  0.1528  0.5101
 5071SOL    HW118615   9.808   6.859   1.383 -1.8499  1.6031  2.1994
 5071SOL    HW218616   9.796   6.836   1.234  3.9801  2.4550  1.3549
 5072SOL     OW18617   4.320   2.355   1.512  0.1131 -0.0575  0.2647
 5072SOL    HW118618   4.235   2.330   1.548  0.2880 -2.8784 -1.0742
 5072SOL    HW218619   4.383   2.324   1.577  0.2302 -0.1218  0.1191
 5073SOL     OW18620   1.207   1.312   8.975 -0.1999  0.9436 -0.3749
 5073SOL    HW118621   1.158   1.256   9.035  2.6652 -0.1453  1.1668
 5073SOL    HW218622   1.189   1.276   8.888 -1.2752 -0.0267  0.2227
 5074SOL     OW18623   9.030   5.059   8.086  0.4678 -0.8222  0.0102
 5074SOL    HW118624   9.108   5.086   8.133 -0.3410 -1.2128  1.6477
 5074SOL    HW218625   8.990   5.140   8.056  2.0904 -0.6651 -1.9147
 5075SOL     OW18626   5.889   4.271   3.420  0.3865  0.3816  0.4508
 5075SOL    HW118627   5.922   4.254   3.332 -0.9706  0.7719 -0.1734
 5075SOL    HW218628   5.870   4.365   3.421  1.2884  0.5676  1.4926
 5076SOL     OW18629   5.969   5.520   0.773 -0.1815  0.0146 -0.1705
 5076SOL    HW118630   6.041   5.470   0.734 -0.6715 -1.0322  0.2177
 5076SOL    HW218631   5.962   5.487   0.862  0.4387  1.8647  0.5971
 5077SOL     OW18632   8.605   4.756   6.645 -0.2593 -0.1121  0.2775
 5077SOL    HW118633   8.624   4.729   6.735 -3.3842 -0.5666  0.9022
 5077SOL    HW218634   8.581   4.675   6.600 -0.4669  0.3489 -0.4661
 5078SOL     OW18635   1.159   5.538   1.414 -0.4539 -0.0121  0.2101
 5078SOL    HW118636   1.217   5.555   1.488 -1.4247 -0.0427  1.0047
 5078SOL    HW218637   1.207   5.570   1.337  0.6239 -0.0972  0.8300
 5079SOL     OW18638   6.698   5.758   9.385  0.2120 -0.0047  0.9066
 5079SOL    HW118639   6.677   5.851   9.388  0.5506  0.0603  1.3426
 5079SOL    HW218640   6.641   5.718   9.451 -1.1020 -0.3499 -0.3920
 5080SOL     OW18641   3.875   3.980   2.613 -0.5826  0.0059  0.2125
 5080SOL    HW118642   3.854   3.888   2.628  2.7044 -1.1080 -1.0222
 5080SOL    HW218643   3.791   4.026   2.621 -1.9632 -2.6692  3.4031
 5081SOL     OW18644   1.274   2.039   6.505  0.0852  0.5796 -0.2034
 5081SOL    HW118645   1.254   2.130   6.527 -0.2368  0.3352  0.5540
 5081SOL    HW218646   1.294   1.998   6.590 -0.6838 -0.2720 -0.4207
 5082SOL     OW18647   9.441  10.628   2.349  0.3595  0.4499 -0.0725
 5082SOL    HW118648   9.524  10.676   2.346  0.2473  0.7271  0.8859
 5082SOL    HW218649   9.412  10.625   2.258  2.1129 -0.8909 -0.6434
 5083SOL     OW18650   2.471   5.534   7.359  0.4782  0.4809 -0.7191
 5083SOL    HW118651   2.388   5.490   7.380  0.5213  0.5474 -0.3920
 5083SOL    HW218652   2.538   5.468   7.377  0.7737  1.4727  2.5446
 5084SOL     OW18653   9.008   5.383   7.233  0.3525 -0.2882 -0.3239
 5084SOL    HW118654   9.075   5.379   7.301 -0.4345  1.9165  0.6833
 5084SOL    HW218655   8.938   5.436   7.272 -0.6259  0.0918 -2.4520
 5085SOL     OW18656   4.186   3.134   3.754  0.3791  0.2432  0.1371
 5085SOL    HW118657   4.140   3.151   3.672 -0.0119 -1.4134 -0.0171
 5085SOL    HW218658   4.214   3.043   3.748  1.1867  0.3723  1.4502
 5086SOL     OW18659  10.482   5.152   6.644  0.2966  0.2913 -0.6943
 5086SOL    HW118660  10.441   5.237   6.656  1.1383  0.5161  0.9005
 5086SOL    HW218661  10.522   5.156   6.557  0.3807  1.5530 -0.6130
 5087SOL     OW18662   7.094   0.404   6.771 -0.0930 -0.0380  0.5297
 5087SOL    HW118663   7.156   0.331   6.766  0.0444  0.1740 -1.1690
 5087SOL    HW218664   7.147   0.482   6.756 -0.3204  0.4101  1.8878
 5088SOL     OW18665   1.779   7.070   7.099 -0.1868 -0.3056  0.0064
 5088SOL    HW118666   1.796   7.132   7.028  0.7459  1.3927  1.6564
 5088SOL    HW218667   1.707   7.109   7.149 -0.3028 -1.0974  0.4796
 5089SOL     OW18668   2.375   1.603   8.532  0.3664 -0.5615 -0.2827
 5089SOL    HW118669   2.461   1.597   8.573  0.7373  3.7175 -0.0526
 5089SOL    HW218670   2.391   1.643   8.447 -1.3761  0.0318 -0.3722
 5090SOL     OW18671   9.383   3.160   1.785 -0.2354  0.4269  0.2166
 5090SOL    HW118672   9.291   3.165   1.759 -0.5277  0.2307  1.1932
 5090SOL    HW218673   9.406   3.068   1.776 -0.2986  0.3808  0.5423
 5091SOL     OW18674   7.641  10.095   8.828 -0.4996  0.0115 -0.4214
 5091SOL    HW118675   7.640  10.024   8.763  1.5087  0.8064 -1.4150
 5091SOL    HW218676   7.733  10.113   8.842 -0.9463  1.4841  0.9017
 5092SOL     OW18677   0.877   2.956   6.444  0.0507 -0.6091 -0.1082
 5092SOL    HW118678   0.820   3.026   6.414 -0.8224 -0.8489  0.9403
 5092SOL    HW218679   0.876   2.962   6.539  2.5444 -0.0249 -0.0486
 5093SOL     OW18680  10.774   2.600   1.067 -0.2445 -0.6772  0.4515
 5093SOL    HW118681  10.828   2.521   1.066  2.6191  1.0565  2.4936
 5093SOL    HW218682  10.722   2.591   1.147  0.6587 -0.2346  1.1167
 5094SOL     OW18683   1.547   2.973   9.780 -0.3730  0.3421 -0.6850
 5094SOL    HW118684   1.521   2.959   9.872  0.8707 -2.4972 -0.6557
 5094SOL    HW218685   1.586   3.060   9.779 -0.9077  0.6557  1.3767
 5095SOL     OW18686   4.325   7.866   8.759 -0.0609  0.1323 -0.1692
 5095SOL    HW118687   4.235   7.842   8.781 -0.2291  1.4301  0.6167
 5095SOL    HW218688   4.374   7.851   8.840  0.7206 -1.7506 -0.9136
 5096SOL     OW18689   9.169   8.881   6.595 -0.1926  0.6846 -0.0617
 5096SOL    HW118690   9.179   8.815   6.526  0.4214  3.1802 -2.5371
 5096SOL    HW218691   9.256   8.888   6.634  0.0514  0.8457 -0.6209
 5097SOL     OW18692   1.047   7.538   7.222  0.2639  0.2611 -0.1698
 5097SOL    HW118693   1.141   7.531   7.207  0.3294 -1.9471  0.8256
 5097SOL    HW218694   1.040   7.553   7.317 -0.3637 -2.3898  0.2840
 5098SOL     OW18695   8.077  10.521   4.152  0.6103  0.6562 -0.1302
 5098SOL    HW118696   8.104  10.480   4.070 -0.0185 -0.2965  0.1315
 5098SOL    HW218697   8.139  10.593   4.164  2.5472 -0.9717  0.0458
 5099SOL     OW18698   2.811   8.613   8.778  0.1720 -0.0004 -0.8435
 5099SOL    HW118699   2.792   8.551   8.848 -1.6043  1.9520  0.5273
 5099SOL    HW218700   2.754   8.587   8.706  0.0194 -0.4170 -0.5742
 5100SOL     OW18701   9.911   4.631   8.674  0.0007 -0.0101 -0.2127
 5100SOL    HW118702   9.906   4.696   8.604  0.2121 -0.9617 -1.1532
 5100SOL    HW218703   9.868   4.672   8.749 -1.1387  0.6678 -1.1998
 5101SOL     OW18704   8.717   2.520   0.113 -0.1861 -0.0415  0.0440
 5101SOL    HW118705   8.805   2.552   0.094 -0.1226  0.2209  0.7209
 5101SOL    HW218706   8.731   2.435   0.155 -0.2066  0.2849  0.7419
 5102SOL     OW18707  10.301   8.223   7.085  0.1144  0.4096  0.0643
 5102SOL    HW118708  10.331   8.151   7.030 -0.5729  0.5215 -0.4661
 5102SOL    HW218709  10.352   8.214   7.166  0.6155 -0.1837 -0.3062
 5103SOL     OW18710   6.828  10.368   8.482  0.5003 -0.2602 -0.1000
 5103SOL    HW118711   6.825  10.309   8.406  2.2004 -0.5174 -0.0010
 5103SOL    HW218712   6.804  10.453   8.446  0.7511 -0.4794 -0.8224
 5104SOL     OW18713   5.706   2.380   8.261 -1.0050 -0.3134  1.2304
 5104SOL    HW118714   5.652   2.447   8.303 -0.1007  0.6690  0.8801
 5104SOL    HW218715   5.681   2.382   8.169 -0.3487  0.1930  1.0530
 5105SOL     OW18716   1.486   3.271   5.946 -0.0009 -0.0506  0.2128
 5105SOL    HW118717   1.469   3.230   5.862  1.5165  0.4065 -0.3501
 5105SOL    HW218718   1.577   3.250   5.965  0.7093  2.6321  0.1102
 5106SOL     OW18719   2.434   2.101  10.610  0.0664  0.0179  0.5945
 5106SOL    HW118720   2.453   2.149  10.691 -1.6894 -0.5723  1.4067
 5106SOL    HW218721   2.352   2.139  10.578  0.8739  0.4382 -1.1057
 5107SOL     OW18722  10.207  10.411  10.194 -0.2982 -0.5472  0.3803
 5107SOL    HW118723  10.208  10.449  10.282  0.8418  0.3063  0.0343
 5107SOL    HW218724  10.210  10.487  10.136 -1.0622 -1.1030 -0.4048
 5108SOL     OW18725   2.846   1.123   6.603 -0.0137 -0.4402 -0.6515
 5108SOL    HW118726   2.882   1.198   6.554 -1.7955  0.8689 -0.0415
 5108SOL    HW218727   2.905   1.114   6.678 -0.6279  1.4056  0.1141
 5109SOL     OW18728   8.322   5.511   5.577  0.7301  0.7603  0.5729
 5109SOL    HW118729   8.350   5.420   5.571 -0.4075  0.4874 -1.4648
 5109SOL    HW218730   8.395   5.560   5.538  0.6418  0.5515  0.1361
 5110SOL     OW18731  10.408   0.375   7.043  0.0698 -0.0973 -0.4318
 5110SOL    HW118732  10.448   0.363   7.129  1.1379 -1.1501 -1.0496
 5110SOL    HW218733  10.441   0.303   6.990 -1.2723  0.0093 -1.4922
 5111SOL     OW18734   0.159   4.639   3.456 -0.1955  0.0264  0.2606
 5111SOL    HW118735   0.197   4.707   3.401 -0.8017  0.6272  0.5657
 5111SOL    HW218736   0.095   4.685   3.510 -0.7294 -0.8135  0.3671
 5112SOL     OW18737   9.928   4.102   6.196 -0.2818  0.0913  0.0933
 5112SOL    HW118738   9.899   4.163   6.264 -0.2991 -0.9943  1.0856
 5112SOL    HW218739   9.994   4.048   6.239 -0.2469 -0.5772 -0.7825
 5113SOL     OW18740   6.882   0.577   8.444  0.3843 -0.0225 -0.6648
 5113SOL    HW118741   6.963   0.617   8.475  0.8219 -0.9858 -0.5375
 5113SOL    HW218742   6.894   0.483   8.459 -0.4478 -0.2514 -1.3557
 5114SOL     OW18743   9.704   5.595  10.679  0.1013 -0.1295  0.4386
 5114SOL    HW118744   9.707   5.532  10.751 -0.8426  0.8829  1.3973
 5114SOL    HW218745   9.701   5.680  10.721 -0.4844  0.4976 -0.8074
 5115SOL     OW18746   2.665   7.325   8.884 -0.0567 -0.2660 -0.6703
 5115SOL    HW118747   2.583   7.302   8.928  0.7389 -0.1311  0.9626
 5115SOL    HW218748   2.703   7.241   8.859 -1.0663 -0.3024 -2.2289
 5116SOL     OW18749   8.530  10.919   1.936 -0.0205  0.0880 -0.1138
 5116SOL    HW118750   8.614  10.895   1.896 -0.3463 -0.6056 -0.4049
 5116SOL    HW218751   8.521  11.012   1.919  0.3168  0.0045 -0.7948
 5117SOL     OW18752   8.712   3.103   6.801 -0.4525  0.2305  0.1113
 5117SOL    HW118753   8.784   3.100   6.738 -2.5169 -1.2928 -2.3547
 5117SOL    HW218754   8.705   3.014   6.834 -2.4460 -0.2116 -1.3139
 5118SOL     OW18755   7.929   2.923   8.327 -0.3047 -0.0872  0.0350
 5118SOL    HW118756   7.995   2.991   8.310  1.1898 -0.5959  3.0128
 5118SOL    HW218757   7.960   2.847   8.278  1.2498 -0.2135  1.1144
 5119SOL     OW18758   9.160   4.960   4.986  0.0729  1.1464  0.1349
 5119SOL    HW118759   9.147   4.944   4.893 -0.5413 -1.4350  0.5827
 5119SOL    HW218760   9.075   4.993   5.016 -0.2049  0.5343  0.0364
 5120SOL     OW18761   6.059   1.551   7.818 -0.2401  0.2306 -0.1613
 5120SOL    HW118762   5.995   1.619   7.839  0.7636  0.9822  0.5600
 5120SOL    HW218763   6.128   1.597   7.769  1.4181  0.2222  1.9908
 5121SOL     OW18764   5.881   5.113   8.327  0.4070  0.0590 -0.1217
 5121SOL    HW118765   5.894   5.022   8.356  2.3254  0.5129  0.5968
 5121SOL    HW218766   5.967   5.154   8.338 -0.2542  1.7998 -1.0726
 5122SOL     OW18767   5.885   1.221   7.466 -0.1042 -0.7823  0.4547
 5122SOL    HW118768   5.932   1.163   7.406 -0.2623 -0.3261 -0.1098
 5122SOL    HW218769   5.818   1.262   7.413  0.5266  0.5405  0.6513
 5123SOL     OW18770   9.035   1.702   1.676 -0.0078  0.3079 -0.1245
 5123SOL    HW118771   9.049   1.678   1.768  0.0498  0.5346 -0.0742
 5123SOL    HW218772   9.034   1.798   1.676  1.4115  0.3456 -0.5686
 5124SOL     OW18773   3.519   4.940   2.145 -0.1512  0.3523  0.1847
 5124SOL    HW118774   3.592   4.980   2.193 -0.0438  0.0391  0.2815
 5124SOL    HW218775   3.556   4.861   2.107 -0.6050 -0.1608  0.7828
 5125SOL     OW18776   4.296   0.472  10.678  0.1933 -0.3066 -0.3069
 5125SOL    HW118777   4.237   0.540  10.645 -0.9999 -0.9638  0.3644
 5125SOL    HW218778   4.239   0.415  10.729  1.7331  0.0655  1.9926
 5126SOL     OW18779   4.998   3.890   3.283 -0.0046  0.1292  0.4969
 5126SOL    HW118780   5.076   3.939   3.310 -0.7417  0.7893  1.4844
 5126SOL    HW218781   5.023   3.798   3.293  0.9498  0.3017 -0.1133
 5127SOL     OW18782   9.681   1.651   0.380 -0.8355 -0.0823  0.0444
 5127SOL    HW118783   9.620   1.721   0.356  0.5607  0.8258 -1.0116
 5127SOL    HW218784   9.768   1.689   0.367  0.0073 -2.4398 -1.9710
 5128SOL     OW18785   6.913   8.025   8.632  0.4768  0.0982  0.1685
 5128SOL    HW118786   6.820   8.002   8.641  0.3822 -0.2915 -1.5937
 5128SOL    HW218787   6.959   7.943   8.650  0.4382  0.0579  0.0830
 5129SOL     OW18788   5.794   4.220  10.369 -0.5507 -0.0647  0.0182
 5129SOL    HW118789   5.798   4.207  10.275  0.6281  0.0345  0.0394
 5129SOL    HW218790   5.747   4.143  10.402  1.5000 -1.5723 -0.3890
 5130SOL     OW18791   3.829   9.595   7.983  0.3613 -0.3355  0.7812
 5130SOL    HW118792   3.858   9.599   8.074 -1.8123 -0.6939  1.5294
 5130SOL    HW218793   3.791   9.681   7.966  1.1451 -0.1206  0.0439
 5131SOL     OW18794   3.750   4.682   1.390 -0.4356 -0.0669  0.1147
 5131SOL    HW118795   3.684   4.740   1.429  0.9096  1.0783  0.7835
 5131SOL    HW218796   3.735   4.688   1.296 -1.3722  0.0520  0.2625
 5132SOL     OW18797   0.181   5.957   5.640  0.6287  0.4469 -0.4896
 5132SOL    HW118798   0.163   6.050   5.651  1.2792  0.7239 -1.6122
 5132SOL    HW218799   0.251   5.954   5.575 -2.1454 -0.9193 -3.7671
 5133SOL     OW18800   4.821   5.411   6.877 -0.1987  0.1558  0.0681
 5133SOL    HW118801   4.821   5.366   6.792  0.6764 -1.2222  0.7626
 5133SOL    HW218802   4.736   5.456   6.880 -0.9368 -1.1100 -0.8513
 5134SOL     OW18803   9.644   1.180   6.803  0.3162  0.2175 -0.4130
 5134SOL    HW118804   9.735   1.203   6.785  1.0429 -2.2900 -0.2936
 5134SOL    HW218805   9.622   1.115   6.736 -1.2901  0.5316 -0.2326
 5135SOL     OW18806   7.181   8.810   4.552 -0.4731 -0.0492  0.5117
 5135SOL    HW118807   7.222   8.729   4.579  0.6207  0.1866 -0.3622
 5135SOL    HW218808   7.248   8.877   4.565 -1.1641  0.6299  0.6884
 5136SOL     OW18809  10.075   6.725   5.276  0.1978  0.2448  0.4455
 5136SOL    HW118810  10.072   6.656   5.343 -0.3999 -0.9690 -0.7789
 5136SOL    HW218811  10.000   6.706   5.219  1.7784  0.0852 -1.6859
 5137SOL     OW18812   3.964   7.499   3.134  0.7561 -0.2384  0.0750
 5137SOL    HW118813   3.960   7.462   3.046 -1.7782  0.6634 -0.2521
 5137SOL    HW218814   3.931   7.430   3.191 -1.0656  0.3877 -0.1680
 5138SOL     OW18815   6.293   9.327   3.574  0.2144  0.0147  0.0853
 5138SOL    HW118816   6.206   9.364   3.588  0.0008 -0.4805  0.0851
 5138SOL    HW218817   6.353   9.400   3.590 -0.0798 -0.1623  2.1861
 5139SOL     OW18818   5.314   7.094   1.956  0.3223  1.0820  0.0670
 5139SOL    HW118819   5.256   7.035   2.004  1.3387 -0.3570 -0.3968
 5139SOL    HW218820   5.280   7.181   1.974 -1.1324  0.3757  0.9232
 5140SOL     OW18821   2.584   7.723   8.084 -0.1332 -0.0821  0.2495
 5140SOL    HW118822   2.587   7.800   8.140 -2.7999  0.2899  0.0390
 5140SOL    HW218823   2.534   7.658   8.135 -0.1055 -0.7534 -0.5516
 5141SOL     OW18824   4.589   1.215   7.584  0.2644 -0.0982 -0.3376
 5141SOL    HW118825   4.506   1.262   7.594  0.0390 -0.4780 -0.3829
 5141SOL    HW218826   4.652   1.266   7.634  0.1691  0.6064 -0.9077
 5142SOL     OW18827   0.477   5.119   0.893  0.2159  0.4055 -0.5291
 5142SOL    HW118828   0.535   5.128   0.817 -0.3459 -0.4159 -1.0623
 5142SOL    HW218829   0.409   5.057   0.865  0.4933 -0.6096  0.9249
 5143SOL     OW18830   9.743   7.748   1.164 -0.8278  0.2301 -0.1389
 5143SOL    HW118831   9.731   7.739   1.259  0.5234  0.0995  0.0349
 5143SOL    HW218832   9.677   7.690   1.126  0.0333 -1.4331  0.7666
 5144SOL     OW18833   8.005   8.834   9.634 -0.5330 -0.1886 -0.4772
 5144SOL    HW118834   8.006   8.905   9.698 -3.3161 -0.8873  0.4815
 5144SOL    HW218835   7.914   8.830   9.605 -0.0363 -2.1272 -1.9332
 5145SOL     OW18836   9.413   3.439   9.990  0.3574 -0.4454 -0.1708
 5145SOL    HW118837   9.389   3.407   9.903 -0.6601 -0.0921 -0.0328
 5145SOL    HW218838   9.408   3.534   9.983  0.6750 -0.4019  0.1664
 5146SOL     OW18839  10.565   7.265   2.751  0.7288 -0.1767  0.3121
 5146SOL    HW118840  10.546   7.172   2.741  3.2512 -0.7893  0.6491
 5146SOL    HW218841  10.621   7.286   2.676 -1.0558  1.5087 -0.6437
 5147SOL     OW18842   4.792   6.531   0.081  0.0831 -0.1590  0.1450
 5147SOL    HW118843   4.715   6.492   0.121  0.2455 -0.0489  0.5735
 5147SOL    HW218844   4.805   6.613   0.129  0.6132 -0.2981  0.2523
 5148SOL     OW18845   0.916   9.487   4.408  0.1695 -0.6674  0.0163
 5148SOL    HW118846   0.840   9.527   4.450 -1.0325 -1.2897 -1.4931
 5148SOL    HW218847   0.920   9.398   4.443  0.6601 -0.4087  0.6377
 5149SOL     OW18848   0.105   9.571   1.721 -0.3116 -0.0290  0.2120
 5149SOL    HW118849   0.065   9.490   1.690 -1.4680 -0.3171  2.3578
 5149SOL    HW218850   0.162   9.545   1.793  1.6517  0.7527 -0.9332
 5150SOL     OW18851   4.732   7.298  10.699  0.0811  0.0192  0.1854
 5150SOL    HW118852   4.639   7.294  10.722 -0.2878  1.8177 -0.7794
 5150SOL    HW218853   4.741   7.241  10.623 -0.2847  0.0172  0.1421
 5151SOL     OW18854   8.735  10.554   2.281 -0.0266  0.6538  0.1058
 5151SOL    HW118855   8.820  10.546   2.236 -0.3780  1.4149 -0.7450
 5151SOL    HW218856   8.687  10.619   2.229 -0.9565  0.5888  0.8516
 5152SOL     OW18857   0.090   3.883   3.930  0.3158  0.2748  0.7761
 5152SOL    HW118858   0.041   3.894   3.849 -0.5673  1.2106  1.4078
 5152SOL    HW218859   0.182   3.877   3.903 -0.0946 -1.0977 -0.3934
 5153SOL     OW18860   9.679   2.430   7.973  0.2593 -0.0874 -0.0062
 5153SOL    HW118861   9.586   2.446   7.961  0.2758 -0.8924 -1.3633
 5153SOL    HW218862   9.701   2.363   7.909  1.0267 -2.6482  2.6911
 5154SOL     OW18863   7.515  10.053   5.567  0.6627 -0.5244  0.0009
 5154SOL    HW118864   7.481  10.000   5.494  0.5190  2.2274 -2.1018
 5154SOL    HW218865   7.437  10.082   5.614  0.5298  0.0119 -0.5294
 5155SOL     OW18866   7.881   9.094   2.926  0.0958 -0.2008  0.6298
 5155SOL    HW118867   7.822   9.060   2.858  0.6846 -1.2325  0.6249
 5155SOL    HW218868   7.847   9.182   2.945 -1.0943 -0.5488  0.2082
 5156SOL     OW18869   2.542  10.210   5.301 -0.2370  0.3311 -0.4736
 5156SOL    HW118870   2.499  10.178   5.222 -0.7477 -3.9604  1.2860
 5156SOL    HW218871   2.471  10.224   5.363  0.4295 -1.1220  0.6608
 5157SOL     OW18872   2.221  10.891   0.620  0.7488  0.3842 -0.2385
 5157SOL    HW118873   2.264  10.864   0.702  0.3890  0.4868 -0.0125
 5157SOL    HW218874   2.281  10.863   0.551  0.7390 -0.3346  0.0283
 5158SOL     OW18875   9.342   4.427   3.476  0.3187  0.0607  0.1092
 5158SOL    HW118876   9.412   4.364   3.458  0.5637  0.7998 -1.6886
 5158SOL    HW218877   9.379   4.484   3.543  1.0997 -0.1044 -0.1674
 5159SOL     OW18878  10.171   0.683   0.673  0.0970  0.0497  0.5919
 5159SOL    HW118879  10.186   0.589   0.677 -1.4357 -0.1769  1.7680
 5159SOL    HW218880  10.077   0.692   0.662  0.3365  1.4531 -0.6817
 5160SOL     OW18881   7.841   3.086   7.015 -0.6974 -0.9849  0.0374
 5160SOL    HW118882   7.866   3.110   6.925  0.0150 -1.1348  0.1927
 5160SOL    HW218883   7.924   3.072   7.060 -1.0489 -0.7683  0.7632
 5161SOL     OW18884   8.455  10.177   6.614  0.2422  0.6651  0.0170
 5161SOL    HW118885   8.456  10.131   6.531 -0.3526  1.5230 -0.4793
 5161SOL    HW218886   8.502  10.119   6.674  0.0920 -0.2660 -0.7448
 5162SOL     OW18887   5.469   7.730   6.249  0.0140  0.5669  0.0447
 5162SOL    HW118888   5.502   7.700   6.334  2.2282  1.1415 -0.5362
 5162SOL    HW218889   5.459   7.650   6.197 -0.9836  0.2485  0.7040
 5163SOL     OW18890  10.482  10.379   3.539  0.4635  0.0364  0.0299
 5163SOL    HW118891  10.535  10.300   3.531 -0.1455 -0.3647 -0.1291
 5163SOL    HW218892  10.530  10.434   3.601  1.3325 -0.0885 -0.5158
 5164SOL     OW18893  10.919   9.191   3.430  0.0749  0.3706 -0.2483
 5164SOL    HW118894  10.853   9.142   3.480  1.1463 -1.4201 -0.5054
 5164SOL    HW218895  10.990   9.129   3.417  3.2277  3.0232  2.5789
 5165SOL     OW18896   7.132  10.188   0.829  0.1443 -0.7995  0.1738
 5165SOL    HW118897   7.194  10.187   0.756 -1.2671  1.5888 -1.1679
 5165SOL    HW218898   7.053  10.148   0.795 -0.4778  0.1857  0.4144
 5166SOL     OW18899   1.017   3.160   5.160 -0.2204 -0.1775  0.1727
 5166SOL    HW118900   1.086   3.118   5.110  0.4410  1.2595 -0.1708
 5166SOL    HW218901   0.952   3.091   5.174  1.8566 -1.9777  1.7313
 5167SOL     OW18902   0.761   0.692   5.529  0.1778  0.2166 -0.1409
 5167SOL    HW118903   0.677   0.663   5.564  0.6890 -1.4393 -0.2053
 5167SOL    HW218904   0.788   0.763   5.587 -2.5569  2.8274 -1.7709
 5168SOL     OW18905   6.451   6.784   2.577  0.5854  0.1413 -0.6272
 5168SOL    HW118906   6.533   6.779   2.626  1.9474  2.2641 -2.5090
 5168SOL    HW218907   6.416   6.871   2.598  0.0836  0.2146 -1.6878
 5169SOL     OW18908   9.959   5.860   3.439  0.6867  0.2295 -0.2186
 5169SOL    HW118909   9.895   5.792   3.459 -0.3710  1.1199 -0.5384
 5169SOL    HW218910  10.035   5.812   3.406  0.5639 -0.9005  1.0778
 5170SOL     OW18911   8.196   5.679   9.015 -0.6762  0.1175 -0.4110
 5170SOL    HW118912   8.194   5.600   8.962  1.4777  0.1144 -0.5790
 5170SOL    HW218913   8.229   5.747   8.956 -0.1288  0.5492  0.3681
 5171SOL     OW18914   2.253   7.003   2.543 -0.0855 -0.3209 -0.1079
 5171SOL    HW118915   2.184   6.960   2.491 -0.3907  0.5309 -0.4224
 5171SOL    HW218916   2.222   7.093   2.554  0.5878 -0.1547  0.4714
 5172SOL     OW18917   0.942   5.421   2.320 -0.2858  0.2075 -0.3956
 5172SOL    HW118918   0.928   5.468   2.238  0.8240 -0.1552 -0.8084
 5172SOL    HW218919   0.964   5.489   2.383  1.1917  0.3019 -0.9581
 5173SOL     OW18920   6.504   0.636   7.698  0.0421  1.1798 -0.1572
 5173SOL    HW118921   6.524   0.637   7.792 -0.5715  0.1374 -0.0011
 5173SOL    HW218922   6.580   0.676   7.657  0.3495  1.5818  0.7844
 5174SOL     OW18923  10.863   4.058   8.720 -0.0279 -1.1663  0.4022
 5174SOL    HW118924  10.837   4.149   8.710 -0.1259 -1.2227  0.1350
 5174SOL    HW218925  10.885   4.029   8.631  0.5216 -1.2473  0.5581
 5175SOL     OW18926   5.330   6.206   5.421  0.2133  0.9641 -0.2388
 5175SOL    HW118927   5.236   6.197   5.402  0.0841 -0.8138  0.9989
 5175SOL    HW218928   5.366   6.246   5.342 -1.3471  0.1456 -1.4395
 5176SOL     OW18929   2.760   7.310  10.375  0.0967  0.3889 -0.1156
 5176SOL    HW118930   2.746   7.396  10.415  2.5180  0.4201  0.7814
 5176SOL    HW218931   2.779   7.329  10.283  0.2911  0.7652  0.0030
 5177SOL     OW18932   6.716   1.465   2.231 -0.0890 -0.1379  0.6880
 5177SOL    HW118933   6.658   1.531   2.193  1.0584 -1.2747 -3.5904
 5177SOL    HW218934   6.781   1.516   2.281  0.3907  2.0447 -1.9053
 5178SOL     OW18935   6.409   3.173   0.621  0.0018 -0.3045  0.1294
 5178SOL    HW118936   6.403   3.088   0.666  2.3060 -2.0338 -2.5052
 5178SOL    HW218937   6.348   3.166   0.548  0.8667 -0.0994 -0.6293
 5179SOL     OW18938   4.297   4.260   8.388  0.0678  0.3229  0.6955
 5179SOL    HW118939   4.378   4.221   8.424 -0.2645 -1.1791 -0.1044
 5179SOL    HW218940   4.238   4.266   8.463  0.5370  0.3858  1.0653
 5180SOL     OW18941   5.485   7.192   1.104  0.1773 -0.1589  0.0576
 5180SOL    HW118942   5.565   7.213   1.152 -0.4464 -1.8018  1.9448
 5180SOL    HW218943   5.414   7.214   1.165 -0.7250 -0.5727 -0.8221
 5181SOL     OW18944   4.706   8.805   9.310  0.1875 -0.3420  0.4790
 5181SOL    HW118945   4.653   8.805   9.390  0.8840  1.7020  0.9947
 5181SOL    HW218946   4.645   8.779   9.241 -0.3941 -2.2662  1.6459
 5182SOL     OW18947  10.646   8.621   2.150 -0.6011 -0.6594  0.2659
 5182SOL    HW118948  10.709   8.669   2.204 -1.4450 -0.2635  0.9186
 5182SOL    HW218949  10.697   8.551   2.110  0.5042  0.3635 -0.1624
 5183SOL     OW18950  10.556   9.384   9.360 -0.5392  0.2326  0.4392
 5183SOL    HW118951  10.618   9.433   9.306 -1.0050  0.7865  0.3952
 5183SOL    HW218952  10.610   9.323   9.410 -0.2227 -1.8735 -2.2347
 5184SOL     OW18953   2.186   4.231   1.479 -0.0467 -0.3655  0.0616
 5184SOL    HW118954   2.248   4.158   1.475  1.2667  0.7373 -1.2380
 5184SOL    HW218955   2.176   4.258   1.387  1.0545  2.3005  0.6379
 5185SOL     OW18956   3.788   1.786   7.898  0.5752 -0.1546 -0.2243
 5185SOL    HW118957   3.718   1.721   7.902 -2.3367  2.7593  0.2781
 5185SOL    HW218958   3.796   1.819   7.987  0.6070  1.4561 -0.7872
 5186SOL     OW18959   3.787   3.782   3.821 -0.3761  0.4665 -0.0544
 5186SOL    HW118960   3.780   3.875   3.800 -0.9567  0.6948  1.0647
 5186SOL    HW218961   3.868   3.776   3.873 -0.8863  0.5451  0.7751
 5187SOL     OW18962   7.578   4.794   9.589 -0.0964 -0.4776  0.6695
 5187SOL    HW118963   7.559   4.887   9.581 -0.9588 -0.6873  0.2135
 5187SOL    HW218964   7.508   4.750   9.540  1.3554 -1.2821 -0.8001
 5188SOL     OW18965   6.848   9.556   8.081  0.0941 -0.2897  0.4242
 5188SOL    HW118966   6.886   9.574   7.995 -0.9155 -0.7687 -0.1396
 5188SOL    HW218967   6.771   9.502   8.062 -0.5312  0.1733  1.5766
 5189SOL     OW18968  10.710   1.641   4.131  0.9336 -0.0440 -0.2962
 5189SOL    HW118969  10.617   1.655   4.115  1.3755  3.3992 -0.6743
 5189SOL    HW218970  10.720   1.546   4.135 -2.3419 -0.5750 -1.6196
 5190SOL     OW18971   5.869   6.902   3.330 -0.4044  0.1893 -0.0000
 5190SOL    HW118972   5.839   6.984   3.290  0.9178  0.6445 -0.1220
 5190SOL    HW218973   5.906   6.930   3.414 -1.2198 -0.4816  0.5933
 5191SOL     OW18974   0.984   4.254   4.875 -0.1755 -0.0333 -0.0907
 5191SOL    HW118975   1.044   4.187   4.907 -1.7016 -1.8593 -0.8527
 5191SOL    HW218976   1.034   4.335   4.878  2.3718 -1.4806 -0.8261
 5192SOL     OW18977   5.668   7.458   4.892  0.9517  0.4039  0.4000
 5192SOL    HW118978   5.657   7.416   4.978 -1.8537 -0.8711 -0.4372
 5192SOL    HW218979   5.673   7.551   4.912 -2.0008  0.3797  1.9818
 5193SOL     OW18980   0.618   1.551   0.723  0.2989 -0.5024  0.2341
 5193SOL    HW118981   0.565   1.558   0.643  0.4938 -2.2375 -0.0908
 5193SOL    HW218982   0.647   1.640   0.741 -0.5722  0.0713 -1.0741
 5194SOL     OW18983   3.820   0.366   5.285 -0.0346  0.8111 -0.0913
 5194SOL    HW118984   3.766   0.352   5.363  1.1322 -0.7234  0.4808
 5194SOL    HW218985   3.778   0.312   5.217  0.0679  0.5841  0.0233
 5195SOL     OW18986   8.824   0.564   1.762  0.2089  0.1207 -0.2360
 5195SOL    HW118987   8.826   0.528   1.851  0.1653  0.2809 -0.1693
 5195SOL    HW218988   8.906   0.611   1.754  0.3172 -0.0877 -0.3641
 5196SOL     OW18989   4.891   0.490   1.143 -0.5066  0.6305 -0.1893
 5196SOL    HW118990   4.928   0.402   1.143 -2.1507 -0.1073  0.7130
 5196SOL    HW218991   4.851   0.499   1.056 -1.1926  0.0715  0.0529
 5197SOL     OW18992   6.950   5.651   0.384  0.4936 -0.0138 -0.8065
 5197SOL    HW118993   6.923   5.560   0.396 -2.3334  1.1064  3.3858
 5197SOL    HW218994   7.028   5.661   0.439 -0.0347  0.3983 -0.1235
 5198SOL     OW18995  10.002   3.730   8.900  0.1611  0.2556 -0.3701
 5198SOL    HW118996   9.917   3.717   8.859 -0.1488  0.3547  0.2241
 5198SOL    HW218997  10.064   3.686   8.842 -0.2228  0.6655 -1.0991
 5199SOL     OW18998   6.121  10.213   5.386  0.1605 -0.3594 -0.4692
 5199SOL    HW118999   6.109  10.305   5.411 -1.6755  0.1742 -2.9251
 5199SOL    HW219000   6.074  10.164   5.453  0.3862  0.5571  0.3855
 5200SOL     OW19001   6.361   1.461   1.711 -0.5930 -0.1088 -0.1646
 5200SOL    HW119002   6.428   1.500   1.768 -1.0982 -0.2072  0.5125
 5200SOL    HW219003   6.294   1.528   1.704  0.0953  0.4557 -1.8221
 5201SOL     OW19004   3.770   2.151   2.545  0.2190  0.5369 -0.5506
 5201SOL    HW119005   3.850   2.170   2.496 -0.3084  0.6570 -1.3838
 5201SOL    HW219006   3.760   2.056   2.538 -0.0710  0.6019 -1.0145
 5202SOL     OW19007   9.697   7.944   3.445 -0.0012 -0.5341 -0.0407
 5202SOL    HW119008   9.642   7.932   3.368 -1.3518 -0.2540  0.8430
 5202SOL    HW219009   9.707   8.039   3.453  1.5411 -0.6009 -0.8005
 5203SOL     OW19010   5.168  10.327  10.390 -0.3884  0.0330  0.2482
 5203SOL    HW119011   5.206  10.244  10.362  0.5557 -0.0474  1.6466
 5203SOL    HW219012   5.244  10.384  10.406 -0.9748  0.7659  0.4906
 5204SOL     OW19013   2.545   7.061   9.040 -0.1565  0.3172  0.1629
 5204SOL    HW119014   2.500   6.993   9.091 -0.3793  0.7100  0.4989
 5204SOL    HW219015   2.540   7.139   9.095  1.1726  0.3028  0.3199
 5205SOL     OW19016   7.165   2.227   7.650  0.6800  0.5511 -0.4489
 5205SOL    HW119017   7.202   2.315   7.647 -0.3054  1.1135  1.7762
 5205SOL    HW219018   7.242   2.169   7.653  1.3361  1.2668 -2.3309
 5206SOL     OW19019   5.859   3.399   2.400  0.3571 -0.0837  0.0533
 5206SOL    HW119020   5.790   3.452   2.360  1.1681  1.9014  1.1435
 5206SOL    HW219021   5.813   3.323   2.435 -1.0953  0.5806 -0.3132
 5207SOL     OW19022   5.252   3.766   6.811 -0.2076  0.3281  0.5909
 5207SOL    HW119023   5.189   3.838   6.813 -1.6971 -0.9356  1.1949
 5207SOL    HW219024   5.327   3.802   6.765 -1.5468  1.7634 -0.6091
 5208SOL     OW19025   9.873   7.295  10.499 -0.2333 -0.6374 -0.3477
 5208SOL    HW119026   9.788   7.282  10.542 -0.4961 -0.6473 -0.8661
 5208SOL    HW219027   9.934   7.310  10.571 -0.4922 -1.6222  0.0957
 5209SOL     OW19028   9.365   8.536   8.139  0.1481  0.0052 -0.5319
 5209SOL    HW119029   9.299   8.549   8.208  0.6527  1.3752 -0.2697
 5209SOL    HW219030   9.386   8.443   8.143 -1.3880 -0.3618 -0.2767
 5210SOL     OW19031   4.373   8.641  10.555 -0.1944 -0.1876  0.0321
 5210SOL    HW119032   4.389   8.602  10.469 -2.6527  0.8127 -0.9783
 5210SOL    HW219033   4.383   8.735  10.541  0.7293 -0.0864  1.2055
 5211SOL     OW19034  10.455   6.238   3.847  0.4799 -0.4070  0.2796
 5211SOL    HW119035  10.397   6.221   3.921  0.9955  1.2339  1.1006
 5211SOL    HW219036  10.432   6.327   3.819  2.9567  0.5315  1.0200
 5212SOL     OW19037   1.327   5.228   6.491  0.4779  0.3885  0.2769
 5212SOL    HW119038   1.394   5.264   6.433  0.4779 -0.6220 -0.3711
 5212SOL    HW219039   1.294   5.304   6.540  1.5757  1.0037  0.0792
 5213SOL     OW19040   0.176   9.856   8.504 -0.1351  0.3829 -0.2494
 5213SOL    HW119041   0.105   9.914   8.531 -1.6483 -1.9599  1.1454
 5213SOL    HW219042   0.133   9.791   8.449  1.5453  0.6183 -1.9105
 5214SOL     OW19043  10.177   8.786   8.197  0.3963 -0.3339 -0.2875
 5214SOL    HW119044  10.251   8.828   8.154  0.8656 -1.3099 -0.4638
 5214SOL    HW219045  10.135   8.735   8.127  1.1429 -1.9036  0.3500
 5215SOL     OW19046  10.545   2.283   8.136  0.1474 -0.1006  0.0272
 5215SOL    HW119047  10.622   2.326   8.174 -0.3196  0.6251  0.1784
 5215SOL    HW219048  10.471   2.319   8.184 -0.2091 -1.9879  0.9830
 5216SOL     OW19049   8.728   0.554   6.409 -0.1964  0.1209  1.0630
 5216SOL    HW119050   8.809   0.519   6.447  0.3567  0.8165  0.5547
 5216SOL    HW219051   8.757   0.610   6.338 -1.1443  0.2675  0.7726
 5217SOL     OW19052   5.464   8.394   5.042  0.0563 -0.2075  0.0482
 5217SOL    HW119053   5.389   8.348   5.081 -1.0417  1.9926  0.6734
 5217SOL    HW219054   5.494   8.452   5.111 -0.0390  1.6223 -1.3859
 5218SOL     OW19055   3.389   6.628   5.281  0.2906  0.3362  0.2848
 5218SOL    HW119056   3.307   6.579   5.272  0.4496  0.2076 -0.5439
 5218SOL    HW219057   3.418   6.610   5.371 -0.3692  0.0439  0.4452
 5219SOL     OW19058   3.123   8.422   4.885 -0.6146  0.1810  0.0791
 5219SOL    HW119059   3.188   8.360   4.853 -0.8535  0.1721 -0.3909
 5219SOL    HW219060   3.054   8.367   4.924 -0.5549  0.1725  0.1724
 5220SOL     OW19061   6.930   7.976   0.675 -0.0063 -0.2080  0.3735
 5220SOL    HW119062   6.924   7.926   0.594 -1.0822  0.4868 -0.0094
 5220SOL    HW219063   6.972   7.917   0.738 -0.8856 -1.4329 -0.1576
 5221SOL     OW19064   7.991   5.920   2.751 -0.0324 -0.3177  0.1289
 5221SOL    HW119065   7.953   5.993   2.704 -1.0422 -1.1890 -0.4276
 5221SOL    HW219066   8.036   5.961   2.825 -0.6420  0.8567 -0.1243
 5222SOL     OW19067   7.724   8.893   8.671  0.0551 -0.0044 -0.3458
 5222SOL    HW119068   7.801   8.837   8.661  0.4372  0.3011  0.7186
 5222SOL    HW219069   7.655   8.848   8.623  0.5749 -0.9411 -0.2430
 5223SOL     OW19070   7.438   0.944   3.658  0.1544  0.1601 -0.8187
 5223SOL    HW119071   7.472   0.857   3.637  2.2894  0.6905  0.1111
 5223SOL    HW219072   7.363   0.927   3.715  0.5032 -1.0794 -0.6925
 5224SOL     OW19073   7.350   5.152   1.813 -0.1133 -0.4156 -0.0878
 5224SOL    HW119074   7.411   5.201   1.757  0.0667 -3.3248 -2.7778
 5224SOL    HW219075   7.400   5.134   1.892  0.8990  1.0006 -0.3562
 5225SOL     OW19076   6.884   0.415   1.842 -0.2881  0.3720 -0.3528
 5225SOL    HW119077   6.901   0.496   1.794  0.1716  1.4293  1.4978
 5225SOL    HW219078   6.792   0.396   1.826 -0.3359  1.1248 -1.0211
 5226SOL     OW19079   6.695   6.616   8.933  0.2235  0.0388 -0.6176
 5226SOL    HW119080   6.724   6.576   8.851 -1.3877 -1.2792 -0.5988
 5226SOL    HW219081   6.649   6.696   8.905 -0.6601 -0.6065 -1.0540
 5227SOL     OW19082   9.723   8.274   0.611 -0.6152  0.3482  0.5195
 5227SOL    HW119083   9.819   8.270   0.610 -0.6556 -1.8337 -0.2656
 5227SOL    HW219084   9.700   8.262   0.703 -0.1328 -1.1664  0.4757
 5228SOL     OW19085  10.863   6.643   8.394 -0.3778 -0.1046  0.5174
 5228SOL    HW119086  10.878   6.670   8.303  0.9315 -0.1789  0.6890
 5228SOL    HW219087  10.884   6.549   8.394 -0.5216 -0.1349  0.8627
 5229SOL     OW19088  10.256   4.460   9.556 -0.2735 -0.3623 -0.0743
 5229SOL    HW119089  10.347   4.443   9.530 -1.0164 -0.8370 -2.5964
 5229SOL    HW219090  10.260   4.542   9.605  1.2972  0.5011 -1.5547
 5230SOL     OW19091   0.608   4.386   2.398  0.3824  0.0789 -0.1052
 5230SOL    HW119092   0.557   4.425   2.469 -0.0753  0.3510 -0.5744
 5230SOL    HW219093   0.672   4.331   2.442 -1.1852 -1.3658  0.4930
 5231SOL     OW19094   6.363   8.692   4.935 -0.1825 -0.4981 -0.2010
 5231SOL    HW119095   6.365   8.784   4.961 -0.4859 -0.5933  0.1718
 5231SOL    HW219096   6.379   8.694   4.841 -1.5133  0.0454 -0.4431
 5232SOL     OW19097  10.326   8.119   5.891 -0.0828 -0.0135  0.2795
 5232SOL    HW119098  10.275   8.084   5.818 -3.6389  0.9275  2.0977
 5232SOL    HW219099  10.320   8.052   5.959 -0.8982  1.0643  1.3120
 5233SOL     OW19100   0.465   3.131   9.023 -0.6062  0.4955  1.0053
 5233SOL    HW119101   0.412   3.155   8.947 -0.2398 -0.6421  0.3782
 5233SOL    HW219102   0.536   3.078   8.988  0.1702  0.8342  2.0158
 5234SOL     OW19103   5.460   2.513   6.056  0.1184 -0.3679 -0.0784
 5234SOL    HW119104   5.554   2.499   6.052  0.1010 -0.9534  1.1059
 5234SOL    HW219105   5.442   2.535   6.148 -0.8640 -0.0057 -0.3384
 5235SOL     OW19106   3.073   3.537   3.698 -0.1610 -0.1295 -0.2830
 5235SOL    HW119107   3.075   3.535   3.794  1.4298 -1.4188 -0.2925
 5235SOL    HW219108   3.109   3.622   3.674 -0.6297  0.2259  0.2614
 5236SOL     OW19109   4.182   6.245  10.510 -0.1850  0.1298  0.1053
 5236SOL    HW119110   4.134   6.199  10.441  0.1130  0.1956 -0.1458
 5236SOL    HW219111   4.231   6.176  10.555  1.7693  0.4055 -1.4676
 5237SOL     OW19112   5.323  10.406   6.081  0.2155  0.4461  0.1018
 5237SOL    HW119113   5.282  10.493   6.080  2.8833  1.8936  2.4870
 5237SOL    HW219114   5.355  10.394   5.991 -0.7124  1.6074 -0.4192
 5238SOL     OW19115   5.735   5.498   3.125  0.0661  0.3458  0.0867
 5238SOL    HW119116   5.701   5.536   3.044  0.7751  0.8894  0.0280
 5238SOL    HW219117   5.686   5.542   3.194 -0.2327  0.2019 -0.0312
 5239SOL     OW19118   7.730   0.042   7.566  0.1975 -0.1419 -0.1019
 5239SOL    HW119119   7.802  -0.002   7.521  0.3684  0.1577 -0.1254
 5239SOL    HW219120   7.773   0.103   7.625 -0.0119 -0.9632  0.9227
 5240SOL     OW19121   4.815   8.740   5.855 -0.0404 -0.4420 -0.2240
 5240SOL    HW119122   4.882   8.675   5.833  0.0719 -0.8452  1.2611
 5240SOL    HW219123   4.776   8.709   5.937 -1.7097  0.0573 -0.7773
 5241SOL     OW19124   5.319  10.562   5.523  0.0270 -0.4660 -0.0727
 5241SOL    HW119125   5.383  10.632   5.513  0.1117 -0.3964  0.8231
 5241SOL    HW219126   5.370  10.488   5.556 -0.4593 -0.1525  1.4873
 5242SOL     OW19127   6.505   1.386   7.327 -0.2483  0.7619  0.0409
 5242SOL    HW119128   6.462   1.466   7.357 -0.5914 -0.0290  1.7437
 5242SOL    HW219129   6.438   1.318   7.334  0.2954  0.1431 -0.5674
 5243SOL     OW19130   8.351   0.066   6.000 -0.1779  0.1426 -0.1752
 5243SOL    HW119131   8.444   0.059   5.980  0.1369 -0.4394  1.3715
 5243SOL    HW219132   8.337   0.159   6.017  0.8694 -0.1173  2.6936
 5244SOL     OW19133   5.343   2.651   5.053 -0.0496  0.2666  0.5440
 5244SOL    HW119134   5.337   2.720   4.987  1.0215  0.4401  0.6132
 5244SOL    HW219135   5.367   2.573   5.004 -0.3033  0.1595  0.5900
 5245SOL     OW19136   1.799   0.096   7.423 -0.1514 -0.0507 -0.7902
 5245SOL    HW119137   1.731   0.153   7.388 -0.7871 -0.2597  0.0828
 5245SOL    HW219138   1.764   0.065   7.506  0.5167 -1.0836 -0.8754
 5246SOL     OW19139   1.553   3.221   4.980  0.2124 -0.3043  0.3352
 5246SOL    HW119140   1.574   3.289   5.043 -1.8336 -0.4038  1.2106
 5246SOL    HW219141   1.570   3.139   5.027  2.0202 -0.4348 -0.4829
 5247SOL     OW19142   6.829   2.134   9.389 -0.4695 -0.0206 -0.2456
 5247SOL    HW119143   6.902   2.142   9.451 -1.1897 -0.9812  0.7655
 5247SOL    HW219144   6.870   2.106   9.307  0.3323 -0.2377  0.2184
 5248SOL     OW19145   4.069   7.302   2.513 -0.2041 -0.2220 -0.5636
 5248SOL    HW119146   4.123   7.228   2.485  0.1092 -0.2685  0.1490
 5248SOL    HW219147   4.129   7.376   2.520 -0.3228 -0.1475 -0.2803
 5249SOL     OW19148  10.122   5.064  10.911 -0.1194 -0.4298  0.1268
 5249SOL    HW119149  10.171   5.096  10.987 -0.6218  0.0933  0.2364
 5249SOL    HW219150  10.180   5.000  10.871  0.8827  0.5573 -0.0452
 5250SOL     OW19151   5.714   2.681   5.807 -0.9709 -0.2829 -0.0675
 5250SOL    HW119152   5.651   2.748   5.835 -1.5541 -0.3870 -1.0725
 5250SOL    HW219153   5.670   2.635   5.736  0.2375 -0.3734 -0.7882
 5251SOL     OW19154  10.048   1.621   8.025 -0.1513 -0.0801  0.5609
 5251SOL    HW119155  10.057   1.526   8.037 -0.2073 -0.0304  0.9906
 5251SOL    HW219156  10.082   1.659   8.106  0.1875  0.2816  0.2526
 5252SOL     OW19157   3.267   7.357   3.344 -0.3095  0.2032 -0.1963
 5252SOL    HW119158   3.190   7.312   3.311 -0.7119  0.8196 -0.1230
 5252SOL    HW219159   3.255   7.360   3.439  0.0743 -0.1828 -0.1332
 5253SOL     OW19160   5.918   0.964   4.265 -0.2470 -0.1969  0.4631
 5253SOL    HW119161   6.014   0.969   4.259 -0.2042  1.3754  1.9336
 5253SOL    HW219162   5.888   0.992   4.178  0.6029 -0.7457 -0.0281
 5254SOL     OW19163   0.360   5.277   6.532 -0.8808 -0.8054 -0.0528
 5254SOL    HW119164   0.307   5.354   6.552 -0.3647  0.2346 -2.3861
 5254SOL    HW219165   0.297   5.207   6.519 -1.3910 -0.6719  1.4344
 5255SOL     OW19166  10.846   3.733   5.772  0.9313  0.1753 -0.0419
 5255SOL    HW119167  10.864   3.809   5.827  1.1772  0.1055 -0.0208
 5255SOL    HW219168  10.921   3.729   5.712  1.3053 -0.4904  0.4505
 5256SOL     OW19169   9.751   7.284   4.765  0.0895  0.1318 -0.0426
 5256SOL    HW119170   9.832   7.333   4.748 -0.4073  0.8696 -0.3645
 5256SOL    HW219171   9.697   7.345   4.815  0.3219 -0.9120  1.5494
 5257SOL     OW19172   1.758   0.639   0.648  0.4065 -0.2693  0.1448
 5257SOL    HW119173   1.816   0.671   0.717  0.3606 -0.4273  0.2574
 5257SOL    HW219174   1.799   0.669   0.567  0.4484 -0.0623  0.2416
 5258SOL     OW19175   6.783   2.931   5.167  0.1462 -0.1535 -0.1745
 5258SOL    HW119176   6.775   3.024   5.190  0.0520 -0.3201  0.4920
 5258SOL    HW219177   6.835   2.893   5.238  0.5277 -0.5357 -0.6502
 5259SOL     OW19178   1.238   5.018   6.812  0.3410  0.0007  0.8868
 5259SOL    HW119179   1.262   4.934   6.851 -0.6948  0.0901  1.7838
 5259SOL    HW219180   1.205   5.069   6.885 -1.6900  0.1767 -0.0806
 5260SOL     OW19181   8.114   8.386   9.025 -0.6180  0.2476  0.7387
 5260SOL    HW119182   8.055   8.320   9.062  0.1428 -1.6141 -1.1765
 5260SOL    HW219183   8.075   8.408   8.941 -0.7446  2.1562  1.2512
 5261SOL     OW19184   6.894   5.576   3.506  0.2330 -0.3676  0.1601
 5261SOL    HW119185   6.855   5.492   3.529 -0.1264  0.1368  1.4926
 5261SOL    HW219186   6.989   5.560   3.507  0.2818 -0.3264  2.4664
 5262SOL     OW19187   8.785   9.827   8.831  0.3096 -0.1860 -0.2747
 5262SOL    HW119188   8.804   9.918   8.809 -0.1388 -0.1338 -0.4468
 5262SOL    HW219189   8.848   9.776   8.780  0.3728  0.0139 -0.3972
 5263SOL     OW19190   1.718   8.116   6.743  0.0839 -0.3904  0.5478
 5263SOL    HW119191   1.763   8.178   6.686 -0.7604 -0.7254 -0.5241
 5263SOL    HW219192   1.756   8.031   6.719 -0.9959 -0.6621 -0.2912
 5264SOL     OW19193   8.624   1.637   6.515 -0.1443  0.0720  0.2526
 5264SOL    HW119194   8.710   1.639   6.557 -0.3656 -1.3923  0.8205
 5264SOL    HW219195   8.582   1.557   6.548  0.0332 -1.7467 -3.4685
 5265SOL     OW19196   1.584   5.806   2.161  0.0724  0.5032  0.2275
 5265SOL    HW119197   1.659   5.750   2.143 -1.1185 -0.9584 -0.3164
 5265SOL    HW219198   1.598   5.883   2.106  0.4455 -0.4018 -0.9755
 5266SOL     OW19199   5.069   2.715   2.108  0.2975  0.3765  0.3851
 5266SOL    HW119200   5.153   2.757   2.130 -0.5332  1.0351  2.5323
 5266SOL    HW219201   5.007   2.788   2.101 -0.5308 -0.2589  0.9428
 5267SOL     OW19202   0.578   5.783   5.783  0.7562  0.1216  0.2437
 5267SOL    HW119203   0.635   5.856   5.807  0.5680 -0.1101  1.5094
 5267SOL    HW219204   0.490   5.812   5.810  0.3662  0.2120 -1.0781
 5268SOL     OW19205   5.471   9.682   4.052 -0.3355 -0.0975  0.1153
 5268SOL    HW119206   5.380   9.679   4.083 -0.4146 -1.2173 -0.1981
 5268SOL    HW219207   5.501   9.591   4.056  0.5810  0.1727 -0.3607
 5269SOL     OW19208  10.093   5.176  10.155  0.2188 -0.1816  0.5206
 5269SOL    HW119209  10.047   5.091  10.159  0.6426 -0.3652  1.7083
 5269SOL    HW219210  10.037   5.236  10.204 -0.9685  0.7029 -1.7435
 5270SOL     OW19211   3.408   9.395   8.106 -0.0561  0.1209 -0.7720
 5270SOL    HW119212   3.488   9.411   8.156  0.0338  1.5261 -1.3241
 5270SOL    HW219213   3.394   9.300   8.113  1.4954 -0.1117 -0.4358
 5271SOL     OW19214   1.123   7.622  10.841  0.0723  0.5222  0.1462
 5271SOL    HW119215   1.057   7.561  10.873  0.3191  0.0525 -0.2140
 5271SOL    HW219216   1.116   7.617  10.745  2.8449 -2.1305 -0.0801
 5272SOL     OW19217   1.295   4.732   9.746  0.4577  0.2754 -0.6301
 5272SOL    HW119218   1.338   4.665   9.692  0.0266 -1.0397  0.5842
 5272SOL    HW219219   1.323   4.713   9.835 -1.9974 -0.1979  0.1245
 5273SOL     OW19220   8.265   0.155   9.016  0.1900  0.0938  0.4222
 5273SOL    HW119221   8.315   0.220   9.066 -0.6261  1.9813 -1.0674
 5273SOL    HW219222   8.186   0.140   9.068  0.1755  0.6657  0.5759
 5274SOL     OW19223  10.301   1.210   9.377 -0.3215  0.2597  0.4657
 5274SOL    HW119224  10.355   1.283   9.408  0.1664  0.1393 -0.0873
 5274SOL    HW219225  10.355   1.132   9.393 -0.4331  0.1139  0.1294
 5275SOL     OW19226   5.476   9.698   5.134  0.0259 -0.1354  0.0539
 5275SOL    HW119227   5.402   9.691   5.073  1.4118 -2.1280 -1.5180
 5275SOL    HW219228   5.435   9.706   5.220 -2.0062  0.2582 -0.8909
 5276SOL     OW19229   5.303   0.951   3.424 -0.3917 -0.4057  0.4994
 5276SOL    HW119230   5.377   1.011   3.415 -0.6420 -0.3687 -1.9415
 5276SOL    HW219231   5.262   0.975   3.507  2.5964 -0.8016  2.2350
 5277SOL     OW19232   2.877   5.780   9.036  0.1049  0.1777 -0.2080
 5277SOL    HW119233   2.930   5.794   9.115 -1.3784  0.1601  0.8368
 5277SOL    HW219234   2.882   5.686   9.019  1.9299  0.4293 -1.2678
 5278SOL     OW19235   4.161   9.720   2.384  0.1477  0.1164 -0.2104
 5278SOL    HW119236   4.100   9.793   2.377 -0.1337  0.5369  3.9449
 5278SOL    HW219237   4.239   9.749   2.338 -0.9951  1.7753 -1.1943
 5279SOL     OW19238   1.273   1.907   4.446 -0.4881 -0.0850  0.1326
 5279SOL    HW119239   1.350   1.959   4.471 -2.0287  2.2461  0.2799
 5279SOL    HW219240   1.202   1.940   4.501 -1.9886 -1.0530 -1.1221
 5280SOL     OW19241   4.295   8.510   2.269 -0.3698 -0.1333 -0.0508
 5280SOL    HW119242   4.276   8.602   2.285 -1.5723  0.1969 -2.7578
 5280SOL    HW219243   4.332   8.478   2.351 -1.1233  2.4176  1.3859
 5281SOL     OW19244  10.677   0.556   4.589 -0.2076 -0.2015  0.2322
 5281SOL    HW119245  10.694   0.650   4.578  0.2679 -0.3757 -0.5946
 5281SOL    HW219246  10.703   0.537   4.679  0.1143  0.3690  0.2626
 5282SOL     OW19247  10.166   7.079   9.121  0.4527 -0.7173 -0.3553
 5282SOL    HW119248  10.084   7.117   9.089  1.1134 -0.3125 -1.6388
 5282SOL    HW219249  10.165   7.096   9.215 -0.3065  0.4981 -0.5583
 5283SOL     OW19250   2.572   5.618   5.284 -0.2310 -0.3302  0.4828
 5283SOL    HW119251   2.563   5.637   5.377  0.1014  0.5379  0.3469
 5283SOL    HW219252   2.638   5.548   5.280  0.5907  0.3984  0.8477
 5284SOL     OW19253   0.672  10.098   3.991  0.1548  0.1884 -0.5262
 5284SOL    HW119254   0.766  10.095   3.977  0.1568  1.8198 -1.1054
 5284SOL    HW219255   0.657  10.048   4.071  1.3685 -0.9973 -1.0166
 5285SOL     OW19256   9.142   3.109  10.591  0.1585 -0.1503 -0.5426
 5285SOL    HW119257   9.133   3.034  10.649 -1.1439  0.5982  0.2766
 5285SOL    HW219258   9.162   3.182  10.649 -0.5342  0.4996 -1.0935
 5286SOL     OW19259   1.143  10.110   4.997  0.5450  0.0939 -0.2378
 5286SOL    HW119260   1.067  10.167   5.005  0.3314 -0.1165 -0.7387
 5286SOL    HW219261   1.183  10.111   5.084  0.4069  0.8099 -0.1756
 5287SOL     OW19262   3.979   6.563   9.580 -0.0296 -0.2592  0.0359
 5287SOL    HW119263   3.967   6.468   9.584 -0.4208 -0.1686  2.5711
 5287SOL    HW219264   3.898   6.596   9.542 -0.3044 -0.8862  0.0759
 5288SOL     OW19265   9.762   0.109   0.074  0.0119 -0.9013  0.2914
 5288SOL    HW119266   9.717   0.192   0.086  0.9087 -0.3917  0.1789
 5288SOL    HW219267   9.728   0.075  -0.009  1.2534  0.4185 -0.8106
 5289SOL     OW19268   5.282   9.995   5.870  0.1482  0.5193 -0.0989
 5289SOL    HW119269   5.215   9.951   5.922  1.0909 -2.0208 -0.8218
 5289SOL    HW219270   5.296  10.079   5.913 -1.5181 -0.0416  1.6760
 5290SOL     OW19271   4.647   0.682   3.364  0.2133  0.5291 -0.7806
 5290SOL    HW119272   4.689   0.654   3.445  2.0732 -1.1956 -2.2392
 5290SOL    HW219273   4.696   0.760   3.337 -0.1150  0.8355 -0.5120
 5291SOL     OW19274   2.811  10.241   6.774  0.1092 -0.0554 -0.2110
 5291SOL    HW119275   2.823  10.317   6.716 -1.1235  1.0114  0.8692
 5291SOL    HW219276   2.781  10.279   6.857 -2.1394 -1.8218 -0.1312
 5292SOL     OW19277   8.782   2.646   2.789 -0.2044  0.8388 -0.1610
 5292SOL    HW119278   8.819   2.733   2.804  2.5096  0.0917 -1.6865
 5292SOL    HW219279   8.837   2.587   2.842  0.1928 -0.2353 -1.6858
 5293SOL     OW19280   6.027  10.717   7.726 -0.1886 -0.3573 -0.4745
 5293SOL    HW119281   5.975  10.796   7.711 -0.4850 -0.5329 -0.3856
 5293SOL    HW219282   6.083  10.710   7.649 -0.4504 -0.2814 -0.6732
 5294SOL     OW19283   2.829   2.139   2.158 -0.0643  0.0940 -0.0613
 5294SOL    HW119284   2.826   2.149   2.253 -0.0276  0.1428 -0.0649
 5294SOL    HW219285   2.919   2.109   2.140  0.3789  1.4329 -0.2010
 5295SOL     OW19286   3.800   3.436   3.862  0.0853 -0.2887  0.6977
 5295SOL    HW119287   3.840   3.516   3.895 -1.0675  0.6895 -0.1698
 5295SOL    HW219288   3.709   3.441   3.893 -0.1673 -0.9421  0.0804
 5296SOL     OW19289   1.833  10.029   4.963  0.9810  0.1575 -0.1923
 5296SOL    HW119290   1.833  10.105   4.905  3.3297  1.9204  1.8638
 5296SOL    HW219291   1.747  10.031   5.005  0.6650  1.1130 -0.8515
 5297SOL     OW19292   3.649   6.366   7.977 -0.1778  0.6743  0.1318
 5297SOL    HW119293   3.709   6.352   8.050  0.3327  2.7515  0.1927
 5297SOL    HW219294   3.659   6.289   7.922  2.9571  1.1251 -0.1069
 5298SOL     OW19295   2.761   5.617   1.560 -0.4990 -0.2176  0.2952
 5298SOL    HW119296   2.702   5.650   1.492  0.2200 -0.9178 -0.7045
 5298SOL    HW219297   2.848   5.645   1.531 -0.2962  0.6128  1.6332
 5299SOL     OW19298   5.539   6.472   8.617  0.4589  0.1765  0.3590
 5299SOL    HW119299   5.460   6.501   8.662  0.8392  1.3941  0.2746
 5299SOL    HW219300   5.511   6.455   8.527 -0.0636 -1.1501  0.7535
 5300SOL     OW19301   6.923   5.940  10.675  0.5357 -0.5521 -0.3868
 5300SOL    HW119302   6.841   5.946  10.625 -0.3299  1.0265  1.1406
 5300SOL    HW219303   6.937   5.846  10.685 -2.5121 -0.9386  1.4742
 5301SOL     OW19304   5.030   4.768   2.358 -0.1065 -0.0797  0.4137
 5301SOL    HW119305   5.123   4.765   2.380 -0.1499  2.8792  1.4454
 5301SOL    HW219306   5.028   4.795   2.266  0.0645  0.1457  0.4744
 5302SOL     OW19307   1.049   7.213   0.095  0.6099  0.3354  0.3395
 5302SOL    HW119308   1.076   7.253   0.177  0.6352  1.8102 -0.3744
 5302SOL    HW219309   1.016   7.126   0.121 -0.2727  1.1300  2.0309
 5303SOL     OW19310   6.065   9.693   0.123 -0.3162  0.1935 -0.1003
 5303SOL    HW119311   6.064   9.698   0.027 -0.9311  3.5947 -0.0348
 5303SOL    HW219312   6.023   9.774   0.152  0.6463 -0.3037  3.0764
 5304SOL     OW19313   9.303   5.745  10.650 -0.4503  0.5414 -0.4526
 5304SOL    HW119314   9.351   5.664  10.669  1.3020  1.7235  0.4932
 5304SOL    HW219315   9.258   5.727  10.567 -2.5605 -2.3742  1.1149
 5305SOL     OW19316   6.378   1.872   3.495 -0.4151  0.8913 -0.3168
 5305SOL    HW119317   6.351   1.814   3.424  0.3316  0.2504 -0.0897
 5305SOL    HW219318   6.309   1.864   3.560  0.2607 -0.6767  0.2318
 5306SOL     OW19319   9.798   0.748   4.271 -0.0851  0.8055  0.2417
 5306SOL    HW119320   9.826   0.838   4.251  0.5432  0.7848  0.9492
 5306SOL    HW219321   9.880   0.699   4.279 -0.4633 -0.1944 -1.6329
 5307SOL     OW19322   9.930   1.154   6.351  0.1506  0.0470  0.0877
 5307SOL    HW119323   9.946   1.061   6.338  2.0525  0.3352  0.1037
 5307SOL    HW219324  10.008   1.186   6.396 -1.0782  1.3987  1.3787
 5308SOL     OW19325   5.798   4.792   4.454  0.4112 -0.0962 -0.0474
 5308SOL    HW119326   5.724   4.804   4.395 -0.8027 -0.5041  1.3216
 5308SOL    HW219327   5.863   4.745   4.402 -1.1512 -1.6747 -0.6968
 5309SOL     OW19328   7.221   3.226   2.086  0.1768 -0.3227 -0.5069
 5309SOL    HW119329   7.131   3.198   2.065  0.1117 -0.4350 -0.0878
 5309SOL    HW219330   7.268   3.219   2.003  0.3123 -2.2514 -0.3141
 5310SOL     OW19331  10.740   0.927   5.595  0.2209 -0.2177  0.1227
 5310SOL    HW119332  10.687   0.854   5.628 -0.6417 -0.3242 -1.3958
 5310SOL    HW219333  10.821   0.886   5.566  0.1497 -0.4309  0.2209
 5311SOL     OW19334   0.717  10.833   5.077  0.2812 -0.2702 -1.2570
 5311SOL    HW119335   0.721  10.795   4.989  0.7995 -2.1992 -0.4539
 5311SOL    HW219336   0.760  10.768   5.133 -2.7281 -0.6034  0.9183
 5312SOL     OW19337   0.655   7.949   7.746 -0.3705  0.1240  0.1976
 5312SOL    HW119338   0.563   7.925   7.738 -0.3753  0.7671 -2.7606
 5312SOL    HW219339   0.656   8.014   7.817 -1.4747 -2.6782  3.0277
 5313SOL     OW19340   7.017   5.175   4.903 -0.2897  0.2123 -0.2723
 5313SOL    HW119341   7.112   5.184   4.899 -0.3142  0.3788 -0.5140
 5313SOL    HW219342   6.994   5.130   4.821 -0.4044  0.0328 -0.1434
 5314SOL     OW19343   9.497  10.005  10.485  0.3457  0.0279  0.2590
 5314SOL    HW119344   9.541  10.076  10.439  1.1645 -0.1559  0.7354
 5314SOL    HW219345   9.428  10.049  10.535  1.5430  0.6602  1.4263
 5315SOL     OW19346   7.923  10.240   0.767  0.1203 -0.4196  0.0129
 5315SOL    HW119347   7.981  10.197   0.830  0.1388 -0.2302  0.1249
 5315SOL    HW219348   7.850  10.179   0.755 -0.6063  0.1541  1.2979
 5316SOL     OW19349   0.919   5.532   1.558 -0.4825 -0.1513  0.0383
 5316SOL    HW119350   0.857   5.474   1.513  1.0932 -0.8215 -1.3673
 5316SOL    HW219351   0.988   5.549   1.494  0.8157  0.5768  1.5417
 5317SOL     OW19352   8.586   5.651   9.816  0.6555  0.3959  0.3619
 5317SOL    HW119353   8.521   5.591   9.852  0.1184  1.4979  1.2698
 5317SOL    HW219354   8.626   5.602   9.744 -1.0566 -0.3582 -0.1194
 5318SOL     OW19355   2.724   5.998   6.635 -0.1513 -0.0323  0.2255
 5318SOL    HW119356   2.791   6.053   6.675 -1.2727 -0.3188  2.6844
 5318SOL    HW219357   2.770   5.917   6.611  0.7152  0.4382  0.2528
 5319SOL     OW19358   6.594   2.898   8.519 -0.3568  0.1354 -0.4359
 5319SOL    HW119359   6.528   2.967   8.517 -0.2220  0.3143  0.5891
 5319SOL    HW219360   6.548   2.820   8.490 -0.7491  0.4708 -0.7348
 5320SOL     OW19361   0.180   3.637   0.841  0.2988  0.7496  0.0884
 5320SOL    HW119362   0.222   3.645   0.927  1.4098  0.1522 -0.3736
 5320SOL    HW219363   0.088   3.656   0.858  0.4086  0.1922  1.5054
 5321SOL     OW19364   2.308   5.592   9.963  0.3448  0.1569 -0.3227
 5321SOL    HW119365   2.372   5.535  10.006 -0.4220 -0.9419 -0.6049
 5321SOL    HW219366   2.248   5.618  10.033  0.4924  0.3369 -0.2625
 5322SOL     OW19367   3.085   2.535   5.425 -0.0551 -0.0567 -0.1704
 5322SOL    HW119368   3.002   2.576   5.449  1.0500  2.3335 -0.1691
 5322SOL    HW219369   3.096   2.555   5.332  1.2656  1.1456  0.2089
 5323SOL     OW19370   3.768   1.829   8.176  0.3992 -0.0733 -0.2243
 5323SOL    HW119371   3.755   1.884   8.253  1.6348  0.7201 -0.5492
 5323SOL    HW219372   3.805   1.747   8.210  1.1767  0.3673  0.0138
 5324SOL     OW19373   9.948   6.174   1.118 -0.0116  0.2785 -1.0013
 5324SOL    HW119374   9.918   6.201   1.031 -0.3351  0.8095 -0.7298
 5324SOL    HW219375   9.874   6.126   1.155  0.1747 -0.0620 -1.0703
 5325SOL     OW19376   2.813   6.167   1.621 -0.4234 -0.7592  0.6993
 5325SOL    HW119377   2.794   6.257   1.592  1.1055 -1.0798 -1.5477
 5325SOL    HW219378   2.731   6.137   1.661 -1.7312  0.8367 -0.6490
 5326SOL     OW19379   9.513   9.348   2.774  0.8076  0.5137  0.2619
 5326SOL    HW119380   9.450   9.401   2.725  0.0842 -0.4176  0.1379
 5326SOL    HW219381   9.570   9.311   2.706 -0.0839 -0.6342  0.1050
 5327SOL     OW19382   6.258   6.304   4.898 -0.2870  0.6793  0.1042
 5327SOL    HW119383   6.190   6.357   4.939 -0.6757  1.1957 -1.1424
 5327SOL    HW219384   6.282   6.354   4.819 -0.2206 -0.6930 -0.7766
 5328SOL     OW19385   7.929   2.964   5.656 -0.2564  0.5353 -0.0537
 5328SOL    HW119386   7.984   3.038   5.631  0.2577  0.6287  1.2828
 5328SOL    HW219387   7.843   3.002   5.671 -0.2623  0.6759 -0.4198
 5329SOL     OW19388   6.881   1.374   7.042  0.5638  0.0304  0.4022
 5329SOL    HW119389   6.870   1.283   7.014  1.9138 -0.4866  1.4838
 5329SOL    HW219390   6.934   1.369   7.121  1.0563  1.7876  0.2256
 5330SOL     OW19391   6.204   3.770   5.343 -0.1539  0.0694  0.6310
 5330SOL    HW119392   6.288   3.816   5.353  0.3244 -0.7954  0.6273
 5330SOL    HW219393   6.155   3.793   5.422  0.8345 -0.9462  1.5715
 5331SOL     OW19394   0.407   4.246   8.329 -0.2586 -1.0780  0.2124
 5331SOL    HW119395   0.442   4.312   8.270 -1.2380  0.3154  1.1176
 5331SOL    HW219396   0.351   4.191   8.274 -0.9948  0.0667 -0.2140
 5332SOL     OW19397   9.885   8.841   9.920  0.2521  0.2705  0.2788
 5332SOL    HW119398   9.848   8.928   9.906  2.4875  1.3119  0.4941
 5332SOL    HW219399   9.887   8.802   9.832  0.6235  1.0203 -0.0559
 5333SOL     OW19400   0.533   6.505   7.721 -0.4861  0.6745  0.2448
 5333SOL    HW119401   0.478   6.515   7.644  1.3642 -0.1226 -1.2803
 5333SOL    HW219402   0.606   6.565   7.707  0.1327  0.1583  1.1194
 5334SOL     OW19403   4.129  10.799   2.018  0.0511 -0.2287 -0.6093
 5334SOL    HW119404   4.146  10.799   1.924  0.2652  0.0769 -0.5707
 5334SOL    HW219405   4.193  10.860   2.054  0.7665 -1.2370 -0.1219
 5335SOL     OW19406   1.448   8.944   9.465 -0.4173 -0.0910  0.1942
 5335SOL    HW119407   1.397   8.951   9.545 -1.3634  1.1630 -0.4859
 5335SOL    HW219408   1.390   8.901   9.402 -0.0888 -0.0404 -0.1490
 5336SOL     OW19409   9.228   7.050   5.256  0.0077  0.2325 -0.3435
 5336SOL    HW119410   9.250   7.056   5.350  1.5958 -0.7617 -0.6108
 5336SOL    HW219411   9.295   6.992   5.220 -0.1633  1.1610 -2.2418
 5337SOL     OW19412   6.852   0.594   5.089 -0.0377  0.0112  0.3589
 5337SOL    HW119413   6.760   0.592   5.065  0.5943  0.1744 -2.4511
 5337SOL    HW219414   6.878   0.685   5.074  0.7613 -0.2205  0.2966
 5338SOL     OW19415   6.620   2.443   1.393 -0.1555  0.5378  0.1880
 5338SOL    HW119416   6.529   2.469   1.380 -0.1691  1.3268  1.6339
 5338SOL    HW219417   6.623   2.411   1.483  0.7959 -0.4188 -0.1718
 5339SOL     OW19418   1.501  10.627   3.396 -0.6549 -0.4566  0.1125
 5339SOL    HW119419   1.415  10.625   3.437 -0.4082 -0.7473  0.6256
 5339SOL    HW219420   1.484  10.615   3.303 -1.0549 -2.3560  0.3882
 5340SOL     OW19421   1.019   9.483   2.539  0.2877 -0.7411  0.2064
 5340SOL    HW119422   1.018   9.406   2.482 -1.2763  0.9712 -2.2924
 5340SOL    HW219423   1.103   9.525   2.521 -0.3228 -0.0547 -1.1072
 5341SOL     OW19424   8.910   0.555   6.956  0.5809 -0.3422  0.3684
 5341SOL    HW119425   8.889   0.465   6.931  1.0193 -0.0174 -1.2813
 5341SOL    HW219426   8.911   0.603   6.873 -0.4262  1.3572  1.2823
 5342SOL     OW19427  10.182   1.054   2.445 -0.1362  0.0244 -0.0303
 5342SOL    HW119428  10.145   1.085   2.529  0.6202 -2.0968  1.1674
 5342SOL    HW219429  10.276   1.057   2.458 -0.0022  0.1578 -1.0127
 5343SOL     OW19430   8.315   3.689   5.472  0.4072  0.7761 -0.1320
 5343SOL    HW119431   8.269   3.745   5.534  1.3532  1.6946 -0.2370
 5343SOL    HW219432   8.262   3.609   5.468  0.0677  0.8953  1.4581
 5344SOL     OW19433   0.999   3.587   8.138 -0.2685  0.3191  0.6408
 5344SOL    HW119434   1.086   3.600   8.175  0.2146 -0.9835 -0.0073
 5344SOL    HW219435   0.953   3.534   8.204 -0.2681  0.2075  0.5507
 5345SOL     OW19436   0.691   1.439  10.367  0.7040  0.0636 -0.1367
 5345SOL    HW119437   0.707   1.421  10.460 -0.2100  0.2332  0.0554
 5345SOL    HW219438   0.709   1.532  10.357  2.6096 -0.3018 -0.5339
 5346SOL     OW19439  10.861   5.410   9.432  0.8154 -0.1462  0.0805
 5346SOL    HW119440  10.839   5.483   9.490  0.7656 -0.0718 -0.0321
 5346SOL    HW219441  10.948   5.383   9.459  0.7358 -0.2023  0.2859
 5347SOL     OW19442   6.503   4.284   3.106 -0.1592  0.8915  0.3362
 5347SOL    HW119443   6.546   4.250   3.184 -1.0836  2.1227  1.4314
 5347SOL    HW219444   6.422   4.234   3.098  0.8459 -0.6398 -1.0709
 5348SOL     OW19445   4.272   9.804   2.688 -0.0566  0.7963 -0.9048
 5348SOL    HW119446   4.216   9.878   2.664 -0.9889 -0.1506 -1.8044
 5348SOL    HW219447   4.215   9.748   2.741  0.7823  0.9261  0.1643
 5349SOL     OW19448   8.486   6.979   3.047 -0.4025 -0.3899 -0.0345
 5349SOL    HW119449   8.513   6.929   3.125  1.1660 -0.3899 -0.5327
 5349SOL    HW219450   8.565   7.026   3.021 -1.3287  0.8252 -0.7383
 5350SOL     OW19451   8.189   5.130   1.279  0.1448 -0.8160 -0.1720
 5350SOL    HW119452   8.256   5.079   1.324 -0.6795 -1.7494  0.0154
 5350SOL    HW219453   8.113   5.072   1.273 -0.2961 -0.1611 -1.3539
 5351SOL     OW19454   3.157   0.275   4.962  0.1431  1.0368 -0.2659
 5351SOL    HW119455   3.149   0.353   4.908  0.6400 -0.2927 -2.3677
 5351SOL    HW219456   3.238   0.234   4.933 -1.0759 -1.2794 -0.6384
 5352SOL     OW19457  10.209   7.285   0.927  0.1918 -0.0765  0.0682
 5352SOL    HW119458  10.151   7.354   0.960  0.1967 -0.4207  0.8064
 5352SOL    HW219459  10.241   7.320   0.844  0.1212  0.7806  0.3829
 5353SOL     OW19460   8.790   8.252   3.549  0.0391  0.4840 -0.6075
 5353SOL    HW119461   8.710   8.269   3.498 -1.4426  2.8384  2.1475
 5353SOL    HW219462   8.856   8.308   3.509  0.0607 -0.6693 -2.2669
 5354SOL     OW19463   6.789   1.126   9.652  0.1208  0.1487 -0.6060
 5354SOL    HW119464   6.764   1.210   9.691  0.7648  0.4466 -0.8085
 5354SOL    HW219465   6.828   1.077   9.725 -0.3200 -0.0073 -0.4716
 5355SOL     OW19466   6.871   4.070   8.176 -0.2824  0.8975  0.3191
 5355SOL    HW119467   6.788   4.068   8.224  0.0989 -0.4051  0.9517
 5355SOL    HW219468   6.932   4.114   8.235  0.1259 -0.4956  0.9861
 5356SOL     OW19469   6.107   4.126   0.463 -0.0931  0.1192  0.9502
 5356SOL    HW119470   6.166   4.083   0.401  0.2594  0.7292  0.8549
 5356SOL    HW219471   6.020   4.098   0.436  0.1665 -1.2413  1.4346
 5357SOL     OW19472   9.101   2.624   0.301 -0.3193 -0.1297 -0.0644
 5357SOL    HW119473   9.169   2.570   0.260  0.1365 -0.4578  1.0878
 5357SOL    HW219474   9.033   2.561   0.325 -0.6805  0.0899 -0.5110
 5358SOL     OW19475   0.821   4.881   3.689 -0.5429 -0.2334 -0.4275
 5358SOL    HW119476   0.730   4.854   3.696 -0.9874  1.1350 -0.5327
 5358SOL    HW219477   0.847   4.858   3.600 -1.3614  0.9538 -1.0025
 5359SOL     OW19478   3.655   2.317   8.608 -0.2993 -0.7244  0.2671
 5359SOL    HW119479   3.567   2.286   8.586 -0.4640  1.1984 -2.2689
 5359SOL    HW219480   3.642   2.406   8.643  0.6269 -0.0328 -1.0338
 5360SOL     OW19481   7.789  10.730   0.339  0.1124 -0.1516 -0.3398
 5360SOL    HW119482   7.736  10.809   0.354 -1.9597 -1.7310  1.4966
 5360SOL    HW219483   7.876  10.752   0.373 -0.5360  1.2300  0.4885
 5361SOL     OW19484   5.422   4.064   0.734 -0.2381 -0.0465  0.6107
 5361SOL    HW119485   5.463   4.066   0.820  0.7340 -0.3763  0.1605
 5361SOL    HW219486   5.484   4.019   0.678 -2.2064 -2.8126  0.4263
 5362SOL     OW19487   6.182   6.765  10.224 -0.5074  0.2967  0.1086
 5362SOL    HW119488   6.222   6.794  10.306 -1.0125  0.3299  0.3459
 5362SOL    HW219489   6.210   6.674  10.214  2.0870  1.1416 -1.2415
 5363SOL     OW19490   1.359   1.179   4.361  0.3863 -0.1653 -0.1048
 5363SOL    HW119491   1.269   1.209   4.373 -0.1712 -2.1815  1.4200
 5363SOL    HW219492   1.371   1.176   4.266 -0.0315  3.0592 -0.3531
 5364SOL     OW19493   0.457   6.652   9.241 -0.5436 -0.4573 -0.1355
 5364SOL    HW119494   0.512   6.599   9.184  0.0773  0.8082 -0.7583
 5364SOL    HW219495   0.518   6.714   9.282 -1.1663 -0.5541  0.9755
 5365SOL     OW19496   2.831   6.853   0.494 -0.4946 -0.0243  0.5118
 5365SOL    HW119497   2.861   6.943   0.491  1.4610 -0.6530 -1.9775
 5365SOL    HW219498   2.745   6.855   0.452  0.5402  0.4392 -1.7583
 5366SOL     OW19499   9.828   7.563   1.612  0.0957 -0.3937  0.3328
 5366SOL    HW119500   9.809   7.472   1.590  0.6869 -0.9565  1.9489
 5366SOL    HW219501   9.867   7.558   1.699  1.0787  1.3298  0.0266
 5367SOL     OW19502   8.479   8.096  10.013  0.1908 -0.3746  0.0518
 5367SOL    HW119503   8.443   8.147   9.940  1.9501  0.7340 -0.1057
 5367SOL    HW219504   8.524   8.023   9.971 -0.8599 -1.1412  0.1976
 5368SOL     OW19505   0.284   2.706   1.081 -0.3403  0.4082 -0.4487
 5368SOL    HW119506   0.238   2.660   1.010  0.5059  0.7106 -1.2140
 5368SOL    HW219507   0.377   2.696   1.059 -0.0745  0.7000  0.5091
 5369SOL     OW19508   7.699   3.092   5.228 -0.0111  0.1723  0.1219
 5369SOL    HW119509   7.756   3.168   5.223 -1.2563  1.0823 -1.5321
 5369SOL    HW219510   7.610   3.129   5.230 -0.6332 -1.2013 -0.5845
 5370SOL     OW19511   1.564   5.768   6.341  0.1058  0.5570 -0.2667
 5370SOL    HW119512   1.485   5.772   6.288  0.4712  2.6251 -0.7537
 5370SOL    HW219513   1.635   5.757   6.277  0.2967 -0.2168  0.0738
 5371SOL     OW19514   0.954   4.301   4.302  0.6768  0.1065 -0.8054
 5371SOL    HW119515   0.990   4.352   4.375 -0.2786  0.2717 -0.4403
 5371SOL    HW219516   0.979   4.211   4.321  0.3774  0.1391 -0.2304
 5372SOL     OW19517   8.005   8.814   8.625  0.0642  0.5758 -0.2695
 5372SOL    HW119518   8.068   8.845   8.560  1.1294  1.4545  1.1360
 5372SOL    HW219519   8.058   8.779   8.696 -1.0996 -1.1872 -0.2061
 5373SOL     OW19520   2.292   9.901   1.054  0.2804  0.7168  0.4711
 5373SOL    HW119521   2.214   9.878   1.005 -0.5876  1.0921  1.6164
 5373SOL    HW219522   2.335   9.818   1.072  0.1986  0.5149 -0.2341
 5374SOL     OW19523   9.428   9.737   1.832 -0.4138  0.4826 -0.2157
 5374SOL    HW119524   9.428   9.829   1.857 -2.9430  0.2124  1.1056
 5374SOL    HW219525   9.480   9.693   1.899 -1.3538  0.6564  0.6503
 5375SOL     OW19526   8.196   8.213   1.149  0.4223 -0.2826  0.0684
 5375SOL    HW119527   8.191   8.268   1.070 -0.1381  0.9925  0.9419
 5375SOL    HW219528   8.288   8.192   1.158  0.4570 -0.6977 -1.0779
 5376SOL     OW19529   7.258   7.114  10.340  0.0250 -0.2807  0.5995
 5376SOL    HW119530   7.338   7.124  10.289 -1.2873  1.7801 -1.2443
 5376SOL    HW219531   7.188   7.116  10.275 -1.5526 -1.9356  2.1577
 5377SOL     OW19532   7.286   3.747   9.219  0.1225 -0.4243 -0.0156
 5377SOL    HW119533   7.254   3.768   9.131 -1.1500  1.0302  0.7500
 5377SOL    HW219534   7.243   3.811   9.276  1.5341 -0.8230  1.5728
 5378SOL     OW19535   4.906   1.265   2.262 -0.5635 -0.2919 -0.4541
 5378SOL    HW119536   4.939   1.262   2.172 -0.3728 -1.1240 -0.3691
 5378SOL    HW219537   4.978   1.302   2.313  0.3529 -2.2212 -0.2457
 5379SOL     OW19538   8.224   3.905   4.695  0.2923  0.5261 -0.0417
 5379SOL    HW119539   8.178   3.978   4.735  0.5332 -0.9119  3.2068
 5379SOL    HW219540   8.160   3.834   4.694  1.5862 -0.8846  2.6033
 5380SOL     OW19541   2.456   9.250   3.580  0.6287  0.2134 -0.0480
 5380SOL    HW119542   2.408   9.315   3.631  0.0166  0.3619 -0.7846
 5380SOL    HW219543   2.456   9.172   3.634 -0.0336  0.3574  0.1695
 5381SOL     OW19544  10.297  10.121   2.060  0.2691 -0.2080 -0.5216
 5381SOL    HW119545  10.249  10.093   1.981 -0.5897 -0.6557  0.1362
 5381SOL    HW219546  10.382  10.077   2.053  0.3657  0.0870 -1.3969
 5382SOL     OW19547   9.544   4.448   0.303  0.0017 -0.1606  0.0162
 5382SOL    HW119548   9.568   4.536   0.330 -1.0497 -0.0152  0.5389
 5382SOL    HW219549   9.483   4.461   0.230 -0.1232 -0.4530  0.0667
 5383SOL     OW19550   8.217   9.365   8.044  0.7778  0.0403 -0.0396
 5383SOL    HW119551   8.156   9.306   8.000 -0.2605  1.6716 -0.8692
 5383SOL    HW219552   8.293   9.369   7.985  0.7661 -0.3029 -0.0792
 5384SOL     OW19553   5.161   6.753   8.811 -0.2295 -0.5442 -0.0963
 5384SOL    HW119554   5.251   6.731   8.831 -0.6275 -1.2346  1.0213
 5384SOL    HW219555   5.134   6.688   8.745  0.2024 -0.0751 -0.7459
 5385SOL     OW19556   5.137   1.612   6.038 -0.0177  0.0315  0.4219
 5385SOL    HW119557   5.103   1.539   6.091 -1.2609 -0.5943 -1.1674
 5385SOL    HW219558   5.103   1.690   6.082  1.0641 -0.3099  1.9602
 5386SOL     OW19559   9.608   4.111   9.833 -0.2703 -0.2412  0.1841
 5386SOL    HW119560   9.653   4.081   9.753  2.2249  0.8592  1.0593
 5386SOL    HW219561   9.546   4.176   9.802 -0.5191 -1.0057 -1.0010
 5387SOL     OW19562   3.117   9.140   1.893  0.6745  0.8044  0.7047
 5387SOL    HW119563   3.154   9.189   1.820  0.7871 -0.6156 -0.2366
 5387SOL    HW219564   3.035   9.105   1.859  0.9222 -0.2089  1.1052
 5388SOL     OW19565   5.423   9.838   6.196 -0.4150  0.0113  0.1217
 5388SOL    HW119566   5.420   9.846   6.101 -0.4352  0.6819  0.1726
 5388SOL    HW219567   5.516   9.828   6.217 -0.1304  2.3034  0.1904
 5389SOL     OW19568   3.623   9.876  10.752 -0.0937 -0.2069  0.2260
 5389SOL    HW119569   3.708   9.834  10.764  0.6558  0.2256 -2.7613
 5389SOL    HW219570   3.565   9.805  10.726  0.1619 -0.0472 -0.8153
 5390SOL     OW19571   2.860   4.167   7.635  0.0158 -0.1981  0.0785
 5390SOL    HW119572   2.921   4.119   7.579  1.1100  0.6145  0.5455
 5390SOL    HW219573   2.811   4.099   7.681 -1.1884 -0.9092 -2.1030
 5391SOL     OW19574   0.540   4.326   9.654  0.1981 -0.3414  0.4517
 5391SOL    HW119575   0.537   4.395   9.588  0.3951  1.0879  1.8784
 5391SOL    HW219576   0.631   4.298   9.657  0.2747 -0.0951  0.4147
 5392SOL     OW19577   8.201   5.685   8.625 -0.2283 -0.4185 -0.4260
 5392SOL    HW119578   8.187   5.755   8.688 -3.1164 -0.0033 -1.3655
 5392SOL    HW219579   8.279   5.640   8.656  0.4981  1.8914  1.4091
 5393SOL     OW19580  10.369   3.719   5.807 -0.6425  0.3469 -0.1233
 5393SOL    HW119581  10.361   3.793   5.867 -0.7190  0.9927 -0.9165
 5393SOL    HW219582  10.335   3.644   5.856 -2.0359  1.1245  0.1395
 5394SOL     OW19583  10.366   7.030   9.765  0.9052 -0.3196  0.1555
 5394SOL    HW119584  10.376   6.943   9.805  0.9490 -0.3260  0.1307
 5394SOL    HW219585  10.371   7.091   9.838 -1.1735 -0.4493  0.4594
 5395SOL     OW19586   1.724   0.047   9.694 -0.3563 -0.2882  0.4442
 5395SOL    HW119587   1.666   0.029   9.767 -0.1618  0.8348  0.8988
 5395SOL    HW219588   1.795   0.099   9.732 -0.4536  0.6519 -0.6063
 5396SOL     OW19589   6.151   9.024   4.038 -0.3525  0.4511  0.1471
 5396SOL    HW119590   6.094   9.085   3.992 -1.2768 -0.3466  0.2200
 5396SOL    HW219591   6.111   9.014   4.124  1.0519  1.4946  0.9608
 5397SOL     OW19592   6.373  10.347   5.746  0.2003  0.2930 -0.0394
 5397SOL    HW119593   6.327  10.264   5.732  0.1445  0.3029  0.0858
 5397SOL    HW219594   6.395  10.347   5.839  1.5004 -0.2451 -0.3264
 5398SOL     OW19595   0.584   2.655  10.356 -0.6153  0.4487  0.3819
 5398SOL    HW119596   0.664   2.622  10.397 -0.5113 -0.5575 -0.5934
 5398SOL    HW219597   0.614   2.716  10.289 -0.6857  0.4534  0.3540
 5399SOL     OW19598   9.041   5.483   9.039 -0.3873 -0.2378  0.2418
 5399SOL    HW119599   9.134   5.459   9.037  0.0262  0.9663  2.2706
 5399SOL    HW219600   9.038   5.571   9.001 -0.3911  0.4353  1.7124
 5400SOL     OW19601   2.070   1.551   7.691 -0.2654  0.0259 -0.0931
 5400SOL    HW119602   2.132   1.515   7.753 -0.7982  0.2156  0.5614
 5400SOL    HW219603   2.029   1.475   7.650 -1.0768 -0.1388  0.9697
 5401SOL     OW19604   0.145   2.140   8.845 -0.3433  0.3443  0.2136
 5401SOL    HW119605   0.220   2.130   8.903 -1.8280  1.1492  2.4021
 5401SOL    HW219606   0.158   2.226   8.804  0.3551  0.0919 -0.1100
 5402SOL     OW19607  10.014   5.875   4.351 -0.2867  0.1653 -0.2974
 5402SOL    HW119608  10.087   5.932   4.327 -0.3423 -0.5301 -2.3318
 5402SOL    HW219609   9.950   5.933   4.390  1.0526  0.8949  0.9139
 5403SOL     OW19610   4.810   2.422   6.734  0.3221  0.6070  0.1378
 5403SOL    HW119611   4.875   2.370   6.780  0.7469  1.6605  0.7416
 5403SOL    HW219612   4.729   2.372   6.742  1.0299 -0.7204 -0.6312
 5404SOL     OW19613   6.642   6.021   9.406  0.1878  0.2362 -0.4256
 5404SOL    HW119614   6.659   6.077   9.330  1.0517 -0.8662 -1.0738
 5404SOL    HW219615   6.548   6.029   9.422  0.1631  1.2472 -0.9889
 5405SOL     OW19616   3.988   3.158   8.070 -0.3349 -0.1683  0.7124
 5405SOL    HW119617   3.899   3.153   8.105 -0.4126 -0.5395  0.4706
 5405SOL    HW219618   4.035   3.088   8.115 -0.2901 -0.2761  0.5026
 5406SOL     OW19619   2.713   6.025   8.587 -0.4269  0.2474 -0.6091
 5406SOL    HW119620   2.804   6.051   8.604  0.1808 -2.9629  2.1833
 5406SOL    HW219621   2.662   6.103   8.609  1.5494  1.5805 -0.4591
 5407SOL     OW19622   9.019   6.485   3.496 -0.1701  0.0219 -0.1572
 5407SOL    HW119623   8.937   6.459   3.455 -0.8119 -1.4595  1.8934
 5407SOL    HW219624   9.000   6.485   3.590  1.8986  0.6572  0.3106
 5408SOL     OW19625   5.098  10.746   9.231 -0.0626 -0.2018 -0.4820
 5408SOL    HW119626   5.080  10.790   9.314 -0.8212  0.2996 -0.8991
 5408SOL    HW219627   5.056  10.802   9.165 -2.1193 -2.1238 -0.9207
 5409SOL     OW19628   1.004   3.675   6.078  0.0910  0.3073 -0.2927
 5409SOL    HW119629   0.979   3.724   6.157  1.7282  1.6052 -0.5224
 5409SOL    HW219630   0.953   3.715   6.008  0.7101  1.0621 -0.3238
 5410SOL     OW19631   2.053   9.913  10.686 -0.2298  0.1628  0.6490
 5410SOL    HW119632   2.043   9.846  10.618  0.2676 -0.2143  0.9323
 5410SOL    HW219633   1.980   9.898  10.746 -1.3581  1.2476 -0.3991
 5411SOL     OW19634   3.086   6.541   4.286  0.0785 -0.2851  0.1915
 5411SOL    HW119635   3.112   6.632   4.269  0.6830 -0.7714 -1.7557
 5411SOL    HW219636   3.163   6.501   4.326  1.3211 -0.8790 -2.5528
 5412SOL     OW19637   8.041   3.305   9.355  0.6137 -0.0780 -0.1194
 5412SOL    HW119638   8.129   3.283   9.385  0.8180  0.2129 -0.4952
 5412SOL    HW219639   8.048   3.310   9.260 -0.4153 -2.7433 -0.4234
 5413SOL     OW19640  10.648   4.851   5.996 -0.7762 -0.2782 -0.0575
 5413SOL    HW119641  10.645   4.942   5.968  2.2425  0.1685  0.7240
 5413SOL    HW219642  10.616   4.853   6.086 -0.0379  0.1523  0.2021
 5414SOL     OW19643   1.111   0.197   2.078  0.5689 -0.0126  0.3060
 5414SOL    HW119644   1.094   0.223   1.987 -0.9648 -0.4263  0.4353
 5414SOL    HW219645   1.180   0.256   2.107  2.1674 -0.8519 -1.5642
 5415SOL     OW19646   2.027   6.620   5.320  0.0198 -0.2010  0.0602
 5415SOL    HW119647   1.955   6.605   5.259 -2.2876 -0.8475  2.7400
 5415SOL    HW219648   2.105   6.593   5.272 -1.6726 -0.8903 -2.4845
 5416SOL     OW19649   6.318   2.905   4.633 -0.0410 -0.3152 -0.1526
 5416SOL    HW119650   6.361   2.980   4.673 -1.4881  0.7396 -0.5070
 5416SOL    HW219651   6.386   2.865   4.578  0.1566  2.1140 -1.8043
 5417SOL     OW19652  10.896   5.765   8.569  0.8355 -0.1995 -0.0749
 5417SOL    HW119653  10.857   5.823   8.634 -0.0231 -0.6681 -0.1639
 5417SOL    HW219654  10.871   5.677   8.597  0.6916 -0.4205 -0.8890
 5418SOL     OW19655   3.394   9.543   8.423  0.4651 -0.1624  0.4119
 5418SOL    HW119656   3.310   9.501   8.405  0.8637  0.0587 -2.2331
 5418SOL    HW219657   3.458   9.490   8.377  2.2085 -1.5204  3.9659
 5419SOL     OW19658   6.683  10.029   3.008 -0.2423  0.2413  0.4197
 5419SOL    HW119659   6.613  10.025   2.943 -1.0740  0.9511  1.2372
 5419SOL    HW219660   6.732  10.108   2.987 -1.4706  1.3656  1.5420
 5420SOL     OW19661   4.191   9.278  10.507  0.6544  0.3421  0.3177
 5420SOL    HW119662   4.157   9.218  10.441  1.0271 -0.5791  0.9463
 5420SOL    HW219663   4.157   9.364  10.481  0.2535 -0.1036 -0.6897
 5421SOL     OW19664   6.477   2.791  10.559  0.5712  0.3600  0.1179
 5421SOL    HW119665   6.527   2.844  10.622  1.7883  0.5315 -0.9268
 5421SOL    HW219666   6.387   2.821  10.569  0.9872  1.5308  0.6535
 5422SOL     OW19667   6.227   8.246   9.476  0.4000  0.1312 -0.0148
 5422SOL    HW119668   6.287   8.285   9.540  0.3089 -0.3216  0.3500
 5422SOL    HW219669   6.173   8.319   9.447 -0.4694  0.1012  1.4365
 5423SOL     OW19670   2.625   1.894  10.596 -0.3025 -0.0849  0.5303
 5423SOL    HW119671   2.561   1.961  10.622 -0.2262 -0.2150  1.0631
 5423SOL    HW219672   2.704   1.917  10.645  0.0951  0.1288 -0.1922
 5424SOL     OW19673   8.376   9.565   8.756 -0.1171  0.1290  0.2831
 5424SOL    HW119674   8.351   9.657   8.750  0.5338  0.3585  1.0095
 5424SOL    HW219675   8.407   9.553   8.846 -0.5935 -0.9042  0.3316
 5425SOL     OW19676   7.288   4.182   1.089  0.4455  0.7351 -0.8293
 5425SOL    HW119677   7.374   4.187   1.046  1.2874 -2.1552  0.2966
 5425SOL    HW219678   7.236   4.125   1.032  0.3234 -0.0122  0.0109
 5426SOL     OW19679   3.750   0.062   9.725 -0.0811  0.1856  0.0042
 5426SOL    HW119680   3.713   0.113   9.797  0.8313 -0.9161  1.3153
 5426SOL    HW219681   3.835   0.032   9.759  0.7887  0.3910 -1.8826
 5427SOL     OW19682   7.637   5.664   8.761  0.0203  0.3077 -0.2245
 5427SOL    HW119683   7.595   5.582   8.788  1.1797 -1.2042 -2.6995
 5427SOL    HW219684   7.564   5.721   8.735 -0.7186 -0.4910  0.0495
 5428SOL     OW19685   1.527   8.424   9.994  0.6335 -0.7677  0.0789
 5428SOL    HW119686   1.531   8.519   9.982  1.5386 -0.6726  0.9425
 5428SOL    HW219687   1.493   8.413  10.083  0.4471 -1.2497 -0.0510
 5429SOL     OW19688   4.005   0.620   0.146  0.4435 -0.0036  0.0665
 5429SOL    HW119689   4.041   0.566   0.076  0.3150  0.5268 -0.4215
 5429SOL    HW219690   3.929   0.572   0.178  0.5689 -0.3013 -0.0875
 5430SOL     OW19691   5.072   3.081  10.760 -0.1975 -0.0821  0.3592
 5430SOL    HW119692   5.010   3.153  10.765 -0.8183 -0.6348  0.7499
 5430SOL    HW219693   5.158   3.123  10.766 -0.5671  0.5337  1.5700
 5431SOL     OW19694  10.192   8.731   3.612 -0.2921  0.6827  0.0012
 5431SOL    HW119695  10.165   8.674   3.683  1.7772 -1.1824 -0.5924
 5431SOL    HW219696  10.176   8.680   3.532  1.6827  0.8060 -0.5459
 5432SOL     OW19697   1.125   6.726  10.894 -0.1545  0.3387 -0.4732
 5432SOL    HW119698   1.075   6.725  10.975  0.5277  0.0886 -0.0480
 5432SOL    HW219699   1.120   6.817  10.864  1.5326  1.0196  1.0992
 5433SOL     OW19700   5.040   4.820   8.628  0.1303 -0.0564  0.4193
 5433SOL    HW119701   5.063   4.761   8.556 -0.9643 -0.6786  0.5668
 5433SOL    HW219702   4.974   4.878   8.592 -0.3577 -0.3112  0.8903
 5434SOL     OW19703   3.843   2.840   2.958  0.6958 -0.1247  0.2231
 5434SOL    HW119704   3.868   2.782   2.886 -0.3543  0.8296 -0.9649
 5434SOL    HW219705   3.764   2.800   2.994 -1.0144  1.3049 -1.6674
 5435SOL     OW19706   0.477   6.718  10.199 -0.9885 -0.4879 -0.2141
 5435SOL    HW119707   0.386   6.688  10.200 -1.4089  0.6416 -1.6839
 5435SOL    HW219708   0.473   6.807  10.164  0.6385 -0.2273  0.1903
 5436SOL     OW19709  10.326  10.189   8.227 -0.3581  0.2359  0.0803
 5436SOL    HW119710  10.417  10.205   8.251 -0.1895 -0.3383 -0.1730
 5436SOL    HW219711  10.276  10.231   8.297  0.1048  0.1054  0.5004
 5437SOL     OW19712   2.123   2.375   2.657 -0.1027 -0.1797 -0.5580
 5437SOL    HW119713   2.184   2.345   2.724 -1.6656 -0.6545  0.7213
 5437SOL    HW219714   2.107   2.298   2.602  0.8433  0.0977 -1.2626
 5438SOL     OW19715   1.480  10.598   4.324  0.1043  0.1702  0.2206
 5438SOL    HW119716   1.521  10.567   4.405  1.5676 -0.7778 -0.8361
 5438SOL    HW219717   1.528  10.678   4.301 -0.2496  0.3897  0.2298
 5439SOL     OW19718   4.887   2.199   1.268 -0.3791 -0.3478 -0.1836
 5439SOL    HW119719   4.918   2.144   1.196 -1.1014  0.2529 -0.9726
 5439SOL    HW219720   4.839   2.269   1.225 -0.6020  0.1667  0.8829
 5440SOL     OW19721   2.100   6.207   9.388  0.7971 -0.4301 -0.0500
 5440SOL    HW119722   2.024   6.158   9.420  1.2674 -0.3583  1.2287
 5440SOL    HW219723   2.153   6.223   9.466  1.9961 -0.2347 -0.8726
 5441SOL     OW19724   6.712   3.270   4.674 -0.9272  0.7849  0.1818
 5441SOL    HW119725   6.712   3.183   4.714  0.2452  0.6518 -0.0778
 5441SOL    HW219726   6.698   3.254   4.581  0.1572  0.7906  0.0062
 5442SOL     OW19727   1.050  10.743   5.597  0.1786  0.2150  0.2329
 5442SOL    HW119728   1.145  10.751   5.582 -0.0825  0.9706 -1.2180
 5442SOL    HW219729   1.024  10.827   5.632 -0.3669  1.0421 -2.0091
 5443SOL     OW19730   0.712   2.776   6.322 -0.0582  0.4443 -0.4000
 5443SOL    HW119731   0.639   2.766   6.384  0.5896 -0.4837  0.2495
 5443SOL    HW219732   0.787   2.798   6.378  0.5512 -0.4622 -0.8527
 5444SOL     OW19733   7.507   4.146   9.473 -0.1127 -0.4605 -0.2064
 5444SOL    HW119734   7.466   4.157   9.387  1.5375  0.5468 -0.8912
 5444SOL    HW219735   7.598   4.125   9.454 -0.0364 -1.6934  1.3065
 5445SOL     OW19736   3.970   5.166   1.722 -0.2135 -0.1018 -0.4066
 5445SOL    HW119737   3.914   5.095   1.751  0.3627  0.3591  2.0498
 5445SOL    HW219738   4.057   5.143   1.755  0.4719  0.5862 -1.6572
 5446SOL     OW19739   2.445   5.917  10.370  0.1787  0.2767  0.2141
 5446SOL    HW119740   2.530   5.940  10.407  0.0824  2.0460 -0.5595
 5446SOL    HW219741   2.408   6.000  10.343 -1.7515 -0.4732  0.3909
 5447SOL     OW19742   5.480   6.275   5.053  0.6399 -0.3515  0.1926
 5447SOL    HW119743   5.485   6.320   5.137 -0.0202 -1.1350  0.6719
 5447SOL    HW219744   5.394   6.232   5.053  1.1335 -1.3958 -0.3351
 5448SOL     OW19745   0.245   9.464   8.781  0.3175  0.3840  0.8055
 5448SOL    HW119746   0.282   9.552   8.774  2.8829 -0.7007 -0.6704
 5448SOL    HW219747   0.171   9.474   8.841  0.8542  3.4194  1.1273
 5449SOL     OW19748   5.813   0.380   6.383 -0.1561 -0.1913  0.4833
 5449SOL    HW119749   5.737   0.347   6.334 -0.0733 -1.3320  1.0858
 5449SOL    HW219750   5.888   0.350   6.332 -0.0297  2.7373 -1.2956
 5450SOL     OW19751   3.117   2.276   9.219 -1.0960 -0.4114  0.0432
 5450SOL    HW119752   3.153   2.328   9.291  2.3528 -0.8962 -1.1904
 5450SOL    HW219753   3.101   2.190   9.257  0.8160 -0.7061  0.2616
 5451SOL     OW19754   9.834   2.110   4.042  0.5988  0.0488  0.0999
 5451SOL    HW119755   9.769   2.053   4.083 -0.7557 -1.0443 -3.2070
 5451SOL    HW219756   9.782   2.179   4.001  1.4430 -0.7368 -2.4557
 5452SOL     OW19757   8.671   4.190   6.939  0.2385 -0.8478 -0.1857
 5452SOL    HW119758   8.655   4.209   6.846  0.5265 -2.6016 -0.6297
 5452SOL    HW219759   8.591   4.216   6.983 -0.6557 -1.7621 -1.2162
 5453SOL     OW19760   8.255   8.910   1.701 -0.6090 -0.2104  0.1060
 5453SOL    HW119761   8.169   8.941   1.731  1.2558  2.3305  3.5605
 5453SOL    HW219762   8.305   8.990   1.685  1.0203 -1.6072 -2.4095
 5454SOL     OW19763   0.916   1.223   6.027 -0.3326  0.1294  0.2265
 5454SOL    HW119764   0.898   1.131   6.007 -3.6150  0.6847  0.1446
 5454SOL    HW219765   0.947   1.222   6.118  1.6477 -1.1665 -0.4024
 5455SOL     OW19766   9.675  10.780   2.318  0.2580  0.3106  0.0269
 5455SOL    HW119767   9.669  10.873   2.296  0.9333  0.3213 -0.1617
 5455SOL    HW219768   9.723  10.742   2.244  0.1834 -0.1423  0.2116
 5456SOL     OW19769   2.048   5.666   4.517 -0.0484 -0.2679 -0.4281
 5456SOL    HW119770   2.044   5.601   4.447 -0.0581 -1.6867  0.8570
 5456SOL    HW219771   2.011   5.623   4.593  1.4250  0.6795  0.8898
 5457SOL     OW19772   6.057   6.275   2.460 -0.0271 -0.3237  0.3055
 5457SOL    HW119773   5.965   6.277   2.436 -0.1468 -1.4831  0.6144
 5457SOL    HW219774   6.063   6.330   2.538 -0.8352 -1.7683  1.4303
 5458SOL     OW19775   6.838   7.024   4.121 -0.5928  0.4316 -0.6781
 5458SOL    HW119776   6.772   6.975   4.071 -0.2635  1.4273 -2.1473
 5458SOL    HW219777   6.921   7.001   4.081 -0.4009  1.9078 -1.2067
 5459SOL     OW19778   7.998  10.466   9.795  0.4900  0.0049  0.3622
 5459SOL    HW119779   8.020  10.555   9.767 -0.5173  0.0010 -0.5162
 5459SOL    HW219780   8.064  10.444   9.860  1.0981  1.1789  0.1652
 5460SOL     OW19781   1.996   2.138  10.636 -0.0153  0.2134  0.8765
 5460SOL    HW119782   1.929   2.193  10.596  0.2273  0.4705  0.8180
 5460SOL    HW219783   1.977   2.049  10.605 -0.9528  0.1144  1.6998
 5461SOL     OW19784   2.073   4.039   5.215 -0.3814 -0.0479  0.1274
 5461SOL    HW119785   2.113   3.956   5.188 -0.7667 -0.3670  0.5251
 5461SOL    HW219786   2.077   4.038   5.310  0.1441  0.6653  0.1158
 5462SOL     OW19787   1.548   1.911   9.873 -0.2221  0.8014  0.1790
 5462SOL    HW119788   1.536   2.005   9.881  1.8760  1.1440 -0.1989
 5462SOL    HW219789   1.610   1.901   9.801 -0.2507 -0.8568  0.3525
 5463SOL     OW19790   0.681   9.409   5.493  0.2698  0.5819  0.1535
 5463SOL    HW119791   0.684   9.442   5.582 -0.1047  1.5264 -0.1757
 5463SOL    HW219792   0.590   9.381   5.480  0.3241  0.4429  0.0659
 5464SOL     OW19793   3.286   7.245   1.955 -0.1059  0.0867 -0.4396
 5464SOL    HW119794   3.302   7.308   1.885  1.4780 -0.1887 -0.3524
 5464SOL    HW219795   3.358   7.257   2.016  0.0958 -1.5972 -0.2750
 5465SOL     OW19796   8.719   8.658   1.994 -0.0711  0.6339 -0.0547
 5465SOL    HW119797   8.747   8.588   1.936 -1.9441  1.6378 -2.3509
 5465SOL    HW219798   8.772   8.734   1.967  0.8855  0.5300  1.3988
 5466SOL     OW19799   1.285   9.671   8.093 -0.4650 -0.2577 -0.5050
 5466SOL    HW119800   1.196   9.686   8.063 -0.0190  3.0113 -0.5004
 5466SOL    HW219801   1.334   9.748   8.064  1.8124 -0.8269  1.5084
 5467SOL     OW19802  10.292   2.748   5.461  0.1113  0.1722  0.0388
 5467SOL    HW119803  10.276   2.654   5.451  0.5245  0.1092 -0.0197
 5467SOL    HW219804  10.354   2.754   5.533  1.1418  0.3161 -0.8468
 5468SOL     OW19805   1.866   5.179   7.327  0.0353 -0.4629  0.5851
 5468SOL    HW119806   1.937   5.212   7.271  0.6138  0.8158  2.0005
 5468SOL    HW219807   1.823   5.257   7.359 -0.4416 -1.1747  1.7265
 5469SOL     OW19808   9.922   4.009  10.164 -0.1103  0.5302  0.2633
 5469SOL    HW119809   9.965   4.014  10.078  0.7467  1.5921  0.7305
 5469SOL    HW219810   9.844   4.064  10.155 -0.9404 -0.6871 -0.3140
 5470SOL     OW19811   9.547   9.065   4.374 -0.1368 -0.1304  0.2181
 5470SOL    HW119812   9.532   9.160   4.377  0.8866  0.0395  2.9203
 5470SOL    HW219813   9.633   9.054   4.415 -1.0319 -2.3728  1.6266
 5471SOL     OW19814   9.559   7.929   2.975 -0.4316  0.0155 -0.0218
 5471SOL    HW119815   9.595   7.868   2.910 -0.6393  0.7016 -0.8033
 5471SOL    HW219816   9.471   7.947   2.944 -0.6253  0.1558  0.6022
 5472SOL     OW19817   7.689   5.764   3.482 -0.1146 -0.0610  0.6790
 5472SOL    HW119818   7.614   5.712   3.454 -0.3753  0.8848 -0.4610
 5472SOL    HW219819   7.673   5.780   3.575 -0.9374 -0.5051  0.6273
 5473SOL     OW19820   0.699   0.542   6.578 -0.1886 -0.1240  0.1432
 5473SOL    HW119821   0.762   0.553   6.650 -0.5582 -0.8643  0.5987
 5473SOL    HW219822   0.741   0.480   6.519 -0.7019 -1.0525  0.7269
 5474SOL     OW19823   9.981  10.810   9.379  0.4452 -0.6326  0.0076
 5474SOL    HW119824  10.018  10.794   9.465 -1.0514  1.5924  1.1658
 5474SOL    HW219825   9.920  10.737   9.365  0.0427 -0.5497  1.2465
 5475SOL     OW19826   3.088  10.378   4.239  0.0046  0.5077 -0.2724
 5475SOL    HW119827   3.143  10.369   4.162 -0.5189 -1.4008 -0.4817
 5475SOL    HW219828   3.021  10.441   4.214  0.8680  1.2624 -0.7314
 5476SOL     OW19829   2.202   3.723  10.481  0.0993 -0.4656 -0.5462
 5476SOL    HW119830   2.222   3.677  10.562 -2.1150  1.0517  1.0009
 5476SOL    HW219831   2.136   3.668  10.437 -2.4016  0.9352  1.2048
 5477SOL     OW19832   3.029   8.025   4.081 -0.1020 -0.2411  0.1033
 5477SOL    HW119833   3.067   8.081   4.013  1.3097 -1.1277  0.1233
 5477SOL    HW219834   3.104   8.000   4.136 -0.7708 -1.7270  0.3776
 5478SOL     OW19835   9.856   1.631  10.054 -0.1921  0.7875  0.0542
 5478SOL    HW119836   9.926   1.624  10.119 -0.9845  0.9568  0.9562
 5478SOL    HW219837   9.901   1.648   9.971  1.0667 -2.3561 -0.0368
 5479SOL     OW19838   1.800   9.615   7.775 -0.0525  0.5023  0.3855
 5479SOL    HW119839   1.771   9.559   7.847  2.0045 -3.2181 -1.4121
 5479SOL    HW219840   1.731   9.606   7.709 -0.5781  1.6465  0.7486
 5480SOL     OW19841   3.307  10.552   3.194 -0.2142  0.2888  0.1918
 5480SOL    HW119842   3.383  10.530   3.140 -1.0998  0.6675 -1.2771
 5480SOL    HW219843   3.281  10.639   3.164 -0.6975  0.5413  1.2966
 5481SOL     OW19844   2.304  10.114   3.856 -0.2224  0.2970 -0.0199
 5481SOL    HW119845   2.337  10.201   3.878 -0.6165  0.6436 -0.7454
 5481SOL    HW219846   2.298  10.114   3.761 -1.0218 -0.2248  0.0173
 5482SOL     OW19847  10.242  10.636  10.036  0.3615  0.1477  0.4157
 5482SOL    HW119848  10.255  10.717  10.085 -0.8295 -0.1752  1.3054
 5482SOL    HW219849  10.159  10.650   9.989  1.5274  0.4996 -1.6654
 5483SOL     OW19850   1.559   8.671   3.949 -0.2725 -0.2031  0.4330
 5483SOL    HW119851   1.570   8.735   4.019  2.0163 -0.0804  0.0383
 5483SOL    HW219852   1.471   8.634   3.963 -0.7842  1.4525  1.9443
 5484SOL     OW19853   2.222   3.896   0.196  0.3680 -0.8550 -0.1440
 5484SOL    HW119854   2.314   3.910   0.217  0.2241 -0.9836  0.6107
 5484SOL    HW219855   2.223   3.831   0.126  0.8313 -1.5264  0.4683
 5485SOL     OW19856   1.425   4.368   4.383 -0.0988  0.2661 -0.1359
 5485SOL    HW119857   1.354   4.342   4.441 -1.2190 -1.2649 -2.0917
 5485SOL    HW219858   1.405   4.458   4.358  0.2947  0.8851  1.5810
 5486SOL     OW19859   4.934   5.604   2.456  0.0851 -0.2044 -0.0747
 5486SOL    HW119860   4.953   5.572   2.544  1.1894 -0.4761 -0.3979
 5486SOL    HW219861   4.889   5.531   2.412  3.3139 -1.7714 -1.0793
 5487SOL     OW19862   0.527   0.739   1.128  0.1469 -0.0709  0.5382
 5487SOL    HW119863   0.484   0.702   1.205  0.0228 -0.2945  0.3648
 5487SOL    HW219864   0.465   0.804   1.095  0.2295  0.0716  0.6678
 5488SOL     OW19865   8.689   4.178   4.432 -0.3065 -0.2880  0.0816
 5488SOL    HW119866   8.763   4.119   4.425 -0.2270  0.0024 -2.1112
 5488SOL    HW219867   8.687   4.203   4.524  2.2336 -0.3970  0.2263
 5489SOL     OW19868   2.420   1.079   0.579 -0.2925  0.1004 -0.0003
 5489SOL    HW119869   2.470   1.160   0.565 -0.1488  0.0129  0.0054
 5489SOL    HW219870   2.403   1.078   0.674  0.2664 -0.2014  0.1030
 5490SOL     OW19871   2.080   3.591   9.626 -0.0707 -0.4078  0.3902
 5490SOL    HW119872   2.025   3.628   9.556  0.1085 -0.7853  0.0435
 5490SOL    HW219873   2.102   3.666   9.681 -0.7294 -0.2093  0.3919
 5491SOL     OW19874   3.046   2.310   2.009 -0.1089 -0.5836 -0.2450
 5491SOL    HW119875   3.059   2.387   2.065  0.5112 -0.2064 -0.8786
 5491SOL    HW219876   3.088   2.238   2.056  1.5894 -0.0035 -0.8200
 5492SOL     OW19877   3.414   5.061   6.167 -0.2184  0.0272  0.1179
 5492SOL    HW119878   3.428   5.150   6.200 -0.7682  0.3820 -0.5740
 5492SOL    HW219879   3.501   5.022   6.166 -0.0751  0.2827  1.1770
 5493SOL     OW19880   0.694   9.707   0.037  0.3782 -0.1408 -0.1295
 5493SOL    HW119881   0.773   9.684   0.087 -0.6544 -0.0053  1.6471
 5493SOL    HW219882   0.680   9.632  -0.021 -0.5411 -2.1988  2.5701
 5494SOL     OW19883   7.461   3.892   4.810  0.1282 -0.3709  0.0372
 5494SOL    HW119884   7.452   3.799   4.833  0.0140 -0.0681  1.2911
 5494SOL    HW219885   7.461   3.938   4.894  1.2087  0.6892 -0.5159
 5495SOL     OW19886   8.861   8.072   4.657 -0.1438  0.4368 -0.3823
 5495SOL    HW119887   8.856   7.978   4.673  2.6746  0.5764  2.2729
 5495SOL    HW219888   8.860   8.111   4.745  0.0049  2.8124 -1.3635
 5496SOL     OW19889  10.739   7.370   9.486  0.0160 -0.2303  0.2004
 5496SOL    HW119890  10.701   7.447   9.444 -0.8960 -1.0497 -0.5296
 5496SOL    HW219891  10.707   7.296   9.434 -0.0589 -1.1844  1.5507
 5497SOL     OW19892   9.057   8.896   0.278  0.0618 -0.2660  0.1444
 5497SOL    HW119893   9.034   8.821   0.224  1.7444  0.7877 -2.1736
 5497SOL    HW219894   8.987   8.959   0.262  0.2346 -0.1884 -0.2946
 5498SOL     OW19895   2.593   7.599   8.351  0.1278 -0.3080 -0.1281
 5498SOL    HW119896   2.544   7.665   8.401  0.2062 -0.7963  0.6157
 5498SOL    HW219897   2.681   7.602   8.388  0.2174 -0.5922 -0.3184
 5499SOL     OW19898   9.755   1.069  10.422 -0.5755 -0.1744 -0.2632
 5499SOL    HW119899   9.828   1.095  10.478 -0.7568 -1.3533  0.5630
 5499SOL    HW219900   9.731   0.981  10.453 -0.8427 -0.7688 -2.0399
 5500SOL     OW19901   0.909   5.151   2.190  0.2302  0.1971 -0.0221
 5500SOL    HW119902   0.873   5.184   2.107 -0.3075 -0.8555 -0.2282
 5500SOL    HW219903   0.916   5.229   2.245 -0.7417  0.7087 -0.5719
 5501SOL     OW19904   2.141   5.884   0.820  0.4843 -0.1521 -0.0107
 5501SOL    HW119905   2.169   5.854   0.733  0.2547 -0.9606  0.1860
 5501SOL    HW219906   2.150   5.979   0.816  0.2348 -0.1575 -1.0098
 5502SOL     OW19907   7.082   3.630   3.628 -0.0310 -0.2278  0.0290
 5502SOL    HW119908   7.003   3.600   3.583 -0.6785 -0.7780  1.4649
 5502SOL    HW219909   7.151   3.570   3.598 -0.4662 -0.6314 -0.1816
 5503SOL     OW19910   6.279   4.159   8.958 -0.1397 -0.0509  0.1743
 5503SOL    HW119911   6.364   4.116   8.971  0.2609  0.8917  0.7341
 5503SOL    HW219912   6.233   4.147   9.041 -0.7079 -0.8547 -0.2400
 5504SOL     OW19913   3.602   4.092   0.953 -0.3695 -0.5790  0.0850
 5504SOL    HW119914   3.609   4.175   1.000  0.6817  0.1797 -1.3567
 5504SOL    HW219915   3.664   4.100   0.881 -0.5735 -2.4554 -0.3375
 5505SOL     OW19916   1.800   9.232   5.801  0.1733 -0.7148 -0.4352
 5505SOL    HW119917   1.817   9.139   5.785 -0.6613 -0.7319 -1.3921
 5505SOL    HW219918   1.885   9.274   5.791  0.2536 -1.1521 -1.9846
 5506SOL     OW19919   9.853   4.355   8.793 -0.2218  0.3046 -0.1889
 5506SOL    HW119920   9.869   4.446   8.769 -0.3318 -0.0537 -1.7321
 5506SOL    HW219921   9.863   4.353   8.888  1.4025  1.5940 -0.2999
 5507SOL     OW19922   5.704   7.120   3.275 -0.2195 -0.2742  0.2446
 5507SOL    HW119923   5.639   7.068   3.229 -0.2459  0.1604 -0.2256
 5507SOL    HW219924   5.654   7.168   3.341 -0.3652 -0.0388 -0.0307
 5508SOL     OW19925   0.329   3.785  10.521  0.0468  0.8843 -0.0092
 5508SOL    HW119926   0.234   3.797  10.526  0.1348  0.9240  2.4707
 5508SOL    HW219927   0.364   3.873  10.512 -0.1443  0.7906 -2.2710
 5509SOL     OW19928   1.454   2.944  10.033  0.1969 -0.1095  0.5669
 5509SOL    HW119929   1.501   2.863  10.054 -0.6579 -0.6970  0.2569
 5509SOL    HW219930   1.363   2.926  10.056 -0.4445 -0.0999 -1.6877
 5510SOL     OW19931   5.163   4.980   6.723 -0.2074 -0.1146 -0.4187
 5510SOL    HW119932   5.091   5.034   6.756 -0.5010 -0.2582 -0.8108
 5510SOL    HW219933   5.125   4.893   6.713 -0.4630  0.1497 -2.1781
 5511SOL     OW19934   9.493   9.551   6.626 -0.3568  0.1150 -0.1299
 5511SOL    HW119935   9.538   9.535   6.709 -1.0833  0.9918  0.4602
 5511SOL    HW219936   9.563   9.567   6.563  0.1849  0.4372  0.5406
 5512SOL     OW19937   9.631  10.275  10.177  0.2320  0.0793  0.1671
 5512SOL    HW119938   9.704  10.336  10.170  0.9988 -0.8618 -0.2033
 5512SOL    HW219939   9.575  10.312  10.246 -0.2799  2.1545 -1.2454
 5513SOL     OW19940   3.123   1.122   3.269  0.1980  0.1994  0.0110
 5513SOL    HW119941   3.075   1.198   3.302  1.2019  1.2577 -0.9177
 5513SOL    HW219942   3.071   1.091   3.195  0.9530  1.3982 -1.0504
 5514SOL     OW19943   6.201   9.959   8.179 -0.4914  0.1211  0.4410
 5514SOL    HW119944   6.147   9.971   8.256  0.2452 -0.5248  1.0763
 5514SOL    HW219945   6.154   9.894   8.126  0.2256 -1.3980  1.5863
 5515SOL     OW19946   3.382   3.238   6.535 -0.5504 -0.0787 -0.1212
 5515SOL    HW119947   3.450   3.172   6.550 -0.1272  0.4375  0.2646
 5515SOL    HW219948   3.331   3.239   6.615 -0.2322  0.4360  0.0757
 5516SOL     OW19949   8.018   2.543   7.106 -0.0017  0.0572 -0.7381
 5516SOL    HW119950   8.044   2.633   7.091  1.0453 -0.4201 -2.0661
 5516SOL    HW219951   8.066   2.493   7.040 -1.6275 -1.3045 -0.9876
 5517SOL     OW19952  10.552   9.104   6.878 -0.2319  0.2070  0.4304
 5517SOL    HW119953  10.584   9.041   6.813 -1.0185 -1.7682  1.8485
 5517SOL    HW219954  10.535   9.184   6.827  0.0083 -0.9661 -1.6247
 5518SOL     OW19955   5.615   2.117   9.005 -0.4631  0.0746  0.7942
 5518SOL    HW119956   5.597   2.030   8.969 -1.1033  0.6826 -0.4045
 5518SOL    HW219957   5.565   2.177   8.949  3.5122  1.7278 -1.4127
 5519SOL     OW19958   3.385   2.354   8.079 -0.0500  0.3605 -0.5946
 5519SOL    HW119959   3.355   2.434   8.123  1.4305  0.7105 -0.1714
 5519SOL    HW219960   3.419   2.299   8.150 -2.2643 -1.2917 -0.6732
 5520SOL     OW19961   0.642   4.485   2.701 -0.4362 -0.0456  0.2010
 5520SOL    HW119962   0.728   4.457   2.670  0.7244  2.0250  1.2810
 5520SOL    HW219963   0.639   4.458   2.793 -1.3433 -0.9191 -0.0761
 5521SOL     OW19964   6.176   0.648   6.289 -0.3601 -0.3374 -0.5835
 5521SOL    HW119965   6.199   0.640   6.381 -0.7592 -0.4716 -0.4960
 5521SOL    HW219966   6.081   0.642   6.287 -0.5047  1.4690 -0.8039
 5522SOL     OW19967   2.461   9.523   6.401  0.2808  0.7041 -0.1538
 5522SOL    HW119968   2.466   9.537   6.307 -0.9711  2.2036 -0.0354
 5522SOL    HW219969   2.378   9.565   6.427 -0.2872 -1.2247  1.3481
 5523SOL     OW19970   5.283   7.433   7.471  0.0438  0.4796 -0.0067
 5523SOL    HW119971   5.210   7.486   7.438 -0.2307 -0.1536 -0.4452
 5523SOL    HW219972   5.295   7.462   7.561  0.8617  2.3100 -0.6617
 5524SOL     OW19973   0.941   3.860   8.937  0.1125  0.0250 -0.2514
 5524SOL    HW119974   0.912   3.769   8.943 -0.2610  0.1525 -0.1128
 5524SOL    HW219975   0.942   3.879   8.844 -1.2466  0.3327 -0.2262
 5525SOL     OW19976   7.537   9.707   3.575  0.1364 -0.1445 -0.0268
 5525SOL    HW119977   7.632   9.708   3.566  0.3736 -0.4738  2.0479
 5525SOL    HW219978   7.511   9.798   3.558  1.0121  0.3140  0.9849
 5526SOL     OW19979   5.286   5.753   9.698 -0.1745  0.1352 -0.2848
 5526SOL    HW119980   5.279   5.659   9.682 -0.8269  0.0453  0.4694
 5526SOL    HW219981   5.222   5.792   9.638  1.8039  0.3360 -2.4072
 5527SOL     OW19982   8.779   1.101   7.291  0.8490  0.3327 -0.1678
 5527SOL    HW119983   8.690   1.084   7.322 -0.1101  2.8417 -1.3170
 5527SOL    HW219984   8.806   1.019   7.250 -0.9776 -0.4206  0.0428
 5528SOL     OW19985   9.046   5.311  10.072 -0.3271 -0.7422 -0.2983
 5528SOL    HW119986   9.087   5.381  10.022 -0.5500 -0.8303 -0.6047
 5528SOL    HW219987   9.105   5.296  10.146 -1.1072  0.9718  0.7486
 5529SOL     OW19988   6.112  10.755   8.665  0.1291  0.4002  0.3705
 5529SOL    HW119989   6.024  10.766   8.701 -0.4215  0.4304 -0.9371
 5529SOL    HW219990   6.170  10.791   8.732 -0.8687  0.6633  1.1161
 5530SOL     OW19991   0.478   3.872   8.408  0.0346  0.9530 -0.4930
 5530SOL    HW119992   0.567   3.902   8.424  0.5754  0.6283 -2.5931
 5530SOL    HW219993   0.489   3.786   8.365 -1.2208  1.2962 -1.5797
 5531SOL     OW19994  10.634   0.685   7.865  0.1926 -0.6223 -0.1745
 5531SOL    HW119995  10.661   0.601   7.829  3.1289 -0.0121  0.3088
 5531SOL    HW219996  10.642   0.675   7.960  0.2818  0.1112 -0.0967
 5532SOL     OW19997   0.963   6.415   7.338  0.1309 -0.1848 -0.2870
 5532SOL    HW119998   0.897   6.482   7.319  1.4298  0.5735 -2.3753
 5532SOL    HW219999   1.036   6.462   7.376 -0.1155 -0.9084  1.1803
 5533SOL     OW20000   3.610   6.047   3.560  0.4750 -0.3620  0.0325
 5533SOL    HW120001   3.641   6.136   3.578 -0.9458  0.1175  0.2316
 5533SOL    HW220002   3.578   6.051   3.470  0.3092 -0.6540  0.0785
 5534SOL     OW20003   5.515   7.583  10.639 -0.0822  0.1436 -0.3285
 5534SOL    HW120004   5.546   7.603  10.550  0.9332 -0.5886 -0.1614
 5534SOL    HW220005   5.510   7.487  10.640 -1.4439  0.2023 -0.0238
 5535SOL     OW20006   2.013  10.667   4.651  0.3549 -0.1935  0.7457
 5535SOL    HW120007   1.919  10.649   4.653  0.1258  0.4480 -1.4571
 5535SOL    HW220008   2.054  10.580   4.651 -0.2586 -0.4901  0.9411
 5536SOL     OW20009  10.742   8.448   3.774 -0.5641  0.5837 -0.5716
 5536SOL    HW120010  10.710   8.538   3.765 -0.9458  0.3761 -1.4267
 5536SOL    HW220011  10.664   8.396   3.792 -0.0864  0.6827  2.2760
 5537SOL     OW20012   6.404   4.359   8.367 -0.4059  0.2338 -0.1455
 5537SOL    HW120013   6.441   4.292   8.424 -1.5523  0.3983  0.8115
 5537SOL    HW220014   6.408   4.440   8.419 -1.9401  0.2913 -0.0737
 5538SOL     OW20015   8.289   0.796   8.021  0.0368 -0.3216  0.0758
 5538SOL    HW120016   8.203   0.781   7.982  0.1672  0.8395 -0.6925
 5538SOL    HW220017   8.272   0.857   8.093 -0.2434 -2.6489  2.1146
 5539SOL     OW20018   3.944   4.348   6.175  0.1401  0.3853  0.4586
 5539SOL    HW120019   3.872   4.300   6.216 -0.3786  0.6837 -0.0867
 5539SOL    HW220020   3.933   4.438   6.204 -0.1484  0.5712 -0.2157
 5540SOL     OW20021   0.064   2.312   8.415 -0.9345 -0.3267 -0.6540
 5540SOL    HW120022   0.058   2.362   8.496  1.5577  0.4589 -0.8765
 5540SOL    HW220023   0.055   2.221   8.443  0.8782 -0.1427  0.7209
 5541SOL     OW20024   3.605   7.262   7.104 -0.6968  0.3581  0.4002
 5541SOL    HW120025   3.660   7.340   7.093 -0.7437  0.4630  0.8735
 5541SOL    HW220026   3.527   7.281   7.052 -0.9131  0.8377  0.8791
 5542SOL     OW20027   0.094   3.463   5.775  0.0152 -0.0116 -0.0738
 5542SOL    HW120028   0.179   3.419   5.775  0.5285  0.8846  1.5527
 5542SOL    HW220029   0.110   3.546   5.730 -0.5737 -0.7854 -1.7667
 5543SOL     OW20030   7.190   1.277   4.381 -0.3556 -0.2245 -0.5676
 5543SOL    HW120031   7.216   1.202   4.327  0.2088 -0.6570  0.2805
 5543SOL    HW220032   7.249   1.274   4.457  0.5895  1.8749 -1.1494
 5544SOL     OW20033   5.321   5.088   1.357  0.3403 -0.1015 -0.0995
 5544SOL    HW120034   5.342   5.032   1.431 -0.3971  0.0544  0.2319
 5544SOL    HW220035   5.250   5.144   1.389  1.3167  1.2912 -0.2793
 5545SOL     OW20036   0.848   8.768   2.211  0.0060  0.3419 -0.1539
 5545SOL    HW120037   0.779   8.746   2.147 -2.0692  2.3040  1.2592
 5545SOL    HW220038   0.862   8.687   2.260 -0.8338 -0.2614 -0.8768
 5546SOL     OW20039   5.181   2.871   8.114 -0.3084  0.5215 -0.2317
 5546SOL    HW120040   5.253   2.865   8.052 -0.1386  1.1520 -0.1034
 5546SOL    HW220041   5.115   2.923   8.068 -1.0141 -0.6940 -0.6510
 5547SOL     OW20042   0.714   7.053   5.879  0.2790  0.0079  0.2858
 5547SOL    HW120043   0.640   7.093   5.832 -0.7842 -0.8521  1.1642
 5547SOL    HW220044   0.687   7.056   5.971  2.2536  1.5409  0.8712
 5548SOL     OW20045   2.584   8.109   1.259 -0.0235  0.7885 -0.1257
 5548SOL    HW120046   2.676   8.102   1.284 -0.0028  1.4050 -0.0228
 5548SOL    HW220047   2.554   8.018   1.253  0.2827  0.6097  0.9583
 5549SOL     OW20048  10.415   8.968  10.509 -0.0826  0.0481  0.7716
 5549SOL    HW120049  10.397   8.899  10.574  0.9947 -0.9538  0.0414
 5549SOL    HW220050  10.510   8.972  10.504 -0.1099  1.9206  1.0942
 5550SOL     OW20051   1.389   2.718   5.292  0.2420 -0.1068  0.0924
 5550SOL    HW120052   1.405   2.635   5.249 -0.3252 -0.2745  0.1908
 5550SOL    HW220053   1.351   2.694   5.377  2.4524  0.1696  1.2333
 5551SOL     OW20054   1.403   1.495   3.947  0.4993  0.2619 -0.0813
 5551SOL    HW120055   1.368   1.519   4.033 -0.6398 -1.0841 -0.1442
 5551SOL    HW220056   1.498   1.493   3.960  0.3626  0.4072  1.0556
 5552SOL     OW20057   0.777   9.875  10.275  0.2113  0.1749 -0.2629
 5552SOL    HW120058   0.764   9.966  10.250  0.0189  0.5117  0.9906
 5552SOL    HW220059   0.869   9.869  10.298  0.2857 -0.0237 -0.5971
 5553SOL     OW20060   4.388   8.473   0.560  0.2008 -0.1988  0.2712
 5553SOL    HW120061   4.393   8.412   0.634  0.4908  0.6472  0.9564
 5553SOL    HW220062   4.461   8.533   0.574  0.2809 -0.0521 -0.7284
 5554SOL     OW20063   6.302   4.370   7.572  0.0927  0.0167 -0.3678
 5554SOL    HW120064   6.236   4.376   7.641  1.0029 -0.8191  0.6130
 5554SOL    HW220065   6.260   4.409   7.495 -1.1208  0.5331  0.5215
 5555SOL     OW20066   9.690   4.145   7.955  0.2130 -0.5975  0.3121
 5555SOL    HW120067   9.605   4.182   7.931  0.4628 -0.9282 -1.1786
 5555SOL    HW220068   9.672   4.053   7.975  0.1990 -0.6335  0.1328
 5556SOL     OW20069   5.998  10.124   3.978  0.0461 -0.0929  0.1360
 5556SOL    HW120070   5.921  10.173   4.008  0.1860  0.8369 -0.9658
 5556SOL    HW220071   6.066  10.191   3.967  0.1172 -0.4328 -1.8107
 5557SOL     OW20072   5.886   5.894   1.604  0.3276  0.1640 -0.3015
 5557SOL    HW120073   5.940   5.821   1.634 -1.1683 -0.5470  0.7933
 5557SOL    HW220074   5.796   5.862   1.609 -0.2683  1.4563 -1.6304
 5558SOL     OW20075   0.418   1.739   7.931 -0.5003 -0.7479  0.1844
 5558SOL    HW120076   0.424   1.758   7.838  1.5375 -0.8284  0.2708
 5558SOL    HW220077   0.497   1.778   7.969 -1.9323  0.4883  2.1027
 5559SOL     OW20078   1.104   4.746   1.779 -0.2234 -0.0149  0.1419
 5559SOL    HW120079   1.174   4.810   1.795  1.0665 -1.3931  0.2816
 5559SOL    HW220080   1.079   4.715   1.866 -0.7860  0.2381  0.0725
 5560SOL     OW20081   9.126   9.673  10.880 -0.7607  0.3000 -0.1968
 5560SOL    HW120082   9.166   9.594  10.843 -0.3602  0.5989 -0.4104
 5560SOL    HW220083   9.035   9.649  10.895 -1.1238  0.3942 -2.0696
 5561SOL     OW20084   3.642   3.991   9.742  0.0219 -0.0724 -0.1659
 5561SOL    HW120085   3.689   3.911   9.766 -1.6364 -0.7902  0.8663
 5561SOL    HW220086   3.662   4.052   9.812  2.7847  1.1654 -1.8586
 5562SOL     OW20087  10.404  10.597   3.825 -0.5475  0.1767  0.0606
 5562SOL    HW120088  10.364  10.644   3.752  0.5276  0.8210 -0.1326
 5562SOL    HW220089  10.337  10.535   3.853 -1.1689  0.2727 -1.1434
 5563SOL     OW20090   5.917   1.711   9.213 -0.1854 -0.0839  0.0662
 5563SOL    HW120091   5.900   1.745   9.301 -0.9197 -0.8492  0.2403
 5563SOL    HW220092   5.974   1.636   9.228 -1.1849 -0.8746  0.0092
 5564SOL     OW20093   3.354   3.305   1.693  0.2653  0.1372  0.5284
 5564SOL    HW120094   3.320   3.364   1.761  0.8281 -1.0318  1.8666
 5564SOL    HW220095   3.290   3.234   1.688 -0.1671  0.5825 -0.7408
 5565SOL     OW20096   3.836   6.988   1.368 -0.2616  0.5246 -0.3483
 5565SOL    HW120097   3.781   6.973   1.292  0.6374  0.7346 -1.0578
 5565SOL    HW220098   3.886   7.067   1.347  1.7829 -0.7485 -0.6396
 5566SOL     OW20099   0.054   5.266   6.327  0.3775  0.5795 -0.7567
 5566SOL    HW120100   0.046   5.207   6.252 -1.4376  0.6254 -0.6489
 5566SOL    HW220101   0.123   5.327   6.303  0.0545  0.3828 -2.2544
 5567SOL     OW20102   3.991   8.277   1.706 -0.2709 -0.0867  0.2259
 5567SOL    HW120103   3.931   8.214   1.666 -1.4337  1.6544 -0.9357
 5567SOL    HW220104   4.014   8.238   1.790 -0.1375 -2.4906 -0.8372
 5568SOL     OW20105   4.459   7.582   2.502 -0.1044 -0.5660 -0.7613
 5568SOL    HW120106   4.528   7.644   2.525 -1.4626  0.3268  1.2057
 5568SOL    HW220107   4.496   7.496   2.524  0.5686 -0.1517 -0.2199
 5569SOL     OW20108  10.329   6.576   6.922 -0.1942 -0.0618  0.4797
 5569SOL    HW120109  10.266   6.604   6.989  0.0044  0.3330  0.5070
 5569SOL    HW220110  10.286   6.504   6.877 -1.2147  1.0333 -0.3592
 5570SOL     OW20111   1.130   7.498   1.998 -0.0580  0.0201  0.1817
 5570SOL    HW120112   1.047   7.457   2.021 -0.9731  1.6478 -0.0860
 5570SOL    HW220113   1.121   7.521   1.905  0.5627  0.5071  0.2332
 5571SOL     OW20114   5.068   3.999   5.411  0.6423 -0.3103 -0.0849
 5571SOL    HW120115   5.048   4.081   5.367 -0.2268 -0.8896 -0.8119
 5571SOL    HW220116   5.144   3.965   5.364  1.5671  0.4896  0.7945
 5572SOL     OW20117   7.426   4.181   9.227 -0.2396  0.1300 -0.5810
 5572SOL    HW120118   7.390   4.250   9.172  1.2379 -0.3810 -2.2853
 5572SOL    HW220119   7.437   4.107   9.168 -1.7438 -1.6163  1.1884
 5573SOL     OW20120   2.820   2.152   8.765  0.4556 -0.5403 -0.0144
 5573SOL    HW120121   2.759   2.166   8.693 -1.1986 -2.3078  0.9447
 5573SOL    HW220122   2.781   2.081   8.816  1.6453  0.5019  2.5264
 5574SOL     OW20123   3.020  10.877   9.315 -1.2202 -0.3969  0.5212
 5574SOL    HW120124   3.027  10.830   9.232 -3.6407 -1.2196  0.6940
 5574SOL    HW220125   3.043  10.813   9.382 -1.5164 -0.4265  0.5962
 5575SOL     OW20126   5.591   3.785   6.133 -0.1115  0.2132  0.1511
 5575SOL    HW120127   5.572   3.874   6.163 -0.4327  0.4567 -0.7466
 5575SOL    HW220128   5.686   3.782   6.125 -0.1036  0.5032  0.1180
 5576SOL     OW20129   2.334   3.485   9.343 -0.2241 -0.7403 -0.1752
 5576SOL    HW120130   2.320   3.449   9.431 -3.2246 -2.4651 -1.1928
 5576SOL    HW220131   2.265   3.550   9.332 -0.7322 -1.4778 -1.6471
 5577SOL     OW20132   4.222   2.803   4.184  0.1392  0.0433  0.2725
 5577SOL    HW120133   4.158   2.734   4.172 -1.9510  1.6839  1.2755
 5577SOL    HW220134   4.224   2.818   4.278  0.8646  1.0594  0.1170
 5578SOL     OW20135   5.963   4.945   1.191  0.1165 -0.0576 -0.0026
 5578SOL    HW120136   6.056   4.956   1.206  0.0687 -0.4473  0.6080
 5578SOL    HW220137   5.921   4.997   1.259 -0.1028 -0.8701  0.5018
 5579SOL     OW20138   4.825   5.397   3.466 -0.1287  0.3210 -0.1636
 5579SOL    HW120139   4.821   5.308   3.433  1.3245  0.3781 -0.5534
 5579SOL    HW220140   4.833   5.387   3.561 -1.8957  0.1085 -0.0047
 5580SOL     OW20141   5.334   7.527   9.926 -0.4994 -0.4605  0.1692
 5580SOL    HW120142   5.401   7.464   9.954 -1.0382 -0.6035  1.1904
 5580SOL    HW220143   5.370   7.613   9.950  0.3436 -0.3226 -1.4442
 5581SOL     OW20144   3.541   8.396  10.132 -0.1308  0.0420  0.7065
 5581SOL    HW120145   3.575   8.308  10.147 -0.9100 -0.1579  1.3644
 5581SOL    HW220146   3.564   8.444  10.211  0.6318  0.5547  0.1927
 5582SOL     OW20147   3.523  10.123   1.656 -0.6140  0.1700  0.4803
 5582SOL    HW120148   3.458  10.104   1.723 -0.7689  1.6503  0.7775
 5582SOL    HW220149   3.521  10.218   1.646  0.7852  0.1582 -0.2315
 5583SOL     OW20150   6.619   1.149   6.960  0.5134 -0.3390 -0.1416
 5583SOL    HW120151   6.593   1.212   7.027  1.0364 -0.0741 -0.1874
 5583SOL    HW220152   6.590   1.064   6.994  2.1910 -0.4342  1.1723
 5584SOL     OW20153   1.268   1.817   3.782 -0.5757 -0.4480  0.2408
 5584SOL    HW120154   1.176   1.802   3.804 -1.1051 -1.2530 -2.2368
 5584SOL    HW220155   1.297   1.735   3.743  0.5060  0.5250 -1.0900
 5585SOL     OW20156   4.674   7.833   4.748 -0.2674  0.9018  0.2843
 5585SOL    HW120157   4.625   7.790   4.678 -0.3401  2.0949 -0.4237
 5585SOL    HW220158   4.622   7.818   4.827  0.0813 -0.9119  0.2203
 5586SOL     OW20159   5.134   3.102   4.046  0.1132  0.1369 -0.0418
 5586SOL    HW120160   5.069   3.158   4.089 -0.4390  0.4546 -1.2635
 5586SOL    HW220161   5.207   3.161   4.026 -0.0662  0.2195 -0.4630
 5587SOL     OW20162  10.638   1.888   5.549  0.0455 -0.4795  0.3013
 5587SOL    HW120163  10.547   1.908   5.528  0.4512  1.1641 -0.0274
 5587SOL    HW220164  10.664   1.823   5.483 -0.5771 -0.1532 -0.2840
 5588SOL     OW20165   1.124   4.955   7.124 -0.2235  0.5686  0.2794
 5588SOL    HW120166   1.143   4.861   7.126  1.1262  0.8217  0.4381
 5588SOL    HW220167   1.152   4.987   7.210 -0.5375  1.1413  0.1728
 5589SOL     OW20168   2.687   7.464   0.237  0.2894  0.4517  0.0578
 5589SOL    HW120169   2.726   7.448   0.323 -0.2737  1.4619  0.5062
 5589SOL    HW220170   2.596   7.488   0.255 -0.5702 -1.7209 -0.9680
 5590SOL     OW20171   2.812   5.926   1.513 -0.6710  0.0581  0.1910
 5590SOL    HW120172   2.719   5.945   1.497 -0.8265  0.0075  0.9990
 5590SOL    HW220173   2.846   6.004   1.556 -1.1136 -1.0525  2.7756
 5591SOL     OW20174   9.625   1.669   9.633  0.0878 -0.1203 -0.8817
 5591SOL    HW120175   9.688   1.738   9.613 -0.9758  0.9011 -0.7768
 5591SOL    HW220176   9.619   1.669   9.728  2.4710 -2.5777 -0.5997
 5592SOL     OW20177   7.203   2.686   8.953  0.3243 -0.1846 -0.1636
 5592SOL    HW120178   7.138   2.638   8.901  1.2106 -0.7484 -0.7872
 5592SOL    HW220179   7.181   2.665   9.044 -0.2778 -0.4797 -0.3702
 5593SOL     OW20180  10.805   7.303   3.483 -0.2402  0.4089 -0.2493
 5593SOL    HW120181  10.817   7.229   3.423  0.4875  1.1238 -1.0085
 5593SOL    HW220182  10.890   7.312   3.527  0.5891  2.4099 -2.0759
 5594SOL     OW20183   3.497   1.955   5.862 -0.4766 -0.3494 -0.0580
 5594SOL    HW120184   3.478   2.037   5.817 -3.9684 -1.5434 -1.1410
 5594SOL    HW220185   3.430   1.951   5.931  1.8120 -0.7655  2.2667
 5595SOL     OW20186   9.321   4.078   4.224  0.4451  0.2995  0.6328
 5595SOL    HW120187   9.293   4.018   4.293 -1.3701  1.6715  1.1732
 5595SOL    HW220188   9.249   4.077   4.161  1.1833  0.5981 -0.2449
 5596SOL     OW20189   9.205   7.692   9.299 -0.0254 -0.4069  0.3294
 5596SOL    HW120190   9.237   7.740   9.375  1.6079 -0.4574 -0.2845
 5596SOL    HW220191   9.187   7.760   9.234  1.0778 -0.5183 -0.1086
 5597SOL     OW20192   5.885   7.329   6.553 -0.0312  0.1113  0.2188
 5597SOL    HW120193   5.937   7.273   6.495 -0.8333 -0.1168 -0.2928
 5597SOL    HW220194   5.947   7.360   6.618  0.3201 -1.8625  0.8724
 5598SOL     OW20195   9.758   2.231   8.843 -0.0330  0.0920 -0.4371
 5598SOL    HW120196   9.843   2.253   8.880  0.5086  2.1273 -2.7143
 5598SOL    HW220197   9.703   2.306   8.864 -1.0878 -0.8266  0.2530
 5599SOL     OW20198   2.758   7.948   1.037 -0.4571 -0.3003 -0.2512
 5599SOL    HW120199   2.745   7.861   1.000 -0.4801 -1.0507  1.4363
 5599SOL    HW220200   2.687   7.959   1.100 -0.1597  0.7242 -0.0681
 5600SOL     OW20201   1.900   5.364   0.117  0.6220 -0.2212 -0.2776
 5600SOL    HW120202   1.899   5.424   0.191  0.3602 -0.7081  0.1171
 5600SOL    HW220203   1.832   5.396   0.059  0.1299 -0.4334  0.1737
 5601SOL     OW20204   1.127   6.184   3.510 -0.1492 -0.1564  0.0787
 5601SOL    HW120205   1.148   6.151   3.423 -1.4819 -0.5535 -0.1285
 5601SOL    HW220206   1.202   6.236   3.536  1.2751 -1.9067 -0.3414
 5602SOL     OW20207   6.265   9.433   1.467  0.2038  0.4881  0.5285
 5602SOL    HW120208   6.292   9.420   1.376 -1.1426 -1.2664  0.3321
 5602SOL    HW220209   6.237   9.525   1.471  0.5055  0.6558 -0.7627
 5603SOL     OW20210   9.414   5.533   7.332  0.6544  0.3028  0.0806
 5603SOL    HW120211   9.446   5.620   7.356 -0.9021  1.2350 -1.0599
 5603SOL    HW220212   9.409   5.534   7.237  0.9019 -1.1720  0.0186
 5604SOL     OW20213   7.371   4.074   9.756 -0.1754  0.2941  0.4144
 5604SOL    HW120214   7.333   4.143   9.702 -0.4305 -0.5586 -0.5425
 5604SOL    HW220215   7.298   4.041   9.808 -0.4959 -0.5012 -0.5084
 5605SOL     OW20216   3.113   6.221   0.404 -0.2535  0.1873  0.5011
 5605SOL    HW120217   3.172   6.266   0.465 -0.4529 -0.6658  1.3288
 5605SOL    HW220218   3.169   6.157   0.360 -0.3076  0.2042  0.4060
 5606SOL     OW20219   9.630   9.494   8.577  0.4392 -0.4466  0.2134
 5606SOL    HW120220   9.686   9.530   8.508  0.6203  0.4882  0.8256
 5606SOL    HW220221   9.684   9.499   8.656 -0.7434  1.1875  0.9642
 5607SOL     OW20222   2.324   9.956   1.959  0.3246 -0.5832  0.1269
 5607SOL    HW120223   2.300   9.950   1.867  0.3993 -0.3068  0.0881
 5607SOL    HW220224   2.308  10.047   1.982  1.2548 -0.4074  0.1219
 5608SOL     OW20225   1.393   3.061   0.924  0.0925  0.0770 -0.4246
 5608SOL    HW120226   1.407   3.097   1.012  1.6126 -0.4203 -0.4290
 5608SOL    HW220227   1.481   3.040   0.893 -0.4843 -0.4087 -1.7984
 5609SOL     OW20228   2.982   5.218   7.689 -0.0655 -0.1907 -0.2701
 5609SOL    HW120229   3.006   5.128   7.669  0.2357 -0.6073  1.6873
 5609SOL    HW220230   2.892   5.213   7.720  0.0348  0.1240  0.0888
 5610SOL     OW20231   5.326   1.802   2.461 -0.2119  0.0631 -0.1733
 5610SOL    HW120232   5.300   1.731   2.402 -0.6419  0.3497 -0.3298
 5610SOL    HW220233   5.374   1.864   2.406 -0.0428  0.0103 -0.0855
 5611SOL     OW20234   8.744   5.197   0.894 -0.0254 -0.0852 -0.2817
 5611SOL    HW120235   8.798   5.142   0.951  0.5133 -0.2372 -0.9354
 5611SOL    HW220236   8.677   5.139   0.859 -0.1147 -0.0789 -0.1230
 5612SOL     OW20237   9.931   7.414   3.959  0.3871 -0.1942 -0.1860
 5612SOL    HW120238   9.937   7.486   4.021 -0.5292 -0.2408 -0.0219
 5612SOL    HW220239  10.017   7.410   3.918  0.2792  1.3695 -0.6214
 5613SOL     OW20240   3.211   7.864   2.696 -0.6564 -0.6092 -0.4283
 5613SOL    HW120241   3.181   7.916   2.770 -0.9434  1.5521 -1.9805
 5613SOL    HW220242   3.307   7.866   2.704 -0.7044 -1.4712  0.5590
 5614SOL     OW20243   4.033   8.828   8.378 -0.0498  0.0030 -0.0770
 5614SOL    HW120244   3.945   8.792   8.382 -0.2741  0.6375  1.9849
 5614SOL    HW220245   4.023   8.914   8.336 -0.2479 -0.3459 -0.7443
 5615SOL     OW20246  10.038   8.015   2.603  0.6079 -0.1997  0.0885
 5615SOL    HW120247   9.961   8.028   2.548  1.4474 -0.0984 -1.0892
 5615SOL    HW220248  10.076   7.933   2.573 -1.3374 -2.5908  3.5154
 5616SOL     OW20249   9.245   2.820   6.471 -0.1499  0.3150 -0.0155
 5616SOL    HW120250   9.167   2.822   6.527  0.4118 -1.5474  0.9102
 5616SOL    HW220251   9.315   2.855   6.527  0.0588  0.1096 -0.1469
 5617SOL     OW20252   0.737   3.896   5.257  0.1888  0.0841  0.2636
 5617SOL    HW120253   0.796   3.969   5.274  0.7567 -1.0350  4.4531
 5617SOL    HW220254   0.650   3.928   5.284 -0.3755  0.3938 -1.7915
 5618SOL     OW20255   2.492   4.239   6.038  0.3711  0.2010  0.1251
 5618SOL    HW120256   2.471   4.232   5.945  1.3195 -1.9816 -0.0016
 5618SOL    HW220257   2.588   4.244   6.040  0.8351 -4.3582  0.9714
 5619SOL     OW20258   4.309   7.273   3.932 -0.0847  0.4339 -0.0389
 5619SOL    HW120259   4.329   7.265   3.839  0.0474  0.2018  0.0086
 5619SOL    HW220260   4.271   7.188   3.956  0.0745  0.4194  0.1652
 5620SOL     OW20261   6.107   7.917   0.024  0.1698  0.8789 -0.6563
 5620SOL    HW120262   6.105   7.869   0.107 -0.7098  0.2799 -1.0072
 5620SOL    HW220263   6.070   8.003   0.046 -2.0515  0.0181 -0.8219
 5621SOL     OW20264   4.441  10.240   7.257 -0.2359 -0.5419  0.0706
 5621SOL    HW120265   4.474  10.312   7.202 -0.5775 -0.4332  0.0065
 5621SOL    HW220266   4.519  10.191   7.281 -0.0538 -0.4469 -0.3126
 5622SOL     OW20267   1.602   5.533   8.609 -0.0874  0.0832  0.0442
 5622SOL    HW120268   1.606   5.461   8.671 -1.1381  0.0561  0.1021
 5622SOL    HW220269   1.693   5.559   8.596  0.1764 -0.1284  1.3380
 5623SOL     OW20270   2.530   6.719   6.379 -0.1011 -0.1387 -0.0219
 5623SOL    HW120271   2.509   6.806   6.414  0.7654 -0.0612  0.3379
 5623SOL    HW220272   2.445   6.680   6.358 -0.4719  1.1386 -1.0469
 5624SOL     OW20273   1.013   3.129  10.159  0.1638  0.3445 -0.0170
 5624SOL    HW120274   1.083   3.137  10.224 -0.7840 -1.8405  1.4062
 5624SOL    HW220275   0.970   3.045  10.180 -3.3871  1.8972 -0.2751
 5625SOL     OW20276   9.857   1.844   2.992  0.3569  0.1493  0.5260
 5625SOL    HW120277   9.887   1.904   2.924  0.7743  1.3015  1.6999
 5625SOL    HW220278   9.761   1.844   2.982  0.4483 -0.2853 -0.5217
 5626SOL     OW20279   5.842   3.136   1.577 -0.0862 -0.7723 -0.1944
 5626SOL    HW120280   5.913   3.128   1.513  0.4653 -3.4315  0.6386
 5626SOL    HW220281   5.887   3.144   1.661 -0.7872 -1.0380  0.2143
 5627SOL     OW20282   6.773   4.658   9.028 -0.4937  0.1271 -0.0692
 5627SOL    HW120283   6.778   4.565   9.009  0.6367 -0.6146  3.1463
 5627SOL    HW220284   6.777   4.663   9.124 -1.9178  3.4247 -0.0408
 5628SOL     OW20285   1.324   7.860   9.759  0.2187  0.5153 -0.0018
 5628SOL    HW120286   1.294   7.949   9.776  1.2513  0.9515 -0.3881
 5628SOL    HW220287   1.314   7.850   9.664 -1.1252 -0.2621  0.1881
 5629SOL     OW20288   7.080   5.694   1.754 -0.4729  0.2296  0.6165
 5629SOL    HW120289   7.092   5.782   1.792  1.1192 -0.3717  1.6067
 5629SOL    HW220290   7.091   5.707   1.660 -0.1143  1.0663  0.7627
 5630SOL     OW20291   8.747   8.040   9.535 -0.2597  0.0838 -0.0866
 5630SOL    HW120292   8.720   7.952   9.512 -2.5178  0.6385  0.1426
 5630SOL    HW220293   8.768   8.082   9.452  1.5778 -0.8517 -0.1331
 5631SOL     OW20294   6.525   4.255   7.668 -0.3189 -0.1451 -0.3087
 5631SOL    HW120295   6.495   4.165   7.671 -1.5900  0.2756  0.5496
 5631SOL    HW220296   6.452   4.304   7.630  0.6100  0.4396 -1.4070
 5632SOL     OW20297  10.868  10.246   1.104 -0.2048  0.6072  0.3555
 5632SOL    HW120298  10.835  10.208   1.186 -0.9077  1.2869  0.4035
 5632SOL    HW220299  10.896  10.171   1.052 -0.4654  0.1121  0.9163
 5633SOL     OW20300  10.428   0.826  10.580  0.2838  0.4573 -0.5746
 5633SOL    HW120301  10.474   0.745  10.558 -0.5510 -0.0045 -0.6573
 5633SOL    HW220302  10.336   0.800  10.588  0.3048  0.8748  1.8892
 5634SOL     OW20303   5.024   7.869   1.477 -0.1013  0.2635 -0.1879
 5634SOL    HW120304   5.032   7.963   1.461 -2.3248  0.9021  1.8247
 5634SOL    HW220305   4.940   7.846   1.436 -0.3157 -0.4787  0.6485
 5635SOL     OW20306   2.167  10.315   0.581 -0.4959 -0.4607 -0.4962
 5635SOL    HW120307   2.240  10.262   0.550 -0.7485 -1.6729  0.8852
 5635SOL    HW220308   2.204  10.403   0.590  0.8693 -1.0869  0.3595
 5636SOL     OW20309   0.537   5.301   1.579 -0.1579  0.5579  0.2362
 5636SOL    HW120310   0.511   5.222   1.626 -0.3425  0.9019  0.7256
 5636SOL    HW220311   0.541   5.369   1.647  2.6689  0.3956  0.3288
 5637SOL     OW20312  10.054   5.675   4.913 -0.1911 -0.0918  0.7164
 5637SOL    HW120313  10.017   5.712   4.833 -0.3257 -1.6258  0.0397
 5637SOL    HW220314  10.018   5.587   4.918 -0.2543 -0.0069  2.5277
 5638SOL     OW20315   3.994  10.452   9.338 -0.1350  0.5183 -0.3459
 5638SOL    HW120316   4.068  10.435   9.396 -1.4165  1.4456  1.6864
 5638SOL    HW220317   3.937  10.511   9.388 -2.0803  0.1361 -1.9603
 5639SOL     OW20318   7.758   8.113  10.433  0.5089  0.0073 -0.3066
 5639SOL    HW120319   7.763   8.194  10.483  0.1030 -0.0116 -0.2330
 5639SOL    HW220320   7.777   8.139  10.343  0.4384  0.1715 -0.2739
 5640SOL     OW20321   2.398   8.655   8.303  0.1619 -0.6990  0.1420
 5640SOL    HW120322   2.404   8.567   8.339  1.6687 -1.3601 -1.5532
 5640SOL    HW220323   2.378   8.642   8.210  0.9487  0.7106 -0.2532
 5641SOL     OW20324   8.723   7.929   8.703 -0.3523 -0.2899 -0.1405
 5641SOL    HW120325   8.668   8.007   8.708  0.8230  0.5879 -0.3740
 5641SOL    HW220326   8.692   7.883   8.626  2.0283  2.5040 -3.0833
 5642SOL     OW20327   2.463   3.128   2.663 -0.0721 -0.0440 -0.1673
 5642SOL    HW120328   2.407   3.200   2.691  0.8393  1.1967 -1.3619
 5642SOL    HW220329   2.548   3.147   2.703  0.1047 -0.6177 -0.2598
 5643SOL     OW20330   3.807   4.879   7.477  0.7053 -0.3493 -0.3980
 5643SOL    HW120331   3.852   4.964   7.477  1.4961 -0.7527 -0.8394
 5643SOL    HW220332   3.752   4.880   7.399  0.1276  0.0565  0.0147
 5644SOL     OW20333  10.765   6.158   1.124 -0.2814  0.0261  0.2381
 5644SOL    HW120334  10.711   6.162   1.046 -0.3160 -3.4447 -0.0747
 5644SOL    HW220335  10.712   6.198   1.193 -2.6381 -1.7513 -0.4136
 5645SOL     OW20336  10.315   5.490   2.978  0.0899 -0.7188  0.5711
 5645SOL    HW120337  10.225   5.497   3.009 -0.0277  2.1436 -0.1233
 5645SOL    HW220338  10.307   5.445   2.894 -0.8073  0.0479  0.2226
 5646SOL     OW20339   6.057   0.684   0.086  0.1772 -0.0591  0.4370
 5646SOL    HW120340   6.096   0.597   0.098 -1.1474 -0.8409 -0.5913
 5646SOL    HW220341   6.036   0.687  -0.007  0.3228  1.4406  0.4417
 5647SOL     OW20342   3.616   5.068   8.679 -1.0746  0.4654  0.3344
 5647SOL    HW120343   3.640   4.986   8.637 -1.1530 -0.0268  1.2393
 5647SOL    HW220344   3.605   5.130   8.606  0.7174  0.1391 -0.2610
 5648SOL     OW20345   2.495   4.374   9.908 -0.2204  0.4753  0.4722
 5648SOL    HW120346   2.507   4.350   9.816 -2.4914 -0.3221  0.3287
 5648SOL    HW220347   2.546   4.309   9.957 -1.0639 -0.7128 -0.1683
 5649SOL     OW20348   6.068   5.415   5.029  0.2346  0.7173 -0.7477
 5649SOL    HW120349   5.996   5.385   4.974 -0.6028  0.1758  0.6046
 5649SOL    HW220350   6.059   5.366   5.111  1.7004  1.1768 -0.2715
 5650SOL     OW20351   4.827   5.218   5.484  0.1249  0.0641 -0.5469
 5650SOL    HW120352   4.733   5.234   5.491  0.1467 -0.5375  2.2605
 5650SOL    HW220353   4.834   5.123   5.473  0.4336  0.1685 -1.3838
 5651SOL     OW20354   9.555   0.715   4.170 -0.4513  0.2035  0.2288
 5651SOL    HW120355   9.629   0.726   4.230 -0.1817  2.6137 -0.4705
 5651SOL    HW220356   9.591   0.661   4.100  0.8683  1.7563 -0.3610
 5652SOL     OW20357   1.177   7.438   5.673  0.3157  0.0398 -0.1216
 5652SOL    HW120358   1.151   7.348   5.691 -0.3951  0.1867 -0.3940
 5652SOL    HW220359   1.263   7.431   5.631  0.0432 -0.5325 -0.5750
 5653SOL     OW20360   1.718   6.679   6.317 -0.4418  0.7070 -0.0883
 5653SOL    HW120361   1.661   6.620   6.267 -1.9144  1.8999  0.0898
 5653SOL    HW220362   1.804   6.670   6.276 -1.2541  0.4752 -1.8356
 5654SOL     OW20363   5.778   6.915   9.381 -0.0849 -0.0935  0.1879
 5654SOL    HW120364   5.795   6.969   9.459  1.9320 -1.4621  0.7831
 5654SOL    HW220365   5.848   6.849   9.382 -1.7386 -1.9993 -1.1415
 5655SOL     OW20366   7.553   5.644   0.859  0.7019 -0.1803  0.5048
 5655SOL    HW120367   7.617   5.641   0.789  1.1863 -2.8006  0.9350
 5655SOL    HW220368   7.585   5.581   0.924 -2.3321 -1.7727  0.6677
 5656SOL     OW20369   5.144   4.210   3.017 -0.2819  0.0391 -0.3809
 5656SOL    HW120370   5.216   4.151   2.996  1.3825  1.6049  0.6782
 5656SOL    HW220371   5.121   4.250   2.933 -0.1668 -0.7229 -0.7861
 5657SOL     OW20372   6.913   2.129   8.895  0.2935  0.0465 -0.6480
 5657SOL    HW120373   6.859   2.117   8.974  1.0655  0.9669  0.0429
 5657SOL    HW220374   6.876   2.207   8.853 -0.0861 -0.4163 -1.1838
 5658SOL     OW20375   4.807   2.643   8.569  0.6453  0.0831 -0.2436
 5658SOL    HW120376   4.830   2.674   8.482  0.0692 -0.2552 -0.5190
 5658SOL    HW220377   4.764   2.717   8.611  2.6331  0.9110  0.4659
 5659SOL     OW20378   6.884   4.176   3.271  0.0307  0.3245 -0.1117
 5659SOL    HW120379   6.867   4.187   3.178  0.3796  0.4401 -0.1615
 5659SOL    HW220380   6.802   4.202   3.313  0.4140  1.9444 -0.2932
 5660SOL     OW20381   2.278   5.381   2.089 -0.0700  0.1867 -0.0929
 5660SOL    HW120382   2.279   5.446   2.019  1.5261  0.7480  0.4097
 5660SOL    HW220383   2.277   5.297   2.044  0.7226  0.5468 -0.8012
 5661SOL     OW20384   2.723   0.318  10.891  0.1622 -0.4375  0.0311
 5661SOL    HW120385   2.657   0.306  10.823 -0.7930  1.1245  0.6162
 5661SOL    HW220386   2.696   0.258  10.961 -0.0674 -0.5212 -0.1282
 5662SOL     OW20387   1.364   0.136   7.954 -0.0621  0.7409  0.7442
 5662SOL    HW120388   1.431   0.067   7.947 -0.4041  0.3093  1.5486
 5662SOL    HW220389   1.380   0.176   8.040 -0.5340  0.9508  0.7377
 5663SOL     OW20390   1.917   7.846   5.770  0.0587  0.0113  0.7942
 5663SOL    HW120391   1.823   7.842   5.754  0.1880 -0.7580  0.1653
 5663SOL    HW220392   1.937   7.939   5.772 -0.5832  0.1698  0.0988
 5664SOL     OW20393   4.318   5.593   3.666  0.3181 -0.1416 -0.0458
 5664SOL    HW120394   4.281   5.663   3.613  1.7333  1.0002  0.4172
 5664SOL    HW220395   4.406   5.580   3.631  0.0538 -1.8107 -0.2085
 5665SOL     OW20396   0.815   7.504   4.391 -0.0253  0.1558 -0.3263
 5665SOL    HW120397   0.898   7.463   4.366 -0.8040 -1.5418 -0.2859
 5665SOL    HW220398   0.805   7.483   4.483  0.1892  1.6550  0.0625
 5666SOL     OW20399   4.657   0.707   3.689 -0.0300 -0.4141  0.1987
 5666SOL    HW120400   4.708   0.640   3.735  0.3425 -0.2790 -0.0103
 5666SOL    HW220401   4.714   0.783   3.686 -0.2550 -0.2510 -0.0167
 5667SOL     OW20402   6.965   5.375   5.092  0.2142  0.1747 -0.1140
 5667SOL    HW120403   6.887   5.426   5.069  2.0327  2.3063 -2.1447
 5667SOL    HW220404   6.970   5.307   5.025  0.7017  0.8007 -0.7318
 5668SOL     OW20405   1.454   0.956   0.045  0.4173  0.0689  0.1974
 5668SOL    HW120406   1.530   0.898   0.046  0.1342 -0.3085  0.0673
 5668SOL    HW220407   1.402   0.928   0.121 -0.9791 -1.5578 -1.2655
 5669SOL     OW20408   4.833   6.144   3.857  0.1266 -0.0844  0.2112
 5669SOL    HW120409   4.775   6.085   3.906 -0.4103 -0.4812 -0.8529
 5669SOL    HW220410   4.915   6.096   3.848  0.4815  0.2858  1.3161
 5670SOL     OW20411   3.247   8.163   7.976 -0.0988  0.5258 -0.0362
 5670SOL    HW120412   3.342   8.166   7.965  0.0033  0.5435  0.8102
 5670SOL    HW220413   3.225   8.247   8.016 -0.4890  0.5777 -0.3575
 5671SOL     OW20414  10.053   8.415   7.432 -0.3396 -0.0292  0.1445
 5671SOL    HW120415  10.078   8.330   7.469  0.0118  0.0369  0.0696
 5671SOL    HW220416  10.098   8.479   7.488  1.2491  0.0410 -1.1371
 5672SOL     OW20417   7.355  10.285   8.404  0.0330  0.3673  0.4270
 5672SOL    HW120418   7.322  10.326   8.485  0.9251  3.2217 -0.5463
 5672SOL    HW220419   7.402  10.355   8.359 -0.6181 -1.0510 -2.7053
 5673SOL     OW20420   1.508   9.100   2.302 -0.2595  0.2220  0.2087
 5673SOL    HW120421   1.561   9.048   2.363 -3.0124 -2.0725  0.9007
 5673SOL    HW220422   1.562   9.175   2.280  2.0734 -0.4460  3.0806
 5674SOL     OW20423   2.548   7.398   4.748 -0.2383 -0.4769  0.0249
 5674SOL    HW120424   2.561   7.320   4.694  0.4872  0.0490 -0.5786
 5674SOL    HW220425   2.576   7.471   4.693  0.3694  0.0977  1.0553
 5675SOL     OW20426   3.849   0.160   0.403 -0.4921  0.3253  0.3790
 5675SOL    HW120427   3.781   0.226   0.421 -0.6493 -0.2023  1.8674
 5675SOL    HW220428   3.800   0.085   0.369 -0.6360  0.0278  1.2316
 5676SOL     OW20429   1.498   2.218   8.179  0.0607  0.8220 -0.2364
 5676SOL    HW120430   1.548   2.271   8.118  0.5946 -0.8965 -1.3702
 5676SOL    HW220431   1.409   2.217   8.144  0.4094 -0.3199 -1.1333
 5677SOL     OW20432   5.844   1.555  10.107  0.9062 -0.1035  0.4960
 5677SOL    HW120433   5.750   1.573  10.110  0.9645  1.5798 -2.9206
 5677SOL    HW220434   5.851   1.461  10.126 -1.5188 -0.4096  0.1860
 5678SOL     OW20435   0.584   9.879   8.627  0.1993  0.1333 -0.0481
 5678SOL    HW120436   0.512   9.943   8.635 -1.4443 -1.5588 -0.5877
 5678SOL    HW220437   0.598   9.847   8.717 -2.5364 -2.3628 -0.3600
 5679SOL     OW20438  10.404   9.143   7.786 -0.2118 -0.5830  0.4413
 5679SOL    HW120439  10.341   9.071   7.781 -2.3025  1.1842 -0.2030
 5679SOL    HW220440  10.469   9.123   7.719 -1.7192 -1.0211 -0.9324
 5680SOL     OW20441   5.304   4.445   2.545 -0.1973  0.1225  0.1352
 5680SOL    HW120442   5.224   4.478   2.503  0.3528 -0.5379 -1.5320
 5680SOL    HW220443   5.327   4.512   2.609 -0.4249  1.8565 -1.4993
 5681SOL     OW20444   6.375   3.094  10.423 -0.3218  0.4492 -0.5025
 5681SOL    HW120445   6.450   3.135  10.466 -0.3434 -0.2764  0.2718
 5681SOL    HW220446   6.364   3.011  10.470 -0.8559 -0.0033 -1.4080
 5682SOL     OW20447   6.326  10.058   6.976 -0.9198  0.1321  0.2926
 5682SOL    HW120448   6.388   9.993   7.010 -0.6490  0.7309  0.9739
 5682SOL    HW220449   6.382  10.127   6.939 -1.1962  0.2576  0.1084
 5683SOL     OW20450   0.305   4.134   6.905 -0.0160 -0.1605 -0.6676
 5683SOL    HW120451   0.349   4.063   6.858  1.5278  0.1165  0.3025
 5683SOL    HW220452   0.332   4.124   6.996 -0.7312  0.9718 -0.3044
 5684SOL     OW20453   0.820   0.583   1.533 -0.6459  0.0372  0.0148
 5684SOL    HW120454   0.914   0.581   1.550 -0.5858  0.6260 -0.2358
 5684SOL    HW220455   0.783   0.625   1.611 -0.5379  1.1986 -0.5310
 5685SOL     OW20456   7.421   7.492   2.903  0.4822  0.5753  0.3859
 5685SOL    HW120457   7.419   7.578   2.946  2.8014  0.5653  0.6297
 5685SOL    HW220458   7.503   7.492   2.854  0.0651 -1.1634 -0.3770
 5686SOL     OW20459   0.051   6.686   5.820  0.3440 -0.0204  0.4183
 5686SOL    HW120460   0.118   6.681   5.888 -0.8616  0.5639  1.6880
 5686SOL    HW220461   0.044   6.779   5.800 -0.7850  0.0479  1.0432
 5687SOL     OW20462   0.046   9.774   7.258  0.2068  0.5819  0.1630
 5687SOL    HW120463  -0.045   9.787   7.285  0.6713  1.4581  1.3597
 5687SOL    HW220464   0.097   9.790   7.337  1.5293  1.8452 -0.9131
 5688SOL     OW20465   6.484   7.997   4.577  0.2906  0.1224 -0.1256
 5688SOL    HW120466   6.434   8.026   4.500  1.9899  3.3610 -0.2088
 5688SOL    HW220467   6.427   7.935   4.621 -1.3852 -0.7220 -3.1709
 5689SOL     OW20468   9.993   1.249   5.395  0.5253  0.1357 -0.1763
 5689SOL    HW120469  10.057   1.314   5.365  0.9460  0.4314  1.2619
 5689SOL    HW220470   9.985   1.188   5.322  0.2126  1.7154 -1.5198
 5690SOL     OW20471   5.099   8.917  10.653  0.5907  1.0230 -0.2092
 5690SOL    HW120472   5.052   8.879  10.727  0.9618 -1.0379 -0.9763
 5690SOL    HW220473   5.037   8.913  10.580  0.8309  1.3978 -0.4380
 5691SOL     OW20474   8.700   6.181  10.539  0.2721  0.3487  0.5271
 5691SOL    HW120475   8.634   6.246  10.516  0.8763  0.5920 -0.6228
 5691SOL    HW220476   8.667   6.140  10.619 -2.2261 -0.8816 -1.0079
 5692SOL     OW20477   4.138   4.566   8.708 -0.4709 -0.1473 -0.5659
 5692SOL    HW120478   4.155   4.535   8.620  0.0954 -1.4522 -0.0243
 5692SOL    HW220479   4.177   4.499   8.765  0.4190  1.3531  0.6705
 5693SOL     OW20480  10.665  10.714   9.634 -0.1762  0.1238  0.2020
 5693SOL    HW120481  10.721  10.645   9.599 -1.1883  0.1343 -1.5717
 5693SOL    HW220482  10.604  10.734   9.563 -0.6844  2.0100  1.0861
 5694SOL     OW20483   8.446   2.476   6.418 -0.2061  0.3769  0.1092
 5694SOL    HW120484   8.446   2.572   6.417  0.1208  0.4704  2.8111
 5694SOL    HW220485   8.488   2.452   6.501 -2.3307 -2.0677  0.6119
 5695SOL     OW20486   5.544  10.758   3.647 -0.0148 -0.5995  0.0450
 5695SOL    HW120487   5.542  10.720   3.735  0.8633 -3.0961 -0.9040
 5695SOL    HW220488   5.463  10.727   3.606  0.9532 -2.0312 -0.9116
 5696SOL     OW20489   1.989   3.404   0.213 -0.1849 -0.2091 -0.1757
 5696SOL    HW120490   2.061   3.350   0.180  1.0307  1.4754 -0.3934
 5696SOL    HW220491   1.999   3.403   0.308  0.3482  0.2755 -0.2195
 5697SOL     OW20492   3.010   7.871   1.714 -0.5340  0.3353 -0.3423
 5697SOL    HW120493   3.091   7.850   1.668  1.0575  1.2570  1.8552
 5697SOL    HW220494   3.026   7.957   1.753 -1.8426 -0.2817  1.7085
 5698SOL     OW20495   5.978   4.583   2.434 -0.3166 -0.3721  0.1657
 5698SOL    HW120496   5.999   4.675   2.416 -2.3077 -0.0295 -0.6428
 5698SOL    HW220497   5.896   4.586   2.484 -0.2299 -1.6994  0.4213
 5699SOL     OW20498   4.001   5.131   7.200 -0.0795 -0.6485 -0.5589
 5699SOL    HW120499   3.946   5.065   7.157 -4.7699  1.3522  1.6454
 5699SOL    HW220500   4.012   5.199   7.133 -2.3334 -0.1484 -0.5248
 5700SOL     OW20501   5.145   0.914   5.289  0.7730 -0.0443 -0.5865
 5700SOL    HW120502   5.174   0.842   5.233 -2.4366 -1.9667 -0.0411
 5700SOL    HW220503   5.136   0.874   5.376  1.4537  1.7386  0.3456
 5701SOL     OW20504   1.497   5.089  10.130 -0.1668 -0.7586 -0.1481
 5701SOL    HW120505   1.483   5.090  10.035 -0.1781 -1.9792 -0.1813
 5701SOL    HW220506   1.575   5.035  10.142 -0.7289 -1.4359  0.5823
 5702SOL     OW20507  10.395  10.274   5.507  0.2724 -0.3530 -0.3796
 5702SOL    HW120508  10.312  10.296   5.464 -0.9986 -0.9646  1.6134
 5702SOL    HW220509  10.461  10.324   5.459 -1.1807 -0.1012 -2.2507
 5703SOL     OW20510   7.925   5.974   5.890 -1.2632  0.4888  0.4099
 5703SOL    HW120511   8.011   6.013   5.876 -1.7622  1.5885  0.3284
 5703SOL    HW220512   7.865   6.048   5.898 -2.1161 -0.2401  1.1126
 5704SOL     OW20513   8.359  10.219   8.107  0.0901 -0.0309 -0.5372
 5704SOL    HW120514   8.288  10.160   8.080  0.2120 -1.1275  1.3674
 5704SOL    HW220515   8.379  10.270   8.029 -1.5991 -0.9255 -1.6075
 5705SOL     OW20516   0.991   6.606  10.320  0.4192  0.1716  0.2384
 5705SOL    HW120517   0.961   6.625  10.408 -1.0553  2.5845 -0.6946
 5705SOL    HW220518   1.060   6.671  10.303  2.0265 -1.4707  0.2342
 5706SOL     OW20519   2.341   7.811   3.596  0.0963 -0.0794  0.2754
 5706SOL    HW120520   2.289   7.735   3.572 -0.7916  0.4505  0.4749
 5706SOL    HW220521   2.411   7.777   3.652  1.3212 -1.1303 -1.7945
 5707SOL     OW20522   1.808   9.085   8.286 -0.0782 -0.0768 -0.6669
 5707SOL    HW120523   1.894   9.042   8.295 -0.0649  0.2643  1.3897
 5707SOL    HW220524   1.823   9.156   8.224  0.8911 -0.5840 -1.0404
 5708SOL     OW20525   8.225   1.345   1.595 -0.0465  0.3830  0.3440
 5708SOL    HW120526   8.172   1.421   1.620 -1.2738 -0.4444  0.3482
 5708SOL    HW220527   8.205   1.279   1.661 -2.1540 -1.3174 -1.8313
 5709SOL     OW20528   2.857   7.477   8.781 -0.5133  0.2444  0.5137
 5709SOL    HW120529   2.939   7.471   8.830 -0.2497 -1.5071 -0.0788
 5709SOL    HW220530   2.792   7.437   8.838 -0.6273  0.1046  0.2831
 5710SOL     OW20531   6.339   5.482   2.890  0.3817 -0.3439  0.4302
 5710SOL    HW120532   6.329   5.517   2.802 -0.8737 -1.7620 -0.0269
 5710SOL    HW220533   6.392   5.547   2.936  0.1544  0.9371 -1.0520
 5711SOL     OW20534   3.320   9.966   5.668  0.5058  0.3488  0.3248
 5711SOL    HW120535   3.382   9.934   5.603  2.2074  1.7864  1.1423
 5711SOL    HW220536   3.348   9.926   5.750 -0.6011 -0.1482  0.4844
 5712SOL     OW20537   9.167   5.134   8.585 -0.0231  0.0840 -0.3395
 5712SOL    HW120538   9.181   5.227   8.601 -1.3456  0.1814  0.3911
 5712SOL    HW220539   9.255   5.098   8.576  0.6211  1.0563  1.4592
 5713SOL     OW20540   0.233   1.787   4.282 -0.1957  0.0392  0.2922
 5713SOL    HW120541   0.266   1.778   4.193 -0.6438  1.7658 -0.0916
 5713SOL    HW220542   0.156   1.731   4.285 -2.3218  2.5797 -1.6170
 5714SOL     OW20543   9.342   8.991   3.314  0.2769  0.2444  0.2829
 5714SOL    HW120544   9.326   8.998   3.220 -2.6630  1.1397  0.7212
 5714SOL    HW220545   9.334   9.082   3.346 -0.4354 -0.2381  1.5611
 5715SOL     OW20546   2.544   4.664   5.725  0.2155 -0.2545  0.2597
 5715SOL    HW120547   2.487   4.615   5.785 -1.1596  0.7546 -0.1698
 5715SOL    HW220548   2.626   4.675   5.773  0.7862 -3.3901  0.1595
 5716SOL     OW20549   6.328   8.271   5.235  0.5568 -0.3280  0.1238
 5716SOL    HW120550   6.318   8.339   5.301  0.7016 -0.5095  0.3364
 5716SOL    HW220551   6.336   8.318   5.152  0.8608 -0.0791  0.2923
 5717SOL     OW20552   4.526   5.921   5.877 -0.4537 -0.4843 -0.2200
 5717SOL    HW120553   4.572   5.969   5.809 -0.6443 -1.4627 -1.0583
 5717SOL    HW220554   4.523   5.981   5.952 -0.5171  0.7200 -1.1716
 5718SOL     OW20555   5.143   6.134   0.948  0.7049  0.3524 -0.1074
 5718SOL    HW120556   5.092   6.211   0.921  0.7200  0.1214 -0.8086
 5718SOL    HW220557   5.114   6.064   0.890 -0.5205 -0.6303  1.5941
 5719SOL     OW20558   2.160   2.232   4.740  0.1475  0.4114 -0.0299
 5719SOL    HW120559   2.174   2.163   4.806 -1.6101 -0.0644 -0.1157
 5719SOL    HW220560   2.212   2.203   4.665  0.0378 -0.4245  0.2054
 5720SOL     OW20561   4.865   6.846   6.810 -0.2685 -0.6462 -0.3896
 5720SOL    HW120562   4.958   6.855   6.831 -0.1912 -0.0582 -0.9470
 5720SOL    HW220563   4.841   6.930   6.770 -1.0824 -0.7291 -0.0912
 5721SOL     OW20564   7.493  10.554   4.937  0.7589 -0.3262 -0.0613
 5721SOL    HW120565   7.414  10.572   4.989  1.2227 -0.5364  0.7311
 5721SOL    HW220566   7.520  10.640   4.906  1.7030  0.1352  1.8682
 5722SOL     OW20567   3.975  10.402   3.235  0.1677 -0.0027  0.0092
 5722SOL    HW120568   3.916  10.476   3.228  0.5993  0.5462  1.6351
 5722SOL    HW220569   3.920  10.325   3.222 -1.1526  0.4482  2.3680
 5723SOL     OW20570   3.824   1.469   5.237  0.1213  0.2317  0.1138
 5723SOL    HW120571   3.737   1.428   5.246  0.0260  0.4139  0.0092
 5723SOL    HW220572   3.869   1.414   5.173  0.7155 -0.9280  1.4605
 5724SOL     OW20573  10.146   4.217   9.380 -0.3552  0.2162 -0.1912
 5724SOL    HW120574  10.113   4.293   9.332 -0.4949  0.6033  0.4995
 5724SOL    HW220575  10.153   4.248   9.470 -0.5183 -0.6346  0.1140
 5725SOL     OW20576   6.669  10.080   4.640 -0.2015  0.3556 -0.3656
 5725SOL    HW120577   6.608  10.038   4.579 -0.4223  0.5246 -0.2627
 5725SOL    HW220578   6.659  10.031   4.722 -0.8195  0.9146 -0.1010
 5726SOL     OW20579   4.630   9.670   5.829  0.5242 -0.5703 -0.3816
 5726SOL    HW120580   4.626   9.576   5.814  2.5188 -0.7337 -0.2034
 5726SOL    HW220581   4.666   9.679   5.918  0.7469  0.3448 -0.5510
 5727SOL     OW20582   1.748   0.577   3.354 -0.5736  0.6924 -0.0814
 5727SOL    HW120583   1.736   0.666   3.387  1.3489  1.3940 -1.1071
 5727SOL    HW220584   1.681   0.567   3.287 -0.8035  1.3668  0.0408
 5728SOL     OW20585   1.845   0.021   6.952 -0.0427 -0.1521  0.3055
 5728SOL    HW120586   1.885   0.044   7.036  1.8627 -0.4940 -0.4574
 5728SOL    HW220587   1.881  -0.066   6.932 -3.0004 -1.5836  0.6344
 5729SOL     OW20588   0.577  10.269   7.152 -0.0644  0.4852  0.4125
 5729SOL    HW120589   0.611  10.268   7.241  1.5582  0.3405 -0.1697
 5729SOL    HW220590   0.498  10.215   7.156  0.7597 -0.7136  1.4900
 5730SOL     OW20591   4.874   6.534   9.660  0.1387 -0.0855 -0.1567
 5730SOL    HW120592   4.854   6.610   9.605 -0.9942 -0.7361 -0.6694
 5730SOL    HW220593   4.903   6.572   9.743  1.2737  0.9143 -0.9713
 5731SOL     OW20594   3.466   6.999   4.624  0.0857 -0.3827 -0.0657
 5731SOL    HW120595   3.399   7.028   4.686 -0.2768 -2.3204  0.4994
 5731SOL    HW220596   3.481   6.907   4.646  2.6789 -0.1117 -0.4099
 5732SOL     OW20597   3.639   9.680   6.569 -0.1025  0.7657  0.2041
 5732SOL    HW120598   3.723   9.635   6.581 -0.9702 -0.7779  0.8076
 5732SOL    HW220599   3.585   9.616   6.521 -1.7522  0.6684  2.0783
 5733SOL     OW20600   5.362   0.471   7.169 -0.2067  0.3518  0.1546
 5733SOL    HW120601   5.305   0.532   7.215 -0.2000  0.9496 -0.5899
 5733SOL    HW220602   5.390   0.408   7.235  1.5276  2.4043  1.5192
 5734SOL     OW20603   1.186   2.145   3.773  0.9459 -0.0033 -0.0752
 5734SOL    HW120604   1.195   2.217   3.836  0.6540  0.3312 -0.4137
 5734SOL    HW220605   1.208   2.066   3.823 -0.6193  0.0899  0.8268
 5735SOL     OW20606   0.187   3.697   8.572  0.2340 -0.2410 -0.0514
 5735SOL    HW120607   0.181   3.621   8.629  0.0421  0.0935  0.3847
 5735SOL    HW220608   0.268   3.740   8.598  1.3898 -1.3514 -1.6464
 5736SOL     OW20609   1.619   0.549   5.755  0.0031 -0.2951 -0.6285
 5736SOL    HW120610   1.546   0.580   5.701  0.1743  0.4203 -0.4467
 5736SOL    HW220611   1.584   0.471   5.799 -1.5136  1.4132  1.4002
 5737SOL     OW20612   1.804   9.639   3.855  0.5572 -0.1233 -0.7902
 5737SOL    HW120613   1.851   9.565   3.816  0.3922  0.2290 -1.6602
 5737SOL    HW220614   1.794   9.614   3.947 -0.0249 -1.4638 -1.1897
 5738SOL     OW20615   8.767   2.625   3.280 -0.6731  0.0535 -0.7470
 5738SOL    HW120616   8.823   2.667   3.345 -0.6125  0.9124 -1.3421
 5738SOL    HW220617   8.826   2.570   3.229 -0.6061 -0.0881 -0.5198
 5739SOL     OW20618   3.108   8.188   5.783  0.0605 -0.5931 -0.6578
 5739SOL    HW120619   3.051   8.260   5.810  0.6834  0.0359 -0.9885
 5739SOL    HW220620   3.164   8.172   5.859 -2.2807 -3.0707  0.7535
 5740SOL     OW20621   1.721   2.657   4.599 -0.3670  0.4621 -0.0942
 5740SOL    HW120622   1.792   2.659   4.535  0.1355 -1.2122  0.3708
 5740SOL    HW220623   1.763   2.635   4.681 -1.1778  1.3860  0.5981
 5741SOL     OW20624   7.992   9.905   5.935  0.2633  0.0233 -0.5836
 5741SOL    HW120625   7.904   9.938   5.954  1.0276  1.6044  0.4315
 5741SOL    HW220626   8.037   9.979   5.894  1.2008 -0.6654 -0.8351
 5742SOL     OW20627   5.555  10.872   5.826 -0.2908 -0.3711  0.3837
 5742SOL    HW120628   5.504  10.792   5.839 -0.5074 -0.1722  0.7674
 5742SOL    HW220629   5.616  10.874   5.900 -0.1681 -0.2710  0.2801
 5743SOL     OW20630   3.085  10.789   5.402  0.5622 -0.3916 -0.1821
 5743SOL    HW120631   3.066  10.722   5.336 -1.5158 -0.4589  0.4060
 5743SOL    HW220632   3.004  10.839   5.409  0.6837 -0.4319  2.3641
 5744SOL     OW20633  10.002   3.196   8.650  0.4456 -0.0232  0.9917
 5744SOL    HW120634  10.070   3.180   8.584 -0.8089 -1.4257 -0.0355
 5744SOL    HW220635  10.025   3.137   8.722 -0.1935 -1.2621  0.2197
 5745SOL     OW20636   2.465  10.092   5.055 -0.7772 -0.2062 -0.2818
 5745SOL    HW120637   2.385  10.124   5.012 -1.3359 -2.2406 -0.8508
 5745SOL    HW220638   2.519  10.059   4.984 -0.4183 -0.9075  0.3116
 5746SOL     OW20639   7.636   3.517   1.202  0.1910 -0.3103  0.1627
 5746SOL    HW120640   7.711   3.572   1.223 -0.5136  0.6026  0.3816
 5746SOL    HW220641   7.632   3.453   1.273  0.8167 -0.4210  0.0983
 5747SOL     OW20642   4.475   0.349   7.960 -0.4807 -0.1499 -0.8681
 5747SOL    HW120643   4.426   0.275   7.995 -1.0504  1.0325  1.0538
 5747SOL    HW220644   4.412   0.422   7.962  1.3177  1.5212  2.0729
 5748SOL     OW20645   2.927   2.738   9.004 -0.3750  0.0450  0.0150
 5748SOL    HW120646   2.841   2.778   8.988  1.1169  3.4731 -0.1009
 5748SOL    HW220647   2.947   2.760   9.095 -0.0700 -1.7804  0.4253
 5749SOL     OW20648   6.762   8.051   5.399 -0.1457 -0.0388  0.5397
 5749SOL    HW120649   6.787   7.994   5.471 -2.2809  0.8035  2.0683
 5749SOL    HW220650   6.834   8.045   5.337  2.1397 -0.2674  3.0469
 5750SOL     OW20651   3.089   4.022   4.286  0.5274 -0.7210  0.0970
 5750SOL    HW120652   3.026   3.971   4.235 -0.1342 -2.4566  2.4434
 5750SOL    HW220653   3.074   4.113   4.260 -1.2799 -1.3126 -1.1160
 5751SOL     OW20654   5.297  10.036   8.814  0.3335 -0.1324 -0.2209
 5751SOL    HW120655   5.365   9.980   8.777 -0.1316 -2.3498  2.0312
 5751SOL    HW220656   5.346  10.099   8.869  0.6696 -1.7503  1.4363
 5752SOL     OW20657   5.736   3.132   6.661 -0.0020 -0.7963  0.4766
 5752SOL    HW120658   5.794   3.086   6.601  0.5331  0.6903 -0.2003
 5752SOL    HW220659   5.721   3.070   6.733  0.2381 -2.1904 -0.6421
 5753SOL     OW20660   1.520   6.611   5.075  0.5648 -0.0993  0.1487
 5753SOL    HW120661   1.603   6.564   5.067  0.6110  0.1551 -1.0857
 5753SOL    HW220662   1.544   6.697   5.109  0.5794 -0.6221  1.5479
 5754SOL     OW20663   6.205  10.534   3.361 -0.0965  0.0028  0.1995
 5754SOL    HW120664   6.285  10.516   3.411 -0.5721  0.1953  1.0586
 5754SOL    HW220665   6.221  10.620   3.322  0.0635  0.1015  0.4787
 5755SOL     OW20666   8.112   2.085  10.273 -0.2523  0.0576  0.1873
 5755SOL    HW120667   8.201   2.069  10.243 -0.4899 -0.6636 -0.1502
 5755SOL    HW220668   8.101   2.028  10.349 -0.4362  0.1063  0.1992
 5756SOL     OW20669   4.529   3.931   7.198 -0.6735 -0.2087 -0.4977
 5756SOL    HW120670   4.447   3.889   7.171 -1.3170  1.2773 -1.0113
 5756SOL    HW220671   4.518   4.023   7.172 -0.1265  0.7161  2.2675
 5757SOL     OW20672   7.198   4.136   8.170 -0.4590  0.1715  0.4063
 5757SOL    HW120673   7.284   4.173   8.151 -1.1361  2.5727  1.6443
 5757SOL    HW220674   7.144   4.159   8.094  0.1782 -2.3951 -0.9520
 5758SOL     OW20675   8.888   6.909   3.200  0.3086 -0.4636 -0.1296
 5758SOL    HW120676   8.983   6.916   3.196  0.2241  0.7341 -0.2907
 5758SOL    HW220677   8.856   6.981   3.147 -0.6978  0.5481  1.7351
 5759SOL     OW20678   3.110   7.932   3.322 -0.3080 -0.3858  0.1385
 5759SOL    HW120679   3.174   7.860   3.324 -1.9344 -1.8822  1.4246
 5759SOL    HW220680   3.080   7.939   3.412  0.7608  2.8971  0.3573
 5760SOL     OW20681   9.854   1.381   3.503  0.6132 -0.6652  0.1267
 5760SOL    HW120682   9.909   1.459   3.499  1.3593 -1.1166  1.0093
 5760SOL    HW220683   9.793   1.390   3.430  0.5418  0.8391  0.3491
 5761SOL     OW20684   3.060   4.181   6.230 -0.0487 -0.3883 -0.6291
 5761SOL    HW120685   2.985   4.190   6.288 -0.5314 -0.9067 -1.1541
 5761SOL    HW220686   3.123   4.128   6.279 -1.0943 -2.1812 -1.1496
 5762SOL     OW20687   2.757   8.213   2.464 -0.2887 -0.2183 -0.1451
 5762SOL    HW120688   2.728   8.272   2.534  0.1138  0.9484 -0.9312
 5762SOL    HW220689   2.680   8.200   2.409 -0.0663  0.6050 -0.6667
 5763SOL     OW20690   5.665   0.280   7.431 -0.3641 -0.0193  0.0076
 5763SOL    HW120691   5.581   0.256   7.392  0.9755 -1.1544 -2.3954
 5763SOL    HW220692   5.675   0.220   7.505 -0.9205 -1.0659 -0.7326
 5764SOL     OW20693   8.742   8.325   8.662  0.2301 -0.0663 -0.2284
 5764SOL    HW120694   8.728   8.257   8.596  1.7596 -0.9141  0.2655
 5764SOL    HW220695   8.668   8.316   8.722  0.2817 -1.1385 -0.3031
 5765SOL     OW20696   1.862   4.975   6.870  0.2620  0.1170  0.0406
 5765SOL    HW120697   1.928   4.913   6.901 -0.2595 -0.9718 -0.9503
 5765SOL    HW220698   1.907   5.026   6.803  0.4682  0.2819  0.3023
 5766SOL     OW20699   6.663   7.418   2.254  0.5326 -0.0747  0.3652
 5766SOL    HW120700   6.675   7.368   2.173  2.5293  2.7475 -1.2580
 5766SOL    HW220701   6.739   7.396   2.307  1.3015  0.9536 -0.2619
 5767SOL     OW20702   7.470   1.678   2.605  0.8661  0.2243  0.0821
 5767SOL    HW120703   7.463   1.610   2.672  0.3113 -0.1682 -0.3690
 5767SOL    HW220704   7.412   1.649   2.535  0.5039  1.2351 -0.0556
 5768SOL     OW20705   6.567   0.916   1.303  0.4117 -0.3351  0.1858
 5768SOL    HW120706   6.502   0.880   1.243  0.3810 -0.8253  0.5028
 5768SOL    HW220707   6.524   0.992   1.342  0.8684  0.6960 -1.2798
 5769SOL     OW20708   0.565   6.396   0.005 -0.2357 -0.0991 -0.2757
 5769SOL    HW120709   0.517   6.430  -0.071  0.9869 -0.1562 -1.1024
 5769SOL    HW220710   0.524   6.311   0.023 -1.7112  0.6841  0.2848
 5770SOL     OW20711   4.727   7.557   2.671 -0.3255 -0.2380 -0.0511
 5770SOL    HW120712   4.778   7.476   2.664  3.4773  1.7777  1.1767
 5770SOL    HW220713   4.663   7.540   2.740  0.8701 -1.9905  0.6785
 5771SOL     OW20714   9.983   9.212   0.134  0.2358  0.5805  0.3669
 5771SOL    HW120715   9.913   9.157   0.101  1.1223 -0.8146  0.7423
 5771SOL    HW220716  10.018   9.165   0.210 -0.4008  2.7134  2.0653
 5772SOL     OW20717   5.575   8.026   2.018  0.1440  0.7223 -0.7956
 5772SOL    HW120718   5.531   7.947   1.986  2.4524 -1.1552  0.3225
 5772SOL    HW220719   5.652   8.035   1.963  1.0378  0.9101  0.4470
 5773SOL     OW20720   0.542   0.139   2.264 -0.3439 -0.1084 -0.5585
 5773SOL    HW120721   0.553   0.083   2.341 -0.5133  0.5611 -0.0372
 5773SOL    HW220722   0.631   0.168   2.243 -0.1135 -1.4168 -1.4914
 5774SOL     OW20723   9.651  10.315   4.793  0.0392 -0.4444 -0.4742
 5774SOL    HW120724   9.730  10.368   4.791  0.5131 -1.1646 -1.4739
 5774SOL    HW220725   9.675  10.238   4.844 -0.5757  0.1393  0.7620
 5775SOL     OW20726   9.273   3.871   8.425 -0.2566  0.5037  0.0515
 5775SOL    HW120727   9.339   3.822   8.376 -1.3267 -0.5451 -0.3913
 5775SOL    HW220728   9.248   3.943   8.367  0.6954  1.1093  0.3551
 5776SOL     OW20729   9.927   5.394   4.133  0.4951 -0.1952 -0.2253
 5776SOL    HW120730   9.919   5.300   4.149  0.6224  0.0204  1.2814
 5776SOL    HW220731   9.852   5.416   4.078 -0.9245 -0.7855  1.3937
 5777SOL     OW20732   6.388   9.016   2.131 -0.1926  0.0414 -0.2865
 5777SOL    HW120733   6.322   9.032   2.199 -2.6508 -5.1723 -0.9246
 5777SOL    HW220734   6.339   9.016   2.049  2.1580  3.0842 -1.8894
 5778SOL     OW20735   4.885   1.229   4.039 -0.3552 -0.4674 -0.1805
 5778SOL    HW120736   4.824   1.285   4.086  0.3897  0.3476 -0.1728
 5778SOL    HW220737   4.885   1.147   4.089 -0.2168  0.0905  0.7536
 5779SOL     OW20738   3.523   7.816   7.259  0.3346  0.0284 -0.6056
 5779SOL    HW120739   3.576   7.783   7.331  0.1467  0.4746 -0.2550
 5779SOL    HW220740   3.491   7.901   7.291 -0.7311 -0.3136 -0.7468
 5780SOL     OW20741   5.948   6.842   1.635 -0.1017  0.1703  0.2306
 5780SOL    HW120742   5.946   6.749   1.660 -0.1015  0.4798  1.4372
 5780SOL    HW220743   5.878   6.882   1.686  1.1379  1.1716  1.2110
 5781SOL     OW20744   4.849   0.537   6.962 -0.4357 -0.0676 -0.2351
 5781SOL    HW120745   4.767   0.489   6.951 -1.2245  1.4887 -1.6570
 5781SOL    HW220746   4.822   0.629   6.969  1.1479  0.3987  0.1024
 5782SOL     OW20747   8.675   8.473   3.269 -0.9197  0.2070  0.0858
 5782SOL    HW120748   8.730   8.454   3.345  0.3029 -0.1031 -0.8288
 5782SOL    HW220749   8.586   8.458   3.299 -0.3168 -2.9227  0.6593
 5783SOL     OW20750  10.489   4.239  10.180 -0.1033 -0.5278 -0.0804
 5783SOL    HW120751  10.469   4.326  10.146 -1.1443 -1.1243 -1.0776
 5783SOL    HW220752  10.524   4.255  10.268  0.6815  0.9367 -0.6182
 5784SOL     OW20753   7.366   1.624   7.318  0.1349 -0.2377 -0.3493
 5784SOL    HW120754   7.459   1.605   7.303 -0.1779 -1.8242 -0.5133
 5784SOL    HW220755   7.353   1.712   7.282  1.7032  0.2900  0.2723
 5785SOL     OW20756   6.137   1.622   4.852 -0.2972 -0.4148 -0.1478
 5785SOL    HW120757   6.121   1.715   4.838  0.3462 -0.0808  1.1379
 5785SOL    HW220758   6.053   1.580   4.833 -1.0486  0.6086  0.7884
 5786SOL     OW20759   0.882   6.655   8.623 -0.3184  0.3024 -0.1207
 5786SOL    HW120760   0.906   6.733   8.674  1.3779  0.5863 -1.2864
 5786SOL    HW220761   0.835   6.600   8.685  2.0045  0.4429  1.9114
 5787SOL     OW20762   0.338   1.549   3.659 -0.0698 -0.0709 -0.2791
 5787SOL    HW120763   0.255   1.545   3.706 -0.7829  2.6449 -1.1514
 5787SOL    HW220764   0.313   1.568   3.568  1.4995  0.6002 -0.5936
 5788SOL     OW20765   8.385   1.217   3.556 -0.4377 -0.3354  0.7721
 5788SOL    HW120766   8.431   1.295   3.586  0.5116 -0.5451 -0.0756
 5788SOL    HW220767   8.292   1.238   3.566 -0.2284  1.2246 -0.1909
 5789SOL     OW20768   1.443   3.475   8.069  0.6925 -0.0962  0.1904
 5789SOL    HW120769   1.534   3.503   8.080  0.2611  0.5821  2.4878
 5789SOL    HW220770   1.391   3.546   8.107 -0.7757 -0.8556 -0.3118
 5790SOL     OW20771   0.283   3.096   3.187  0.0826  0.6022 -0.1322
 5790SOL    HW120772   0.319   3.042   3.258  1.4683  0.1369 -1.1306
 5790SOL    HW220773   0.206   3.137   3.225  0.7416  0.3232  1.6279
 5791SOL     OW20774   5.512   2.500   8.678  0.5133 -0.2785 -0.2291
 5791SOL    HW120775   5.548   2.502   8.767  0.1266 -1.3259 -0.0286
 5791SOL    HW220776   5.460   2.419   8.676 -0.8244  0.5679 -0.8891
 5792SOL     OW20777   1.761   8.886   6.773  0.0874 -0.0534  0.2184
 5792SOL    HW120778   1.707   8.816   6.737  1.0163 -1.0744  0.7419
 5792SOL    HW220779   1.763   8.953   6.705 -3.8148  1.1863  1.0805
 5793SOL     OW20780   8.814   2.537   2.523 -0.7356  0.3616 -0.4913
 5793SOL    HW120781   8.790   2.445   2.515 -1.1850  0.3597  0.6198
 5793SOL    HW220782   8.805   2.556   2.617 -1.1331  1.6617 -0.7673
 5794SOL     OW20783   8.208   8.871   9.278  0.0464 -0.1394 -0.0002
 5794SOL    HW120784   8.220   8.787   9.234 -0.4645  0.7706 -1.9968
 5794SOL    HW220785   8.113   8.886   9.274  0.2127  0.8540 -0.3389
 5795SOL     OW20786   9.621  10.779   1.141 -0.0885  0.4368 -0.6693
 5795SOL    HW120787   9.591  10.838   1.071 -0.2517  1.0391 -0.0952
 5795SOL    HW220788   9.542  10.731   1.166 -0.8250  2.5382  1.3491
 5796SOL     OW20789   9.870   7.330  10.124  0.2607 -0.2996  0.0492
 5796SOL    HW120790   9.914   7.385  10.059  1.8958 -0.8524  0.6545
 5796SOL    HW220791   9.856   7.247  10.079 -1.8423  0.3973 -0.7283
 5797SOL     OW20792   3.360   2.812   6.924 -0.1066 -0.2536  0.1002
 5797SOL    HW120793   3.440   2.795   6.974 -1.2708  1.9421  3.0313
 5797SOL    HW220794   3.392   2.846   6.840  2.0192 -0.7901  0.6172
 5798SOL     OW20795  10.752  10.047   1.267 -0.4046 -0.5314  0.1002
 5798SOL    HW120796  10.705  10.026   1.186 -1.9427  3.6418 -0.3070
 5798SOL    HW220797  10.716   9.987   1.331 -1.8345 -1.5058 -1.5228
 5799SOL     OW20798   6.561   2.505   4.583 -0.6198 -0.0302 -0.4484
 5799SOL    HW120799   6.620   2.564   4.630  0.1134 -1.4018  0.4141
 5799SOL    HW220800   6.601   2.419   4.592 -3.5343 -1.3245  1.5604
 5800SOL     OW20801   9.405   2.005   2.429  0.1914  0.0439 -0.1041
 5800SOL    HW120802   9.341   2.071   2.401  1.7501  1.9036  0.5019
 5800SOL    HW220803   9.489   2.039   2.399  1.1732 -1.0959  1.2453
 5801SOL     OW20804   0.803   0.273   1.009  0.1768 -0.1543  0.1188
 5801SOL    HW120805   0.896   0.291   0.991 -0.1228  0.6507 -0.7228
 5801SOL    HW220806   0.781   0.200   0.951 -0.3920  1.4516 -1.8311
 5802SOL     OW20807   5.837   7.615   2.184  0.6627  0.3208 -0.2169
 5802SOL    HW120808   5.769   7.571   2.234  2.7675 -2.6565  0.3011
 5802SOL    HW220809   5.798   7.632   2.098 -1.3340  0.7330  0.7276
 5803SOL     OW20810   2.973   3.745   5.917  0.0256 -0.7450  0.8557
 5803SOL    HW120811   3.057   3.739   5.963  1.3048  0.9127 -1.1050
 5803SOL    HW220812   2.925   3.812   5.965 -0.1573 -1.5965  1.9030
 5804SOL     OW20813   8.572  10.336   9.751 -0.0864 -0.2965 -0.6117
 5804SOL    HW120814   8.528  10.322   9.667 -0.1282 -2.3470 -0.3096
 5804SOL    HW220815   8.612  10.423   9.743 -0.7779 -0.0986 -2.4328
 5805SOL     OW20816   2.667   2.287   7.495  0.2145  0.0824 -0.0727
 5805SOL    HW120817   2.612   2.242   7.558  1.3348  1.3154  1.8755
 5805SOL    HW220818   2.721   2.346   7.547  2.9862 -0.6257 -1.9177
 5806SOL     OW20819   7.852   4.136   9.035 -0.0735 -0.0787 -0.5702
 5806SOL    HW120820   7.811   4.205   8.982 -0.2262 -0.4874 -0.9986
 5806SOL    HW220821   7.938   4.171   9.058 -0.4307  0.5504 -0.1589
 5807SOL     OW20822   7.860   9.534   8.398 -0.0119  0.2907 -0.2722
 5807SOL    HW120823   7.828   9.473   8.464 -0.6240 -0.1623 -0.9832
 5807SOL    HW220824   7.781   9.567   8.355  0.4282 -0.0814 -1.3726
 5808SOL     OW20825   0.909   9.257   5.427 -0.6954 -0.4626  0.3797
 5808SOL    HW120826   0.904   9.199   5.352  0.0032 -0.2460  0.1509
 5808SOL    HW220827   0.819   9.265   5.458 -1.0202 -0.4176 -0.5391
 5809SOL     OW20828   2.659   7.821   2.233 -0.0482 -0.0507  0.0744
 5809SOL    HW120829   2.571   7.859   2.227  0.0244  0.1619  0.3401
 5809SOL    HW220830   2.659   7.774   2.317  0.0817 -0.0725  0.0628
 5810SOL     OW20831   1.145   8.019   2.531  0.0754 -0.2044 -0.2439
 5810SOL    HW120832   1.237   8.041   2.541 -0.2320  0.6502  0.7943
 5810SOL    HW220833   1.105   8.097   2.494 -0.5806  0.1638  1.1728
 5811SOL     OW20834   1.437   6.804   6.982 -0.2688  0.6593  0.7326
 5811SOL    HW120835   1.385   6.876   7.016 -2.3048 -1.6033  2.7343
 5811SOL    HW220836   1.501   6.785   7.051  0.1806  0.4647  0.2713
 5812SOL     OW20837   7.215   9.620  10.090  0.9321  0.0917 -0.5836
 5812SOL    HW120838   7.193   9.589  10.178 -0.1162  1.1043 -0.4772
 5812SOL    HW220839   7.131   9.638  10.049  1.4369  0.1876 -1.6057
 5813SOL     OW20840   1.306   9.478   9.853  0.2017  0.2282  0.4110
 5813SOL    HW120841   1.242   9.475   9.924  0.4873 -0.5878  0.6404
 5813SOL    HW220842   1.259   9.521   9.781  0.0162  1.3577  1.1800
 5814SOL     OW20843   8.231   2.300   1.535 -0.2710  0.5545  0.6692
 5814SOL    HW120844   8.280   2.224   1.504  0.1467  0.6559  1.0713
 5814SOL    HW220845   8.200   2.342   1.455 -1.2456 -0.5028  0.4620
 5815SOL     OW20846   2.777   4.813   8.174  0.2805 -0.3877 -0.2355
 5815SOL    HW120847   2.830   4.739   8.204 -0.9259 -0.1646  2.8816
 5815SOL    HW220848   2.833   4.890   8.189 -0.3556 -0.2633  1.8995
 5816SOL     OW20849   9.919   0.574   4.066 -0.2349  0.6994  0.5529
 5816SOL    HW120850   9.898   0.579   3.972 -0.4898  1.9676  0.6623
 5816SOL    HW220851   9.965   0.490   4.075 -1.2452 -0.0101 -0.4865
 5817SOL     OW20852   7.027   0.807   6.441  0.3182  0.0855  0.7159
 5817SOL    HW120853   7.030   0.776   6.351 -1.2098  2.2465 -0.1728
 5817SOL    HW220854   6.980   0.739   6.489  2.5685 -1.8638  0.3126
 5818SOL     OW20855   9.205   0.272   3.323 -0.1129  0.0833  0.5377
 5818SOL    HW120856   9.158   0.347   3.359 -0.9929  0.8286 -1.9521
 5818SOL    HW220857   9.217   0.293   3.231 -0.5672 -2.8883 -0.3082
 5819SOL     OW20858   5.573   4.341   1.298 -0.0963 -0.2460 -0.2284
 5819SOL    HW120859   5.654   4.344   1.349 -0.1742  1.0099 -0.1428
 5819SOL    HW220860   5.587   4.403   1.227 -1.2952  0.6377  0.2803
 5820SOL     OW20861   5.706   8.760   2.254 -0.3343  0.7947  0.7630
 5820SOL    HW120862   5.714   8.828   2.321  0.8586  1.1486  0.2935
 5820SOL    HW220863   5.773   8.782   2.190 -0.0560 -0.7135  0.4956
 5821SOL     OW20864   9.795   8.661   8.316 -1.0306  0.0080 -0.4481
 5821SOL    HW120865   9.830   8.647   8.228 -0.3934  0.3066 -0.2492
 5821SOL    HW220866   9.747   8.581   8.337 -1.8516  0.2363 -1.3684
 5822SOL     OW20867   4.652  10.325   1.963 -0.3358  0.2607 -0.1883
 5822SOL    HW120868   4.654  10.356   1.873 -2.3405 -0.1456 -0.4300
 5822SOL    HW220869   4.603  10.243   1.959 -0.1295  0.0346  1.2263
 5823SOL     OW20870   8.445   8.360   2.569  0.0612 -0.0434  0.4353
 5823SOL    HW120871   8.354   8.389   2.557  0.2610  1.1558  1.6596
 5823SOL    HW220872   8.473   8.333   2.482 -1.0762  0.7483 -0.2014
 5824SOL     OW20873   4.316   6.915   3.723  0.5692  0.0500  1.1219
 5824SOL    HW120874   4.335   6.924   3.630 -2.0956 -0.7636  0.4267
 5824SOL    HW220875   4.403   6.917   3.765  1.7646  2.2218 -1.1399
 5825SOL     OW20876   6.632   6.294   0.302 -0.7898 -0.3849  0.4903
 5825SOL    HW120877   6.666   6.337   0.380  3.0498 -0.1432 -1.0405
 5825SOL    HW220878   6.597   6.364   0.248  0.7816  0.1739  0.1434
 5826SOL     OW20879   6.471  10.235   9.582 -0.5269  0.2117  0.1947
 5826SOL    HW120880   6.536  10.291   9.625 -2.3978  1.0149  2.1624
 5826SOL    HW220881   6.513  10.149   9.578  0.8182  0.7856  1.0119
 5827SOL     OW20882   1.015   7.230   6.075 -0.4869 -0.2592  0.3660
 5827SOL    HW120883   0.963   7.310   6.077  0.4073  0.3858 -0.9546
 5827SOL    HW220884   0.954   7.161   6.103 -0.6608  1.1325  3.9325
 5828SOL     OW20885   7.763   4.865   5.680  0.7618 -0.3426  0.1598
 5828SOL    HW120886   7.745   4.889   5.589 -1.5790  1.8481  1.0599
 5828SOL    HW220887   7.858   4.871   5.688  0.9424  0.4876 -1.8773
 5829SOL     OW20888   8.786   6.377   8.502  0.2670  0.0241 -0.0646
 5829SOL    HW120889   8.772   6.375   8.596 -0.7027  1.0409 -0.1609
 5829SOL    HW220890   8.723   6.442   8.470  0.6173 -0.2636 -1.4023
 5830SOL     OW20891   7.630   7.122   3.788 -0.1810 -0.1052 -0.1048
 5830SOL    HW120892   7.627   7.150   3.879  1.0880 -1.6111  0.4442
 5830SOL    HW220893   7.549   7.073   3.775  0.2034 -0.9680  0.6209
 5831SOL     OW20894   1.325   9.438   3.535 -0.2970  0.3930  0.2756
 5831SOL    HW120895   1.326   9.357   3.586  1.0043  0.7370  0.8537
 5831SOL    HW220896   1.402   9.486   3.566 -1.1479  1.9311  0.0663
 5832SOL     OW20897   0.773   2.750   1.021 -0.0342 -0.3329 -0.6625
 5832SOL    HW120898   0.830   2.709   0.956 -1.2060 -1.7510 -0.8618
 5832SOL    HW220899   0.732   2.676   1.066 -0.3684  0.6426  0.6735
 5833SOL     OW20900  10.172   0.990   2.970  0.3276  0.0516 -0.0297
 5833SOL    HW120901  10.188   0.959   3.059  1.4610  1.0184  0.1323
 5833SOL    HW220902  10.189   0.915   2.914 -0.4279 -0.5748  0.5582
 5834SOL     OW20903   5.878   9.464   4.505  0.3085  0.0021 -0.0067
 5834SOL    HW120904   5.931   9.394   4.544  0.6417 -0.4496 -1.2215
 5834SOL    HW220905   5.796   9.461   4.553  0.5927 -0.7393  0.4594
 5835SOL     OW20906   0.853   0.902   8.676 -0.2256  0.5413  0.0467
 5835SOL    HW120907   0.908   0.933   8.748  0.7844  0.8217 -0.8246
 5835SOL    HW220908   0.887   0.815   8.655 -1.1709  0.0293  0.5482
 5836SOL     OW20909   1.413   5.511   2.009 -0.4489 -0.5318  0.7417
 5836SOL    HW120910   1.388   5.418   2.014 -0.0027 -0.8313 -1.4184
 5836SOL    HW220911   1.330   5.558   2.003 -0.6619 -0.9541  0.2288
 5837SOL     OW20912   5.907   0.179   1.239  0.2365  0.0185  0.2188
 5837SOL    HW120913   5.911   0.206   1.148 -0.6173 -0.4527  0.0300
 5837SOL    HW220914   5.894   0.084   1.235 -1.9962  0.2525  0.7774
 5838SOL     OW20915   6.586   2.911  10.784  0.4019  0.1909  0.1661
 5838SOL    HW120916   6.558   2.875  10.868 -0.1657  2.6665  1.1300
 5838SOL    HW220917   6.682   2.907  10.787  0.4826  2.1865  1.9121
 5839SOL     OW20918   4.317   8.429  10.253 -0.3698 -0.3084 -0.3083
 5839SOL    HW120919   4.399   8.390  10.224 -0.2743  0.1507 -0.6699
 5839SOL    HW220920   4.286   8.371  10.322 -0.3771 -1.1916 -1.0206
 5840SOL     OW20921   5.462   8.597   5.987  0.0235 -0.0013  0.1345
 5840SOL    HW120922   5.461   8.509   5.949 -1.0696 -0.8724  2.0450
 5840SOL    HW220923   5.495   8.585   6.076  0.2394  1.6027  0.3109
 5841SOL     OW20924   8.456   4.146   4.846  0.5985 -0.1887  0.2705
 5841SOL    HW120925   8.432   4.065   4.890 -0.2058 -0.2440 -0.2533
 5841SOL    HW220926   8.375   4.197   4.842  0.9685  0.3993  0.0882
 5842SOL     OW20927   1.231   1.009   3.455 -0.5788 -0.5013 -0.0129
 5842SOL    HW120928   1.192   1.034   3.372 -1.2364 -0.0037  0.4378
 5842SOL    HW220929   1.206   0.917   3.466 -1.2786 -0.3102  0.0662
 5843SOL     OW20930   4.857   1.462   4.701 -1.3879  0.0455 -0.0833
 5843SOL    HW120931   4.836   1.555   4.714 -0.0420  0.5236 -1.0113
 5843SOL    HW220932   4.912   1.440   4.776 -1.0964  0.2196 -0.2422
 5844SOL     OW20933   0.315   2.482  10.411  0.0929 -1.0110 -0.2027
 5844SOL    HW120934   0.393   2.536  10.396  0.4683 -1.3415  0.4924
 5844SOL    HW220935   0.244   2.545  10.421  0.5711 -0.6105  0.8669
 5845SOL     OW20936   7.067  10.256   9.055 -0.2646  0.0786 -0.1165
 5845SOL    HW120937   7.019  10.339   9.053 -0.4795 -0.0132  0.7996
 5845SOL    HW220938   7.013  10.195   9.005  0.1552  0.6063 -1.2667
 5846SOL     OW20939   2.357   8.857   9.975  0.3579  0.1292 -0.0068
 5846SOL    HW120940   2.285   8.899   9.929 -1.1454 -1.0083  1.1762
 5846SOL    HW220941   2.395   8.925  10.030  0.7795  0.9506 -1.2832
 5847SOL     OW20942   7.222   9.457   5.973 -0.1134 -0.0579 -0.6074
 5847SOL    HW120943   7.231   9.546   6.006 -1.6973 -0.3600  0.7698
 5847SOL    HW220944   7.166   9.465   5.896  0.8834  0.2552 -1.3330
 5848SOL     OW20945   0.235   6.182   6.483 -0.0665 -0.7696  0.3006
 5848SOL    HW120946   0.190   6.136   6.413 -0.4798  0.3127 -0.1818
 5848SOL    HW220947   0.321   6.142   6.488  0.2819 -0.3005 -1.4197
 5849SOL     OW20948   8.516   5.830   6.636 -0.4167  0.2558  0.2010
 5849SOL    HW120949   8.561   5.909   6.603 -1.4895  0.8313  0.0625
 5849SOL    HW220950   8.461   5.802   6.563 -1.4002  0.4393  0.8514
 5850SOL     OW20951   1.075   8.236   7.007 -0.3864  0.3049  0.9169
 5850SOL    HW120952   1.063   8.142   7.020 -1.0518 -0.0465 -1.6681
 5850SOL    HW220953   1.006   8.260   6.946  2.3832  1.5408 -1.9830
 5851SOL     OW20954   9.518   4.853   4.810 -0.1191 -0.8156 -0.5338
 5851SOL    HW120955   9.509   4.834   4.904  0.3788  0.7619 -0.1292
 5851SOL    HW220956   9.464   4.930   4.796  1.3221  0.1236 -1.1149
 5852SOL     OW20957   0.168   1.332   5.955 -0.4532  0.0549  0.3836
 5852SOL    HW120958   0.153   1.419   5.918  0.1875 -0.4478 -1.1427
 5852SOL    HW220959   0.223   1.288   5.891  1.0782 -0.7540  2.1821
 5853SOL     OW20960   6.341  10.730   7.280  0.2798  0.0298  0.1274
 5853SOL    HW120961   6.421  10.782   7.287 -1.2442  2.4276  0.6970
 5853SOL    HW220962   6.331  10.714   7.186 -0.3616  2.8336 -0.3793
 5854SOL     OW20963  10.117   1.651  10.171  0.2180  0.1616 -0.3350
 5854SOL    HW120964  10.113   1.741  10.204 -0.0895  0.4945 -1.2689
 5854SOL    HW220965  10.210   1.635  10.156  0.1918  0.6347 -1.0166
 5855SOL     OW20966   6.971   9.045   3.430  0.4893 -0.1879 -0.2598
 5855SOL    HW120967   6.920   9.052   3.349  0.3090 -0.2371 -0.1514
 5855SOL    HW220968   7.050   9.096   3.413 -0.2481  1.1194  0.0946
 5856SOL     OW20969  10.718   3.850   2.829  0.3798  0.5770  0.0252
 5856SOL    HW120970  10.694   3.902   2.751  0.2283 -0.0199 -0.3309
 5856SOL    HW220971  10.770   3.778   2.795 -0.5660 -0.2744  0.3473
 5857SOL     OW20972   7.349   7.782   2.156 -0.0152  0.4834 -0.0910
 5857SOL    HW120973   7.315   7.713   2.099 -0.8986  1.9597 -1.4222
 5857SOL    HW220974   7.367   7.738   2.239 -0.1855 -1.4087 -1.0115
 5858SOL     OW20975   7.382   3.295  10.131  0.2214 -0.4245  0.0963
 5858SOL    HW120976   7.367   3.220  10.075 -1.1189 -0.7906  0.9128
 5858SOL    HW220977   7.297   3.337  10.139  0.3999 -0.3451  1.8080
 5859SOL     OW20978   8.459   6.465   2.499  0.0277  0.0848 -0.0458
 5859SOL    HW120979   8.402   6.408   2.447  2.0843 -2.3165  0.1410
 5859SOL    HW220980   8.520   6.503   2.435 -0.3169  0.8134  0.0495
 5860SOL     OW20981   0.289   3.974   1.021 -0.0020 -0.4089 -0.5634
 5860SOL    HW120982   0.210   3.998   0.972  0.8329  0.7067 -1.3946
 5860SOL    HW220983   0.361   4.010   0.970  0.9135  0.9592  1.5651
 5861SOL     OW20984   1.958   1.889   1.883  0.5757  0.4912  0.1888
 5861SOL    HW120985   1.904   1.967   1.869  0.7341  0.3554 -1.3441
 5861SOL    HW220986   1.905   1.816   1.850  1.6704  0.3651 -1.4398
 5862SOL     OW20987   8.202   1.547   5.152 -0.2075 -0.0271  0.3120
 5862SOL    HW120988   8.251   1.502   5.084  0.5828 -0.8528  1.3930
 5862SOL    HW220989   8.206   1.489   5.227 -0.3349  1.2461  1.3434
 5863SOL     OW20990   0.388   1.979   3.070  0.2563 -0.7593 -0.4110
 5863SOL    HW120991   0.451   2.015   3.133 -1.8963  0.4134  1.2158
 5863SOL    HW220992   0.376   2.049   3.006  0.2911 -0.8222 -0.4862
 5864SOL     OW20993   5.920   1.302  10.123  0.5106 -0.0155 -0.0909
 5864SOL    HW120994   5.891   1.257  10.203  0.4968 -0.6980 -0.4668
 5864SOL    HW220995   5.942   1.230  10.063 -0.8063  0.4658 -1.1916
 5865SOL     OW20996   4.287   2.950   9.622 -0.3999 -0.4159 -0.8359
 5865SOL    HW120997   4.366   2.917   9.665  0.6146  1.4255 -1.1541
 5865SOL    HW220998   4.313   2.963   9.531 -1.3855 -0.7169 -1.1704
 5866SOL     OW20999  10.371   9.121   8.335 -0.2051 -0.1273 -0.1501
 5866SOL    HW121000  10.454   9.129   8.382 -0.9622 -0.4889  1.2975
 5866SOL    HW221001  10.383   9.174   8.256  1.1819  0.3295  0.3441
 5867SOL     OW21002   8.993   2.516   7.272 -0.3264 -0.1629 -0.1414
 5867SOL    HW121003   8.910   2.489   7.312 -1.1287  0.5266 -1.2825
 5867SOL    HW221004   9.045   2.548   7.346 -2.0618  1.8239  0.3349
 5868SOL     OW21005   0.613  10.489   9.936 -0.4946 -0.1633  0.1058
 5868SOL    HW121006   0.644  10.426   9.871 -1.2834 -0.9139  0.4309
 5868SOL    HW221007   0.634  10.574   9.899 -1.2185 -0.5592 -1.3095
 5869SOL     OW21008   5.703  10.020   9.540 -0.3218  0.1121 -0.0622
 5869SOL    HW121009   5.776  10.034   9.480  0.8994  0.1261  1.3669
 5869SOL    HW221010   5.664   9.937   9.512  1.7475 -1.1533  0.5855
 5870SOL     OW21011   1.446   8.685   4.648 -0.6558  0.1325 -0.1399
 5870SOL    HW121012   1.521   8.645   4.691 -1.1857  1.3079  2.0185
 5870SOL    HW221013   1.382   8.615   4.640  0.8961 -1.1497 -2.8993
 5871SOL     OW21014   9.173   9.182   6.516  0.1790 -0.4008  0.3753
 5871SOL    HW121015   9.202   9.125   6.444  1.0415  0.7949 -0.2648
 5871SOL    HW221016   9.208   9.141   6.595  0.8716 -0.7160 -0.0844
 5872SOL     OW21017   1.634   3.285   9.122 -0.3458  0.2675  0.0342
 5872SOL    HW121018   1.555   3.265   9.173  0.6084 -1.4250  0.9704
 5872SOL    HW221019   1.610   3.266   9.032 -0.5268 -2.1255  0.5094
 5873SOL     OW21020   1.035   4.309   5.964  0.3430  0.1999  0.5333
 5873SOL    HW121021   1.055   4.277   6.052  0.2310  1.7513  1.1535
 5873SOL    HW221022   1.097   4.263   5.907  0.2367 -1.0208  1.3651
 5874SOL     OW21023   2.037   7.835  10.658 -0.4513 -0.3252  0.2721
 5874SOL    HW121024   2.057   7.807  10.747 -0.2110  1.6386  0.8846
 5874SOL    HW221025   2.123   7.849  10.618 -0.5479  0.3525  0.2830
 5875SOL     OW21026   1.306   0.311   6.732  0.1561 -0.4656 -0.3302
 5875SOL    HW121027   1.297   0.372   6.804  2.5004  0.9741 -1.1389
 5875SOL    HW221028   1.325   0.226   6.773 -0.3801 -0.0648  0.7565
 5876SOL     OW21029   4.012   8.831   0.352 -0.4953  0.3585 -0.7202
 5876SOL    HW121030   4.054   8.897   0.297  1.9419  0.1357  0.7118
 5876SOL    HW221031   4.076   8.761   0.359 -0.2196  0.7528  2.9957
 5877SOL     OW21032   2.405   6.845   9.244 -0.1893  0.4571  0.2299
 5877SOL    HW121033   2.322   6.806   9.273 -1.0522  0.9870 -1.3759
 5877SOL    HW221034   2.402   6.935   9.278 -0.4853  0.6118 -0.2014
 5878SOL     OW21035   8.360   8.290   9.253 -0.3592 -0.4178 -0.3245
 5878SOL    HW121036   8.441   8.276   9.203  0.5639  0.7078  0.7923
 5878SOL    HW221037   8.332   8.378   9.229 -1.2850 -0.7985 -0.6982
 5879SOL     OW21038   8.902   1.946   7.361 -0.2220 -0.0325  0.0478
 5879SOL    HW121039   8.997   1.943   7.354 -0.0720  2.5233  0.0342
 5879SOL    HW221040   8.878   1.861   7.398  1.8983 -1.2903 -1.2331
 5880SOL     OW21041   3.040   8.118   1.828  0.4331  0.0151 -0.1095
 5880SOL    HW121042   3.024   8.192   1.768  1.2434  0.8264  0.6310
 5880SOL    HW221043   3.035   8.157   1.915  2.6692 -0.3838  0.2714
 5881SOL     OW21044   1.663   1.743   8.263 -0.0734  0.2852  0.1865
 5881SOL    HW121045   1.752   1.745   8.298  0.6125 -1.4992 -1.2578
 5881SOL    HW221046   1.650   1.830   8.225  1.2400  0.4374  0.0368
 5882SOL     OW21047   6.001   0.236   0.165 -0.1231 -0.8984 -0.3905
 5882SOL    HW121048   6.077   0.268   0.118 -0.4885  1.2602  0.3917
 5882SOL    HW221049   5.972   0.310   0.218 -2.5332 -1.7839 -0.3555
 5883SOL     OW21050   0.450   0.797   2.753  0.1639  0.0694 -0.3502
 5883SOL    HW121051   0.408   0.718   2.719 -1.9803  1.8571 -2.2270
 5883SOL    HW221052   0.543   0.776   2.756 -0.3120 -2.3955 -1.0728
 5884SOL     OW21053   6.688   0.364   8.172  0.0068 -0.2818 -0.2089
 5884SOL    HW121054   6.638   0.286   8.196  0.0661  0.0308  0.9950
 5884SOL    HW221055   6.646   0.435   8.220  2.2301 -0.1633  1.7020
 5885SOL     OW21056   5.183   3.723   3.505 -0.2783 -0.1245  0.2633
 5885SOL    HW121057   5.173   3.815   3.532 -2.2227  0.0006 -0.6771
 5885SOL    HW221058   5.207   3.677   3.586 -2.6010  0.7274  1.5485
 5886SOL     OW21059  10.316   3.139   9.459  0.1484 -0.0994 -0.4237
 5886SOL    HW121060  10.376   3.117   9.387 -0.0862  0.6016 -0.8443
 5886SOL    HW221061  10.348   3.222   9.493 -0.7911  0.4852 -0.9091
 5887SOL     OW21062   6.647   7.880   0.793 -0.1483 -0.3884  0.0028
 5887SOL    HW121063   6.638   7.881   0.888  1.3034 -2.0838  0.2142
 5887SOL    HW221064   6.644   7.972   0.768  1.2550  0.2584  1.9239
 5888SOL     OW21065   6.747   1.296   0.763 -0.0627  0.0339  0.0084
 5888SOL    HW121066   6.811   1.312   0.831  1.0194 -0.0782 -0.9559
 5888SOL    HW221067   6.793   1.314   0.681 -1.1384 -0.4349 -0.7317
 5889SOL     OW21068   6.205   4.388   5.807 -0.3445  0.4545 -0.1681
 5889SOL    HW121069   6.289   4.344   5.792 -1.3976 -1.8263  0.0970
 5889SOL    HW221070   6.219   4.478   5.778  1.8670 -0.1222 -1.1248
 5890SOL     OW21071   9.612   8.456   5.283 -0.0578 -0.0006 -0.5847
 5890SOL    HW121072   9.618   8.465   5.188 -1.6740  1.3228 -0.6036
 5890SOL    HW221073   9.644   8.367   5.301  2.2419  0.4458 -2.1111
 5891SOL     OW21074   5.095   1.295   5.907 -0.3626 -0.3689  0.1505
 5891SOL    HW121075   5.045   1.371   5.877 -1.2884 -0.3034  1.7221
 5891SOL    HW221076   5.100   1.307   6.002  0.8631 -1.4653  0.2376
 5892SOL     OW21077   1.578   9.528   6.170 -0.2480 -0.7628  0.4075
 5892SOL    HW121078   1.567   9.442   6.129  0.0098 -1.2355  1.3041
 5892SOL    HW221079   1.657   9.518   6.224 -0.4105 -0.0678  0.7785
 5893SOL     OW21080   1.606   3.529   6.844 -0.4365 -0.1689 -0.0981
 5893SOL    HW121081   1.529   3.477   6.826 -0.1162 -0.2715 -1.2926
 5893SOL    HW221082   1.576   3.599   6.902 -1.2468 -0.6499  0.0641
 5894SOL     OW21083   6.301   6.338   2.289  0.0282  0.1619  0.3849
 5894SOL    HW121084   6.235   6.357   2.356 -0.6309 -0.8727  0.0431
 5894SOL    HW221085   6.359   6.274   2.329 -0.2768 -0.3431  0.0283
 5895SOL     OW21086   8.523  10.009   8.743  0.1060 -0.1096 -0.5335
 5895SOL    HW121087   8.556   9.953   8.673 -1.2832 -0.3879 -1.0003
 5895SOL    HW221088   8.539   9.960   8.824 -0.2713 -0.7862 -0.8616
 5896SOL     OW21089   1.219   2.127  10.491 -0.8317  0.2292 -0.5564
 5896SOL    HW121090   1.221   2.105  10.398 -0.9685 -0.2996 -0.4386
 5896SOL    HW221091   1.140   2.085  10.524 -0.4409 -0.1412 -0.0696
 5897SOL     OW21092   2.065   5.644   8.812 -0.1222  0.0550 -0.4747
 5897SOL    HW121093   2.101   5.733   8.820 -1.1298  0.4933 -0.7394
 5897SOL    HW221094   2.138   5.592   8.778  0.8922  0.4845  0.9365
 5898SOL     OW21095   0.980   5.253   0.575 -0.3130 -0.2687  0.5469
 5898SOL    HW121096   0.936   5.311   0.512  0.5157 -0.0506  0.1563
 5898SOL    HW221097   1.070   5.284   0.577  0.2202 -1.7194  0.1197
 5899SOL     OW21098   8.306   4.044   5.565  0.6745  0.2927 -0.1587
 5899SOL    HW121099   8.257   3.976   5.612  1.1737 -0.8219 -1.2006
 5899SOL    HW221100   8.387   4.053   5.615  0.7261 -0.0997 -0.1621
 5900SOL     OW21101   8.996   8.658   3.472  0.1369 -0.3831 -0.1227
 5900SOL    HW121102   8.903   8.645   3.491  0.3178  0.6793  1.6661
 5900SOL    HW221103   8.997   8.717   3.397 -0.6423  0.1558  0.2767
 5901SOL     OW21104   9.007  10.566   4.250  0.1339 -0.4134 -0.2313
 5901SOL    HW121105   8.989  10.474   4.271  0.7281 -0.6090 -0.5772
 5901SOL    HW221106   9.067  10.563   4.176 -1.2428  0.2575 -1.4468
 5902SOL     OW21107   1.220   5.007   4.042 -0.7381  0.0771 -0.2299
 5902SOL    HW121108   1.152   4.960   4.090 -1.7159  1.1077 -0.5683
 5902SOL    HW221109   1.172   5.069   3.988  0.3375 -0.8634 -2.3820
 5903SOL     OW21110   4.256   4.619   6.996 -0.3569 -0.2042  0.5694
 5903SOL    HW121111   4.180   4.614   6.937  0.7220 -1.0703 -0.8039
 5903SOL    HW221112   4.270   4.529   7.025  1.8035 -0.6003 -1.4347
 5904SOL     OW21113   9.296   3.111   6.744 -0.3024 -0.1891 -0.8097
 5904SOL    HW121114   9.367   3.068   6.695  0.3955  0.7868 -0.6898
 5904SOL    HW221115   9.306   3.204   6.723  1.8913  0.7506  3.3657
 5905SOL     OW21116   3.682   5.255   2.927 -0.8978  0.4862  0.4941
 5905SOL    HW121117   3.622   5.329   2.934 -1.9505 -0.4850  2.7162
 5905SOL    HW221118   3.677   5.211   3.013  2.4981 -0.0357  0.5752
 5906SOL     OW21119   5.613   8.692  10.133 -0.0219  0.1742  0.3182
 5906SOL    HW121120   5.562   8.753  10.080  0.0062 -0.6606 -0.7279
 5906SOL    HW221121   5.656   8.636  10.068  0.6900 -0.3490  1.2255
 5907SOL     OW21122   2.838  10.836   6.470  0.1512 -0.6280 -0.3998
 5907SOL    HW121123   2.873  10.892   6.539 -1.6508 -0.3261  0.3201
 5907SOL    HW221124   2.811  10.897   6.401  0.8913 -0.8456 -0.8913
 5908SOL     OW21125   6.002   3.553  10.795 -0.4290 -0.4084  0.5936
 5908SOL    HW121126   5.990   3.585  10.885 -0.7918  0.2308  0.3275
 5908SOL    HW221127   5.915   3.526  10.768 -0.8816  1.8205 -0.4443
 5909SOL     OW21128   4.971  10.286  10.594  0.7150  0.6635 -0.0524
 5909SOL    HW121129   4.937  10.197  10.590  0.6434  0.6473  0.7764
 5909SOL    HW221130   5.034  10.291  10.522  1.0983 -0.2153  0.2124
 5910SOL     OW21131   6.704   1.383   5.729 -0.9514  0.5279  0.1095
 5910SOL    HW121132   6.708   1.476   5.708 -1.1596  0.4432 -0.3061
 5910SOL    HW221133   6.723   1.339   5.646 -0.5759  0.1998  0.3613
 5911SOL     OW21134   3.487   7.987   5.448 -0.2823  0.1856  0.1483
 5911SOL    HW121135   3.442   8.037   5.516  0.7583 -0.0887  1.0446
 5911SOL    HW221136   3.578   7.985   5.475  0.0741 -0.3163 -1.0268
 5912SOL     OW21137   2.269   6.266   5.189 -0.0305 -0.1901 -0.2791
 5912SOL    HW121138   2.263   6.183   5.236 -0.1427  0.8799  1.7043
 5912SOL    HW221139   2.179   6.289   5.168 -0.4603  1.2613  2.6815
 5913SOL     OW21140  10.053   8.786   1.213 -0.2610 -0.0477  0.1500
 5913SOL    HW121141  10.039   8.785   1.118  0.4241 -0.5940  0.0495
 5913SOL    HW221142   9.966   8.803   1.249 -0.4240  0.7561 -0.5903
 5914SOL     OW21143   7.563   3.513   9.643  0.3906  0.3247  0.0745
 5914SOL    HW121144   7.569   3.448   9.573 -0.1851  0.8151 -0.4298
 5914SOL    HW221145   7.593   3.594   9.604 -2.9613  1.3800 -0.6354
 5915SOL     OW21146  10.285  10.529   4.980  0.4585 -0.4175 -0.2131
 5915SOL    HW121147  10.342  10.573   4.917 -0.2666  0.6913 -0.1212
 5915SOL    HW221148  10.209  10.587   4.988  0.2222 -0.8884  1.1553
 5916SOL     OW21149   7.938   2.365   2.908  0.1589 -0.1518 -0.3799
 5916SOL    HW121150   7.948   2.293   2.969 -0.0178 -0.9899 -1.3112
 5916SOL    HW221151   7.844   2.385   2.909 -0.0240 -0.9110 -1.1802
 5917SOL     OW21152   1.888   6.705   4.209 -0.0916  0.4715  0.0048
 5917SOL    HW121153   1.855   6.623   4.172 -1.0319  0.8474 -0.0165
 5917SOL    HW221154   1.901   6.686   4.302  2.0196 -0.3973 -0.4121
 5918SOL     OW21155   9.447   6.381   9.388  0.2660 -0.0321 -0.2180
 5918SOL    HW121156   9.510   6.363   9.457  0.7463 -0.0703 -0.6614
 5918SOL    HW221157   9.500   6.404   9.312 -0.2606  0.2119 -0.5214
 5919SOL     OW21158   5.009   1.968   2.892  0.3038 -0.0364  0.0222
 5919SOL    HW121159   5.064   2.023   2.948  1.7855  0.1569 -1.5482
 5919SOL    HW221160   5.052   1.971   2.806 -0.7183 -2.0161 -0.6069
 5920SOL     OW21161   2.830   7.499   4.079 -0.3402  0.8014  0.0746
 5920SOL    HW121162   2.898   7.437   4.107 -2.0066 -1.2064 -0.0642
 5920SOL    HW221163   2.877   7.581   4.066  1.6000  0.2205  2.5653
 5921SOL     OW21164   7.304   3.340   6.555 -0.3555 -0.3656  0.2606
 5921SOL    HW121165   7.276   3.393   6.481 -0.0093 -1.1426 -0.4359
 5921SOL    HW221166   7.232   3.279   6.570 -0.5667 -0.0027  0.7901
 5922SOL     OW21167   6.263   3.701   7.485  0.0169  0.0340 -0.5363
 5922SOL    HW121168   6.342   3.648   7.484  0.3159  0.4692 -0.2840
 5922SOL    HW221169   6.285   3.778   7.432  0.0363  0.5390  0.1999
 5923SOL     OW21170   7.268   8.431   1.215  0.4294 -0.1112  0.2439
 5923SOL    HW121171   7.260   8.348   1.167  0.1076 -0.7813  1.4111
 5923SOL    HW221172   7.178   8.461   1.226  0.4667 -0.1882  0.7935
 5924SOL     OW21173   6.553  10.698   2.952  0.6144 -0.3448 -0.1801
 5924SOL    HW121174   6.575  10.612   2.988  0.5946  0.2961  1.4737
 5924SOL    HW221175   6.503  10.741   3.022 -1.7432  0.0420 -1.9752
 5925SOL     OW21176   0.082   0.518   2.188  0.2545  0.1086 -0.4880
 5925SOL    HW121177   0.068   0.429   2.219 -1.2948  1.0587  1.7929
 5925SOL    HW221178   0.083   0.510   2.093 -0.5848 -2.2377 -0.3599
 5926SOL     OW21179   2.125   0.236   5.404  0.3847 -0.0825 -0.0033
 5926SOL    HW121180   2.104   0.209   5.494 -0.6204 -1.0091 -0.4915
 5926SOL    HW221181   2.044   0.277   5.373  1.3355  2.0091  0.1364
 5927SOL     OW21182   7.124   6.791  10.525  0.3348  0.4717 -0.3570
 5927SOL    HW121183   7.185   6.820  10.593 -0.5037  1.3479  0.0477
 5927SOL    HW221184   7.175   6.795  10.444  0.9504  0.7657  0.0339
 5928SOL     OW21185   3.164   3.618   1.685  0.8528  0.0473 -0.4584
 5928SOL    HW121186   3.154   3.539   1.632 -0.4175  1.0815 -1.8343
 5928SOL    HW221187   3.075   3.645   1.706  1.2279  1.4493 -0.5532
 5929SOL     OW21188  10.763   6.005   5.861  0.5951 -0.5787  0.1639
 5929SOL    HW121189  10.749   6.015   5.767 -0.5441 -2.9024 -0.0037
 5929SOL    HW221190  10.685   6.045   5.901  0.9342  0.1396  0.1164
 5930SOL     OW21191   6.846   6.966   3.159 -0.4272  0.1140 -0.1342
 5930SOL    HW121192   6.834   6.873   3.180  1.0309 -0.4795 -1.7228
 5930SOL    HW221193   6.791   6.980   3.081  0.8795  0.0290 -1.1099
 5931SOL     OW21194   1.631   8.865   0.026  0.6040  0.0333 -0.7792
 5931SOL    HW121195   1.694   8.912  -0.028  1.9511 -0.9270 -0.0856
 5931SOL    HW221196   1.644   8.773   0.004 -0.8774 -0.1694 -0.9278
 5932SOL     OW21197   4.809   5.625   6.047  0.1799 -0.0378  0.0156
 5932SOL    HW121198   4.876   5.690   6.025  0.8629 -0.9943 -0.8021
 5932SOL    HW221199   4.834   5.547   5.998  0.5630 -1.6290  2.5534
 5933SOL     OW21200   4.728   6.607   1.111  0.1030  0.1331 -0.4846
 5933SOL    HW121201   4.747   6.593   1.018  0.8771 -0.6873 -0.2138
 5933SOL    HW221202   4.662   6.676   1.112  3.7559  4.0872 -1.4609
 5934SOL     OW21203   8.790   4.764   2.378  0.3595 -0.0493  0.5769
 5934SOL    HW121204   8.848   4.705   2.329  2.6765  3.2342 -1.0094
 5934SOL    HW221205   8.845   4.798   2.448 -0.5123  1.0652  0.7406
 5935SOL     OW21206   8.932   2.106   4.765 -0.1362  0.5805  0.4833
 5935SOL    HW121207   8.861   2.050   4.796  1.6350 -1.9553  0.3308
 5935SOL    HW221208   8.890   2.187   4.737 -3.1134 -1.2676 -0.8138
 5936SOL     OW21209   3.029   1.996   8.060  0.1443 -0.0720  0.5950
 5936SOL    HW121210   3.105   2.008   8.117  0.9146  1.2900 -0.6361
 5936SOL    HW221211   3.065   1.953   7.982 -0.6471 -0.7771  0.6041
 5937SOL     OW21212   1.516   4.416   3.858  0.1142 -0.0677 -0.8784
 5937SOL    HW121213   1.468   4.339   3.886  0.0517  0.3934  0.3843
 5937SOL    HW221214   1.467   4.490   3.895  0.5461  0.5387 -1.4830
 5938SOL     OW21215   6.053   0.409   7.563 -0.3087  0.2791 -0.0226
 5938SOL    HW121216   6.016   0.391   7.477  1.6121 -0.7811 -0.6821
 5938SOL    HW221217   6.147   0.410   7.549 -0.0079  2.4708  1.6615
 5939SOL     OW21218   4.123  10.470   1.496  0.1937 -0.1675  0.5545
 5939SOL    HW121219   4.076  10.434   1.421  0.9557  0.4150 -0.2255
 5939SOL    HW221220   4.212  10.435   1.487 -0.1010 -1.4591  2.1378
 5940SOL     OW21221   9.186   8.241  10.606  0.1468  0.0210 -0.1470
 5940SOL    HW121222   9.210   8.175  10.541  1.2974  1.0059 -0.7521
 5940SOL    HW221223   9.098   8.270  10.580 -0.5814 -1.5760  0.4104
 5941SOL     OW21224   2.139   7.386   8.081 -0.7157 -0.2246  0.6204
 5941SOL    HW121225   2.178   7.304   8.052 -0.3877  0.0987  0.1371
 5941SOL    HW221226   2.068   7.360   8.140 -0.1225 -0.8282  1.0717
 5942SOL     OW21227   1.071  10.625   1.334  0.3786 -0.2019  0.5685
 5942SOL    HW121228   1.055  10.676   1.254  0.9067  0.4472  0.8669
 5942SOL    HW221229   1.073  10.534   1.304 -3.5553 -0.4164  0.4420
 5943SOL     OW21230   8.526   7.883   2.312 -0.3393 -0.2645  0.3841
 5943SOL    HW121231   8.441   7.890   2.355 -0.7180  3.3528 -0.6123
 5943SOL    HW221232   8.580   7.950   2.354  0.7277  0.2398 -1.6291
 5944SOL     OW21233   1.806  10.884   7.850  0.2837 -0.2063 -0.0418
 5944SOL    HW121234   1.754  10.951   7.806  0.5526  0.1896  0.2393
 5944SOL    HW221235   1.826  10.820   7.782  0.0891  0.0349 -0.3274
 5945SOL     OW21236  10.508   8.146   0.956  0.6478  0.0930  0.5453
 5945SOL    HW121237  10.493   8.214   1.022 -1.2262 -2.2153  2.7016
 5945SOL    HW221238  10.432   8.087   0.965  1.7364 -1.8195 -1.8008
 5946SOL     OW21239   7.207   0.610   4.222  0.1022 -0.0682  0.2479
 5946SOL    HW121240   7.138   0.576   4.165  1.7097 -2.7036 -0.2902
 5946SOL    HW221241   7.162   0.670   4.281 -1.9572  1.3987 -2.5705
 5947SOL     OW21242   4.540  10.351   9.678  0.5499 -0.4798  0.4871
 5947SOL    HW121243   4.461  10.297   9.676  0.5181 -0.4366 -0.9124
 5947SOL    HW221244   4.571  10.350   9.587  1.2219  0.8560  0.6821
 5948SOL     OW21245   7.189   3.009   3.228  0.3046  0.0510 -0.2066
 5948SOL    HW121246   7.163   3.087   3.178 -0.8908 -0.3668 -0.2638
 5948SOL    HW221247   7.155   3.025   3.316 -0.4324 -0.6416 -0.3570
 5949SOL     OW21248   0.521   3.700   1.440 -0.1167  0.2306 -0.2386
 5949SOL    HW121249   0.602   3.709   1.390 -0.9093  0.0473 -1.5805
 5949SOL    HW221250   0.508   3.605   1.449 -0.3662  0.2550 -0.3280
 5950SOL     OW21251   0.020   1.751   9.593  0.0170  0.5278 -0.5060
 5950SOL    HW121252   0.028   1.755   9.688 -0.2609  2.2453 -0.5204
 5950SOL    HW221253   0.062   1.669   9.569 -0.8402 -0.4669  1.1835
 5951SOL     OW21254   2.822   3.711   7.978  0.0683 -0.3625  0.2133
 5951SOL    HW121255   2.794   3.620   7.973 -0.5971 -0.2262  1.1960
 5951SOL    HW221256   2.892   3.718   7.913  0.3728 -1.6635  0.3714
 5952SOL     OW21257   2.031   2.212   7.666  0.0423  0.0210 -0.1038
 5952SOL    HW121258   2.101   2.274   7.686 -0.4917  1.1215 -1.4876
 5952SOL    HW221259   2.074   2.141   7.620  0.3138  0.5134 -0.6158
 5953SOL     OW21260   6.263   3.305   5.462  0.1845 -0.0224  0.0669
 5953SOL    HW121261   6.255   3.400   5.453 -0.0583 -0.0875 -0.4600
 5953SOL    HW221262   6.232   3.271   5.378 -0.4337 -0.6036  0.5251
 5954SOL     OW21263   7.095  10.488   4.650  0.4289  0.1578 -0.6525
 5954SOL    HW121264   7.151  10.413   4.631  0.8149  0.2737  0.0096
 5954SOL    HW221265   7.121  10.517   4.737  1.0940  1.7866 -1.3429
 5955SOL     OW21266  10.803   4.104   4.397  0.0042 -0.6026 -0.3828
 5955SOL    HW121267  10.866   4.080   4.330 -1.9400 -1.0123 -2.1692
 5955SOL    HW221268  10.830   4.055   4.475 -0.0695 -3.5274 -2.0546
 5956SOL     OW21269   4.970  10.718   0.704  0.0088 -0.2616  0.5880
 5956SOL    HW121270   5.024  10.652   0.661 -1.3632  0.3583 -2.3167
 5956SOL    HW221271   5.031  10.789   0.723  1.0166 -1.3206  1.5174
 5957SOL     OW21272   9.812   3.517   7.702  0.0731 -0.1027  0.1007
 5957SOL    HW121273   9.752   3.491   7.772  0.5758 -0.0082  0.5744
 5957SOL    HW221274   9.875   3.445   7.697  1.8208  1.1998  1.8078
 5958SOL     OW21275   3.975  10.614   4.961 -0.5071 -0.3299  0.0473
 5958SOL    HW121276   3.907  10.562   4.916 -0.3023 -0.4311 -0.1493
 5958SOL    HW221277   3.929  10.655   5.034 -0.1146 -3.0979  2.0128
 5959SOL     OW21278   4.624   3.754   4.235  0.0985  0.3827 -0.1417
 5959SOL    HW121279   4.684   3.750   4.310 -1.9794  1.0790  1.6569
 5959SOL    HW221280   4.650   3.833   4.187 -0.2936  1.5438  1.4821
 5960SOL     OW21281  10.103   7.573  10.177 -0.3704 -0.8788  0.5619
 5960SOL    HW121282  10.075   7.641  10.116 -2.5469 -2.5510 -0.4112
 5960SOL    HW221283  10.127   7.499  10.122 -1.3307 -2.0578  1.6790
 5961SOL     OW21284   9.194   7.961   6.702 -0.5089  0.3074 -0.4475
 5961SOL    HW121285   9.191   7.865   6.707 -2.8963  0.3832  1.2962
 5961SOL    HW221286   9.227   7.988   6.788 -0.7609  1.0864 -0.5895
 5962SOL     OW21287   1.973   5.069   5.065 -0.5943 -0.2948 -0.3841
 5962SOL    HW121288   1.913   5.137   5.036  0.6461  1.2951  0.6038
 5962SOL    HW221289   1.939   5.044   5.151 -1.9115 -2.0782 -1.3508
 5963SOL     OW21290   1.860   6.990   0.750 -0.2862 -0.3796 -0.4100
 5963SOL    HW121291   1.876   6.959   0.839 -3.8764  1.6659  1.1871
 5963SOL    HW221292   1.810   6.919   0.708 -2.2666  0.2424  0.7657
 5964SOL     OW21293   2.895   2.180   9.723  0.2560  0.6288 -0.2213
 5964SOL    HW121294   2.848   2.139   9.650 -0.6344  1.1906  0.0226
 5964SOL    HW221295   2.837   2.170   9.798  1.5768 -0.7823  0.6600
 5965SOL     OW21296   6.085   9.438   2.842  0.5293  0.1978 -0.0606
 5965SOL    HW121297   6.063   9.441   2.749 -0.5860  0.0485  0.1808
 5965SOL    HW221298   6.087   9.344   2.863  1.4125  0.2085 -0.0682
 5966SOL     OW21299   3.409   2.550   5.859  0.1845  0.4554  0.3733
 5966SOL    HW121300   3.440   2.541   5.949  2.1794 -1.0391 -0.3956
 5966SOL    HW221301   3.336   2.489   5.852  0.9333 -0.5022  0.6365
 5967SOL     OW21302   8.481   9.232   0.703  0.2255 -0.7659  0.0429
 5967SOL    HW121303   8.561   9.206   0.747  0.4251 -1.5984 -0.7708
 5967SOL    HW221304   8.429   9.276   0.770  0.8458 -1.3033  0.8850
 5968SOL     OW21305   8.534   9.492   0.542  1.4712  0.3530 -0.2817
 5968SOL    HW121306   8.527   9.398   0.554  0.5891  0.2461 -1.5185
 5968SOL    HW221307   8.479   9.529   0.612  0.0281 -0.1317 -1.1151
 5969SOL     OW21308   3.969   5.400  10.224  0.2178 -0.1904  0.1171
 5969SOL    HW121309   3.956   5.482  10.272  0.2296 -1.1728  1.8778
 5969SOL    HW221310   4.051   5.365  10.258 -1.0055 -2.1296  1.2369
 5970SOL     OW21311   7.615   1.176  10.517 -0.1321  0.5693  0.0802
 5970SOL    HW121312   7.597   1.131  10.600  0.6704 -0.2068 -0.1608
 5970SOL    HW221313   7.563   1.129  10.452  0.9983 -0.2855 -0.2372
 5971SOL     OW21314   0.096   9.809   0.005  0.0864 -0.8528 -0.0934
 5971SOL    HW121315   0.177   9.791  -0.043  0.6509  3.5827 -1.2274
 5971SOL    HW221316   0.040   9.854  -0.058 -1.6978 -0.3533  1.7426
 5972SOL     OW21317   5.066   7.383   0.501  0.2978 -0.4500 -0.5502
 5972SOL    HW121318   5.063   7.354   0.592 -0.2495 -2.7661 -1.2445
 5972SOL    HW221319   5.118   7.463   0.503  1.7917 -1.3988  1.5482
 5973SOL     OW21320   8.345   8.655   0.584 -0.0858  0.0981 -0.1520
 5973SOL    HW121321   8.335   8.731   0.641 -1.0470  0.5494 -0.8899
 5973SOL    HW221322   8.274   8.664   0.520  0.0180 -1.2219 -0.4755
 5974SOL     OW21323   5.863   9.647   3.192 -0.3720 -0.0193 -0.5587
 5974SOL    HW121324   5.781   9.683   3.227  0.3183  0.8416  0.2122
 5974SOL    HW221325   5.906   9.607   3.268  1.0153  1.6213 -0.4311
 5975SOL     OW21326   2.129   1.791   3.604  0.3484 -0.0671 -0.3098
 5975SOL    HW121327   2.108   1.718   3.545  0.4116  0.6688 -1.2592
 5975SOL    HW221328   2.140   1.866   3.546  1.2224  0.5040  0.5744
 5976SOL     OW21329  10.716   7.302   5.877 -0.0805 -0.1695 -0.0629
 5976SOL    HW121330  10.780   7.258   5.933 -0.8708 -0.8176  0.3626
 5976SOL    HW221331  10.768   7.343   5.808  1.0379  1.6960  1.7946
 5977SOL     OW21332   9.499   4.224   4.891  0.3787 -0.0060  0.2953
 5977SOL    HW121333   9.571   4.244   4.951  2.0934  0.3129 -1.7432
 5977SOL    HW221334   9.463   4.309   4.866 -0.0454 -0.1125  0.5393
 5978SOL     OW21335   0.847   8.020   3.177  0.3219 -0.2854  0.0449
 5978SOL    HW121336   0.928   7.971   3.163  0.6122  0.3480 -0.5504
 5978SOL    HW221337   0.796   8.005   3.097 -0.4486 -1.2143  0.6819
 5979SOL     OW21338   1.938   2.118   5.216 -0.1681  0.6698  0.7071
 5979SOL    HW121339   1.863   2.110   5.275 -0.6720 -0.8991 -0.0979
 5979SOL    HW221340   1.992   2.042   5.235 -0.6948 -0.2665 -1.2743
 5980SOL     OW21341   8.094  10.289  10.265  0.0268  0.2425  0.7750
 5980SOL    HW121342   8.027  10.255  10.324 -1.8040 -0.0274 -1.3274
 5980SOL    HW221343   8.051  10.360  10.219  1.7679  1.1934  0.5282
 5981SOL     OW21344   0.630  10.558   4.585 -0.2337  0.7016  0.2575
 5981SOL    HW121345   0.566  10.498   4.547  0.7655  0.2494 -0.7886
 5981SOL    HW221346   0.642  10.626   4.518 -0.1346  1.1660  0.7380
 5982SOL     OW21347   7.985   6.012   2.315  0.1621  0.3796 -0.3715
 5982SOL    HW121348   7.937   5.929   2.308 -0.5305  0.6352  0.9612
 5982SOL    HW221349   8.025   6.024   2.230  0.5098 -1.4740 -0.5063
 5983SOL     OW21350   5.530   2.274   5.146 -0.4881  0.3630 -0.3788
 5983SOL    HW121351   5.542   2.181   5.166 -0.0073  0.6742  0.8956
 5983SOL    HW221352   5.459   2.302   5.204 -0.7824  0.7482 -0.9162
 5984SOL     OW21353   3.089   7.379   9.221  0.2172  0.1270  0.4625
 5984SOL    HW121354   3.145   7.395   9.145  0.2031 -0.0705  0.4107
 5984SOL    HW221355   3.027   7.452   9.220 -1.2013 -1.0429 -1.0040
 5985SOL     OW21356   8.278   5.815   8.127  0.2125 -0.8928 -0.1867
 5985SOL    HW121357   8.260   5.780   8.214 -1.8044  1.9732  0.6741
 5985SOL    HW221358   8.274   5.910   8.137  2.0122 -0.3989 -3.0325
 5986SOL     OW21359   0.372  10.594   5.219 -0.0564 -0.4343  0.4778
 5986SOL    HW121360   0.412  10.542   5.289 -0.0996 -0.9811  0.1010
 5986SOL    HW221361   0.279  10.570   5.222 -0.2540  0.3259  0.9098
 5987SOL     OW21362   8.909   2.818   6.255 -0.0097 -0.0384  0.2944
 5987SOL    HW121363   8.943   2.755   6.319 -0.2450 -0.5216 -0.0488
 5987SOL    HW221364   8.834   2.774   6.216 -0.8282  0.8686  0.7929
 5988SOL     OW21365   1.664   9.771   9.687 -0.2883 -0.2327  0.4121
 5988SOL    HW121366   1.676   9.684   9.726  0.3247  0.3758  1.6359
 5988SOL    HW221367   1.678   9.757   9.593  0.5962 -1.3250  0.6826
 5989SOL     OW21368   3.326   8.413   0.302  0.1348  0.2990  0.3172
 5989SOL    HW121369   3.388   8.380   0.236 -0.4242 -0.0967 -0.0195
 5989SOL    HW221370   3.282   8.335   0.335  1.4336  0.3329  2.2440
 5990SOL     OW21371   7.412   1.939   2.507 -0.1753 -0.1210 -0.1506
 5990SOL    HW121372   7.494   1.981   2.533 -0.8669  0.0385  1.9780
 5990SOL    HW221373   7.425   1.846   2.525 -0.4564 -0.0936  0.2094
 5991SOL     OW21374   6.694   0.249   7.431  0.0943  0.4285 -0.4895
 5991SOL    HW121375   6.746   0.253   7.510 -0.3240 -0.1611 -0.1761
 5991SOL    HW221376   6.603   0.257   7.461  0.0020  1.8969 -1.0632
 5992SOL     OW21377   0.179  10.278   3.611  0.1942 -0.3238 -0.6438
 5992SOL    HW121378   0.232  10.283   3.531  1.0467  0.2113 -0.0488
 5992SOL    HW221379   0.228  10.221   3.670  1.2622  1.9350  0.7535
 5993SOL     OW21380   8.027   7.462   9.482  0.3683  0.1206  0.0122
 5993SOL    HW121381   7.958   7.441   9.546  1.1687 -0.5509  0.6754
 5993SOL    HW221382   8.006   7.550   9.453 -0.0659  0.4156  1.1457
 5994SOL     OW21383   0.576   9.313   7.371 -0.2757  0.3620  0.3940
 5994SOL    HW121384   0.568   9.352   7.459 -1.0862 -1.2307  1.0722
 5994SOL    HW221385   0.556   9.221   7.384  0.4793 -0.0878 -1.3472
 5995SOL     OW21386   0.730   3.004   8.197 -0.3075 -0.3155  0.4227
 5995SOL    HW121387   0.719   3.095   8.168 -0.4053 -0.4037  0.1834
 5995SOL    HW221388   0.816   3.003   8.240  0.9793 -0.7063 -1.9671
 5996SOL     OW21389   7.123   9.317   2.865 -0.2227 -0.0839 -0.2698
 5996SOL    HW121390   7.158   9.229   2.849 -0.5620 -0.2467 -0.1201
 5996SOL    HW221391   7.033   9.313   2.833  0.0854  0.5298 -1.2839
 5997SOL     OW21392   0.847   5.132   1.519 -0.0062 -0.2415 -0.0917
 5997SOL    HW121393   0.783   5.097   1.580  1.3592  0.9984  2.1902
 5997SOL    HW221394   0.887   5.054   1.480 -0.4665 -1.1032  1.0959
 5998SOL     OW21395   6.777  10.654   4.045  0.5298  0.1327 -0.1615
 5998SOL    HW121396   6.727  10.615   3.973 -0.1757 -0.9825  0.8967
 5998SOL    HW221397   6.820  10.580   4.087  2.5919  1.0000 -0.6362
 5999SOL     OW21398   9.875  10.828   8.082  0.4647  0.3656  0.2037
 5999SOL    HW121399   9.914  10.808   7.997  1.1535  0.0416  0.5991
 5999SOL    HW221400   9.857  10.922   8.078  0.3694  0.3265 -0.3481
 6000SOL     OW21401   9.895   6.026   4.050 -0.8890  0.0305  0.1834
 6000SOL    HW121402   9.829   5.970   4.091 -2.1926  0.4941 -1.2024
 6000SOL    HW221403   9.910   6.096   4.114 -1.3683 -0.3380  0.7147
 6001SOL     OW21404   1.320   1.818   0.350 -0.6823 -0.2489 -0.3289
 6001SOL    HW121405   1.320   1.799   0.256 -3.3521  1.3488 -0.7366
 6001SOL    HW221406   1.410   1.801   0.378  1.0969  2.3099 -3.8102
 6002SOL     OW21407   7.284   5.481   4.514 -0.5075 -0.1974  0.0302
 6002SOL    HW121408   7.313   5.389   4.512 -2.0752 -0.7430  0.8994
 6002SOL    HW221409   7.189   5.476   4.522 -0.7197  1.5273 -0.9363
 6003SOL     OW21410   3.144   9.567   3.990 -0.1829 -0.0471  0.0758
 6003SOL    HW121411   3.079   9.540   3.925  0.5444  1.3087 -1.2881
 6003SOL    HW221412   3.136   9.503   4.060 -0.7280 -1.8384 -1.5345
 6004SOL     OW21413   4.144  10.889   1.319 -0.7026  0.3662  0.5594
 6004SOL    HW121414   4.071  10.834   1.347 -0.4545 -0.3781 -0.2401
 6004SOL    HW221415   4.211  10.827   1.290  0.6167  0.9878  2.0920
 6005SOL     OW21416   0.641   1.909   7.747  0.3306 -0.3676 -0.0067
 6005SOL    HW121417   0.733   1.914   7.770  0.5783 -0.5888 -0.9363
 6005SOL    HW221418   0.597   1.966   7.811  1.0648 -0.4809  0.6110
 6006SOL     OW21419   5.013  10.900   9.860  0.3129  0.6717 -0.3797
 6006SOL    HW121420   5.088  10.921   9.915  0.0936 -0.7442  0.5395
 6006SOL    HW221421   4.999  10.806   9.874 -1.0303  0.7053 -1.2725
 6007SOL     OW21422   4.830   6.426   6.378  0.2725 -0.0233 -0.3810
 6007SOL    HW121423   4.766   6.480   6.425 -0.1915 -2.8124  2.4897
 6007SOL    HW221424   4.778   6.383   6.310 -0.2232  0.1368 -0.1178
 6008SOL     OW21425   6.280   3.971   6.833  0.1041  0.1555 -0.3249
 6008SOL    HW121426   6.230   4.021   6.897  0.6469  1.0667 -0.5905
 6008SOL    HW221427   6.251   3.880   6.845  1.1855  0.0656  2.1804
 6009SOL     OW21428   5.684   9.505  10.272  0.0308 -0.1108  0.2179
 6009SOL    HW121429   5.766   9.504  10.320  0.0062  1.7598  0.3612
 6009SOL    HW221430   5.620   9.469  10.333  0.0549  1.9533  1.5424
 6010SOL     OW21431  10.845   6.320   9.770  0.0116  0.5608  0.3169
 6010SOL    HW121432  10.760   6.318   9.727 -1.0348  2.4772  2.0632
 6010SOL    HW221433  10.909   6.308   9.700 -1.6725 -0.1606 -1.1481
 6011SOL     OW21434   5.207   1.019   9.853 -0.0939  0.2291 -0.3151
 6011SOL    HW121435   5.242   0.979   9.774 -1.0928 -1.0305 -0.1627
 6011SOL    HW221436   5.120   1.050   9.828 -0.2069  0.2919  0.1441
 6012SOL     OW21437  10.486   2.829   4.282 -0.4891 -0.2761  0.0720
 6012SOL    HW121438  10.484   2.752   4.225  0.7718 -0.9384  0.8581
 6012SOL    HW221439  10.407   2.821   4.335  0.5779 -2.2007  1.5308
 6013SOL     OW21440   5.671   3.970   2.530 -0.1374 -0.4917 -0.3985
 6013SOL    HW121441   5.723   3.920   2.591  0.0420  1.0146  0.7362
 6013SOL    HW221442   5.734   4.024   2.482 -0.4410 -0.3394 -0.6350
 6014SOL     OW21443  10.674   6.056   3.455  0.0390 -0.7028  0.4116
 6014SOL    HW121444  10.719   6.022   3.378  0.3125  1.6495 -0.5416
 6014SOL    HW221445  10.741   6.101   3.505 -0.8995  1.8091 -0.4152
 6015SOL     OW21446   7.964   3.541  10.324  0.4621 -0.5709 -0.0340
 6015SOL    HW121447   7.916   3.619  10.351  0.6881 -1.0410  1.9019
 6015SOL    HW221448   7.908   3.499  10.258 -1.6602 -0.9225  1.8743
 6016SOL     OW21449   9.106   4.392   9.137 -0.0728  0.2981  0.1504
 6016SOL    HW121450   9.130   4.463   9.078  0.0751 -0.4721 -0.7276
 6016SOL    HW221451   9.066   4.326   9.081 -2.1694  0.5444  1.2271
 6017SOL     OW21452   9.790   0.104   5.533 -0.1557  0.0731  0.0864
 6017SOL    HW121453   9.772   0.034   5.596 -2.0238  1.4194  1.1518
 6017SOL    HW221454   9.706   0.121   5.491  0.9072 -0.3432 -2.4107
 6018SOL     OW21455   1.250   0.862   4.933 -0.3071 -0.4356 -0.0953
 6018SOL    HW121456   1.230   0.888   4.843  1.4524  0.2040 -0.3380
 6018SOL    HW221457   1.243   0.943   4.983  1.1634 -0.2618 -0.1256
 6019SOL     OW21458   6.392   3.844   3.003  0.3824 -0.1523 -0.1049
 6019SOL    HW121459   6.358   3.926   2.968  1.4680  1.5759  2.6449
 6019SOL    HW221460   6.336   3.777   2.963 -1.4438  1.9708 -1.3727
 6020SOL     OW21461   8.159  10.188   7.720  0.6540  0.3727  0.0551
 6020SOL    HW121462   8.245  10.179   7.761  0.3199  0.3677  0.7752
 6020SOL    HW221463   8.097  10.175   7.791  0.0036 -1.3372 -0.7721
 6021SOL     OW21464   9.389   1.261   0.170  0.1330  0.4751 -0.3910
 6021SOL    HW121465   9.430   1.214   0.097  1.9915 -1.4044  1.7067
 6021SOL    HW221466   9.454   1.326   0.197  0.3420 -0.1974  0.8022
 6022SOL     OW21467   6.448   6.817   1.516  0.0872  0.7645  0.4363
 6022SOL    HW121468   6.519   6.803   1.580  0.5654  2.8957  0.4291
 6022SOL    HW221469   6.476   6.767   1.439  0.7873  0.2665  0.9960
 6023SOL     OW21470   4.239   6.634   2.336 -0.4349 -0.0452 -0.0445
 6023SOL    HW121471   4.280   6.559   2.379 -1.4858 -0.2383  0.6389
 6023SOL    HW221472   4.310   6.674   2.285  0.0805 -1.6448 -0.6296
 6024SOL     OW21473   1.320   6.569   4.911 -0.3069 -0.1362 -0.9431
 6024SOL    HW121474   1.230   6.577   4.942 -0.1810 -0.3896 -0.5012
 6024SOL    HW221475   1.373   6.587   4.989  0.0310  0.5878 -1.3313
 6025SOL     OW21476   9.143   7.531  10.897  0.2113  0.2445 -0.5865
 6025SOL    HW121477   9.075   7.590  10.931 -1.3041 -0.7696 -1.7597
 6025SOL    HW221478   9.215   7.539  10.960 -0.6008  2.0719  0.1761
 6026SOL     OW21479   4.291   6.044   8.786 -0.2754  0.0710 -0.1012
 6026SOL    HW121480   4.301   6.104   8.860 -0.2030  1.1387 -0.9542
 6026SOL    HW221481   4.225   5.981   8.815 -0.3163  0.5322  0.8341
 6027SOL     OW21482   4.680  10.142   8.538 -0.8679 -0.4577  0.0008
 6027SOL    HW121483   4.591  10.174   8.523 -0.0803  0.8932 -2.4289
 6027SOL    HW221484   4.669  10.066   8.595 -3.4841  0.1582  0.4579
 6028SOL     OW21485   0.267   2.307   1.053 -0.0623  0.3899 -0.2995
 6028SOL    HW121486   0.300   2.239   1.111 -1.2946  2.7335  3.5498
 6028SOL    HW221487   0.337   2.373   1.051 -1.3076  1.8746  1.5380
 6029SOL     OW21488   9.205   7.888   7.189  0.0782  0.0166 -0.1798
 6029SOL    HW121489   9.224   7.928   7.275  0.5496  0.1980 -0.3652
 6029SOL    HW221490   9.115   7.914   7.171  0.1318  0.3781  0.0456
 6030SOL     OW21491   9.363  10.134   0.553  0.5491  0.4800 -0.0473
 6030SOL    HW121492   9.349  10.066   0.619 -0.9945  0.6062 -0.2186
 6030SOL    HW221493   9.293  10.198   0.569  1.6487  1.7728 -0.2372
 6031SOL     OW21494  10.569   7.197   9.336  0.6342 -0.6959 -0.3284
 6031SOL    HW121495  10.500   7.181   9.400  1.7057 -0.8693  0.8227
 6031SOL    HW221496  10.526   7.244   9.265 -0.7207 -1.0679  0.2175
 6032SOL     OW21497   6.117  10.017   9.854 -0.2019  0.1062  0.4730
 6032SOL    HW121498   6.149   9.927   9.854 -0.0684  0.1534  0.8478
 6032SOL    HW221499   6.022  10.009   9.861 -0.1293  0.0121  1.5613
 6033SOL     OW21500   1.693   9.498   5.221 -0.2790 -0.2373 -0.0349
 6033SOL    HW121501   1.772   9.491   5.274  0.3622 -1.0155 -1.0735
 6033SOL    HW221502   1.662   9.408   5.210 -0.3923 -0.0946 -0.9834
 6034SOL     OW21503   3.180   4.699   7.756  0.1806  0.4901  0.0922
 6034SOL    HW121504   3.207   4.777   7.805  0.7260 -0.0824  0.7311
 6034SOL    HW221505   3.154   4.636   7.824 -1.8621  0.6535 -0.4527
 6035SOL     OW21506   0.494   8.874   4.439  0.0462  0.2144 -0.5062
 6035SOL    HW121507   0.550   8.804   4.471 -2.3773 -1.2623  0.8593
 6035SOL    HW221508   0.444   8.835   4.368 -2.2132  0.0374  1.0588
 6036SOL     OW21509   4.514  10.805   5.682  0.1117 -0.5532 -0.1426
 6036SOL    HW121510   4.598  10.848   5.700 -0.4008  0.5633 -0.3487
 6036SOL    HW221511   4.525  10.767   5.595 -0.0878  0.8925 -0.8296
 6037SOL     OW21512   8.861   9.630   7.780  0.1378  0.5874 -0.4387
 6037SOL    HW121513   8.861   9.555   7.722  2.7177  0.3767 -0.2717
 6037SOL    HW221514   8.784   9.680   7.755 -3.0276 -3.1184  0.9316
 6038SOL     OW21515   4.635  10.256   3.648 -0.2734 -0.4137 -0.0616
 6038SOL    HW121516   4.646  10.211   3.731  0.8138 -2.1819 -1.1149
 6038SOL    HW221517   4.660  10.347   3.666  0.5971 -0.9129  1.3657
 6039SOL     OW21518   2.808   1.636   7.876 -0.7844  0.4865  0.1229
 6039SOL    HW121519   2.899   1.664   7.883 -0.7159  0.1791  0.5064
 6039SOL    HW221520   2.756   1.713   7.899 -0.6434  0.9014 -0.8949
 6040SOL     OW21521   9.151   5.106   6.587 -0.4030  0.5428  0.3377
 6040SOL    HW121522   9.217   5.148   6.643 -0.1940  1.5217 -0.6170
 6040SOL    HW221523   9.097   5.178   6.555  0.3952  0.2189 -1.9300
 6041SOL     OW21524   4.545   5.137   3.403  0.0455 -0.3796  0.3509
 6041SOL    HW121525   4.500   5.129   3.487  0.8500 -1.3667  0.6947
 6041SOL    HW221526   4.517   5.223   3.370 -0.0186  0.1778  1.7737
 6042SOL     OW21527   8.634   6.502   1.529 -0.4822 -0.0960 -0.1001
 6042SOL    HW121528   8.723   6.467   1.534 -0.1636  0.7193  0.2146
 6042SOL    HW221529   8.618   6.514   1.436 -0.5834 -1.0147 -0.2097
 6043SOL     OW21530   5.141   6.928   7.542 -0.5932  0.2357  0.2504
 6043SOL    HW121531   5.195   7.007   7.542 -1.2791  0.7371  1.3455
 6043SOL    HW221532   5.052   6.960   7.523 -0.6365 -0.4727 -0.7846
 6044SOL     OW21533   4.457   2.435   8.920  0.0487  0.1938  0.2388
 6044SOL    HW121534   4.491   2.498   8.984  0.5050  1.3577 -1.0999
 6044SOL    HW221535   4.497   2.461   8.837  0.5773 -2.1310 -0.3080
 6045SOL     OW21536   5.117   9.233   5.372  0.6879  0.5927 -0.6308
 6045SOL    HW121537   5.067   9.270   5.300  0.2685  1.0203 -0.1297
 6045SOL    HW221538   5.092   9.285   5.448 -1.2260 -1.7157  0.4670
 6046SOL     OW21539   5.258   5.463  10.874 -0.5979  0.1820 -0.1225
 6046SOL    HW121540   5.215   5.545  10.852 -2.0633 -0.9545 -1.8175
 6046SOL    HW221541   5.188   5.408  10.909 -0.8229 -1.8810 -3.4055
 6047SOL     OW21542   1.982   2.704   3.659  0.2515  0.0992 -0.0879
 6047SOL    HW121543   1.942   2.617   3.672  1.0711 -0.1657  0.8602
 6047SOL    HW221544   2.069   2.685   3.624  1.2697  0.3640  2.0941
 6048SOL     OW21545   5.137   0.746   9.339  0.2998 -0.0240 -0.5337
 6048SOL    HW121546   5.200   0.815   9.358  0.5523 -0.2636 -0.4906
 6048SOL    HW221547   5.109   0.714   9.425 -1.0456  1.1091 -0.5060
 6049SOL     OW21548   5.112   2.730   3.684 -0.1950  0.2961 -0.0091
 6049SOL    HW121549   5.195   2.703   3.723  0.1703  1.4936  0.0760
 6049SOL    HW221550   5.127   2.723   3.589 -0.2078 -0.0780  0.0152
 6050SOL     OW21551   7.746   6.112   4.300 -0.1323  0.0764  0.5043
 6050SOL    HW121552   7.705   6.028   4.322 -0.0202 -0.2682 -0.5611
 6050SOL    HW221553   7.673   6.172   4.285 -0.2953 -0.5562 -1.4756
 6051SOL     OW21554   6.455   0.603   1.351  0.5040 -0.3158  0.2624
 6051SOL    HW121555   6.372   0.558   1.336  0.2660  0.5702 -1.2778
 6051SOL    HW221556   6.464   0.606   1.447 -0.4824 -1.7457  0.4309
 6052SOL     OW21557   0.776   3.660   7.988  0.2138  0.3635  0.0857
 6052SOL    HW121558   0.838   3.621   8.050 -0.3518 -0.6124  0.0627
 6052SOL    HW221559   0.764   3.593   7.921  0.6814  1.3369 -1.0043
 6053SOL     OW21560   5.107   3.146   9.714 -0.6946 -0.5132  0.0265
 6053SOL    HW121561   5.130   3.234   9.745 -2.7865  0.3069 -0.5955
 6053SOL    HW221562   5.168   3.088   9.759  0.0505  1.1677  1.2708
 6054SOL     OW21563   0.350   8.605   7.863 -0.1228 -0.8011 -0.3958
 6054SOL    HW121564   0.377   8.611   7.954 -0.6915 -1.9519 -0.1266
 6054SOL    HW221565   0.364   8.513   7.840  2.1643 -0.0968 -2.1909
 6055SOL     OW21566   6.845   9.397   3.095 -0.0436 -0.2270  0.3653
 6055SOL    HW121567   6.937   9.396   3.070  0.0038  2.1222  0.2546
 6055SOL    HW221568   6.797   9.416   3.014 -0.4396  0.5562  0.7670
 6056SOL     OW21569   8.768   6.722   7.715  0.1986 -0.4491 -0.7429
 6056SOL    HW121570   8.758   6.637   7.673 -0.6802 -1.7790  1.9345
 6056SOL    HW221571   8.693   6.728   7.775  0.7787  1.7882 -0.1456
 6057SOL     OW21572   5.227   1.534   7.744  0.0604 -0.1904  0.3124
 6057SOL    HW121573   5.313   1.538   7.786  0.5191  0.5989 -0.6638
 6057SOL    HW221574   5.226   1.448   7.701  0.2740 -0.2909  0.5021
 6058SOL     OW21575   1.541   5.176   5.922 -0.3317 -0.2628 -0.2324
 6058SOL    HW121576   1.620   5.151   5.874  0.2970 -1.3231  1.3123
 6058SOL    HW221577   1.474   5.187   5.854  1.0475  0.3992 -1.5419
 6059SOL     OW21578  10.125   5.881   3.077 -0.1672  0.4828 -0.2006
 6059SOL    HW121579  10.184   5.867   3.002 -2.4326 -2.1729 -1.6557
 6059SOL    HW221580  10.037   5.870   3.040 -1.4993  1.7536  2.3844
 6060SOL     OW21581   6.831   1.668   7.041  0.2460  0.0015  0.1619
 6060SOL    HW121582   6.846   1.576   7.023 -0.5752 -0.4847  1.7746
 6060SOL    HW221583   6.781   1.669   7.122  1.6662  1.9323  1.1022
 6061SOL     OW21584   4.180   3.910   2.134  0.6638  0.3802 -0.3911
 6061SOL    HW121585   4.261   3.886   2.088  0.8062  1.2946 -0.6401
 6061SOL    HW221586   4.210   3.957   2.212  0.3686  0.8595 -0.5657
 6062SOL     OW21587   3.192   3.945   1.313 -0.0814 -0.2099 -0.5987
 6062SOL    HW121588   3.142   3.875   1.354 -1.4281  0.8055 -0.4104
 6062SOL    HW221589   3.203   4.011   1.382  1.6995 -0.4726 -0.5938
 6063SOL     OW21590   4.189   4.890   2.716 -0.6284  0.5124 -0.0122
 6063SOL    HW121591   4.255   4.873   2.783  0.0575 -0.1383 -0.8439
 6063SOL    HW221592   4.216   4.837   2.641 -1.6171  0.9075 -0.6632
 6064SOL     OW21593   4.847   9.829   3.791 -0.5882  0.4542 -0.3082
 6064SOL    HW121594   4.937   9.858   3.781  0.1260 -1.6661 -0.6646
 6064SOL    HW221595   4.830   9.777   3.712 -1.5380 -0.5612  0.5286
 6065SOL     OW21596   6.983  10.351   3.464 -0.1753 -0.1169 -0.0209
 6065SOL    HW121597   6.982  10.284   3.395 -0.8144  0.3927 -0.5127
 6065SOL    HW221598   7.034  10.422   3.426  0.0262 -0.0957  0.2880
 6066SOL     OW21599   9.841   4.967   7.554  0.0133 -0.2638  0.0053
 6066SOL    HW121600   9.825   5.059   7.532 -0.8602  0.1333  2.0800
 6066SOL    HW221601   9.800   4.956   7.640 -0.0336 -2.6435 -0.2702
 6067SOL     OW21602  10.024  10.658   5.021  0.6576  0.1069 -0.3009
 6067SOL    HW121603   9.987  10.571   5.035  0.7047  0.0621 -0.4593
 6067SOL    HW221604   9.981  10.690   4.941  0.0771  0.5295  0.1674
 6068SOL     OW21605  10.588   2.057   8.945  0.6514 -0.7544 -0.3845
 6068SOL    HW121606  10.666   2.002   8.947  0.9956 -0.2583  0.0679
 6068SOL    HW221607  10.582   2.094   9.033 -0.4381 -1.2617 -0.2356
 6069SOL     OW21608   9.726  10.148   9.304 -0.2242  0.2178  1.0245
 6069SOL    HW121609   9.748  10.109   9.219 -0.1932  0.3358  0.9771
 6069SOL    HW221610   9.782  10.102   9.366  0.9787  1.2562  0.7695
 6070SOL     OW21611   8.220   0.171   7.103 -0.2117  0.1319 -0.0440
 6070SOL    HW121612   8.315   0.169   7.095  0.0284  1.4901  1.9199
 6070SOL    HW221613   8.190   0.101   7.044  1.9066  0.3339 -1.4665
 6071SOL     OW21614   0.138   5.688  10.823 -0.5479  0.2323  0.1028
 6071SOL    HW121615   0.171   5.646  10.744 -0.3377 -0.3693  0.5083
 6071SOL    HW221616   0.128   5.780  10.799 -0.5251  0.0452 -0.6345
 6072SOL     OW21617   3.409   2.538   6.128 -0.2086  0.2233  0.2275
 6072SOL    HW121618   3.361   2.621   6.129 -0.4490  0.0808  1.1939
 6072SOL    HW221619   3.443   2.528   6.216  2.9478  1.0488 -0.7661
 6073SOL     OW21620   8.422   0.998   3.187  0.7836  0.0697 -0.0766
 6073SOL    HW121621   8.510   0.968   3.167  0.0421 -1.2229 -1.6735
 6073SOL    HW221622   8.365   0.943   3.132 -1.0125  0.8456  0.9174
 6074SOL     OW21623   2.084   3.314   0.701  0.3125 -0.0750  0.0301
 6074SOL    HW121624   2.111   3.400   0.670 -1.1955  0.9117  1.3198
 6074SOL    HW221625   2.148   3.291   0.769  0.2757  0.3631  0.2119
 6075SOL     OW21626  10.911   8.048   2.858 -0.7530 -0.4799 -0.2700
 6075SOL    HW121627  10.838   8.020   2.914 -0.4084  2.5696  1.9259
 6075SOL    HW221628  10.986   7.997   2.889 -1.0171 -0.3244  0.6459
 6076SOL     OW21629   1.866   8.579   8.969  0.6871  0.2791 -0.2718
 6076SOL    HW121630   1.847   8.566   9.061  1.0929  1.2843 -0.0349
 6076SOL    HW221631   1.808   8.650   8.942  0.6277  0.0459 -0.7792
 6077SOL     OW21632   9.199   9.720   3.559 -0.0398 -0.0409 -0.3268
 6077SOL    HW121633   9.231   9.649   3.615 -1.3972  0.2066  0.8238
 6077SOL    HW221634   9.167   9.786   3.620 -0.4706  0.7736 -1.4032
 6078SOL     OW21635   9.852   2.939   2.057  0.1153 -0.3264  0.2153
 6078SOL    HW121636   9.829   2.848   2.073  0.9911 -0.4845  0.6316
 6078SOL    HW221637   9.864   2.945   1.962 -1.7881 -0.1798 -0.0577
 6079SOL     OW21638   4.172   1.058   4.440  0.1113  0.1115  0.2418
 6079SOL    HW121639   4.229   0.987   4.470 -0.3182 -0.8704 -1.1262
 6079SOL    HW221640   4.205   1.136   4.484  0.9806 -0.8314  1.3304
 6080SOL     OW21641   1.888   6.631   8.077  0.1134  1.1584  0.2898
 6080SOL    HW121642   1.862   6.567   8.011  0.3428  0.9785  0.3740
 6080SOL    HW221643   1.982   6.619   8.087 -0.0814  0.4309  1.4424
 6081SOL     OW21644   3.965   8.591   3.318  0.1122 -0.4317  0.5175
 6081SOL    HW121645   4.053   8.577   3.282 -0.0006  1.0218 -0.4080
 6081SOL    HW221646   3.906   8.579   3.244 -0.5487 -1.9520  1.2560
 6082SOL     OW21647   9.472   3.373   0.700 -0.8982 -0.0071  0.0667
 6082SOL    HW121648   9.482   3.291   0.653 -1.0888 -0.3585  0.6340
 6082SOL    HW221649   9.483   3.350   0.792  2.0775  1.0685  0.0944
 6083SOL     OW21650  10.203   1.499   6.656  0.2818 -0.0383  0.3282
 6083SOL    HW121651  10.144   1.478   6.728  2.3613 -1.3464  1.7721
 6083SOL    HW221652  10.286   1.521   6.699  1.4345 -0.3243 -1.6369
 6084SOL     OW21653   2.807   1.698   1.448 -0.7369 -0.2325  0.1647
 6084SOL    HW121654   2.761   1.661   1.373  1.0841  0.4797 -1.4060
 6084SOL    HW221655   2.852   1.775   1.412 -1.5196  1.4292  2.4898
 6085SOL     OW21656  10.051   8.182   6.458 -0.0804  0.2171  0.0656
 6085SOL    HW121657  10.087   8.269   6.443 -0.3770  0.1174 -1.3902
 6085SOL    HW221658  10.117   8.122   6.423 -0.0990 -0.1337  0.6078
 6086SOL     OW21659   7.231   6.448   1.507  0.3650  0.3092 -0.3617
 6086SOL    HW121660   7.167   6.507   1.468 -2.1607 -0.5489  2.1527
 6086SOL    HW221661   7.252   6.386   1.438  1.0373  2.4894 -2.2341
 6087SOL     OW21662   4.562   0.560  10.610 -0.8606 -0.0254 -0.8417
 6087SOL    HW121663   4.495   0.599  10.667 -0.0378  1.2103 -0.6679
 6087SOL    HW221664   4.587   0.480  10.655 -0.5471  0.7032  0.3310
 6088SOL     OW21665   1.903  10.210   5.625  0.6651  0.1893 -0.0060
 6088SOL    HW121666   1.872  10.181   5.711  0.7432  1.4609  0.4725
 6088SOL    HW221667   1.995  10.234   5.639  0.0568  2.7825  0.2306
 6089SOL     OW21668   3.724   1.861   4.291 -0.4830 -0.5190  0.7838
 6089SOL    HW121669   3.735   1.767   4.279 -2.0406 -0.6404 -0.0152
 6089SOL    HW221670   3.652   1.884   4.232 -0.9332  0.9472  1.8439
 6090SOL     OW21671   0.691   0.685   1.839  0.1685 -0.4896  0.1491
 6090SOL    HW121672   0.753   0.699   1.911  1.7026 -0.4948 -1.1327
 6090SOL    HW221673   0.643   0.605   1.864  0.6981 -0.5142  1.1303
 6091SOL     OW21674   9.499  10.113   8.457  1.0775 -0.1854  0.5120
 6091SOL    HW121675   9.456  10.118   8.371  1.1542  1.9241  0.5390
 6091SOL    HW221676   9.536  10.025   8.460 -1.6057 -1.4547 -0.2811
 6092SOL     OW21677   4.834   3.315   5.365 -0.3564 -0.0232 -0.6065
 6092SOL    HW121678   4.808   3.294   5.454 -0.2113  0.3714 -0.4666
 6092SOL    HW221679   4.765   3.278   5.310 -1.7114  1.7339 -0.1997
 6093SOL     OW21680   5.876   0.724   3.588  0.8285  0.1403  0.2568
 6093SOL    HW121681   5.938   0.756   3.523  0.7084 -1.9266 -0.9568
 6093SOL    HW221682   5.795   0.773   3.571  1.0191  0.1492 -0.6724
 6094SOL     OW21683   2.826   6.062   9.896 -0.5114  0.0760  0.6016
 6094SOL    HW121684   2.893   5.997   9.914 -1.6515 -1.6219 -0.8939
 6094SOL    HW221685   2.850   6.100   9.811 -0.1005  1.3298  1.2500
 6095SOL     OW21686   8.475   9.710  10.542  0.2022 -0.6266 -0.4949
 6095SOL    HW121687   8.485   9.650  10.468 -0.6369 -0.3599 -0.8343
 6095SOL    HW221688   8.388   9.693  10.576 -0.0009  0.3096 -0.5199
 6096SOL     OW21689   2.672   6.384   6.073  0.2190 -0.2415 -0.2348
 6096SOL    HW121690   2.756   6.378   6.027 -0.1006 -1.5342 -0.7096
 6096SOL    HW221691   2.611   6.417   6.007 -0.1801 -1.8349 -0.7284
 6097SOL     OW21692   3.590   8.989   9.105  0.0245 -0.2616 -0.1370
 6097SOL    HW121693   3.592   9.062   9.167 -1.3359 -1.5090  1.4925
 6097SOL    HW221694   3.678   8.951   9.109  0.3561  0.5090 -0.0355
 6098SOL     OW21695   0.706  10.463   8.023 -0.1722  0.2321  0.0154
 6098SOL    HW121696   0.616  10.433   8.006 -0.1813 -0.5439  1.3387
 6098SOL    HW221697   0.702  10.505   8.109  1.1263 -1.7774  1.1439
 6099SOL     OW21698   6.900   0.176   3.913 -0.0114  0.1611  0.9372
 6099SOL    HW121699   6.840   0.163   3.839  0.1419 -0.2934  0.8919
 6099SOL    HW221700   6.880   0.104   3.973  1.1199 -0.5279  0.5084
 6100SOL     OW21701   3.718   1.766   6.995  0.2373 -0.1091  0.1273
 6100SOL    HW121702   3.629   1.769   7.031  1.0369 -1.3633  2.4268
 6100SOL    HW221703   3.774   1.794   7.068  1.6887  2.4004 -1.7760
 6101SOL     OW21704   1.990   7.221   6.348 -0.2858  0.7280  0.4877
 6101SOL    HW121705   2.038   7.252   6.271 -1.4981  0.7703 -0.2709
 6101SOL    HW221706   2.038   7.142   6.375 -0.1572  0.3801 -0.6589
 6102SOL     OW21707   2.188   3.561   1.693 -0.8662 -0.4457 -0.4375
 6102SOL    HW121708   2.101   3.541   1.728 -0.4950  1.4469  1.7480
 6102SOL    HW221709   2.194   3.656   1.697 -0.0305 -0.1725 -4.0578
 6103SOL     OW21710   8.017   1.584   6.864  0.0440  0.0174  0.0153
 6103SOL    HW121711   7.993   1.620   6.779  0.0141  1.6962  0.6785
 6103SOL    HW221712   7.937   1.540   6.895 -0.8324  1.7260  0.3045
 6104SOL     OW21713   4.754   6.975   2.315  0.2016  0.3091  0.2379
 6104SOL    HW121714   4.757   7.067   2.290  1.2520  0.3199  0.3735
 6104SOL    HW221715   4.802   6.930   2.245  0.7630  0.0137  0.8084
 6105SOL     OW21716   5.731   1.070   3.285 -0.0021  0.2999  0.1781
 6105SOL    HW121717   5.750   1.164   3.294 -3.2864  1.2480 -1.0680
 6105SOL    HW221718   5.762   1.047   3.198  1.8225 -0.1141  0.9089
 6106SOL     OW21719   6.437   9.833   1.149  0.4985  0.8603  0.1520
 6106SOL    HW121720   6.354   9.792   1.173 -0.5210  2.2211 -0.8642
 6106SOL    HW221721   6.472   9.869   1.231 -0.3630  1.0271  0.4534
 6107SOL     OW21722   4.026   6.752   9.329 -0.0689 -0.4435 -0.3628
 6107SOL    HW121723   3.934   6.778   9.322  0.3629  1.3097 -0.1347
 6107SOL    HW221724   4.041   6.699   9.251 -1.2815 -0.8083 -0.3758
 6108SOL     OW21725   8.009   9.464   3.411 -0.1970  0.1366  0.1215
 6108SOL    HW121726   7.932   9.422   3.373 -0.4632 -0.3229  1.1317
 6108SOL    HW221727   8.072   9.469   3.339 -0.7205 -0.5875 -0.4004
 6109SOL     OW21728   9.171  10.611   2.659  0.0243 -0.1010  0.2876
 6109SOL    HW121729   9.126  10.669   2.598  1.3728 -0.0992 -0.7459
 6109SOL    HW221730   9.123  10.529   2.654  0.5276 -0.3317 -1.3444
 6110SOL     OW21731   4.243   1.091   0.952 -0.1072  0.8887  0.2438
 6110SOL    HW121732   4.318   1.115   0.897 -1.0944  0.7135 -1.2403
 6110SOL    HW221733   4.276   1.022   1.008  1.4496  2.3240  1.2113
 6111SOL     OW21734   9.750   6.798  10.429  0.1738 -0.1557 -0.2474
 6111SOL    HW121735   9.699   6.879  10.436  0.9305  0.3663 -0.7246
 6111SOL    HW221736   9.685   6.729  10.443 -0.3033  0.5412  1.2010
 6112SOL     OW21737   4.487   1.704   3.976 -0.3147  0.4358  0.1452
 6112SOL    HW121738   4.431   1.777   4.001 -0.3005  0.2582  0.7163
 6112SOL    HW221739   4.434   1.626   3.993 -0.1696  0.2964 -0.0351
 6113SOL     OW21740   6.024  10.733   2.825 -0.0030 -0.0175 -0.5468
 6113SOL    HW121741   6.062  10.648   2.801 -0.1344  0.2668 -1.8632
 6113SOL    HW221742   5.988  10.720   2.913  0.0247 -1.3099 -0.7096
 6114SOL     OW21743   3.735   3.117   8.133 -0.1121  0.2495  0.1672
 6114SOL    HW121744   3.758   3.038   8.182  0.5017  1.3119  1.6190
 6114SOL    HW221745   3.645   3.100   8.103  0.3435 -1.3968 -0.4102
 6115SOL     OW21746   6.407   8.641   3.131  0.2696 -0.0495 -0.0214
 6115SOL    HW121747   6.370   8.729   3.129  0.6887  0.1239 -0.8905
 6115SOL    HW221748   6.461   8.639   3.209 -0.6401  0.0752  0.6297
 6116SOL     OW21749   6.501   0.326   6.018  0.3220 -0.0122  0.6986
 6116SOL    HW121750   6.447   0.384   6.072  0.4970  1.0040 -0.1851
 6116SOL    HW221751   6.565   0.288   6.078 -1.5562 -1.5325  1.8605
 6117SOL     OW21752   7.996   2.581  10.893 -0.2877  0.1861 -0.3450
 6117SOL    HW121753   7.927   2.644  10.870 -1.1831 -0.2269  1.0959
 6117SOL    HW221754   8.027   2.610  10.979 -0.0174 -0.7536 -0.1163
 6118SOL     OW21755   3.414   0.813   0.054  0.3007 -0.2219 -0.2185
 6118SOL    HW121756   3.490   0.763   0.025  0.2049 -1.1203  0.9928
 6118SOL    HW221757   3.429   0.828   0.148 -0.2203  1.0534 -0.3147
 6119SOL     OW21758   4.296   4.634   2.059 -0.1653  0.2573  0.8931
 6119SOL    HW121759   4.204   4.610   2.069  0.2867 -2.9077 -1.0461
 6119SOL    HW221760   4.308   4.645   1.964  1.6010 -0.3721  0.9969
 6120SOL     OW21761   4.078   7.429   6.491 -0.3629  0.1389  0.1326
 6120SOL    HW121762   4.013   7.468   6.433 -2.0414 -2.1155  0.3544
 6120SOL    HW221763   4.144   7.392   6.432  0.4168  1.8425 -0.1153
 6121SOL     OW21764   2.899   1.873   8.576 -0.1324 -0.4373 -0.0698
 6121SOL    HW121765   2.905   1.892   8.669 -1.8462 -0.0215 -0.0143
 6121SOL    HW221766   2.805   1.874   8.557  0.2425  1.7235 -2.2533
 6122SOL     OW21767   8.594   1.593  10.462 -0.3401  0.2543 -0.6769
 6122SOL    HW121768   8.572   1.513  10.414  2.9783 -2.5561  1.9656
 6122SOL    HW221769   8.511   1.625  10.497 -1.8437 -1.6498 -2.3282
 6123SOL     OW21770   8.955   3.460   6.407 -0.3920 -0.0426 -0.5316
 6123SOL    HW121771   9.036   3.448   6.357 -0.1893 -0.5483 -0.0822
 6123SOL    HW221772   8.903   3.520   6.353  0.2546  0.2434 -0.8505
 6124SOL     OW21773   6.315   8.165   5.995  0.5527 -0.3232 -0.8244
 6124SOL    HW121774   6.325   8.107   5.920 -1.3424 -0.8627 -0.6970
 6124SOL    HW221775   6.347   8.115   6.070 -1.8419 -1.5894 -0.5807
 6125SOL     OW21776   6.436   1.109   4.238 -0.1989  0.1348 -0.0199
 6125SOL    HW121777   6.471   1.156   4.313  1.5994  0.1146 -0.8024
 6125SOL    HW221778   6.409   1.177   4.177  0.4386  0.1588 -0.2790
 6126SOL     OW21779   5.115   7.923   4.560  0.2312 -0.7555  0.0758
 6126SOL    HW121780   5.146   7.939   4.649  0.8463  0.3657 -0.3213
 6126SOL    HW221781   5.117   8.009   4.518  2.0236 -1.5824 -1.6586
 6127SOL     OW21782   9.625   9.338   1.216 -0.3167  0.9871  0.4049
 6127SOL    HW121783   9.718   9.323   1.197  0.1056 -0.4987  3.1385
 6127SOL    HW221784   9.624   9.419   1.267 -0.3107  0.2665  1.5803
 6128SOL     OW21785   8.678   9.182   2.951  0.4129 -0.3618  0.3425
 6128SOL    HW121786   8.718   9.224   2.874  0.7410 -1.7495 -0.2849
 6128SOL    HW221787   8.721   9.097   2.956  1.0334  0.0320  2.6162
 6129SOL     OW21788   8.790   6.789   0.783 -0.1005 -0.9078  0.6860
 6129SOL    HW121789   8.712   6.801   0.729  0.5689 -0.7569 -0.2672
 6129SOL    HW221790   8.756   6.759   0.867 -1.2233 -0.2483  0.4838
 6130SOL     OW21791   3.792   5.977   2.808 -0.6050 -0.5828  0.1958
 6130SOL    HW121792   3.850   5.952   2.880  1.2089 -0.2572 -1.0616
 6130SOL    HW221793   3.818   6.066   2.786  0.2880 -1.3290 -2.0888
 6131SOL     OW21794   4.473   9.869   1.349  0.3397 -0.6275 -0.4169
 6131SOL    HW121795   4.455   9.817   1.427 -0.4054 -0.5161 -0.5099
 6131SOL    HW221796   4.429   9.822   1.278  0.3349 -0.3031 -0.6318
 6132SOL     OW21797   8.009   9.104   7.951 -0.5573  0.7691 -0.2758
 6132SOL    HW121798   8.046   9.071   7.869 -0.9926  2.5075 -1.2153
 6132SOL    HW221799   7.941   9.166   7.923  0.6035  2.9034  1.3421
 6133SOL     OW21800   3.006   5.250   2.885 -0.4885 -0.1152  0.2668
 6133SOL    HW121801   3.011   5.345   2.877  2.1305 -0.0902  1.1342
 6133SOL    HW221802   2.984   5.234   2.976 -3.4689 -0.4268 -0.4023
 6134SOL     OW21803   9.433   0.149   2.660 -0.2710 -0.2561  0.0714
 6134SOL    HW121804   9.370   0.208   2.617 -0.6241 -0.1065  0.7867
 6134SOL    HW221805   9.381   0.073   2.686  0.0813 -0.6589 -0.3653
 6135SOL     OW21806  10.523   3.344   3.550  0.1417 -0.1374 -0.6507
 6135SOL    HW121807  10.450   3.296   3.589  1.1162 -1.3419 -0.2365
 6135SOL    HW221808  10.530   3.424   3.604 -0.1358 -0.5667  0.0390
 6136SOL     OW21809   7.211   2.486   3.449  0.3107  0.0619  0.2057
 6136SOL    HW121810   7.150   2.414   3.434  0.9898 -0.2002 -1.4223
 6136SOL    HW221811   7.263   2.491   3.369  2.0605  0.6401  1.3184
 6137SOL     OW21812   1.941   6.592   6.175  0.3214  0.1595 -0.1463
 6137SOL    HW121813   1.988   6.515   6.204  1.1244  0.8583  0.4483
 6137SOL    HW221814   1.868   6.558   6.123  0.0517 -1.0265  0.9785
 6138SOL     OW21815   5.150   4.951   9.254  0.5590  0.4908  0.1144
 6138SOL    HW121816   5.062   4.945   9.292  1.0940  0.2105  1.3678
 6138SOL    HW221817   5.153   5.037   9.213 -1.0415 -0.3505 -1.9555
 6139SOL     OW21818   3.339   9.216   2.057 -0.3735  0.2038  0.0768
 6139SOL    HW121819   3.398   9.181   1.990 -1.7622  0.6725 -1.4499
 6139SOL    HW221820   3.273   9.148   2.068 -0.7794  0.6081  0.1356
 6140SOL     OW21821   6.752   1.751   9.375  0.0594  0.2995  0.3283
 6140SOL    HW121822   6.751   1.810   9.450  0.8334 -1.5027  1.8192
 6140SOL    HW221823   6.837   1.707   9.379 -0.3471 -0.6787 -0.9232
 6141SOL     OW21824   9.122   8.709   0.078 -0.0090 -0.2425 -0.2689
 6141SOL    HW121825   9.093   8.767   0.008 -0.8240 -0.7920 -0.3995
 6141SOL    HW221826   9.217   8.704   0.067  0.3117  2.2872  0.6994
 6142SOL     OW21827   8.641   0.094   8.139 -0.5331 -0.3996 -0.1873
 6142SOL    HW121828   8.550   0.064   8.139 -0.6145 -0.1585 -0.7108
 6142SOL    HW221829   8.691   0.020   8.103 -0.6002 -0.3027 -0.4802
 6143SOL     OW21830  10.642   9.117   4.647  0.1529  0.0565  0.5528
 6143SOL    HW121831  10.733   9.131   4.621  0.1995  0.3143  0.8453
 6143SOL    HW221832  10.638   9.151   4.736 -0.3402  0.4478  0.3814
 6144SOL     OW21833   7.774   1.965   3.497 -0.3790 -0.2839  0.8303
 6144SOL    HW121834   7.864   1.990   3.474 -1.2032  2.1218 -0.0653
 6144SOL    HW221835   7.784   1.880   3.541  2.0588 -1.4544 -1.6313
 6145SOL     OW21836  10.119   0.894  10.535 -0.0180 -0.0638  0.2036
 6145SOL    HW121837  10.170   0.927  10.462 -0.1680 -0.7026 -0.2020
 6145SOL    HW221838  10.111   0.968  10.595  0.0600  0.4779 -0.4493
 6146SOL     OW21839   9.880   8.540   0.780 -0.6323  0.2371 -0.0037
 6146SOL    HW121840   9.788   8.541   0.757 -0.8527 -0.2955  0.8052
 6146SOL    HW221841   9.922   8.487   0.713 -1.0106  0.0009 -0.0559
 6147SOL     OW21842   2.511   1.901   7.176  0.4747  0.1873 -0.0398
 6147SOL    HW121843   2.600   1.912   7.140  0.0914 -1.4243 -1.6569
 6147SOL    HW221844   2.455   1.949   7.115  0.1657  0.7243  0.6597
 6148SOL     OW21845  10.704   8.596   9.015  0.1951  0.1172 -0.4585
 6148SOL    HW121846  10.747   8.678   8.993  2.1797 -0.8101 -0.2038
 6148SOL    HW221847  10.684   8.554   8.931  1.7567 -0.4054 -0.5918
 6149SOL     OW21848   5.731  10.858   4.858 -0.5874  0.3942 -0.0298
 6149SOL    HW121849   5.673  10.793   4.898 -1.1756  0.3320 -0.9490
 6149SOL    HW221850   5.682  10.940   4.861 -0.9502  0.2335 -1.2836
 6150SOL     OW21851  10.752   2.249   9.539  0.0208  0.2074  0.2657
 6150SOL    HW121852  10.694   2.324   9.532  0.4057  0.7265  2.0580
 6150SOL    HW221853  10.713   2.182   9.483 -1.5385  1.0166  0.3546
 6151SOL     OW21854   9.509   4.047   5.992  0.5607 -0.3138  0.0672
 6151SOL    HW121855   9.497   4.096   5.910 -0.4735  0.4550  0.6542
 6151SOL    HW221856   9.494   4.112   6.061 -0.5154 -1.3706  0.8671
 6152SOL     OW21857   5.086   1.646   3.636  0.1076  0.3675  0.4148
 6152SOL    HW121858   5.032   1.722   3.618 -1.2387 -0.5498  0.4448
 6152SOL    HW221859   5.026   1.571   3.627  1.4898 -0.7268 -0.1325
 6153SOL     OW21860   3.583   6.952   5.719 -0.4717 -0.2818 -0.1882
 6153SOL    HW121861   3.509   6.914   5.768  0.0312 -0.8867  0.1124
 6153SOL    HW221862   3.566   6.928   5.628 -2.9483  3.2630 -0.8566
 6154SOL     OW21863   2.117   5.146   1.214  0.3533  0.0323  0.1566
 6154SOL    HW121864   2.169   5.099   1.149 -1.7246  1.5153 -2.8048
 6154SOL    HW221865   2.076   5.076   1.265 -0.8179 -1.4713 -2.5876
 6155SOL     OW21866   9.731   4.530   9.220 -0.2983 -0.2306  0.0071
 6155SOL    HW121867   9.826   4.518   9.224 -0.5006 -1.9302  0.5399
 6155SOL    HW221868   9.718   4.623   9.241  1.2533  0.0997 -0.3828
 6156SOL     OW21869   1.125   7.098   4.644  0.5022 -0.1561  0.5106
 6156SOL    HW121870   1.214   7.134   4.644  1.1229 -1.5386  1.8725
 6156SOL    HW221871   1.137   7.005   4.622 -0.3959 -0.7122  2.1915
 6157SOL     OW21872   2.892   1.118   2.570  0.3174 -0.2554  0.5431
 6157SOL    HW121873   2.891   1.211   2.547  0.9487 -0.0064  1.4683
 6157SOL    HW221874   2.839   1.113   2.650 -0.9793 -0.9393 -0.3296
 6158SOL     OW21875   7.792   2.409   0.953 -0.6331  0.2002  0.0830
 6158SOL    HW121876   7.726   2.428   0.886 -1.0708  0.1255  0.4909
 6158SOL    HW221877   7.791   2.485   1.010  0.5298  0.7653 -0.6107
 6159SOL     OW21878   3.977   8.545   6.606 -0.1547 -0.4774 -0.1753
 6159SOL    HW121879   4.023   8.616   6.651 -0.3856 -0.4835  0.0726
 6159SOL    HW221880   3.903   8.525   6.663  0.2597 -1.3543  0.0739
 6160SOL     OW21881   9.991   9.996   2.367  0.0301 -0.4125  0.0577
 6160SOL    HW121882   9.933  10.059   2.410  1.5627  1.5914 -0.6340
 6160SOL    HW221883  10.042  10.049   2.307  2.2668 -2.1549  0.3130
 6161SOL     OW21884   8.099   5.904   6.987 -0.5606 -0.4963 -0.2390
 6161SOL    HW121885   8.071   5.976   6.932 -0.4853  1.3586  1.9862
 6161SOL    HW221886   8.179   5.871   6.946 -0.5985  0.6878 -1.3030
 6162SOL     OW21887   1.516   7.189   5.570 -0.0496  0.1277 -0.2192
 6162SOL    HW121888   1.575   7.167   5.642  0.6565  1.9258 -0.2066
 6162SOL    HW221889   1.574   7.208   5.496 -0.7115 -0.2108 -0.8390
 6163SOL     OW21890   7.146   9.519   0.398  0.4442 -0.3106  0.3355
 6163SOL    HW121891   7.117   9.593   0.451  0.9912 -0.8030  1.3405
 6163SOL    HW221892   7.194   9.559   0.325  0.2847  0.3355  0.5787
 6164SOL     OW21893   3.343   7.426   0.387 -0.1310 -0.0706 -0.0951
 6164SOL    HW121894   3.427   7.383   0.405 -0.3332 -0.5395 -0.2905
 6164SOL    HW221895   3.321   7.470   0.469  0.4539  0.3092 -0.1307
 6165SOL     OW21896   4.682   6.448   9.832 -0.2665 -0.1842  0.2092
 6165SOL    HW121897   4.612   6.386   9.813 -0.0447 -0.2682 -0.3579
 6165SOL    HW221898   4.707   6.483   9.746  1.0322 -0.8559  0.2868
 6166SOL     OW21899   0.462   2.000   6.270  0.5541  0.1779  0.1418
 6166SOL    HW121900   0.494   2.078   6.314  1.4817 -0.6388  0.9538
 6166SOL    HW221901   0.494   1.927   6.324  0.7657 -0.8102 -1.2733
 6167SOL     OW21902   7.467   3.689   7.012 -0.2760  0.4461 -0.1211
 6167SOL    HW121903   7.415   3.728   7.082 -3.8282 -0.2592 -2.1339
 6167SOL    HW221904   7.481   3.598   7.041 -2.5591 -0.1212 -0.6447
 6168SOL     OW21905   3.388   3.955   1.872 -0.3560  0.2261  0.3799
 6168SOL    HW121906   3.318   3.987   1.929 -1.4295 -0.6923 -0.3943
 6168SOL    HW221907   3.374   3.861   1.866 -0.2471  0.2810 -1.3514
 6169SOL     OW21908   7.798   5.427   4.612  0.3020 -0.2413 -0.3202
 6169SOL    HW121909   7.853   5.451   4.686 -0.5125  0.6989  0.0048
 6169SOL    HW221910   7.826   5.339   4.589  2.9377  0.7203 -1.1112
 6170SOL     OW21911   8.913   2.537   1.551  0.4240  0.0956 -0.1146
 6170SOL    HW121912   8.862   2.459   1.569  0.1489  0.1022 -0.8233
 6170SOL    HW221913   8.932   2.532   1.457 -0.2858  1.2816 -0.3411
 6171SOL     OW21914   5.280   5.178   4.482 -0.2513  0.0728 -0.0500
 6171SOL    HW121915   5.255   5.201   4.572 -1.7205 -2.9015  0.4106
 6171SOL    HW221916   5.322   5.093   4.490  0.5926  0.2523 -2.0886
 6172SOL     OW21917  10.091   3.500   4.028 -0.6330  0.6649 -0.1611
 6172SOL    HW121918  10.062   3.493   4.120 -0.4008 -0.5486 -0.1552
 6172SOL    HW221919  10.124   3.589   4.020  0.1147  0.5493  1.1838
 6173SOL     OW21920   2.663  10.544   2.861 -0.7214  0.3369  0.1109
 6173SOL    HW121921   2.674  10.461   2.815 -1.4090  1.5363 -2.3777
 6173SOL    HW221922   2.607  10.522   2.936  1.8407 -2.0055  1.5076
 6174SOL     OW21923   3.675   6.422   0.791 -0.2706 -0.4389 -0.0447
 6174SOL    HW121924   3.581   6.428   0.809 -0.0886  1.0024  0.5863
 6174SOL    HW221925   3.717   6.436   0.875  0.5210  0.1464 -0.5196
 6175SOL     OW21926   4.362   2.842   2.258  0.6159  0.6510 -0.5177
 6175SOL    HW121927   4.298   2.820   2.190 -0.0538 -0.0841  0.3224
 6175SOL    HW221928   4.435   2.882   2.210 -0.2448  1.0442 -1.5559
 6176SOL     OW21929   0.047   5.161   4.527 -0.5322 -0.2721  0.4571
 6176SOL    HW121930   0.098   5.240   4.510 -2.5116  1.1392  0.7950
 6176SOL    HW221931   0.064   5.139   4.618 -2.0275  1.3999  1.1905
 6177SOL     OW21932   9.333   4.260   3.834 -0.3114  0.4692  0.2940
 6177SOL    HW121933   9.248   4.291   3.803 -0.2968  1.6148  1.3337
 6177SOL    HW221934   9.327   4.262   3.929  0.3730 -0.9138  0.3960
 6178SOL     OW21935   7.932  10.295   9.402  0.1106 -0.4851 -0.2972
 6178SOL    HW121936   7.895  10.348   9.473  0.5921 -0.9752  0.3403
 6178SOL    HW221937   7.858  10.277   9.345 -0.6189 -1.2723  0.8492
 6179SOL     OW21938   8.856   5.431   5.113  0.2654  0.8422  0.2804
 6179SOL    HW121939   8.952   5.434   5.104  0.4335 -2.1325  0.2029
 6179SOL    HW221940   8.830   5.355   5.062 -2.0790  1.1395  0.9487
 6180SOL     OW21941   7.675   0.734   2.027  0.2508 -0.0023  0.4172
 6180SOL    HW121942   7.655   0.701   1.939  0.0041  0.9934  0.0895
 6180SOL    HW221943   7.757   0.783   2.016  1.2643 -1.4419  1.1366
 6181SOL     OW21944   3.846   7.322   3.994  0.1101  0.3780 -0.1954
 6181SOL    HW121945   3.881   7.243   4.034 -0.1657  0.7071  0.7238
 6181SOL    HW221946   3.799   7.366   4.065 -0.1755  1.1057 -0.8221
 6182SOL     OW21947  10.696   9.162  10.772 -0.3891  0.5689 -0.4729
 6182SOL    HW121948  10.785   9.142  10.803 -0.7232  0.4945  0.4836
 6182SOL    HW221949  10.694   9.129  10.682  0.8100  1.3181 -0.8041
 6183SOL     OW21950   6.314   0.362   7.481 -0.7903  0.1584  0.4578
 6183SOL    HW121951   6.344   0.350   7.571  0.0793  0.1343  0.1706
 6183SOL    HW221952   6.304   0.274   7.447 -2.0182  0.1430  0.8069
 6184SOL     OW21953  10.389   4.986   7.461 -0.0643  0.3437 -0.0122
 6184SOL    HW121954  10.479   5.006   7.435  0.8758 -2.8588  0.3080
 6184SOL    HW221955  10.399   4.921   7.531 -2.6090 -1.4187 -1.1656
 6185SOL     OW21956   5.761   0.038   5.206  0.1300  0.8525  0.3781
 6185SOL    HW121957   5.844   0.013   5.166 -0.6521  1.2953 -1.6474
 6185SOL    HW221958   5.754   0.132   5.189 -0.6316  0.8740  0.8036
 6186SOL     OW21959   7.267   4.116  10.719  0.1688  0.0369 -0.2413
 6186SOL    HW121960   7.332   4.114  10.791  1.3131  2.2231 -1.1249
 6186SOL    HW221961   7.201   4.179  10.748 -0.1830 -0.2216 -0.4734
 6187SOL     OW21962   8.953   9.728   8.433  0.3953  0.1893 -0.4097
 6187SOL    HW121963   8.871   9.690   8.462  0.6682 -0.1176 -0.0336
 6187SOL    HW221964   8.934   9.822   8.424  0.3629  0.3373  1.0153
 6188SOL     OW21965   9.591   1.957   4.461 -0.1743 -0.1664  0.6092
 6188SOL    HW121966   9.582   2.048   4.431  0.9082  0.2950  1.5976
 6188SOL    HW221967   9.643   1.915   4.393  0.3143  0.2634  0.7111
 6189SOL     OW21968   4.933   0.802   1.078 -0.1612 -0.3280  0.6946
 6189SOL    HW121969   4.981   0.760   1.150  0.1338 -1.0297  0.0983
 6189SOL    HW221970   4.887   0.730   1.035 -0.6595  0.1457  0.4230
 6190SOL     OW21971  10.100  10.863   0.862 -0.0752  0.2706 -0.7874
 6190SOL    HW121972  10.070  10.792   0.805 -0.0836 -0.5979  0.2584
 6190SOL    HW221973  10.191  10.842   0.881 -0.7915 -1.0381  1.7191
 6191SOL     OW21974   0.770   6.867   8.968  0.2907  0.0588 -0.1476
 6191SOL    HW121975   0.693   6.920   8.947 -0.6760 -0.3427  2.0746
 6191SOL    HW221976   0.831   6.883   8.896 -0.6719  2.7422 -0.4764
 6192SOL     OW21977   2.509   1.840   6.622 -0.3144  0.4040 -0.0539
 6192SOL    HW121978   2.554   1.847   6.707 -1.2308  0.7055  0.4211
 6192SOL    HW221979   2.461   1.923   6.615 -1.3275 -0.1922 -0.2353
 6193SOL     OW21980   6.854   8.416  10.407  0.2563 -0.2229  0.6628
 6193SOL    HW121981   6.847   8.492  10.349 -0.5315 -0.6803  0.1365
 6193SOL    HW221982   6.948   8.400  10.414  0.3632 -0.5734 -1.0577
 6194SOL     OW21983   6.353   9.569   8.912  0.6604  0.5207  0.2989
 6194SOL    HW121984   6.264   9.599   8.930  0.2269 -0.1204 -0.6708
 6194SOL    HW221985   6.410   9.636   8.952 -0.2076  0.1401  2.2883
 6195SOL     OW21986   4.483  10.118   4.614  0.4243 -0.2858  0.0014
 6195SOL    HW121987   4.550  10.059   4.579  0.3009 -1.2878  1.3938
 6195SOL    HW221988   4.433  10.064   4.675  0.2546  1.2445  1.2648
 6196SOL     OW21989   5.838   8.869   5.203 -0.4308  0.7457 -0.0498
 6196SOL    HW121990   5.829   8.849   5.110  1.9651 -0.5475 -0.0804
 6196SOL    HW221991   5.825   8.964   5.208 -2.8625  0.5567 -1.3027
 6197SOL     OW21992   5.004  10.467  10.895  0.3586 -0.3858  0.0730
 6197SOL    HW121993   5.021  10.540  10.835  1.0286 -0.7116 -0.1433
 6197SOL    HW221994   4.918  10.434  10.869 -0.2814  0.7648  0.6324
 6198SOL     OW21995   4.712   3.149   4.888 -0.1644 -0.1606 -0.2694
 6198SOL    HW121996   4.676   3.236   4.875 -0.0160 -0.2053 -0.9923
 6198SOL    HW221997   4.763   3.156   4.969  1.4978  0.9593 -1.3620
 6199SOL     OW21998   1.150   8.611   5.526  0.2873  0.3449 -0.1565
 6199SOL    HW121999   1.135   8.603   5.620  0.4411  1.7732  0.0138
 6199SOL    HW222000   1.070   8.650   5.492  1.0475  1.8748 -0.2593
 6200SOL     OW22001   5.421   1.353   9.425  0.6793 -0.8008  0.2559
 6200SOL    HW122002   5.379   1.332   9.342  1.0913 -0.4745 -0.0449
 6200SOL    HW222003   5.390   1.287   9.486 -0.6194 -0.3066  0.1587
 6201SOL     OW22004   5.972   4.311  10.596  0.3179  0.3848  0.6369
 6201SOL    HW122005   5.905   4.274  10.540 -0.0676 -1.3730  2.1766
 6201SOL    HW222006   5.924   4.370  10.655  0.4792  0.8671  0.3000
 6202SOL     OW22007   5.093   3.552   2.947 -0.0812  0.1718  0.4305
 6202SOL    HW122008   5.067   3.462   2.925 -1.0427  0.7977 -1.1184
 6202SOL    HW222009   5.011   3.601   2.947  0.6013  1.3542 -0.3301
 6203SOL     OW22010   3.804  10.565   0.571  0.2843 -0.4637 -0.1124
 6203SOL    HW122011   3.763  10.496   0.623  1.9300 -0.7376  0.9098
 6203SOL    HW222012   3.876  10.522   0.525  0.2108  0.2239 -0.8982
 6204SOL     OW22013   2.417   4.215   5.047 -0.5656 -0.6388  0.2603
 6204SOL    HW122014   2.425   4.160   5.125 -1.9577  1.4342  1.9858
 6204SOL    HW222015   2.331   4.192   5.011  0.3952 -2.1560 -1.2213
 6205SOL     OW22016   5.600   8.699  10.659 -0.4056  0.3661  0.1255
 6205SOL    HW122017   5.681   8.750  10.648 -2.2401  3.3661 -0.6546
 6205SOL    HW222018   5.579   8.709  10.752 -1.3551  2.1847 -0.2329
 6206SOL     OW22019   1.776   9.080  10.797 -0.0168 -0.9333 -0.1882
 6206SOL    HW122020   1.859   9.076  10.750 -0.5894  1.1267 -1.5292
 6206SOL    HW222021   1.773   9.169  10.833 -0.9070 -1.5266  1.3195
 6207SOL     OW22022   1.673   3.235   1.857  0.1976  0.0627 -0.1725
 6207SOL    HW122023   1.699   3.249   1.948  1.2049 -0.6798 -0.3319
 6207SOL    HW222024   1.695   3.317   1.814  0.3761  0.1682  0.1130
 6208SOL     OW22025   6.574   1.244   2.919 -0.4374 -0.5085  0.1103
 6208SOL    HW122026   6.566   1.335   2.946 -0.8035  0.1307 -2.0052
 6208SOL    HW222027   6.486   1.208   2.929 -0.5180 -0.3423  0.0101
 6209SOL     OW22028   6.351   1.968   7.561 -0.4957  0.7307 -0.0168
 6209SOL    HW122029   6.350   2.062   7.579  1.1074  1.1281 -1.6867
 6209SOL    HW222030   6.441   1.941   7.577 -0.8516 -0.4620  0.0935
 6210SOL     OW22031   7.390   7.306   8.869  0.2495  0.5239  0.0275
 6210SOL    HW122032   7.299   7.333   8.871 -0.1347 -0.5542 -1.4017
 6210SOL    HW222033   7.434   7.372   8.815 -0.0912 -0.0144 -0.9305
 6211SOL     OW22034   9.344   0.693   5.082 -0.5620 -0.0319 -0.3103
 6211SOL    HW122035   9.422   0.653   5.045  0.5914 -0.0288  1.9103
 6211SOL    HW222036   9.322   0.638   5.158 -0.8836  1.6322  0.8675
 6212SOL     OW22037   3.414   4.579   7.013 -0.0965  0.0661 -0.4419
 6212SOL    HW122038   3.388   4.582   7.106  0.5832  0.2561 -0.2542
 6212SOL    HW222039   3.422   4.486   6.993  0.4858  0.0409 -0.1003
 6213SOL     OW22040   5.089   4.671  10.763 -0.2581  0.7403 -0.2040
 6213SOL    HW122041   5.075   4.578  10.743  0.5144  0.7692 -0.9756
 6213SOL    HW222042   5.184   4.679  10.772 -0.3724  1.3253  0.5884
 6214SOL     OW22043   4.987   4.237   1.471  0.0462 -0.1112  0.1302
 6214SOL    HW122044   4.959   4.193   1.552  0.2393 -0.3572  0.0637
 6214SOL    HW222045   5.058   4.183   1.438 -0.6976 -0.5676 -0.7478
 6215SOL     OW22046   6.887   5.074   4.148  0.1917 -0.4011 -0.7486
 6215SOL    HW122047   6.835   4.997   4.172  1.0878 -0.8536 -0.2064
 6215SOL    HW222048   6.896   5.123   4.230  0.5195 -0.2651 -0.8650
 6216SOL     OW22049   2.465   1.439   2.114 -0.7627 -0.2452 -0.4662
 6216SOL    HW122050   2.492   1.374   2.049  1.0915 -0.0520  0.0607
 6216SOL    HW222051   2.402   1.494   2.067 -2.9890 -2.7691 -0.7239
 6217SOL     OW22052   8.698   0.069   5.179 -0.4423  0.6470 -0.4887
 6217SOL    HW122053   8.736   0.046   5.263  2.2517  1.1223 -1.4682
 6217SOL    HW222054   8.607   0.091   5.199 -0.4596 -1.2365  1.9269
 6218SOL     OW22055   6.547   0.553   3.624  0.6633  0.5543 -0.3187
 6218SOL    HW122056   6.470   0.604   3.598  0.6169 -0.1753 -1.6908
 6218SOL    HW222057   6.569   0.586   3.712 -0.9634  1.0513 -0.0628
 6219SOL     OW22058   6.842   8.139   8.145  0.1509 -0.1631 -0.5729
 6219SOL    HW122059   6.925   8.173   8.109  0.4785 -1.5452 -1.1812
 6219SOL    HW222060   6.846   8.160   8.238  1.3185 -0.4522 -0.5403
 6220SOL     OW22061   6.165   3.491   2.423  0.1193 -0.1563 -0.0039
 6220SOL    HW122062   6.189   3.537   2.503  0.8138 -1.8215  0.7907
 6220SOL    HW222063   6.070   3.481   2.428  0.0511  0.5329  0.1553
 6221SOL     OW22064  10.799   7.333   9.771  0.1969  0.8059  0.0404
 6221SOL    HW122065  10.708   7.351   9.793 -0.1321 -0.0215 -0.5706
 6221SOL    HW222066  10.803   7.344   9.676  0.3859 -0.5521 -0.1250
 6222SOL     OW22067   0.732   3.477   7.785 -0.2072 -0.8685  0.0485
 6222SOL    HW122068   0.752   3.407   7.723  0.0057  0.5612 -1.5915
 6222SOL    HW222069   0.639   3.495   7.772  0.2689  0.8541 -1.5105
 6223SOL     OW22070   2.711   0.631   8.370 -0.0129  0.6254  0.1793
 6223SOL    HW122071   2.623   0.620   8.408 -0.7426  0.3956 -1.5157
 6223SOL    HW222072   2.753   0.546   8.382  0.6591  1.2100  2.5251
 6224SOL     OW22073   2.647   9.638   4.445  0.0869  0.1536  0.0404
 6224SOL    HW122074   2.649   9.651   4.540  1.3632  2.4060 -0.2352
 6224SOL    HW222075   2.664   9.725   4.408 -0.8522 -0.5639 -2.2774
 6225SOL     OW22076  10.592   5.146   0.483  0.4094 -0.1671  0.0757
 6225SOL    HW122077  10.671   5.197   0.471  0.6710 -0.4876  0.4046
 6225SOL    HW222078  10.561   5.127   0.394  0.3044  0.5574 -0.0465
 6226SOL     OW22079   1.436   1.371   1.791  0.5934 -0.2206  0.6190
 6226SOL    HW122080   1.465   1.295   1.841  1.6637 -1.1989 -1.3801
 6226SOL    HW222081   1.368   1.337   1.733 -1.4397  1.1268  2.0551
 6227SOL     OW22082   6.353   1.467   0.523  0.2863  0.8340  0.1908
 6227SOL    HW122083   6.335   1.536   0.587 -0.4447 -0.0391  0.9608
 6227SOL    HW222084   6.268   1.425   0.509  0.2613  1.4809 -1.9570
 6228SOL     OW22085   0.516   1.807  10.280  0.7820  0.4791  0.2287
 6228SOL    HW122086   0.581   1.790  10.212  1.0969  3.0691 -0.2090
 6228SOL    HW222087   0.523   1.901  10.297 -2.2246  0.6937  0.8091
 6229SOL     OW22088   0.890   2.144   4.770 -0.0945 -0.2518 -0.5649
 6229SOL    HW122089   0.840   2.226   4.767  0.5592  0.1359 -1.4461
 6229SOL    HW222090   0.928   2.142   4.858  0.8781  1.0164 -0.9291
 6230SOL     OW22091   7.515   6.319   8.798 -0.0345  0.2192  0.4710
 6230SOL    HW122092   7.515   6.266   8.719  1.2350  1.7995 -0.6591
 6230SOL    HW222093   7.608   6.332   8.818 -0.0879  4.2599 -0.9924
 6231SOL     OW22094   8.150  10.318   3.937 -0.0515 -0.1836  0.1506
 6231SOL    HW122095   8.214  10.372   3.890 -0.7498  0.9071  0.4181
 6231SOL    HW222096   8.198  10.238   3.960  0.8628  0.1105 -0.6893
 6232SOL     OW22097   0.605   6.170   7.563 -0.7585  0.2547  0.0304
 6232SOL    HW122098   0.578   6.160   7.654 -1.3019 -0.7087 -0.2195
 6232SOL    HW222099   0.695   6.136   7.561 -0.2739  1.4702  0.4438
 6233SOL     OW22100   1.019   6.797   9.090  0.3701 -0.2121 -0.1775
 6233SOL    HW122101   0.950   6.853   9.054  0.7759 -0.4637 -1.4194
 6233SOL    HW222102   1.018   6.814   9.184 -1.8433 -0.7183 -0.0559
 6234SOL     OW22103   6.620  10.879  10.319  0.3484 -0.0168  0.2808
 6234SOL    HW122104   6.606  10.964  10.361 -0.0276 -0.3743  0.8966
 6234SOL    HW222105   6.531  10.847  10.301  0.5051  0.0723 -0.6702
 6235SOL     OW22106   8.822   4.476   3.872  0.0709  0.2005 -0.1145
 6235SOL    HW122107   8.747   4.480   3.931 -0.7372 -2.6001 -0.8420
 6235SOL    HW222108   8.879   4.409   3.909  0.6524  0.0118 -1.2978
 6236SOL     OW22109   9.310  10.813   9.454 -0.0318 -0.4795 -0.1868
 6236SOL    HW122110   9.350  10.825   9.368 -0.1896  0.7170 -0.1066
 6236SOL    HW222111   9.222  10.781   9.435 -0.3135  0.4509 -0.5162
 6237SOL     OW22112   9.930   7.290   3.703  0.0757  0.3223 -0.6905
 6237SOL    HW122113   9.898   7.325   3.786 -2.2093  0.0498 -1.4083
 6237SOL    HW222114  10.016   7.331   3.692 -0.0702  1.2515  1.2344
 6238SOL     OW22115   7.088   3.135   2.835 -0.3580  0.3748 -0.2822
 6238SOL    HW122116   7.181   3.138   2.860  0.1941  0.0215 -2.1499
 6238SOL    HW222117   7.042   3.173   2.910  1.2515  0.1530  0.8678
 6239SOL     OW22118   8.816   0.113   3.378  0.1185 -0.2346 -0.3019
 6239SOL    HW122119   8.899   0.065   3.385  0.0092 -0.4883 -0.6854
 6239SOL    HW222120   8.787   0.096   3.288  0.6366  1.4489 -0.8204
 6240SOL     OW22121   9.668   6.699   8.774  0.5478  0.1949 -0.3844
 6240SOL    HW122122   9.713   6.660   8.849 -0.7356 -0.4747  0.0747
 6240SOL    HW222123   9.609   6.630   8.744  0.5272  0.7160 -1.5637
 6241SOL     OW22124   1.859   6.922   7.898 -0.1544  0.6106  0.0478
 6241SOL    HW122125   1.904   7.006   7.889  2.7244 -0.7247  0.7830
 6241SOL    HW222126   1.836   6.898   7.808  1.0857  1.1558 -0.4457
 6242SOL     OW22127   6.731   1.682   5.293  0.0203 -0.4280 -0.0288
 6242SOL    HW122128   6.701   1.772   5.277 -0.8050 -0.4668  1.1751
 6242SOL    HW222129   6.766   1.653   5.209 -2.0272  0.1298 -1.1555
 6243SOL     OW22130   8.272   1.927   7.755  0.1930  0.1533  0.1224
 6243SOL    HW122131   8.306   2.016   7.761  1.7836 -0.3751 -0.3595
 6243SOL    HW222132   8.228   1.912   7.838 -0.9660  1.7024 -0.1727
 6244SOL     OW22133   4.601   8.219   1.064 -0.8498  0.2068  0.4082
 6244SOL    HW122134   4.540   8.279   1.019  0.8604  1.9896  0.3522
 6244SOL    HW222135   4.669   8.276   1.100  0.1688 -1.6125  1.5003
 6245SOL     OW22136   5.291   0.940   6.347 -0.0554  0.4219 -0.1713
 6245SOL    HW122137   5.214   0.906   6.391 -0.6706  1.9716  0.0246
 6245SOL    HW222138   5.363   0.887   6.380 -0.8937 -0.3458  0.4684
 6246SOL     OW22139   3.198   8.969   6.120  0.1813 -0.0641  0.7185
 6246SOL    HW122140   3.188   8.895   6.061 -2.5895  0.8350 -0.0931
 6246SOL    HW222141   3.109   8.992   6.145  0.9029  3.0813  0.8155
 6247SOL     OW22142   0.819   2.631   1.773  0.1165 -0.5669 -0.1940
 6247SOL    HW122143   0.815   2.672   1.860  0.0953 -0.0846 -0.4170
 6247SOL    HW222144   0.747   2.567   1.774 -0.3952 -0.0041 -0.1349
 6248SOL     OW22145   5.667   0.908   2.664  0.2042 -0.1999 -0.0347
 6248SOL    HW122146   5.638   0.997   2.644  0.0472  0.1044  1.3842
 6248SOL    HW222147   5.667   0.905   2.760 -0.2513 -1.8858 -0.0693
 6249SOL     OW22148   6.697   8.861   1.439 -0.2944 -0.7210  0.2731
 6249SOL    HW122149   6.653   8.942   1.465 -2.2177 -2.0987  1.6692
 6249SOL    HW222150   6.637   8.820   1.376  1.6605 -0.1345 -2.1199
 6250SOL     OW22151   0.084   3.944  10.327  0.3160  0.0110  0.0935
 6250SOL    HW122152   0.036   4.014  10.371  0.9029  0.7712 -0.4528
 6250SOL    HW222153   0.056   3.864  10.371 -1.4861  0.4230 -0.2461
 6251SOL     OW22154   6.711   4.241   2.393  0.0952 -0.0143  0.0550
 6251SOL    HW122155   6.691   4.334   2.379  1.1803  0.1968 -0.1819
 6251SOL    HW222156   6.800   4.241   2.429 -0.0581 -0.9406  0.4470
 6252SOL     OW22157   7.110  10.354   2.301 -0.2682  0.5577  0.2612
 6252SOL    HW122158   7.125  10.422   2.366  0.2099 -0.0498  0.7965
 6252SOL    HW222159   7.020  10.326   2.315  0.3168 -0.7105  1.7880
 6253SOL     OW22160   2.158   3.102   6.563  0.6349 -0.8760  0.6104
 6253SOL    HW122161   2.182   3.127   6.474  1.0390 -1.1452  0.6412
 6253SOL    HW222162   2.242   3.090   6.608  0.4352 -1.0473  0.9393
 6254SOL     OW22163  10.514   5.734   2.019 -0.4436 -0.2501 -0.1430
 6254SOL    HW122164  10.566   5.659   2.046  0.6553  0.4805 -0.1590
 6254SOL    HW222165  10.518   5.734   1.924 -1.4959 -0.8703 -0.2102
 6255SOL     OW22166   3.989   9.045   3.217  0.3882  0.1310 -0.0583
 6255SOL    HW122167   3.931   9.016   3.287 -0.2420  0.0697 -0.6008
 6255SOL    HW222168   3.941   9.115   3.173  1.7000  1.7600  0.9659
 6256SOL     OW22169   4.310   8.480   0.860  0.4206  0.4148  0.1241
 6256SOL    HW122170   4.336   8.571   0.865  0.5172  0.3235  1.5457
 6256SOL    HW222171   4.322   8.446   0.948 -1.9035 -0.3418  0.2141
 6257SOL     OW22172   4.462   1.673   2.769 -0.3079  0.0989 -0.0952
 6257SOL    HW122173   4.367   1.676   2.761 -0.2779 -0.6430 -0.9020
 6257SOL    HW222174   4.484   1.743   2.831 -1.4703 -0.4151  0.9399
 6258SOL     OW22175  10.142   2.428   1.689  0.1540 -0.3605  0.2754
 6258SOL    HW122176  10.139   2.355   1.750 -0.3371 -0.1079  0.5658
 6258SOL    HW222177  10.053   2.463   1.690 -0.0525 -0.7867 -1.1181
 6259SOL     OW22178   6.939   5.814   0.676 -0.1168 -0.1322 -0.1271
 6259SOL    HW122179   6.870   5.750   0.660  0.0176 -0.4406  0.4696
 6259SOL    HW222180   7.018   5.774   0.641 -0.0513 -0.2485  0.1516
 6260SOL     OW22181   5.034   6.581   7.831 -0.3463 -0.2694  0.1619
 6260SOL    HW122182   4.972   6.607   7.899  0.3539 -0.9237  1.0683
 6260SOL    HW222183   5.082   6.508   7.869  1.3388  0.5448 -0.3091
 6261SOL     OW22184   9.800   7.576   2.978 -0.3852  0.7629  0.1879
 6261SOL    HW122185   9.889   7.589   3.010  0.1719 -0.7485 -0.6319
 6261SOL    HW222186   9.790   7.639   2.907  0.0623  0.9120  0.2568
 6262SOL     OW22187   8.841   6.086   3.494  0.1610  0.2805 -0.4812
 6262SOL    HW122188   8.825   6.103   3.401  0.3798 -0.2488 -0.6134
 6262SOL    HW222189   8.805   5.999   3.509 -0.0900  0.4603 -0.0107
 6263SOL     OW22190   2.043   0.032   3.827  0.1359 -0.1150 -0.1459
 6263SOL    HW122191   2.065  -0.001   3.740 -0.2507  0.3817 -0.4395
 6263SOL    HW222192   1.995  -0.040   3.869 -0.4721 -0.0375 -0.6823
 6264SOL     OW22193   0.095   1.468   4.445 -0.0092  0.0305  0.4982
 6264SOL    HW122194   0.091   1.408   4.371  0.3449  0.2316  0.3167
 6264SOL    HW222195   0.176   1.445   4.490 -0.3678 -0.2915  1.0003
 6265SOL     OW22196   5.428   7.767   2.437  0.1203 -0.5306  0.0496
 6265SOL    HW122197   5.523   7.772   2.425  0.1854 -0.6977  0.4818
 6265SOL    HW222198   5.400   7.697   2.378  0.3041 -0.6588  0.1123
 6266SOL     OW22199   6.181   4.658   1.256 -0.3291  0.1625  0.2227
 6266SOL    HW122200   6.178   4.732   1.317 -0.6801  0.8052 -0.5607
 6266SOL    HW222201   6.263   4.671   1.208  0.1943 -0.6166  0.8816
 6267SOL     OW22202   0.910   3.490   9.643 -0.5631  0.2450  0.7076
 6267SOL    HW122203   0.867   3.451   9.566 -1.9412 -1.3051  2.1779
 6267SOL    HW222204   1.003   3.480   9.625 -0.8671 -0.7304 -0.4820
 6268SOL     OW22205   1.647  10.210   0.333  0.1048  0.1243  0.1313
 6268SOL    HW122206   1.612  10.157   0.405 -1.5043 -0.2235 -0.8587
 6268SOL    HW222207   1.584  10.198   0.262  0.9202  1.5670 -0.8750
 6269SOL     OW22208   7.167   7.238   3.564  0.2561  0.0165 -0.0880
 6269SOL    HW122209   7.248   7.230   3.512 -0.5287  0.0750 -1.3576
 6269SOL    HW222210   7.153   7.150   3.599 -0.3877 -0.6216 -1.8359
 6270SOL     OW22211   6.679   6.447   3.042  0.2099 -0.1225  0.3000
 6270SOL    HW122212   6.629   6.463   2.962 -0.2494 -0.2038  0.5622
 6270SOL    HW222213   6.747   6.385   3.017  1.1884  1.2167 -0.4323
 6271SOL     OW22214   7.645   6.860   0.777  0.3740 -0.0871 -0.2208
 6271SOL    HW122215   7.646   6.935   0.836  0.0182 -0.4908  0.3063
 6271SOL    HW222216   7.644   6.899   0.689  0.2975  0.5252  0.0465
 6272SOL     OW22217   8.501   1.482   0.537 -0.0255 -0.6679 -0.2747
 6272SOL    HW122218   8.408   1.501   0.548 -0.2465 -1.6186 -0.4499
 6272SOL    HW222219   8.540   1.501   0.623 -0.4808 -0.8381 -0.0277
 6273SOL     OW22220   2.937   1.338   4.666 -0.4182  0.1117  0.0187
 6273SOL    HW122221   2.952   1.265   4.606 -0.9804  1.5757 -2.0583
 6273SOL    HW222222   3.023   1.360   4.700 -0.0383 -0.6180 -0.4545
 6274SOL     OW22223   9.971   0.600   1.800 -0.0040  0.4172  0.1696
 6274SOL    HW122224   9.969   0.688   1.837  0.5574 -0.5480  2.6911
 6274SOL    HW222225  10.064   0.581   1.789 -0.1332  0.2544 -0.6852
 6275SOL     OW22226   2.082   8.875   6.718  0.2138  0.0206 -0.2576
 6275SOL    HW122227   1.989   8.893   6.703  0.4605  0.3653 -1.5517
 6275SOL    HW222228   2.094   8.889   6.812 -0.5900  2.1847 -0.4094
 6276SOL     OW22229   8.918   4.206   3.355  0.0122  0.3152  0.4447
 6276SOL    HW122230   8.887   4.117   3.370  0.3716  0.1629  0.3012
 6276SOL    HW222231   8.997   4.213   3.408  0.6852  0.1295 -0.4991
 6277SOL     OW22232   1.083   5.242   7.694  0.1597  0.1655  0.3936
 6277SOL    HW122233   1.163   5.191   7.677  0.1222  0.7406 -1.7399
 6277SOL    HW222234   1.114   5.332   7.705 -0.1342  0.2722  0.3452
 6278SOL     OW22235   3.467   3.979   5.195  0.1232 -0.7550 -0.5415
 6278SOL    HW122236   3.446   3.917   5.265 -0.6263 -0.3216 -0.3747
 6278SOL    HW222237   3.400   4.047   5.202 -1.1537 -1.6623 -2.8843
 6279SOL     OW22238   3.270  10.224   0.176 -0.1100  0.1997  0.3225
 6279SOL    HW122239   3.331  10.286   0.216  0.8099  0.3955 -1.3306
 6279SOL    HW222240   3.304  10.137   0.201 -0.8541  0.2911  1.8226
 6280SOL     OW22241   8.685   7.621   7.140 -0.3746 -0.8874 -1.1144
 6280SOL    HW122242   8.722   7.701   7.104 -0.0463 -1.1407 -1.3481
 6280SOL    HW222243   8.591   7.633   7.134 -0.3271 -0.4524 -0.9963
 6281SOL     OW22244   0.438   7.846   9.712  0.2762  0.1353 -0.4840
 6281SOL    HW122245   0.471   7.786   9.645 -1.5755 -1.0119 -0.4494
 6281SOL    HW222246   0.456   7.801   9.795  0.7985  0.6455 -0.3110
 6282SOL     OW22247  10.250  10.592   0.407  0.7681 -0.1628 -0.6761
 6282SOL    HW122248  10.207  10.631   0.483  1.4530 -0.2677 -0.2298
 6282SOL    HW222249  10.269  10.666   0.349 -1.1383 -0.2450 -1.4710
 6283SOL     OW22250   0.054   7.120   1.120  0.1026 -0.3548 -0.1016
 6283SOL    HW122251   0.100   7.157   1.195 -3.4505  0.1486  2.0095
 6283SOL    HW222252   0.062   7.187   1.052  1.2638  0.2759  0.6177
 6284SOL     OW22253   2.186   7.466   4.484 -0.1351 -0.3727  0.4137
 6284SOL    HW122254   2.264   7.521   4.494 -0.7226  0.1829  2.2723
 6284SOL    HW222255   2.202   7.417   4.404  1.3616  0.9679 -0.1651
 6285SOL     OW22256   6.768   4.956   0.851 -0.1651 -0.5656 -0.2300
 6285SOL    HW122257   6.837   4.965   0.786 -0.3937 -1.9309 -0.7013
 6285SOL    HW222258   6.689   4.936   0.801 -0.7515  0.2117  0.3523
 6286SOL     OW22259   6.985   0.752   9.918 -0.4653 -0.2317  0.0207
 6286SOL    HW122260   6.973   0.733  10.011 -0.0302  1.0793  0.3662
 6286SOL    HW222261   6.969   0.668   9.874  0.4803 -1.1611  1.3629
 6287SOL     OW22262   8.759   6.237   2.326 -0.3766  0.8412 -0.5331
 6287SOL    HW122263   8.765   6.303   2.396  0.6325 -0.7754  1.0102
 6287SOL    HW222264   8.679   6.259   2.279 -2.1327  1.0230  2.2626
 6288SOL     OW22265   1.820   6.377   2.115 -0.1598  0.2529  0.4183
 6288SOL    HW122266   1.842   6.294   2.158 -1.1074 -0.6899 -0.8311
 6288SOL    HW222267   1.842   6.362   2.023 -1.2857  1.0277  0.0069
 6289SOL     OW22268   1.894   1.033   8.346  0.6768 -0.6560 -0.3377
 6289SOL    HW122269   1.928   1.116   8.311 -0.0421  0.6683  1.9070
 6289SOL    HW222270   1.899   1.043   8.441 -1.8266 -2.1457  0.0297
 6290SOL     OW22271   4.474   8.648  10.285 -0.1834  0.3275 -0.1354
 6290SOL    HW122272   4.548   8.638  10.226  0.8215  0.5344  1.0617
 6290SOL    HW222273   4.409   8.586  10.253  0.7161 -0.2614 -0.8594
 6291SOL     OW22274   7.584   4.373   8.950  0.5534  0.6155 -0.4457
 6291SOL    HW122275   7.585   4.393   9.044  0.4534 -0.9487 -0.0874
 6291SOL    HW222276   7.546   4.451   8.910  1.2982  1.6201  0.7243
 6292SOL     OW22277   7.224   9.718   6.081 -0.0402  0.0086  0.9752
 6292SOL    HW122278   7.211   9.795   6.026  1.1544 -0.5167 -0.0725
 6292SOL    HW222279   7.172   9.737   6.160 -1.0624  1.1639  0.0720
 6293SOL     OW22280   3.801   5.923   9.695  0.0415 -0.6260 -0.0144
 6293SOL    HW122281   3.788   6.015   9.673 -1.1947 -0.8622 -0.3620
 6293SOL    HW222282   3.723   5.879   9.662  1.6995 -2.2176 -2.1474
 6294SOL     OW22283   0.633   3.350  10.323  0.4827  0.8278  0.0098
 6294SOL    HW122284   0.545   3.345  10.358  0.9647  0.5532  1.2346
 6294SOL    HW222285   0.640   3.438  10.286 -0.6601  0.4538 -1.1646
 6295SOL     OW22286  10.753   5.589   9.620 -0.5215 -0.3291  0.4463
 6295SOL    HW122287  10.774   5.667   9.673 -0.3746  1.2890 -1.8429
 6295SOL    HW222288  10.658   5.579   9.630 -0.5421  0.1325  0.7614
 6296SOL     OW22289   0.057   6.952   0.391 -0.0572  0.5692  0.5168
 6296SOL    HW122290   0.130   7.011   0.368 -0.6332  0.7543 -0.9499
 6296SOL    HW222291  -0.021   7.003   0.371 -0.6090 -1.2466 -2.5890
 6297SOL     OW22292   9.436   5.443   3.769  0.0741  0.1557 -0.2319
 6297SOL    HW122293   9.465   5.388   3.695 -1.1222  1.1070 -1.4596
 6297SOL    HW222294   9.499   5.515   3.771 -1.9469  2.2748 -2.9640
 6298SOL     OW22295   5.628   9.133   4.099 -0.4893  0.2488  0.7596
 6298SOL    HW122296   5.691   9.185   4.049 -1.3554  1.2020  0.6131
 6298SOL    HW222297   5.569   9.098   4.033  0.8884 -2.1505  0.7064
 6299SOL     OW22298   3.888   3.154   8.797  0.5565  0.4454  1.1533
 6299SOL    HW122299   3.900   3.242   8.832  0.1196  1.6010 -1.4503
 6299SOL    HW222300   3.794   3.147   8.780  0.4187 -0.9430  2.2669
 6300SOL     OW22301   9.284   5.347   1.361  0.2301 -0.0745  0.6222
 6300SOL    HW122302   9.224   5.395   1.418  0.5757  0.0155  0.9107
 6300SOL    HW222303   9.243   5.351   1.275 -0.6491 -0.8029  0.9880
 6301SOL     OW22304   5.370   6.860   1.177 -0.2905  0.7470  0.2558
 6301SOL    HW122305   5.370   6.919   1.102  0.1904  0.7357  0.2461
 6301SOL    HW222306   5.284   6.873   1.218 -0.7794  0.3518 -0.6072
 6302SOL     OW22307  10.085   1.964   7.876 -0.0225  0.2139 -0.0995
 6302SOL    HW122308  10.097   1.880   7.831 -1.0357  0.6966 -1.3363
 6302SOL    HW222309  10.173   1.992   7.899  0.3996 -0.7720 -0.4571
 6303SOL     OW22310   2.831   2.960   4.555  0.3964  0.0372 -0.0269
 6303SOL    HW122311   2.754   2.979   4.502 -0.2981  0.0049  0.9462
 6303SOL    HW222312   2.800   2.898   4.620  1.2330  0.0757  0.4173
 6304SOL     OW22313   5.818   8.640   5.396 -0.3135  0.2683 -0.0608
 6304SOL    HW122314   5.826   8.727   5.357 -1.5952  0.5790  0.3176
 6304SOL    HW222315   5.867   8.583   5.338  0.3579  1.2080 -0.4411
 6305SOL     OW22316   9.225   0.516   1.565  0.0638  0.1915 -0.3636
 6305SOL    HW122317   9.146   0.547   1.522  0.7423  0.5412 -1.3756
 6305SOL    HW222318   9.260   0.448   1.507  0.8072  0.4262 -0.2060
 6306SOL     OW22319   6.286   5.003   5.214 -0.7033  0.9090  0.2679
 6306SOL    HW122320   6.341   4.934   5.177 -2.1265 -0.4843  0.6450
 6306SOL    HW222321   6.331   5.085   5.190  0.7250 -0.1007 -0.6865
 6307SOL     OW22322   1.396   8.898   2.874 -0.2909  0.0325 -0.6178
 6307SOL    HW122323   1.307   8.906   2.909  0.8218 -1.0904  2.8894
 6307SOL    HW222324   1.402   8.807   2.846  0.0043 -0.1758  0.0904
 6308SOL     OW22325   9.573   1.490   3.070  0.1493 -0.6060 -0.0311
 6308SOL    HW122326   9.520   1.570   3.072 -0.4375 -0.9907  0.0590
 6308SOL    HW222327   9.559   1.453   2.983  0.4922 -0.5637 -0.1050
 6309SOL     OW22328   6.670   7.836   2.412  0.3448 -0.0555  0.2708
 6309SOL    HW122329   6.595   7.894   2.406  1.6225  1.7273  0.6958
 6309SOL    HW222330   6.632   7.748   2.419 -1.6763  0.7887  0.6327
 6310SOL     OW22331   2.586   3.610   3.751 -0.4495 -0.0394  0.0500
 6310SOL    HW122332   2.665   3.655   3.781 -0.3175  0.2168 -0.6400
 6310SOL    HW222333   2.516   3.643   3.807 -0.2881  0.7736 -0.2102
 6311SOL     OW22334   8.375   5.892   1.800 -0.1300 -0.2575 -0.4627
 6311SOL    HW122335   8.294   5.919   1.844  0.6663  1.6753 -0.0714
 6311SOL    HW222336   8.439   5.883   1.870  0.1360 -1.3431 -0.8191
 6312SOL     OW22337  10.821   2.466   4.492 -0.4155  0.3060 -0.1751
 6312SOL    HW122338  10.906   2.440   4.528 -0.7409 -1.1367 -0.3828
 6312SOL    HW222339  10.843   2.515   4.413  0.2414 -0.3812 -0.4391
 6313SOL     OW22340   0.852   8.285   6.344  0.4682 -0.0727 -0.2682
 6313SOL    HW122341   0.848   8.251   6.255  1.7663  2.0390 -1.2064
 6313SOL    HW222342   0.925   8.239   6.384 -1.5225 -2.7270  0.5666
 6314SOL     OW22343   3.657  10.055   6.824 -0.7914 -0.0585  0.0253
 6314SOL    HW122344   3.734  10.112   6.825 -0.1530 -0.9148  0.8733
 6314SOL    HW222345   3.617  10.071   6.739  1.1025 -0.6186 -1.0369
 6315SOL     OW22346  10.339  10.744   0.832  0.9550  0.5338 -0.1459
 6315SOL    HW122347  10.284  10.723   0.756 -1.4057  1.0458  1.3212
 6315SOL    HW222348  10.393  10.665   0.844  1.0637  0.2731 -2.0554
 6316SOL     OW22349   6.152   4.107  10.574 -0.3804 -0.4844  0.3390
 6316SOL    HW122350   6.093   4.178  10.598  0.5648  0.3437  0.2835
 6316SOL    HW222351   6.130   4.036  10.634  0.0158  0.5613  1.7583
 6317SOL     OW22352   7.086   3.266   0.321  0.3456  0.3701 -0.1022
 6317SOL    HW122353   7.152   3.333   0.340  1.0702 -0.1998 -0.5620
 6317SOL    HW222354   7.063   3.231   0.407  2.2488 -0.9231 -0.0585
 6318SOL     OW22355   2.924   7.541   5.570 -0.1218 -0.4564 -0.1110
 6318SOL    HW122356   2.921   7.587   5.654  1.0453  0.9639 -0.8005
 6318SOL    HW222357   2.833   7.516   5.553 -0.3151 -1.2313  1.7818
 6319SOL     OW22358   1.846   8.885   0.749  0.1717  0.4336 -0.0069
 6319SOL    HW122359   1.855   8.881   0.653 -0.1445 -0.9983 -0.0045
 6319SOL    HW222360   1.753   8.868   0.764 -0.1472  2.4451  0.5017
 6320SOL     OW22361   1.369   0.617   6.095  0.7404 -0.3236  0.2029
 6320SOL    HW122362   1.402   0.529   6.112 -0.4414 -0.9787 -0.8003
 6320SOL    HW222363   1.445   0.664   6.060  0.9013 -1.5544 -1.2288
 6321SOL     OW22364   7.960   6.424   5.906 -0.3326  0.5615 -0.5052
 6321SOL    HW122365   7.979   6.474   5.985  1.0902 -1.5565  0.6024
 6321SOL    HW222366   7.985   6.482   5.834  1.2394  1.4748  0.7044
 6322SOL     OW22367   9.619   4.354   2.666  0.1771  0.4952  0.2248
 6322SOL    HW122368   9.676   4.288   2.706 -3.3904 -2.2157  1.3376
 6322SOL    HW222369   9.567   4.388   2.738 -1.1792  1.1850 -1.0317
 6323SOL     OW22370   4.090   9.994   3.393 -0.3301 -0.1175  0.5068
 6323SOL    HW122371   4.063   9.903   3.407  1.1442 -0.9659 -1.5284
 6323SOL    HW222372   4.091  10.004   3.298  0.5018  1.7319  0.6642
 6324SOL     OW22373   2.934   2.974   4.100 -0.2958  0.6009  0.0634
 6324SOL    HW122374   2.949   2.975   4.195  0.0552 -0.3492  0.0249
 6324SOL    HW222375   3.021   2.978   4.062 -0.3284 -0.6114 -0.1902
 6325SOL     OW22376  10.267   2.907   3.767 -0.1504  0.1084  0.3930
 6325SOL    HW122377  10.341   2.966   3.779 -1.0297  0.9598  2.0291
 6325SOL    HW222378  10.195   2.964   3.740 -0.4923 -0.5250 -0.0505
 6326SOL     OW22379   3.353   2.874   8.615 -0.0891 -0.4821 -0.0249
 6326SOL    HW122380   3.338   2.958   8.658 -1.9144 -0.7790 -0.0054
 6326SOL    HW222381   3.427   2.836   8.662  0.8542  1.1185 -0.1026
 6327SOL     OW22382   9.499   1.020   3.201 -0.0678  0.2261 -0.1616
 6327SOL    HW122383   9.517   1.048   3.111 -0.6586  1.2774  0.0389
 6327SOL    HW222384   9.530   0.929   3.204  2.3659  0.9596 -0.6870
 6328SOL     OW22385   9.510  10.609   9.925  0.2310 -0.2355 -0.0920
 6328SOL    HW122386   9.440  10.630   9.863 -0.7266  0.9609  1.3386
 6328SOL    HW222387   9.569  10.553   9.875  0.3243  1.8828 -2.6033
 6329SOL     OW22388   7.356   0.660   2.606  0.7226 -0.5191  0.0935
 6329SOL    HW122389   7.351   0.672   2.700 -0.0484  0.7236 -0.0838
 6329SOL    HW222390   7.442   0.620   2.591  0.6586 -1.1799  1.3407
 6330SOL     OW22391   4.768   7.282   9.276 -0.6142 -0.0925  0.1248
 6330SOL    HW122392   4.797   7.363   9.236  0.7430  1.7698  4.3548
 6330SOL    HW222393   4.821   7.214   9.234 -0.6139  1.3048 -2.3401
 6331SOL     OW22394   3.126   2.296   4.304  0.2814  0.5797  0.6103
 6331SOL    HW122395   3.049   2.242   4.320  0.1234  1.1028  1.6981
 6331SOL    HW222396   3.158   2.268   4.218 -0.8425  0.0331  0.3542
 6332SOL     OW22397   3.179   9.343   6.320  0.5828 -0.1780  0.2346
 6332SOL    HW122398   3.128   9.423   6.307  0.3406 -0.3541  0.0909
 6332SOL    HW222399   3.171   9.296   6.237  1.0559 -0.1668  0.1777
 6333SOL     OW22400   3.614  10.641   0.821 -0.6013 -0.1816 -0.5049
 6333SOL    HW122401   3.695  10.644   0.770 -0.7224 -2.4698 -0.8924
 6333SOL    HW222402   3.643  10.616   0.909 -0.8679 -0.8917 -0.6170
 6334SOL     OW22403   8.196   0.614   7.598  0.3508  0.0792  0.5859
 6334SOL    HW122404   8.221   0.706   7.595  2.3920 -0.4361 -1.6572
 6334SOL    HW222405   8.259   0.574   7.658 -0.6374  0.1386  1.6888
 6335SOL     OW22406   4.244   8.851   2.794  0.4002 -0.7667 -0.1397
 6335SOL    HW122407   4.173   8.907   2.762  0.2809 -0.5659  0.4595
 6335SOL    HW222408   4.243   8.863   2.889  1.6946 -0.2249 -0.1792
 6336SOL     OW22409   2.946   1.781   7.177 -0.1394 -0.3485 -0.0444
 6336SOL    HW122410   3.004   1.848   7.213  0.5829 -0.2993 -1.2164
 6336SOL    HW222411   2.937   1.716   7.246  0.2985  0.2716  0.6041
 6337SOL     OW22412   5.772   1.709   5.596 -0.4057 -0.0466  0.2564
 6337SOL    HW122413   5.725   1.627   5.608  1.4114 -0.9822  1.3415
 6337SOL    HW222414   5.833   1.692   5.524 -1.0519  0.8623 -0.5321
 6338SOL     OW22415  10.414   8.902   8.099  0.2092 -0.0946  0.3622
 6338SOL    HW122416  10.444   8.989   8.126 -0.3756  0.9089 -1.9768
 6338SOL    HW222417  10.494   8.856   8.072  0.2545  0.8514 -1.2633
 6339SOL     OW22418   0.623   2.587   5.343  0.1164 -0.0223  0.2000
 6339SOL    HW122419   0.710   2.547   5.335  0.1948  0.2955 -0.7583
 6339SOL    HW222420   0.636   2.664   5.397  0.3061 -0.3258  0.5889
 6340SOL     OW22421  10.911   1.378   6.173 -0.2184  0.0649  0.1364
 6340SOL    HW122422  10.905   1.473   6.166 -1.2512 -0.0131 -0.1343
 6340SOL    HW222423  10.994   1.357   6.130  0.1713  0.8617  0.4690
 6341SOL     OW22424   2.595   2.324   9.829  0.0040  0.3951  0.4431
 6341SOL    HW122425   2.621   2.235   9.806 -0.5650  0.6211 -1.2009
 6341SOL    HW222426   2.513   2.339   9.781 -0.0318  1.7143  0.8679
 6342SOL     OW22427   8.323   1.377   5.596  0.1724  0.1379  0.0400
 6342SOL    HW122428   8.310   1.390   5.690  1.9121  1.0256  0.2057
 6342SOL    HW222429   8.353   1.286   5.588  1.7629  0.5771  0.5946
 6343SOL     OW22430   1.858   5.681   3.188  0.0608  0.4331  0.2231
 6343SOL    HW122431   1.835   5.770   3.214 -0.0087  1.0001 -1.6476
 6343SOL    HW222432   1.947   5.669   3.221  0.1629  1.2961  0.2767
 6344SOL     OW22433   3.035   0.823  10.670 -0.2544 -0.3894 -0.0691
 6344SOL    HW122434   3.039   0.762  10.597 -2.5948 -0.7762  0.0185
 6344SOL    HW222435   3.012   0.907  10.630 -0.9977 -0.4816  0.1439
 6345SOL     OW22436   1.519   2.334   9.325  1.0201 -0.1935  0.5906
 6345SOL    HW122437   1.550   2.371   9.243  0.5481 -1.0427  0.0113
 6345SOL    HW222438   1.446   2.277   9.300  0.4258  0.0541  1.6742
 6346SOL     OW22439   3.551   1.071   0.505 -0.5021 -0.2730 -0.4162
 6346SOL    HW122440   3.505   1.060   0.422 -1.6890  1.2235 -0.0230
 6346SOL    HW222441   3.594   1.156   0.498  0.4857 -0.7237  0.0188
 6347SOL     OW22442   5.100   8.479  10.646  0.0197 -0.3924 -0.3629
 6347SOL    HW122443   5.181   8.529  10.651  0.7045 -1.3665 -1.2161
 6347SOL    HW222444   5.076   8.483  10.553 -0.7664 -0.3474 -0.1648
 6348SOL     OW22445   1.670   1.609   5.353 -0.5836  0.3345  0.4388
 6348SOL    HW122446   1.625   1.635   5.273  0.3957  0.7348 -0.0025
 6348SOL    HW222447   1.742   1.553   5.323 -0.5897 -0.0410  1.0969
 6349SOL     OW22448   0.296   2.736   8.040 -0.0019 -0.5918 -0.0761
 6349SOL    HW122449   0.304   2.693   7.955 -1.4783  0.7143 -0.9309
 6349SOL    HW222450   0.319   2.668   8.103 -0.7589 -2.1841 -1.4239
 6350SOL     OW22451   8.297   5.613   2.321  0.1703  0.0905  0.0166
 6350SOL    HW122452   8.214   5.608   2.272  0.5004  0.0420 -0.5541
 6350SOL    HW222453   8.302   5.705   2.348  1.2688  0.8435 -2.4094
 6351SOL     OW22454  10.152   1.261   7.204 -0.1371  0.0031 -0.4458
 6351SOL    HW122455  10.148   1.341   7.255 -0.9385 -0.1698 -0.2316
 6351SOL    HW222456  10.061   1.239   7.184  0.1388 -0.0133 -1.8320
 6352SOL     OW22457   2.714   7.908   5.191  0.0993 -0.2936  0.5808
 6352SOL    HW122458   2.792   7.937   5.238  0.5729 -0.9595  0.2241
 6352SOL    HW222459   2.657   7.871   5.259 -0.1315  0.6362  0.9108
 6353SOL     OW22460   1.340   8.302   8.216 -0.2396 -0.3150 -0.1072
 6353SOL    HW122461   1.253   8.282   8.250  0.9890 -1.2523  2.8604
 6353SOL    HW222462   1.361   8.227   8.160 -1.1213 -0.3502 -0.4045
 6354SOL     OW22463   1.504   1.852   7.962  0.1921 -0.0288  0.0718
 6354SOL    HW122464   1.490   1.779   7.902  0.5354  0.1097 -0.1781
 6354SOL    HW222465   1.441   1.918   7.934  0.4654  0.1008 -0.2455
 6355SOL     OW22466   4.824   6.398   4.572  0.2516 -0.6196 -0.6317
 6355SOL    HW122467   4.834   6.366   4.482  1.3312 -1.5746 -0.2017
 6355SOL    HW222468   4.729   6.400   4.586  0.0978 -1.5598 -1.4125
 6356SOL     OW22469   9.349   2.400   5.419  0.0334 -0.3856  0.2224
 6356SOL    HW122470   9.440   2.430   5.406  0.8079 -1.9661  1.6725
 6356SOL    HW222471   9.350   2.356   5.503 -2.0594 -0.6677  0.1500
 6357SOL     OW22472   0.858   4.400   2.081 -0.1271  0.1285  0.1209
 6357SOL    HW122473   0.769   4.413   2.048 -0.6860 -0.3495  1.4067
 6357SOL    HW222474   0.911   4.387   2.002 -1.1506  0.6282 -0.6690
 6358SOL     OW22475   4.619   5.930  10.876  0.2818 -0.4256  0.6445
 6358SOL    HW122476   4.628   5.963  10.966 -0.1669 -0.9428  0.8844
 6358SOL    HW222477   4.539   5.878  10.878  0.5099 -0.8046  0.0513
 6359SOL     OW22478   2.659   2.554  10.344  0.1217  0.4502 -0.2629
 6359SOL    HW122479   2.612   2.525  10.422  0.1776  0.1276 -0.3480
 6359SOL    HW222480   2.665   2.476  10.289  1.9238  0.1353  0.3168
 6360SOL     OW22481   0.442   9.544   1.679  0.1262  0.0670 -0.7409
 6360SOL    HW122482   0.428   9.631   1.718  2.7353  0.9465 -1.5648
 6360SOL    HW222483   0.376   9.539   1.609 -0.8000  0.8934  0.0434
 6361SOL     OW22484   5.698   7.541   5.398 -0.2206  0.4436  0.3247
 6361SOL    HW122485   5.737   7.548   5.485  0.1081  0.0954  0.2133
 6361SOL    HW222486   5.622   7.599   5.400  0.4888  1.3966  0.4500
 6362SOL     OW22487   5.950   0.623  10.232 -0.4213 -0.1382 -0.6938
 6362SOL    HW122488   6.037   0.601  10.198 -0.6457 -0.4724 -1.0607
 6362SOL    HW222489   5.930   0.553  10.294 -0.3960 -0.0144 -0.5436
 6363SOL     OW22490   8.747   6.621   3.659 -0.1912 -0.0792  0.2504
 6363SOL    HW122491   8.747   6.525   3.652  0.2328  0.0376 -1.7312
 6363SOL    HW222492   8.656   6.646   3.643  0.0441 -0.0518 -1.0841
 6364SOL     OW22493   8.543   1.789   7.519 -0.1359 -0.0108 -0.7450
 6364SOL    HW122494   8.626   1.750   7.493  0.9542  1.3127  0.5366
 6364SOL    HW222495   8.499   1.720   7.569  0.3927 -0.5804 -1.0498
 6365SOL     OW22496   4.065   2.291   1.622 -0.1326  0.2500 -0.0690
 6365SOL    HW122497   4.043   2.201   1.601  0.7513 -0.1643  0.7070
 6365SOL    HW222498   3.988   2.325   1.666  0.1169 -0.6509  1.1106
 6366SOL     OW22499   4.657   9.438  10.455 -0.2370 -0.2761 -0.1171
 6366SOL    HW122500   4.609   9.425  10.374 -0.6044 -1.0462  0.2063
 6366SOL    HW222501   4.726   9.371  10.452  1.7442  1.6812 -1.2166
 6367SOL     OW22502   8.737   0.794   8.028 -0.5124  0.7686 -0.5781
 6367SOL    HW122503   8.780   0.716   8.062 -0.5617  1.2635  0.6759
 6367SOL    HW222504   8.647   0.788   8.061 -1.0137  0.4781 -1.9486
 6368SOL     OW22505   5.601   6.059   3.936  0.1410  0.0129 -0.3523
 6368SOL    HW122506   5.568   6.075   3.848 -0.4003  2.9343  0.2748
 6368SOL    HW222507   5.683   6.109   3.940  1.4560 -2.0509  0.0981
 6369SOL     OW22508   4.030   5.850   9.623  0.6588  0.4879 -0.2273
 6369SOL    HW122509   3.943   5.879   9.650 -1.1113 -2.6305 -1.9915
 6369SOL    HW222510   4.052   5.906   9.548 -0.6556  0.1589 -0.8786
 6370SOL     OW22511   8.748   3.667   4.458  0.3918  0.1344 -0.0898
 6370SOL    HW122512   8.686   3.728   4.497  1.7104  0.0234  2.4205
 6370SOL    HW222513   8.759   3.698   4.368 -1.9591  1.1437 -0.1048
 6371SOL     OW22514   1.232   2.051   1.690  0.2753 -0.0474 -0.0833
 6371SOL    HW122515   1.175   2.085   1.760  1.4688 -2.0561  1.9966
 6371SOL    HW222516   1.246   2.125   1.632 -0.9387  1.6758  1.7134
 6372SOL     OW22517   9.235   3.037   2.569  0.1061  0.0517  1.0084
 6372SOL    HW122518   9.212   3.083   2.650 -0.6117  2.0103 -0.2379
 6372SOL    HW222519   9.247   3.106   2.505  1.8118 -1.3906 -0.3184
 6373SOL     OW22520   0.858   7.525   0.184 -0.2183  0.1618 -0.2466
 6373SOL    HW122521   0.903   7.481   0.111  0.1526 -0.1855  0.1895
 6373SOL    HW222522   0.887   7.478   0.262  1.5916  2.2756  0.4301
 6374SOL     OW22523  10.615   0.592   1.128  0.3502 -0.3723  0.3678
 6374SOL    HW122524  10.576   0.668   1.171  1.4268  0.4169  0.0047
 6374SOL    HW222525  10.567   0.584   1.046  0.5079  0.1884  0.2161
 6375SOL     OW22526   9.230   8.635   6.758 -0.7715  0.0313  0.1808
 6375SOL    HW122527   9.181   8.579   6.818  2.2374 -1.5866  1.3567
 6375SOL    HW222528   9.237   8.719   6.804 -1.1600 -0.1986  0.6738
 6376SOL     OW22529   6.029   0.637   5.828  0.4214 -0.6373  0.2055
 6376SOL    HW122530   5.966   0.685   5.882  1.1410 -1.5040  1.8901
 6376SOL    HW222531   6.074   0.579   5.889 -0.1593 -3.2468 -1.6739
 6377SOL     OW22532   5.821   1.300   4.208 -0.5257 -0.7462 -0.0717
 6377SOL    HW122533   5.844   1.385   4.169 -1.1116  0.9983  3.1173
 6377SOL    HW222534   5.809   1.242   4.132 -1.6107  2.3443 -2.4846
 6378SOL     OW22535   7.469   1.543  10.730 -0.2259  0.3925 -0.0847
 6378SOL    HW122536   7.518   1.625  10.729 -0.7085  0.6964 -1.4567
 6378SOL    HW222537   7.398   1.557  10.668 -0.0477 -1.2022 -0.6939
 6379SOL     OW22538   6.279   7.631   2.292 -0.3943  0.1164  0.0047
 6379SOL    HW122539   6.229   7.576   2.353  0.8764  0.2212  1.1976
 6379SOL    HW222540   6.370   7.604   2.305 -0.1201 -0.3055 -2.3438
 6380SOL     OW22541   0.804   4.419  10.888 -0.4353  0.4306 -0.1456
 6380SOL    HW122542   0.815   4.510  10.860 -1.1096  0.7233  0.5242
 6380SOL    HW222543   0.876   4.373  10.844  2.7177  2.0012  2.8366
 6381SOL     OW22544   5.122   4.302   2.762 -0.4578 -0.2906 -0.0197
 6381SOL    HW122545   5.043   4.353   2.743 -0.2865  0.3420  0.8907
 6381SOL    HW222546   5.194   4.358   2.732 -0.2453  0.2222  1.3587
 6382SOL     OW22547   7.587   4.747   4.897 -0.1841  0.5175 -0.1090
 6382SOL    HW122548   7.633   4.825   4.925  0.6341 -0.0880  0.2789
 6382SOL    HW222549   7.649   4.700   4.841 -0.4575 -0.1221  0.1079
 6383SOL     OW22550   2.702   4.566   3.866  0.5924 -0.3067 -0.4211
 6383SOL    HW122551   2.622   4.578   3.815  0.7083  2.0620 -0.1394
 6383SOL    HW222552   2.768   4.542   3.800 -0.3109 -2.4138 -0.6333
 6384SOL     OW22553   7.843   9.319   8.902  0.4015 -0.0005  0.5498
 6384SOL    HW122554   7.862   9.337   8.810 -0.6719 -0.3812  0.2445
 6384SOL    HW222555   7.806   9.231   8.903  2.9284 -1.1517  1.6918
 6385SOL     OW22556   2.988   9.763   4.147 -0.3501 -0.1099  0.2065
 6385SOL    HW122557   3.012   9.708   4.073 -1.1176  1.0283 -0.9353
 6385SOL    HW222558   2.963   9.701   4.216 -1.8116 -1.2183 -1.2367
 6386SOL     OW22559   2.182   7.521   9.374  0.3156  0.0476 -0.5037
 6386SOL    HW122560   2.190   7.592   9.311 -2.3719 -0.6550 -1.7615
 6386SOL    HW222561   2.164   7.443   9.320  0.8092 -1.1477  0.9782
 6387SOL     OW22562   5.011   4.739   7.811  0.2948  0.5908 -0.3590
 6387SOL    HW122563   4.953   4.801   7.855  1.7641  1.3477  0.6035
 6387SOL    HW222564   5.022   4.667   7.874 -0.5605 -0.1478 -1.0388
 6388SOL     OW22565   9.200   1.614   1.473 -0.1213 -0.7420 -0.2552
 6388SOL    HW122566   9.288   1.624   1.509  0.3022 -0.6652 -1.2651
 6388SOL    HW222567   9.141   1.637   1.545  0.6081 -2.8492  1.0860
 6389SOL     OW22568   6.454   2.610   0.520  0.5792 -0.0601 -0.7617
 6389SOL    HW122569   6.398   2.688   0.521  1.2065  0.5060  2.7423
 6389SOL    HW222570   6.393   2.537   0.514 -0.3586  0.6111  0.2698
 6390SOL     OW22571   2.703   5.264   8.228 -1.1118  0.1721  0.4368
 6390SOL    HW122572   2.708   5.181   8.180 -0.4982  0.7468 -0.5355
 6390SOL    HW222573   2.794   5.294   8.233 -1.4831  1.6716 -0.8674
 6391SOL     OW22574   2.718   8.673   6.376 -0.3141  0.1211 -0.1780
 6391SOL    HW122575   2.723   8.589   6.424 -1.5739 -0.2115 -0.5829
 6391SOL    HW222576   2.798   8.676   6.325  0.7933  0.2005  1.4752
 6392SOL     OW22577   9.702   9.324   8.349  0.6227  0.2946 -0.8501
 6392SOL    HW122578   9.673   9.350   8.437 -0.0389  2.0477 -1.5331
 6392SOL    HW222579   9.797   9.328   8.353  0.7209 -1.7480  0.3426
 6393SOL     OW22580  10.431   2.636   1.392 -0.0703  0.4982  0.2734
 6393SOL    HW122581  10.447   2.712   1.337  0.7283 -0.2825 -0.6084
 6393SOL    HW222582  10.345   2.604   1.364  0.9197 -0.7330 -1.6253
 6394SOL     OW22583   9.153   1.258   6.656 -0.1851 -0.5821 -0.8288
 6394SOL    HW122584   9.131   1.170   6.687  0.3732 -0.1943  0.7803
 6394SOL    HW222585   9.195   1.300   6.731 -0.9165  1.2493 -1.3825
 6395SOL     OW22586   4.251   4.017   0.854  0.5757  1.0157 -0.3214
 6395SOL    HW122587   4.293   4.013   0.939 -1.4420 -0.3572  0.6983
 6395SOL    HW222588   4.214   4.105   0.850 -0.9187  0.5147  1.1235
 6396SOL     OW22589   0.438   0.130  10.701 -0.7063  0.1236  0.0644
 6396SOL    HW122590   0.472   0.125  10.790  0.3840 -1.0566 -0.3884
 6396SOL    HW222591   0.478   0.056  10.656 -1.0884  0.8124 -1.4628
 6397SOL     OW22592   1.017   9.719   7.890  0.1895  0.0808  0.4478
 6397SOL    HW122593   0.974   9.635   7.911 -1.6994  0.9571  0.3104
 6397SOL    HW222594   1.008   9.771   7.970 -2.6276  1.6594 -0.7247
 6398SOL     OW22595   4.112   0.860   7.038  0.2271  0.2940  0.2323
 6398SOL    HW122596   4.094   0.766   7.045 -2.3686  0.4855 -1.8831
 6398SOL    HW222597   4.028   0.901   7.055  1.5053  2.3674  1.9639
 6399SOL     OW22598   5.519   3.603   7.292  0.2185  0.1325 -0.0284
 6399SOL    HW122599   5.550   3.693   7.298  1.4049 -0.2892  0.5889
 6399SOL    HW222600   5.596   3.550   7.314  0.2488 -1.1055 -2.7105
 6400SOL     OW22601   0.403   4.383   7.777 -0.0052 -0.4126 -0.0506
 6400SOL    HW122602   0.435   4.464   7.737 -0.5941 -0.8169 -1.4088
 6400SOL    HW222603   0.480   4.327   7.782  0.2180 -0.1024  0.0500
 6401SOL     OW22604   7.418   5.491  10.521  0.8206 -0.0742  0.3457
 6401SOL    HW122605   7.333   5.535  10.520  1.0211  0.3212  0.6645
 6401SOL    HW222606   7.401   5.408  10.566  0.7971  0.4248  1.2924
 6402SOL     OW22607   0.211   4.190   4.046  0.1829  0.3868 -0.0099
 6402SOL    HW122608   0.165   4.142   3.978 -1.2609 -0.0770  1.2497
 6402SOL    HW222609   0.289   4.225   4.002  0.3892 -1.6342 -1.3859
 6403SOL     OW22610   3.607   8.128   5.729 -0.4143  0.1191 -0.4618
 6403SOL    HW122611   3.668   8.058   5.753 -1.3780 -0.3550  0.7198
 6403SOL    HW222612   3.656   8.209   5.743  0.2445 -0.2741 -0.4467
 6404SOL     OW22613   6.852  10.143   7.015  0.0785  0.0769  0.3992
 6404SOL    HW122614   6.936  10.111   6.980  0.4514 -0.2051  1.5299
 6404SOL    HW222615   6.870  10.234   7.039  0.0640  0.0078  0.6698
 6405SOL     OW22616   6.033   1.027   3.904 -0.1415 -0.3044  0.4391
 6405SOL    HW122617   6.060   1.022   3.996 -0.6681 -0.5712  0.5818
 6405SOL    HW222618   5.980   0.949   3.890 -3.7055  1.7589  1.1269
 6406SOL     OW22619   0.374   9.982   2.406  0.3073  0.1394  0.1110
 6406SOL    HW122620   0.427  10.013   2.479  2.9489  2.1220 -2.3888
 6406SOL    HW222621   0.330  10.061   2.373 -1.6365 -0.8900  0.0752
 6407SOL     OW22622   2.018   4.345   0.786 -0.5198 -0.2082 -0.0549
 6407SOL    HW122623   1.934   4.337   0.831 -1.2033 -1.9300 -1.5380
 6407SOL    HW222624   2.004   4.414   0.721 -0.6999 -0.3550 -0.1695
 6408SOL     OW22625   6.438   0.244   9.779 -0.0553  0.3022  0.0874
 6408SOL    HW122626   6.527   0.261   9.745 -0.1355 -1.0468 -0.8685
 6408SOL    HW222627   6.381   0.295   9.721 -0.0679 -0.7423 -0.8523
 6409SOL     OW22628   2.807   6.146   3.546 -0.6948  0.0359 -0.0921
 6409SOL    HW122629   2.844   6.150   3.634 -0.3596 -1.5389 -0.1357
 6409SOL    HW222630   2.713   6.134   3.560 -0.7375  0.4908  0.0341
 6410SOL     OW22631  10.249   0.699   1.826 -0.9648 -0.1079 -0.0312
 6410SOL    HW122632  10.231   0.782   1.871  1.8929  0.2938  0.5778
 6410SOL    HW222633  10.276   0.639   1.896 -2.9904 -1.6610 -0.4609
 6411SOL     OW22634   7.866   5.787   7.365 -0.0202 -0.0049 -0.0995
 6411SOL    HW122635   7.931   5.857   7.368  2.0497 -1.6773 -1.7738
 6411SOL    HW222636   7.866   5.759   7.273  0.1873 -2.9205  0.6869
 6412SOL     OW22637  10.231   0.490   9.390  0.8049  0.0839 -0.1671
 6412SOL    HW122638  10.194   0.414   9.344 -0.2895  0.7060 -0.3593
 6412SOL    HW222639  10.200   0.481   9.480  2.9241 -1.1180  0.5088
 6413SOL     OW22640  10.545   4.222   3.850  0.5801  0.0542 -0.4235
 6413SOL    HW122641  10.533   4.147   3.793  0.9726  0.7183 -1.4046
 6413SOL    HW222642  10.626   4.203   3.898 -0.4113 -1.0854  0.8796
 6414SOL     OW22643   0.070   1.270  10.017  0.6270  0.7289 -0.0360
 6414SOL    HW122644   0.012   1.196  10.033 -1.4454  2.1438 -0.6755
 6414SOL    HW222645   0.138   1.235   9.959  1.3404 -1.3407  1.8858
 6415SOL     OW22646   0.617   5.023   1.182 -0.3301 -0.1325 -0.2039
 6415SOL    HW122647   0.616   4.937   1.140  0.2251 -1.9071  3.0994
 6415SOL    HW222648   0.710   5.044   1.191 -0.3556 -0.6581  1.6308
 6416SOL     OW22649   3.378   3.184   0.051 -0.9187  0.1703 -0.1560
 6416SOL    HW122650   3.421   3.109   0.091 -0.0102  1.1433  0.7711
 6416SOL    HW222651   3.288   3.181   0.083 -0.1867  1.0184  2.2231
 6417SOL     OW22652   1.615   4.367   8.632 -0.1559  0.6857 -0.2649
 6417SOL    HW122653   1.598   4.273   8.628  0.3395  0.5864 -0.0273
 6417SOL    HW222654   1.566   4.403   8.557  0.0979  0.1733 -0.6817
 6418SOL     OW22655   3.163   2.578   9.022  0.0328  0.2664  0.1756
 6418SOL    HW122656   3.148   2.487   9.049  1.2328  0.4746  1.6420
 6418SOL    HW222657   3.083   2.624   9.047  0.6953  0.2427  2.5835
 6419SOL     OW22658   1.766   0.527   7.714  0.2694 -0.4726 -0.5215
 6419SOL    HW122659   1.812   0.601   7.675 -2.4139  0.7144 -1.6815
 6419SOL    HW222660   1.682   0.524   7.668 -0.9980 -2.2486  1.7103
 6420SOL     OW22661   9.592   5.331   6.851  0.0090 -0.3042  0.1416
 6420SOL    HW122662   9.506   5.291   6.860 -0.6277  1.1816  0.9879
 6420SOL    HW222663   9.631   5.287   6.776 -2.0015 -0.1175 -1.0870
 6421SOL     OW22664   2.337   3.763   4.887 -0.6866 -0.2576  0.3191
 6421SOL    HW122665   2.317   3.845   4.843  2.3453  1.7708  2.3826
 6421SOL    HW222666   2.297   3.771   4.973  1.3754  0.1037  1.3088
 6422SOL     OW22667   2.423   8.660   0.026 -0.5661  0.0694 -0.0090
 6422SOL    HW122668   2.517   8.675   0.016 -0.9489  1.7488 -1.5916
 6422SOL    HW222669   2.413   8.565   0.015  0.7470  0.0813 -1.6755
 6423SOL     OW22670   8.209   6.134   6.475 -0.1981  0.2369 -0.0432
 6423SOL    HW122671   8.118   6.149   6.501 -0.4641 -0.4423 -0.5385
 6423SOL    HW222672   8.211   6.042   6.449  0.9061 -0.0630  1.0335
 6424SOL     OW22673   4.627   9.978   0.020 -0.3153 -0.6264  0.1644
 6424SOL    HW122674   4.613   9.938   0.106  1.4161  0.4980  1.0392
 6424SOL    HW222675   4.698   9.928  -0.019 -0.6076 -0.6804 -0.3036
 6425SOL     OW22676   3.132   2.369   7.901 -0.4826  0.0649  0.0393
 6425SOL    HW122677   3.205   2.343   7.958  0.3501  1.0608 -0.5293
 6425SOL    HW222678   3.162   2.450   7.860  0.1401 -1.9319 -3.9535
 6426SOL     OW22679   7.936   7.499   1.723 -0.4121 -0.0454  0.1544
 6426SOL    HW122680   7.927   7.404   1.714  0.0270 -0.1968  1.2235
 6426SOL    HW222681   7.909   7.518   1.812 -0.0424  0.7756  0.1056
 6427SOL     OW22682   2.790   2.531   0.197  0.2015  0.8501  0.1480
 6427SOL    HW122683   2.874   2.525   0.153  0.1691 -1.1299  0.2731
 6427SOL    HW222684   2.809   2.577   0.279  1.7243 -1.7960  1.3820
 6428SOL     OW22685  10.735   8.502   1.210  0.0795  0.3493  0.7122
 6428SOL    HW122686  10.738   8.565   1.138  0.8599  0.3466  0.7409
 6428SOL    HW222687  10.672   8.539   1.272  0.0845  0.7946  0.4520
 6429SOL     OW22688   2.606   1.280   8.837 -0.6546 -0.4956 -0.0738
 6429SOL    HW122689   2.652   1.265   8.920  0.7005  2.9829 -0.0585
 6429SOL    HW222690   2.526   1.325   8.862 -0.6606 -0.2051 -0.6193
 6430SOL     OW22691   2.863   7.023   6.777 -0.1806 -0.1271  0.0467
 6430SOL    HW122692   2.914   7.062   6.706 -1.3435 -0.3402 -0.9267
 6430SOL    HW222693   2.822   6.946   6.739 -1.4060  0.1570  0.7428
 6431SOL     OW22694   3.667   1.309   1.183  0.3276 -0.0830 -0.2145
 6431SOL    HW122695   3.730   1.249   1.142  1.0447 -0.3356  1.1938
 6431SOL    HW222696   3.592   1.254   1.204  0.4472 -0.2128 -0.1207
 6432SOL     OW22697   0.648   4.215   1.259  0.4973  0.5338 -0.4312
 6432SOL    HW122698   0.649   4.162   1.339 -0.1732  1.4340  0.1893
 6432SOL    HW222699   0.568   4.266   1.265  0.1680  0.2399 -1.9467
 6433SOL     OW22700   5.940  10.174   4.295 -0.8858  0.0821  0.2449
 6433SOL    HW122701   5.905  10.257   4.328 -2.2347 -0.6278  0.7040
 6433SOL    HW222702   5.998  10.143   4.365 -0.3591  0.6396  0.0613
 6434SOL     OW22703   1.736   2.978  10.246  0.4775 -0.2566 -0.1547
 6434SOL    HW122704   1.645   2.960  10.223  0.4290 -0.3429  0.1071
 6434SOL    HW222705   1.787   2.930  10.180  0.3688 -1.9317  0.9020
 6435SOL     OW22706   5.338   7.588   2.281  0.1850 -0.4848 -0.2093
 6435SOL    HW122707   5.246   7.592   2.310  0.2591  0.7271 -0.0954
 6435SOL    HW222708   5.333   7.550   2.193 -0.2656 -1.8891  0.3867
 6436SOL     OW22709   9.920   3.207   1.151  0.0670  0.1462 -0.1421
 6436SOL    HW122710   9.948   3.219   1.060  0.2676  0.5385 -0.0301
 6436SOL    HW222711   9.858   3.134   1.148 -0.0193  0.2396 -0.6106
 6437SOL     OW22712  10.793   5.847   4.901 -0.6523 -1.0134  0.2288
 6437SOL    HW122713  10.808   5.935   4.936 -1.6742 -1.3543  1.6593
 6437SOL    HW222714  10.767   5.861   4.810 -2.2719  0.3275  0.8378
 6438SOL     OW22715   0.266   8.258   7.300  0.1314  0.1280  0.5634
 6438SOL    HW122716   0.303   8.272   7.213  0.1268  1.6237  0.7856
 6438SOL    HW222717   0.292   8.168   7.323 -1.3241 -0.9603 -1.6782
 6439SOL     OW22718   1.257   7.877   6.853 -0.0977 -1.1629 -0.0615
 6439SOL    HW122719   1.251   7.794   6.806  0.1504 -0.3014 -1.7080
 6439SOL    HW222720   1.299   7.936   6.791 -0.6358  0.3036  0.9208
 6440SOL     OW22721   8.357   1.054   1.447 -0.0105 -0.2626  0.0384
 6440SOL    HW122722   8.388   0.964   1.434  0.0719 -0.4095  1.1568
 6440SOL    HW222723   8.385   1.076   1.536 -2.3921 -0.1022  0.8154
 6441SOL     OW22724   2.739   7.484   4.355  0.1250 -0.1410 -0.2582
 6441SOL    HW122725   2.831   7.485   4.328  0.3028  0.7537  0.3471
 6441SOL    HW222726   2.700   7.413   4.304  1.2081 -0.7100 -0.3199
 6442SOL     OW22727   6.118   5.560   2.045 -1.3094  0.1483  0.0548
 6442SOL    HW122728   6.186   5.518   2.097 -2.0897  0.3250  1.2702
 6442SOL    HW222729   6.130   5.525   1.957 -1.7245 -2.4024  0.9136
 6443SOL     OW22730   3.504  10.269   8.134  0.1645  0.3779  0.6817
 6443SOL    HW122731   3.575  10.259   8.198  0.8001 -0.3741 -0.1059
 6443SOL    HW222732   3.543  10.241   8.051 -0.3859  2.0736 -0.2106
 6444SOL     OW22733   9.223   7.186   3.664 -0.1364  0.5140 -0.1501
 6444SOL    HW122734   9.130   7.163   3.659 -0.0497 -0.1805  0.9954
 6444SOL    HW222735   9.256   7.136   3.739  0.7605  2.0983  0.5746
 6445SOL     OW22736   7.331   7.187   2.039  0.6915  0.3524  0.5581
 6445SOL    HW122737   7.282   7.195   1.957  1.1634 -0.2039  0.2158
 6445SOL    HW222738   7.264   7.171   2.105  0.4725 -2.2070 -0.1506
 6446SOL     OW22739   7.159  10.237   1.090 -0.1651 -0.1884  0.0335
 6446SOL    HW122740   7.141  10.227   0.996 -0.1226  1.0768 -0.1243
 6446SOL    HW222741   7.229  10.175   1.108 -0.1206 -0.3867 -0.7899
 6447SOL     OW22742   1.206   2.220   0.630 -0.5339 -0.1281 -0.6399
 6447SOL    HW122743   1.261   2.142   0.638  0.4528  0.5538 -0.5517
 6447SOL    HW222744   1.172   2.235   0.718 -0.9816 -0.6329 -0.7233
 6448SOL     OW22745   6.584   0.489   4.315  0.0912 -0.0920  0.1790
 6448SOL    HW122746   6.669   0.469   4.354 -0.3942 -0.3452  1.1506
 6448SOL    HW222747   6.598   0.482   4.221  1.1972  0.0865  0.3159
 6449SOL     OW22748   1.894   2.546  10.637  0.0154  0.9497 -0.1530
 6449SOL    HW122749   1.987   2.530  10.656  0.1411  1.4994 -0.2770
 6449SOL    HW222750   1.889   2.640  10.624 -0.9253  1.2509  1.9256
 6450SOL     OW22751  10.418   3.085   1.771 -0.0569 -0.2793  0.2768
 6450SOL    HW122752  10.473   3.124   1.703 -0.1594 -0.6248 -0.0083
 6450SOL    HW222753  10.479   3.051   1.836  0.0280  0.8795  0.8318
 6451SOL     OW22754   0.048   1.698   8.591  0.5854 -0.4657 -0.0066
 6451SOL    HW122755  -0.023   1.755   8.562  1.2998 -0.0632 -1.0514
 6451SOL    HW222756   0.027   1.612   8.555 -0.0861 -0.6998  0.9002
 6452SOL     OW22757   2.018  10.539   1.371 -0.5496  0.5628  0.2832
 6452SOL    HW122758   2.013  10.544   1.275 -0.7124  1.1366  0.3147
 6452SOL    HW222759   2.097  10.489   1.388 -0.2950  0.8047 -0.1536
 6453SOL     OW22760   8.393   4.956   8.844  0.6038  0.3401 -0.4676
 6453SOL    HW122761   8.454   4.941   8.771 -1.6150 -2.4089 -1.9523
 6453SOL    HW222762   8.311   4.916   8.815 -0.6198 -0.2498  3.2784
 6454SOL     OW22763   8.437   2.451   9.425  0.4305  0.1734 -0.0494
 6454SOL    HW122764   8.394   2.524   9.381 -0.8263 -0.2937  0.3549
 6454SOL    HW222765   8.397   2.448   9.512  2.0019  0.3226  0.7205
 6455SOL     OW22766   8.064   4.357   5.043  0.0204  0.8236  0.0252
 6455SOL    HW122767   8.004   4.321   5.108 -0.9855  2.0952 -0.1610
 6455SOL    HW222768   8.143   4.377   5.093  1.1119 -2.5661 -0.0490
 6456SOL     OW22769   9.812   9.363   6.947 -0.2789 -0.2506  0.2945
 6456SOL    HW122770   9.888   9.394   6.996  0.2245 -1.8722  0.6007
 6456SOL    HW222771   9.800   9.427   6.877 -0.7873  1.9395  2.2656
 6457SOL     OW22772   5.268  10.693   2.205 -0.5614  0.3814 -0.1180
 6457SOL    HW122773   5.227  10.630   2.264 -1.5306  0.5554 -0.5910
 6457SOL    HW222774   5.286  10.643   2.125  0.9282  0.0950  0.3660
 6458SOL     OW22775   4.525   5.077   4.858 -0.1632  0.0140  0.6594
 6458SOL    HW122776   4.491   5.039   4.776  1.4386  0.0247 -0.0459
 6458SOL    HW222777   4.491   5.020   4.926 -1.0968 -0.3091 -0.0423
 6459SOL     OW22778   5.417   1.221   1.259 -0.0978  0.4233  0.4736
 6459SOL    HW122779   5.380   1.191   1.342  0.5033  0.7990  0.8763
 6459SOL    HW222780   5.508   1.193   1.262  0.1760  1.2925  0.3570
 6460SOL     OW22781   8.675   1.337   1.517  0.1192 -0.1712  0.0736
 6460SOL    HW122782   8.670   1.322   1.611 -0.5244  0.0212  0.0774
 6460SOL    HW222783   8.749   1.396   1.506  0.0424  0.0078  0.4860
 6461SOL     OW22784  10.715   1.027   8.588 -0.2941 -0.4298  0.3893
 6461SOL    HW122785  10.683   0.960   8.528  0.0253 -0.9521  0.7971
 6461SOL    HW222786  10.791   0.988   8.630  0.1987  0.3798  0.2685
 6462SOL     OW22787   9.654   6.770   0.343  0.2278  0.6315 -0.2552
 6462SOL    HW122788   9.613   6.695   0.301  0.2357  0.4482  0.0578
 6462SOL    HW222789   9.599   6.845   0.318 -1.0878  0.2077  1.2067
 6463SOL     OW22790   3.419   5.605   8.385 -0.4638  0.1515 -0.2363
 6463SOL    HW122791   3.339   5.620   8.335 -0.8093 -1.0731 -0.0803
 6463SOL    HW222792   3.463   5.690   8.386 -1.3917  0.6572 -0.9639
 6464SOL     OW22793   3.804   0.663   2.988 -0.1135  0.5674  0.2694
 6464SOL    HW122794   3.837   0.695   3.072 -0.6969  0.5265  0.5152
 6464SOL    HW222795   3.883   0.653   2.934  0.4733 -0.9874  1.3292
 6465SOL     OW22796   6.687  10.062   8.485  0.0010 -0.2931  0.0497
 6465SOL    HW122797   6.766  10.053   8.432 -0.2074 -0.3564 -0.2547
 6465SOL    HW222798   6.616  10.037   8.426 -0.2881  0.1857  0.1843
 6466SOL     OW22799   5.966   5.775   0.866 -0.0026  0.3278 -0.5590
 6466SOL    HW122800   5.952   5.683   0.842 -0.7845  0.3925 -0.3809
 6466SOL    HW222801   5.884   5.818   0.845  0.1266  0.8571 -0.0111
 6467SOL     OW22802   2.527   3.357   7.287  0.2335  1.0136 -0.1123
 6467SOL    HW122803   2.473   3.430   7.259 -0.2275  0.7298  0.0349
 6467SOL    HW222804   2.535   3.302   7.209 -0.0902  0.8108 -0.0025
 6468SOL     OW22805   3.193   1.048   5.872  0.8553 -0.3448  0.2917
 6468SOL    HW122806   3.283   1.035   5.842  1.0755  0.0315  0.7714
 6468SOL    HW222807   3.200   1.120   5.936  0.0264  0.5979 -0.6451
 6469SOL     OW22808   1.764   6.236   1.544  0.0993 -0.2401  0.3924
 6469SOL    HW122809   1.851   6.197   1.554  0.0786 -0.5128 -0.4300
 6469SOL    HW222810   1.777   6.328   1.567  0.9243  0.0274 -1.0302
 6470SOL     OW22811   2.793   0.498   7.330 -0.4461  0.2661 -0.4705
 6470SOL    HW122812   2.784   0.546   7.412  0.0501 -0.7785  0.2105
 6470SOL    HW222813   2.756   0.557   7.264 -1.5763  0.7993  0.6007
 6471SOL     OW22814   3.312   2.761   9.527 -0.3159 -0.1796 -0.0943
 6471SOL    HW122815   3.323   2.689   9.588 -2.3576 -1.2274 -0.8746
 6471SOL    HW222816   3.251   2.821   9.570  2.0125  1.6444  0.9286
 6472SOL     OW22817  10.169   0.805   2.325 -0.3179  0.1582  0.0384
 6472SOL    HW122818  10.261   0.810   2.296 -0.3218 -0.8801 -0.2047
 6472SOL    HW222819  10.153   0.888   2.368  0.3807  0.8505 -0.9920
 6473SOL     OW22820  10.373   0.263   5.212  0.5907  0.1156 -0.1686
 6473SOL    HW122821  10.436   0.225   5.150  0.2607 -0.3663 -0.2164
 6473SOL    HW222822  10.413   0.346   5.239  1.4151 -0.3359  0.0593
 6474SOL     OW22823   8.109   4.761   2.588  0.8882  0.0059 -0.2276
 6474SOL    HW122824   8.053   4.729   2.518  1.5627 -2.4444  0.2367
 6474SOL    HW222825   8.182   4.698   2.590  0.3160 -0.7713  3.3754
 6475SOL     OW22826   1.211  10.408   1.590 -0.2830  0.2569  0.3314
 6475SOL    HW122827   1.194  10.464   1.515 -1.4803  0.4125  0.6988
 6475SOL    HW222828   1.293  10.441   1.627 -0.9942  1.8393  0.5878
 6476SOL     OW22829   3.460   9.515   6.395 -0.4159 -0.7042  0.5210
 6476SOL    HW122830   3.370   9.537   6.420 -0.7812  1.4335 -2.1158
 6476SOL    HW222831   3.464   9.534   6.301  2.8833 -0.3953  0.5980
 6477SOL     OW22832   4.367   2.306   9.637 -0.4973  0.0273 -0.4103
 6477SOL    HW122833   4.414   2.314   9.720 -0.1177 -0.4771 -0.5729
 6477SOL    HW222834   4.279   2.339   9.655 -0.8927 -1.5073  0.5966
 6478SOL     OW22835   6.886   4.086   8.485 -0.1218  0.0912 -0.3287
 6478SOL    HW122836   6.844   4.011   8.526  1.9197  0.0297  1.8741
 6478SOL    HW222837   6.956   4.049   8.432 -0.2083  0.3565 -0.6318
 6479SOL     OW22838   6.302  10.798   1.297 -0.3088  0.1697 -0.1897
 6479SOL    HW122839   6.327  10.761   1.382  1.1396  1.4396 -0.0306
 6479SOL    HW222840   6.302  10.723   1.238  2.3267 -0.2059  0.1759
 6480SOL     OW22841   2.822   9.882  10.821  0.5113 -0.0178  0.0402
 6480SOL    HW122842   2.808   9.889  10.727 -1.6207 -4.1013 -0.1763
 6480SOL    HW222843   2.908   9.841  10.830  0.0365 -1.1163 -0.2770
 6481SOL     OW22844   3.317  10.274   2.852 -0.4157 -0.8880  0.1457
 6481SOL    HW122845   3.296  10.367   2.843 -1.4557 -1.2222 -1.3506
 6481SOL    HW222846   3.232  10.231   2.861 -0.2158 -1.9346 -2.1730
 6482SOL     OW22847   7.096   6.740   3.883 -0.2024 -0.1056  0.4138
 6482SOL    HW122848   7.150   6.684   3.939  0.0385 -0.1806  0.1081
 6482SOL    HW222849   7.068   6.682   3.812  0.9588  0.4251 -0.5126
 6483SOL     OW22850   8.976   5.583   3.409  0.1622 -0.3510 -0.1564
 6483SOL    HW122851   8.922   5.514   3.448  0.7231 -0.8537 -0.2782
 6483SOL    HW222852   9.052   5.590   3.467  0.2740 -0.0706 -0.3348
 6484SOL     OW22853   7.284   7.812   9.872  0.5522  0.2265 -0.4156
 6484SOL    HW122854   7.332   7.887   9.907 -0.4743  0.7105 -0.0012
 6484SOL    HW222855   7.205   7.849   9.833  0.1727 -0.6038 -0.4725
 6485SOL     OW22856   0.823   9.982   4.242  0.0998  0.0381 -0.4758
 6485SOL    HW122857   0.871  10.046   4.189  0.0128 -0.4646 -1.1831
 6485SOL    HW222858   0.889   9.942   4.298 -0.0247  1.5172  0.7875
 6486SOL     OW22859  10.417   6.191   5.411 -0.5267 -0.1673 -0.3317
 6486SOL    HW122860  10.350   6.239   5.362 -1.2450 -1.4729 -0.7055
 6486SOL    HW222861  10.497   6.242   5.400 -1.1240  0.6215 -1.1934
 6487SOL     OW22862   1.668   9.454   7.213 -0.8583 -0.4473  0.0044
 6487SOL    HW122863   1.719   9.468   7.293 -0.1846 -1.9536 -0.1451
 6487SOL    HW222864   1.583   9.495   7.232  0.6811  3.2319 -0.2083
 6488SOL     OW22865   9.959   9.256   8.405  0.4146  0.0071 -0.3794
 6488SOL    HW122866   9.980   9.260   8.498  0.5594 -1.3273 -0.3338
 6488SOL    HW222867  10.026   9.197   8.368  0.4383  0.6147 -1.3493
 6489SOL     OW22868   1.104   2.722   6.129  0.1888 -0.4019  0.2724
 6489SOL    HW122869   1.026   2.777   6.122  0.3814 -0.3495 -2.9290
 6489SOL    HW222870   1.072   2.633   6.116  0.6517 -0.3541 -1.3579
 6490SOL     OW22871   4.700   9.756   4.014  0.3984 -0.2031 -0.4639
 6490SOL    HW122872   4.766   9.767   3.946  3.0150  0.3919  1.9910
 6490SOL    HW222873   4.701   9.662   4.034 -0.3424 -0.3709 -1.1455
 6491SOL     OW22874  10.565   3.952   4.544  0.1291  0.1782 -0.3222
 6491SOL    HW122875  10.580   4.015   4.614  1.1526 -1.7470  1.2521
 6491SOL    HW222876  10.628   3.977   4.476  2.5938 -0.7881  1.4627
 6492SOL     OW22877   9.215  10.888   5.754 -0.0513  0.6226  0.3452
 6492SOL    HW122878   9.245  10.907   5.842  1.0746  0.5764 -0.0087
 6492SOL    HW222879   9.282  10.830   5.717  0.1413  1.6090 -0.9430
 6493SOL     OW22880   7.830   9.146   0.078 -0.2185 -0.4750 -0.1162
 6493SOL    HW122881   7.755   9.181   0.125 -0.2139 -0.4595 -0.1204
 6493SOL    HW222882   7.897   9.134   0.144  0.4550  1.3616 -0.4122
 6494SOL     OW22883   6.449   6.003   9.812  0.4714 -0.3418  0.0126
 6494SOL    HW122884   6.457   6.097   9.823  1.8250 -0.4372  0.0424
 6494SOL    HW222885   6.536   5.975   9.782  0.2505 -1.6344  0.5012
 6495SOL     OW22886   2.173   8.439   9.847 -0.1082  0.0186  0.2920
 6495SOL    HW122887   2.220   8.358   9.829  0.9647  0.4822  0.9522
 6495SOL    HW222888   2.219   8.479   9.920 -1.3959  0.6121  0.8132
 6496SOL     OW22889   0.284   1.135   8.848 -0.3780  0.3091  0.2667
 6496SOL    HW122890   0.298   1.207   8.788  1.3313 -0.8450 -0.8116
 6496SOL    HW222891   0.222   1.169   8.913  1.5388  3.2534  0.7318
 6497SOL     OW22892   6.307   2.275   3.843 -0.0303  0.2940 -0.2800
 6497SOL    HW122893   6.358   2.350   3.873  0.7142 -0.6092  0.8253
 6497SOL    HW222894   6.267   2.240   3.922 -0.2871 -0.5273 -0.7602
 6498SOL     OW22895  10.861   4.595   4.874 -0.7077  0.1246  0.1124
 6498SOL    HW122896  10.889   4.681   4.844 -0.8307 -0.4482 -1.7645
 6498SOL    HW222897  10.919   4.533   4.828 -1.2486 -0.8257  0.6718
 6499SOL     OW22898   1.624   7.372   9.329  0.0703 -0.0306  0.4396
 6499SOL    HW122899   1.562   7.426   9.280  0.7722  1.6381  1.3380
 6499SOL    HW222900   1.669   7.321   9.261 -0.0303  1.1316 -0.5362
 6500SOL     OW22901   4.621   1.385   3.760  0.2848 -0.2744 -0.0160
 6500SOL    HW122902   4.687   1.448   3.730  0.2461 -0.1410  0.1794
 6500SOL    HW222903   4.645   1.302   3.718  0.8834 -0.3498  0.4703
 6501SOL     OW22904   1.450   4.815   5.943 -0.0982 -0.5752  0.4052
 6501SOL    HW122905   1.447   4.888   6.005  1.6009 -1.4480  1.5964
 6501SOL    HW222906   1.436   4.737   5.996  0.6694 -1.2963 -0.4094
 6502SOL     OW22907   6.124   9.265  10.807 -0.1163 -0.0838 -0.3087
 6502SOL    HW122908   6.134   9.271  10.902 -3.4216  0.6188  0.1343
 6502SOL    HW222909   6.052   9.202  10.795  1.1536 -1.2345 -2.4783
 6503SOL     OW22910   1.094   1.453   8.509 -0.2125  0.3071 -0.1608
 6503SOL    HW122911   1.131   1.515   8.572 -2.0968  0.1654  1.1628
 6503SOL    HW222912   1.155   1.454   8.435  0.4529  2.7736  0.3583
 6504SOL     OW22913  10.880   8.480   4.772  0.3335 -0.1253  0.3080
 6504SOL    HW122914  10.971   8.467   4.745  0.1395 -0.2294 -0.3307
 6504SOL    HW222915  10.861   8.570   4.747 -0.5185 -0.8669 -2.0256
 6505SOL     OW22916   2.528   6.927   6.923  0.2712 -0.5229  0.0532
 6505SOL    HW122917   2.438   6.894   6.931  0.3650 -0.9113 -0.4451
 6505SOL    HW222918   2.543   6.975   7.004 -0.4599 -0.2875  0.0581
 6506SOL     OW22919   1.050   9.359   0.820  0.0921  0.1608  0.1280
 6506SOL    HW122920   1.032   9.277   0.865 -0.3621  0.9635  1.4848
 6506SOL    HW222921   0.964   9.400   0.809  0.3755  0.7798  0.1239
 6507SOL     OW22922   2.706   4.739   6.984  0.9593 -0.1730  0.0108
 6507SOL    HW122923   2.759   4.814   6.957 -0.5800  1.7543  1.9825
 6507SOL    HW222924   2.728   4.725   7.076 -1.4746  0.3624  0.7469
 6508SOL     OW22925  10.194   4.664   9.732 -0.5020  1.0614  0.1750
 6508SOL    HW122926  10.198   4.603   9.806  0.1694 -0.7372 -1.2828
 6508SOL    HW222927  10.272   4.718   9.740  0.5553 -0.3643 -0.2138
 6509SOL     OW22928   1.376   7.389   5.483  0.3592 -0.7452  0.1643
 6509SOL    HW122929   1.423   7.313   5.517  0.4455 -0.3801  0.8991
 6509SOL    HW222930   1.330   7.357   5.406  1.9431 -1.0707 -0.6801
 6510SOL     OW22931   2.538   6.305   0.116 -0.2196  0.0014  0.1446
 6510SOL    HW122932   2.595   6.379   0.140 -0.4681  0.2401  0.0053
 6510SOL    HW222933   2.484   6.289   0.193 -2.0135  1.6901 -0.6798
 6511SOL     OW22934   6.650   8.101   9.859 -0.0193  0.4904 -0.2300
 6511SOL    HW122935   6.599   8.161   9.914 -0.3349  0.5905 -0.6305
 6511SOL    HW222936   6.674   8.153   9.783  0.5055  0.3806 -0.1385
 6512SOL     OW22937   7.845   7.191   8.435 -0.1561 -0.0071 -0.1198
 6512SOL    HW122938   7.871   7.280   8.457  0.3795 -0.1506 -0.1690
 6512SOL    HW222939   7.754   7.185   8.465 -0.0009  0.3588  0.4290
 6513SOL     OW22940   4.217   5.110   8.607 -0.3994 -0.3619 -0.3397
 6513SOL    HW122941   4.298   5.137   8.649 -0.5252 -0.0783 -0.2793
 6513SOL    HW222942   4.154   5.101   8.678 -0.8132  0.8417 -0.5313
 6514SOL     OW22943   9.932   0.664   8.337 -0.0768  0.4754 -0.5422
 6514SOL    HW122944  10.002   0.646   8.274  0.0381  1.3716 -0.6833
 6514SOL    HW222945   9.855   0.620   8.301  0.4716 -0.8355 -0.2044
 6515SOL     OW22946   8.444   1.258   9.491 -0.3285  0.2175  0.2578
 6515SOL    HW122947   8.505   1.204   9.440 -0.1523 -0.9219  1.5972
 6515SOL    HW222948   8.499   1.328   9.527 -0.0990  0.0376  0.2626
 6516SOL     OW22949   8.330   2.566   7.006 -0.0904 -0.3455  0.8848
 6516SOL    HW122950   8.399   2.509   6.970  0.4567  0.1872  1.0647
 6516SOL    HW222951   8.359   2.585   7.095 -0.2619  0.2120  0.8271
 6517SOL     OW22952  10.762  10.431   5.640  0.1573  0.3162 -0.0368
 6517SOL    HW122953  10.755  10.336   5.648 -0.8844  0.3131 -0.8168
 6517SOL    HW222954  10.723  10.465   5.720 -1.2749  0.1054 -0.6188
 6518SOL     OW22955   5.582   5.760   0.335  0.5325  0.7082  0.0583
 6518SOL    HW122956   5.520   5.687   0.340 -1.0466  2.0403  1.3559
 6518SOL    HW222957   5.632   5.744   0.255  1.0926 -2.3921  0.8902
 6519SOL     OW22958   6.875   7.871   2.217 -0.1028  0.6158 -0.5744
 6519SOL    HW122959   6.792   7.881   2.264  0.5315  1.1736  0.4577
 6519SOL    HW222960   6.856   7.901   2.128 -1.0247  0.6717 -0.3671
 6520SOL     OW22961   4.197   0.537   8.809 -0.5392  0.3630  0.2632
 6520SOL    HW122962   4.151   0.456   8.829  1.7390 -0.8925  0.6966
 6520SOL    HW222963   4.224   0.571   8.894 -0.3064  0.8574 -0.0054
 6521SOL     OW22964   3.533   4.699  10.446 -0.1389 -0.1277  0.1248
 6521SOL    HW122965   3.461   4.711  10.509 -0.3810  1.4554 -0.3942
 6521SOL    HW222966   3.493   4.716  10.361  0.8519  0.8230 -0.1670
 6522SOL     OW22967   7.802   2.918   4.897 -0.6375  0.2288 -0.1521
 6522SOL    HW122968   7.739   2.964   4.842 -2.2173  0.6372  1.8871
 6522SOL    HW222969   7.852   2.988   4.940 -0.7722 -0.0290  0.4289
 6523SOL     OW22970   6.307   5.775   1.374 -0.1430 -0.2937  0.6791
 6523SOL    HW122971   6.303   5.714   1.448 -3.4676 -2.1167 -0.7710
 6523SOL    HW222972   6.243   5.843   1.396 -0.4530 -0.3320 -0.0689
 6524SOL     OW22973   0.077  10.646   3.132  0.1962 -0.4813 -0.3005
 6524SOL    HW122974   0.163  10.681   3.153  0.3026 -0.6633 -0.4294
 6524SOL    HW222975   0.080  10.632   3.037 -0.9785  2.3049 -0.8509
 6525SOL     OW22976   6.989   9.601   2.270 -0.2421 -0.2175 -0.5218
 6525SOL    HW122977   7.024   9.689   2.260 -1.0878  0.2441  0.4164
 6525SOL    HW222978   6.980   9.588   2.364 -3.0938 -0.0445 -0.6753
 6526SOL     OW22979   5.436   8.022   6.092  0.0089 -0.0801 -0.8680
 6526SOL    HW122980   5.370   8.065   6.147 -1.5561 -2.1007 -1.0192
 6526SOL    HW222981   5.391   7.944   6.058  2.1747 -0.9823 -1.8491
 6527SOL     OW22982   5.176   6.253   2.326  0.3824  0.5355  0.1612
 6527SOL    HW122983   5.252   6.243   2.384 -1.9228  1.2688  3.5710
 6527SOL    HW222984   5.137   6.165   2.322  0.3017  0.5759  0.0546
 6528SOL     OW22985  10.765   8.782   2.323 -0.7851 -1.1467  0.7681
 6528SOL    HW122986  10.751   8.799   2.416 -0.5730  2.1794  0.3424
 6528SOL    HW222987  10.860   8.784   2.312 -0.8318 -0.6834  0.3969
 6529SOL     OW22988  10.145   9.522   4.342  0.3397  0.4063 -0.2872
 6529SOL    HW122989  10.131   9.432   4.372  2.1834  0.0137 -0.4751
 6529SOL    HW222990  10.101   9.526   4.258 -0.5704 -0.0118  0.1486
 6530SOL     OW22991   6.820   2.024   6.508  0.0938  0.1519 -0.0786
 6530SOL    HW122992   6.847   1.946   6.459  0.5986  1.1553 -1.4714
 6530SOL    HW222993   6.894   2.084   6.499 -0.8290  1.3061 -0.2299
 6531SOL     OW22994   3.465   6.576   9.077 -0.3154  0.1249  0.1145
 6531SOL    HW122995   3.495   6.625   9.001 -0.3961  1.8655  1.1410
 6531SOL    HW222996   3.545   6.552   9.123 -0.2987 -0.2830 -0.1201
 6532SOL     OW22997   2.802   8.695   0.595  0.2927  0.4651  0.1557
 6532SOL    HW122998   2.799   8.750   0.517 -0.9692 -0.1394 -0.2450
 6532SOL    HW222999   2.741   8.738   0.656  2.0474  1.5252  1.2437
 6533SOL     OW23000  10.069   8.795   2.882  0.5241  0.0000 -0.0075
 6533SOL    HW123001  10.123   8.768   2.809 -0.8746  1.2578 -1.5835
 6533SOL    HW223002  10.046   8.713   2.927  1.1769 -0.8188 -1.1259
 6534SOL     OW23003   2.556   5.282   6.218 -0.6491  0.4863 -0.2604
 6534SOL    HW123004   2.586   5.201   6.258 -2.3818 -0.3314 -0.5691
 6534SOL    HW223005   2.614   5.293   6.142 -0.9483 -0.9419 -0.7276
 6535SOL     OW23006  10.282   2.021   1.608  0.1933  0.2106  0.0168
 6535SOL    HW123007  10.347   2.056   1.669 -0.7866 -1.1888  1.9719
 6535SOL    HW223008  10.332   1.962   1.551  0.5538 -1.9730  2.4087
 6536SOL     OW23009   8.624   7.469   2.926  0.5472 -0.2338  0.3176
 6536SOL    HW123010   8.551   7.423   2.966 -0.2880  0.2586 -0.5802
 6536SOL    HW223011   8.621   7.444   2.834  1.6044 -0.3105  0.2852
 6537SOL     OW23012   3.346   6.424   6.987 -0.1110  0.2881 -0.2438
 6537SOL    HW123013   3.402   6.444   7.062 -0.7489  3.1337 -0.4280
 6537SOL    HW223014   3.313   6.509   6.958  0.8026 -0.5540 -4.3310
 6538SOL     OW23015   4.254   7.197   1.949 -0.0915 -0.2628  0.1989
 6538SOL    HW123016   4.347   7.216   1.959 -0.2256  0.6455 -0.2136
 6538SOL    HW223017   4.210   7.268   1.996 -0.6296  1.1234 -2.2413
 6539SOL     OW23018   1.979   9.105   3.103  0.2358 -0.0376 -0.4140
 6539SOL    HW123019   1.915   9.071   3.165  0.8581 -2.1156 -0.8071
 6539SOL    HW223020   1.978   9.041   3.031  1.3792  0.9092 -1.3150
 6540SOL     OW23021   8.025   8.914   0.966 -0.0793 -0.0066  0.2089
 6540SOL    HW123022   8.079   8.949   0.895  0.2992 -1.4365 -0.2433
 6540SOL    HW223023   8.086   8.902   1.039 -0.3008  0.6626  0.5170
 6541SOL     OW23024   4.395   3.162   4.906  0.2625  0.1875  0.2506
 6541SOL    HW123025   4.355   3.174   4.820 -0.1909 -0.4958  0.3524
 6541SOL    HW223026   4.471   3.106   4.889 -1.2316 -2.1084  0.5696
 6542SOL     OW23027   1.501  10.493  10.500  0.0267  0.8446  0.4741
 6542SOL    HW123028   1.422  10.541  10.524 -1.4934  0.0736 -2.5495
 6542SOL    HW223029   1.475  10.401  10.499  1.7180  0.2820  1.9028
 6543SOL     OW23030   6.915   3.967   1.625 -0.5009 -0.2578 -0.7890
 6543SOL    HW123031   6.900   4.052   1.583  1.3192  0.9519  0.8639
 6543SOL    HW223032   6.858   3.968   1.702 -0.0330 -0.2990 -0.4460
 6544SOL     OW23033   2.852   9.896   6.120  0.3819  0.3505 -0.0241
 6544SOL    HW123034   2.805   9.886   6.037  1.3234  0.1819 -0.5494
 6544SOL    HW223035   2.942   9.872   6.099  0.3756 -1.0194  1.3550
 6545SOL     OW23036   7.617   3.492   8.332 -0.7252  0.0771 -0.2772
 6545SOL    HW123037   7.573   3.441   8.399 -1.7164  1.1267 -0.0897
 6545SOL    HW223038   7.618   3.436   8.254 -0.0482 -0.9374  0.4416
 6546SOL     OW23039   6.080   7.695   4.743  0.5057  0.1388  0.0879
 6546SOL    HW123040   6.018   7.632   4.705 -1.0196  0.8184  1.3471
 6546SOL    HW223041   6.125   7.733   4.667 -1.5528  0.5581 -0.9975
 6547SOL     OW23042   4.851   8.267   4.308 -0.2618 -0.2481 -0.2848
 6547SOL    HW123043   4.800   8.195   4.346  2.1456 -1.8146  0.2469
 6547SOL    HW223044   4.837   8.260   4.214  0.3954 -1.8632 -0.2966
 6548SOL     OW23045  10.622   1.433   4.684  0.6931  0.0485  0.3714
 6548SOL    HW123046  10.620   1.435   4.588  1.1528  0.3505  0.3630
 6548SOL    HW223047  10.714   1.449   4.706  0.2822  1.8709  0.9093
 6549SOL     OW23048   6.168   0.983   8.028 -0.0863  0.6962 -0.2370
 6549SOL    HW123049   6.088   1.036   8.021  0.5850  1.6320 -1.1517
 6549SOL    HW223050   6.237   1.040   7.994  0.8114 -0.4560 -0.3961
 6550SOL     OW23051   3.723   1.724   6.429  0.3336 -0.2465  0.0540
 6550SOL    HW123052   3.774   1.804   6.422 -0.2677  0.3036  1.5769
 6550SOL    HW223053   3.772   1.670   6.491 -1.1271  0.4972  1.9423
 6551SOL     OW23054   4.523   2.361   5.912 -0.3238 -0.4369 -0.0479
 6551SOL    HW123055   4.534   2.438   5.967 -1.8987 -0.6992  0.6921
 6551SOL    HW223056   4.601   2.360   5.856  0.6342  0.6246  1.2001
 6552SOL     OW23057   4.806   0.878   3.961 -0.1316 -0.1296  0.4025
 6552SOL    HW123058   4.867   0.897   3.890 -0.5272 -1.7997 -0.4287
 6552SOL    HW223059   4.736   0.943   3.951 -0.3118 -0.5034 -0.9029
 6553SOL     OW23060   3.413   0.669   7.354  0.0558 -0.4102  0.6377
 6553SOL    HW123061   3.367   0.593   7.319 -0.8890  0.4649 -0.0799
 6553SOL    HW223062   3.387   0.672   7.446 -1.6095  0.2214  0.1854
 6554SOL     OW23063   1.097   5.617   8.026  0.1414  0.0919  0.0676
 6554SOL    HW123064   1.049   5.673   8.086  1.6378  0.5826  0.8449
 6554SOL    HW223065   1.043   5.538   8.018 -0.1236  0.0460  1.9912
 6555SOL     OW23066   2.552   5.961   1.430 -0.1603  0.3288 -0.8981
 6555SOL    HW123067   2.509   6.015   1.363 -3.5305  0.5278  1.2202
 6555SOL    HW223068   2.498   5.882   1.435  2.3723 -1.5255 -1.1258
 6556SOL     OW23069  10.002   0.988   3.210 -0.3383 -0.1724  0.3239
 6556SOL    HW123070  10.032   1.074   3.240 -0.3823 -0.2259  0.5206
 6556SOL    HW223071   9.944   1.007   3.137 -0.0185 -0.0542  0.0991
 6557SOL     OW23072   6.333   4.007   7.778  0.0299  0.2756  0.4329
 6557SOL    HW123073   6.283   4.087   7.796 -0.1998  0.4263 -0.7662
 6557SOL    HW223074   6.267   3.938   7.773  0.2189  0.0058  1.3752
 6558SOL     OW23075   4.879   9.381   0.151  0.0779 -0.7274 -0.0050
 6558SOL    HW123076   4.797   9.430   0.140 -0.1205 -0.5291  1.9239
 6558SOL    HW223077   4.941   9.426   0.094 -0.9331 -0.3318 -0.8309
 6559SOL     OW23078   9.908   3.161   2.626 -0.7543 -0.2040 -0.2652
 6559SOL    HW123079   9.916   3.226   2.697  0.2673 -1.5865  0.9405
 6559SOL    HW223080   9.844   3.098   2.659  0.6533 -1.5499  0.0436
 6560SOL     OW23081   7.051   0.629   5.704  0.2636  0.0727  0.2089
 6560SOL    HW123082   7.035   0.697   5.769  0.6328 -0.8122  1.2390
 6560SOL    HW223083   7.100   0.561   5.750  1.0768 -0.3082 -1.1403
 6561SOL     OW23084   1.834   1.174   1.014 -0.3991  0.2306  0.0038
 6561SOL    HW123085   1.849   1.094   0.964  0.6122 -0.4715  1.3657
 6561SOL    HW223086   1.921   1.208   1.032 -0.5952 -0.4624  2.6659
 6562SOL     OW23087   8.090   4.506  10.066 -0.7571  0.0741 -0.7215
 6562SOL    HW123088   8.114   4.442   9.999 -0.9819 -0.7713 -0.0107
 6562SOL    HW223089   8.008   4.473  10.102 -0.6503  0.5307 -0.0399
 6563SOL     OW23090   9.061   7.705  10.333 -0.5277  0.0950 -0.3460
 6563SOL    HW123091   9.079   7.691  10.240  0.9509  1.5638 -0.3314
 6563SOL    HW223092   8.993   7.772  10.334  0.5142  1.1842 -0.3989
 6564SOL     OW23093   5.178   0.746   6.697 -0.8521 -0.3016  0.2562
 6564SOL    HW123094   5.235   0.670   6.683 -1.2394 -0.4883 -0.3536
 6564SOL    HW223095   5.148   0.737   6.787  0.6973  0.2332  0.8737
 6565SOL     OW23096   0.087   3.307   3.252  0.1007  0.4650 -0.5216
 6565SOL    HW123097  -0.008   3.314   3.264  0.1200 -0.8015  0.6883
 6565SOL    HW223098   0.104   3.349   3.168 -1.1180  3.2979  0.5322
 6566SOL     OW23099   0.462   4.085   6.491  0.4377 -0.6298  0.2974
 6566SOL    HW123100   0.500   4.023   6.553  0.2678 -0.5466  0.4845
 6566SOL    HW223101   0.491   4.053   6.405  1.1325 -0.4243  0.4507
 6567SOL     OW23102   9.454   9.005   5.625 -0.2418  0.0282  0.4012
 6567SOL    HW123103   9.404   9.078   5.588 -2.7119 -1.7123  0.0448
 6567SOL    HW223104   9.388   8.949   5.666  1.5484 -1.9799  0.7064
 6568SOL     OW23105   6.572   1.086   9.481 -0.2116  0.2735 -0.8143
 6568SOL    HW123106   6.659   1.059   9.511 -1.0288 -1.1401  0.4681
 6568SOL    HW223107   6.563   1.176   9.512  0.2631 -0.0517  0.3347
 6569SOL     OW23108   8.314   4.174   0.032 -0.7119 -0.2063 -0.1381
 6569SOL    HW123109   8.254   4.248   0.040 -0.7118 -0.1687 -0.4972
 6569SOL    HW223110   8.324   4.142   0.122 -2.5627 -1.2462 -0.2466
 6570SOL     OW23111   0.545   9.536   7.574 -0.0999 -0.1962  0.1454
 6570SOL    HW123112   0.557   9.607   7.510 -0.1425 -0.5867 -0.3002
 6570SOL    HW223113   0.451   9.534   7.591 -0.1706 -0.5119 -0.2701
 6571SOL     OW23114   6.476   5.660   1.781  0.3696 -0.6382 -0.2808
 6571SOL    HW123115   6.432   5.681   1.863  1.0334 -0.4219  0.0223
 6571SOL    HW223116   6.515   5.574   1.796  0.6555 -0.5130 -0.3000
 6572SOL     OW23117   9.685   7.828   5.845  0.0584 -0.3097  0.2437
 6572SOL    HW123118   9.610   7.846   5.789 -0.8664  0.4557  1.6498
 6572SOL    HW223119   9.715   7.741   5.819 -0.0748  0.1706 -1.6685
 6573SOL     OW23120   2.749   2.132   6.490 -0.0036  0.3923  0.3508
 6573SOL    HW123121   2.664   2.137   6.446 -0.5077 -0.7434  1.1674
 6573SOL    HW223122   2.728   2.128   6.583  0.9863  0.9148  0.6188
 6574SOL     OW23123   5.196   5.782  10.885 -0.0329  0.1737  0.1788
 6574SOL    HW123124   5.220   5.795  10.977  1.1071 -0.2863 -0.0403
 6574SOL    HW223125   5.211   5.868  10.845  0.4772  0.1085  0.2187
 6575SOL     OW23126   7.469  10.564   7.485  0.4682  0.8722 -0.4217
 6575SOL    HW123127   7.513  10.584   7.403  0.7421  0.8359 -0.2845
 6575SOL    HW223128   7.382  10.534   7.459  1.5356 -2.1738 -0.9072
 6576SOL     OW23129   9.448   9.963   5.158  0.2548  0.3578  0.3424
 6576SOL    HW123130   9.533   9.922   5.142  1.0572  1.6110  1.1506
 6576SOL    HW223131   9.443  10.033   5.093 -1.0328 -0.8678 -0.9328
 6577SOL     OW23132   3.767   5.952   6.133  0.0314  0.0964 -0.7182
 6577SOL    HW123133   3.819   5.895   6.189 -0.5475 -1.1094 -1.3711
 6577SOL    HW223134   3.829   5.987   6.069  0.8105  1.8980  0.9059
 6578SOL     OW23135   0.631   7.157   3.482 -0.0751  0.3816 -0.3194
 6578SOL    HW123136   0.702   7.095   3.468 -0.7577 -0.2448 -1.1875
 6578SOL    HW223137   0.587   7.125   3.561  0.2184  0.3884 -0.1520
 6579SOL     OW23138   1.552   5.707  10.292 -0.1044 -0.4327  0.3359
 6579SOL    HW123139   1.644   5.720  10.271  0.4175 -2.0068  1.4814
 6579SOL    HW223140   1.508   5.782  10.251  1.1682 -1.4659 -3.3969
 6580SOL     OW23141   0.666   5.240   5.228 -0.4630  0.2624  0.1335
 6580SOL    HW123142   0.744   5.272   5.183  0.1075 -0.2249  0.7573
 6580SOL    HW223143   0.595   5.294   5.194  0.0743  0.4364 -0.7541
 6581SOL     OW23144   9.658   4.828   2.015 -0.3272  0.2705  0.2479
 6581SOL    HW123145   9.745   4.839   1.976  0.2274 -1.6803  0.8071
 6581SOL    HW223146   9.660   4.740   2.052 -2.3567  0.4138  0.7999
 6582SOL     OW23147   8.484   6.460  10.741  0.0626 -0.1388  0.0755
 6582SOL    HW123148   8.544   6.526  10.706  0.0796 -0.1141  0.1517
 6582SOL    HW223149   8.525   6.432  10.823  0.3564 -0.6619 -0.2416
 6583SOL     OW23150   6.852   7.824   1.098 -0.2930 -0.0466  0.2049
 6583SOL    HW123151   6.822   7.800   1.186 -1.8238  0.7349 -0.0684
 6583SOL    HW223152   6.825   7.750   1.043  3.2633 -1.9883  0.7313
 6584SOL     OW23153   1.780   6.294   8.940  0.3346 -0.9155 -0.4910
 6584SOL    HW123154   1.871   6.314   8.963  0.2863 -1.5528  0.3237
 6584SOL    HW223155   1.735   6.287   9.025 -0.7738  0.6606 -0.9052
 6585SOL     OW23156   9.853  10.037   5.178 -0.5680  0.1235  0.0977
 6585SOL    HW123157   9.912   9.966   5.204  1.2739  1.0013 -1.3965
 6585SOL    HW223158   9.881  10.112   5.230 -1.9320  0.0043  1.0418
 6586SOL     OW23159   6.277   8.504   5.372 -0.2053 -0.4273 -0.0924
 6586SOL    HW123160   6.359   8.530   5.412  1.0843 -2.6589 -1.0646
 6586SOL    HW223161   6.209   8.547   5.424  1.5396  1.2918  0.8796
 6587SOL     OW23162   6.884   9.372  10.820 -0.3347  0.0869 -0.3328
 6587SOL    HW123163   6.855   9.428  10.892 -3.1151  0.9704 -1.9866
 6587SOL    HW223164   6.974   9.400  10.802  0.0923  0.4926  2.1110
 6588SOL     OW23165   9.499   2.815   9.522 -0.4617  0.2392  0.2817
 6588SOL    HW123166   9.518   2.907   9.540  0.0603  0.0670  0.6319
 6588SOL    HW223167   9.445   2.787   9.597 -1.4430  0.5106 -0.3059
 6589SOL     OW23168  10.353   5.939   5.879 -0.1271  0.2214  0.0193
 6589SOL    HW123169  10.365   6.011   5.817  0.9150  0.4864  0.5032
 6589SOL    HW223170  10.406   5.868   5.844  0.2078  0.2663  0.4238
 6590SOL     OW23171   9.404   5.153   1.198  0.1701  0.5498  0.0093
 6590SOL    HW123172   9.384   5.212   1.270 -0.5855  0.7319 -0.3347
 6590SOL    HW223173   9.430   5.071   1.240 -0.4101  0.6066  0.4891
 6591SOL     OW23174   3.085   2.043   0.619  0.1133 -0.3771 -0.2349
 6591SOL    HW123175   3.086   2.102   0.695 -0.5663 -1.1121  0.3762
 6591SOL    HW223176   3.024   2.083   0.558 -1.2972 -0.9984  0.6877
 6592SOL     OW23177   2.966   8.879  10.277 -0.5501  0.0506 -0.2713
 6592SOL    HW123178   3.006   8.922  10.201 -2.6252  4.4371  0.7681
 6592SOL    HW223179   2.889   8.835  10.241 -0.0020 -0.2968 -1.0402
 6593SOL     OW23180   4.146   2.592  10.916  0.1295  0.0928 -0.3371
 6593SOL    HW123181   4.181   2.628  10.835  0.3851 -0.4224 -0.4612
 6593SOL    HW223182   4.189   2.507  10.925 -0.2232 -0.0429  0.1132
 6594SOL     OW23183   3.418   2.178  10.352 -0.1938 -0.4559 -0.4413
 6594SOL    HW123184   3.483   2.207  10.287  0.0615 -0.3380 -0.1372
 6594SOL    HW223185   3.335   2.185  10.306  0.0385 -0.9217 -0.9418
 6595SOL     OW23186   8.213  10.139   8.946 -0.1006 -0.0582  0.1097
 6595SOL    HW123187   8.257  10.194   8.880  1.6491 -0.4499  0.8926
 6595SOL    HW223188   8.184  10.200   9.013  3.0422 -0.0576  1.6608
 6596SOL     OW23189   1.333   7.508   8.526 -0.6723  0.1338  0.3005
 6596SOL    HW123190   1.308   7.419   8.501  1.8382 -0.8180  0.8166
 6596SOL    HW223191   1.254   7.560   8.515 -1.8532 -1.8818 -1.3948
 6597SOL     OW23192   2.529   4.909   2.828 -0.5636 -0.2350 -0.2153
 6597SOL    HW123193   2.555   4.978   2.766  0.6531 -1.7427 -1.4466
 6597SOL    HW223194   2.609   4.861   2.846 -1.6318 -2.2313 -0.5538
 6598SOL     OW23195   4.013   6.009   3.613  0.3541  0.2866 -0.1485
 6598SOL    HW123196   3.957   5.931   3.608  1.1610 -0.2740 -0.6743
 6598SOL    HW223197   4.084   5.984   3.672  0.9061  0.4211 -0.7425
 6599SOL     OW23198   7.612   8.335   1.746  0.0437  0.4766  0.4511
 6599SOL    HW123199   7.555   8.341   1.669 -1.9960  1.8933  1.9600
 6599SOL    HW223200   7.585   8.254   1.789  0.5596  0.1486  0.1714
 6600SOL     OW23201   2.391   2.023   5.918 -0.3005 -0.2327  0.0086
 6600SOL    HW123202   2.435   2.103   5.948 -0.8686  0.3554 -0.6846
 6600SOL    HW223203   2.434   1.953   5.966  0.0422  0.5120  0.8166
 6601SOL     OW23204   8.961   9.981   3.896  0.1571  0.2447  0.5081
 6601SOL    HW123205   9.022   9.918   3.856 -1.5325 -0.4726 -1.0727
 6601SOL    HW223206   8.906   9.928   3.953  1.3066  0.9850  2.4291
 6602SOL     OW23207   3.708   9.459   6.899 -0.0877 -0.3238  0.4748
 6602SOL    HW123208   3.743   9.488   6.983  1.9452 -0.2660 -0.3259
 6602SOL    HW223209   3.783   9.419   6.855 -1.0549 -0.1760 -1.3894
 6603SOL     OW23210   2.457   5.846   8.333  0.0747  0.2617  0.0904
 6603SOL    HW123211   2.549   5.819   8.332 -0.0183 -0.0525  0.0482
 6603SOL    HW223212   2.436   5.864   8.241 -0.8386 -2.8435 -0.4235
 6604SOL     OW23213   7.960   2.444   7.674 -0.2863  0.0028 -0.3033
 6604SOL    HW123214   8.051   2.416   7.661 -0.7779 -1.0344 -1.8501
 6604SOL    HW223215   7.940   2.496   7.596 -1.4636 -1.0898 -0.7671
 6605SOL     OW23216   7.088   6.287   0.992  0.3351  0.0946 -0.0740
 6605SOL    HW123217   7.063   6.378   0.975  1.8469  0.5605  0.0452
 6605SOL    HW223218   7.028   6.258   1.061 -2.0309  0.0545 -2.0418
 6606SOL     OW23219   4.548   5.657   5.945  0.7479 -0.0724 -0.3798
 6606SOL    HW123220   4.553   5.749   5.921  2.4639 -0.1470 -0.4623
 6606SOL    HW223221   4.624   5.643   6.002  1.3833 -1.7440 -1.5488
 6607SOL     OW23222   9.316   9.958   0.731 -0.2670 -0.3041  0.0019
 6607SOL    HW123223   9.247   9.892   0.738  0.3792 -0.8938  1.1170
 6607SOL    HW223224   9.298  10.019   0.803 -0.0205 -0.0894 -0.1178
 6608SOL     OW23225   7.132   1.075   7.626 -0.0397 -0.1499  0.0666
 6608SOL    HW123226   7.204   1.011   7.621  0.8040  0.5130  2.3144
 6608SOL    HW223227   7.081   1.060   7.546  0.5223 -3.1346  0.1220
 6609SOL     OW23228   4.399   5.713   4.170 -0.0280  0.0379  0.1243
 6609SOL    HW123229   4.454   5.679   4.099 -1.7490 -3.0331  0.0849
 6609SOL    HW223230   4.453   5.778   4.214  3.1325 -1.8655 -0.6895
 6610SOL     OW23231   3.204   2.177   4.066  0.2258 -0.7872  0.0891
 6610SOL    HW123232   3.123   2.143   4.029  0.1192 -1.0252  0.5345
 6610SOL    HW223233   3.271   2.158   4.000 -0.2824  0.5376 -0.8536
 6611SOL     OW23234   3.268   3.228   7.521  0.2422  0.3051  0.4723
 6611SOL    HW123235   3.298   3.252   7.433 -1.2736  1.7623  0.2930
 6611SOL    HW223236   3.299   3.298   7.578  0.5350 -0.2186  0.9695
 6612SOL     OW23237   7.702   5.112   5.829 -0.0329  0.2558  0.0449
 6612SOL    HW123238   7.719   5.052   5.756  2.7034 -0.1274  0.8892
 6612SOL    HW223239   7.652   5.059   5.891 -0.5050 -0.0925 -0.6125
 6613SOL     OW23240   6.182   1.689   3.961 -0.2025 -0.3229  0.1500
 6613SOL    HW123241   6.118   1.742   4.009 -0.8576 -1.2893  0.3777
 6613SOL    HW223242   6.233   1.645   4.028 -0.9534 -1.4798 -0.0023
 6614SOL     OW23243   3.951   1.222   5.911  0.2229  0.2833  0.3469
 6614SOL    HW123244   4.030   1.187   5.869 -0.5013 -0.6540 -0.2760
 6614SOL    HW223245   3.922   1.292   5.852  0.3713  0.3671  0.3728
 6615SOL     OW23246   8.193   2.904   9.050 -0.4518  0.3991  0.4166
 6615SOL    HW123247   8.180   2.984   8.998  0.3602  0.3688  0.1454
 6615SOL    HW223248   8.142   2.837   9.005 -0.3439  0.5414  0.0804
 6616SOL     OW23249   9.804   7.039   3.564 -0.4355  0.1676 -0.1307
 6616SOL    HW123250   9.801   7.043   3.468  1.4467 -0.9983 -0.2886
 6616SOL    HW223251   9.837   7.125   3.590  0.4806 -0.0202 -0.6369
 6617SOL     OW23252   2.808   2.553   2.652  0.1965  0.7685  0.6845
 6617SOL    HW123253   2.726   2.542   2.605  1.5736  2.7969 -2.4899
 6617SOL    HW223254   2.832   2.464   2.678 -2.9717  0.1286  1.8809
 6618SOL     OW23255   5.370   8.306   9.710 -0.1193 -0.3614 -0.6137
 6618SOL    HW123256   5.293   8.358   9.733 -0.6285 -1.0815 -0.6639
 6618SOL    HW223257   5.420   8.362   9.651  0.4201  0.9076  0.9729
 6619SOL     OW23258  10.483  10.461   0.352 -0.3751 -0.1246  0.2895
 6619SOL    HW123259  10.396  10.484   0.383 -1.0073 -1.4722 -0.4051
 6619SOL    HW223260  10.542  10.512   0.407 -1.5697  0.2384  1.2807
 6620SOL     OW23261  10.810  10.324   2.900  0.4342  0.3572 -0.5776
 6620SOL    HW123262  10.802  10.413   2.865  1.2608  0.2564 -1.0492
 6620SOL    HW223263  10.817  10.269   2.823  0.4488 -0.0695 -0.2745
 6621SOL     OW23264  10.412   8.975   1.319  0.1528  0.6153  0.2398
 6621SOL    HW123265  10.500   9.007   1.340 -0.4941  1.7190  1.4014
 6621SOL    HW223266  10.379   9.037   1.253 -0.0635  0.7054  0.4308
 6622SOL     OW23267   9.407   3.984   4.790  0.2112 -0.0762 -0.7340
 6622SOL    HW123268   9.427   4.072   4.822  1.3199 -0.0665 -1.4065
 6622SOL    HW223269   9.434   3.986   4.698 -0.1666 -0.9925 -0.8698
 6623SOL     OW23270   0.894   8.194   0.026  0.2035  0.5323 -0.7024
 6623SOL    HW123271   0.930   8.121  -0.024 -0.5346 -0.1731 -0.2438
 6623SOL    HW223272   0.883   8.264  -0.038 -2.9099 -1.0871 -2.1620
 6624SOL     OW23273   5.510   7.253   4.419  0.7062 -0.0922 -0.1089
 6624SOL    HW123274   5.507   7.273   4.326  2.1170  0.0900 -0.1228
 6624SOL    HW223275   5.518   7.158   4.423  1.9299 -0.0016 -0.2102
 6625SOL     OW23276  10.483   2.170   9.474 -0.4937  0.0321  0.1688
 6625SOL    HW123277  10.428   2.095   9.452 -0.4040  0.5038 -1.8252
 6625SOL    HW223278  10.527   2.193   9.393  0.8600  1.1533  1.1587
 6626SOL     OW23279   3.299   0.053   0.970  0.2983  0.1333 -0.3148
 6626SOL    HW123280   3.296  -0.014   1.038 -2.0978 -0.5083 -0.9539
 6626SOL    HW223281   3.372   0.028   0.914  1.5695  0.0230  1.3150
 6627SOL     OW23282   6.402   0.964   6.544 -0.0214 -0.0871 -0.2389
 6627SOL    HW123283   6.379   0.891   6.602 -1.2184 -0.9871 -1.7780
 6627SOL    HW223284   6.318   1.000   6.516  0.4614 -0.7728 -2.7476
 6628SOL     OW23285   6.541   8.076  10.519  0.4313  0.2945 -0.2438
 6628SOL    HW123286   6.468   8.032  10.562  0.4758  1.1612  0.7814
 6628SOL    HW223287   6.523   8.066  10.426  0.6453 -2.1656 -0.0877
 6629SOL     OW23288   2.226   7.793   5.077  0.0340  0.0340  0.3676
 6629SOL    HW123289   2.245   7.771   4.986  0.9249 -0.3836  0.6377
 6629SOL    HW223290   2.143   7.840   5.074  0.0798  0.0730 -0.6647
 6630SOL     OW23291   9.226   0.201   4.791  0.0486  0.0770  0.1124
 6630SOL    HW123292   9.266   0.180   4.876  0.2733 -1.4655 -0.3475
 6630SOL    HW223293   9.219   0.296   4.791  0.0442  0.1105  1.8625
 6631SOL     OW23294   5.596   3.314   5.783 -0.1554 -0.1480 -0.2279
 6631SOL    HW123295   5.553   3.263   5.851 -1.1967 -0.5188 -1.1463
 6631SOL    HW223296   5.550   3.398   5.782 -0.1636 -0.1534 -0.4903
 6632SOL     OW23297   7.284  10.411   5.099  0.4033 -0.0248  0.2489
 6632SOL    HW123298   7.372  10.392   5.131  1.8425  1.4650 -2.4788
 6632SOL    HW223299   7.260  10.334   5.048 -0.3624 -0.8686  1.8303
 6633SOL     OW23300   5.697   7.061  10.674  0.1621  0.2179 -0.4459
 6633SOL    HW123301   5.662   7.144  10.707 -0.4439  0.0781 -0.7243
 6633SOL    HW223302   5.724   7.013  10.753 -1.8230 -0.3644 -0.0741
 6634SOL     OW23303   7.603   5.747   9.023  0.3696 -0.3074 -0.3355
 6634SOL    HW123304   7.628   5.710   8.938 -0.8527 -0.0770 -0.8192
 6634SOL    HW223305   7.672   5.718   9.083  0.4110 -1.8596 -1.0700
 6635SOL     OW23306   6.435   4.691   1.160  0.0149  0.5625  0.7495
 6635SOL    HW123307   6.456   4.662   1.071 -0.9735  2.5098 -0.1827
 6635SOL    HW223308   6.516   4.681   1.209 -0.0682 -3.0311  0.3879
 6636SOL     OW23309   3.596  10.677  10.075  0.7966 -0.2137  0.1223
 6636SOL    HW123310   3.688  10.692  10.098  1.2120 -0.4134 -1.3053
 6636SOL    HW223311   3.596  10.594  10.028  0.5073  1.3724 -2.9981
 6637SOL     OW23312   4.598   5.153   5.243 -0.1653 -0.2722 -0.0872
 6637SOL    HW123313   4.588   5.211   5.168 -1.2508 -0.4377 -0.0885
 6637SOL    HW223314   4.684   5.112   5.231 -0.0272  0.2284 -0.8632
 6638SOL     OW23315   0.494   4.043   4.734  0.5133  0.1739 -0.2695
 6638SOL    HW123316   0.479   4.099   4.811  0.1958 -0.2060 -0.0537
 6638SOL    HW223317   0.589   4.032   4.732  0.4729 -0.3910  0.4861
 6639SOL     OW23318   5.170   3.272   2.796  0.2687 -0.2317 -0.5412
 6639SOL    HW123319   5.151   3.222   2.875 -0.3712  0.7508 -0.0528
 6639SOL    HW223320   5.084   3.292   2.759  0.5656 -1.0810 -1.7707
 6640SOL     OW23321   6.629   8.978   1.931  0.3324  0.0364  0.1936
 6640SOL    HW123322   6.556   9.030   1.965  0.2432  1.5544 -2.1162
 6640SOL    HW223323   6.701   8.995   1.991 -0.3660  0.9542  0.7888
 6641SOL     OW23324   7.389   2.458   0.209 -0.5889 -0.0813 -0.2125
 6641SOL    HW123325   7.400   2.460   0.304  2.7296 -0.8348 -0.4514
 6641SOL    HW223326   7.408   2.367   0.186  1.3064  0.6440 -1.7588
 6642SOL     OW23327   3.368   9.696   2.072  0.1415  0.0549 -0.2867
 6642SOL    HW123328   3.325   9.614   2.099  0.2023  0.0665 -0.1515
 6642SOL    HW223329   3.460   9.682   2.092 -0.2306  1.5394  3.4291
 6643SOL     OW23330   2.741   3.154   4.022  0.1797 -0.5967 -0.4540
 6643SOL    HW123331   2.805   3.097   4.064  0.8170  1.0265  0.8710
 6643SOL    HW223332   2.781   3.179   3.939  0.0484 -1.7459 -0.8841
 6644SOL     OW23333   5.740   8.551   9.502  0.0329  0.1121  0.2054
 6644SOL    HW123334   5.823   8.552   9.455 -0.7632  0.3444 -1.2659
 6644SOL    HW223335   5.753   8.489   9.573  1.5887  0.4577  0.2518
 6645SOL     OW23336   9.298   6.891   1.845  0.0817 -0.1497 -0.2738
 6645SOL    HW123337   9.268   6.832   1.914 -1.9821  0.5231 -0.5171
 6645SOL    HW223338   9.350   6.957   1.891  1.0060 -1.1991  0.2243
 6646SOL     OW23339   2.941  10.146   7.718  0.3922 -0.0710  0.0960
 6646SOL    HW123340   2.968  10.198   7.643 -0.1910 -0.7598 -0.5971
 6646SOL    HW223341   2.913  10.062   7.681  2.0252 -1.1900  1.2342
 6647SOL     OW23342   8.243   0.976   8.529  0.4059 -0.0146 -0.2420
 6647SOL    HW123343   8.274   0.894   8.569  1.2015  1.0055  1.3221
 6647SOL    HW223344   8.283   1.045   8.582  0.1698  1.4115 -1.8576
 6648SOL     OW23345   4.033   4.115   7.353 -0.0122  0.4417 -0.7030
 6648SOL    HW123346   4.117   4.075   7.374  0.0839  0.5854 -0.8119
 6648SOL    HW223347   4.055   4.198   7.311 -0.2089  0.6116 -0.4779
 6649SOL     OW23348   8.256   7.165   3.481 -0.2762  0.0417 -0.5906
 6649SOL    HW123349   8.231   7.100   3.416 -0.6199  1.7747 -2.2932
 6649SOL    HW223350   8.348   7.184   3.462  0.1206 -0.6319  0.5507
 6650SOL     OW23351   9.114   6.821   2.814 -0.3503 -0.3765  0.1970
 6650SOL    HW123352   9.170   6.873   2.872 -0.1169 -0.0348 -0.3226
 6650SOL    HW223353   9.166   6.811   2.734  0.7701 -3.6656  1.1595
 6651SOL     OW23354   6.885   3.144   1.756  1.2039 -0.1814  0.1705
 6651SOL    HW123355   6.902   3.220   1.701  1.6905 -0.4901 -0.1130
 6651SOL    HW223356   6.840   3.083   1.698  1.1484 -0.2554  0.2927
 6652SOL     OW23357  10.632   2.638   7.635  0.1195 -0.2127 -0.0910
 6652SOL    HW123358  10.573   2.594   7.575  0.7499 -0.5251 -0.4966
 6652SOL    HW223359  10.715   2.591   7.626  0.6930  0.7820 -0.2354
 6653SOL     OW23360   8.226   7.667   2.803  0.1490 -0.1924 -0.1423
 6653SOL    HW123361   8.290   7.737   2.792  1.6860 -1.4861  0.2054
 6653SOL    HW223362   8.198   7.673   2.894 -0.7770  0.7943 -0.4688
 6654SOL     OW23363   5.856   0.247   4.872 -0.5329 -0.2314  0.1267
 6654SOL    HW123364   5.837   0.167   4.823  0.9729  0.1592 -1.1858
 6654SOL    HW223365   5.946   0.269   4.847 -0.8096  1.7005  0.6895
 6655SOL     OW23366   9.853   9.401   8.003 -0.7836  0.0106 -0.1124
 6655SOL    HW123367   9.872   9.469   7.939  1.4779 -0.3174  0.1092
 6655SOL    HW223368   9.897   9.432   8.083  0.3644 -1.6959 -0.0348
 6656SOL     OW23369   4.989   8.709   3.550 -0.2339  0.0761  0.1705
 6656SOL    HW123370   4.923   8.666   3.496 -1.9923 -0.0881  2.2710
 6656SOL    HW223371   4.984   8.662   3.634  1.7415  0.8490  0.7762
 6657SOL     OW23372   9.224   3.181   5.920 -0.4056 -0.1714 -0.1260
 6657SOL    HW123373   9.236   3.098   5.873 -0.7624 -0.3853  0.1460
 6657SOL    HW223374   9.221   3.155   6.012 -1.6194  0.0017 -0.0999
 6658SOL     OW23375   5.389   2.419   4.370 -0.4490  0.0032 -0.0777
 6658SOL    HW123376   5.471   2.394   4.411  0.1933  1.5182 -0.3766
 6658SOL    HW223377   5.338   2.460   4.440 -0.2939  0.5081 -0.2586
 6659SOL     OW23378   6.387   4.620   9.821 -0.0858 -0.7869  0.1639
 6659SOL    HW123379   6.334   4.690   9.784  1.1888 -0.9065 -2.0623
 6659SOL    HW223380   6.439   4.662   9.889 -0.0486  0.2354 -0.4832
 6660SOL     OW23381   6.902   8.788   9.025 -0.6469 -0.3122  0.2584
 6660SOL    HW123382   6.981   8.832   8.992 -0.6463  0.0978  0.7848
 6660SOL    HW223383   6.935   8.720   9.083 -0.6061 -1.8292 -1.4696
 6661SOL     OW23384   8.015   6.244   9.825 -0.0403  0.1827  0.5943
 6661SOL    HW123385   7.953   6.231   9.897 -1.8296 -0.5063 -1.0229
 6661SOL    HW223386   7.983   6.322   9.780  0.0072 -0.4043 -0.4869
 6662SOL     OW23387   6.847   3.870   0.764 -0.1744  0.1393 -0.0565
 6662SOL    HW123388   6.886   3.793   0.806  1.2765  2.1778  2.6301
 6662SOL    HW223389   6.760   3.841   0.739 -0.3981 -1.9134  2.5733
 6663SOL     OW23390   1.292   3.958   7.445 -0.1973  0.3263  0.0357
 6663SOL    HW123391   1.297   4.051   7.424 -2.3326  0.5684  0.3276
 6663SOL    HW223392   1.212   3.951   7.498 -1.8995 -2.1066 -2.5899
 6664SOL     OW23393   8.316  10.873   4.450 -0.1369  0.1748 -0.1296
 6664SOL    HW123394   8.332  10.851   4.359  0.3072 -0.8456  0.1867
 6664SOL    HW223395   8.370  10.951   4.466  1.2973 -0.7668 -0.2311
 6665SOL     OW23396   9.698   5.585   6.372 -0.1222  0.3117 -0.3263
 6665SOL    HW123397   9.608   5.614   6.359  0.7553  3.2706 -0.6388
 6665SOL    HW223398   9.738   5.592   6.285 -0.0847 -3.3804 -0.7642
 6666SOL     OW23399   3.729   5.726   4.786  0.2004  0.0248 -0.0794
 6666SOL    HW123400   3.821   5.722   4.814  0.4104 -0.0501 -0.7713
 6666SOL    HW223401   3.730   5.779   4.707 -0.3425 -0.0515 -0.1381
 6667SOL     OW23402   0.904   3.018   4.311  0.2139  1.0344 -0.5855
 6667SOL    HW123403   0.865   2.990   4.393  1.6787 -1.5299 -0.6695
 6667SOL    HW223404   0.856   2.971   4.243  1.3621  0.2594 -0.8974
 6668SOL     OW23405  10.041   6.746   3.207  0.2357 -0.3053 -0.3409
 6668SOL    HW123406  10.123   6.795   3.198 -0.3370  0.8466  0.5012
 6668SOL    HW223407  10.018   6.722   3.118  0.2310  1.5084 -0.8759
 6669SOL     OW23408   2.117  10.188   1.438 -0.1333 -0.1043  0.0584
 6669SOL    HW123409   2.023  10.201   1.422 -0.1429 -0.0161  0.1765
 6669SOL    HW223410   2.123  10.101   1.479 -0.2747  0.2965  0.9631
 6670SOL     OW23411   8.171   9.552   3.154  0.2518 -0.3948  0.4980
 6670SOL    HW123412   8.236   9.599   3.101 -1.4520  2.5889  0.8402
 6670SOL    HW223413   8.086   9.579   3.118 -0.9053 -2.2250  1.6373
 6671SOL     OW23414   4.824   5.673  10.376  0.6872  0.6200  0.1477
 6671SOL    HW123415   4.785   5.634  10.298  1.1575 -0.7006  0.5407
 6671SOL    HW223416   4.840   5.599  10.434  1.6028  1.4096  0.9406
 6672SOL     OW23417   4.041   9.137  10.330 -0.0325 -0.0423 -0.4005
 6672SOL    HW123418   4.116   9.133  10.270  0.6209 -2.0456  0.4657
 6672SOL    HW223419   3.964   9.133  10.273  0.5756 -1.1338 -1.1870
 6673SOL     OW23420  10.327   6.887   1.396 -0.5315 -0.0949 -0.2046
 6673SOL    HW123421  10.272   6.934   1.333 -0.7512 -1.0112 -0.7210
 6673SOL    HW223422  10.277   6.807   1.415 -0.0056 -0.2893  0.3676
 6674SOL     OW23423   8.467   5.115   4.149 -0.5327 -0.0824  0.2250
 6674SOL    HW123424   8.406   5.189   4.148 -1.6370 -0.8876  1.7771
 6674SOL    HW223425   8.419   5.045   4.105  0.5847  0.1548 -1.4176
 6675SOL     OW23426   7.553  10.589   8.424  0.0309  0.1962 -0.3472
 6675SOL    HW123427   7.568  10.660   8.362 -0.3189  0.2909 -0.3235
 6675SOL    HW223428   7.619  10.524   8.402  0.7355  0.7740  0.0021
 6676SOL     OW23429   3.667   0.456   5.907  0.0886 -0.4036  0.2585
 6676SOL    HW123430   3.759   0.456   5.881  0.0417 -3.6641 -0.3530
 6676SOL    HW223431   3.669   0.475   6.001  1.3028  0.0729  0.1582
 6677SOL     OW23432   8.797   3.793   9.753  0.1305  0.0542 -0.1814
 6677SOL    HW123433   8.865   3.759   9.812  0.3183  1.6674  0.5935
 6677SOL    HW223434   8.717   3.750   9.782  0.6372 -1.0874 -0.4209
 6678SOL     OW23435  10.151   7.444   3.616  0.7004  0.1836 -0.2309
 6678SOL    HW123436  10.125   7.529   3.650  1.0268 -0.5905  2.1718
 6678SOL    HW223437  10.209   7.463   3.543  0.9620  2.0307  0.4128
 6679SOL     OW23438   8.323   3.154   3.876 -0.2777 -0.0351  0.3230
 6679SOL    HW123439   8.291   3.065   3.892 -1.2858  0.2371 -0.0866
 6679SOL    HW223440   8.417   3.149   3.894 -0.0091 -1.5725 -1.2030
 6680SOL     OW23441   0.613   7.669   8.631  0.1789 -0.4078  0.3930
 6680SOL    HW123442   0.609   7.654   8.726 -1.1027 -0.2333  0.3815
 6680SOL    HW223443   0.682   7.610   8.600 -0.8583 -2.0615  1.1331
 6681SOL     OW23444   0.240   2.233   9.729  0.0076 -0.0964  0.2905
 6681SOL    HW123445   0.146   2.231   9.749 -0.0684 -1.6101 -0.0917
 6681SOL    HW223446   0.267   2.141   9.734  1.6194  0.3863  1.0601
 6682SOL     OW23447   1.645   0.193   4.402  0.1653 -0.2538 -0.0856
 6682SOL    HW123448   1.659   0.111   4.449 -1.2237  0.0235  0.8717
 6682SOL    HW223449   1.704   0.256   4.445  1.4665 -0.7900 -1.0284
 6683SOL     OW23450   4.374   3.976   9.104 -0.0197  0.3552 -0.6863
 6683SOL    HW123451   4.362   3.892   9.059  2.1363  0.3876 -1.4647
 6683SOL    HW223452   4.353   3.957   9.196 -1.3653 -0.5338 -1.1431
 6684SOL     OW23453   4.646   1.084   6.353 -0.2738 -0.8957  0.2387
 6684SOL    HW123454   4.736   1.112   6.341 -0.6818  0.6255  0.4902
 6684SOL    HW223455   4.650   1.021   6.425  0.5329 -0.4883  0.5671
 6685SOL     OW23456   4.791   3.643   4.901  0.0111 -0.6881 -0.5280
 6685SOL    HW123457   4.886   3.653   4.897  0.0833 -1.0409  0.1769
 6685SOL    HW223458   4.766   3.681   4.985 -0.6214  0.4758 -1.2032
 6686SOL     OW23459   0.873   0.747   2.047  0.2401  0.3569 -0.2542
 6686SOL    HW123460   0.902   0.828   2.005  0.3428  0.5875  0.2556
 6686SOL    HW223461   0.954   0.700   2.067  0.1556 -0.2929 -1.3528
 6687SOL     OW23462   2.244   7.778   8.166  0.2118  0.0603 -0.2375
 6687SOL    HW123463   2.171   7.839   8.173  0.0035 -0.3241  1.6483
 6687SOL    HW223464   2.318   7.826   8.204  0.3357 -0.4183  0.1314
 6688SOL     OW23465   0.795   6.580   0.950 -0.1563  0.0181 -0.3061
 6688SOL    HW123466   0.839   6.580   1.035 -0.6157 -1.3260 -0.0388
 6688SOL    HW223467   0.753   6.665   0.944  1.3855  0.8434 -0.0055
 6689SOL     OW23468   2.494   6.199   1.257  0.2384  0.2910  0.1092
 6689SOL    HW123469   2.432   6.178   1.187  1.1760 -0.1959 -0.6043
 6689SOL    HW223470   2.572   6.232   1.211  0.0829  2.0791  1.0380
 6690SOL     OW23471   1.098   0.278   2.630 -0.6208 -0.0384  0.1811
 6690SOL    HW123472   1.156   0.209   2.662  0.4397  0.6226 -0.2667
 6690SOL    HW223473   1.127   0.293   2.540  0.7431  2.5942  0.9580
 6691SOL     OW23474   8.976   3.748   6.086  0.0915 -0.1723 -0.4037
 6691SOL    HW123475   8.941   3.837   6.095  0.0192 -0.2261 -0.1263
 6691SOL    HW223476   9.003   3.742   5.995 -1.1426 -0.3093 -0.7875
 6692SOL     OW23477   9.898  10.215   5.672 -0.1429  0.1407 -0.5736
 6692SOL    HW123478   9.885  10.274   5.598 -0.9805  0.9731  0.2159
 6692SOL    HW223479   9.822  10.157   5.671  1.4802 -2.1871 -2.3909
 6693SOL     OW23480   8.445   9.482  10.374  0.1013  0.3719  0.1580
 6693SOL    HW123481   8.372   9.429  10.405 -0.7247  1.2281 -0.2602
 6693SOL    HW223482   8.458   9.455  10.283 -0.0014  0.5322  0.0946
 6694SOL     OW23483   9.016   8.397   3.397 -0.0638 -0.2883 -0.2146
 6694SOL    HW123484   9.040   8.484   3.366  1.0646 -0.0563  1.1905
 6694SOL    HW223485   9.066   8.386   3.478 -0.9081 -1.8727  0.1295
 6695SOL     OW23486   6.972   9.415   1.934  0.1302  0.0740 -0.0613
 6695SOL    HW123487   6.958   9.342   1.994 -0.5335 -0.3393 -0.6946
 6695SOL    HW223488   6.885   9.440   1.905  0.2487  1.8647  0.9689
 6696SOL     OW23489   5.636   0.508   9.749  0.0773  0.3552 -0.4590
 6696SOL    HW123490   5.625   0.560   9.669  0.1519 -0.8233 -1.2704
 6696SOL    HW223491   5.559   0.450   9.750 -1.1194  1.8857  1.5546
 6697SOL     OW23492  10.819   4.120  10.461  0.2185 -0.1034 -0.0121
 6697SOL    HW123493  10.857   4.203  10.488 -2.0215  0.5047  1.4948
 6697SOL    HW223494  10.775   4.139  10.378 -2.4578  0.9837  1.5359
 6698SOL     OW23495   2.442   1.852   2.817 -0.2467  0.5761 -0.1234
 6698SOL    HW123496   2.437   1.921   2.750  2.6507  0.5582 -0.4836
 6698SOL    HW223497   2.453   1.900   2.899  0.9590  0.5715 -0.2737
 6699SOL     OW23498   0.039   5.077   2.444  0.4803  0.1468 -0.6335
 6699SOL    HW123499   0.051   4.990   2.406  0.3892 -0.2962  0.3309
 6699SOL    HW223500  -0.037   5.113   2.399  0.9599  0.0353 -1.5619
 6700SOL     OW23501   1.446   6.667   5.466 -0.4539  0.5093 -0.5401
 6700SOL    HW123502   1.467   6.603   5.534 -0.0824  0.3604 -0.7934
 6700SOL    HW223503   1.518   6.730   5.468 -0.9082  1.0147 -0.1749
 6701SOL     OW23504   6.194   9.920   5.434  0.4751  0.1361  0.0572
 6701SOL    HW123505   6.180   9.961   5.349 -0.3166  0.3301  0.2730
 6701SOL    HW223506   6.115   9.941   5.484  0.8036 -0.2242  0.7389
 6702SOL     OW23507   6.817   4.999   0.072 -0.3913  0.0074  0.0525
 6702SOL    HW123508   6.893   5.051   0.097  0.1942 -1.2860  1.1439
 6702SOL    HW223509   6.826   4.987  -0.023  0.6976  0.0158  0.1409
 6703SOL     OW23510   1.036   1.914   1.027 -0.1648  0.0644 -0.1530
 6703SOL    HW123511   1.045   1.824   1.059 -2.0008 -0.3535 -0.7096
 6703SOL    HW223512   1.045   1.968   1.106 -0.4262 -0.6891  0.4062
 6704SOL     OW23513   2.050   3.527  10.119 -0.0505  0.0576 -0.2840
 6704SOL    HW123514   2.128   3.583  10.124 -1.6777  2.4329  0.5615
 6704SOL    HW223515   1.983   3.584  10.083 -1.6629 -1.6137 -0.0577
 6705SOL     OW23516   7.019   7.689  10.214  0.2402  0.0450 -0.3019
 6705SOL    HW123517   6.935   7.703  10.171  0.5584  2.3730 -0.2827
 6705SOL    HW223518   7.074   7.649  10.147 -0.6079 -0.6541 -0.5950
 6706SOL     OW23519   1.725   8.613   2.937 -0.7089 -0.5358  0.2532
 6706SOL    HW123520   1.799   8.657   2.980 -1.2322  0.4898  0.1534
 6706SOL    HW223521   1.648   8.661   2.968 -1.2073 -0.6504 -0.7690
 6707SOL     OW23522   9.331   9.262   5.874  0.0456 -0.3634 -0.3088
 6707SOL    HW123523   9.350   9.270   5.967 -1.6407  0.0558  0.0299
 6707SOL    HW223524   9.281   9.180   5.867 -1.1824  0.3789 -0.5802
 6708SOL     OW23525  10.903   7.096   7.647  0.0420  0.5920 -0.7871
 6708SOL    HW123526  10.961   7.028   7.681 -2.2027 -0.0618  2.1420
 6708SOL    HW223527  10.959   7.150   7.592  3.1232 -0.6675  0.8753
 6709SOL     OW23528   1.235   0.896   8.998  0.0979  0.3315  0.2451
 6709SOL    HW123529   1.195   0.866   9.080 -0.8191 -1.0165 -0.6454
 6709SOL    HW223530   1.166   0.883   8.932  1.1150  0.5091 -0.8825
 6710SOL     OW23531   8.884   8.059   9.054  0.7929 -0.2143 -0.2802
 6710SOL    HW123532   8.920   8.053   8.966  0.6398 -0.1851 -0.3470
 6710SOL    HW223533   8.954   8.097   9.107  0.8741 -0.2008 -0.3977
 6711SOL     OW23534   3.226   9.016  10.279 -0.2417 -0.6502 -0.2157
 6711SOL    HW123535   3.173   8.978  10.349  0.2057  1.0721  1.1126
 6711SOL    HW223536   3.308   8.965  10.281  0.4673  0.4970  1.7349
 6712SOL     OW23537   1.432   4.159   0.627 -0.1390 -0.6261  0.9789
 6712SOL    HW123538   1.510   4.132   0.579 -0.9035  1.6003 -1.7438
 6712SOL    HW223539   1.367   4.091   0.606  0.1432 -0.7952  0.6373
 6713SOL     OW23540   3.931   4.558   9.042 -0.4573 -0.1243  1.1280
 6713SOL    HW123541   4.026   4.567   9.033 -0.5032 -0.9367 -0.5815
 6713SOL    HW223542   3.919   4.473   9.084 -0.4362 -0.0164  1.3553
 6714SOL     OW23543  10.200   8.904   2.131 -0.1220 -0.0808  0.1796
 6714SOL    HW123544  10.231   8.881   2.218 -0.6489 -1.1386  0.0924
 6714SOL    HW223545  10.243   8.988   2.112 -1.2002  0.9380  2.0594
 6715SOL     OW23546   8.020   3.781   5.447  0.7557  0.6149  0.6476
 6715SOL    HW123547   7.962   3.808   5.518  0.8701  2.0963  0.2082
 6715SOL    HW223548   8.032   3.687   5.461  0.4751  0.7943  2.3626
 6716SOL     OW23549   1.215   7.580   9.321  0.1576  0.1979 -0.5121
 6716SOL    HW123550   1.264   7.661   9.310 -1.1141  1.1519  0.5902
 6716SOL    HW223551   1.219   7.537   9.235  0.9696  1.3517 -1.0655
 6717SOL     OW23552   4.075   7.139   8.448 -0.3060  0.0873  0.1145
 6717SOL    HW123553   4.047   7.214   8.394 -1.3281 -0.9325 -0.8411
 6717SOL    HW223554   4.023   7.146   8.527 -1.1493 -0.1530 -0.4038
 6718SOL     OW23555   5.444   7.767   1.937 -0.0443  0.6005 -0.1956
 6718SOL    HW123556   5.417   7.727   1.855  0.0199 -1.3445  0.6876
 6718SOL    HW223557   5.370   7.753   1.996  1.1474 -0.9505  1.0010
 6719SOL     OW23558   3.073   9.196   8.323  0.5301  0.3377 -0.0105
 6719SOL    HW123559   3.100   9.168   8.411  0.2321  1.3836  0.4358
 6719SOL    HW223560   2.978   9.202   8.328  0.3567 -1.1593 -0.9112
 6720SOL     OW23561   1.800   6.241  10.442  0.1606  0.2033 -0.1043
 6720SOL    HW123562   1.715   6.245  10.486  0.1269  1.3791 -0.2478
 6720SOL    HW223563   1.859   6.207  10.508  0.1529  2.1300  0.9842
 6721SOL     OW23564   0.728   5.017   7.042 -0.2237 -0.0117 -0.0254
 6721SOL    HW123565   0.675   5.087   7.004 -1.7441 -1.0455  0.1336
 6721SOL    HW223566   0.716   5.025   7.136 -0.5820 -0.6144 -0.0147
 6722SOL     OW23567   5.419   0.967  10.869 -0.0104 -0.4001  0.4074
 6722SOL    HW123568   5.478   0.891  10.869  0.1632 -0.2737  0.9688
 6722SOL    HW223569   5.474   1.040  10.840 -0.0432 -0.3935  0.3626
 6723SOL     OW23570   1.079   6.158   4.548 -0.2951  0.1935  0.0748
 6723SOL    HW123571   1.018   6.103   4.598 -0.6495  0.1128 -0.4438
 6723SOL    HW223572   1.109   6.103   4.477 -1.1580  0.8601 -0.8394
 6724SOL     OW23573   4.921   3.076   2.546 -0.3537 -0.0863 -0.1680
 6724SOL    HW123574   4.902   3.062   2.639  0.1816 -1.0458 -0.1911
 6724SOL    HW223575   4.834   3.082   2.505 -0.6072  1.0354  0.4677
 6725SOL     OW23576   0.526   9.485   8.692  0.1088 -0.1428 -0.1904
 6725SOL    HW123577   0.436   9.476   8.661  0.0026 -0.4159  0.2003
 6725SOL    HW223578   0.549   9.399   8.726  0.6009 -0.1420 -0.5073
 6726SOL     OW23579   6.592   4.865   8.750  0.1281  0.4025  0.7723
 6726SOL    HW123580   6.557   4.903   8.831  0.3485 -0.1137  1.1140
 6726SOL    HW223581   6.582   4.771   8.761  0.1823  0.3260  0.2046
 6727SOL     OW23582   5.554   3.875   7.281 -0.3731  0.2961 -0.0887
 6727SOL    HW123583   5.588   3.936   7.216  0.5775  0.1158  0.2217
 6727SOL    HW223584   5.460   3.867   7.261 -0.0410  0.0097 -1.6115
 6728SOL     OW23585   8.662   8.213   8.437  0.0924  0.3392 -0.2378
 6728SOL    HW123586   8.590   8.156   8.409  0.7066 -1.1099  0.9924
 6728SOL    HW223587   8.714   8.227   8.358  0.0078 -0.9655 -0.5531
 6729SOL     OW23588   7.235   7.871   0.718  0.2481  0.4094 -0.2287
 6729SOL    HW123589   7.185   7.798   0.682  0.0164 -0.5547  1.8555
 6729SOL    HW223590   7.226   7.941   0.654 -0.9064 -0.8575 -1.5183
 6730SOL     OW23591  10.868  10.605  10.131  0.5807 -0.2170  0.2760
 6730SOL    HW123592  10.791  10.619  10.186 -0.2086  0.5369 -0.9816
 6730SOL    HW223593  10.905  10.692  10.118  0.6525 -0.3553 -0.5166
 6731SOL     OW23594   4.325   6.099   8.214 -0.5744  0.0115 -0.0436
 6731SOL    HW123595   4.267   6.114   8.289 -1.5810 -0.3389 -0.7271
 6731SOL    HW223596   4.380   6.177   8.210 -0.9280  0.3067  0.6951
 6732SOL     OW23597   2.841   4.512   3.148 -0.4869 -0.0485  0.0415
 6732SOL    HW123598   2.877   4.479   3.066 -1.7609  0.8596 -0.9228
 6732SOL    HW223599   2.747   4.521   3.131 -0.7387  0.3900  1.5206
 6733SOL     OW23600   1.143   1.460   4.564  0.5397 -0.0417  0.3553
 6733SOL    HW123601   1.167   1.432   4.653  0.3796  0.3394  0.5234
 6733SOL    HW223602   1.216   1.514   4.535 -0.4101  1.7823  1.1773
 6734SOL     OW23603   1.386   2.521   9.470  0.2280 -0.0419 -0.3838
 6734SOL    HW123604   1.449   2.474   9.415  3.6505  2.2625  1.1744
 6734SOL    HW223605   1.427   2.526   9.556 -2.0902  1.7040  0.7596
 6735SOL     OW23606   8.504   6.690   4.817  0.7162 -0.5046  0.1130
 6735SOL    HW123607   8.514   6.766   4.874 -0.9280 -0.5561  0.5297
 6735SOL    HW223608   8.511   6.725   4.728  1.4674 -0.1250  0.3136
 6736SOL     OW23609   4.254   6.425   0.515 -0.0813 -0.2134 -0.5562
 6736SOL    HW123610   4.219   6.488   0.578 -0.0912  0.7250 -1.4905
 6736SOL    HW223611   4.349   6.423   0.533 -0.2242 -0.8178  0.2321
 6737SOL     OW23612   6.849   8.966   0.919 -0.0177  0.3353 -0.1780
 6737SOL    HW123613   6.915   8.949   0.852  1.2800 -0.4223  1.2332
 6737SOL    HW223614   6.893   9.023   0.983 -1.5579  1.9256 -0.4471
 6738SOL     OW23615   9.172   4.508   9.703 -0.6927 -0.6780 -0.4039
 6738SOL    HW123616   9.216   4.458   9.634 -0.7666 -1.1860 -0.0908
 6738SOL    HW223617   9.186   4.600   9.679  1.6672 -0.7740  0.3381
 6739SOL     OW23618   9.620   8.445   7.654  0.5098 -0.1943  0.0665
 6739SOL    HW123619   9.646   8.537   7.648  0.5390 -0.2809 -1.9596
 6739SOL    HW223620   9.687   8.398   7.604 -0.9870 -0.9526 -1.3301
 6740SOL     OW23621   2.293   3.366   1.088 -0.2261  1.0585  0.0814
 6740SOL    HW123622   2.249   3.307   1.149 -1.5371  1.3380 -0.5462
 6740SOL    HW223623   2.381   3.377   1.123 -1.2176  2.0030  2.4869
 6741SOL     OW23624   1.912  10.168   9.557  0.0357  0.3312  0.2009
 6741SOL    HW123625   1.848  10.235   9.536  1.0148  0.5387 -2.5105
 6741SOL    HW223626   1.908  10.160   9.653 -1.7676  2.5199  0.3914
 6742SOL     OW23627  10.882   8.059   7.371 -0.6021  0.2546 -0.9801
 6742SOL    HW123628  10.807   8.024   7.418  0.1054 -0.0181 -0.0213
 6742SOL    HW223629  10.927   8.115   7.435 -0.3245  0.9049 -1.7230
 6743SOL     OW23630   3.582   8.371   4.686  0.0276 -0.0673 -0.6077
 6743SOL    HW123631   3.668   8.409   4.703 -0.4224  0.3985  0.8033
 6743SOL    HW223632   3.600   8.283   4.654  1.0930 -1.4038  3.1577
 6744SOL     OW23633   1.758   7.518   2.584  0.2174 -0.1625  0.3298
 6744SOL    HW123634   1.741   7.432   2.545 -0.5965 -0.6303  1.6328
 6744SOL    HW223635   1.827   7.502   2.648  1.4038  0.5530 -0.7331
 6745SOL     OW23636   1.336   6.823   2.956 -0.0818  0.0337 -0.4152
 6745SOL    HW123637   1.347   6.899   3.013  0.2618 -0.8213  0.6803
 6745SOL    HW223638   1.360   6.748   3.010  0.7878 -0.7651 -1.8446
 6746SOL     OW23639  10.634   5.406   4.044  0.3293 -0.0904  0.1909
 6746SOL    HW123640  10.583   5.424   3.965  0.4074 -0.5115  0.0392
 6746SOL    HW223641  10.646   5.491   4.086 -1.5749 -0.1365  0.9071
 6747SOL     OW23642   2.755   2.606   6.145  0.2810  0.1165  0.3195
 6747SOL    HW123643   2.728   2.652   6.066  0.9072  0.1636  0.1242
 6747SOL    HW223644   2.834   2.558   6.120  1.1031  0.9761  1.1838
 6748SOL     OW23645   6.604   8.744   2.931 -0.3897  0.2971  0.2134
 6748SOL    HW123646   6.669   8.787   2.986 -0.4487 -0.5942  0.9871
 6748SOL    HW223647   6.534   8.719   2.991 -0.6333 -0.3443 -0.3252
 6749SOL     OW23648   6.000   2.359   8.227  0.1808 -0.4071  0.0134
 6749SOL    HW123649   5.910   2.352   8.259  0.2699  0.3987  0.4677
 6749SOL    HW223650   6.007   2.289   8.162 -0.9844 -0.0542 -0.5320
 6750SOL     OW23651   6.902  10.792   3.494 -0.0768 -1.0607  0.4256
 6750SOL    HW123652   6.924  10.703   3.521  1.0206 -1.0156 -0.2651
 6750SOL    HW223653   6.894  10.787   3.399  0.0773 -0.4184  0.3724
 6751SOL     OW23654   4.290   2.092   7.131  0.3546  0.2097 -0.1228
 6751SOL    HW123655   4.308   2.010   7.085 -2.1306  0.5666 -1.9692
 6751SOL    HW223656   4.259   2.065   7.217  1.6010 -0.6613  0.0778
 6752SOL     OW23657   3.730   9.982   1.176 -0.1302 -0.8577 -0.6980
 6752SOL    HW123658   3.643   9.944   1.190 -0.3789 -0.4739 -1.1538
 6752SOL    HW223659   3.765   9.994   1.264 -1.2794  0.6452 -0.4000
 6753SOL     OW23660   2.369   9.842   3.245 -0.1772 -0.3239 -0.0395
 6753SOL    HW123661   2.303   9.841   3.314  1.4948 -1.6346  1.6515
 6753SOL    HW223662   2.386   9.750   3.225  1.2915 -0.0411 -0.2583
 6754SOL     OW23663   5.823   5.364   9.661  0.2701 -0.0779  0.1577
 6754SOL    HW123664   5.754   5.304   9.691  0.3637  1.1379  3.1345
 6754SOL    HW223665   5.776   5.445   9.641  0.5179 -0.1774 -0.9149
 6755SOL     OW23666   4.327   0.814   5.904  0.2283  1.1330  0.4739
 6755SOL    HW123667   4.286   0.886   5.856 -1.8067  0.2402  0.7965
 6755SOL    HW223668   4.287   0.815   5.990  0.1477 -0.3762  0.4932
 6756SOL     OW23669   8.981   2.423   6.976 -0.1664  1.0772  0.2953
 6756SOL    HW123670   8.984   2.436   7.071  0.7672 -0.6169  0.5285
 6756SOL    HW223671   9.012   2.334   6.963 -0.2679  1.2861 -1.6227
 6757SOL     OW23672   7.698   2.055   0.093  0.1758  0.2965 -0.3792
 6757SOL    HW123673   7.646   1.977   0.114  0.1047  0.2351 -0.7847
 6757SOL    HW223674   7.660   2.089   0.012  0.5898  0.4076 -0.5300
 6758SOL     OW23675   2.812   3.544   9.910  0.1458  0.9497  0.0800
 6758SOL    HW123676   2.813   3.448   9.904 -2.6999  0.7452  1.3202
 6758SOL    HW223677   2.760   3.572   9.834 -2.8755  1.0802  2.0333
 6759SOL     OW23678   4.866   4.166   7.615 -0.0946 -0.3588  0.1403
 6759SOL    HW123679   4.946   4.207   7.649  1.8870 -3.3333 -0.5665
 6759SOL    HW223680   4.897   4.099   7.555 -3.0693 -2.4567  0.7250
 6760SOL     OW23681   5.816  10.078   3.408 -0.2104  0.4898 -0.2145
 6760SOL    HW123682   5.740  10.117   3.450  0.0025  1.1078 -0.3927
 6760SOL    HW223683   5.844  10.143   3.344  0.5815  0.3448 -0.0259
 6761SOL     OW23684   4.184   8.274   9.100  0.1870 -0.6393  0.0525
 6761SOL    HW123685   4.108   8.292   9.156 -0.5514 -1.4659 -0.6481
 6761SOL    HW223686   4.175   8.181   9.077  2.6693 -1.4149  1.8076
 6762SOL     OW23687   8.429   9.122  10.335 -0.3271  0.1117 -0.1226
 6762SOL    HW123688   8.518   9.106  10.368 -0.1865  0.4055 -0.3628
 6762SOL    HW223689   8.440   9.139  10.242 -0.5751  0.7096 -0.0453
 6763SOL     OW23690  10.282   7.172   1.782 -0.2858  0.4251  0.2419
 6763SOL    HW123691  10.259   7.080   1.793 -1.0518  0.2642 -2.1440
 6763SOL    HW223692  10.200   7.219   1.801 -0.6751  0.3769 -1.1975
 6764SOL     OW23693   7.151   2.905   6.698  0.5837 -1.4951  0.1310
 6764SOL    HW123694   7.105   2.838   6.749 -0.2836 -1.7092 -0.8946
 6764SOL    HW223695   7.171   2.863   6.615 -2.3817  0.2195 -1.6262
 6765SOL     OW23696   1.254   0.046   9.145 -0.1192  0.7376  0.3617
 6765SOL    HW123697   1.316   0.087   9.205 -0.5429  1.2839  0.4373
 6765SOL    HW223698   1.268   0.090   9.061 -0.9629  1.4459  0.5827
 6766SOL     OW23699   2.669   0.148   1.835 -0.0718 -0.6736  0.2960
 6766SOL    HW123700   2.622   0.174   1.914 -0.1205 -0.2387  0.1255
 6766SOL    HW223701   2.638   0.060   1.817 -0.9198 -0.3544  0.1171
 6767SOL     OW23702   3.213   9.917   2.082 -0.4612 -0.0919 -1.4300
 6767SOL    HW123703   3.258   9.833   2.090 -0.5829 -0.2074 -1.9949
 6767SOL    HW223704   3.191   9.925   1.990 -0.0182  0.7816 -1.4779
 6768SOL     OW23705   9.568   6.008   7.206  0.4993 -0.0419 -0.1570
 6768SOL    HW123706   9.650   5.967   7.231 -0.4256 -1.8232  0.1013
 6768SOL    HW223707   9.525   6.028   7.290 -0.2885 -1.1818 -0.2664
 6769SOL     OW23708   7.554   4.382   7.938  0.6412  0.1004  0.2836
 6769SOL    HW123709   7.538   4.310   7.877 -2.7078  1.0342 -0.1084
 6769SOL    HW223710   7.535   4.344   8.024 -1.4998  0.5070  0.0453
 6770SOL     OW23711   5.429   9.047   9.527 -0.7345 -0.0316 -0.0830
 6770SOL    HW123712   5.449   8.987   9.455 -0.4406  1.2361 -1.1040
 6770SOL    HW223713   5.337   9.032   9.546 -0.8841 -0.2012 -0.9149
 6771SOL     OW23714   1.697   9.219   9.737 -0.7068  0.4818  0.4929
 6771SOL    HW123715   1.718   9.126   9.747  0.8148  0.8742  1.3169
 6771SOL    HW223716   1.607   9.220   9.703 -0.2527 -1.2983 -0.9164
 6772SOL     OW23717   1.521   6.611  10.082 -0.1428 -0.1595  0.1573
 6772SOL    HW123718   1.472   6.689  10.061  0.3755 -0.0035 -0.4976
 6772SOL    HW223719   1.504   6.551  10.010 -1.6089 -1.1853  1.2905
 6773SOL     OW23720   8.920   0.747   3.472 -0.4871 -0.4480  0.1311
 6773SOL    HW123721   8.835   0.757   3.429 -0.3602  0.3953  0.0632
 6773SOL    HW223722   8.966   0.829   3.455  0.0377 -0.5797  0.8497
 6774SOL     OW23723   0.395   9.704   2.429  0.7018  0.4182 -0.7458
 6774SOL    HW123724   0.389   9.799   2.420  0.2658  0.7625  2.1611
 6774SOL    HW223725   0.373   9.687   2.521  3.3497 -2.2489 -0.4521
 6775SOL     OW23726   7.158   8.710   7.246  0.0911 -0.2098 -0.1044
 6775SOL    HW123727   7.184   8.731   7.336  0.8253  0.4937 -0.4571
 6775SOL    HW223728   7.153   8.615   7.244  3.3598 -0.5100 -0.1204
 6776SOL     OW23729   6.108   0.164   5.797  0.3032  0.0527  0.1805
 6776SOL    HW123730   6.188   0.166   5.745  0.0077 -2.6208 -0.5462
 6776SOL    HW223731   6.037   0.161   5.733 -0.4472  2.3397  0.8155
 6777SOL     OW23732   1.481  10.090   4.182 -0.5420 -0.1397  0.0548
 6777SOL    HW123733   1.536  10.164   4.209  0.2251 -0.5738 -0.2601
 6777SOL    HW223734   1.434  10.064   4.261 -0.3396  0.2873  0.3174
 6778SOL     OW23735  10.222  10.543   0.025 -0.0432  0.6652 -0.1910
 6778SOL    HW123736  10.130  10.547   0.052  0.6453  0.5925  2.4427
 6778SOL    HW223737  10.269  10.594   0.091  1.8997 -0.0067 -0.9760
 6779SOL     OW23738   1.092  10.729   6.593  0.4773 -0.2347 -0.1957
 6779SOL    HW123739   1.079  10.653   6.536  0.3646 -0.2934 -0.0917
 6779SOL    HW223740   1.105  10.803   6.532 -0.8128 -0.0855 -0.3203
 6780SOL     OW23741   2.189   8.462   1.612 -0.1108 -0.3257 -0.2212
 6780SOL    HW123742   2.249   8.528   1.577 -1.1566  1.8643  1.8397
 6780SOL    HW223743   2.106   8.478   1.565 -0.1406 -0.7811 -0.3308
 6781SOL     OW23744   4.575   3.468   3.304 -0.4694 -0.2344 -0.8597
 6781SOL    HW123745   4.548   3.496   3.216  0.8784  2.0016 -0.6297
 6781SOL    HW223746   4.566   3.546   3.358  1.1914 -0.8679  0.4148
 6782SOL     OW23747   1.654   9.542   8.259 -0.5129 -0.1083  0.4004
 6782SOL    HW123748   1.561   9.527   8.271 -0.4715 -0.8544 -0.1327
 6782SOL    HW223749   1.693   9.524   8.344 -0.6840 -1.3081  0.2405
 6783SOL     OW23750   8.775   6.302   8.763  0.0165 -0.3332 -0.3251
 6783SOL    HW123751   8.681   6.310   8.781 -0.0033 -2.4209  0.7691
 6783SOL    HW223752   8.817   6.359   8.827 -0.4262 -1.3696  0.9239
 6784SOL     OW23753   8.289   3.171  10.430 -0.0037  0.6825  0.0292
 6784SOL    HW123754   8.372   3.186  10.476  0.1457 -0.8094  0.3130
 6784SOL    HW223755   8.310   3.180  10.337  0.5187  0.1847  0.0942
 6785SOL     OW23756   4.538   8.016   5.086  0.2678 -0.2783  0.4090
 6785SOL    HW123757   4.525   8.019   5.180  0.9569  1.1176  0.4743
 6785SOL    HW223758   4.601   8.085   5.067  1.3472 -1.5453 -0.8888
 6786SOL     OW23759   9.909  10.844   6.693  0.2320  0.0450  0.0752
 6786SOL    HW123760   9.983  10.900   6.672 -0.1223  0.3207 -0.4519
 6786SOL    HW223761   9.925  10.763   6.644 -0.0761  0.3028 -0.4615
 6787SOL     OW23762   0.255   0.754   0.692 -0.5478 -0.5032 -0.1807
 6787SOL    HW123763   0.241   0.778   0.784  0.1579 -1.4820  0.1995
 6787SOL    HW223764   0.296   0.668   0.696  0.2166 -0.2176 -1.4052
 6788SOL     OW23765   5.358   7.252   2.260  0.2428 -0.5566  0.3743
 6788SOL    HW123766   5.281   7.254   2.203  1.3115 -1.2519 -1.1690
 6788SOL    HW223767   5.427   7.213   2.206  1.9826  1.0164  1.3276
 6789SOL     OW23768   4.327  10.207   9.613  0.2953 -0.2926 -0.3303
 6789SOL    HW123769   4.252  10.187   9.669  1.3855  0.2513  1.3843
 6789SOL    HW223770   4.361  10.121   9.588 -0.3888 -0.5427 -0.4323
 6790SOL     OW23771   9.653   8.004   7.711  0.1642  0.1944 -0.1392
 6790SOL    HW123772   9.608   7.922   7.730 -1.5452  0.9727 -0.6091
 6790SOL    HW223773   9.643   8.016   7.617  1.0415  0.5945 -0.1930
 6791SOL     OW23774   1.441   3.809  10.902  0.5230  0.3757 -0.2720
 6791SOL    HW123775   1.474   3.744  10.964 -2.5764 -1.4610 -0.2948
 6791SOL    HW223776   1.505   3.810  10.831  3.0522  0.9311  1.8849
 6792SOL     OW23777   3.665   3.977   8.560  0.3044  0.1507  0.1558
 6792SOL    HW123778   3.702   3.948   8.643  1.1017 -2.4768 -0.9897
 6792SOL    HW223779   3.652   4.071   8.570  0.3904 -0.0809  3.2025
 6793SOL     OW23780   2.120   5.087  10.685  0.0513  0.4563  0.1107
 6793SOL    HW123781   2.087   4.999  10.705 -0.0797  0.4404 -0.1619
 6793SOL    HW223782   2.215   5.078  10.688  0.0752 -0.0493 -1.3217
 6794SOL     OW23783   4.893   7.988   5.147 -1.0629 -0.3143  0.4961
 6794SOL    HW123784   4.877   7.991   5.053 -1.7215  0.6469  0.6211
 6794SOL    HW223785   4.952   8.062   5.164  0.4347 -1.4970  0.6084
 6795SOL     OW23786   3.820   5.324   2.043 -0.6927 -0.0181  0.5875
 6795SOL    HW123787   3.901   5.272   2.051 -0.1104  1.0648  2.1520
 6795SOL    HW223788   3.850   5.413   2.026 -1.5635  0.3790  1.0679
 6796SOL     OW23789   5.061   9.299   4.893  0.0431  0.1981  0.2055
 6796SOL    HW123790   5.051   9.333   4.804  2.5639  0.5452 -0.0209
 6796SOL    HW223791   4.990   9.236   4.903  0.3815 -0.7519 -2.5094
 6797SOL     OW23792   9.393  10.886   0.286  0.6385  0.7761  0.5844
 6797SOL    HW123793   9.320  10.948   0.293  0.6967  0.8282  0.7292
 6797SOL    HW223794   9.471  10.939   0.302  0.7850  0.9081 -0.4810
 6798SOL     OW23795  10.354   3.999   4.862 -0.2496 -0.4677  0.0641
 6798SOL    HW123796  10.435   4.050   4.849  0.4984 -1.8435 -0.8687
 6798SOL    HW223797  10.290   4.043   4.806  0.4250 -0.5801 -0.8371
 6799SOL     OW23798   3.521   5.840   8.439 -0.0383 -0.1618  0.2932
 6799SOL    HW123799   3.601   5.882   8.470 -0.4123 -0.1712  1.2853
 6799SOL    HW223800   3.481   5.905   8.380  0.8473 -0.2840 -0.4567
 6800SOL     OW23801   5.893   7.052   5.690  0.2493  0.7390  0.1696
 6800SOL    HW123802   5.972   7.027   5.643 -1.2552 -0.6397 -1.8080
 6800SOL    HW223803   5.891   6.993   5.766  1.6307  1.5257  0.8471
 6801SOL     OW23804  10.602   7.611   5.828  0.0261  0.2147 -0.2145
 6801SOL    HW123805  10.540   7.588   5.897 -0.2439 -1.3867 -0.9447
 6801SOL    HW223806  10.686   7.620   5.873 -0.1621 -0.7253  0.3481
 6802SOL     OW23807   1.536   5.323   3.380  0.2718  0.0548  0.5043
 6802SOL    HW123808   1.449   5.287   3.397 -0.9696  1.7927 -1.6014
 6802SOL    HW223809   1.587   5.250   3.345 -1.0288 -0.5261 -0.2287
 6803SOL     OW23810   9.979   6.594   5.857  0.1464 -0.2467  0.2280
 6803SOL    HW123811   9.984   6.661   5.789 -0.8774 -0.7860 -0.4117
 6803SOL    HW223812   9.897   6.611   5.902  0.7255 -0.0123  1.2236
 6804SOL     OW23813   6.450   6.340   1.866 -0.1088  0.2618  0.1427
 6804SOL    HW123814   6.523   6.371   1.921 -0.7948 -0.7710  1.7271
 6804SOL    HW223815   6.487   6.335   1.778  1.6105  0.2178  0.8109
 6805SOL     OW23816   0.519   6.674   7.352  0.4521  0.4689  0.3388
 6805SOL    HW123817   0.445   6.663   7.412 -0.6177  0.4831 -0.9403
 6805SOL    HW223818   0.488   6.739   7.288  0.4320 -1.6395 -1.9247
 6806SOL     OW23819   8.771   1.059   0.238  0.8546  0.0956  0.5182
 6806SOL    HW123820   8.770   1.148   0.273  0.4058  0.4814 -0.4333
 6806SOL    HW223821   8.847   1.057   0.179  1.2093 -0.3366  0.9821
 6807SOL     OW23822   7.345   5.628   9.336 -0.1599 -0.0077  0.0248
 6807SOL    HW123823   7.308   5.704   9.292  0.6832  0.6350  0.3936
 6807SOL    HW223824   7.366   5.567   9.265  0.3183  0.6234 -0.3874
 6808SOL     OW23825   2.408   9.031   4.395  0.3532  0.0729  0.7067
 6808SOL    HW123826   2.339   9.032   4.461  1.5341 -0.3999  2.0090
 6808SOL    HW223827   2.480   9.079   4.436  1.4890 -1.1426  0.2073
 6809SOL     OW23828   8.712   6.371   2.558 -0.1765  0.1456  0.5048
 6809SOL    HW123829   8.756   6.437   2.611  0.7860 -0.6591  0.7283
 6809SOL    HW223830   8.621   6.402   2.552  0.4699  2.0686 -0.3269
 6810SOL     OW23831   3.432   9.880  10.145  0.6733 -0.5331  0.1891
 6810SOL    HW123832   3.518   9.906  10.179  0.2195  1.0500  0.2282
 6810SOL    HW223833   3.450   9.848  10.056  1.3753 -0.7786  0.4155
 6811SOL     OW23834   3.948   1.486   0.891  0.1030  0.2288  0.3874
 6811SOL    HW123835   4.014   1.542   0.850 -0.4730  0.1196 -0.7255
 6811SOL    HW223836   3.994   1.442   0.962  0.8497  1.2605  0.5635
 6812SOL     OW23837  10.160   3.157   8.422  0.1009 -0.1912 -0.4334
 6812SOL    HW123838  10.233   3.203   8.464  0.5288 -1.6206  0.4509
 6812SOL    HW223839  10.191   3.067   8.413 -0.8501 -0.4033 -1.7978
 6813SOL     OW23840   8.380   2.018  10.889 -0.2785 -0.0458 -0.1185
 6813SOL    HW123841   8.344   2.107  10.888  0.9768  0.4845 -0.5828
 6813SOL    HW223842   8.331   1.973  10.958 -1.4379  0.7829 -0.3779
 6814SOL     OW23843   9.358   9.455   0.443 -0.3920  0.0194 -0.8747
 6814SOL    HW123844   9.343   9.393   0.372 -0.9939  0.3442 -1.0354
 6814SOL    HW223845   9.391   9.534   0.398 -1.4418  0.4695 -0.8780
 6815SOL     OW23846   8.716   6.224   6.289  0.0299  0.7873  0.5239
 6815SOL    HW123847   8.770   6.208   6.212  1.2081  0.5441  1.3727
 6815SOL    HW223848   8.646   6.282   6.258  1.3235  1.9127 -0.4062
 6816SOL     OW23849   4.060   2.234  10.755 -0.0247 -0.2736  0.1203
 6816SOL    HW123850   4.035   2.258  10.666  1.3684  0.9509  0.0278
 6816SOL    HW223851   4.148   2.197  10.746  0.1795 -0.0146  1.0120
 6817SOL     OW23852   4.679   4.493   5.701  0.4531  0.2034  0.2366
 6817SOL    HW123853   4.720   4.469   5.618 -0.9554 -0.4465 -0.2970
 6817SOL    HW223854   4.603   4.435   5.709 -2.8805  3.9666 -0.8959
 6818SOL     OW23855   6.533  10.634  10.571 -0.1276 -0.3944 -0.2913
 6818SOL    HW123856   6.525  10.577  10.647  1.2988 -0.3095 -0.0547
 6818SOL    HW223857   6.443  10.647  10.541 -0.8402  0.4055  1.9796
 6819SOL     OW23858   2.462   7.524   9.550  0.1936 -0.3582  0.3349
 6819SOL    HW123859   2.471   7.608   9.594  1.6934 -0.5209  0.3929
 6819SOL    HW223860   2.378   7.530   9.503 -0.8471  0.2641  2.1910
 6820SOL     OW23861   0.785   0.159   0.245 -0.4478  0.1842  0.5079
 6820SOL    HW123862   0.772   0.067   0.225  0.6860  0.3434 -1.1940
 6820SOL    HW223863   0.855   0.187   0.186 -1.1284  2.2684  0.5928
 6821SOL     OW23864   5.652   9.451   6.371  0.1959  0.3258 -0.6344
 6821SOL    HW123865   5.735   9.456   6.325 -1.1604 -0.8325 -3.4554
 6821SOL    HW223866   5.636   9.357   6.382 -0.6403  0.5293  0.0570
 6822SOL     OW23867   5.082   6.108  10.220 -0.3636 -0.2126 -0.6929
 6822SOL    HW123868   4.986   6.110  10.225 -0.3530 -0.2702 -0.4566
 6822SOL    HW223869   5.107   6.039  10.281 -0.0936  0.7710  0.3246
 6823SOL     OW23870   9.421   7.882   0.774  0.6193  0.4295  0.1364
 6823SOL    HW123871   9.366   7.826   0.828  1.9542 -1.3768 -0.2687
 6823SOL    HW223872   9.497   7.901   0.829  0.0274  2.1779  0.3908
 6824SOL     OW23873   7.237   9.949   2.924 -0.3290 -0.2304  0.3442
 6824SOL    HW123874   7.195  10.000   2.994  0.1772 -1.5274  1.6304
 6824SOL    HW223875   7.219   9.999   2.845  0.2944  2.0790  1.5604
 6825SOL     OW23876   7.891   3.781   5.709  0.4098 -0.0495  0.3552
 6825SOL    HW123877   7.802   3.788   5.742  1.2116  0.5833  2.5222
 6825SOL    HW223878   7.903   3.688   5.692 -1.2117  0.0395 -1.7790
 6826SOL     OW23879   7.477   7.749   2.781  0.0444 -0.0976 -0.9399
 6826SOL    HW123880   7.513   7.670   2.742 -0.9077 -0.6233 -0.7859
 6826SOL    HW223881   7.554   7.801   2.805  0.6795 -0.9407 -1.0942
 6827SOL     OW23882  10.135   4.330   1.655  0.0208  0.0290  0.2379
 6827SOL    HW123883  10.102   4.250   1.615  1.8519  0.1034 -1.5597
 6827SOL    HW223884  10.102   4.327   1.745 -2.9701 -0.9039 -0.7947
 6828SOL     OW23885   2.785   4.934   2.058  0.7284  0.2399  0.4211
 6828SOL    HW123886   2.712   4.991   2.082 -0.5855 -0.5732 -1.3945
 6828SOL    HW223887   2.811   4.965   1.971 -0.5749 -2.3346 -0.9912
 6829SOL     OW23888   9.111   6.637   3.895 -0.1623 -0.4781 -0.3794
 6829SOL    HW123889   9.114   6.546   3.925  2.5737 -0.3292  0.0917
 6829SOL    HW223890   9.187   6.646   3.837 -1.0766  1.2099 -1.3958
 6830SOL     OW23891   5.326   3.256   4.007  0.0494  0.1229 -0.3347
 6830SOL    HW123892   5.403   3.275   4.061 -0.3892 -0.0397  0.3609
 6830SOL    HW223893   5.362   3.222   3.924  0.7817  2.1130 -0.8735
 6831SOL     OW23894   4.936   5.495   9.126 -0.6058 -0.3262  0.1199
 6831SOL    HW123895   4.902   5.584   9.124  0.1413  0.0133  1.2683
 6831SOL    HW223896   4.978   5.487   9.212 -0.1189 -1.5797 -0.2036
 6832SOL     OW23897   2.633   2.373   0.362  0.4263 -0.1288  0.0951
 6832SOL    HW123898   2.689   2.431   0.311  0.4643 -1.2119 -1.1383
 6832SOL    HW223899   2.631   2.291   0.312  0.5393 -1.2725  1.8787
 6833SOL     OW23900   2.312   5.016   1.713  0.7511 -0.2978  0.5619
 6833SOL    HW123901   2.398   5.048   1.684  0.8078 -2.3630 -1.9712
 6833SOL    HW223902   2.302   4.931   1.669 -3.1294  0.4037 -0.3007
 6834SOL     OW23903   3.251   1.712   4.081  0.4706 -0.2255  0.0732
 6834SOL    HW123904   3.214   1.668   4.157  3.1569 -1.0910  1.0144
 6834SOL    HW223905   3.216   1.801   4.085  0.8894 -0.0906  2.6449
 6835SOL     OW23906   9.469   5.432   1.034  0.0283  0.0571 -0.5045
 6835SOL    HW123907   9.453   5.526   1.028  1.0236  0.3144  0.5608
 6835SOL    HW223908   9.508   5.419   1.120  2.9627 -0.8542 -1.8432
 6836SOL     OW23909   1.594   0.057   9.914  0.6244  0.0611  0.0149
 6836SOL    HW123910   1.533   0.130   9.924 -0.4775 -0.9587  1.2332
 6836SOL    HW223911   1.664   0.075   9.977  0.9676  0.6190 -0.5125
 6837SOL     OW23912   5.604   6.445   9.307 -0.1158 -0.1545  0.6191
 6837SOL    HW123913   5.674   6.391   9.272 -2.2511 -2.1005 -0.9967
 6837SOL    HW223914   5.611   6.435   9.402  2.7685  1.1744  0.6592
 6838SOL     OW23915   7.086   4.903   4.379  0.3228 -0.1216 -0.0678
 6838SOL    HW123916   7.079   4.857   4.296  0.4888 -0.1443 -0.0687
 6838SOL    HW223917   6.996   4.930   4.399  0.3040  0.0050 -0.3220
 6839SOL     OW23918   2.860   8.935   4.924  0.1861  0.6207  0.0571
 6839SOL    HW123919   2.905   8.952   5.006 -0.3246 -0.6537  0.6371
 6839SOL    HW223920   2.780   8.988   4.929  0.8859  1.7613 -0.3417
 6840SOL     OW23921   1.252   9.834   1.442 -0.3915  0.0282 -0.0707
 6840SOL    HW123922   1.188   9.897   1.476  0.1285  0.3595  0.3099
 6840SOL    HW223923   1.306   9.812   1.518  1.4298  1.5238 -0.8483
 6841SOL     OW23924   3.540   6.378   2.718  0.4677 -0.0703 -0.0879
 6841SOL    HW123925   3.491   6.458   2.736  0.8772  0.2448 -0.3667
 6841SOL    HW223926   3.544   6.333   2.802 -0.2713 -0.0846 -0.0535
 6842SOL     OW23927   1.804   3.529   3.907  0.5416 -0.4096 -0.1496
 6842SOL    HW123928   1.752   3.493   3.978  0.9406 -0.4127  0.1414
 6842SOL    HW223929   1.837   3.612   3.940 -4.5153  3.0238 -2.4731
 6843SOL     OW23930   7.240   6.273   9.831 -0.5106  0.0070  0.7851
 6843SOL    HW123931   7.210   6.344   9.774 -1.6457 -0.9392  0.1795
 6843SOL    HW223932   7.249   6.314   9.917 -0.3460  1.0717  0.2757
 6844SOL     OW23933   6.613   4.682   2.131  0.3371 -0.4286 -0.4881
 6844SOL    HW123934   6.663   4.764   2.128 -0.7133  0.2782  0.3634
 6844SOL    HW223935   6.639   4.641   2.214 -1.2870  0.5149  0.5473
 6845SOL     OW23936   3.358   4.780   6.286  0.2194  0.4262  0.4270
 6845SOL    HW123937   3.427   4.837   6.254 -0.5397  1.2298  0.1672
 6845SOL    HW223938   3.353   4.709   6.222 -2.3133  2.7859 -2.2733
 6846SOL     OW23939   1.610   1.154   8.973  0.4413  0.1736  0.0142
 6846SOL    HW123940   1.555   1.185   8.901  0.1349 -0.2271  0.0709
 6846SOL    HW223941   1.550   1.110   9.033  0.5192  1.4371  1.0771
 6847SOL     OW23942   9.679   3.034   7.030 -0.0287 -0.1140 -0.4984
 6847SOL    HW123943   9.595   3.011   7.071  0.0256 -1.7678 -1.2079
 6847SOL    HW223944   9.660   3.111   6.976 -1.7733 -1.8797 -2.6008
 6848SOL     OW23945   8.612   7.170   4.058  0.1264  0.1034 -0.2755
 6848SOL    HW123946   8.619   7.239   4.124 -0.5606  0.7916 -0.9045
 6848SOL    HW223947   8.696   7.174   4.011  0.1807  0.3465 -0.1605
 6849SOL     OW23948   5.152   0.366   9.318 -0.4362  0.3589  0.8856
 6849SOL    HW123949   5.154   0.315   9.399  0.2439 -0.0273  0.6367
 6849SOL    HW223950   5.233   0.418   9.320  0.2537 -0.6238 -0.1451
 6850SOL     OW23951   8.009   0.291   8.494 -0.4127  0.1797  0.1670
 6850SOL    HW123952   7.916   0.308   8.479 -0.2871  0.6398 -0.1087
 6850SOL    HW223953   8.042   0.371   8.534 -0.0412  0.1855 -0.1428
 6851SOL     OW23954   4.181   7.106   2.279  0.1609 -0.1144  0.2384
 6851SOL    HW123955   4.277   7.098   2.274  0.0193 -1.4544 -0.9111
 6851SOL    HW223956   4.153   7.025   2.323 -0.2746  1.7867  3.8413
 6852SOL     OW23957   8.994   9.991   2.012  0.3259 -0.1925 -0.0955
 6852SOL    HW123958   9.056   9.926   1.980 -0.2997 -1.2705  0.8111
 6852SOL    HW223959   8.998   9.983   2.107 -0.6255  0.2534 -0.0051
 6853SOL     OW23960   3.266   8.512   7.269  0.4157  0.3619 -0.5209
 6853SOL    HW123961   3.246   8.590   7.320  0.5614  0.3156 -0.3924
 6853SOL    HW223962   3.220   8.441   7.314  0.4283  0.3441 -0.5362
 6854SOL     OW23963   9.778   9.998   6.263  0.3998  0.1269 -0.0010
 6854SOL    HW123964   9.762  10.054   6.188  2.4543  0.5554 -0.1772
 6854SOL    HW223965   9.767   9.909   6.229 -1.9403  0.3557  0.0491
 6855SOL     OW23966   4.047   1.210   2.216 -0.1318  0.5870 -0.3442
 6855SOL    HW123967   3.999   1.204   2.133  1.0634  0.6596 -1.0709
 6855SOL    HW223968   4.040   1.123   2.254 -1.9512  0.9489  0.2304
 6856SOL     OW23969   1.438   6.117   7.908  0.1968 -0.1449 -0.2124
 6856SOL    HW123970   1.451   6.069   7.989 -0.4633  1.3623  0.8499
 6856SOL    HW223971   1.379   6.062   7.856 -0.1966 -0.6728  0.7694
 6857SOL     OW23972   1.976  10.503   5.549  0.2844  0.0743 -0.0125
 6857SOL    HW123973   2.022  10.507   5.465  0.1355  0.3337 -0.0823
 6857SOL    HW223974   1.960  10.409   5.563  2.4892 -0.2153  0.9328
 6858SOL     OW23975   1.442   4.470   1.635  0.0164 -0.1314  0.3192
 6858SOL    HW123976   1.436   4.375   1.647 -0.6472 -0.0697  0.5220
 6858SOL    HW223977   1.354   4.496   1.608 -0.6681  0.8256  3.1325
 6859SOL     OW23978  10.660   1.375   5.641  0.4605 -0.0638  0.2213
 6859SOL    HW123979  10.615   1.302   5.598  1.7856 -0.8701  0.1405
 6859SOL    HW223980  10.710   1.334   5.711  0.5395  0.8896  0.7318
 6860SOL     OW23981   1.441   1.569   0.813  0.4501  0.1805  0.0933
 6860SOL    HW123982   1.382   1.521   0.755  0.6804 -0.0228  0.0260
 6860SOL    HW223983   1.491   1.500   0.858 -0.6424  0.2723  1.5090
 6861SOL     OW23984   3.813   6.911   4.571  1.1758 -0.0038 -0.3535
 6861SOL    HW123985   3.761   6.866   4.639 -0.7776  2.0734 -0.3395
 6861SOL    HW223986   3.904   6.891   4.593  0.5944  0.0302  2.5316
 6862SOL     OW23987   9.816   3.329   5.609  0.0517  0.3056 -0.1421
 6862SOL    HW123988   9.879   3.295   5.672 -0.4492  0.7710  0.6265
 6862SOL    HW223989   9.752   3.258   5.599 -0.5258  0.6670  0.8120
 6863SOL     OW23990   6.927   2.137  10.373 -0.3695 -0.0742 -0.3970
 6863SOL    HW123991   6.903   2.112  10.463 -0.9689  1.3300 -0.1473
 6863SOL    HW223992   6.982   2.065  10.343 -0.8316 -0.9700  0.8060
 6864SOL     OW23993   8.954   0.610   6.139 -0.1846 -0.1930  0.1607
 6864SOL    HW123994   9.022   0.638   6.077  0.0397  0.4577  0.6872
 6864SOL    HW223995   8.990   0.630   6.225 -1.8543  2.2521  0.4256
 6865SOL     OW23996   5.529   1.998   4.380 -0.4109 -0.5932 -0.8346
 6865SOL    HW123997   5.500   2.048   4.304 -0.4067  0.4044 -0.2019
 6865SOL    HW223998   5.624   2.006   4.380 -0.4055 -0.6536 -0.7684
 6866SOL     OW23999   1.980   0.923   9.981 -0.3193 -0.1862 -0.1417
 6866SOL    HW124000   1.925   0.890   9.910  0.8234 -3.9985  0.5310
 6866SOL    HW224001   2.068   0.929   9.943  0.0600 -0.9979  0.5774
 6867SOL     OW24002   6.882   0.640   1.713 -0.3082  0.0857  0.5003
 6867SOL    HW124003   6.845   0.681   1.635 -0.1541 -0.4391  0.1481
 6867SOL    HW224004   6.977   0.646   1.700 -0.2822 -0.9107  0.1601
 6868SOL     OW24005  10.209   6.705   0.581  0.2432  0.1547  0.1087
 6868SOL    HW124006  10.225   6.733   0.491  3.5213 -1.8265 -0.1267
 6868SOL    HW224007  10.149   6.631   0.573 -0.5140  0.8108 -0.3089
 6869SOL     OW24008   5.992   1.526   3.398 -0.1860  0.7927  0.2466
 6869SOL    HW124009   5.970   1.572   3.479 -1.7314 -0.5156  0.6126
 6869SOL    HW224010   5.959   1.584   3.328 -2.4342  0.1630  0.7070
 6870SOL     OW24011   2.430   9.072   0.796 -0.1277  0.0532  0.2471
 6870SOL    HW124012   2.510   9.110   0.831  1.2530 -0.6830 -1.9237
 6870SOL    HW224013   2.420   8.989   0.842  1.1398 -0.4804 -0.4051
 6871SOL     OW24014   9.747  10.577   1.486  0.0994  0.4388  0.0988
 6871SOL    HW124015   9.782  10.664   1.468 -0.2606  0.5499 -0.0873
 6871SOL    HW224016   9.786  10.552   1.569  3.0177 -0.7154 -1.4667
 6872SOL     OW24017   3.215   6.768   4.605 -0.0257 -0.2891 -0.4682
 6872SOL    HW124018   3.243   6.859   4.594  0.8982 -0.4977  0.1049
 6872SOL    HW224019   3.122   6.774   4.628  0.0493  0.5099 -0.3623
 6873SOL     OW24020   3.145   5.517   4.830  0.5004  0.5901 -0.3800
 6873SOL    HW124021   3.216   5.459   4.858 -0.6829 -0.5639  0.3494
 6873SOL    HW224022   3.187   5.602   4.817  1.5483  0.7072  2.9042
 6874SOL     OW24023   6.061   0.624   9.097 -0.1278  0.2613  0.4329
 6874SOL    HW124024   6.045   0.622   9.191 -4.6794  0.2092 -0.1273
 6874SOL    HW224025   6.052   0.717   9.073 -1.8487 -0.0641 -0.2587
 6875SOL     OW24026   2.776   2.586   3.790  0.4033  0.1597  0.5911
 6875SOL    HW124027   2.765   2.679   3.807  0.9065  0.1354  1.0954
 6875SOL    HW224028   2.869   2.569   3.807  0.4324 -0.3299 -0.0118
 6876SOL     OW24029   4.668   3.140  10.643  0.1595  0.2128 -0.2206
 6876SOL    HW124030   4.598   3.205  10.641 -0.4880 -0.4580  0.2835
 6876SOL    HW224031   4.746   3.190  10.668 -0.1510  0.9403 -0.6750
 6877SOL     OW24032   1.084   0.696   6.117  0.2220  0.1605 -0.3918
 6877SOL    HW124033   0.992   0.686   6.140 -0.4032  2.4894 -1.6562
 6877SOL    HW224034   1.127   0.716   6.201 -0.3283 -1.0687  0.2237
 6878SOL     OW24035   3.980   2.368   3.434  0.1695  0.5163 -0.0662
 6878SOL    HW124036   4.017   2.441   3.384  0.4113  1.1727  1.0257
 6878SOL    HW224037   4.056   2.316   3.460  0.1398  0.6772  0.3575
 6879SOL     OW24038   2.493   1.175   2.916  0.0375 -0.6712  0.2792
 6879SOL    HW124039   2.398   1.165   2.918 -0.1226  0.6951  0.1338
 6879SOL    HW224040   2.512   1.207   2.828  0.6134 -0.7281  0.3771
 6880SOL     OW24041   4.383   1.842   7.009 -0.5669  0.0359  0.2541
 6880SOL    HW124042   4.351   1.762   7.049  1.0352 -0.0033  1.5722
 6880SOL    HW224043   4.476   1.845   7.032 -0.6408  2.4049  0.4873
 6881SOL     OW24044   3.950   7.806   8.514 -0.3200  0.3290  0.1437
 6881SOL    HW124045   4.019   7.746   8.483  0.4985  0.7671  1.0686
 6881SOL    HW224046   3.881   7.799   8.448  1.0104  0.5974 -1.3462
 6882SOL     OW24047   7.871  10.036  10.400 -0.3954  0.2069 -0.4756
 6882SOL    HW124048   7.798  10.067  10.348 -2.7472 -1.5015  1.5711
 6882SOL    HW224049   7.903  10.113  10.446 -1.4804  0.8477 -0.7770
 6883SOL     OW24050   0.427   9.337   3.272 -0.2849  0.6957 -0.2610
 6883SOL    HW124051   0.503   9.327   3.215 -1.0334 -1.5414 -0.9854
 6883SOL    HW224052   0.442   9.274   3.343 -1.2033  0.6014 -0.1373
 6884SOL     OW24053   0.032   1.140   1.296 -0.4288 -0.2730 -0.4686
 6884SOL    HW124054  -0.064   1.137   1.291 -0.3805 -0.6343 -1.3515
 6884SOL    HW224055   0.056   1.061   1.345 -0.6316  0.4138  0.7707
 6885SOL     OW24056  10.476   2.670   4.061  0.6134 -0.7231  0.2957
 6885SOL    HW124057  10.520   2.589   4.037  2.1668 -0.5515  2.2443
 6885SOL    HW224058  10.545   2.737   4.057  0.7011 -0.4484  3.5070
 6886SOL     OW24059   9.026   0.112   3.103 -0.5473  0.4883 -0.1401
 6886SOL    HW124060   9.034   0.081   3.194 -2.0182  1.1759  0.2494
 6886SOL    HW224061   9.052   0.037   3.050  1.3683  0.3997  0.8419
 6887SOL     OW24062   0.146   8.456   6.335 -0.3818 -0.0939  0.1332
 6887SOL    HW124063   0.143   8.513   6.412 -0.2059 -0.8102  0.6847
 6887SOL    HW224064   0.084   8.386   6.356 -2.0039  0.8427 -1.3198
 6888SOL     OW24065   6.848   7.627   8.992  0.0469 -0.3077  0.2701
 6888SOL    HW124066   6.920   7.655   8.935  0.3165 -1.6872 -0.0893
 6888SOL    HW224067   6.790   7.703   8.996  0.9429  0.4314 -0.3591
 6889SOL     OW24068  10.102   3.440   2.238 -0.0288  0.0991  0.5814
 6889SOL    HW124069  10.064   3.387   2.168  1.1962  2.0686 -1.7364
 6889SOL    HW224070  10.194   3.414   2.241  0.5255  1.7601 -0.4033
 6890SOL     OW24071   8.255  10.681   5.442  0.5313 -0.1523  0.2590
 6890SOL    HW124072   8.250  10.777   5.434 -1.7396 -0.0412  1.9025
 6890SOL    HW224073   8.235  10.665   5.534  0.5698 -2.2433 -0.0670
 6891SOL     OW24074   9.511  10.918   2.044  0.1684 -0.4885  0.0928
 6891SOL    HW124075   9.524  10.967   2.125 -0.7585  1.6684 -0.9762
 6891SOL    HW224076   9.427  10.949   2.011  0.8482 -0.7833 -2.0437
 6892SOL     OW24077   0.799   0.969   9.244 -0.1086  0.2134  0.0373
 6892SOL    HW124078   0.756   1.038   9.195 -0.7926 -0.3127 -0.1156
 6892SOL    HW224079   0.739   0.895   9.239  0.5098 -0.3232  0.3838
 6893SOL     OW24080   1.283   6.707   7.563  0.1757 -0.4884  0.0290
 6893SOL    HW124081   1.216   6.776   7.564  0.0614 -0.6030  0.3162
 6893SOL    HW224082   1.284   6.677   7.472 -1.2969 -1.5681  0.3180
 6894SOL     OW24083   7.699   3.239   0.761 -0.2257 -0.3224  0.4081
 6894SOL    HW124084   7.653   3.319   0.735  0.1336 -0.2728 -0.0933
 6894SOL    HW224085   7.792   3.259   0.748 -0.1548 -0.9500 -0.1037
 6895SOL     OW24086   1.161  10.172   2.839 -0.2496 -0.4086  0.6833
 6895SOL    HW124087   1.198  10.225   2.768 -1.6479  0.0710  0.2812
 6895SOL    HW224088   1.227  10.105   2.857  1.4665  1.2993  1.0237
 6896SOL     OW24089   5.707   1.171   9.587 -0.0322 -0.2788  0.1463
 6896SOL    HW124090   5.701   1.103   9.520  2.3659 -0.1874 -0.2362
 6896SOL    HW224091   5.623   1.218   9.581 -0.9782 -1.9974 -0.8572
 6897SOL     OW24092   3.571   4.391  10.728  0.0294  0.2649 -0.3056
 6897SOL    HW124093   3.588   4.342  10.809 -3.4575 -1.4819 -0.4293
 6897SOL    HW224094   3.507   4.457  10.753 -0.5531  0.1700 -1.4654
 6898SOL     OW24095   1.873   0.014   4.754  0.4142  0.0781 -0.4002
 6898SOL    HW124096   1.931   0.063   4.695  0.0039  0.5936 -0.3818
 6898SOL    HW224097   1.839   0.080   4.814 -1.1390  0.0241 -1.1566
 6899SOL     OW24098  10.377   2.210   0.044 -0.3315 -0.2496 -0.0540
 6899SOL    HW124099  10.311   2.199   0.113  0.1235 -0.3799  0.3616
 6899SOL    HW224100  10.326   2.211  -0.038 -0.9918  1.0431  0.3434
 6900SOL     OW24101   1.023   9.018   3.631  0.3535 -0.0529 -0.0160
 6900SOL    HW124102   0.940   8.983   3.597  1.2262 -1.1936 -1.0586
 6900SOL    HW224103   1.001   9.048   3.719 -0.7735 -2.0952  0.4900
 6901SOL     OW24104   0.321   1.522   1.324 -0.6146  0.2260  0.2819
 6901SOL    HW124105   0.240   1.534   1.274 -0.6925 -0.0912  0.3281
 6901SOL    HW224106   0.314   1.434   1.360  0.5827 -0.5487 -1.2472
 6902SOL     OW24107   0.147   9.087   6.317  0.1249  0.2266  0.4154
 6902SOL    HW124108   0.081   9.155   6.328 -0.9327 -0.5226 -0.9514
 6902SOL    HW224109   0.211   9.125   6.257 -0.7768 -0.1521 -0.8271
 6903SOL     OW24110   9.843   1.178   5.942 -0.3835  0.4418 -0.3659
 6903SOL    HW124111   9.884   1.121   5.877  1.4371  0.2024  0.9141
 6903SOL    HW224112   9.754   1.192   5.909 -0.3934 -1.8399 -1.5308
 6904SOL     OW24113   0.487   9.273   1.648 -0.2945 -0.0857  0.0657
 6904SOL    HW124114   0.474   9.236   1.735  0.0401  1.0495  0.6233
 6904SOL    HW224115   0.471   9.367   1.660 -5.0830 -0.3270 -2.0309
 6905SOL     OW24116  10.591   6.086   7.353 -0.8958  0.5055  0.8464
 6905SOL    HW124117  10.577   6.173   7.391  0.2371  1.0813  0.0369
 6905SOL    HW224118  10.504   6.057   7.327 -1.2580  1.5623  0.8173
 6906SOL     OW24119   8.470   1.867   2.912  0.7452 -0.1060 -0.1904
 6906SOL    HW124120   8.416   1.873   2.990 -1.0342 -0.9115 -1.3143
 6906SOL    HW224121   8.560   1.879   2.944  0.0289  0.0237  1.8878
 6907SOL     OW24122   1.550   8.016  10.337  0.0252  0.1769 -0.0480
 6907SOL    HW124123   1.574   8.108  10.340  1.2727 -0.1144 -0.6370
 6907SOL    HW224124   1.572   7.988  10.248  2.1353 -1.3182  0.8560
 6908SOL     OW24125   2.465   8.565   3.850  0.0530 -0.1435 -0.6512
 6908SOL    HW124126   2.456   8.643   3.906  0.0658  1.3894 -2.6552
 6908SOL    HW224127   2.545   8.582   3.800  0.1665 -1.5697 -0.9743
 6909SOL     OW24128   9.055   8.362   1.182  0.1272  0.2720  0.0199
 6909SOL    HW124129   9.120   8.409   1.234  0.6239 -0.5892  0.1817
 6909SOL    HW224130   9.077   8.385   1.091  2.7982 -2.5729 -0.2001
 6910SOL     OW24131   9.390   1.681   3.025 -0.0534 -0.5707  0.3274
 6910SOL    HW124132   9.315   1.704   2.971 -2.0845 -1.0665  2.7373
 6910SOL    HW224133   9.443   1.761   3.030 -0.7573 -0.0104 -0.8695
 6911SOL     OW24134   7.499   6.673   4.623  0.7707  0.1934 -0.3770
 6911SOL    HW124135   7.465   6.708   4.705 -2.7385 -0.1840 -1.5178
 6911SOL    HW224136   7.467   6.583   4.620 -0.0027  0.4842 -2.5428
 6912SOL     OW24137   3.548   3.731   6.273  0.6630 -0.3930  0.8174
 6912SOL    HW124138   3.611   3.791   6.312  1.3350 -0.1383 -0.5978
 6912SOL    HW224139   3.466   3.781   6.270  1.2493  0.5297 -0.4650
 6913SOL     OW24140   8.297   6.097   5.915 -0.1417  0.3761  0.0419
 6913SOL    HW124141   8.335   6.036   5.852  0.1252  2.3469 -1.8495
 6913SOL    HW224142   8.257   6.165   5.861 -0.5846  1.7745  2.0163
 6914SOL     OW24143   7.568   2.091   5.180  0.7444 -0.1455 -0.3639
 6914SOL    HW124144   7.594   2.168   5.230  0.4014 -0.3296  0.1049
 6914SOL    HW224145   7.474   2.084   5.194  1.1876 -2.3887  2.1082
 6915SOL     OW24146   3.906   2.068   8.267  0.4054  0.0729 -0.5705
 6915SOL    HW124147   3.939   2.149   8.228 -0.0307 -0.4766 -2.1569
 6915SOL    HW224148   3.951   1.999   8.218 -2.2105 -0.6812 -2.0831
 6916SOL     OW24149   5.888  10.872   1.553  0.1132  0.5971  0.4113
 6916SOL    HW124150   5.843  10.955   1.565 -3.9167 -1.5669  2.1819
 6916SOL    HW224151   5.892  10.861   1.458 -0.6988  2.1269  0.1667
 6917SOL     OW24152   2.543   7.844   1.229 -0.2958 -0.0129  0.2993
 6917SOL    HW124153   2.494   7.803   1.157 -0.4760 -1.5301  1.2398
 6917SOL    HW224154   2.582   7.770   1.276  1.8119  1.0822  0.3687
 6918SOL     OW24155   9.652   1.968   9.396  0.2187 -0.2974 -0.5683
 6918SOL    HW124156   9.631   1.962   9.303 -0.9791  1.5953 -0.4544
 6918SOL    HW224157   9.577   2.011   9.436  0.8228 -0.8283  1.2540
 6919SOL     OW24158   1.859   7.471   4.276  0.2813  0.1987 -0.1438
 6919SOL    HW124159   1.866   7.566   4.273 -0.8133  0.2805 -2.3584
 6919SOL    HW224160   1.895   7.441   4.193  0.9551 -1.3682  0.6732
 6920SOL     OW24161   6.196  10.079   4.175  0.1758  1.0195  0.6125
 6920SOL    HW124162   6.253  10.136   4.226  0.6124  2.3756 -1.2783
 6920SOL    HW224163   6.114  10.127   4.167 -0.0581  0.5996  0.4372
 6921SOL     OW24164   7.998   3.330   7.215  0.8174 -0.0236 -0.1395
 6921SOL    HW124165   7.994   3.382   7.135 -1.1031  0.1780  0.0356
 6921SOL    HW224166   7.946   3.380   7.278  0.6198 -1.1643  0.6313
 6922SOL     OW24167   2.845   4.851   7.804  0.0979 -1.0512  0.5256
 6922SOL    HW124168   2.859   4.766   7.847 -1.3747 -1.6422 -0.0858
 6922SOL    HW224169   2.752   4.870   7.819 -0.7483 -1.6864 -2.9387
 6923SOL     OW24170   7.045   1.759   3.367 -0.1862  0.0937  0.0056
 6923SOL    HW124171   7.071   1.815   3.294 -2.4172  0.1937 -0.8007
 6923SOL    HW224172   7.027   1.674   3.326 -0.4988 -0.1364  0.6096
 6924SOL     OW24173   3.287   9.763  10.363 -0.4556  0.1627  0.5246
 6924SOL    HW124174   3.320   9.808  10.286  2.2246  0.7068  1.8441
 6924SOL    HW224175   3.237   9.829  10.411 -0.9247  0.2288 -0.0556
 6925SOL     OW24176   2.774   3.586   6.221  0.3144  0.3269  0.0512
 6925SOL    HW124177   2.807   3.523   6.286 -0.4628 -1.5167 -1.2485
 6925SOL    HW224178   2.822   3.565   6.141  1.0066  2.3338 -0.1068
 6926SOL     OW24179   2.197   7.436   3.786  0.1987 -0.0298  0.0463
 6926SOL    HW124180   2.172   7.385   3.709 -0.4537  1.0918 -0.5084
 6926SOL    HW224181   2.162   7.524   3.769 -0.3911  0.1170  1.8547
 6927SOL     OW24182   7.541   1.458   1.452  0.0430  0.2600  0.1325
 6927SOL    HW124183   7.527   1.544   1.410  2.8710  0.8107  0.0612
 6927SOL    HW224184   7.579   1.404   1.382  2.5569  0.4412  1.2504
 6928SOL     OW24185   4.601   2.072   4.761 -0.5317  0.2418  0.3531
 6928SOL    HW124186   4.523   2.017   4.753 -0.1148 -0.4455  0.8978
 6928SOL    HW224187   4.654   2.050   4.684 -0.1638 -0.4510  0.8014
 6929SOL     OW24188   1.397   8.984   1.220 -0.4409 -0.6165 -0.0343
 6929SOL    HW124189   1.452   8.995   1.298 -1.0488  0.3183  0.2842
 6929SOL    HW224190   1.345   8.905   1.238  0.8924 -1.6125 -0.4169
 6930SOL     OW24191   9.865   0.149  10.240 -0.0128  1.0087  0.5494
 6930SOL    HW124192   9.794   0.098  10.280  0.0901  0.9984  0.7203
 6930SOL    HW224193   9.907   0.193  10.314 -0.1669  1.4270  0.3894
 6931SOL     OW24194   8.952   3.821   4.046  0.3560 -0.6607 -0.1550
 6931SOL    HW124195   9.014   3.851   3.980  0.0457 -0.2200 -0.2570
 6931SOL    HW224196   8.930   3.900   4.096  2.9957 -1.4740  2.5761
 6932SOL     OW24197   1.743   5.342   1.791  0.0358  0.5380 -0.3515
 6932SOL    HW124198   1.765   5.432   1.815 -0.3068  0.0805  1.9535
 6932SOL    HW224199   1.828   5.298   1.782  0.3012  0.0559  3.1801
 6933SOL     OW24200   3.972   7.654   8.158 -0.0323  0.1444 -0.4779
 6933SOL    HW124201   4.030   7.648   8.082  0.4059  3.6192 -0.5877
 6933SOL    HW224202   4.004   7.730   8.206 -3.3507  1.0643  0.5229
 6934SOL     OW24203   0.481   5.502   8.970 -0.5054  0.3752  0.2120
 6934SOL    HW124204   0.495   5.589   8.931  0.9609  0.0751  0.0053
 6934SOL    HW224205   0.551   5.494   9.035 -0.6925 -0.6191  0.3010
 6935SOL     OW24206   9.159   8.729   6.369  0.4279  0.2912 -0.1161
 6935SOL    HW124207   9.177   8.747   6.277  3.2482 -0.6682  0.1476
 6935SOL    HW224208   9.089   8.665   6.368 -0.8705  1.6722 -1.4855
 6936SOL     OW24209   7.943   1.023   1.135  0.1851  0.1402 -0.0479
 6936SOL    HW124210   7.978   1.105   1.100 -0.7229  0.4616 -0.2355
 6936SOL    HW224211   7.980   1.016   1.223  2.2110 -0.4863 -0.8934
 6937SOL     OW24212   2.885   8.847   8.379 -0.0537 -0.1942 -0.2461
 6937SOL    HW124213   2.978   8.849   8.355 -0.3599 -0.8818 -1.5782
 6937SOL    HW224214   2.865   8.753   8.388 -0.8110 -0.0873 -0.7658
 6938SOL     OW24215   2.933   8.933   3.214 -0.2225 -0.1535  0.4708
 6938SOL    HW124216   2.912   9.009   3.269 -2.9741 -1.4382  1.3555
 6938SOL    HW224217   2.911   8.961   3.125  1.8995  1.1111  0.2887
 6939SOL     OW24218   8.722   9.336  10.346 -0.2619 -0.1909  0.7661
 6939SOL    HW124219   8.719   9.340  10.250 -1.2480  0.3085  0.8103
 6939SOL    HW224220   8.633   9.359  10.374 -0.7412 -2.7901  1.7215
 6940SOL     OW24221   1.875   3.312   8.788  0.1803  0.0553 -0.2704
 6940SOL    HW124222   1.866   3.293   8.695  1.4234  0.3381 -0.4602
 6940SOL    HW224223   1.785   3.323   8.819 -0.2056  1.1580 -1.6830
 6941SOL     OW24224   5.300   3.559   0.058  0.1613  0.7725 -0.3426
 6941SOL    HW124225   5.213   3.565   0.099 -0.1839 -1.0130 -0.7309
 6941SOL    HW224226   5.284   3.577  -0.035  0.3917  1.4471 -0.2592
 6942SOL     OW24227   0.173  10.913   2.260  0.6191 -0.2397 -0.3195
 6942SOL    HW124228   0.091  10.958   2.278  0.8314  1.1654 -2.5071
 6942SOL    HW224229   0.232  10.981   2.227  1.9000 -1.5974 -0.9688
 6943SOL     OW24230   5.580   3.506   5.435  0.2842  0.7615 -0.4620
 6943SOL    HW124231   5.616   3.505   5.524  0.1935  0.8999 -0.4244
 6943SOL    HW224232   5.631   3.573   5.389  1.9878 -0.9379 -1.1997
 6944SOL     OW24233   0.350   5.382   6.030  0.2410  0.1679  0.4240
 6944SOL    HW124234   0.404   5.316   6.074 -0.4632 -1.1643 -0.6554
 6944SOL    HW224235   0.341   5.351   5.940 -0.9671  1.1998  0.1552
 6945SOL     OW24236   3.949   3.210   2.708 -0.2393 -0.4795  0.1119
 6945SOL    HW124237   3.897   3.130   2.711  1.7170 -2.0732 -2.7554
 6945SOL    HW224238   3.902   3.266   2.646  0.2028 -0.9303 -0.6434
 6946SOL     OW24239   8.359   5.571  10.668 -0.2774 -0.3315  0.7164
 6946SOL    HW124240   8.430   5.512  10.643 -1.6809 -1.1330 -1.7979
 6946SOL    HW224241   8.297   5.515  10.715  0.3348  0.1907  2.2078
 6947SOL     OW24242   6.638  10.716   1.335  0.2302 -0.5746 -0.1096
 6947SOL    HW124243   6.565  10.684   1.389 -1.6455  2.0205 -0.8975
 6947SOL    HW224244   6.673  10.637   1.293 -1.0428 -2.1249  1.5707
 6948SOL     OW24245   4.531  10.328   5.185  0.3427  0.9162 -0.2054
 6948SOL    HW124246   4.550  10.389   5.257  0.8959  0.4860  0.0181
 6948SOL    HW224247   4.566  10.244   5.215 -0.6270  0.4268 -0.4150
 6949SOL     OW24248   8.959   8.532   2.901 -0.1470  0.0305 -0.5998
 6949SOL    HW124249   8.890   8.538   2.967  1.7462  0.5728  1.4880
 6949SOL    HW224250   8.928   8.586   2.828 -2.0198  0.0281  0.1541
 6950SOL     OW24251   2.438   0.424   2.194  0.1579 -0.4600 -0.1014
 6950SOL    HW124252   2.366   0.487   2.191 -0.5360 -1.2579 -0.5538
 6950SOL    HW224253   2.407   0.354   2.251  0.3428 -1.0729 -0.7352
 6951SOL     OW24254  10.000   8.931  10.396  0.1832  0.1278 -0.2014
 6951SOL    HW124255  10.009   8.988  10.320  1.3024  0.0718 -0.1232
 6951SOL    HW224256  10.046   8.850  10.371  1.3106  0.4199  0.8286
 6952SOL     OW24257   6.913   2.240   1.778  0.1464  0.0294  0.3503
 6952SOL    HW124258   6.888   2.248   1.870  0.6684 -0.0274  0.5033
 6952SOL    HW224259   6.892   2.326   1.740 -0.7058 -0.1686  0.3556
 6953SOL     OW24260   9.031   9.444   9.680 -0.5377 -0.2900  0.4945
 6953SOL    HW124261   9.121   9.438   9.712 -0.3898  0.8839  0.3585
 6953SOL    HW224262   9.016   9.538   9.669 -0.8547 -0.5729 -2.0982
 6954SOL     OW24263   1.306   0.787   1.103  0.0065  0.4672 -0.1410
 6954SOL    HW124264   1.257   0.850   1.049  1.2031  0.7793 -0.9044
 6954SOL    HW224265   1.394   0.788   1.066  0.4076 -0.6179  0.7486
 6955SOL     OW24266   0.598  10.055   4.961 -0.0357  0.1691 -0.1450
 6955SOL    HW124267   0.559  10.009   4.887 -1.7920  0.9782  0.2199
 6955SOL    HW224268   0.592   9.992   5.033  1.0064 -0.3498 -0.4872
 6956SOL     OW24269   1.197   6.724   5.420 -0.2110  0.2195 -0.1656
 6956SOL    HW124270   1.290   6.716   5.442 -0.0923  1.7236 -0.0155
 6956SOL    HW224271   1.196   6.774   5.338 -0.9142  1.3523  0.5128
 6957SOL     OW24272   2.015   3.565  10.396 -0.4633 -0.6248 -0.1270
 6957SOL    HW124273   1.947   3.514  10.440 -1.4812  0.4272 -0.4582
 6957SOL    HW224274   2.027   3.521  10.312 -2.3095  0.4010 -0.9871
 6958SOL     OW24275   6.615   1.850   7.325  0.4900 -0.4186 -0.6425
 6958SOL    HW124276   6.667   1.837   7.404  1.6418 -0.4225 -1.3831
 6958SOL    HW224277   6.609   1.763   7.285 -0.7464 -0.5681 -0.1898
 6959SOL     OW24278  10.866   4.231   9.068  0.2630  0.5072  0.1305
 6959SOL    HW124279  10.836   4.279   9.145  0.1036  1.5244 -0.5496
 6959SOL    HW224280  10.955   4.263   9.052  0.1237  0.6636 -0.3752
 6960SOL     OW24281  10.858   4.127   8.180  0.0546  0.0159 -0.1717
 6960SOL    HW124282  10.934   4.165   8.137  0.4663 -0.2815  0.2830
 6960SOL    HW224283  10.797   4.108   8.109  1.0295 -1.1839 -0.7249
 6961SOL     OW24284   3.583   3.979   0.233 -0.3614  0.4487 -0.4315
 6961SOL    HW124285   3.502   4.013   0.271 -0.2311 -1.4922  1.8702
 6961SOL    HW224286   3.575   3.995   0.139 -1.7311  3.6144  0.0938
 6962SOL     OW24287   5.413   0.530   4.511 -0.1698 -0.3381 -0.2589
 6962SOL    HW124288   5.469   0.457   4.538 -0.8990 -1.1470 -0.8415
 6962SOL    HW224289   5.461   0.608   4.537  1.1389 -1.0026 -0.5690
 6963SOL     OW24290   7.900   3.659   7.948  0.6873 -0.1938  0.4826
 6963SOL    HW124291   7.981   3.645   7.901  1.3217 -1.9396  1.9789
 6963SOL    HW224292   7.845   3.584   7.926 -0.3211  0.6755 -0.0604
 6964SOL     OW24293  10.031   6.378   6.043 -0.3433 -0.1496  0.2227
 6964SOL    HW124294   9.991   6.455   6.004  0.0933  0.8915  1.7512
 6964SOL    HW224295  10.075   6.334   5.970 -0.4156  1.1640 -0.6379
 6965SOL     OW24296   6.831  10.344   2.280 -0.4398 -0.3462 -0.2136
 6965SOL    HW124297   6.855  10.293   2.358  0.2118  0.6103  0.2296
 6965SOL    HW224298   6.807  10.430   2.314 -0.7828 -0.1155 -1.0174
 6966SOL     OW24299   2.074   3.852   9.745 -0.2150  0.0188 -0.0470
 6966SOL    HW124300   2.135   3.926   9.748 -1.7475  1.4309 -1.6814
 6966SOL    HW224301   1.994   3.885   9.785 -1.0379 -0.6096 -1.1299
 6967SOL     OW24302  10.488   7.349   6.438 -0.1961 -0.3419 -0.0609
 6967SOL    HW124303  10.409   7.399   6.418 -0.3721 -0.8995 -0.7989
 6967SOL    HW224304  10.525   7.327   6.353  0.9537  0.2054  0.2764
 6968SOL     OW24305   0.889   5.607   2.097  0.2121  0.3749 -0.2648
 6968SOL    HW124306   0.885   5.649   2.011 -2.8124  1.1507  0.1237
 6968SOL    HW224307   0.814   5.644   2.144  0.6534 -1.4690  2.0392
 6969SOL     OW24308   8.034   8.629   9.870  0.0329  0.6707  0.1766
 6969SOL    HW124309   8.015   8.601   9.780  0.7667  2.8246 -0.7215
 6969SOL    HW224310   7.995   8.716   9.876 -2.7143 -0.5249  3.0174
 6970SOL     OW24311  10.584   6.054   4.462 -0.1314  0.1919  0.1415
 6970SOL    HW124312  10.533   6.099   4.529  1.4342  0.1831  1.3831
 6970SOL    HW224313  10.560   5.961   4.472 -1.3325  0.3857 -0.6368
 6971SOL     OW24314   4.255   0.315   4.361 -0.2300  0.3168  0.1763
 6971SOL    HW124315   4.315   0.250   4.399  0.1978 -0.3665 -1.5720
 6971SOL    HW224316   4.313   0.376   4.314 -0.7450  1.1298  0.5676
 6972SOL     OW24317   5.350   8.839   4.054 -0.4487  0.2346 -0.6414
 6972SOL    HW124318   5.385   8.899   3.988  4.2890 -0.4333  0.8303
 6972SOL    HW224319   5.299   8.894   4.113  0.5046  2.0539 -1.4452
 6973SOL     OW24320   3.632   9.661   3.099 -0.0188  0.3168  0.4865
 6973SOL    HW124321   3.711   9.713   3.085  0.1348 -0.1821 -0.6069
 6973SOL    HW224322   3.664   9.571   3.109 -0.3809  0.2396  0.9882
 6974SOL     OW24323   4.252   8.879   9.173  0.0851  0.4521 -0.5337
 6974SOL    HW124324   4.323   8.815   9.179 -0.4809 -0.4080 -2.4591
 6974SOL    HW224325   4.192   8.854   9.243  1.1670  0.5697  0.4710
 6975SOL     OW24326   7.530   4.540   5.872 -0.0721  0.0224  0.6071
 6975SOL    HW124327   7.464   4.496   5.924 -0.1899 -1.1077 -0.4620
 6975SOL    HW224328   7.583   4.470   5.834  0.1226  0.8002 -0.6428
 6976SOL     OW24329  10.908   6.199   4.447  0.6382  0.2403 -0.0252
 6976SOL    HW124330  10.978   6.264   4.443  0.6544  0.1927 -0.6610
 6976SOL    HW224331  10.836   6.238   4.397  0.0336  0.5004  1.0384
 6977SOL     OW24332   0.973   2.518   3.257  0.0140  0.1018 -0.3148
 6977SOL    HW124333   1.048   2.475   3.298 -0.1609  0.2760  0.1975
 6977SOL    HW224334   0.985   2.503   3.163  1.0361  0.6784 -0.2910
 6978SOL     OW24335   9.951   5.341   1.064 -0.1361  0.0934 -0.2025
 6978SOL    HW124336   9.937   5.409   1.130 -0.1982  1.1948 -1.3131
 6978SOL    HW224337  10.022   5.375   1.010 -0.8119 -0.2722 -1.3535
 6979SOL     OW24338   5.148   0.971   3.204 -0.1027 -0.4459  0.1672
 6979SOL    HW124339   5.082   1.032   3.237  0.8382  1.1060 -0.6973
 6979SOL    HW224340   5.193   0.941   3.283 -1.3944 -1.0313  0.7097
 6980SOL     OW24341  10.037   4.747   0.748 -0.2777 -0.0596  0.3464
 6980SOL    HW124342   9.948   4.759   0.781 -1.3663 -1.9242 -1.6910
 6980SOL    HW224343  10.063   4.661   0.781 -0.3882 -0.7912 -1.3908
 6981SOL     OW24344   6.595   8.445   9.193  0.1600 -0.1986  0.5221
 6981SOL    HW124345   6.627   8.535   9.181 -1.6048  0.5127  0.9252
 6981SOL    HW224346   6.561   8.421   9.107 -1.1592  0.2778  0.8893
 6982SOL     OW24347   4.064   7.943   3.778  0.6341 -0.0732  0.0754
 6982SOL    HW124348   4.114   7.862   3.777  1.6731  0.5380  0.5132
 6982SOL    HW224349   3.979   7.919   3.815  0.6274 -1.1116 -0.5777
 6983SOL     OW24350   1.413   8.531   5.499 -0.0260 -0.0922 -0.4418
 6983SOL    HW124351   1.432   8.461   5.437 -2.1569 -0.6120 -0.5815
 6983SOL    HW224352   1.318   8.534   5.503  0.0046  0.0753  2.6011
 6984SOL     OW24353   4.974   9.864   1.483 -0.5618  0.1776 -0.1774
 6984SOL    HW124354   5.051   9.888   1.430  0.1564 -0.5861  0.4846
 6984SOL    HW224355   4.908   9.929   1.460  0.2786  0.8466 -0.7812
 6985SOL     OW24356   6.283   0.941   5.959 -0.5424 -0.1854 -0.1483
 6985SOL    HW124357   6.362   0.973   6.004 -0.2648  0.4862 -1.0853
 6985SOL    HW224358   6.227   1.018   5.952  0.7969  0.6605 -3.8814
 6986SOL     OW24359   8.071   5.499   4.752  0.1034 -0.1057 -0.8176
 6986SOL    HW124360   8.124   5.488   4.673  0.6713 -0.0017 -0.4542
 6986SOL    HW224361   8.073   5.593   4.770  0.1809 -0.1602 -0.5390
 6987SOL     OW24362   6.918   2.687   6.861  0.1731  0.3135 -0.3623
 6987SOL    HW124363   6.937   2.619   6.927  1.4055  1.6071  0.6748
 6987SOL    HW224364   6.832   2.721   6.885 -0.5530 -0.9752 -1.0142
 6988SOL     OW24365   8.667   3.822   1.320  0.5541 -0.2998 -0.1529
 6988SOL    HW124366   8.722   3.862   1.253  2.0147 -0.6268  0.8168
 6988SOL    HW224367   8.707   3.849   1.403  0.5358 -2.2986  0.5549
 6989SOL     OW24368  10.442  10.717   5.453 -0.4261 -0.8455 -1.0034
 6989SOL    HW124369  10.419  10.800   5.412 -0.1791 -0.1823  0.1600
 6989SOL    HW224370  10.454  10.657   5.380 -1.7213 -0.1605 -1.8273
 6990SOL     OW24371   3.693   4.931   3.097  0.4728 -0.2495  0.1363
 6990SOL    HW124372   3.780   4.945   3.134  1.0297  0.8558 -1.4713
 6990SOL    HW224373   3.649   5.014   3.108  0.3073 -0.2105 -0.7674
 6991SOL     OW24374   3.095   7.313   0.507 -0.3839 -0.3120  0.3370
 6991SOL    HW124375   3.158   7.249   0.475 -0.9906  0.3377 -2.4193
 6991SOL    HW224376   3.141   7.361   0.575  3.0362  1.5887 -2.9243
 6992SOL     OW24377   8.326   8.768   4.829 -0.4462  0.5806 -0.2109
 6992SOL    HW124378   8.289   8.840   4.881 -0.9915 -1.4348  2.4221
 6992SOL    HW224379   8.414   8.755   4.865 -1.3063 -1.7091  1.2989
 6993SOL     OW24380   1.027   9.082   0.524 -0.0529  0.6256  0.6659
 6993SOL    HW124381   0.978   9.000   0.519 -0.2030  0.7865 -2.0214
 6993SOL    HW224382   1.110   9.058   0.563  1.1824 -1.6095 -2.8662
 6994SOL     OW24383   7.591   5.559   7.624  0.4852 -0.3349  0.1834
 6994SOL    HW124384   7.606   5.646   7.660  0.7714 -0.3388  0.0793
 6994SOL    HW224385   7.673   5.538   7.578 -0.8185  0.8702 -2.9770
 6995SOL     OW24386   6.664   5.922   9.098  0.1020 -0.3182 -0.1517
 6995SOL    HW124387   6.576   5.924   9.060 -0.0774  1.6928  0.2820
 6995SOL    HW224388   6.655   5.864   9.175 -1.3074  1.1584  0.8695
 6996SOL     OW24389   7.996   5.902   3.118  0.4464 -0.0062  0.8634
 6996SOL    HW124390   7.920   5.958   3.102 -0.5216 -0.3449  3.6174
 6996SOL    HW224391   7.969   5.846   3.191  2.7746 -1.3214  0.8063
 6997SOL     OW24392   1.089  10.005   3.187 -0.0437  0.4939  0.1773
 6997SOL    HW124393   1.046   9.980   3.106 -0.2473  0.6306  0.2437
 6997SOL    HW224394   1.030  10.067   3.228 -0.5472 -0.5310  1.0497
 6998SOL     OW24395   5.074   8.344   8.898  0.2369 -0.0096  0.2625
 6998SOL    HW124396   5.107   8.268   8.945 -1.6404 -0.5922  0.7552
 6998SOL    HW224397   5.007   8.380   8.957 -0.0006  1.0776 -0.6532
 6999SOL     OW24398   4.237   6.247   9.004  0.3924  0.0595  0.5113
 6999SOL    HW124399   4.286   6.329   9.011 -0.9951  0.8183  1.8092
 6999SOL    HW224400   4.151   6.267   9.040 -0.7569 -1.3592 -1.2727
 7000SOL     OW24401   7.632   3.956   7.275 -0.6810 -0.2369 -0.2445
 7000SOL    HW124402   7.663   3.915   7.194  1.2516 -0.8464  0.7408
 7000SOL    HW224403   7.538   3.936   7.277 -1.1586  1.2351 -3.1086
 7001SOL     OW24404   0.670   2.617   2.930 -0.4896 -0.0829  0.1617
 7001SOL    HW124405   0.592   2.668   2.953 -0.6518 -0.0444 -0.4491
 7001SOL    HW224406   0.639   2.526   2.929 -0.1904 -0.2126  1.2937
 7002SOL     OW24407  10.443   2.216   9.749  0.1045 -0.3329 -0.0628
 7002SOL    HW124408  10.389   2.251   9.678 -1.4430 -0.7906  0.8372
 7002SOL    HW224409  10.525   2.191   9.707 -0.4409  0.2035 -1.5176
 7003SOL     OW24410   9.897   2.817   2.633 -0.2439 -0.2453  0.3777
 7003SOL    HW124411   9.849   2.738   2.609 -0.5496  0.1051 -0.2217
 7003SOL    HW224412   9.932   2.850   2.550  0.0854  0.1150  0.6522
 7004SOL     OW24413   4.490  10.446   1.197 -0.4637  0.4573 -0.7879
 7004SOL    HW124414   4.561  10.460   1.261  1.4774  0.6373 -2.8660
 7004SOL    HW224415   4.535  10.434   1.114 -2.9465  1.5609 -2.4006
 7005SOL     OW24416   1.408   6.233   5.455 -0.5726  0.4082 -0.5569
 7005SOL    HW124417   1.468   6.267   5.388 -0.5121  0.5650 -0.4250
 7005SOL    HW224418   1.321   6.256   5.422 -0.6548 -0.9830 -1.3990
 7006SOL     OW24419   1.907   4.303  10.482  0.5609 -0.2197  0.6987
 7006SOL    HW124420   1.878   4.213  10.473  0.3502 -0.0166 -0.9381
 7006SOL    HW224421   1.993   4.305  10.440  0.6392  0.2928  0.8788
 7007SOL     OW24422   0.951   2.237   2.703  0.3628  0.0419 -0.7973
 7007SOL    HW124423   0.873   2.282   2.736  1.4529  1.3153  0.1481
 7007SOL    HW224424   0.921   2.149   2.683 -1.4196  0.6250 -0.8659
 7008SOL     OW24425  10.439   2.677   5.686 -0.4071 -0.3929 -0.2464
 7008SOL    HW124426  10.498   2.659   5.759  1.6543 -0.4471 -1.8279
 7008SOL    HW224427  10.408   2.590   5.658  1.2889 -0.6951 -1.3366
 7009SOL     OW24428   1.909   6.104   7.761 -0.4727 -0.4013  0.9885
 7009SOL    HW124429   1.982   6.166   7.757 -0.9493  0.1230  0.3033
 7009SOL    HW224430   1.834   6.152   7.726 -1.1821 -0.8967  1.7849
 7010SOL     OW24431   0.783   7.135   4.984  0.0936  0.0760  0.0165
 7010SOL    HW124432   0.792   7.121   4.890 -2.1085  0.1281 -0.2720
 7010SOL    HW224433   0.769   7.047   5.020  0.3599  0.1115  0.2049
 7011SOL     OW24434   2.127  10.814   3.605  0.0115  0.0413 -0.2842
 7011SOL    HW124435   2.064  10.835   3.536 -0.4406 -3.2950 -1.0734
 7011SOL    HW224436   2.157  10.726   3.584  1.3729 -0.3363  2.7121
 7012SOL     OW24437   3.023   5.480   7.714  0.6481  0.0446  0.2212
 7012SOL    HW124438   3.069   5.498   7.632 -1.3484 -0.3239 -1.0740
 7012SOL    HW224439   3.019   5.385   7.719 -2.5361 -0.0444 -1.3809
 7013SOL     OW24440   3.533   9.116   8.212 -0.2892  0.0228  0.6010
 7013SOL    HW124441   3.573   9.129   8.299 -0.5899  3.4233  0.3741
 7013SOL    HW224442   3.599   9.148   8.151 -1.3404  0.8345 -0.1382
 7014SOL     OW24443   8.648   2.874   0.568  0.8267 -0.1353  0.5393
 7014SOL    HW124444   8.698   2.812   0.622  4.2397  1.2183 -0.7598
 7014SOL    HW224445   8.710   2.945   0.550 -1.2998  1.2217 -2.1496
 7015SOL     OW24446   4.373   5.040   7.758 -0.3384  0.2799 -0.2496
 7015SOL    HW124447   4.466   5.062   7.756 -0.3530  0.5268  1.1970
 7015SOL    HW224448   4.336   5.096   7.826 -1.0799 -1.4578  0.8531
 7016SOL     OW24449   8.195   9.286   6.486 -0.4670 -0.3705 -0.4068
 7016SOL    HW124450   8.133   9.286   6.413  0.6101  2.0175 -1.4372
 7016SOL    HW224451   8.176   9.366   6.534 -0.6477 -1.5262  1.5465
 7017SOL     OW24452   9.431   9.108   9.061 -0.1193 -0.2722 -0.0568
 7017SOL    HW124453   9.468   9.173   9.122  1.9284 -0.3696 -1.1168
 7017SOL    HW224454   9.348   9.147   9.033  0.3883  1.2513  0.4191
 7018SOL     OW24455   7.110   4.236   7.931  0.1092  0.5048 -0.4844
 7018SOL    HW124456   7.157   4.192   7.860  0.9195 -1.1120  0.9751
 7018SOL    HW224457   7.019   4.239   7.902  0.3872 -0.2948 -1.4894
 7019SOL     OW24458   5.871  10.444   6.305  0.2227  0.1601  0.1798
 7019SOL    HW124459   5.780  10.465   6.330  0.1711  0.3756 -0.1804
 7019SOL    HW224460   5.864  10.412   6.215  0.0876 -2.9868  1.2053
 7020SOL     OW24461   3.201   4.900   8.833  0.4581 -0.4420 -0.0689
 7020SOL    HW124462   3.203   4.813   8.793 -0.9177 -0.4785 -0.1077
 7020SOL    HW224463   3.140   4.950   8.779  2.1271  0.9476 -0.7653
 7021SOL     OW24464   7.676   6.579   4.249 -0.2051 -0.0680 -0.2788
 7021SOL    HW124465   7.607   6.641   4.273  0.2351  0.1547  0.4486
 7021SOL    HW224466   7.728   6.570   4.328  0.4132 -0.4805 -0.7270
 7022SOL     OW24467   0.678   9.487   3.086  0.5794  0.1266  0.4603
 7022SOL    HW124468   0.715   9.402   3.111  0.5958  0.0782  0.2686
 7022SOL    HW224469   0.753   9.547   3.087  0.5195  0.2013  0.8734
 7023SOL     OW24470   2.846   5.702   7.571 -0.1201 -0.0067  0.1372
 7023SOL    HW124471   2.877   5.642   7.639 -0.1129  2.9921  3.0590
 7023SOL    HW224472   2.751   5.693   7.572 -0.1481  0.3177  0.8939
 7024SOL     OW24473   0.457   0.835  10.761  0.1977  0.1545 -0.0007
 7024SOL    HW124474   0.516   0.909  10.776  0.2835 -0.1873  1.4891
 7024SOL    HW224475   0.511   0.758  10.777 -0.4917 -0.1735  0.7991
 7025SOL     OW24476  10.174   3.098   0.563  0.2480 -0.2179 -0.3871
 7025SOL    HW124477  10.238   3.143   0.618 -0.7930 -0.8671  1.4721
 7025SOL    HW224478  10.122   3.046   0.625 -1.6081 -0.2806 -1.8856
 7026SOL     OW24479   2.727   7.200   3.222 -0.0048  0.3154 -0.5304
 7026SOL    HW124480   2.704   7.275   3.277 -1.3462  0.3965 -1.1757
 7026SOL    HW224481   2.809   7.226   3.180  1.4261 -0.0021  1.8486
 7027SOL     OW24482   2.817   1.305   5.346  0.4984 -0.2997 -0.1535
 7027SOL    HW124483   2.727   1.320   5.377  1.2641  0.6809  1.7717
 7027SOL    HW224484   2.851   1.393   5.330  1.2700 -0.6408 -0.4013
 7028SOL     OW24485   5.882   9.111   9.807  0.6823  0.0891  0.2236
 7028SOL    HW124486   5.954   9.173   9.809  1.5746 -0.9248  0.6401
 7028SOL    HW224487   5.816   9.148   9.866  0.6897  1.2086 -0.4591
 7029SOL     OW24488   9.523   7.516  10.723  0.3068  0.2783 -0.5163
 7029SOL    HW124489   9.614   7.486  10.717 -0.3115 -2.0527  0.3188
 7029SOL    HW224490   9.520   7.568  10.803  0.8276 -0.0834 -0.2508
 7030SOL     OW24491   1.461   2.606   5.040  0.3444  0.1726  0.4366
 7030SOL    HW124492   1.468   2.538   4.973 -3.0642 -2.6792  2.6071
 7030SOL    HW224493   1.534   2.589   5.099  0.1721 -0.9702  0.3458
 7031SOL     OW24494  10.507  10.770   9.408  0.0431 -0.4933  0.1385
 7031SOL    HW124495  10.419  10.762   9.373 -0.9481  0.9287  2.1239
 7031SOL    HW224496  10.560  10.712   9.353 -2.1175 -1.4712 -1.0361
 7032SOL     OW24497   4.375   3.453   9.796  0.0174 -0.0132 -0.1468
 7032SOL    HW124498   4.296   3.413   9.831 -0.8101  1.1633 -0.5780
 7032SOL    HW224499   4.380   3.539   9.838 -1.2305  1.6257 -3.0163
 7033SOL     OW24500   1.451   8.512   3.586  0.1226  0.2395 -0.4059
 7033SOL    HW124501   1.360   8.534   3.605  0.1320 -0.1324  0.0791
 7033SOL    HW224502   1.459   8.522   3.491 -0.5080 -0.0294 -0.4902
 7034SOL     OW24503   4.124   3.808   5.683 -0.3646  0.1866  0.4435
 7034SOL    HW124504   4.039   3.839   5.713 -0.6850 -0.5505  0.3365
 7034SOL    HW224505   4.108   3.778   5.593 -0.0466 -0.1789  0.5043
 7035SOL     OW24506   1.623   1.463   2.998 -0.1566  0.2705 -0.0293
 7035SOL    HW124507   1.549   1.514   3.031  0.9252  2.0197 -0.2279
 7035SOL    HW224508   1.700   1.499   3.042  0.7277 -0.8009 -0.6238
 7036SOL     OW24509   1.818   7.636   0.125  0.4184  0.0799  0.3457
 7036SOL    HW124510   1.756   7.584   0.176  1.3219 -0.8295  0.5513
 7036SOL    HW224511   1.798   7.616   0.034 -0.6980  1.1191  0.3372
 7037SOL     OW24512   1.328   7.790   5.067  0.4126  0.2171 -0.0368
 7037SOL    HW124513   1.420   7.795   5.092  0.0936 -0.1905  1.2982
 7037SOL    HW224514   1.282   7.846   5.129 -0.1944  0.9184 -1.0793
 7038SOL     OW24515   3.619   0.523   9.118 -0.0032  0.5986  1.0726
 7038SOL    HW124516   3.597   0.435   9.148  2.0982  0.4231  2.2895
 7038SOL    HW224517   3.535   0.566   9.105 -1.0607 -1.3964  1.0261
 7039SOL     OW24518   5.999  10.902   5.096 -0.8200  0.4401  0.4963
 7039SOL    HW124519   6.070  10.877   5.036 -0.9894  1.2649 -0.0669
 7039SOL    HW224520   6.043  10.913   5.181 -0.4999 -0.2975  0.4349
 7040SOL     OW24521   4.530   4.070   3.534 -0.5072  0.4572  0.2986
 7040SOL    HW124522   4.460   4.064   3.469 -1.3007  0.6953  1.0976
 7040SOL    HW224523   4.601   4.017   3.499 -0.2173  2.0084 -1.5896
 7041SOL     OW24524   1.170   1.877   1.376  0.5500 -0.5060  0.6086
 7041SOL    HW124525   1.142   1.823   1.303  1.3940  0.6570 -0.6252
 7041SOL    HW224526   1.090   1.922   1.406  0.9155  4.0362 -3.8915
 7042SOL     OW24527   7.406   6.910   0.485 -0.0645  0.1724  0.1716
 7042SOL    HW124528   7.443   6.827   0.515 -3.1737 -1.3110  0.2758
 7042SOL    HW224529   7.350   6.939   0.557 -1.5447  0.6195 -1.0856
 7043SOL     OW24530   4.446   5.028   4.450  0.2824 -0.0760 -0.5110
 7043SOL    HW124531   4.354   5.054   4.447 -0.0212 -1.1790 -1.4358
 7043SOL    HW224532   4.455   4.981   4.533  0.1875  0.6436 -0.0902
 7044SOL     OW24533   1.988   5.245   8.226  0.0669  0.2037  0.1628
 7044SOL    HW124534   1.983   5.340   8.220  0.5633  0.2292  0.1505
 7044SOL    HW224535   2.005   5.217   8.136  1.7360  0.2231  0.4397
 7045SOL     OW24536   4.412   1.390   8.371  0.0493 -0.5500 -0.2898
 7045SOL    HW124537   4.419   1.325   8.301 -1.3720 -1.7419  0.6219
 7045SOL    HW224538   4.321   1.418   8.369 -0.2862 -1.3684  1.7134
 7046SOL     OW24539   5.046   9.745   3.583  0.2057 -0.0494  0.1330
 7046SOL    HW124540   4.999   9.684   3.527 -2.0356 -1.4247  3.2162
 7046SOL    HW224541   5.130   9.702   3.601 -0.2613 -0.9833  0.1346
 7047SOL     OW24542   4.630   8.094   5.720  0.3939  0.0145 -0.5246
 7047SOL    HW124543   4.698   8.158   5.700 -0.6792  0.9192 -1.4180
 7047SOL    HW224544   4.672   8.009   5.709  2.6920  0.3785  3.3437
 7048SOL     OW24545   3.097   4.621  10.306 -0.1513  0.0537  0.5662
 7048SOL    HW124546   3.170   4.669  10.267  1.1739 -0.6915  2.0343
 7048SOL    HW224547   3.101   4.534  10.265 -0.4025  0.0890  0.4599
 7049SOL     OW24548   8.461   6.245   8.164  0.2426 -0.0396  0.1359
 7049SOL    HW124549   8.551   6.243   8.196 -0.2468 -2.4629  1.5709
 7049SOL    HW224550   8.409   6.263   8.242 -0.7273 -2.2956  0.0588
 7050SOL     OW24551   6.323   0.580   0.919  0.0693 -0.6450 -0.1869
 7050SOL    HW124552   6.263   0.510   0.945 -0.0919 -0.4761 -0.1084
 7050SOL    HW224553   6.317   0.645   0.989  0.5919 -0.7779 -0.0151
 7051SOL     OW24554   4.488  10.358   8.806  0.1962 -0.5698  0.0680
 7051SOL    HW124555   4.580  10.383   8.797  0.6230 -1.6585  1.1201
 7051SOL    HW224556   4.446  10.390   8.726  1.8903 -1.8740 -1.4315
 7052SOL     OW24557   1.508   4.605  10.201 -0.2374 -0.2916 -0.5194
 7052SOL    HW124558   1.510   4.697  10.173  0.5371  0.5862  2.1461
 7052SOL    HW224559   1.496   4.609  10.295  3.4458 -2.8113  0.2570
 7053SOL     OW24560   4.162   4.662  10.349  0.0724 -0.5888 -0.1805
 7053SOL    HW124561   4.092   4.618  10.396 -0.2166  0.7013  0.6117
 7053SOL    HW224562   4.195   4.595  10.288 -0.4885 -1.8247  0.8383
 7054SOL     OW24563   6.655   2.457   4.963  0.1490 -0.0678  0.7693
 7054SOL    HW124564   6.577   2.408   4.937  1.0658 -1.1290 -0.1236
 7054SOL    HW224565   6.669   2.519   4.892  0.2655 -0.0745  0.7856
 7055SOL     OW24566   1.231   8.243   8.767 -0.5297  0.2595 -0.1269
 7055SOL    HW124567   1.265   8.190   8.840 -0.3559  0.5226 -0.0152
 7055SOL    HW224568   1.261   8.198   8.688 -2.9572 -1.5784 -0.1248
 7056SOL     OW24569   9.533   4.554   4.738  0.1479 -0.1670 -0.4029
 7056SOL    HW124570   9.489   4.560   4.822 -0.4683 -0.6878 -0.6775
 7056SOL    HW224571   9.580   4.637   4.729  2.1656 -1.0237  1.5026
 7057SOL     OW24572   1.210   0.791   2.936 -0.0680 -0.4137  0.2723
 7057SOL    HW124573   1.130   0.742   2.956 -1.2359  1.8228  1.4854
 7057SOL    HW224574   1.270   0.766   3.006 -0.0540 -1.3331 -0.0563
 7058SOL     OW24575   6.288   5.756   5.202 -0.3063  0.2938 -0.2975
 7058SOL    HW124576   6.229   5.812   5.251  1.3005  1.2849  0.6102
 7058SOL    HW224577   6.295   5.676   5.255  0.4790  0.8779  0.5167
 7059SOL     OW24578   0.127   3.899   8.206 -0.0119  0.0898  0.2572
 7059SOL    HW124579   0.118   3.865   8.295 -1.1980  0.4475  0.2903
 7059SOL    HW224580   0.045   3.877   8.163  0.1050  0.9071 -0.4174
 7060SOL     OW24581   5.011   5.816   1.079  0.4837  0.6639  0.3017
 7060SOL    HW124582   5.017   5.877   1.152  1.4031  1.3160 -0.3104
 7060SOL    HW224583   4.923   5.778   1.088  1.7656 -2.0692  3.9094
 7061SOL     OW24584   4.508   6.580  10.688  0.6026 -0.3229  0.0676
 7061SOL    HW124585   4.516   6.498  10.639 -0.8247 -0.8580  0.6730
 7061SOL    HW224586   4.475   6.553  10.774 -2.2656  1.0479 -0.4930
 7062SOL     OW24587   8.590   2.301   1.845 -0.1377  0.3741 -0.2557
 7062SOL    HW124588   8.553   2.225   1.889 -1.2761  0.2892 -1.2890
 7062SOL    HW224589   8.619   2.359   1.916 -0.1125 -0.6054  0.5483
 7063SOL     OW24590   7.166   3.501   1.808 -0.3898 -0.5879  0.0603
 7063SOL    HW124591   7.214   3.567   1.757  0.2120  0.2363  1.6247
 7063SOL    HW224592   7.233   3.437   1.832 -0.2514  0.0126  1.3586
 7064SOL     OW24593   6.005   1.901  10.883 -0.4651 -0.0330  0.1122
 7064SOL    HW124594   5.963   1.971  10.834  1.6590  1.4262  0.2172
 7064SOL    HW224595   6.064   1.946  10.944  3.6434 -1.7464 -2.1536
 7065SOL     OW24596   4.254  10.434   6.232  0.1073 -0.0179  0.5795
 7065SOL    HW124597   4.193  10.456   6.303  0.1139 -0.3656  0.6982
 7065SOL    HW224598   4.221  10.480   6.156  0.2361  0.5591  0.8670
 7066SOL     OW24599   9.408   1.253   8.113 -0.7122 -0.2751 -0.1576
 7066SOL    HW124600   9.378   1.307   8.039  0.9652 -1.2022 -1.6021
 7066SOL    HW224601   9.493   1.219   8.084 -0.4611 -1.4615  1.8368
 7067SOL     OW24602   2.203   1.119   0.356  0.9081  0.1167  0.3365
 7067SOL    HW124603   2.211   1.023   0.357  0.0298  0.0133 -0.8891
 7067SOL    HW224604   2.250   1.147   0.435 -0.5663 -1.4417  1.8551
 7068SOL     OW24605   7.134   9.684   0.621 -0.2295  0.3315 -0.5082
 7068SOL    HW124606   7.184   9.754   0.578  0.8524  0.8574  1.4407
 7068SOL    HW224607   7.201   9.624   0.654 -0.8830  0.5873  1.4177
 7069SOL     OW24608   6.343   8.693  10.399 -0.2427  0.2650  0.5838
 7069SOL    HW124609   6.248   8.689  10.385 -0.5110  3.0535  1.0426
 7069SOL    HW224610   6.359   8.783  10.428  2.6403  0.0747 -0.1421
 7070SOL     OW24611   4.310   5.323   7.559  1.1847  0.0269  0.5065
 7070SOL    HW124612   4.396   5.332   7.601  1.3383 -0.1723  0.2311
 7070SOL    HW224613   4.249   5.362   7.622  1.2619 -1.2991  1.4450
 7071SOL     OW24614   7.738   3.486   3.845 -0.1867  0.1175 -0.6180
 7071SOL    HW124615   7.748   3.559   3.784 -0.7703  0.3698 -0.4222
 7071SOL    HW224616   7.714   3.412   3.791  1.4832 -0.2255 -0.9599
 7072SOL     OW24617   3.163   3.091   4.653  0.5940 -0.1625 -0.5556
 7072SOL    HW124618   3.145   3.173   4.608  1.1847 -0.2267 -0.9167
 7072SOL    HW224619   3.078   3.047   4.658  0.2996  0.4072 -0.4686
 7073SOL     OW24620   2.515   7.684   3.744 -0.3886 -0.2062 -0.6223
 7073SOL    HW124621   2.606   7.710   3.731 -0.3611 -0.2042 -0.4290
 7073SOL    HW224622   2.521   7.594   3.777 -0.4795 -0.4328 -1.2128
 7074SOL     OW24623   9.352   4.748   7.358 -0.3060  1.1529  0.0421
 7074SOL    HW124624   9.291   4.760   7.285  1.2468  1.9964 -1.1841
 7074SOL    HW224625   9.383   4.837   7.378  0.5659  0.7460  0.5613
 7075SOL     OW24626   2.336   5.039   8.439  0.1304  0.3634  0.0930
 7075SOL    HW124627   2.251   5.080   8.452  0.2545  1.0255 -1.0467
 7075SOL    HW224628   2.390   5.108   8.400  0.7408 -0.4817 -0.5992
 7076SOL     OW24629  10.702   6.255   8.515  0.1263  0.6775 -0.2651
 7076SOL    HW124630  10.779   6.225   8.466  0.9941  3.1208 -0.5534
 7076SOL    HW224631  10.636   6.271   8.447 -0.4412 -0.7232 -0.0833
 7077SOL     OW24632  10.173  10.306   7.132  0.4294 -0.4436  0.4108
 7077SOL    HW124633  10.081  10.331   7.137 -0.6718 -3.2547 -2.3722
 7077SOL    HW224634  10.175  10.215   7.162  2.1781 -0.6864 -0.3321
 7078SOL     OW24635   5.531   8.711   4.719  0.5433 -0.0972  0.2070
 7078SOL    HW124636   5.572   8.792   4.687  0.8974 -0.6476 -0.7846
 7078SOL    HW224637   5.496   8.734   4.805  0.2616  1.2298 -0.2402
 7079SOL     OW24638   0.422   3.662   6.479 -0.1318  0.0984  0.8924
 7079SOL    HW124639   0.442   3.695   6.391 -0.1231 -1.0868  0.4343
 7079SOL    HW224640   0.500   3.614   6.505 -0.1623  0.3869  1.5266
 7080SOL     OW24641   1.248   9.693   5.946 -0.0599  0.4276  0.6711
 7080SOL    HW124642   1.206   9.671   5.863  1.5433 -0.9776  0.1707
 7080SOL    HW224643   1.261   9.608   5.990  1.6832  0.8553  1.0466
 7081SOL     OW24644   7.668  10.430  10.398 -0.5573 -0.2041 -0.6966
 7081SOL    HW124645   7.599  10.422  10.464  0.2035 -0.0777  0.1200
 7081SOL    HW224646   7.748  10.403  10.442 -0.0083  0.0316 -1.5233
 7082SOL     OW24647   9.039  10.806   0.455  0.0285 -0.3278  0.3297
 7082SOL    HW124648   9.039  10.724   0.505  0.9983 -0.4458  0.1539
 7082SOL    HW224649   8.958  10.850   0.483 -0.2200 -1.0757  0.8559
 7083SOL     OW24650   2.181   6.465   9.236  0.0145  0.0924  0.0404
 7083SOL    HW124651   2.275   6.456   9.223 -0.0155  1.7206 -1.8533
 7083SOL    HW224652   2.157   6.394   9.295  2.4088 -0.3796  0.5282
 7084SOL     OW24653   0.605   6.515   8.006 -0.2822  0.0648 -0.2278
 7084SOL    HW124654   0.599   6.499   7.912 -0.0285  0.5425 -0.3317
 7084SOL    HW224655   0.595   6.610   8.014 -3.0700 -0.1934  0.4562
 7085SOL     OW24656   0.232  10.525   9.879  0.3302 -0.0649  0.5768
 7085SOL    HW124657   0.146  10.539   9.838  0.2344  0.9684  1.0932
 7085SOL    HW224658   0.248  10.431   9.869 -0.7977 -0.2521  0.3451
 7086SOL     OW24659   2.533   1.420   3.776 -0.0544  0.2632  0.0794
 7086SOL    HW124660   2.460   1.364   3.751  0.8060 -0.0149 -1.9826
 7086SOL    HW224661   2.492   1.494   3.821 -1.4708 -0.4645  0.0424
 7087SOL     OW24662  10.234   6.009   8.048 -0.6560 -0.1116  0.6094
 7087SOL    HW124663  10.230   6.104   8.055  0.1091 -0.0957  0.9286
 7087SOL    HW224664  10.254   5.979   8.137 -0.6476 -0.5545  0.4603
 7088SOL     OW24665   0.105  10.749   9.206 -0.8653  0.8970 -0.3550
 7088SOL    HW124666   0.122  10.713   9.119 -0.6512 -0.6609  0.2986
 7088SOL    HW224667   0.178  10.810   9.221 -0.6716  0.8554 -1.0911
 7089SOL     OW24668   1.897   0.623   0.356 -0.3025  0.1592 -0.0002
 7089SOL    HW124669   1.969   0.632   0.293 -0.5076  1.8885 -0.0400
 7089SOL    HW224670   1.840   0.557   0.317  0.3337  0.1044 -0.8817
 7090SOL     OW24671  10.571   9.935   6.007 -0.0807 -0.2758  0.1846
 7090SOL    HW124672  10.605   9.953   5.919 -0.4760 -0.3464  0.0127
 7090SOL    HW224673  10.476   9.944   5.997 -0.1430 -0.5445  0.5458
 7091SOL     OW24674   8.374   5.224   3.133  0.4505  0.7223 -0.0652
 7091SOL    HW124675   8.334   5.287   3.193 -1.0941  0.4108 -0.7283
 7091SOL    HW224676   8.367   5.265   3.047  2.2874  0.9827 -0.1419
 7092SOL     OW24677   7.624   2.966   8.303  0.7013 -0.4846  0.1361
 7092SOL    HW124678   7.717   2.944   8.297  1.8113  3.1398  0.9411
 7092SOL    HW224679   7.607   3.021   8.226  1.0970  3.8777  2.7873
 7093SOL     OW24680   4.313   5.558   5.863  0.0035  0.2486  0.2538
 7093SOL    HW124681   4.281   5.609   5.938  1.0210 -0.0438  0.9113
 7093SOL    HW224682   4.404   5.536   5.886  0.5006  0.5659 -1.2843
 7094SOL     OW24683   8.812  10.129   3.399  0.7762  0.0837 -0.1344
 7094SOL    HW124684   8.798  10.035   3.391  0.7847 -0.2481  2.8341
 7094SOL    HW224685   8.761  10.167   3.327 -0.8944 -2.0450 -0.1656
 7095SOL     OW24686   1.029   0.782   0.205  0.1196  0.5191  1.2153
 7095SOL    HW124687   0.961   0.786   0.138 -0.3656  2.5411  1.7665
 7095SOL    HW224688   0.996   0.717   0.268  0.2870 -0.9243 -0.1138
 7096SOL     OW24689   3.166   2.048   1.723 -0.1751 -0.7656 -0.2228
 7096SOL    HW124690   3.091   2.011   1.676  0.5653 -0.2988 -1.8542
 7096SOL    HW224691   3.159   2.142   1.710  0.2374 -0.6526  0.3349
 7097SOL     OW24692   9.099   5.880   3.783 -0.0563  0.1083  0.0166
 7097SOL    HW124693   9.093   5.903   3.876 -0.2503  0.9072 -0.1825
 7097SOL    HW224694   9.113   5.785   3.782 -1.0733 -0.0634  0.8316
 7098SOL     OW24695   2.849   3.282   4.612  0.2110 -0.7276 -0.0304
 7098SOL    HW124696   2.760   3.296   4.644  0.1678  0.2166 -0.5356
 7098SOL    HW224697   2.839   3.215   4.544  0.2298 -2.3384  1.4824
 7099SOL     OW24698   8.129   3.968   9.843  0.1955  0.1059  0.1033
 7099SOL    HW124699   8.050   3.953   9.791  0.4382  0.4392 -0.3709
 7099SOL    HW224700   8.194   3.910   9.804 -0.1699 -1.2439  1.3842
 7100SOL     OW24701   8.714   0.395  10.803 -0.5083  0.2810  0.2787
 7100SOL    HW124702   8.657   0.377  10.728 -0.9878  1.0047  0.4629
 7100SOL    HW224703   8.654   0.426  10.872  0.0431  0.5312  0.6518
 7101SOL     OW24704   1.517   1.152   3.395  0.1103  0.4101 -0.2790
 7101SOL    HW124705   1.482   1.090   3.460 -0.7883 -1.0223 -2.0113
 7101SOL    HW224706   1.471   1.234   3.412 -0.1886  0.0323  0.8048
 7102SOL     OW24707   8.720   9.853   3.364  0.1648  0.1799  0.0333
 7102SOL    HW124708   8.703   9.842   3.271  0.5035  0.3637 -0.0522
 7102SOL    HW224709   8.633   9.868   3.403 -0.1416 -1.2125 -0.0575
 7103SOL     OW24710   1.767   6.938   4.166  0.0755  0.3521 -0.6206
 7103SOL    HW124711   1.792   6.847   4.184 -0.6701  0.3416  0.3982
 7103SOL    HW224712   1.742   6.937   4.073 -1.0510 -0.7595 -0.3393
 7104SOL     OW24713   6.354   3.922   9.488 -1.0196  0.4549 -0.4692
 7104SOL    HW124714   6.316   3.887   9.568 -0.8898  0.0221 -0.5920
 7104SOL    HW224715   6.423   3.981   9.517  0.2216 -1.0473 -0.2690
 7105SOL     OW24716   3.068   6.731   2.289 -0.2871 -0.4783 -0.7841
 7105SOL    HW124717   3.077   6.782   2.369 -1.4988  1.5018 -1.8505
 7105SOL    HW224718   3.140   6.667   2.293  0.4523  0.4134  1.2393
 7106SOL     OW24719   3.820   4.466  10.701  0.4737 -0.2785 -0.0838
 7106SOL    HW124720   3.737   4.420  10.717  0.9221 -0.8231  0.7963
 7106SOL    HW224721   3.886   4.411  10.744  1.1698  0.6189  0.0312
 7107SOL     OW24722   8.693   8.969   4.950  0.3267 -0.1854  0.1667
 7107SOL    HW124723   8.784   8.940   4.958  0.5549  0.8367  1.8788
 7107SOL    HW224724   8.646   8.890   4.923  1.6992 -0.7356 -0.7664
 7108SOL     OW24725   3.033   5.182   3.388  0.4115 -0.6636 -0.3233
 7108SOL    HW124726   3.122   5.197   3.356 -0.6656  0.9034 -2.8928
 7108SOL    HW224727   3.036   5.094   3.424  3.6681  0.3179  2.4354
 7109SOL     OW24728   8.810   9.325   9.357 -0.0921  0.3676  0.2643
 7109SOL    HW124729   8.870   9.280   9.297  1.2734  2.5791 -0.1159
 7109SOL    HW224730   8.730   9.273   9.353  1.1047 -1.5290 -0.7785
 7110SOL     OW24731   3.956   1.916   9.253 -0.1350 -0.5629  0.7122
 7110SOL    HW124732   3.905   1.997   9.250 -1.6084 -1.4674 -2.4204
 7110SOL    HW224733   3.891   1.848   9.274  0.6397 -1.2221  1.0083
 7111SOL     OW24734   4.362   7.097   8.808 -0.5095  0.2019 -0.1904
 7111SOL    HW124735   4.369   7.004   8.783  1.2617  0.3226 -0.2576
 7111SOL    HW224736   4.272   7.121   8.785 -0.2761 -0.8527 -2.5072
 7112SOL     OW24737   4.747  10.466   4.555 -0.2077 -0.2393 -0.1436
 7112SOL    HW124738   4.692  10.427   4.487  0.5852 -1.1612 -0.2891
 7112SOL    HW224739   4.761  10.394   4.618  0.7176  0.0059 -0.0542
 7113SOL     OW24740   1.795   9.003   5.079  0.2754  0.0665 -0.2090
 7113SOL    HW124741   1.757   9.025   5.164  0.3348 -2.0201  0.3999
 7113SOL    HW224742   1.719   8.976   5.026 -0.0591  3.1930 -1.5452
 7114SOL     OW24743   3.483   7.570   7.884  0.1871  0.0970 -0.0351
 7114SOL    HW124744   3.431   7.508   7.935 -1.4228  1.5425  0.1497
 7114SOL    HW224745   3.572   7.533   7.886 -0.3914 -1.3527  1.4038
 7115SOL     OW24746   8.241   0.443   3.358  0.3331  0.5938  0.2690
 7115SOL    HW124747   8.236   0.509   3.289 -2.1361 -1.6467 -1.9171
 7115SOL    HW224748   8.305   0.380   3.327  0.6707  0.5552  1.0195
 7116SOL     OW24749   7.809   1.772   3.080  0.3518  0.3219 -0.7293
 7116SOL    HW124750   7.766   1.692   3.049  1.1652 -0.4526  0.0742
 7116SOL    HW224751   7.778   1.841   3.021 -2.4572 -0.0777  0.1419
 7117SOL     OW24752   5.374   0.764   0.893  0.3696  0.0479  0.6113
 7117SOL    HW124753   5.298   0.706   0.892  0.6785 -0.4834 -2.4262
 7117SOL    HW224754   5.346   0.840   0.944 -1.2999 -1.1969  1.6400
 7118SOL     OW24755   5.653   3.852   9.543  0.1901  0.1021 -0.0753
 7118SOL    HW124756   5.695   3.936   9.558  0.1381  0.1367 -0.1219
 7118SOL    HW224757   5.724   3.795   9.513 -0.0471  0.5498 -1.5680
 7119SOL     OW24758   8.154   5.404   6.282  0.6666 -0.0444  0.7860
 7119SOL    HW124759   8.234   5.364   6.248  0.1719 -1.2628  1.0150
 7119SOL    HW224760   8.120   5.455   6.208  1.2086 -0.1810  0.4361
 7120SOL     OW24761   7.308   0.817   1.115  0.3966 -0.3475 -0.2630
 7120SOL    HW124762   7.351   0.732   1.127  0.0321 -0.6466 -0.9875
 7120SOL    HW224763   7.373   0.871   1.071  0.5307 -0.3410 -0.0579
 7121SOL     OW24764   5.871   2.880   4.067  0.0432 -0.3176 -0.2840
 7121SOL    HW124765   5.793   2.934   4.078  0.6257  0.6985 -1.0369
 7121SOL    HW224766   5.846   2.813   4.004 -0.1895  0.0652 -0.5972
 7122SOL     OW24767   3.293   9.549  10.743  0.2217 -0.3061  0.0443
 7122SOL    HW124768   3.358   9.485  10.716 -1.6609 -1.3123 -2.5770
 7122SOL    HW224769   3.222   9.498  10.782 -0.3171  0.4208  0.0451
 7123SOL     OW24770   9.714   7.012   4.184 -0.1697  0.2698 -0.2317
 7123SOL    HW124771   9.793   6.971   4.219  0.2521  1.4113  0.1965
 7123SOL    HW224772   9.646   6.993   4.249 -0.3449 -1.0089 -0.7699
 7124SOL     OW24773   8.662   3.501   7.434  0.4969 -0.2210  0.3202
 7124SOL    HW124774   8.710   3.509   7.516  2.7281 -1.5768 -0.7517
 7124SOL    HW224775   8.729   3.511   7.366 -0.4471 -3.3916 -1.2664
 7125SOL     OW24776   3.035   9.441   5.678 -0.3400 -0.2120  0.3114
 7125SOL    HW124777   3.012   9.534   5.676  0.2466 -0.0382  1.0800
 7125SOL    HW224778   3.114   9.435   5.624 -0.8012 -0.3948 -0.3482
 7126SOL     OW24779   4.867  10.891   2.785 -0.8142  0.0131 -0.0903
 7126SOL    HW124780   4.892  10.938   2.705 -2.8042 -1.7760 -1.8601
 7126SOL    HW224781   4.804  10.949   2.828  0.7412  1.2731  0.6137
 7127SOL     OW24782   0.886  10.520   9.252  0.0412  0.1681  0.2471
 7127SOL    HW124783   0.829  10.443   9.254  1.4128 -0.9023 -0.4389
 7127SOL    HW224784   0.826  10.595   9.251 -1.3229 -0.8574  1.4558
 7128SOL     OW24785   6.019   4.585   4.602 -0.2362 -0.4780 -0.2294
 7128SOL    HW124786   5.936   4.590   4.648  0.2754 -0.1337  0.6716
 7128SOL    HW224787   6.085   4.600   4.669  0.4719  2.4952 -1.4319
 7129SOL     OW24788   0.337   2.917   3.399  0.2231 -0.3392 -0.8262
 7129SOL    HW124789   0.299   2.837   3.436 -0.5789 -0.8344 -2.6103
 7129SOL    HW224790   0.430   2.896   3.387  0.3284 -0.4482  0.1174
 7130SOL     OW24791   2.571   3.560   3.469  0.0951 -0.1041  0.3990
 7130SOL    HW124792   2.567   3.606   3.552  1.7615 -0.2249  0.5745
 7130SOL    HW224793   2.544   3.471   3.489  1.2132 -0.3226  0.9719
 7131SOL     OW24794   4.222   2.535   7.276  0.0491 -0.1529  0.0308
 7131SOL    HW124795   4.223   2.620   7.320 -0.6356  0.4377 -1.0412
 7131SOL    HW224796   4.299   2.489   7.310  0.5613  0.9835  0.4543
 7132SOL     OW24797   4.719   1.391   4.195  0.2444  0.4736 -0.3419
 7132SOL    HW124798   4.624   1.403   4.187  0.3886  1.9141 -0.0289
 7132SOL    HW224799   4.739   1.417   4.285  0.6631 -1.8445  0.2950
 7133SOL     OW24800   3.406   2.407   1.876  0.5076 -0.7322  0.1848
 7133SOL    HW124801   3.474   2.473   1.867 -0.2914  0.0122 -0.5861
 7133SOL    HW224802   3.397   2.395   1.971  0.1619  0.8174  0.3769
 7134SOL     OW24803  10.304   4.399   8.440  0.6731  0.2947  0.0769
 7134SOL    HW124804  10.346   4.313   8.442 -0.6079 -0.3901 -0.6490
 7134SOL    HW224805  10.257   4.401   8.356  0.4382  1.5914  0.2110
 7135SOL     OW24806   3.800   9.015   9.555  0.2592  0.0526 -0.1248
 7135SOL    HW124807   3.858   8.978   9.621  0.5390  0.4241 -0.1598
 7135SOL    HW224808   3.859   9.057   9.492 -0.0682  0.9768  0.1644
 7136SOL     OW24809   2.964   5.025   0.162 -0.0851 -0.0312 -0.2415
 7136SOL    HW124810   2.928   5.017   0.250 -0.6835  0.4755 -0.4352
 7136SOL    HW224811   3.058   5.013   0.173 -0.0207  1.1549  0.6371
 7137SOL     OW24812  10.776   2.616   9.600 -0.0646 -0.0863  0.2904
 7137SOL    HW124813  10.774   2.708   9.573 -0.5480 -0.4929 -1.1292
 7137SOL    HW224814  10.748   2.568   9.523  1.0781 -1.5125  0.7232
 7138SOL     OW24815   3.387   7.765   0.131 -0.8258 -0.0359  0.2457
 7138SOL    HW124816   3.406   7.814   0.051 -1.9314 -0.9714 -0.6338
 7138SOL    HW224817   3.426   7.816   0.201 -1.6396  1.9178 -0.6564
 7139SOL     OW24818  10.548   7.492   4.429 -0.0401 -0.3066 -0.3415
 7139SOL    HW124819  10.501   7.568   4.463  1.5492  0.3105  0.5673
 7139SOL    HW224820  10.479   7.433   4.398 -1.3295  1.2011 -0.4517
 7140SOL     OW24821   3.349   0.718   1.567  0.3104 -0.0395 -0.0932
 7140SOL    HW124822   3.317   0.708   1.657 -1.5402  0.6222 -0.6278
 7140SOL    HW224823   3.407   0.643   1.554 -2.4708 -2.4668  0.4203
 7141SOL     OW24824   6.237   8.959   2.853  0.2430 -0.0334 -0.0267
 7141SOL    HW124825   6.250   8.872   2.815  2.1279  0.8193 -1.5132
 7141SOL    HW224826   6.187   9.007   2.786 -2.2715 -0.3676  1.4790
 7142SOL     OW24827   3.394   1.488   7.470  0.2322  0.4823 -0.5215
 7142SOL    HW124828   3.438   1.540   7.537  1.9403  1.7552 -2.5105
 7142SOL    HW224829   3.372   1.552   7.401 -2.7678 -0.5052 -0.6374
 7143SOL     OW24830   1.913   0.419   1.409 -0.3008  0.2775  0.1397
 7143SOL    HW124831   1.915   0.402   1.503  0.0184  0.7624  0.2278
 7143SOL    HW224832   1.924   0.514   1.402 -0.7803  0.2983 -0.3705
 7144SOL     OW24833   6.976   8.611   2.191  0.4736 -0.8682  0.0271
 7144SOL    HW124834   6.918   8.594   2.265  2.2381 -1.4674  1.3368
 7144SOL    HW224835   6.936   8.565   2.117  0.5974 -3.4923  1.4994
 7145SOL     OW24836   6.168   9.728   9.911 -0.3574 -0.3784  0.1174
 7145SOL    HW124837   6.075   9.708   9.907 -0.0617 -1.9377  0.4314
 7145SOL    HW224838   6.206   9.680   9.837  0.3977 -1.0424  0.9121
 7146SOL     OW24839   7.065   7.718   8.851 -0.4515 -0.1270 -0.1568
 7146SOL    HW124840   7.134   7.782   8.833  1.0452 -1.0980  1.6954
 7146SOL    HW224841   6.983   7.767   8.842  0.6092  1.9678  0.8534
 7147SOL     OW24842   4.829   9.996   7.734  0.4578 -0.4843  0.3196
 7147SOL    HW124843   4.768  10.069   7.725  0.7690 -0.1651  0.7175
 7147SOL    HW224844   4.781   9.919   7.704 -0.1773 -0.2571  0.7388
 7148SOL     OW24845   1.342   8.065   4.340  0.6966 -0.1267  0.6126
 7148SOL    HW124846   1.288   8.072   4.261  1.7758 -0.6595 -0.1938
 7148SOL    HW224847   1.432   8.078   4.309  1.0818  0.3851  1.8768
 7149SOL     OW24848   7.090   0.441   4.431 -0.0540 -0.0022  0.1581
 7149SOL    HW124849   7.120   0.350   4.423 -0.5833 -0.2929  1.3199
 7149SOL    HW224850   7.144   0.489   4.368 -0.1352 -1.1952 -0.8609
 7150SOL     OW24851   9.324  10.846   0.667 -0.0975 -0.3050  0.1286
 7150SOL    HW124852   9.325  10.935   0.704  0.2835  0.3396 -1.3578
 7150SOL    HW224853   9.413  10.833   0.635  0.1783 -1.7132  1.3808
 7151SOL     OW24854   2.163   8.422   1.282  0.3926 -0.3324 -0.2245
 7151SOL    HW124855   2.229   8.486   1.307  1.5895 -1.3832 -0.6349
 7151SOL    HW224856   2.080   8.460   1.313  0.9638  1.7321 -1.0732
 7152SOL     OW24857   4.545   4.055  10.796  0.8991  0.0443  0.1232
 7152SOL    HW124858   4.484   4.127  10.779  2.2937  0.9924 -1.2393
 7152SOL    HW224859   4.508   4.009  10.871  0.1860  2.4892  1.3837
 7153SOL     OW24860   8.298   2.681   4.579 -0.1088 -0.0622 -0.1776
 7153SOL    HW124861   8.292   2.730   4.661  0.3055  0.5532 -0.5095
 7153SOL    HW224862   8.323   2.593   4.605  1.8779  0.5850  0.2287
 7154SOL     OW24863   2.033   0.810   7.246 -0.1800 -0.4173  0.1408
 7154SOL    HW124864   2.000   0.791   7.333 -0.2721 -0.0661  0.1828
 7154SOL    HW224865   2.015   0.731   7.195 -0.2267 -0.5781  0.4101
 7155SOL     OW24866   4.361   6.514   3.124  0.7844 -0.0011 -0.8771
 7155SOL    HW124867   4.349   6.578   3.194  1.6591  0.4319 -1.1058
 7155SOL    HW224868   4.289   6.531   3.063  0.7226  0.4260 -0.6865
 7156SOL     OW24869   4.379   5.342   6.249 -0.2720 -0.3296  0.3750
 7156SOL    HW124870   4.332   5.262   6.272 -2.7801  0.9168 -0.0427
 7156SOL    HW224871   4.413   5.325   6.161 -0.4463 -1.0519  0.4378
 7157SOL     OW24872   1.072   0.571   1.628 -0.2190  0.3281  0.1841
 7157SOL    HW124873   1.082   0.483   1.665 -1.9285 -0.7116 -1.6275
 7157SOL    HW224874   1.159   0.591   1.592  0.0516 -0.8612  0.1175
 7158SOL     OW24875   5.801   9.283   3.965  0.0222 -1.1162 -0.4970
 7158SOL    HW124876   5.843   9.341   4.028  1.0169 -0.4585 -1.7015
 7158SOL    HW224877   5.871   9.258   3.905 -0.8052 -2.0117 -1.1309
 7159SOL     OW24878   0.389   0.112   2.067  0.5328 -0.1039  0.1947
 7159SOL    HW124879   0.458   0.126   2.132  2.4742 -1.3657 -1.4332
 7159SOL    HW224880   0.356   0.199   2.048 -0.2172  0.2869  2.9005
 7160SOL     OW24881   4.672   3.103   5.309 -0.6498 -0.0761 -0.5579
 7160SOL    HW124882   4.651   3.010   5.318 -2.1029  0.2700 -0.1379
 7160SOL    HW224883   4.606   3.137   5.249 -0.7209  0.8778  0.0412
 7161SOL     OW24884   0.411  10.432   2.300  0.7397 -0.0996 -0.2446
 7161SOL    HW124885   0.360  10.513   2.301  0.7634 -0.0842  0.9279
 7161SOL    HW224886   0.502  10.461   2.307  0.8247 -0.1956 -0.8637
 7162SOL     OW24887   5.132   5.677   7.831  0.2925 -0.2999  0.3880
 7162SOL    HW124888   5.115   5.593   7.875  1.2615 -0.0922  1.2020
 7162SOL    HW224889   5.108   5.743   7.896 -0.1544  0.0459 -0.1302
 7163SOL     OW24890   6.322   4.731   3.368 -0.2458  0.2798 -0.0470
 7163SOL    HW124891   6.358   4.814   3.398  1.6278 -0.4722 -0.0891
 7163SOL    HW224892   6.262   4.755   3.298  0.6593  1.5748 -0.4168
 7164SOL     OW24893   9.865   3.247  10.645 -0.3718  0.4543  0.4084
 7164SOL    HW124894   9.780   3.283  10.670 -0.4162  0.4507  0.2575
 7164SOL    HW224895   9.860   3.155  10.669 -0.2538  0.5468  0.8070
 7165SOL     OW24896   2.398   6.798   1.012  0.0732  0.4840 -0.2266
 7165SOL    HW124897   2.365   6.886   1.026  0.2148  0.3518  1.1094
 7165SOL    HW224898   2.322   6.747   0.984 -0.0829  0.9402 -0.6327
 7166SOL     OW24899   0.109   4.107   9.521  0.2294 -0.2893 -0.0449
 7166SOL    HW124900   0.149   4.085   9.438  0.3122 -0.5361  0.0594
 7166SOL    HW224901   0.024   4.144   9.498  0.0970 -0.7057 -0.2208
 7167SOL     OW24902  10.735  10.088   8.409  0.1571  0.0282  0.6271
 7167SOL    HW124903  10.814  10.127   8.370  0.6465 -2.4124 -1.0329
 7167SOL    HW224904  10.764  10.055   8.494  0.2894  1.2299  1.0658
 7168SOL     OW24905   8.469   0.218   6.372  0.3299  0.5150 -0.1211
 7168SOL    HW124906   8.439   0.215   6.463 -0.3058  0.3615 -0.3297
 7168SOL    HW224907   8.556   0.179   6.374  1.3562  2.7103  0.8105
 7169SOL     OW24908   1.293   6.974   1.184  0.0748 -0.2272  0.0113
 7169SOL    HW124909   1.306   7.047   1.244 -1.6569  0.1642 -0.0195
 7169SOL    HW224910   1.243   6.910   1.234  0.1169 -0.6476 -0.4788
 7170SOL     OW24911   6.009   6.959   2.741 -0.3425 -0.0888  0.0767
 7170SOL    HW124912   6.016   6.958   2.836  1.1671  2.5286  0.0966
 7170SOL    HW224913   6.017   7.052   2.717 -0.4575 -0.6799 -2.6125
 7171SOL     OW24914   0.581   3.454   0.430  0.2600 -0.1566  0.4353
 7171SOL    HW124915   0.538   3.420   0.352  1.5133  0.2235 -0.4484
 7171SOL    HW224916   0.581   3.380   0.491  0.8423 -1.0277 -0.5849
 7172SOL     OW24917   3.452   3.707   9.418 -0.1506  0.3446 -0.6268
 7172SOL    HW124918   3.363   3.706   9.455  0.1073 -3.0888  0.2710
 7172SOL    HW224919   3.447   3.770   9.346 -3.8299 -0.8588 -1.6713
 7173SOL     OW24920   1.213   4.106  10.205 -0.3342 -0.1852  0.4120
 7173SOL    HW124921   1.277   4.115  10.135 -1.2586 -0.5772 -0.5158
 7173SOL    HW224922   1.228   4.019  10.241  0.0258 -0.0510  0.5880
 7174SOL     OW24923   5.025  10.074   4.647 -0.0994 -0.5141  0.5646
 7174SOL    HW124924   5.048  10.150   4.700  3.8299 -0.7508 -0.5095
 7174SOL    HW224925   4.988  10.111   4.567  0.0961  0.1769  0.7885
 7175SOL     OW24926   6.432   5.684   2.044 -0.5524 -0.6995 -0.2752
 7175SOL    HW124927   6.367   5.644   2.103  0.0194 -0.4776  0.5182
 7175SOL    HW224928   6.515   5.677   2.091  0.3147 -2.3895 -1.9328
 7176SOL     OW24929  10.822   6.609   4.823  0.0384  0.0502 -0.7027
 7176SOL    HW124930  10.876   6.557   4.763  2.0087  0.0289  0.9719
 7176SOL    HW224931  10.835   6.568   4.908 -1.5011  0.9601  0.0111
 7177SOL     OW24932   2.255   2.148   1.742 -0.4760 -0.2369 -0.1155
 7177SOL    HW124933   2.169   2.140   1.702 -1.4041 -0.6143  1.8376
 7177SOL    HW224934   2.285   2.058   1.756 -0.2757 -0.1190  0.2466
 7178SOL     OW24935   2.594   1.972   0.892  0.5354  0.1870 -0.1912
 7178SOL    HW124936   2.664   1.997   0.831  0.7842 -0.3120 -0.1218
 7178SOL    HW224937   2.636   1.910   0.951  0.6111  1.5505  1.2276
 7179SOL     OW24938   3.014   5.544   2.430  0.5779 -0.4878  0.1151
 7179SOL    HW124939   3.056   5.525   2.346  0.3056 -1.9162  0.2804
 7179SOL    HW224940   2.976   5.460   2.458  0.7102 -0.0530  1.7002
 7180SOL     OW24941   9.214   1.851   9.753 -0.4376 -0.2306 -0.3190
 7180SOL    HW124942   9.234   1.792   9.681 -0.4111  0.2614 -0.7258
 7180SOL    HW224943   9.200   1.936   9.711  2.0484  0.6585  0.4566
 7181SOL     OW24944   0.415   7.027   1.725  0.0986 -0.7060  0.2225
 7181SOL    HW124945   0.475   6.955   1.708 -1.0467 -2.1350  1.8570
 7181SOL    HW224946   0.423   7.044   1.819  0.5779  1.5768 -0.1575
 7182SOL     OW24947   4.885   7.298   2.651 -0.4968 -0.6419  0.1412
 7182SOL    HW124948   4.960   7.347   2.686 -0.3689 -0.2687 -0.6323
 7182SOL    HW224949   4.893   7.211   2.689  1.0680 -1.0001 -0.9138
 7183SOL     OW24950  10.058   0.472   2.718 -0.4183 -0.2694  0.5228
 7183SOL    HW124951  10.073   0.521   2.638  0.9220 -0.2966  0.7289
 7183SOL    HW224952  10.146   0.453   2.751 -0.9401 -0.1086  2.0873
 7184SOL     OW24953   1.555   7.014   8.191  0.1466 -0.1052 -0.1042
 7184SOL    HW124954   1.501   6.956   8.138 -0.6138  2.0987 -1.9045
 7184SOL    HW224955   1.639   7.016   8.145  0.7695 -1.0979  0.9454
 7185SOL     OW24956   2.332   6.135   5.564 -0.2751 -0.1599  1.0912
 7185SOL    HW124957   2.324   6.054   5.513 -1.5500  0.1411  0.7729
 7185SOL    HW224958   2.358   6.201   5.499  0.9750 -0.3363  1.3892
 7186SOL     OW24959   0.508   8.162  10.525 -0.2926 -0.5150 -0.0606
 7186SOL    HW124960   0.435   8.162  10.463 -1.0746 -1.6026  0.8317
 7186SOL    HW224961   0.492   8.239  10.580 -0.0119  0.0115 -0.6895
 7187SOL     OW24962   6.988   9.848   7.541 -0.1868 -0.2482 -0.3386
 7187SOL    HW124963   7.079   9.874   7.560  0.7140 -2.9123 -0.5893
 7187SOL    HW224964   6.983   9.848   7.445  0.1264 -1.7233 -0.3805
 7188SOL     OW24965   8.845   3.265   9.439 -0.1797 -0.5386 -0.0481
 7188SOL    HW124966   8.849   3.202   9.367  1.0856  0.0958 -0.5731
 7188SOL    HW224967   8.821   3.213   9.516 -1.9908 -1.1568 -0.9728
 7189SOL     OW24968   5.759   3.902   2.125 -0.0428  0.1431 -0.2053
 7189SOL    HW124969   5.671   3.880   2.095  0.4420  0.3135 -1.8298
 7189SOL    HW224970   5.767   3.997   2.111  0.7289 -0.0280 -1.0230
 7190SOL     OW24971   1.563   3.814   3.099  0.5668 -0.4882 -0.6613
 7190SOL    HW124972   1.624   3.856   3.039  1.2334 -0.9530 -0.3252
 7190SOL    HW224973   1.477   3.849   3.076  0.8336 -0.5697 -1.8009
 7191SOL     OW24974   9.387   7.018   9.901  0.1125  0.1270  0.5000
 7191SOL    HW124975   9.463   7.056   9.944 -0.0058 -0.9285  1.6772
 7191SOL    HW224976   9.423   6.977   9.821  0.4774  1.2320  0.0793
 7192SOL     OW24977   7.064   6.994   3.982  0.0164  0.4902 -0.5191
 7192SOL    HW124978   7.153   7.016   4.006 -0.2840  0.9361  0.2044
 7192SOL    HW224979   7.068   6.902   3.956  0.3650  0.0036  1.1670
 7193SOL     OW24980   2.484   8.448   1.905  0.3955  0.8590 -0.1689
 7193SOL    HW124981   2.401   8.465   1.949  0.6705 -1.8889  1.7195
 7193SOL    HW224982   2.505   8.358   1.930  2.6459  0.5509 -2.7632
 7194SOL     OW24983   1.395   0.968   7.614 -0.4703  0.0030 -0.4016
 7194SOL    HW124984   1.311   1.015   7.614 -0.3857  0.1535 -0.4545
 7194SOL    HW224985   1.394   0.919   7.532 -0.2118  0.5309 -0.7249
 7195SOL     OW24986   5.923   6.474  10.191  0.0440 -0.5128 -0.0939
 7195SOL    HW124987   5.983   6.489  10.118 -1.2221 -1.8773 -1.4703
 7195SOL    HW224988   5.977   6.435  10.259  0.8641 -1.0160 -1.0208
 7196SOL     OW24989   3.978   2.007   6.075  0.2610 -0.5120  0.2191
 7196SOL    HW124990   3.900   1.957   6.099  1.3001 -1.5674  1.5882
 7196SOL    HW224991   4.043   1.940   6.053  0.7132  0.3564 -1.1416
 7197SOL     OW24992  10.801   7.850   3.874  0.8982  0.2673 -0.5668
 7197SOL    HW124993  10.787   7.943   3.855  3.0573  0.1696 -3.2146
 7197SOL    HW224994  10.894   7.843   3.893  0.3655 -1.0945  2.0477
 7198SOL     OW24995   3.097   6.222   9.881  0.2287  0.1742 -0.1019
 7198SOL    HW124996   3.172   6.233   9.823  0.3177  1.1350  0.1818
 7198SOL    HW224997   3.096   6.129   9.902  0.3816 -0.1400 -1.3908
 7199SOL     OW24998   3.637   8.622   3.930 -0.1070 -0.3446 -0.1387
 7199SOL    HW124999   3.624   8.625   3.835  0.5480 -1.2657 -0.2683
 7199SOL    HW225000   3.732   8.623   3.942 -0.1806 -0.3878  0.5034
 7200SOL     OW25001   4.375   9.144   4.034  0.1441 -0.2682  0.1410
 7200SOL    HW125002   4.365   9.096   4.116  0.1000 -0.6931 -0.1122
 7200SOL    HW225003   4.316   9.101   3.973  0.0357  0.1652 -0.0655
 7201SOL     OW25004   5.612   7.544   1.222 -0.2131 -0.2054 -0.1582
 7201SOL    HW125005   5.659   7.487   1.161  0.9432 -1.5824  1.9420
 7201SOL    HW225006   5.655   7.629   1.213  1.4989 -0.9835  0.3761
 7202SOL     OW25007   9.497   3.396   1.310 -0.2430 -0.4400  0.3067
 7202SOL    HW125008   9.430   3.361   1.368  0.7903  0.7710  2.3528
 7202SOL    HW225009   9.576   3.345   1.329  0.0186 -0.3062 -0.3544
 7203SOL     OW25010   3.363   1.474  10.361 -0.2440 -0.3825  0.1754
 7203SOL    HW125011   3.384   1.380  10.363  0.6123 -0.2596 -1.5823
 7203SOL    HW225012   3.446   1.517  10.381 -0.5602  0.0267  0.6316
 7204SOL     OW25013   0.819   4.838   1.854  0.3019  0.3680  0.3198
 7204SOL    HW125014   0.910   4.830   1.884  0.0138  0.3936  1.2438
 7204SOL    HW225015   0.776   4.892   1.921 -0.1073  1.4005 -0.7539
 7205SOL     OW25016   9.913   2.193   1.018  0.3891  0.2505  0.2892
 7205SOL    HW125017   9.905   2.215   0.925 -0.4387 -1.5109 -0.1051
 7205SOL    HW225018   9.983   2.128   1.022 -0.4421 -0.6636  0.6654
 7206SOL     OW25019   2.757  10.000   1.202  0.1481 -0.4310 -0.0652
 7206SOL    HW125020   2.681  10.040   1.159 -1.2478 -2.4733  0.3951
 7206SOL    HW225021   2.790   9.936   1.139  0.9331 -0.2300  0.1203
 7207SOL     OW25022   5.055   2.554   6.874 -0.0491  0.2707  0.2791
 7207SOL    HW125023   5.055   2.649   6.874  2.0598  0.3285  0.6825
 7207SOL    HW225024   5.027   2.530   6.786  0.6904  1.3120 -0.2649
 7208SOL     OW25025  10.771   4.846   9.952  0.5620  0.4228 -0.0871
 7208SOL    HW125026  10.702   4.912   9.959 -0.5152 -0.6843  0.1229
 7208SOL    HW225027  10.834   4.870  10.021 -1.4330 -0.5560  2.2459
 7209SOL     OW25028   1.639  10.047   5.155  0.4864  0.3716 -0.6892
 7209SOL    HW125029   1.585  10.085   5.225  1.6992  0.3891  0.2674
 7209SOL    HW225030   1.704   9.994   5.201  2.2971  1.6224 -1.6774
 7210SOL     OW25031   3.773   1.047   8.424  0.6013  0.5042 -0.6361
 7210SOL    HW125032   3.803   1.014   8.509  1.1197  1.7061 -0.3296
 7210SOL    HW225033   3.729   1.130   8.445  0.7576  0.8229 -1.5495
 7211SOL     OW25034   4.146   3.503   4.077 -0.0202  0.7005  0.6128
 7211SOL    HW125035   4.171   3.424   4.028  3.4005  2.2349 -0.4402
 7211SOL    HW225036   4.090   3.471   4.147 -0.2378 -2.4017 -0.7886
 7212SOL     OW25037   9.968   4.101   3.625  0.2376 -0.5433  0.4948
 7212SOL    HW125038   9.882   4.136   3.602 -0.0235 -1.3374  0.2298
 7212SOL    HW225039  10.029   4.169   3.599 -0.2419 -0.3834 -0.2534
 7213SOL     OW25040   6.045   9.522   8.417  0.4728  0.1594 -0.3950
 7213SOL    HW125041   6.039   9.442   8.365  0.2451 -0.2657  0.2741
 7213SOL    HW225042   6.001   9.589   8.364  1.3905  0.0403 -1.3252
 7214SOL     OW25043   6.240   0.203   1.428 -0.0932  0.1498 -0.0949
 7214SOL    HW125044   6.206   0.244   1.508 -1.0807 -0.3169 -0.2549
 7214SOL    HW225045   6.286   0.125   1.459  0.5901  0.6238  0.1037
 7215SOL     OW25046   7.496   0.323   5.693  0.4883 -0.4338  0.2602
 7215SOL    HW125047   7.483   0.362   5.607  0.3793  1.4454  1.0928
 7215SOL    HW225048   7.436   0.248   5.695 -0.0713 -0.0367 -1.0048
 7216SOL     OW25049   2.903   8.247   7.473  0.0949 -0.0237 -0.0140
 7216SOL    HW125050   2.883   8.208   7.559 -0.2351 -1.2727 -0.6372
 7216SOL    HW225051   2.907   8.173   7.413 -2.7244  0.9973 -1.6732
 7217SOL     OW25052  10.366   2.408   4.455 -0.4966 -0.3501 -0.0306
 7217SOL    HW125053  10.426   2.436   4.524 -0.3332 -1.5513  0.3367
 7217SOL    HW225054  10.285   2.387   4.501 -0.8210  0.1044 -0.3792
 7218SOL     OW25055   7.966   1.059   8.585 -0.1218  0.0190  0.4581
 7218SOL    HW125056   8.040   1.001   8.570  0.7419  1.1021  0.4225
 7218SOL    HW225057   8.000   1.128   8.642 -0.9152  0.9077 -0.1046
 7219SOL     OW25058  10.673  10.898   4.166 -0.6043  0.1952  0.0339
 7219SOL    HW125059  10.762  10.905   4.133 -0.3237 -1.7968  0.2520
 7219SOL    HW225060  10.644  10.810   4.140 -2.9764  1.2107 -1.1223
 7220SOL     OW25061   6.885   3.218   0.589 -0.0733  0.0377  0.0520
 7220SOL    HW125062   6.908   3.127   0.608  0.0403  0.3110  1.2704
 7220SOL    HW225063   6.809   3.236   0.645 -2.0569 -0.1967 -2.3679
 7221SOL     OW25064  10.693   2.672   6.880  0.8087  0.6484  0.2105
 7221SOL    HW125065  10.638   2.679   6.802  2.0708 -2.7079 -1.1183
 7221SOL    HW225066  10.779   2.704   6.852  0.9366  0.7060  0.6594
 7222SOL     OW25067   0.439   1.582   1.848 -0.0912  0.3152  0.0605
 7222SOL    HW125068   0.414   1.490   1.851  1.1218 -0.0304 -0.2094
 7222SOL    HW225069   0.534   1.582   1.855  0.0645  1.4639 -1.4826
 7223SOL     OW25070   5.047   6.884   1.786 -0.1967  0.1003 -0.2534
 7223SOL    HW125071   5.129   6.906   1.741  0.4616 -2.4497 -0.4824
 7223SOL    HW225072   5.075   6.828   1.859 -1.5843  1.0540  1.0643
 7224SOL     OW25073   1.899   3.998  10.781 -0.0252 -0.1986 -0.4506
 7224SOL    HW125074   1.987   3.978  10.750 -0.0676 -0.2519 -0.5345
 7224SOL    HW225075   1.864   4.059  10.716 -0.0795 -0.2387 -0.4586
 7225SOL     OW25076  10.053   8.596   3.863  0.1919  0.4766  0.3792
 7225SOL    HW125077  10.102   8.634   3.936 -0.4599 -0.0798  1.1226
 7225SOL    HW225078   9.963   8.590   3.895 -0.0875  0.1413 -0.4427
 7226SOL     OW25079   4.390   6.121   6.034 -0.6640 -0.8494  0.1353
 7226SOL    HW125080   4.377   6.204   5.988  2.7513 -0.3651 -0.2116
 7226SOL    HW225081   4.362   6.139   6.124 -3.0320 -0.4128 -0.6054
 7227SOL     OW25082   1.339   3.654   2.556  0.1259  0.8353 -0.4096
 7227SOL    HW125083   1.369   3.685   2.642  1.5351 -0.7039 -0.2966
 7227SOL    HW225084   1.246   3.679   2.553  0.1241  1.2280  1.4157
 7228SOL     OW25085   4.522   7.865  10.328 -0.1348  0.7612 -0.1812
 7228SOL    HW125086   4.564   7.839  10.246  2.3075 -0.7696  1.4076
 7228SOL    HW225087   4.447   7.807  10.336  1.0014 -0.7748 -0.2338
 7229SOL     OW25088   1.872   9.143   8.942 -0.2848  0.5759 -0.1484
 7229SOL    HW125089   1.809   9.185   8.884  0.6365 -0.3961 -1.9194
 7229SOL    HW225090   1.947   9.122   8.886  0.6315 -0.4521  1.3745
 7230SOL     OW25091   0.620  10.195   7.657 -0.3262 -0.0444  0.4079
 7230SOL    HW125092   0.525  10.198   7.671 -0.2227  1.9050  1.0424
 7230SOL    HW225093   0.653  10.146   7.733 -0.9529 -3.2979 -1.2276
 7231SOL     OW25094   1.633   1.668   5.086 -0.2341  0.2290 -0.0630
 7231SOL    HW125095   1.615   1.675   4.992  1.4901  1.4624 -0.3597
 7231SOL    HW225096   1.565   1.720   5.127 -1.5755 -1.0934 -0.5152
 7232SOL     OW25097   6.833   9.496   4.052  0.2251 -0.0563  0.3688
 7232SOL    HW125098   6.912   9.443   4.064  1.1875  1.3329  0.4932
 7232SOL    HW225099   6.783   9.450   3.985  1.9477 -0.1434 -0.9441
 7233SOL     OW25100   0.817   3.109   7.385  0.1204 -0.2232 -0.1858
 7233SOL    HW125101   0.878   3.119   7.312  1.5961 -0.6191  0.9576
 7233SOL    HW225102   0.806   3.015   7.394  0.6207 -0.2085  0.6350
 7234SOL     OW25103   5.648   5.657   4.099  0.0010 -0.0096 -0.2787
 7234SOL    HW125104   5.640   5.614   4.185  0.0749 -0.2156 -0.3738
 7234SOL    HW225105   5.603   5.598   4.039  1.8745 -1.0252 -0.7723
 7235SOL     OW25106   3.318   3.323   5.593 -0.3053 -0.2282  0.0869
 7235SOL    HW125107   3.250   3.384   5.565 -0.4762  0.2023  1.3640
 7235SOL    HW225108   3.280   3.276   5.666 -0.2814 -2.1252 -1.0634
 7236SOL     OW25109   6.698   9.484   0.682  0.0162  0.1778 -0.1199
 7236SOL    HW125110   6.779   9.513   0.725 -0.3756  0.2689  0.5717
 7236SOL    HW225111   6.723   9.469   0.591  0.6172  1.0395 -0.1065
 7237SOL     OW25112   2.069   7.170   7.534  0.0763  0.3494  0.0198
 7237SOL    HW125113   2.029   7.214   7.459 -2.0392 -1.2967  0.0905
 7237SOL    HW225114   2.136   7.114   7.496 -3.1173 -3.0093 -1.2680
 7238SOL     OW25115   3.555   7.882   6.577  0.0842 -0.2893  0.0164
 7238SOL    HW125116   3.500   7.893   6.655  1.5819  0.3907  1.0219
 7238SOL    HW225117   3.567   7.970   6.542 -0.7342 -0.6072 -1.1418
 7239SOL     OW25118   6.618   3.304   4.277  0.0912 -0.2195  0.5576
 7239SOL    HW125119   6.599   3.253   4.198 -0.7602  0.1059  0.5412
 7239SOL    HW225120   6.565   3.263   4.345 -1.4916  1.3130  0.2997
 7240SOL     OW25121   5.291   3.568   3.696 -0.7892 -0.6439  0.3590
 7240SOL    HW125122   5.315   3.596   3.784  1.4954 -0.0884 -0.3648
 7240SOL    HW225123   5.307   3.473   3.695  2.6123 -0.1851 -0.3424
 7241SOL     OW25124   8.035   6.914   8.975 -0.4241 -0.0085 -0.1541
 7241SOL    HW125125   8.055   6.912   9.069  1.9590 -0.0259 -0.6032
 7241SOL    HW225126   8.064   6.830   8.942 -0.3049  0.3796 -1.0655
 7242SOL     OW25127   2.952   8.237   1.119 -0.2279 -0.6630 -0.5735
 7242SOL    HW125128   2.904   8.274   1.045 -1.4862 -1.4417 -0.1705
 7242SOL    HW225129   3.039   8.219   1.084 -0.4094  0.1857 -1.4999
 7243SOL     OW25130   6.196   1.193   5.690  0.4273  0.2145 -0.0683
 7243SOL    HW125131   6.175   1.100   5.680  1.8497 -0.1041 -0.3252
 7243SOL    HW225132   6.189   1.209   5.784 -1.0143  0.1698 -0.1474
 7244SOL     OW25133  10.073   8.382   1.318 -0.1093 -0.7280 -0.5442
 7244SOL    HW125134  10.105   8.291   1.321 -0.0005 -0.7394 -1.4788
 7244SOL    HW225135  10.016   8.383   1.241  1.7259  0.5488 -1.9848
 7245SOL     OW25136   0.631   3.658   4.207  0.3713 -0.5477  0.1257
 7245SOL    HW125137   0.714   3.693   4.173 -0.2786  0.5625 -0.3526
 7245SOL    HW225138   0.603   3.595   4.141 -0.2629  0.6994 -0.8339
 7246SOL     OW25139   2.445   3.347   6.497 -0.1498 -0.1452  0.2189
 7246SOL    HW125140   2.503   3.278   6.466 -2.0714 -2.1395  0.8301
 7246SOL    HW225141   2.431   3.328   6.589  0.1932  1.7969  0.7218
 7247SOL     OW25142  10.887   9.598   6.958 -0.2915 -0.0139  0.3391
 7247SOL    HW125143  10.958   9.649   6.996 -1.3927  1.8367  0.0651
 7247SOL    HW225144  10.814   9.609   7.019 -1.3942  1.1282 -1.0935
 7248SOL     OW25145   2.964   0.130   3.936  0.0597  0.0582  0.0505
 7248SOL    HW125146   3.029   0.104   4.002  2.4796  2.8922 -1.0084
 7248SOL    HW225147   3.003   0.104   3.853  0.6359  3.0386 -0.7116
 7249SOL     OW25148   2.668   9.474   2.225 -0.5155  0.0352 -0.0135
 7249SOL    HW125149   2.680   9.519   2.308 -0.0183  0.5772 -0.3658
 7249SOL    HW225150   2.742   9.413   2.220 -1.8065 -1.6946  0.9860
 7250SOL     OW25151   3.275   3.528  10.190 -0.3090 -0.2837 -0.7979
 7250SOL    HW125152   3.302   3.467  10.122  0.5004  0.6009 -1.2987
 7250SOL    HW225153   3.311   3.613  10.161 -0.9669  0.3235  0.1280
 7251SOL     OW25154   8.741   5.655  10.485  0.3860 -0.3331 -0.1586
 7251SOL    HW125155   8.693   5.581  10.523  0.0997 -0.9111 -1.5531
 7251SOL    HW225156   8.767   5.708  10.560 -0.1031 -1.4263  0.8247
 7252SOL     OW25157   8.484   2.859   6.839  0.6305  0.5955 -0.2187
 7252SOL    HW125158   8.395   2.877   6.869  0.2590  0.9769 -1.4792
 7252SOL    HW225159   8.540   2.892   6.909 -0.2126  0.7751  0.3868
 7253SOL     OW25160   5.272   1.128  10.671 -0.0675 -0.0737 -0.0201
 7253SOL    HW125161   5.316   1.055  10.628  0.5009  0.4215 -0.2968
 7253SOL    HW225162   5.235   1.090  10.751 -1.4015 -1.0778 -1.0587
 7254SOL     OW25163   4.174   1.089   6.762  0.8146  0.2106 -0.0271
 7254SOL    HW125164   4.242   1.092   6.829  0.8312 -0.7488  0.0124
 7254SOL    HW225165   4.220   1.062   6.682  0.9464  2.1572 -0.6446
 7255SOL     OW25166   3.332  10.335   5.281 -0.4795 -0.2403 -0.1960
 7255SOL    HW125167   3.419  10.339   5.321 -0.5704 -1.0097  0.0963
 7255SOL    HW225168   3.279  10.285   5.344 -0.8638 -0.6696 -0.8553
 7256SOL     OW25169   0.809   4.317   7.512 -0.4116 -0.3485  0.5587
 7256SOL    HW125170   0.794   4.271   7.594  0.7870 -1.4053  0.2046
 7256SOL    HW225171   0.857   4.255   7.457  0.6330  1.0501 -0.1894
 7257SOL     OW25172   5.656   1.126   7.941 -0.6298 -0.2414  0.4257
 7257SOL    HW125173   5.654   1.152   7.849 -1.1519 -0.1400  0.4623
 7257SOL    HW225174   5.566   1.097   7.960 -1.0114  1.4285  1.3951
 7258SOL     OW25175   9.447  10.210   7.543  0.0310 -0.3016 -0.4683
 7258SOL    HW125176   9.460  10.162   7.625  0.1048  0.9318  0.2734
 7258SOL    HW225177   9.357  10.242   7.548  0.6611  1.5447  0.1481
 7259SOL     OW25178   2.470   0.476   4.311 -0.2322  0.5251 -0.4838
 7259SOL    HW125179   2.496   0.384   4.304 -2.3340 -0.1282 -0.2771
 7259SOL    HW225180   2.484   0.498   4.403 -1.6920 -0.2674 -0.0379
 7260SOL     OW25181   8.911   1.288   0.752 -0.3360  0.0645 -0.6116
 7260SOL    HW125182   9.003   1.284   0.726 -0.8533 -1.8388 -2.3354
 7260SOL    HW225183   8.882   1.376   0.724  1.0559  0.9126  0.4933
 7261SOL     OW25184   9.989   4.539  10.729 -0.1145 -0.1965  0.3931
 7261SOL    HW125185   9.902   4.505  10.751 -1.1848  0.8686 -1.8332
 7261SOL    HW225186   9.983   4.633  10.747 -0.2032  0.2658 -1.8493
 7262SOL     OW25187   8.914   0.389   7.653  0.3827 -0.4288  0.1781
 7262SOL    HW125188   8.919   0.447   7.729  1.6999 -0.5083  0.1799
 7262SOL    HW225189   8.860   0.436   7.590  0.2399  0.1511  0.7210
 7263SOL     OW25190   0.812   3.183   1.492 -0.2287  0.4494 -0.3611
 7263SOL    HW125191   0.782   3.163   1.403 -1.1917  0.5637 -0.0700
 7263SOL    HW225192   0.895   3.228   1.480  0.3469 -0.7854 -1.1547
 7264SOL     OW25193   5.287   6.378   0.360  0.0256 -0.7699 -0.2905
 7264SOL    HW125194   5.238   6.459   0.370 -0.1311 -0.8802 -0.1489
 7264SOL    HW225195   5.313   6.376   0.268  1.3253  0.1720  0.0332
 7265SOL     OW25196   8.348   1.284   7.990  0.6384  0.6919  0.1865
 7265SOL    HW125197   8.314   1.373   8.001  1.0261  0.7975  0.6152
 7265SOL    HW225198   8.397   1.287   7.907  1.3152  1.1089  0.5840
 7266SOL     OW25199   5.992   9.503   3.414  0.0092 -1.0597  0.3072
 7266SOL    HW125200   6.070   9.532   3.366 -1.7002  0.1351 -1.9342
 7266SOL    HW225201   6.010   9.528   3.505  2.1041 -0.5780 -0.1689
 7267SOL     OW25202   7.992   2.085   2.413  0.2951 -0.1759 -0.2862
 7267SOL    HW125203   8.082   2.054   2.405  0.3362  0.0320 -0.6475
 7267SOL    HW225204   7.966   2.107   2.323 -0.5110 -1.3282 -0.3508
 7268SOL     OW25205   2.476  10.912   6.638  0.1552 -0.1436 -0.1944
 7268SOL    HW125206   2.500  10.855   6.711 -0.9864  1.2737  1.3532
 7268SOL    HW225207   2.498  11.000   6.668  0.7001  0.3840 -2.0274
 7269SOL     OW25208   3.027   5.824   6.918  0.2548  0.1883  0.1396
 7269SOL    HW125209   3.091   5.881   6.961  0.1946  0.4586 -0.1280
 7269SOL    HW225210   3.032   5.848   6.825  0.4098 -0.4143 -0.0107
 7270SOL     OW25211   8.721   0.643   9.461 -0.3750 -0.4158 -0.1841
 7270SOL    HW125212   8.707   0.574   9.525 -0.6696 -1.2915 -1.1719
 7270SOL    HW225213   8.702   0.724   9.509 -0.0774 -1.0029  0.9690
 7271SOL     OW25214   1.001   3.393   4.549  0.6858 -0.3818  0.2661
 7271SOL    HW125215   1.015   3.373   4.456  1.5301 -1.3507  0.5769
 7271SOL    HW225216   0.943   3.324   4.580 -1.2914  1.0796  0.0391
 7272SOL     OW25217   8.696   3.850   8.471  0.0275 -0.5263 -0.1479
 7272SOL    HW125218   8.767   3.827   8.411  0.4668  0.3747  0.0058
 7272SOL    HW225219   8.711   3.796   8.548  0.0511 -0.9573 -0.4523
 7273SOL     OW25220   4.848  10.668   3.563 -0.4920  0.0759 -0.3483
 7273SOL    HW125221   4.897  10.595   3.525 -0.0753  0.4256 -0.4997
 7273SOL    HW225222   4.756  10.643   3.555 -0.3492 -0.4637 -0.3296
 7274SOL     OW25223   4.676   0.637   1.251  0.5495  0.0753  0.4988
 7274SOL    HW125224   4.720   0.555   1.231 -0.1687  0.3132 -2.5599
 7274SOL    HW225225   4.737   0.705   1.220 -1.3138  0.4320 -2.8072
 7275SOL     OW25226   9.176   6.530   7.332 -0.0404 -0.0827 -0.4292
 7275SOL    HW125227   9.155   6.513   7.240  1.7060  0.8478 -1.0356
 7275SOL    HW225228   9.177   6.625   7.339  0.2406 -0.1411  0.4746
 7276SOL     OW25229   5.422  10.469  10.422 -0.7411  0.3189  0.0368
 7276SOL    HW125230   5.470  10.386  10.418 -1.4436 -0.0924 -0.0501
 7276SOL    HW225231   5.489  10.536  10.413  0.0545 -0.1831  1.7382
 7277SOL     OW25232   6.569   9.124   9.564 -0.0269 -0.0207 -0.3277
 7277SOL    HW125233   6.516   9.193   9.522  1.5516  3.0052  2.2444
 7277SOL    HW225234   6.629   9.095   9.496 -0.4050  1.5405 -1.3835
 7278SOL     OW25235   2.066   1.531   8.121 -0.1133  0.1100 -0.6462
 7278SOL    HW125236   2.091   1.469   8.190  0.9886  0.2252 -0.9141
 7278SOL    HW225237   2.097   1.489   8.040 -0.1305  0.6143 -0.9165
 7279SOL     OW25238   4.296   1.529   0.314  0.1523 -0.1176  0.3250
 7279SOL    HW125239   4.384   1.544   0.350  1.4848  1.1372 -3.0317
 7279SOL    HW225240   4.298   1.438   0.283  0.1741 -0.1671  0.4712
 7280SOL     OW25241   0.532   2.604   0.591  0.4308 -0.1329  0.2313
 7280SOL    HW125242   0.449   2.636   0.626  1.3382  0.5219  1.8779
 7280SOL    HW225243   0.506   2.547   0.518 -1.4772 -0.3505  1.0101
 7281SOL     OW25244   9.385   9.470   4.516  0.1350 -0.8219  0.4670
 7281SOL    HW125245   9.290   9.459   4.527 -0.0250  0.0608  0.0304
 7281SOL    HW225246   9.420   9.458   4.605 -0.2429 -2.3577  0.4330
 7282SOL     OW25247   3.576   2.792   9.194  0.4239 -0.2740 -0.4114
 7282SOL    HW125248   3.481   2.778   9.200  0.6132 -1.8998 -0.7018
 7282SOL    HW225249   3.585   2.870   9.140 -0.7447 -0.3806 -0.7987
 7283SOL     OW25250   5.086   2.850   0.448 -0.3577  0.5310 -0.0917
 7283SOL    HW125251   5.122   2.937   0.467  1.0782 -0.0765  0.1100
 7283SOL    HW225252   5.015   2.867   0.386 -0.1003  1.8499 -0.0616
 7284SOL     OW25253   9.420  10.203   9.124 -0.1480 -0.7400  0.4182
 7284SOL    HW125254   9.492  10.254   9.162  0.3163 -1.0446 -0.0237
 7284SOL    HW225255   9.346  10.217   9.183  0.0935  0.0818  0.5424
 7285SOL     OW25256   7.653   8.453   2.980  0.0306  0.1970  0.0147
 7285SOL    HW125257   7.576   8.508   2.993  0.1137  0.4636 -0.6252
 7285SOL    HW225258   7.618   8.367   2.955 -0.0361  0.9206 -2.5983
 7286SOL     OW25259   9.356   4.279   8.292 -0.0159 -0.5263  0.6465
 7286SOL    HW125260   9.447   4.262   8.269 -0.2167  1.2092 -1.7182
 7286SOL    HW225261   9.347   4.243   8.381  2.7317 -1.3948  0.6627
 7287SOL     OW25262   6.336   6.055   2.797 -0.3728 -0.2854  0.1914
 7287SOL    HW125263   6.242   6.041   2.788 -0.1041 -2.4517  0.1005
 7287SOL    HW225264   6.352   6.140   2.757 -1.8336 -1.3305 -2.9170
 7288SOL     OW25265   3.349   2.246   9.473  0.4190  0.0001 -0.6096
 7288SOL    HW125266   3.411   2.258   9.401  0.6459 -0.4050 -0.4831
 7288SOL    HW225267   3.293   2.173   9.445  0.8217 -0.4822 -0.1622
 7289SOL     OW25268   8.832   2.529   4.814  0.4939 -0.4744  0.0956
 7289SOL    HW125269   8.789   2.453   4.775  1.8775 -0.9169 -0.6524
 7289SOL    HW225270   8.824   2.598   4.748  0.0236 -0.2370  0.3968
 7290SOL     OW25271   6.743   8.293   9.680  0.7427  0.4452  0.1680
 7290SOL    HW125272   6.821   8.346   9.698  1.1096  0.5103 -1.3977
 7290SOL    HW225273   6.699   8.340   9.609  1.0274 -1.2482 -1.2162
 7291SOL     OW25274   4.884   1.241   4.930 -0.0285  0.4259  0.4385
 7291SOL    HW125275   4.870   1.155   4.970 -0.3206 -0.3204 -1.2172
 7291SOL    HW225276   4.976   1.259   4.945  0.2344 -0.5619  0.0875
 7292SOL     OW25277   2.106   6.262   0.587  0.1855 -0.3518  0.2144
 7292SOL    HW125278   2.166   6.189   0.574  0.5394 -0.1412  0.6314
 7292SOL    HW225279   2.019   6.222   0.583  0.3475 -0.6670 -0.3381
 7293SOL     OW25280   7.492   3.741   2.033 -0.6659  0.5231 -0.1048
 7293SOL    HW125281   7.461   3.703   2.115  1.8881 -2.0438 -0.1554
 7293SOL    HW225282   7.570   3.790   2.058 -1.7312  2.5756 -0.6214
 7294SOL     OW25283   4.399   8.467   2.535  0.1908  0.4662 -0.5104
 7294SOL    HW125284   4.492   8.489   2.542  0.5788 -0.3650 -2.4106
 7294SOL    HW225285   4.354   8.536   2.584  1.9161 -1.1415  3.7705
 7295SOL     OW25286   1.729   7.333   1.733 -0.0686 -0.0021 -0.3208
 7295SOL    HW125287   1.660   7.303   1.792  0.5188  0.6405  0.7295
 7295SOL    HW225288   1.740   7.426   1.754  1.1431 -0.1015 -0.4315
 7296SOL     OW25289   3.017   8.933   1.671  0.2421  0.1868 -0.0118
 7296SOL    HW125290   3.080   8.937   1.599  0.0275  1.8756 -0.1543
 7296SOL    HW225291   2.941   8.980   1.638 -0.5401 -0.5475  0.7014
 7297SOL     OW25292   7.293   6.587   4.011 -0.1729  0.5571  0.3130
 7297SOL    HW125293   7.381   6.578   3.973 -0.9250 -1.1827 -1.1541
 7297SOL    HW225294   7.305   6.565   4.103  1.1631  1.8320  0.4871
 7298SOL     OW25295   5.653   0.365   3.572  0.0557  0.1018  0.3003
 7298SOL    HW125296   5.688   0.429   3.635  1.1386  0.8394 -0.9826
 7298SOL    HW225297   5.559   0.383   3.570  0.3123  1.6171  0.0636
 7299SOL     OW25298   0.679   7.267   2.985 -0.2164 -0.2825  0.1622
 7299SOL    HW125299   0.643   7.229   3.065 -0.1472 -0.3103  0.1803
 7299SOL    HW225300   0.774   7.260   2.996 -0.2027 -0.0758  0.1786
 7300SOL     OW25301  10.725   5.347   2.820  0.0503  0.1294  0.1985
 7300SOL    HW125302  10.638   5.309   2.836 -0.0099  0.8582  1.7950
 7300SOL    HW225303  10.706   5.433   2.784  0.1358 -0.1435 -0.5035
 7301SOL     OW25304   9.791   2.484   5.817  0.0365  0.3210 -0.3850
 7301SOL    HW125305   9.876   2.441   5.824  0.4292  1.2193  0.5709
 7301SOL    HW225306   9.784   2.537   5.897 -1.2302  0.5904 -0.6575
 7302SOL     OW25307   4.013   3.451   9.519  0.0309 -0.5768  0.3018
 7302SOL    HW125308   4.063   3.374   9.544  2.9834  0.9791 -0.2971
 7302SOL    HW225309   3.944   3.417   9.462  0.9688 -2.8052  0.3832
 7303SOL     OW25310   7.636  10.387   2.593  0.8355 -0.1066  0.4684
 7303SOL    HW125311   7.631  10.300   2.631  2.5482 -0.4368  0.0166
 7303SOL    HW225312   7.610  10.446   2.664  0.8374 -0.9109  1.1480
 7304SOL     OW25313   8.350   8.477   0.851  0.0794 -0.3528  0.4160
 7304SOL    HW125314   8.320   8.532   0.778  2.3663 -0.8944 -1.0328
 7304SOL    HW225315   8.352   8.536   0.926 -0.6331  0.6909 -0.3415
 7305SOL     OW25316   7.310   6.371   9.555  0.8000 -1.2941 -0.0605
 7305SOL    HW125317   7.369   6.429   9.506  0.8793 -2.0461 -0.8803
 7305SOL    HW225318   7.277   6.310   9.489 -2.0307 -0.0600  0.0325
 7306SOL     OW25319   1.375   3.576   2.948 -0.4411 -0.1552 -0.3363
 7306SOL    HW125320   1.424   3.538   2.875 -0.5439 -0.7886 -0.0807
 7306SOL    HW225321   1.285   3.580   2.917 -0.4680 -0.3332 -0.2845
 7307SOL     OW25322   4.918   9.958   6.999 -0.1765 -0.2791 -0.0377
 7307SOL    HW125323   4.888   9.956   7.090 -0.5263 -0.8620 -0.1573
 7307SOL    HW225324   4.948   9.868   6.983 -1.9724 -0.7454 -1.1022
 7308SOL     OW25325   6.905   2.098   0.442  0.0614 -0.0970  0.0198
 7308SOL    HW125326   6.938   2.023   0.493  0.0456  1.7684  3.0031
 7308SOL    HW225327   6.984   2.148   0.421  0.0196 -0.6422 -1.5488
 7309SOL     OW25328   6.058   2.257   2.621 -0.0771  0.2672  0.0294
 7309SOL    HW125329   6.117   2.330   2.640 -2.5031  1.9287  1.8224
 7309SOL    HW225330   6.108   2.179   2.648  1.3670  1.5575  1.3282
 7310SOL     OW25331   6.283   5.564  10.647  0.1922  0.3466  0.7673
 7310SOL    HW125332   6.326   5.639  10.605  2.3389  0.5083  3.0892
 7310SOL    HW225333   6.284   5.496  10.580 -0.4801  1.8752 -0.8947
 7311SOL     OW25334   1.984   2.451   5.850  0.0502  0.2450 -0.0309
 7311SOL    HW125335   2.023   2.518   5.794 -1.0074  1.4385  0.5953
 7311SOL    HW225336   2.018   2.368   5.817  0.4655  1.0121 -1.5844
 7312SOL     OW25337   1.611   5.087   4.331  0.6837  0.8349  0.0366
 7312SOL    HW125338   1.519   5.099   4.307  0.0262 -0.3080  1.7580
 7312SOL    HW225339   1.646   5.176   4.336 -0.8223  1.4090  1.0579
 7313SOL     OW25340   9.252   2.052   4.158 -0.5495 -0.4125 -0.2508
 7313SOL    HW125341   9.252   2.028   4.065  1.0720 -0.5743 -0.2448
 7313SOL    HW225342   9.176   2.007   4.195 -0.6247 -1.1817 -1.3006
 7314SOL     OW25343  10.535  10.370   9.394  0.1224 -0.3579 -0.0690
 7314SOL    HW125344  10.450  10.363   9.351  0.1068 -0.7853  0.0278
 7314SOL    HW225345  10.515  10.401   9.482 -0.4654 -4.9555  1.6603
 7315SOL     OW25346   0.987   9.840   1.172 -0.0317  0.4614  0.6023
 7315SOL    HW125347   1.018   9.769   1.228  0.3321  0.8329  0.8847
 7315SOL    HW225348   1.052   9.846   1.102  0.0035  0.5928  0.6460
 7316SOL     OW25349   0.077   1.708   7.804  0.2389  0.0223  0.2629
 7316SOL    HW125350  -0.011   1.743   7.792  0.2167  0.0666  0.5544
 7316SOL    HW225351   0.103   1.737   7.891  0.8934  0.7807 -0.1655
 7317SOL     OW25352   5.314   9.126   6.209  0.2310  0.3812  0.2484
 7317SOL    HW125353   5.359   9.108   6.126  2.2373  0.1196  1.3193
 7317SOL    HW225354   5.336   9.050   6.264 -0.2245  1.0211  1.3361
 7318SOL     OW25355   5.590   2.617   4.186  0.4277 -0.2314 -0.0780
 7318SOL    HW125356   5.527   2.550   4.161 -1.1774  1.0801  0.2950
 7318SOL    HW225357   5.635   2.640   4.105 -0.4119 -0.3564 -0.5865
 7319SOL     OW25358   5.286   7.914   3.452  0.7061 -0.8355  0.1082
 7319SOL    HW125359   5.309   7.829   3.490  0.7982 -0.4332  0.9602
 7319SOL    HW225360   5.192   7.923   3.469  1.1908  0.4380  2.4974
 7320SOL     OW25361   3.757   9.207   3.102 -0.0783  0.1027  0.5999
 7320SOL    HW125362   3.769   9.298   3.129 -0.1338 -0.2705  1.9664
 7320SOL    HW225363   3.693   9.172   3.163 -1.4391 -0.3825 -1.0425
 7321SOL     OW25364  10.530   4.569   9.735  0.7835 -0.5513  0.3029
 7321SOL    HW125365  10.493   4.656   9.746  1.7073 -0.1954  0.6876
 7321SOL    HW225366  10.542   4.559   9.641  1.7257  0.1940  0.3329
 7322SOL     OW25367   2.370  10.570   1.234  0.8488  0.1275 -0.3162
 7322SOL    HW125368   2.316  10.535   1.305  1.0664  1.9518  0.8109
 7322SOL    HW225369   2.307  10.589   1.164  0.4814 -0.6507 -0.2138
 7323SOL     OW25370  10.254   7.603   5.277  0.2029 -0.1055  0.1450
 7323SOL    HW125371  10.280   7.689   5.245  0.7765 -1.5176 -3.6880
 7323SOL    HW225372  10.159   7.608   5.284  0.1124  0.5467 -1.2074
 7324SOL     OW25373   3.125   7.426   6.133 -0.3131 -0.0687 -0.0365
 7324SOL    HW125374   3.075   7.437   6.214 -0.9539 -0.2299 -0.4012
 7324SOL    HW225375   3.076   7.361   6.083 -1.5617  2.0870 -1.8032
 7325SOL     OW25376   4.825  10.478   9.091 -0.0970  0.1955 -0.1800
 7325SOL    HW125377   4.899  10.523   9.049 -0.5823  0.6487 -0.5654
 7325SOL    HW225378   4.832  10.501   9.183 -0.7691  1.7061 -0.4800
 7326SOL     OW25379   3.743   2.068   8.694  0.0534 -0.2308  0.5176
 7326SOL    HW125380   3.744   2.104   8.783  0.3305  1.5007 -0.1504
 7326SOL    HW225381   3.706   2.138   8.640 -0.9445 -1.5791 -0.6228
 7327SOL     OW25382  10.504   7.096   0.578  0.2549  0.2330 -0.2329
 7327SOL    HW125383  10.452   7.035   0.630 -1.1636  0.4645 -1.2971
 7327SOL    HW225384  10.593   7.062   0.582 -0.4756 -1.9310 -0.7821
 7328SOL     OW25385   1.957   5.030   8.595  0.3949  0.1530  0.0901
 7328SOL    HW125386   2.000   5.001   8.676 -0.1718  0.8018  0.6287
 7328SOL    HW225387   1.869   5.056   8.622  0.1782  0.3231 -0.7488
 7329SOL     OW25388   5.863   3.054   5.675 -0.4448  0.1726 -0.2767
 7329SOL    HW125389   5.787   3.015   5.632 -1.2661  0.3164  0.9660
 7329SOL    HW225390   5.845   3.148   5.675 -0.6580  0.1471  0.6876
 7330SOL     OW25391   1.083   5.910   7.445  0.4927  0.4754 -0.1832
 7330SOL    HW125392   1.047   5.869   7.366  0.0903  1.9314 -0.8049
 7330SOL    HW225393   1.177   5.917   7.428  0.4057  0.7922 -0.5521
 7331SOL     OW25394   2.375   4.556   5.928 -0.1252  0.1908  0.1893
 7331SOL    HW125395   2.425   4.585   6.005 -0.3747 -0.9579  0.8244
 7331SOL    HW225396   2.314   4.491   5.963  0.5636 -1.2592 -1.1372
 7332SOL     OW25397   5.423   3.174   5.950 -1.0495 -0.1906  0.0474
 7332SOL    HW125398   5.341   3.176   5.900 -0.7430  1.4086 -0.4575
 7332SOL    HW225399   5.400   3.133   6.033 -1.6027 -2.8207 -1.2910
 7333SOL     OW25400   8.966   2.264   2.759 -0.5626  0.1734  0.6467
 7333SOL    HW125401   8.941   2.297   2.845 -1.2206  0.9511  0.1753
 7333SOL    HW225402   8.884   2.265   2.708 -0.3048 -0.8263  0.1772
 7334SOL     OW25403   3.425   6.271   3.892  0.2983  0.0104  0.1845
 7334SOL    HW125404   3.514   6.236   3.888 -0.7631 -2.8906 -1.8378
 7334SOL    HW225405   3.389   6.239   3.975  1.0229  1.0005  0.8975
 7335SOL     OW25406   8.252   7.574  10.169 -0.2648 -0.0851 -0.0164
 7335SOL    HW125407   8.221   7.483  10.168  0.8477 -0.4904  0.8781
 7335SOL    HW225408   8.228   7.606  10.256 -0.3532  0.3805 -0.2113
 7336SOL     OW25409   4.672   5.001   1.150  0.5254 -0.1804  0.1955
 7336SOL    HW125410   4.715   4.951   1.220  1.1940  0.5023  0.2878
 7336SOL    HW225411   4.584   5.018   1.183  0.4245 -0.9394  0.3330
 7337SOL     OW25412  10.838   7.880   6.674 -0.0894  0.1787 -0.1489
 7337SOL    HW125413  10.851   7.957   6.729 -0.6361  0.3657 -0.2689
 7337SOL    HW225414  10.815   7.811   6.736  1.2881 -0.1220  0.0469
 7338SOL     OW25415   9.142   8.355   2.753  0.3765 -0.1727 -0.0929
 7338SOL    HW125416   9.213   8.353   2.818 -0.4777 -0.0567  0.8621
 7338SOL    HW225417   9.063   8.337   2.804 -0.0868 -2.3317 -1.4351
 7339SOL     OW25418   0.170   2.632  10.106 -0.0987  0.0415  0.1962
 7339SOL    HW125419   0.185   2.539  10.121 -0.8303 -0.2108 -0.5526
 7339SOL    HW225420   0.254   2.665  10.073  0.6404  0.0020  1.9344
 7340SOL     OW25421   3.267   5.797   1.147  0.0667  0.5493  0.7638
 7340SOL    HW125422   3.256   5.715   1.195  0.2874  1.0213  1.6533
 7340SOL    HW225423   3.359   5.820   1.158  0.3509  0.1985 -0.6956
 7341SOL     OW25424   6.486   1.250   2.283 -0.5514  0.0891  0.1897
 7341SOL    HW125425   6.461   1.254   2.191 -0.2333  2.5197  0.1473
 7341SOL    HW225426   6.474   1.339   2.315 -1.9702 -0.9715  2.9003
 7342SOL     OW25427   8.795   2.763   7.661  0.4720  0.4138 -0.1136
 7342SOL    HW125428   8.839   2.714   7.592 -0.2910  1.0666 -1.0980
 7342SOL    HW225429   8.711   2.787   7.623  0.3363  1.4197  0.7821
 7343SOL     OW25430   9.311  10.656   5.692  0.0285 -0.2356 -0.4046
 7343SOL    HW125431   9.335  10.569   5.659  0.1871 -0.3016 -0.1166
 7343SOL    HW225432   9.268  10.639   5.776  0.5035 -0.0084 -0.1088
 7344SOL     OW25433   1.711   1.236   7.012 -0.2611  0.4495 -0.5201
 7344SOL    HW125434   1.670   1.301   6.955 -0.0920 -0.1037 -1.2898
 7344SOL    HW225435   1.699   1.271   7.100 -0.4576  1.3609 -0.8932
 7345SOL     OW25436   6.773   3.477   5.084 -0.6263 -0.2521  0.5415
 7345SOL    HW125437   6.775   3.570   5.108  1.2378  0.0726 -0.7032
 7345SOL    HW225438   6.704   3.471   5.018  0.6012  0.6756 -0.8728
 7346SOL     OW25439   0.867   2.659  10.373 -0.1048 -0.2705 -0.7474
 7346SOL    HW125440   0.899   2.615  10.294  0.2651 -1.4254  0.0132
 7346SOL    HW225441   0.901   2.748  10.367  1.8142 -0.9583 -0.8342
 7347SOL     OW25442   8.542   8.845   7.272 -0.5268  0.1060  0.0711
 7347SOL    HW125443   8.525   8.939   7.264  1.7459  0.9405  3.0932
 7347SOL    HW225444   8.624   8.832   7.225  1.0690  0.5141  2.5248
 7348SOL     OW25445   1.115   3.079   7.572 -0.3201  0.2293  0.0960
 7348SOL    HW125446   1.025   3.051   7.553 -0.0582 -0.3133 -0.3943
 7348SOL    HW225447   1.150   3.009   7.628  0.4190 -0.5956 -1.3409
 7349SOL     OW25448   5.405   5.395   9.096 -0.4275 -0.0842 -0.0387
 7349SOL    HW125449   5.437   5.314   9.057  0.3939  0.6369 -0.9064
 7349SOL    HW225450   5.368   5.444   9.022  0.2656  0.8857  0.2428
 7350SOL     OW25451   3.412   5.614   0.560  0.2681 -0.5703  0.1314
 7350SOL    HW125452   3.507   5.623   0.572  0.1084  0.3912  0.7696
 7350SOL    HW225453   3.380   5.704   0.554 -0.4386 -0.8869 -1.5339
 7351SOL     OW25454   3.832   1.926   7.185 -0.0494  1.4575 -0.5808
 7351SOL    HW125455   3.925   1.903   7.185 -0.2343  0.5160  1.1736
 7351SOL    HW225456   3.823   1.988   7.258 -0.9021  0.9805 -0.2675
 7352SOL     OW25457   0.752   4.816   4.048  0.1082 -0.3615 -0.3596
 7352SOL    HW125458   0.741   4.727   4.082  0.4512 -0.3744 -0.2742
 7352SOL    HW225459   0.703   4.817   3.966 -0.8322 -0.2925  0.1955
 7353SOL     OW25460   4.213   9.376   8.842 -0.6942 -0.1813 -0.3596
 7353SOL    HW125461   4.232   9.399   8.751  1.3365  0.6284  0.2154
 7353SOL    HW225462   4.290   9.326   8.871 -0.5489  0.9471  1.3504
 7354SOL     OW25463   3.938   0.866   2.690  0.5884 -0.7454 -0.0547
 7354SOL    HW125464   3.843   0.860   2.692  0.3364  1.7074 -0.3930
 7354SOL    HW225465   3.969   0.776   2.688 -1.6746 -1.6209  1.3069
 7355SOL     OW25466   1.491   1.393   2.777  0.3406 -0.0851  0.0807
 7355SOL    HW125467   1.507   1.300   2.759  0.0053 -0.1380  0.0529
 7355SOL    HW225468   1.542   1.411   2.856  0.9594 -0.1198 -0.3063
 7356SOL     OW25469   3.625   3.330  10.258 -0.1933 -0.5197 -0.3412
 7356SOL    HW125470   3.550   3.334  10.317  0.9596 -0.6612  1.2091
 7356SOL    HW225471   3.640   3.237  10.244  0.2423 -0.5238  0.1156
 7357SOL     OW25472   2.021   2.361   1.355  0.4541 -0.3267 -0.4155
 7357SOL    HW125473   1.950   2.415   1.319 -0.1572  0.0488  1.2363
 7357SOL    HW225474   2.044   2.405   1.437  1.3438 -1.4771 -0.0278
 7358SOL     OW25475   7.621   9.626   8.277  0.7659 -0.4417 -0.3499
 7358SOL    HW125476   7.604   9.720   8.265 -1.0928 -0.6427  0.3059
 7358SOL    HW225477   7.534   9.587   8.284  1.5100 -2.0465  0.6700
 7359SOL     OW25478   2.997   8.527   2.333  0.7469 -0.6363  0.3908
 7359SOL    HW125479   3.036   8.460   2.276  0.8337  0.7709 -1.2804
 7359SOL    HW225480   2.909   8.539   2.298  1.4658  1.6756 -0.8028
 7360SOL     OW25481   9.204   6.435   4.474 -0.3103  0.0193  0.2705
 7360SOL    HW125482   9.193   6.341   4.458 -1.0641  0.1071  0.2434
 7360SOL    HW225483   9.266   6.464   4.407 -1.6121 -0.0774 -1.0406
 7361SOL     OW25484   5.019   3.686   9.810 -0.2320 -0.0157  0.4409
 7361SOL    HW125485   5.046   3.596   9.827  0.4819  0.2727  0.8459
 7361SOL    HW225486   4.927   3.678   9.783 -0.1907 -0.8563  0.5162
 7362SOL     OW25487   1.681   5.616   7.765  0.7239 -0.2866  0.1102
 7362SOL    HW125488   1.738   5.653   7.698  0.1885  0.3593  0.0044
 7362SOL    HW225489   1.665   5.689   7.826  0.9223 -0.7667  0.7562
 7363SOL     OW25490  10.206   8.215  10.224 -0.3332 -0.9757  0.0269
 7363SOL    HW125491  10.263   8.255  10.159  0.1524 -2.8206 -0.7309
 7363SOL    HW225492  10.128   8.271  10.225  1.3610  1.5663  1.0508
 7364SOL     OW25493   9.120   5.515   9.362 -0.4029  0.4664 -0.2519
 7364SOL    HW125494   9.099   5.607   9.347  1.7306  1.3530  1.6054
 7364SOL    HW225495   9.215   5.511   9.354 -0.1317 -0.9449  2.4971
 7365SOL     OW25496   0.984   3.419   8.340  0.1104  0.6874 -0.0393
 7365SOL    HW125497   0.947   3.349   8.287 -1.8141  1.6670 -0.0898
 7365SOL    HW225498   1.001   3.379   8.425 -2.6004  0.4616  0.5014
 7366SOL     OW25499   1.903   5.290   9.863  0.3665 -0.2985  0.0366
 7366SOL    HW125500   1.854   5.209   9.851  2.3551 -1.5536 -0.0838
 7366SOL    HW225501   1.984   5.263   9.906  1.5797  1.4426 -1.0089
 7367SOL     OW25502   4.459   4.630   0.482 -0.1703  0.5606 -0.3002
 7367SOL    HW125503   4.548   4.599   0.465  1.0786  1.9803  2.8445
 7367SOL    HW225504   4.403   4.557   0.457  2.0137 -1.0751 -0.7193
 7368SOL     OW25505   8.414   4.414   8.651 -0.7658 -0.2595 -0.2279
 7368SOL    HW125506   8.492   4.456   8.688  0.5427 -1.9949 -0.8224
 7368SOL    HW225507   8.421   4.323   8.680 -2.4694 -0.5002 -0.5083
 7369SOL     OW25508   8.534   0.842   2.613 -0.3440 -0.0569 -0.5009
 7369SOL    HW125509   8.599   0.790   2.660  0.3460  0.3394 -0.9832
 7369SOL    HW225510   8.471   0.869   2.679  0.5373  0.3902  0.1851
 7370SOL     OW25511   4.673   0.023  10.418 -0.2111 -0.1735 -0.6000
 7370SOL    HW125512   4.669   0.024  10.322  0.3686 -1.1226 -0.6517
 7370SOL    HW225513   4.690   0.114  10.443 -1.5065  0.2925 -1.3317
 7371SOL     OW25514   7.930   8.865   4.395 -0.5687 -1.0351 -0.3073
 7371SOL    HW125515   7.932   8.878   4.490  1.7399 -0.0813 -0.4257
 7371SOL    HW225516   7.964   8.946   4.359 -1.4772 -1.3651 -1.9831
 7372SOL     OW25517   0.553   5.894   1.968  0.4579  0.5529  0.4763
 7372SOL    HW125518   0.541   5.964   2.032 -1.2714  0.0927  0.7082
 7372SOL    HW225519   0.558   5.938   1.883 -2.2355  0.9348  0.4391
 7373SOL     OW25520   0.606   8.207   3.148  0.7941 -0.6822 -0.1299
 7373SOL    HW125521   0.638   8.153   3.076  1.3206  0.2197 -0.5959
 7373SOL    HW225522   0.564   8.281   3.104 -1.1404 -1.3623  0.4669
 7374SOL     OW25523   4.652   6.037   8.459  0.0164  0.5665 -0.2915
 7374SOL    HW125524   4.629   6.082   8.377 -1.6342  0.0499 -0.1456
 7374SOL    HW225525   4.578   6.055   8.517 -0.7047 -2.2435 -0.2059
 7375SOL     OW25526   3.107   6.731   7.468 -0.1539 -0.2673 -0.5780
 7375SOL    HW125527   3.132   6.781   7.390 -0.8161  0.5365 -0.2881
 7375SOL    HW225528   3.184   6.678   7.488  0.0934 -0.3451 -1.6635
 7376SOL     OW25529   3.350   2.951  10.795 -0.0726 -0.2471  0.2377
 7376SOL    HW125530   3.393   3.035  10.811 -2.2643  1.4213 -1.9200
 7376SOL    HW225531   3.414   2.901  10.744  0.5746  0.8408 -0.0574
 7377SOL     OW25532   7.660   0.903   8.973 -0.0121 -0.2954 -0.3929
 7377SOL    HW125533   7.716   0.935   8.902 -1.1761 -2.9987 -2.7023
 7377SOL    HW225534   7.632   0.816   8.945 -0.3938 -1.6433  3.5378
 7378SOL     OW25535   7.516   6.731   9.419  0.0129  0.4995 -0.3051
 7378SOL    HW125536   7.431   6.759   9.451 -0.8228  1.6104 -3.1525
 7378SOL    HW225537   7.561   6.812   9.394  0.8244 -0.2026 -1.2404
 7379SOL     OW25538  10.894   9.397   6.785 -0.3782  0.2084 -0.3925
 7379SOL    HW125539  10.899   9.470   6.847  0.7196  0.0788 -0.3038
 7379SOL    HW225540  10.918   9.320   6.837 -0.2552 -0.0216 -0.7881
 7380SOL     OW25541   0.024   2.626   9.166 -0.3280  0.3497 -0.2249
 7380SOL    HW125542   0.010   2.536   9.198 -1.5751  0.3359 -0.7632
 7380SOL    HW225543  -0.064   2.657   9.143  0.2909  1.0832 -1.6982
 7381SOL     OW25544   6.279   4.841   8.821 -0.3949  0.0301  0.1378
 7381SOL    HW125545   6.253   4.833   8.912 -0.7464  0.1124  0.0487
 7381SOL    HW225546   6.299   4.752   8.793  2.3639  0.2866  1.0413
 7382SOL     OW25547   9.224   6.754   5.841 -0.0069 -0.0455 -0.4684
 7382SOL    HW125548   9.277   6.694   5.892  0.9189  1.8136  0.9032
 7382SOL    HW225549   9.135   6.720   5.849  0.6540 -2.0284 -1.0245
 7383SOL     OW25550   2.662   5.956   7.015 -0.1826 -0.3183 -0.0080
 7383SOL    HW125551   2.714   5.913   6.946  1.1228 -1.1503  1.4082
 7383SOL    HW225552   2.646   6.044   6.981  4.1148  0.8322  0.2548
 7384SOL     OW25553   2.900   8.076  10.682  0.3678  0.1640 -0.2803
 7384SOL    HW125554   2.842   8.048  10.611  0.0163 -0.7737  0.3533
 7384SOL    HW225555   2.840   8.102  10.753  0.7146  0.6465 -0.1607
 7385SOL     OW25556   3.935   4.939   7.961  0.6995  0.2599  0.0599
 7385SOL    HW125557   3.960   5.015   8.013  0.7694  1.3901 -1.5637
 7385SOL    HW225558   3.998   4.937   7.889 -0.1233 -0.5256 -0.6641
 7386SOL     OW25559   3.718   1.664   2.276  0.1536  0.2235  0.5098
 7386SOL    HW125560   3.653   1.594   2.283 -0.5542  0.9444  1.2633
 7386SOL    HW225561   3.802   1.619   2.286 -0.2393 -0.6504  0.0061
 7387SOL     OW25562  10.627   8.802  10.778 -0.4649 -0.0232  0.2720
 7387SOL    HW125563  10.652   8.882  10.731 -0.3467 -0.7667 -0.9951
 7387SOL    HW225564  10.533   8.793  10.763 -0.7058  0.4875  1.4047
 7388SOL     OW25565   7.159   3.523   2.418  0.0060  0.2104 -0.0532
 7388SOL    HW125566   7.137   3.497   2.507  1.6514 -0.4666  0.1878
 7388SOL    HW225567   7.086   3.578   2.390 -1.1463 -0.6123  1.2430
 7389SOL     OW25568   4.367   5.947   4.847 -0.5172 -0.3763  0.4746
 7389SOL    HW125569   4.412   5.891   4.910  0.7303 -1.8449 -1.6129
 7389SOL    HW225570   4.401   5.920   4.762 -1.6271  1.9869 -0.8134
 7390SOL     OW25571  10.051   9.324   5.616 -0.0568 -0.4781  0.4511
 7390SOL    HW125572  10.000   9.298   5.539 -0.1222  0.4541  0.1673
 7390SOL    HW225573  10.092   9.243   5.646 -0.9135 -1.0579  0.0914
 7391SOL     OW25574   3.060   3.831   4.540  0.2680 -0.0643 -0.3098
 7391SOL    HW125575   3.021   3.846   4.454  0.4945  0.6889 -0.2912
 7391SOL    HW225576   3.099   3.916   4.563 -1.2168  0.2443  1.2660
 7392SOL     OW25577   2.585   4.485   2.595 -0.1952  0.0267  0.0200
 7392SOL    HW125578   2.526   4.543   2.643  0.6456  0.3270  0.7177
 7392SOL    HW225579   2.633   4.543   2.535  2.2464  0.5141  2.2577
 7393SOL     OW25580   1.746   7.062   6.336 -0.2149 -0.7514 -0.3435
 7393SOL    HW125581   1.742   7.024   6.248 -0.7701  1.6279 -1.4433
 7393SOL    HW225582   1.834   7.101   6.341 -0.3785 -0.4131 -0.0744
 7394SOL     OW25583   7.655   7.293   9.836 -0.1879 -0.1871  0.1361
 7394SOL    HW125584   7.690   7.235   9.903  2.4976  2.6086  1.3948
 7394SOL    HW225585   7.619   7.368   9.884  1.9546  1.9895 -1.3543
 7395SOL     OW25586   4.419   5.405   1.468 -0.5025  0.0306  0.4718
 7395SOL    HW125587   4.450   5.315   1.478 -1.6736 -0.3113  1.1685
 7395SOL    HW225588   4.427   5.422   1.374 -0.7538 -0.9905  0.2506
 7396SOL     OW25589   0.563   8.952   1.678 -0.5794  0.7736 -0.4988
 7396SOL    HW125590   0.619   8.875   1.688 -0.1383  1.2022  0.5498
 7396SOL    HW225591   0.601   9.016   1.738 -1.6088  1.4194 -0.5190
 7397SOL     OW25592   4.511   7.529  10.847  0.7597 -0.1170 -0.1300
 7397SOL    HW125593   4.454   7.552  10.921  0.8132  1.9240 -0.6609
 7397SOL    HW225594   4.480   7.443  10.819  0.1061 -0.5118  1.6432
 7398SOL     OW25595   3.017   1.398   1.168 -0.1091 -0.5635 -0.0124
 7398SOL    HW125596   3.086   1.362   1.223  0.0506 -0.4371 -0.1275
 7398SOL    HW225597   3.046   1.487   1.148 -2.0230  0.9218  3.0046
 7399SOL     OW25598   6.806   6.786   5.156  0.5597 -0.4570  0.4295
 7399SOL    HW125599   6.746   6.711   5.158  1.0724 -0.8764  0.1076
 7399SOL    HW225600   6.886   6.752   5.116 -0.3689  1.0995 -3.1754
 7400SOL     OW25601   5.379   5.188   1.918 -0.2560  0.6628 -0.0572
 7400SOL    HW125602   5.307   5.246   1.894 -1.4986 -1.3413 -1.4775
 7400SOL    HW225603   5.397   5.208   2.010 -3.6711  0.2071  0.8330
 7401SOL     OW25604   8.318   4.861   8.585 -0.1898  0.0477  0.6020
 7401SOL    HW125605   8.271   4.796   8.637 -0.7286  1.1655  1.5521
 7401SOL    HW225606   8.271   4.863   8.501  0.7459 -1.8375 -0.0307
 7402SOL     OW25607  10.048   1.218   9.298 -0.4516  0.5151 -0.4506
 7402SOL    HW125608  10.133   1.197   9.336 -0.7549  0.2084  0.0714
 7402SOL    HW225609  10.066   1.238   9.206  0.1005 -0.1399 -0.4865
 7403SOL     OW25610  10.522   9.281   5.561  0.5206  0.4491  0.3663
 7403SOL    HW125611  10.579   9.205   5.571  1.4610  1.1379  0.3588
 7403SOL    HW225612  10.562   9.348   5.617  0.3282  1.2791 -0.4842
 7404SOL     OW25613   8.110   2.918   1.867  0.2888 -0.3650  0.1905
 7404SOL    HW125614   8.107   3.010   1.895 -0.3383 -0.8378  1.7907
 7404SOL    HW225615   8.023   2.902   1.831  0.0824 -0.5722  0.7709
 7405SOL     OW25616   1.590   9.778   3.809  0.4252  0.4484  0.3292
 7405SOL    HW125617   1.627   9.866   3.818  0.8447  0.7446 -3.1747
 7405SOL    HW225618   1.664   9.720   3.828  0.8925  0.9218  0.0028
 7406SOL     OW25619   8.175   5.135   7.361 -0.1167 -0.3284 -0.0911
 7406SOL    HW125620   8.163   5.043   7.337 -0.6705 -0.0556 -0.9235
 7406SOL    HW225621   8.267   5.142   7.387  0.5818 -0.6608 -2.2700
 7407SOL     OW25622   9.049   8.399   7.701 -0.1897 -0.0567 -0.5434
 7407SOL    HW125623   9.027   8.478   7.750 -2.1936 -1.6604  1.3887
 7407SOL    HW225624   8.994   8.402   7.623  0.2802  0.7480 -0.8577
 7408SOL     OW25625   3.856   1.016   9.335  0.0097 -0.0157  0.3543
 7408SOL    HW125626   3.866   1.106   9.366 -3.2652  0.0479  1.6735
 7408SOL    HW225627   3.906   0.964   9.398 -0.2106  0.7231  1.1696
 7409SOL     OW25628   9.061  10.363   0.789 -0.6426  0.0939  0.0180
 7409SOL    HW125629   9.018  10.290   0.835  0.5797 -0.5416  0.1835
 7409SOL    HW225630   8.989  10.408   0.745 -1.3920 -1.4898 -0.4771
 7410SOL     OW25631   3.979   2.180   2.002  0.2533 -0.8302  0.0521
 7410SOL    HW125632   4.073   2.182   2.019  0.0677 -0.0484  1.0769
 7410SOL    HW225633   3.972   2.188   1.907  1.1677  1.2120  0.1068
 7411SOL     OW25634   7.046   2.248   3.454  0.2375 -0.9077  0.7252
 7411SOL    HW125635   7.027   2.248   3.360  0.5142 -0.5466  0.6636
 7411SOL    HW225636   7.042   2.156   3.480  0.4587 -1.0422  0.2945
 7412SOL     OW25637   1.921   3.905   1.275 -0.3995 -0.1979  0.9106
 7412SOL    HW125638   1.856   3.891   1.206  0.3431  0.6832  0.0063
 7412SOL    HW225639   1.884   3.862   1.353 -1.2139 -1.2785 -0.0470
 7413SOL     OW25640   0.134   2.576   0.902 -0.0691  0.2937  0.4503
 7413SOL    HW125641   0.114   2.511   0.835  0.3806 -0.6567  1.2188
 7413SOL    HW225642   0.090   2.545   0.980 -0.8605  1.5692  0.5385
 7414SOL     OW25643   0.857   5.394   6.938 -0.0692  0.1667  0.0081
 7414SOL    HW125644   0.905   5.317   6.971 -0.7046 -0.7657 -1.1499
 7414SOL    HW225645   0.824   5.366   6.853 -1.1652  1.3992  0.0031
 7415SOL     OW25646   0.485   6.121   0.073  0.3566  0.3356 -0.4043
 7415SOL    HW125647   0.472   6.052   0.007  0.3338  0.1233 -0.1787
 7415SOL    HW225648   0.415   6.105   0.137  0.6739  0.2505 -0.0809
 7416SOL     OW25649   5.001   2.189   0.983 -0.6481  0.1716  0.4745
 7416SOL    HW125650   5.047   2.106   0.993 -0.3718  0.3013  0.2705
 7416SOL    HW225651   5.018   2.216   0.893 -0.5103  0.5829  0.6206
 7417SOL     OW25652   9.527   5.389   2.101  0.3553 -0.2247 -0.0318
 7417SOL    HW125653   9.459   5.324   2.117 -0.4492  0.3633 -0.9734
 7417SOL    HW225654   9.587   5.380   2.175 -1.6881  0.4967  1.8151
 7418SOL     OW25655   8.753   2.841   0.278 -0.1681 -0.1984  0.4703
 7418SOL    HW125656   8.676   2.888   0.247  0.1503 -0.0188 -0.0666
 7418SOL    HW225657   8.718   2.766   0.326 -0.6760 -0.7796 -0.7858
 7419SOL     OW25658   4.012   6.624   9.067  0.2069 -0.2455 -0.3171
 7419SOL    HW125659   3.945   6.619   8.999  0.7225 -1.2575 -0.7639
 7419SOL    HW225660   4.042   6.534   9.078  2.0093  0.2915 -0.6345
 7420SOL     OW25661   6.437  10.215   6.768  0.5065  0.4369 -0.0546
 7420SOL    HW125662   6.436  10.185   6.678  0.7931  0.4266 -0.0573
 7420SOL    HW225663   6.527  10.248   6.781  0.6759 -0.1970  0.4320
 7421SOL     OW25664   9.423   2.383   5.961 -0.5098 -0.5327 -0.0321
 7421SOL    HW125665   9.434   2.345   5.873  1.3162 -0.4227  0.1071
 7421SOL    HW225666   9.455   2.473   5.953 -0.5447 -0.4501  0.6868
 7422SOL     OW25667   7.454   3.933   5.084  0.1996 -0.2919  0.0388
 7422SOL    HW125668   7.496   3.980   5.157  1.3817 -0.5806 -0.4375
 7422SOL    HW225669   7.464   3.840   5.106  1.3826 -0.4051 -0.9229
 7423SOL     OW25670   6.029   1.092   7.281 -0.2528  0.4345 -0.2379
 7423SOL    HW125671   5.972   1.076   7.206 -0.1635 -1.3125  0.0232
 7423SOL    HW225672   6.097   1.025   7.274 -0.0620  0.4444  1.2191
 7424SOL     OW25673  10.684   6.244   5.238 -0.1736  0.0821  0.3910
 7424SOL    HW125674  10.617   6.182   5.210 -0.1495 -0.1504  0.8439
 7424SOL    HW225675  10.705   6.294   5.159 -1.9739  1.1936  0.5639
 7425SOL     OW25676   1.262   3.854  10.316  0.2567  0.2058 -0.5469
 7425SOL    HW125677   1.224   3.804  10.244  0.7684 -2.2034  0.7349
 7425SOL    HW225678   1.306   3.788  10.370 -1.5637  1.5515  2.9107
 7426SOL     OW25679   2.463   0.853   5.144  0.1492 -0.3532  0.2228
 7426SOL    HW125680   2.461   0.812   5.057  1.7398 -2.0302  0.9149
 7426SOL    HW225681   2.541   0.817   5.186  0.9427  2.4442  1.4061
 7427SOL     OW25682   3.414   5.511  10.004 -0.0606 -0.5060  0.3441
 7427SOL    HW125683   3.386   5.522  10.095 -1.4185 -0.5160 -0.0615
 7427SOL    HW225684   3.380   5.425   9.979  0.4845 -0.5925 -0.1208
 7428SOL     OW25685   8.989  10.574   8.545 -0.2006  0.7947  0.2383
 7428SOL    HW125686   9.013  10.502   8.486  0.3269  1.4398 -0.3506
 7428SOL    HW225687   8.899  10.554   8.571 -0.3342  0.3328 -0.5354
 7429SOL     OW25688   7.583   3.370   2.389 -0.6167  0.1536  0.7450
 7429SOL    HW125689   7.492   3.344   2.377 -0.7941  0.9619  0.2447
 7429SOL    HW225690   7.584   3.421   2.470 -1.0711  2.1195 -0.4237
 7430SOL     OW25691   5.521   7.763   4.609  0.7560 -0.6232  0.1208
 7430SOL    HW125692   5.432   7.728   4.616  0.7350 -0.8108 -0.8719
 7430SOL    HW225693   5.574   7.687   4.585  1.1886 -0.5111  0.7047
 7431SOL     OW25694   9.613   4.049   4.595  0.2072 -0.2640  0.4678
 7431SOL    HW125695   9.646   4.035   4.684 -1.7195  1.6572  1.5957
 7431SOL    HW225696   9.607   4.144   4.587 -1.5564 -0.4512 -0.9519
 7432SOL     OW25697   8.370   4.543   4.293 -0.1602  0.2963 -0.4526
 7432SOL    HW125698   8.414   4.527   4.377 -1.9098  0.6256  0.5916
 7432SOL    HW225699   8.334   4.457   4.269  0.4793  0.1678 -0.9572
 7433SOL     OW25700   2.151   6.292   4.608 -0.0485  0.1924  0.2697
 7433SOL    HW125701   2.131   6.261   4.519 -0.0751  2.9391 -0.7608
 7433SOL    HW225702   2.246   6.283   4.615 -0.1160 -0.6468  0.2335
 7434SOL     OW25703   4.858   5.758   3.194 -0.1027 -0.1466  0.1328
 7434SOL    HW125704   4.950   5.772   3.215 -0.2744 -0.3104  1.0550
 7434SOL    HW225705   4.848   5.663   3.192  0.1077 -0.1539 -1.6930
 7435SOL     OW25706   8.005   8.401   4.086 -0.4786 -0.1481 -0.1985
 7435SOL    HW125707   8.005   8.488   4.125 -0.4034 -0.4907  0.5996
 7435SOL    HW225708   7.992   8.416   3.993  0.3972  0.7741 -0.1901
 7436SOL     OW25709   4.304   0.490   0.381  0.3214  0.0193  0.2968
 7436SOL    HW125710   4.292   0.434   0.304  0.8268 -0.8294  0.8187
 7436SOL    HW225711   4.260   0.572   0.358  0.9550 -0.0022 -1.1348
 7437SOL     OW25712   0.211   8.988   4.855  0.2649 -0.2217 -0.0820
 7437SOL    HW125713   0.222   8.901   4.816 -2.4159 -0.9689  0.5684
 7437SOL    HW225714   0.271   8.988   4.930  1.4111 -0.8815 -0.9621
 7438SOL     OW25715   6.283   2.556   8.121 -0.2924  0.2770  0.1703
 7438SOL    HW125716   6.280   2.528   8.029  1.0838 -1.2810  0.5678
 7438SOL    HW225717   6.358   2.615   8.126 -0.6601  0.7538  0.2212
 7439SOL     OW25718   7.057   0.463   7.348  0.3279 -0.3341  0.4728
 7439SOL    HW125719   7.002   0.523   7.398 -0.6009 -0.8986  0.1662
 7439SOL    HW225720   7.142   0.465   7.392  0.1044  0.6543  0.8836
 7440SOL     OW25721   8.439  10.265   9.519  0.0129 -0.2074  0.2502
 7440SOL    HW125722   8.446  10.347   9.469  0.2805  0.0424  0.6895
 7440SOL    HW225723   8.499  10.205   9.474 -0.4596 -0.2872 -0.2956
 7441SOL     OW25724   5.725   3.012   6.011 -0.0213  0.2562 -0.1857
 7441SOL    HW125725   5.748   3.048   6.097  1.8616  2.2350 -1.4019
 7441SOL    HW225726   5.768   3.071   5.949 -1.9311 -0.6819 -2.5261
 7442SOL     OW25727   9.358   5.408   3.279 -0.1610 -0.0175  0.5613
 7442SOL    HW125728   9.347   5.504   3.277 -0.3948  0.0225 -3.2245
 7442SOL    HW225729   9.268   5.375   3.280 -0.0886 -0.3182  2.9345
 7443SOL     OW25730  10.376   5.139   5.359 -0.4839  0.1444  0.1308
 7443SOL    HW125731  10.422   5.055   5.357  0.4393  0.5924  1.5246
 7443SOL    HW225732  10.378   5.170   5.269  0.3628 -0.6839 -0.1481
 7444SOL     OW25733   6.272   3.134   2.990  0.3576  0.1752 -0.3115
 7444SOL    HW125734   6.240   3.074   3.057  1.6057  0.6589  0.7704
 7444SOL    HW225735   6.248   3.094   2.907 -0.5177 -0.8427  0.4182
 7445SOL     OW25736   0.585  10.144   3.255 -0.1245 -0.1817 -0.0134
 7445SOL    HW125737   0.618  10.075   3.313  1.2915  0.5590  0.0954
 7445SOL    HW225738   0.497  10.114   3.231  0.2503 -1.7634  0.4428
 7446SOL     OW25739   4.919   1.824   2.419  0.0424  0.3637  0.0795
 7446SOL    HW125740   4.956   1.765   2.353  0.6637 -0.2948  1.0102
 7446SOL    HW225741   4.838   1.856   2.379 -0.2222 -0.9801 -0.5109
 7447SOL     OW25742   4.006   5.676   1.481  0.1088 -0.6207  0.1892
 7447SOL    HW125743   4.073   5.621   1.522  1.3347  0.2670 -0.5652
 7447SOL    HW225744   4.031   5.766   1.504 -0.2598 -0.2150 -0.9202
 7448SOL     OW25745   7.797   3.156   1.100  0.1097 -0.2285  0.1071
 7448SOL    HW125746   7.717   3.208   1.090  0.0072 -0.7520 -2.5509
 7448SOL    HW225747   7.867   3.215   1.071  0.4701 -0.4170  0.5727
 7449SOL     OW25748  10.054   8.530   2.961 -0.3860 -0.2375 -0.1605
 7449SOL    HW125749  10.032   8.473   2.887 -0.0978 -0.7566  0.1406
 7449SOL    HW225750  10.009   8.490   3.036 -0.3124  0.0263  0.0257
 7450SOL     OW25751   0.559   9.687  10.265 -0.9107  0.0460  0.4053
 7450SOL    HW125752   0.555   9.656  10.174  0.9171  0.0099  0.2951
 7450SOL    HW225753   0.642   9.734  10.270 -0.5448 -0.7234  2.2850
 7451SOL     OW25754   4.302   6.657  10.448  0.1324  0.4863  0.2733
 7451SOL    HW125755   4.356   6.736  10.441  2.2949 -0.6973  2.2435
 7451SOL    HW225756   4.302   6.635  10.541  1.4280 -2.9873 -0.3843
 7452SOL     OW25757   5.632  10.470   5.366  0.2698 -0.0501  0.1005
 7452SOL    HW125758   5.583  10.552   5.363 -0.5437 -0.5302 -0.0284
 7452SOL    HW225759   5.682  10.476   5.448  0.8587  0.9212 -0.3124
 7453SOL     OW25760   9.408  10.241   6.253  0.2436  0.3101 -0.4098
 7453SOL    HW125761   9.373  10.154   6.276  0.2070  0.5309  0.3974
 7453SOL    HW225762   9.330  10.294   6.236  0.2244  0.4821  0.2044
 7454SOL     OW25763   3.603   4.098   0.541 -0.0567  0.1831 -0.0975
 7454SOL    HW125764   3.657   4.063   0.469 -1.2956 -0.0033 -0.9679
 7454SOL    HW225765   3.665   4.113   0.612  0.9519 -1.1901 -0.6401
 7455SOL     OW25766   9.325   5.744   9.509 -0.4352  0.1446  0.7760
 7455SOL    HW125767   9.289   5.696   9.435  0.4390 -0.8757  0.9925
 7455SOL    HW225768   9.337   5.833   9.477 -0.3448 -0.2142 -0.2121
 7456SOL     OW25769   6.361   1.697   0.710  0.3570 -0.2377 -0.3820
 7456SOL    HW125770   6.350   1.769   0.647  0.4805  0.0108 -0.1225
 7456SOL    HW225771   6.442   1.718   0.757  0.5541 -0.7048 -0.5087
 7457SOL     OW25772   5.585   1.224  10.443  0.1657 -0.1862 -0.0681
 7457SOL    HW125773   5.528   1.276  10.387  1.4996  0.5207 -0.8207
 7457SOL    HW225774   5.558   1.246  10.532 -1.3380 -0.5916 -0.3928
 7458SOL     OW25775   1.328   6.192   6.415 -0.0805  0.6713 -0.1890
 7458SOL    HW125776   1.413   6.208   6.374  0.4498  0.8623  0.9410
 7458SOL    HW225777   1.344   6.118   6.474 -0.8021  0.4482 -0.2682
 7459SOL     OW25778   6.556   1.684   6.395  0.2679  0.3351  0.0849
 7459SOL    HW125779   6.640   1.639   6.403  0.1742 -0.1451 -1.4139
 7459SOL    HW225780   6.497   1.619   6.357 -0.4458  1.0617 -0.0783
 7460SOL     OW25781   9.069   9.580   9.330  0.3075 -0.1847 -0.1017
 7460SOL    HW125782   9.034   9.662   9.367  0.5505  0.1151 -0.5241
 7460SOL    HW225783   9.144   9.608   9.278  0.6600 -0.7326  0.1058
 7461SOL     OW25784   0.197   1.571   8.974  0.2313 -0.3892  0.1901
 7461SOL    HW125785   0.148   1.500   9.016  0.4377 -0.1608  0.8402
 7461SOL    HW225786   0.274   1.528   8.936 -0.2516 -0.6836 -0.4652
 7462SOL     OW25787   0.009   4.388   6.646  0.1487  0.6461 -0.1539
 7462SOL    HW125788  -0.007   4.431   6.562 -0.8959  0.5230 -0.0215
 7462SOL    HW225789  -0.077   4.363   6.678  0.6893 -1.0072  0.0753
 7463SOL     OW25790   7.288  10.119   0.613  0.0519 -0.2639 -0.3892
 7463SOL    HW125791   7.253  10.040   0.572  0.5619 -1.5493  1.5145
 7463SOL    HW225792   7.305  10.179   0.540  0.2031 -2.1269 -1.9542
 7464SOL     OW25793   1.978   3.682   8.108 -0.0397 -0.1644  0.3013
 7464SOL    HW125794   1.922   3.735   8.051  1.3465  1.4267  0.3461
 7464SOL    HW225795   2.002   3.740   8.180 -1.7816 -2.1359  2.6405
 7465SOL     OW25796   5.476   1.323   8.444  0.1817 -0.0980  0.4600
 7465SOL    HW125797   5.531   1.401   8.453  0.0700  0.0799 -0.3136
 7465SOL    HW225798   5.538   1.250   8.448  0.5824  0.1238 -1.0481
 7466SOL     OW25799   5.620   2.737   6.546 -0.6347  0.8159  0.1218
 7466SOL    HW125800   5.609   2.694   6.631 -0.1537  0.6818  0.1204
 7466SOL    HW225801   5.637   2.665   6.485  1.0765  1.0525  0.2738
 7467SOL     OW25802  10.188   1.676   7.213  0.1571 -0.1014 -0.6656
 7467SOL    HW125803  10.097   1.704   7.218  0.2902  0.1083  1.7448
 7467SOL    HW225804  10.238   1.758   7.201  0.0966 -0.0747 -0.7310
 7468SOL     OW25805   9.745   3.141   9.334  0.0090  1.0421  0.0591
 7468SOL    HW125806   9.816   3.184   9.287  2.1496 -0.0496  2.1282
 7468SOL    HW225807   9.753   3.172   9.424 -0.7140 -0.8456  0.8124
 7469SOL     OW25808   1.639   0.924   0.331 -0.3055  0.2648  0.3106
 7469SOL    HW125809   1.654   0.865   0.257  2.1513  0.1094  0.8573
 7469SOL    HW225810   1.554   0.896   0.367 -0.2708 -1.4461 -0.8078
 7470SOL     OW25811   5.143   0.569   9.888  0.4873  0.2332 -0.2421
 7470SOL    HW125812   5.234   0.599   9.893  0.1266  1.2240  1.7896
 7470SOL    HW225813   5.113   0.573   9.979 -1.3813 -0.7537 -0.7849
 7471SOL     OW25814   4.694   9.828   4.767  0.7380  0.1771  0.7290
 7471SOL    HW125815   4.648   9.907   4.796  2.7374  1.8000 -0.2438
 7471SOL    HW225816   4.752   9.806   4.840  1.0897  0.3857  0.5166
 7472SOL     OW25817   6.685   1.811   8.943 -0.5198  0.8298  0.1261
 7472SOL    HW125818   6.668   1.771   8.857 -0.8100  0.0629  0.5317
 7472SOL    HW225819   6.644   1.898   8.937 -3.2908 -0.3540  0.5217
 7473SOL     OW25820   9.252  10.507   8.255  0.3215  0.1985 -0.1227
 7473SOL    HW125821   9.318  10.483   8.190  1.2960  3.5099 -0.5502
 7473SOL    HW225822   9.298  10.504   8.338 -0.3359 -1.9186  0.2245
 7474SOL     OW25823   4.462   6.414   8.886  0.2712 -0.2114  0.3981
 7474SOL    HW125824   4.458   6.405   8.790 -1.9679 -0.8580  0.5153
 7474SOL    HW225825   4.521   6.344   8.913  0.6677 -0.2382 -0.4746
 7475SOL     OW25826   7.236   8.008   6.167 -0.4065  0.0250 -0.1436
 7475SOL    HW125827   7.292   7.980   6.095  0.5486 -2.3046  1.3931
 7475SOL    HW225828   7.154   7.960   6.153 -0.9218  1.0265 -0.6702
 7476SOL     OW25829   9.354   4.407   6.576 -0.6684 -0.3062  0.1292
 7476SOL    HW125830   9.323   4.452   6.655 -2.3372  2.2764 -1.8372
 7476SOL    HW225831   9.280   4.353   6.548 -0.0173 -1.3615  0.3996
 7477SOL     OW25832   6.214   3.941  10.281 -0.1106  0.1713  0.1097
 7477SOL    HW125833   6.133   3.931  10.332  0.4671 -0.7567  0.8794
 7477SOL    HW225834   6.188   3.923  10.191 -1.0241  1.2038  0.1564
 7478SOL     OW25835   1.567  10.102   7.181 -0.5131 -0.2718  0.1239
 7478SOL    HW125836   1.616  10.115   7.263 -0.7473  0.5786  0.1319
 7478SOL    HW225837   1.584  10.011   7.158 -0.0007 -0.3651  0.8341
 7479SOL     OW25838   5.238   8.631   5.233 -0.6148  0.0421  0.2962
 7479SOL    HW125839   5.309   8.675   5.188 -1.3416  0.0374 -0.9000
 7479SOL    HW225840   5.186   8.701   5.272 -0.8753  0.1573 -0.2482
 7480SOL     OW25841   5.648   1.736   7.245 -0.2284 -0.2336 -0.8325
 7480SOL    HW125842   5.663   1.690   7.162 -0.2034  0.1059 -1.0162
 7480SOL    HW225843   5.715   1.804   7.247 -0.1590 -0.3122 -0.4801
 7481SOL     OW25844   1.215   0.620   1.311  0.3642  0.1018  0.3375
 7481SOL    HW125845   1.217   0.670   1.229  1.6435 -0.9972 -0.3513
 7481SOL    HW225846   1.122   0.600   1.325  0.0513  0.9678 -0.4295
 7482SOL     OW25847   1.934   0.373   4.381  0.0188  0.4871 -0.4794
 7482SOL    HW125848   1.917   0.466   4.366  0.5153  0.5691 -0.5642
 7482SOL    HW225849   2.007   0.352   4.323  0.5600  0.2871  0.2549
 7483SOL     OW25850   2.697   4.500   4.310  0.2511  0.2333  0.1184
 7483SOL    HW125851   2.624   4.560   4.325 -0.0502  0.1974 -1.1675
 7483SOL    HW225852   2.676   4.457   4.228  2.5749  1.4960 -1.2171
 7484SOL     OW25853   7.394   9.173   3.029 -0.0215 -0.0486 -0.0549
 7484SOL    HW125854   7.451   9.194   3.103 -2.0374  0.1635  1.5402
 7484SOL    HW225855   7.334   9.107   3.063 -0.5594 -0.4680 -1.7387
 7485SOL     OW25856   0.422   1.935   4.935 -0.7137  0.2125  0.3049
 7485SOL    HW125857   0.516   1.932   4.920 -0.7546  1.7946 -0.4102
 7485SOL    HW225858   0.407   1.868   5.002  0.7724 -0.6733 -0.1863
 7486SOL     OW25859   2.056   6.338   8.946 -0.0965  0.6905 -0.2479
 7486SOL    HW125860   2.099   6.324   8.862 -0.0891 -1.5150  0.0643
 7486SOL    HW225861   2.123   6.377   9.002  0.4894  0.3853 -0.7296
 7487SOL     OW25862   9.755   2.572   8.686  0.2021 -0.2620 -0.0313
 7487SOL    HW125863   9.712   2.657   8.671 -1.0334 -0.7053  0.8035
 7487SOL    HW225864   9.770   2.537   8.599  1.5812  1.2084 -0.4299
 7488SOL     OW25865   7.251   3.476   7.020 -0.1326  0.1275  0.1931
 7488SOL    HW125866   7.236   3.506   6.931 -1.1721  2.0004  0.9511
 7488SOL    HW225867   7.286   3.387   7.010  1.3551  0.8936 -2.1034
 7489SOL     OW25868  10.776   3.587   9.866  0.6189  0.5179  0.0941
 7489SOL    HW125869  10.724   3.660   9.900  0.3068  1.0789 -1.4983
 7489SOL    HW225870  10.843   3.572   9.933 -0.4603  0.9978  1.3344
 7490SOL     OW25871   4.647   4.392   9.203  0.2021 -0.6057 -0.0986
 7490SOL    HW125872   4.726   4.358   9.244  0.2667 -2.1310 -1.3663
 7490SOL    HW225873   4.639   4.342   9.121 -0.0028  2.1628 -1.9069
 7491SOL     OW25874   7.563   1.146   3.823 -0.2843 -0.1989  0.2568
 7491SOL    HW125875   7.529   1.061   3.849  0.2772 -0.5561 -0.1660
 7491SOL    HW225876   7.552   1.148   3.727 -0.5796  0.3283  0.2971
 7492SOL     OW25877   1.148   5.066   2.092  0.1101 -0.0191  0.0589
 7492SOL    HW125878   1.164   4.975   2.118 -0.0898 -0.0405  0.1096
 7492SOL    HW225879   1.061   5.086   2.126  0.7510  0.6814  1.3805
 7493SOL     OW25880   3.369   9.607   8.882  0.2961  0.9479  0.5448
 7493SOL    HW125881   3.459   9.592   8.852 -0.2079 -1.6809  0.0445
 7493SOL    HW225882   3.314   9.580   8.808 -0.9167  1.3386  1.2662
 7494SOL     OW25883   4.671   9.677   0.539 -0.6660  0.3344  0.3641
 7494SOL    HW125884   4.639   9.748   0.596  0.0210  1.1429 -0.2276
 7494SOL    HW225885   4.766   9.679   0.549 -0.7112 -1.7798  1.7867
 7495SOL     OW25886   2.416   3.224   7.072  0.0021 -0.2344  0.3369
 7495SOL    HW125887   2.342   3.171   7.043  0.0006 -0.5059  0.8133
 7495SOL    HW225888   2.453   3.260   6.992  0.4555 -1.5688 -0.0810
 7496SOL     OW25889   5.129   7.202   3.537 -0.6223 -0.1431 -0.4605
 7496SOL    HW125890   5.069   7.153   3.593  1.6374 -1.9937  0.5321
 7496SOL    HW225891   5.080   7.217   3.457 -2.8087 -0.4430  0.7413
 7497SOL     OW25892  10.442   8.135   6.542  0.3239  0.0208  0.2779
 7497SOL    HW125893  10.437   8.175   6.629  1.5958  0.9289 -0.0242
 7497SOL    HW225894  10.352   8.109   6.522  0.4011 -2.9139  3.0476
 7498SOL     OW25895   0.396   2.605   5.026  0.2844 -0.2975  0.1269
 7498SOL    HW125896   0.362   2.643   5.108 -1.0019 -0.8808 -0.1085
 7498SOL    HW225897   0.349   2.652   4.957 -0.8004 -1.7950 -0.1871
 7499SOL     OW25898   0.681   5.702   9.294  0.0703 -0.0698 -0.3257
 7499SOL    HW125899   0.775   5.705   9.274 -0.0865  0.2423 -1.0704
 7499SOL    HW225900   0.653   5.793   9.293 -0.3938 -0.2121 -0.8868
 7500SOL     OW25901   4.754   0.647   8.981  0.1471 -0.1003  0.2696
 7500SOL    HW125902   4.764   0.592   8.904  0.7387 -0.7113  0.7687
 7500SOL    HW225903   4.841   0.685   8.995  0.3839 -0.9997  1.3668
 7501SOL     OW25904   3.544   3.466   3.343  0.1558  0.0800  0.0055
 7501SOL    HW125905   3.623   3.506   3.380  0.6490 -0.8609  0.0104
 7501SOL    HW225906   3.474   3.526   3.366  0.7337  0.4634  0.8400
 7502SOL     OW25907   9.421   2.154   0.146  0.7381  0.0835  0.3412
 7502SOL    HW125908   9.392   2.092   0.080  0.5834  0.4721  0.0423
 7502SOL    HW225909   9.502   2.191   0.111  0.1452  1.0141 -0.0994
 7503SOL     OW25910   3.281   2.900   9.037  0.0397  0.5938 -0.8084
 7503SOL    HW125911   3.268   2.831   9.103  0.9964  0.2467 -0.9722
 7503SOL    HW225912   3.326   2.856   8.965 -1.6346  0.7980 -2.0437
 7504SOL     OW25913   2.387  10.334   8.749  0.0595  0.0566  0.5717
 7504SOL    HW125914   2.465  10.284   8.726 -1.3230 -2.6746  1.3876
 7504SOL    HW225915   2.371  10.389   8.672  1.9731 -0.3578 -0.1812
 7505SOL     OW25916   2.992   1.132   5.288  0.6299  0.0163 -0.3494
 7505SOL    HW125917   3.052   1.147   5.361  0.4956  2.2901 -0.6244
 7505SOL    HW225918   2.914   1.184   5.311 -0.3381 -1.0951 -1.0328
 7506SOL     OW25919   0.545   8.624   5.477  0.3635  0.4231  0.5872
 7506SOL    HW125920   0.556   8.626   5.382  0.1077  0.0182  0.5481
 7506SOL    HW225921   0.505   8.709   5.498 -0.3094  0.2052  0.2326
 7507SOL     OW25922   4.473   1.510   3.117  0.2810  0.1225 -0.3402
 7507SOL    HW125923   4.407   1.531   3.051 -1.5739  0.3146  1.4851
 7507SOL    HW225924   4.437   1.542   3.199  1.4155 -2.1528  1.1729
 7508SOL     OW25925   7.565   7.514   0.708  0.6684  0.4689  0.0244
 7508SOL    HW125926   7.525   7.429   0.691  1.0672  0.1137  0.7829
 7508SOL    HW225927   7.500   7.563   0.758  1.1001 -0.0477  1.1152
 7509SOL     OW25928   0.914  10.651   7.918 -0.0058  0.1232  0.0499
 7509SOL    HW125929   0.896  10.635   7.825 -0.1121  0.8632 -0.0654
 7509SOL    HW225930   0.902  10.746   7.928  2.3809  0.4526  0.2979
 7510SOL     OW25931   4.973   1.238   3.633  0.3942 -0.1634 -0.0782
 7510SOL    HW125932   5.002   1.147   3.643 -1.1173 -0.5517  1.2350
 7510SOL    HW225933   4.975   1.274   3.722 -1.3006  0.3224 -0.1985
 7511SOL     OW25934   0.506   4.233   4.976 -0.0484 -0.1776  0.1790
 7511SOL    HW125935   0.523   4.147   5.015 -2.9975 -0.1712  1.7787
 7511SOL    HW225936   0.583   4.285   4.998  1.9185 -2.3872 -1.0132
 7512SOL     OW25937  10.640   0.334  10.180 -0.0197 -0.4897 -0.5823
 7512SOL    HW125938  10.627   0.425  10.208 -0.6411 -0.4634 -0.9296
 7512SOL    HW225939  10.583   0.324  10.104 -0.1067 -1.2216 -0.4323
 7513SOL     OW25940   6.331   5.114   2.088  0.4153 -0.1825 -0.0102
 7513SOL    HW125941   6.376   5.199   2.097  0.7264 -0.0092 -2.4646
 7513SOL    HW225942   6.304   5.092   2.177  3.1991  0.9126  1.2488
 7514SOL     OW25943   5.838   0.976   4.903  0.4567  0.0659  0.0496
 7514SOL    HW125944   5.743   0.972   4.897  0.4075 -1.4382  1.1948
 7514SOL    HW225945   5.858   1.070   4.905 -1.0865  0.4208  0.7954
 7515SOL     OW25946   7.148   1.504   4.214  0.4318 -0.2802  0.3709
 7515SOL    HW125947   7.223   1.556   4.243  0.1629  0.1709  0.2649
 7515SOL    HW225948   7.157   1.421   4.260  0.4967  0.1043  1.0506
 7516SOL     OW25949   0.706   0.171   8.437 -0.4504  0.5231 -0.4801
 7516SOL    HW125950   0.612   0.180   8.420 -0.1843  0.6804 -2.0174
 7516SOL    HW225951   0.713   0.091   8.489 -1.5506  1.3125  0.9663
 7517SOL     OW25952   9.534  10.515   0.527  0.1918 -0.3983 -0.0470
 7517SOL    HW125953   9.542  10.597   0.575 -2.2259 -0.0034 -0.1849
 7517SOL    HW225954   9.549  10.540   0.436  0.8411 -0.3854  0.0608
 7518SOL     OW25955   8.915   6.377   1.834  0.3494 -0.0615  0.0388
 7518SOL    HW125956   8.998   6.329   1.838  1.2092  1.4315  1.5756
 7518SOL    HW225957   8.865   6.332   1.766  1.8133 -1.9371  0.1013
 7519SOL     OW25958   8.578  10.628   9.712  0.3346 -0.4253 -0.0433
 7519SOL    HW125959   8.544  10.628   9.801 -0.1973  2.8541 -0.1203
 7519SOL    HW225960   8.501  10.640   9.657  0.8844 -0.1020 -0.7574
 7520SOL     OW25961   8.571  10.210  10.578 -0.6621  0.3562 -0.1119
 7520SOL    HW125962   8.570  10.130  10.630 -1.7696  0.4561  0.0436
 7520SOL    HW225963   8.483  10.216  10.541 -0.4260  1.2160 -0.5642
 7521SOL     OW25964  10.377   6.500   4.402  0.3528  0.0688 -0.5392
 7521SOL    HW125965  10.471   6.497   4.419  0.2350  1.4456  0.4394
 7521SOL    HW225966  10.337   6.491   4.488 -0.4351 -0.6981 -0.9722
 7522SOL     OW25967  10.687   7.577   1.513  0.0385 -0.4376  0.2014
 7522SOL    HW125968  10.646   7.509   1.566 -1.5409 -2.0623 -2.8794
 7522SOL    HW225969  10.747   7.530   1.455  0.8850  1.1138 -0.2475
 7523SOL     OW25970   1.037   7.967   7.013 -0.5008 -0.1515  0.4327
 7523SOL    HW125971   1.115   7.938   6.966 -1.2248  0.1543 -1.0060
 7523SOL    HW225972   0.993   7.887   7.041  1.1988 -0.3526  2.8676
 7524SOL     OW25973  10.118   7.787   7.792  0.1627 -0.0629 -0.4051
 7524SOL    HW125974  10.045   7.779   7.853  0.6470  0.8155  0.3129
 7524SOL    HW225975  10.082   7.762   7.707 -0.6374 -0.8683  0.1552
 7525SOL     OW25976   4.858   0.218   9.474 -0.0135 -0.0845 -0.4834
 7525SOL    HW125977   4.794   0.258   9.532 -0.1035  0.2881 -0.8381
 7525SOL    HW225978   4.943   0.248   9.507 -0.1075  1.0160 -1.1884
 7526SOL     OW25979   5.941   7.297   5.073 -0.3868  0.2554  1.0144
 7526SOL    HW125980   5.964   7.338   4.989 -0.3892  1.8570  1.7652
 7526SOL    HW225981   6.025   7.284   5.117 -0.4410  0.1196  1.0794
 7527SOL     OW25982   1.472   9.216   7.149  0.2260  0.0706 -0.0104
 7527SOL    HW125983   1.514   9.258   7.225  3.2891 -1.6840 -0.5601
 7527SOL    HW225984   1.458   9.288   7.088  1.2527  0.9648  0.7565
 7528SOL     OW25985   2.991   9.790   6.361 -0.2314 -0.2485 -0.1370
 7528SOL    HW125986   2.923   9.818   6.299 -0.7428 -1.2131 -0.0288
 7528SOL    HW225987   2.987   9.855   6.431  0.1108  0.6545 -0.9303
 7529SOL     OW25988   4.390   3.892   6.275 -0.2154  0.2285  0.6212
 7529SOL    HW125989   4.396   3.896   6.180 -0.8076  0.5819  0.5932
 7529SOL    HW225990   4.440   3.968   6.305 -1.1113  0.8522  0.5429
 7530SOL     OW25991   4.826   5.823   9.956 -0.3349 -0.5621  0.4663
 7530SOL    HW125992   4.873   5.739   9.955 -0.7115 -0.7740  0.2071
 7530SOL    HW225993   4.758   5.813   9.888 -0.5991 -0.1748  0.6722
 7531SOL     OW25994   6.193   6.990   9.829  0.2452  0.1828 -0.8787
 7531SOL    HW125995   6.244   7.041   9.892  0.4892  0.3442 -1.2019
 7531SOL    HW225996   6.124   6.950   9.881  0.7569 -0.1158 -0.4093
 7532SOL     OW25997   3.596   7.507   4.448  0.4301 -0.0156  0.2144
 7532SOL    HW125998   3.680   7.524   4.490  0.2695  0.2342  0.4448
 7532SOL    HW225999   3.545   7.586   4.466  0.9259  0.8370 -1.9032
 7533SOL     OW26000   5.927   7.302   0.647  0.4608  0.2053 -0.2343
 7533SOL    HW126001   5.946   7.210   0.629 -0.3612  0.1706 -0.9509
 7533SOL    HW226002   5.921   7.307   0.742 -1.2945 -0.8581 -0.2518
 7534SOL     OW26003   8.457   4.177   8.216 -0.2404  0.9160  0.2243
 7534SOL    HW126004   8.419   4.256   8.253  1.0990  0.4646  2.7806
 7534SOL    HW226005   8.518   4.146   8.283  0.3218 -1.5113 -1.2876
 7535SOL     OW26006   2.072   1.875   0.493  0.0611  0.5546 -0.5908
 7535SOL    HW126007   2.047   1.893   0.403 -0.0482  0.9407 -0.4868
 7535SOL    HW226008   2.168   1.871   0.491  0.0518  0.4269 -0.7486
 7536SOL     OW26009   0.157   6.435   1.070  0.1093 -0.3380 -0.4147
 7536SOL    HW126010   0.175   6.394   0.986  1.3995 -0.5998 -0.0220
 7536SOL    HW226011   0.102   6.511   1.049 -0.3040 -0.8958 -1.3910
 7537SOL     OW26012   5.016   5.151   3.652  0.2475 -0.5583 -0.5961
 7537SOL    HW126013   4.971   5.192   3.725  0.0588 -0.6661 -0.6521
 7537SOL    HW226014   5.102   5.194   3.650 -0.3858  0.7358 -1.4405
 7538SOL     OW26015   2.568   6.708   1.963  0.1551  0.1479 -0.5310
 7538SOL    HW126016   2.553   6.696   2.057  0.1482  1.4464 -0.3408
 7538SOL    HW226017   2.623   6.787   1.958  0.3284 -0.0295 -1.6084
 7539SOL     OW26018   3.513   2.746   3.545  0.4563  0.2357  0.2767
 7539SOL    HW126019   3.534   2.720   3.455 -0.9295 -1.9561  0.5195
 7539SOL    HW226020   3.586   2.715   3.597  0.4802  0.0090  0.1092
 7540SOL     OW26021   5.610   2.478   8.929 -0.3686  0.4191 -0.3582
 7540SOL    HW126022   5.697   2.438   8.936 -1.1088 -1.0340  1.6848
 7540SOL    HW226023   5.602   2.531   9.008 -1.7977 -0.5449  0.1977
 7541SOL     OW26024   6.326   6.258   3.988 -0.2093 -0.3842 -0.3518
 7541SOL    HW126025   6.269   6.259   3.911 -0.9277  0.3686  0.1685
 7541SOL    HW226026   6.415   6.259   3.953 -0.5286  0.0304 -1.1732
 7542SOL     OW26027   4.113   5.444   7.706  0.6291  0.0430  0.1692
 7542SOL    HW126028   4.050   5.489   7.762 -0.4619 -1.3270  0.0893
 7542SOL    HW226029   4.132   5.507   7.636  1.1022  1.3216  1.4027
 7543SOL     OW26030   2.519   1.425  10.223  0.0135  0.3996 -0.1915
 7543SOL    HW126031   2.576   1.397  10.151  0.8635  3.1387 -0.6929
 7543SOL    HW226032   2.579   1.459  10.289 -0.8556 -0.7137  1.2425
 7544SOL     OW26033   7.106   1.663   6.967  0.6287 -0.2411  0.1967
 7544SOL    HW126034   7.013   1.662   6.992  0.5767 -0.4503 -0.0074
 7544SOL    HW226035   7.117   1.585   6.913  0.8948 -0.1434  0.1112
 7545SOL     OW26036   7.015   6.396   0.100 -0.4529 -0.5168  0.3572
 7545SOL    HW126037   7.106   6.425   0.115 -0.7826  0.0543  1.4086
 7545SOL    HW226038   7.020   6.300   0.105  0.1244 -0.5021  0.2046
 7546SOL     OW26039   4.307   4.361   3.851  0.4465 -0.2851  0.3937
 7546SOL    HW126040   4.258   4.282   3.829  2.0151 -0.6632 -2.1590
 7546SOL    HW226041   4.336   4.395   3.767  1.9673  1.6026  1.6017
 7547SOL     OW26042   0.784   2.579   5.034 -0.1168 -0.2821  0.3936
 7547SOL    HW126043   0.826   2.560   5.118  1.4548 -0.3856 -0.3947
 7547SOL    HW226044   0.716   2.642   5.056 -0.6497 -1.3291  1.9456
 7548SOL     OW26045   9.324   7.432   8.564 -0.6211  0.0813  0.4010
 7548SOL    HW126046   9.361   7.356   8.517 -0.0098  0.8940 -0.4814
 7548SOL    HW226047   9.313   7.498   8.496 -0.2293  1.1159  1.3232
 7549SOL     OW26048   1.402   9.962   3.390  0.3531 -0.3338 -0.2559
 7549SOL    HW126049   1.450   9.883   3.413  0.4915 -0.0112  0.6219
 7549SOL    HW226050   1.338   9.973   3.460  2.1292  1.7977  1.2126
 7550SOL     OW26051   8.132   0.813   9.022  0.0372  0.4448  0.2059
 7550SOL    HW126052   8.104   0.739   8.969 -3.0544 -0.2895  2.6484
 7550SOL    HW226053   8.143   0.884   8.959 -1.0781 -0.9758 -1.6838
 7551SOL     OW26054   6.743   4.271   3.598 -0.1849 -0.0904 -0.2958
 7551SOL    HW126055   6.835   4.296   3.607 -0.0165 -0.1978 -1.5807
 7551SOL    HW226056   6.704   4.341   3.547 -0.4708 -0.7486 -1.0044
 7552SOL     OW26057   0.330   8.178   6.111 -0.3020  0.8321  0.8476
 7552SOL    HW126058   0.271   8.106   6.133  1.0496 -0.0135  1.8920
 7552SOL    HW226059   0.276   8.239   6.062 -1.3490 -1.1812 -0.6634
 7553SOL     OW26060  10.004   8.825   6.962  0.0645 -0.0295 -0.9935
 7553SOL    HW126061   9.945   8.779   6.901  0.5014 -1.3925 -0.4313
 7553SOL    HW226062   9.974   8.797   7.049 -0.2633  1.5368 -0.5671
 7554SOL     OW26063  10.034   1.456  10.784  0.2602 -0.0296 -0.2845
 7554SOL    HW126064  10.117   1.487  10.747  0.6513  1.2412  1.5136
 7554SOL    HW226065  10.060   1.405  10.861 -0.6247  0.6700  0.4943
 7555SOL     OW26066   2.219   0.251   3.097 -0.5764  0.7169 -0.0321
 7555SOL    HW126067   2.298   0.306   3.089 -0.8339  1.0302 -0.4286
 7555SOL    HW226068   2.239   0.173   3.046  0.0062  0.1816  0.9737
 7556SOL     OW26069  10.615   9.701   4.408  0.5796 -0.0948 -0.4294
 7556SOL    HW126070  10.558   9.637   4.365 -0.4278  2.1141 -2.6259
 7556SOL    HW226071  10.664   9.741   4.337  0.4252  2.2877  0.7293
 7557SOL     OW26072   0.874   3.584   9.001 -0.2280 -0.5946  0.3089
 7557SOL    HW126073   0.780   3.565   9.003 -0.6621  1.2589 -0.2602
 7557SOL    HW226074   0.916   3.500   9.022 -2.0302 -1.1178  2.2430
 7558SOL     OW26075   2.617  10.636   1.361  0.0405  0.2478  0.1921
 7558SOL    HW126076   2.630  10.562   1.419  2.2394 -0.7434 -1.4180
 7558SOL    HW226077   2.530  10.621   1.322  0.3109 -1.3527  0.1272
 7559SOL     OW26078   8.773   8.279   5.158  0.5242 -0.0028 -0.1640
 7559SOL    HW126079   8.815   8.345   5.213 -1.9319  0.1234  1.6944
 7559SOL    HW226080   8.682   8.308   5.151 -0.1153 -2.0641 -1.1476
 7560SOL     OW26081   3.397   9.278   3.878  0.1720  0.4163 -0.3631
 7560SOL    HW126082   3.302   9.273   3.870  0.3039  0.0949 -1.9866
 7560SOL    HW226083   3.423   9.191   3.909  0.1534 -0.5522 -2.8529
 7561SOL     OW26084   3.973   5.094   6.222  0.3813  0.3229 -0.3296
 7561SOL    HW126085   3.972   5.107   6.317 -2.6426  1.0217 -0.3632
 7561SOL    HW226086   3.924   5.168   6.187  2.5552  0.8182 -2.6475
 7562SOL     OW26087   2.715   3.097   7.947 -0.3289 -0.4299  0.0011
 7562SOL    HW126088   2.701   3.140   7.863 -1.1954 -0.2219  0.2380
 7562SOL    HW226089   2.678   3.009   7.936 -1.5487 -0.0128  0.5071
 7563SOL     OW26090  10.100   8.602   4.374  0.1051  0.3027 -0.0536
 7563SOL    HW126091  10.029   8.640   4.426  0.2083  0.7276 -0.2197
 7563SOL    HW226092  10.110   8.513   4.409  0.2103  0.5948  0.6970
 7564SOL     OW26093   9.358  10.062   3.850 -0.3159 -0.3221 -0.1470
 7564SOL    HW126094   9.428  10.051   3.786 -1.7075 -0.7357 -1.6508
 7564SOL    HW226095   9.317   9.975   3.856 -0.0781 -0.3599  1.5035
 7565SOL     OW26096  10.535   1.334   8.859  0.0560  0.1448  0.5592
 7565SOL    HW126097  10.505   1.402   8.920  0.4941  1.3249 -0.5068
 7565SOL    HW226098  10.611   1.373   8.815  0.8239 -1.3537  0.4971
 7566SOL     OW26099   5.241  10.222   1.537 -0.6060 -0.5504 -0.0735
 7566SOL    HW126100   5.253  10.129   1.557  1.4900 -0.3858 -0.3959
 7566SOL    HW226101   5.223  10.262   1.622 -1.8873 -1.2781  0.0199
 7567SOL     OW26102   1.285   0.282   0.341 -0.0942 -0.1645 -0.2756
 7567SOL    HW126103   1.346   0.314   0.407 -0.4692  0.1054 -0.0607
 7567SOL    HW226104   1.229   0.357   0.321  0.7451  0.1236 -1.7567
 7568SOL     OW26105   0.083   7.003   3.484  0.2320  0.2627  0.1227
 7568SOL    HW126106   0.052   7.028   3.397 -1.8138  0.4703  0.8492
 7568SOL    HW226107   0.123   7.083   3.519 -0.4342  0.6658 -0.0163
 7569SOL     OW26108   9.676   2.592   1.907  0.6198  0.1015  0.4110
 7569SOL    HW126109   9.615   2.626   1.842  1.1726  1.0383  0.3611
 7569SOL    HW226110   9.721   2.520   1.863  1.7999  1.4457 -0.6721
 7570SOL     OW26111   3.637   0.145   4.762  0.0503  0.4673  0.2506
 7570SOL    HW126112   3.610   0.111   4.677 -0.1687 -0.2613  0.5996
 7570SOL    HW226113   3.733   0.142   4.760  0.0337 -0.4386  0.3680
 7571SOL     OW26114   8.317   8.920  10.026  0.5018 -0.1900 -0.6372
 7571SOL    HW126115   8.359   8.901   9.942 -0.6841 -0.1624 -1.2586
 7571SOL    HW226116   8.334   8.842  10.079 -0.2176 -0.9826 -1.5238
 7572SOL     OW26117  10.275   1.744   4.731 -0.7480  0.2007 -0.6431
 7572SOL    HW126118  10.250   1.805   4.662  1.1888  2.0157  0.1296
 7572SOL    HW226119  10.366   1.721   4.711 -1.2131 -1.9545 -0.5229
 7573SOL     OW26120  10.058   9.660   7.852 -0.2372 -0.3913 -0.6143
 7573SOL    HW126121  10.107   9.645   7.772  0.8034  1.3544 -0.3514
 7573SOL    HW226122  10.114   9.627   7.922 -0.5616 -0.7221 -0.5093
 7574SOL     OW26123   9.001   3.597  10.824 -0.1498 -0.1464 -0.3170
 7574SOL    HW126124   8.988   3.520  10.769 -0.0260  0.0357 -0.6037
 7574SOL    HW226125   9.057   3.655  10.771  0.7302 -0.3574  0.3507
 7575SOL     OW26126   5.547   2.843   4.735  0.1652  0.1818  0.0700
 7575SOL    HW126127   5.632   2.886   4.732  1.7622 -2.7121  0.7613
 7575SOL    HW226128   5.539   2.799   4.651  0.9351 -2.2012  1.1526
 7576SOL     OW26129   0.278   6.522   3.887 -0.0107 -0.2798 -0.4272
 7576SOL    HW126130   0.276   6.455   3.819  0.2616 -0.9528  0.2087
 7576SOL    HW226131   0.359   6.504   3.936 -0.2693  0.1087  0.1519
 7577SOL     OW26132   2.276   6.976   8.691 -0.0315 -0.4898  0.1193
 7577SOL    HW126133   2.257   6.943   8.779 -1.4318  0.2676  0.1279
 7577SOL    HW226134   2.336   7.049   8.704  0.4628 -0.9267  0.3547
 7578SOL     OW26135   2.464   9.067   3.775 -0.1503  0.1051 -0.2870
 7578SOL    HW126136   2.400   9.002   3.743 -2.4272  2.7460 -1.5372
 7578SOL    HW226137   2.428   9.096   3.858  1.1455 -0.5436  0.5297
 7579SOL     OW26138   4.113   1.799   6.025 -0.0356 -0.3422  0.1501
 7579SOL    HW126139   4.154   1.819   5.941 -0.3243  0.2718  0.1437
 7579SOL    HW226140   4.143   1.712   6.047 -0.5070 -0.8020 -0.9368
 7580SOL     OW26141   3.985   1.519   9.594  0.1711  0.0386  0.1047
 7580SOL    HW126142   4.004   1.428   9.616 -1.9596 -0.2891  0.7595
 7580SOL    HW226143   3.926   1.549   9.663  1.9572  2.4228  0.7326
 7581SOL     OW26144   3.653   3.954   2.828 -0.0606 -0.2660 -0.5434
 7581SOL    HW126145   3.646   3.988   2.739 -0.1589  0.5280 -0.2472
 7581SOL    HW226146   3.563   3.947   2.858  0.0079  1.5515  0.2279
 7582SOL     OW26147   0.452   9.846   3.709  0.7230 -0.0723 -0.1894
 7582SOL    HW126148   0.544   9.827   3.696  0.6742 -1.4035  1.0803
 7582SOL    HW226149   0.421   9.777   3.768 -0.8986  0.7835  0.0404
 7583SOL     OW26150   5.003   0.730   9.090 -0.4723  0.3500 -0.1196
 7583SOL    HW126151   5.024   0.734   9.183 -0.5231 -0.8102 -0.0465
 7583SOL    HW226152   5.072   0.781   9.047 -0.0059  0.2353  0.4872
 7584SOL     OW26153   1.234   3.001   7.889  0.0767  0.6766 -0.0191
 7584SOL    HW126154   1.322   3.025   7.861 -0.3287  0.9685 -1.0948
 7584SOL    HW226155   1.215   2.920   7.842 -1.2340  2.0240 -2.0097
 7585SOL     OW26156   7.391   6.199   3.922  0.2350 -0.4272 -0.0079
 7585SOL    HW126157   7.441   6.277   3.898 -0.1454 -0.0589  0.3846
 7585SOL    HW226158   7.384   6.203   4.017  0.3024 -0.9990  0.0242
 7586SOL     OW26159   6.398   5.911   3.825  0.0680  0.4558  0.0184
 7586SOL    HW126160   6.491   5.892   3.814 -0.1969 -0.1969 -1.3396
 7586SOL    HW226161   6.375   5.960   3.746 -1.1045 -0.8725 -0.4988
 7587SOL     OW26162  10.750  10.408   9.987 -0.4721  0.2849 -0.7798
 7587SOL    HW126163  10.791  10.375   9.908 -1.6474  0.8248 -1.6607
 7587SOL    HW226164  10.801  10.486  10.011  0.8542 -0.7793 -0.0596
 7588SOL     OW26165   9.611  10.303   7.149 -0.4465  0.3371  0.0025
 7588SOL    HW126166   9.524  10.318   7.112 -0.0912 -1.1828 -1.6149
 7588SOL    HW226167   9.671  10.334   7.081  0.2581  0.5053  0.6941
 7589SOL     OW26168   9.547   6.949   8.819 -0.2161  0.0530 -0.1185
 7589SOL    HW126169   9.555   6.998   8.738 -1.2095  1.3071  0.4973
 7589SOL    HW226170   9.589   6.865   8.801 -0.2303  0.3794 -1.8499
 7590SOL     OW26171   3.091   3.302   6.092 -0.0788 -0.2322 -0.0942
 7590SOL    HW126172   3.011   3.345   6.060  1.0712  1.2194 -1.1905
 7590SOL    HW226173   3.131   3.367   6.150  0.5796 -0.7377  0.0254
 7591SOL     OW26174   7.662   0.514   9.758  0.1929 -0.2481  0.5116
 7591SOL    HW126175   7.653   0.506   9.853 -2.6920  1.1087  0.4261
 7591SOL    HW226176   7.663   0.423   9.727  0.7684 -0.6998  1.7666
 7592SOL     OW26177   3.002   1.322   9.047 -0.7629  0.0427  0.7735
 7592SOL    HW126178   3.050   1.239   9.058 -1.8663 -0.5425  1.3503
 7592SOL    HW226179   2.911   1.295   9.037 -1.1302  1.1977  0.9332
 7593SOL     OW26180   8.537   7.420   9.092  0.1385  0.0746  0.7581
 7593SOL    HW126181   8.497   7.334   9.102  0.2368 -0.0673  0.0081
 7593SOL    HW226182   8.616   7.416   9.147 -0.9051  0.4096  2.3548
 7594SOL     OW26183   5.407   1.633   9.944 -0.4505  0.0362 -0.3020
 7594SOL    HW126184   5.393   1.698   9.875 -0.4695  0.0179 -0.3151
 7594SOL    HW226185   5.430   1.553   9.897 -0.4895  0.0170 -0.2882
 7595SOL     OW26186   6.793   3.031  10.440 -0.5769  0.5410 -0.9604
 7595SOL    HW126187   6.763   2.980  10.364  0.2091  0.2769 -1.1077
 7595SOL    HW226188   6.871   3.076  10.409  1.8573 -2.2368  0.5750
 7596SOL     OW26189  10.458   9.478   4.058 -0.3535  0.2849 -0.0658
 7596SOL    HW126190  10.446   9.475   4.152  1.9503  0.2040  0.2949
 7596SOL    HW226191  10.523   9.547   4.044 -0.2706 -0.0474 -1.5413
 7597SOL     OW26192   4.823   2.439   0.756  0.6001  0.0633 -0.2002
 7597SOL    HW126193   4.869   2.515   0.791  1.1606  0.0118 -0.8077
 7597SOL    HW226194   4.872   2.415   0.677 -1.5529  1.1504 -1.9606
 7598SOL     OW26195   6.927   0.112   8.925 -0.1173 -0.0464  0.1569
 7598SOL    HW126196   6.958   0.197   8.894  0.1728 -0.3202 -0.3234
 7598SOL    HW226197   6.835   0.125   8.945 -0.0758  0.3786  0.0729
 7599SOL     OW26198   0.300   6.641   5.982  0.2256 -0.0337  0.1012
 7599SOL    HW126199   0.312   6.735   5.967  1.4781  0.2071  2.1229
 7599SOL    HW226200   0.387   6.604   5.970 -0.0716 -0.7803  0.2023
 7600SOL     OW26201   1.164   1.129  10.116 -0.4601 -0.3415 -0.2068
 7600SOL    HW126202   1.134   1.193  10.180  1.2819 -2.9866  3.6634
 7600SOL    HW226203   1.086   1.075  10.098 -1.0920  0.7368 -0.8559
 7601SOL     OW26204   9.497   1.496   5.262 -0.6647  0.3565 -0.0489
 7601SOL    HW126205   9.412   1.514   5.302  0.0718  1.0857  1.2630
 7601SOL    HW226206   9.507   1.401   5.269 -1.5305  0.2154 -0.5830
 7602SOL     OW26207   4.717   7.547   1.889  0.3986 -0.3426  0.2849
 7602SOL    HW126208   4.656   7.486   1.848 -1.3930  0.9798  0.8384
 7602SOL    HW226209   4.674   7.633   1.881  3.2457  1.0766 -1.3592
 7603SOL     OW26210   7.327   5.236   7.562  0.0317 -0.3767 -0.2363
 7603SOL    HW126211   7.398   5.283   7.606  0.9787  0.3060 -2.3618
 7603SOL    HW226212   7.344   5.144   7.581  0.0073 -0.0866  1.3238
 7604SOL     OW26213   9.258  10.389   1.308  0.2344 -0.2010 -0.3561
 7604SOL    HW126214   9.307  10.307   1.309 -0.2210 -0.4851 -0.6904
 7604SOL    HW226215   9.295  10.439   1.235  1.3863  0.4514  0.6355
 7605SOL     OW26216   5.888   3.345  10.478  0.1017  0.1640  0.4016
 7605SOL    HW126217   5.906   3.413  10.414 -1.5267 -0.0816 -0.3576
 7605SOL    HW226218   5.935   3.268  10.446  0.6286  0.4780  0.4035
 7606SOL     OW26219  10.275   5.599   5.380 -0.5180  0.7774 -0.0262
 7606SOL    HW126220  10.307   5.585   5.291 -0.6368 -0.4538  0.1038
 7606SOL    HW226221  10.319   5.678   5.410  0.3549  0.5967 -0.7974
 7607SOL     OW26222   6.800   7.029   3.572  0.0896 -0.4049 -0.1721
 7607SOL    HW126223   6.784   7.123   3.562  2.1137  0.4373  3.1331
 7607SOL    HW226224   6.895   7.020   3.562 -0.2289 -2.4854 -2.2679
 7608SOL     OW26225   2.363   9.435   3.753 -0.4267  0.4442 -0.0638
 7608SOL    HW126226   2.363   9.451   3.848  1.0257  1.1874 -0.1734
 7608SOL    HW226227   2.398   9.515   3.715  1.1470 -0.6756 -1.0761
 7609SOL     OW26228   5.772   2.777   6.966  0.1579 -0.1755 -0.0526
 7609SOL    HW126229   5.775   2.750   7.058  0.5089  2.1519  0.6872
 7609SOL    HW226230   5.682   2.804   6.952  0.1835 -0.2292 -0.3229
 7610SOL     OW26231   8.016   4.228   9.873  0.1486 -0.1353 -0.0190
 7610SOL    HW126232   8.101   4.265   9.846  0.6902 -1.5749 -0.3585
 7610SOL    HW226233   8.036   4.138   9.896 -1.0237 -0.0314  1.5116
 7611SOL     OW26234   2.466  10.521   7.142 -0.5269  0.0639 -0.2223
 7611SOL    HW126235   2.440  10.471   7.218 -2.7277  0.7120 -0.4821
 7611SOL    HW226236   2.421  10.479   7.068  2.2723 -1.1271 -1.3924
 7612SOL     OW26237   2.159   1.493   3.748 -0.0139  0.2772 -0.2476
 7612SOL    HW126238   2.152   1.545   3.668  0.6805  0.3772 -0.2522
 7612SOL    HW226239   2.221   1.424   3.727  0.5489  0.5887  0.3416
 7613SOL     OW26240   0.489   3.918   5.008 -0.1093 -0.2278 -0.7320
 7613SOL    HW126241   0.486   3.858   5.082  0.4561  1.0685  0.3978
 7613SOL    HW226242   0.514   3.864   4.934 -0.7890 -1.5852 -0.0078
 7614SOL     OW26243   1.167   2.771   7.726  0.0394  0.0322  0.0266
 7614SOL    HW126244   1.077   2.781   7.696 -0.0472 -1.6601 -0.3922
 7614SOL    HW226245   1.219   2.769   7.646  0.6779  2.4554  0.3009
 7615SOL     OW26246   8.227  10.100  10.092  0.5069 -0.7858  0.0938
 7615SOL    HW126247   8.197  10.166  10.155 -1.2865  0.4830 -1.9227
 7615SOL    HW226248   8.220  10.017  10.139 -0.4734  0.1273  1.6574
 7616SOL     OW26249   3.853   8.480   8.220  0.1961 -0.5524  0.2451
 7616SOL    HW126250   3.836   8.433   8.301  0.2382  0.1500  0.6702
 7616SOL    HW226251   3.820   8.422   8.151 -0.1260 -1.0134  0.7806
 7617SOL     OW26252   5.656   6.060   8.501 -0.0729  0.3363 -0.6556
 7617SOL    HW126253   5.696   5.983   8.542 -1.7677  0.4913  1.5055
 7617SOL    HW226254   5.701   6.134   8.542  0.4393  0.5133 -1.5235
 7618SOL     OW26255   5.346   6.618   9.609  0.1245  0.4472  0.3237
 7618SOL    HW126256   5.341   6.536   9.658 -0.7299  0.8106  0.8517
 7618SOL    HW226257   5.255   6.646   9.599  0.3774  1.0654 -0.3105
 7619SOL     OW26258   9.830   9.667   8.958  0.1540 -0.0522 -0.3522
 7619SOL    HW126259   9.801   9.637   8.872 -2.2100  0.8377  0.0402
 7619SOL    HW226260   9.905   9.722   8.941 -1.3381  1.5731 -2.1084
 7620SOL     OW26261   6.675   7.349   5.165  0.3731  0.2959 -0.0640
 7620SOL    HW126262   6.585   7.380   5.176  0.5272  0.9375 -0.5390
 7620SOL    HW226263   6.711   7.406   5.097  1.2261  0.2192  0.3202
 7621SOL     OW26264   4.676   4.610   8.641 -0.0855  0.3149 -0.1734
 7621SOL    HW126265   4.702   4.702   8.641 -0.0856  0.3303 -1.0793
 7621SOL    HW226266   4.581   4.612   8.626 -0.3783  0.2095  1.5321
 7622SOL     OW26267   9.012   4.326   1.467 -0.8313 -0.4394  0.0632
 7622SOL    HW126268   9.014   4.422   1.472 -0.0210 -0.4425 -0.0643
 7622SOL    HW226269   9.095   4.298   1.507 -1.5296 -1.1331  1.0504
 7623SOL     OW26270   9.905   6.516   4.565  0.2632  0.2618  0.6442
 7623SOL    HW126271   9.820   6.550   4.538  0.8098  1.0703 -0.1268
 7623SOL    HW226272   9.941   6.475   4.486 -0.1351 -1.6664  1.4026
 7624SOL     OW26273   0.628   0.264   0.729  0.0522  0.3353 -0.0350
 7624SOL    HW126274   0.635   0.169   0.734 -0.4561  0.3800  2.0610
 7624SOL    HW226275   0.648   0.284   0.637  0.1410 -1.7728 -0.5230
 7625SOL     OW26276   7.192   3.339   4.138 -0.2775  0.0694  0.3350
 7625SOL    HW126277   7.230   3.311   4.054 -0.8044 -0.1864  0.1776
 7625SOL    HW226278   7.253   3.305   4.204  0.9893  1.5986  0.0159
 7626SOL     OW26279   8.652   5.387   2.725 -0.0555 -0.2567  0.2369
 7626SOL    HW126280   8.687   5.299   2.736 -1.2745 -0.7770  0.1394
 7626SOL    HW226281   8.557   5.374   2.714  0.0484  0.8132 -2.7415
 7627SOL     OW26282   5.734   7.361   2.692  0.2654  0.5017 -0.0161
 7627SOL    HW126283   5.709   7.273   2.720 -0.9339  1.0390  0.6931
 7627SOL    HW226284   5.710   7.365   2.599 -1.1087  0.5412  0.3107
 7628SOL     OW26285   5.050   4.501   6.253  0.3349 -0.1532  0.3092
 7628SOL    HW126286   4.974   4.550   6.285  0.6642  0.2474  0.4818
 7628SOL    HW226287   5.025   4.409   6.264  0.3842 -0.0371  1.6346
 7629SOL     OW26288   0.418   0.026   2.574 -0.4230  0.1239  0.5075
 7629SOL    HW126289   0.507   0.020   2.541 -0.1696  0.0803  1.1826
 7629SOL    HW226290   0.384  -0.063   2.567 -0.2748  0.0575  0.6206
 7630SOL     OW26291   0.532   7.921   1.748  0.2545 -0.4169 -0.3673
 7630SOL    HW126292   0.606   7.981   1.763 -1.0737  1.5842 -1.3772
 7630SOL    HW226293   0.560   7.866   1.674  1.0590 -0.2839 -0.1709
 7631SOL     OW26294   8.849   7.901   1.312  0.2012  0.2205 -0.3411
 7631SOL    HW126295   8.895   7.972   1.267 -2.1962  2.0964 -0.0677
 7631SOL    HW226296   8.822   7.842   1.242 -1.2338  1.7529 -1.1699
 7632SOL     OW26297   6.648   8.475   5.052 -0.5086  0.1048 -0.2650
 7632SOL    HW126298   6.552   8.475   5.048 -0.4931 -0.0244 -0.7132
 7632SOL    HW226299   6.675   8.529   4.977 -0.2112 -0.8726 -0.8876
 7633SOL     OW26300   9.316   7.731   1.194  0.4351  0.3244  0.3653
 7633SOL    HW126301   9.346   7.640   1.191  0.6507  0.3746  0.9322
 7633SOL    HW226302   9.233   7.728   1.242 -0.5326  0.1794 -1.2449
 7634SOL     OW26303   6.567   3.726   4.733 -0.2158 -0.0612 -0.0718
 7634SOL    HW126304   6.524   3.783   4.797  0.7273  0.4019  0.1600
 7634SOL    HW226305   6.517   3.738   4.653 -0.1033  0.9885  0.0100
 7635SOL     OW26306   1.269  10.486   6.843  0.5367 -0.0440 -0.3526
 7635SOL    HW126307   1.287  10.524   6.757  0.8780  0.2246 -0.1625
 7635SOL    HW226308   1.200  10.542   6.879 -2.3034 -2.2497 -1.9169
 7636SOL     OW26309   8.413   2.990   0.480  0.0039 -0.1716  0.4851
 7636SOL    HW126310   8.351   2.986   0.552 -1.7281  0.2181 -0.9180
 7636SOL    HW226311   8.487   2.936   0.509  0.1034  1.2596  3.1592
 7637SOL     OW26312   9.529  10.125   8.735 -0.1297 -0.6870 -0.5600
 7637SOL    HW126313   9.494  10.080   8.657  1.1590 -0.0714 -1.5336
 7637SOL    HW226314   9.470  10.199   8.748 -0.1667 -0.6027 -1.1736
 7638SOL     OW26315   9.505   7.884   3.229  0.1265 -0.2169  0.5435
 7638SOL    HW126316   9.528   7.892   3.136  0.7924 -0.2912  0.6987
 7638SOL    HW226317   9.442   7.954   3.244  1.1308  0.7444  0.3830
 7639SOL     OW26318   3.058   9.386   9.862 -0.1977 -0.0709  0.5320
 7639SOL    HW126319   2.972   9.407   9.897  1.6143  2.6607  3.9208
 7639SOL    HW226320   3.096   9.325   9.925  2.2862  3.1623  2.4630
 7640SOL     OW26321   8.291   0.858   3.015  0.0140 -0.0738  0.4051
 7640SOL    HW126322   8.220   0.916   2.990 -0.4833 -0.6872  0.3748
 7640SOL    HW226323   8.331   0.832   2.932  1.1311  1.3061  0.4745
 7641SOL     OW26324   7.123  10.599   6.974  0.7271 -0.7215 -0.3138
 7641SOL    HW126325   7.071  10.614   7.053  0.8986  0.2701 -0.3689
 7641SOL    HW226326   7.061  10.611   6.902  0.6687 -1.1824 -0.3395
 7642SOL     OW26327   7.521   3.296   1.061 -0.0001  0.6163 -1.1335
 7642SOL    HW126328   7.432   3.326   1.041 -0.1560  1.8532  1.0642
 7642SOL    HW226329   7.564   3.373   1.098  0.6245 -0.9559  1.7423
 7643SOL     OW26330   0.702   6.462   5.657  0.1100 -0.1038  0.0714
 7643SOL    HW126331   0.750   6.459   5.575 -0.9804 -1.1848 -0.5623
 7643SOL    HW226332   0.616   6.424   5.636  0.1079 -1.2563  1.8983
 7644SOL     OW26333   0.197   8.067   7.830  0.0914  0.0918  0.4428
 7644SOL    HW126334   0.203   7.972   7.823  1.6732  0.2758 -1.5988
 7644SOL    HW226335   0.287   8.098   7.818 -0.6567  1.9351 -0.8472
 7645SOL     OW26336   7.580   3.728   1.755  0.6627 -0.3317  0.1859
 7645SOL    HW126337   7.675   3.741   1.754  0.3576  2.8252  0.3161
 7645SOL    HW226338   7.551   3.768   1.837 -0.9634  0.8810 -0.9115
 7646SOL     OW26339   4.456   7.654   1.854 -0.0532  0.3963  0.1053
 7646SOL    HW126340   4.402   7.626   1.780 -1.4612  1.7947  0.5512
 7646SOL    HW226341   4.424   7.604   1.928 -0.2679  0.7185  0.2325
 7647SOL     OW26342   5.810   8.889   2.478  0.0091  0.5600  0.1249
 7647SOL    HW126343   5.897   8.906   2.443 -0.5943  1.5589 -0.9763
 7647SOL    HW226344   5.811   8.796   2.501  1.7608  0.8380  1.3769
 7648SOL     OW26345   8.362   9.853   8.198 -0.1232 -0.2376 -0.4926
 7648SOL    HW126346   8.355   9.758   8.185 -0.0851 -0.3194  0.0753
 7648SOL    HW226347   8.423   9.863   8.270  0.9208  0.2704 -1.4202
 7649SOL     OW26348   3.228   2.780   1.231  0.5585  0.5496 -0.5426
 7649SOL    HW126349   3.250   2.811   1.143 -0.3455  1.6263 -0.4042
 7649SOL    HW226350   3.196   2.691   1.217  0.7577  0.5790 -1.2522
 7650SOL     OW26351   2.909   0.350   5.282  0.2403 -0.3844  0.1303
 7650SOL    HW126352   2.991   0.343   5.232  0.0299  0.5925 -0.3843
 7650SOL    HW226353   2.935   0.338   5.373  0.9583 -0.0927 -0.0292
 7651SOL     OW26354   4.544   4.298  10.238  0.4963  0.7692 -0.4253
 7651SOL    HW126355   4.603   4.241  10.189  0.6998  1.5369 -1.0980
 7651SOL    HW226356   4.577   4.297  10.328  0.2643 -0.4657 -0.3378
 7652SOL     OW26357   6.426   4.561   7.029 -0.2108 -0.0023 -0.0156
 7652SOL    HW126358   6.418   4.541   6.936  1.3335  1.4686 -0.5017
 7652SOL    HW226359   6.516   4.590   7.040 -0.4178  0.0281  1.9176
 7653SOL     OW26360   7.559   2.559   2.591 -0.4052 -0.0658 -0.0202
 7653SOL    HW126361   7.583   2.647   2.618  1.9809 -0.6522 -0.0508
 7653SOL    HW226362   7.639   2.521   2.554 -2.0987 -1.1747 -3.0061
 7654SOL     OW26363   0.565   8.491   2.194  0.0470 -0.1896  0.2559
 7654SOL    HW126364   0.633   8.462   2.255 -1.0773 -2.1194  0.6573
 7654SOL    HW226365   0.495   8.525   2.250  0.7439  2.1011 -0.1650
 7655SOL     OW26366   4.814   5.361   2.434  0.0086  0.3412  0.3306
 7655SOL    HW126367   4.890   5.310   2.404 -1.0647 -0.4226 -1.2324
 7655SOL    HW226368   4.756   5.363   2.358 -2.8190 -1.5238  2.2844
 7656SOL     OW26369   2.692   9.335   1.144 -0.0995  0.0947  0.1855
 7656SOL    HW126370   2.616   9.392   1.155 -0.8206 -1.0964  1.7913
 7656SOL    HW226371   2.683   9.269   1.212  1.3338 -1.2619 -0.8560
 7657SOL     OW26372   6.216  10.838  10.051  0.0186  0.0606 -0.2525
 7657SOL    HW126373   6.159  10.911  10.077  1.0571  0.8308 -0.0800
 7657SOL    HW226374   6.238  10.857   9.960  1.9908  1.1525  0.3861
 7658SOL     OW26375   3.797  10.247   0.209  0.2083 -0.4247  0.4258
 7658SOL    HW126376   3.737  10.231   0.137 -0.3604  1.3832  0.4409
 7658SOL    HW226377   3.883  10.253   0.168  0.1202 -1.0765  0.1376
 7659SOL     OW26378   5.438   2.041   9.553  0.2399  0.0082 -0.3688
 7659SOL    HW126379   5.431   1.992   9.472 -1.0494 -0.5448  0.0596
 7659SOL    HW226380   5.435   1.974   9.622 -0.7722  0.6080  0.1969
 7660SOL     OW26381   3.209   0.401   6.116  0.2365 -0.0173  0.0475
 7660SOL    HW126382   3.188   0.466   6.184 -1.0064  0.1206 -0.4274
 7660SOL    HW226383   3.135   0.341   6.118  0.0453  0.1417 -1.3542
 7661SOL     OW26384   9.552   0.603   0.173  0.1359  0.1325  0.1406
 7661SOL    HW126385   9.474   0.647   0.141 -1.3552 -2.2577  0.2611
 7661SOL    HW226386   9.544   0.607   0.268  0.5985  0.5522  0.1693
 7662SOL     OW26387   5.286   9.540   7.218 -0.1632 -0.0323  0.0102
 7662SOL    HW126388   5.317   9.508   7.303 -0.8080  1.6010  0.9117
 7662SOL    HW226389   5.355   9.598   7.187 -0.5319  0.4602  0.0980
 7663SOL     OW26390   6.177   0.506   9.862 -0.2600 -0.3845 -0.5225
 7663SOL    HW126391   6.119   0.576   9.831  0.2263  0.5877  0.6632
 7663SOL    HW226392   6.258   0.517   9.810 -0.2188 -0.1309 -0.4034
 7664SOL     OW26393  10.195   3.477   8.060 -0.1221  0.2387 -0.3570
 7664SOL    HW126394  10.171   3.430   8.140  0.3210  0.6803  0.0388
 7664SOL    HW226395  10.223   3.409   7.999 -0.7858 -0.1297 -0.2516
 7665SOL     OW26396   0.780   9.042   1.843  0.3122 -0.1410 -0.5832
 7665SOL    HW126397   0.870   9.009   1.841  0.2509 -0.6691  1.8411
 7665SOL    HW226398   0.761   9.053   1.936 -2.4487 -0.9081 -0.9688
 7666SOL     OW26399  10.735   6.830   2.885 -0.6027  0.2051  0.4259
 7666SOL    HW126400  10.785   6.912   2.886 -2.1022  1.1555  0.3413
 7666SOL    HW226401  10.796   6.766   2.848  1.4639  0.6594  2.7396
 7667SOL     OW26402   1.264   9.236   0.361  0.4372  0.4154  0.2375
 7667SOL    HW126403   1.276   9.190   0.278  1.1870 -0.0687  0.5988
 7667SOL    HW226404   1.352   9.243   0.397  0.1357  0.7559  0.9252
 7668SOL     OW26405   5.014   9.709   9.402 -0.2625 -0.0840 -0.1084
 7668SOL    HW126406   5.093   9.715   9.348  1.2208  0.6972  2.0020
 7668SOL    HW226407   4.970   9.793   9.391 -0.5034 -0.3097 -0.8662
 7669SOL     OW26408   9.840   8.256   5.903 -0.1518 -0.1492  0.0975
 7669SOL    HW126409   9.776   8.245   5.973  0.5928  0.8478  0.9483
 7669SOL    HW226410   9.793   8.306   5.836 -0.0351  1.3371  1.0794
 7670SOL     OW26411   6.011   3.551   4.343  0.0870  0.0331  0.0769
 7670SOL    HW126412   5.921   3.545   4.309 -0.1973  0.6350  0.7063
 7670SOL    HW226413   6.052   3.620   4.291  0.2698 -0.4177 -0.3840
 7671SOL     OW26414   1.463   5.558   3.968 -0.3027 -0.2160  0.0195
 7671SOL    HW126415   1.386   5.603   4.001 -0.6401 -0.7081 -0.0790
 7671SOL    HW226416   1.512   5.532   4.046  0.9438  2.0525  0.0705
 7672SOL     OW26417   9.199   3.279  10.797 -0.1968 -0.2158 -0.0506
 7672SOL    HW126418   9.250   3.359  10.791  0.1533 -0.4880 -0.8049
 7672SOL    HW226419   9.252   3.221  10.851 -0.2511 -0.0913  0.1371
 7673SOL     OW26420   5.898   9.141   9.527  0.6598 -0.1793 -0.6687
 7673SOL    HW126421   5.916   9.086   9.603  1.5207  0.0675 -0.6780
 7673SOL    HW226422   5.818   9.188   9.549  0.5545 -0.5792 -0.1818
 7674SOL     OW26423   6.485   6.655   1.289  0.2113  0.1796 -0.8172
 7674SOL    HW126424   6.426   6.698   1.228 -0.2549  1.6733  0.6064
 7674SOL    HW226425   6.445   6.570   1.305 -1.6506  1.1686  0.1563
 7675SOL     OW26426   3.338   4.472   5.509  0.1402 -0.0820  0.0791
 7675SOL    HW126427   3.420   4.504   5.471 -1.1766  1.7659 -1.3790
 7675SOL    HW226428   3.296   4.551   5.543 -0.5460 -1.1639  1.8718
 7676SOL     OW26429   6.609   0.871   3.034 -0.6686 -0.1259 -0.4852
 7676SOL    HW126430   6.684   0.880   3.092  0.8402  1.1822 -2.4945
 7676SOL    HW226431   6.623   0.786   2.990 -0.4911 -0.0075 -0.6613
 7677SOL     OW26432   2.571   2.602   2.509 -0.0882  0.1654 -0.1401
 7677SOL    HW126433   2.551   2.696   2.517 -0.7915 -0.0211  0.4470
 7677SOL    HW226434   2.489   2.563   2.478 -0.3691 -0.4929  1.3600
 7678SOL     OW26435   3.233   4.790   1.554  0.5797 -0.2304  0.2188
 7678SOL    HW126436   3.220   4.821   1.644 -1.0873 -2.5082  0.8297
 7678SOL    HW226437   3.145   4.772   1.522  1.2876 -1.5997 -1.0563
 7679SOL     OW26438   7.194   3.118   7.987 -0.3586  0.0836  0.4091
 7679SOL    HW126439   7.126   3.089   7.925 -1.2493  0.9180  0.9532
 7679SOL    HW226440   7.249   3.042   8.000 -0.4572 -0.2675 -1.0062
 7680SOL     OW26441   8.226   0.292   0.777  0.3754 -0.1329  0.7429
 7680SOL    HW126442   8.215   0.331   0.863  1.2275 -0.9988  1.2684
 7680SOL    HW226443   8.204   0.362   0.715 -1.6468  0.0951  1.6351
 7681SOL     OW26444   3.345  10.326   8.893  0.5143 -0.0778 -0.6608
 7681SOL    HW126445   3.376  10.267   8.961 -0.1203  0.1457 -0.1717
 7681SOL    HW226446   3.398  10.406   8.905  0.9079 -0.2978 -0.9014
 7682SOL     OW26447   4.731   5.102   6.122  0.5400 -0.2535 -0.1018
 7682SOL    HW126448   4.812   5.073   6.080  0.3749 -1.0004  0.0850
 7682SOL    HW226449   4.729   5.196   6.106  1.0115 -0.3567 -0.8513
 7683SOL     OW26450   6.277   7.599   1.940  0.3032  0.0626  0.6764
 7683SOL    HW126451   6.199   7.582   1.993  0.4900  0.5088  1.0993
 7683SOL    HW226452   6.314   7.512   1.924 -0.2583 -0.1475  0.5008
 7684SOL     OW26453   4.408   0.789   6.357  0.0989 -0.5378 -0.0729
 7684SOL    HW126454   4.477   0.816   6.418 -2.0330  0.6396  1.9822
 7684SOL    HW226455   4.425   0.840   6.278 -0.8099  3.2125  1.8925
 7685SOL     OW26456   5.626   2.652   9.127 -0.1810  0.2137 -0.2834
 7685SOL    HW126457   5.701   2.697   9.089 -0.9155  1.9531  0.2084
 7685SOL    HW226458   5.651   2.636   9.218 -0.1305  0.1784 -0.3038
 7686SOL     OW26459   5.317   8.866   3.148  0.1682 -0.3018 -0.1758
 7686SOL    HW126460   5.382   8.813   3.102  0.1546 -1.0989  0.6917
 7686SOL    HW226461   5.317   8.831   3.237 -1.5047 -0.3736 -0.1827
 7687SOL     OW26462   3.117   9.966  10.457 -0.4806 -0.4323  0.3510
 7687SOL    HW126463   3.184  10.033  10.462  0.4437 -1.4055  2.2141
 7687SOL    HW226464   3.066   9.988  10.379  0.7102  1.5209  0.0594
 7688SOL     OW26465   3.679   4.550   2.259 -0.2631  0.0759 -0.4613
 7688SOL    HW126466   3.616   4.479   2.271  1.7073 -1.6099  0.5110
 7688SOL    HW226467   3.668   4.604   2.337  0.4067 -1.0009  0.4136
 7689SOL     OW26468   1.351   2.572   0.681 -0.7721  0.2224 -0.4775
 7689SOL    HW126469   1.420   2.505   0.688 -0.6521  0.4419  0.5507
 7689SOL    HW226470   1.395   2.648   0.642 -0.7609 -0.0778 -1.0653
 7690SOL     OW26471   2.663   3.211  10.058 -0.4845  0.1008 -0.2950
 7690SOL    HW126472   2.587   3.268  10.062 -0.4551  0.0814  1.8042
 7690SOL    HW226473   2.679   3.186  10.149  0.6582 -1.7262 -0.9343
 7691SOL     OW26474   7.327   1.848   8.304  0.0585  0.0687 -0.4456
 7691SOL    HW126475   7.346   1.893   8.386  1.0266 -1.1528  0.0319
 7691SOL    HW226476   7.260   1.902   8.262  0.7832  1.6482  0.3327
 7692SOL     OW26477   2.419   5.981   8.872  0.1702 -0.0900 -0.5911
 7692SOL    HW126478   2.385   6.063   8.909  1.9455  0.5508 -0.3099
 7692SOL    HW226479   2.470   5.942   8.942  0.0696 -1.0216 -1.0172
 7693SOL     OW26480   7.757   4.457   2.566 -0.1738  0.1373 -0.6687
 7693SOL    HW126481   7.762   4.362   2.553 -1.4449 -0.2600  1.2347
 7693SOL    HW226482   7.664   4.476   2.571  0.0711  1.1633  0.8162
 7694SOL     OW26483   4.399   9.643   9.845 -0.1559 -0.6361  0.1949
 7694SOL    HW126484   4.443   9.716   9.801  2.0646 -2.0865 -0.1577
 7694SOL    HW226485   4.313   9.638   9.803  0.5715  0.2364 -1.5146
 7695SOL     OW26486   2.937   7.105  10.056  0.0563 -0.0352 -0.5076
 7695SOL    HW126487   2.933   7.073   9.965 -0.4570 -1.7306  0.0753
 7695SOL    HW226488   2.847   7.134  10.074 -0.3681 -1.6279  0.0880
 7696SOL     OW26489   4.173   5.414   3.354 -0.3893  0.7591  0.4095
 7696SOL    HW126490   4.265   5.419   3.379 -0.0069 -0.4348 -0.6169
 7696SOL    HW226491   4.125   5.444   3.431  0.8566  1.7599  0.8390
 7697SOL     OW26492   4.776   9.156   8.261 -0.6215  0.2087 -0.4495
 7697SOL    HW126493   4.769   9.250   8.277 -2.5199  0.1192 -0.6054
 7697SOL    HW226494   4.782   9.148   8.166 -0.3633  0.1660 -0.4315
 7698SOL     OW26495   7.824   5.772   1.835 -0.4183  0.1935  0.3900
 7698SOL    HW126496   7.848   5.821   1.756 -3.1971 -0.9686 -1.3403
 7698SOL    HW226497   7.781   5.837   1.891 -2.5821  0.1980 -1.1588
 7699SOL     OW26498   3.619   4.517   9.490  0.7654  0.1313 -0.2268
 7699SOL    HW126499   3.654   4.574   9.421  0.5301  1.4370  0.6930
 7699SOL    HW226500   3.691   4.457   9.510  2.1270  1.9849  0.7706
 7700SOL     OW26501   2.255   8.725   2.324 -0.0847 -0.1607 -0.4770
 7700SOL    HW126502   2.171   8.681   2.312 -0.0038 -0.0930 -1.3460
 7700SOL    HW226503   2.247   8.807   2.276 -0.2891  0.8827  1.2632
 7701SOL     OW26504   7.810   9.110   4.856  0.7831  0.4478  0.7105
 7701SOL    HW126505   7.727   9.150   4.832  0.9580  1.0356  1.0829
 7701SOL    HW226506   7.822   9.133   4.949  0.9515 -0.3408  0.8926
 7702SOL     OW26507   0.482   0.596   1.526 -0.3231 -0.4539  0.5017
 7702SOL    HW126508   0.530   0.678   1.521  0.7610 -1.1299 -0.8797
 7702SOL    HW226509   0.455   0.579   1.435 -0.8875 -1.4093  0.8347
 7703SOL     OW26510   2.005   9.148  10.601  0.3783  0.3203  0.4006
 7703SOL    HW126511   2.026   9.119  10.512  0.2366 -1.0849  0.8052
 7703SOL    HW226512   1.980   9.240  10.590  0.1658  0.1238 -1.0385
 7704SOL     OW26513   1.698   6.349   3.687  0.2262 -0.4750 -0.4747
 7704SOL    HW126514   1.680   6.365   3.779 -0.5354  1.3520 -0.8949
 7704SOL    HW226515   1.788   6.380   3.674 -0.6115  1.9942 -0.8839
 7705SOL     OW26516  10.292   9.506   0.160 -0.0646  0.4622 -0.6098
 7705SOL    HW126517  10.380   9.478   0.185 -0.7781 -0.3729  1.1445
 7705SOL    HW226518  10.292   9.601   0.172  0.5433  0.4402 -0.4327
 7706SOL     OW26519   4.847  10.905   5.262 -0.1134  0.0807  0.2218
 7706SOL    HW126520   4.871  10.898   5.355  1.4538  2.8095  0.1544
 7706SOL    HW226521   4.792  10.983   5.258 -1.9332 -1.1857 -0.9322
 7707SOL     OW26522   1.678   3.977   7.740  0.2769  0.2952 -0.4407
 7707SOL    HW126523   1.609   3.935   7.689 -0.1629  2.0018 -1.3251
 7707SOL    HW226524   1.637   4.057   7.775  1.8498  1.5270 -1.2751
 7708SOL     OW26525  10.736   8.424   1.559 -0.1188 -0.2934  0.2297
 7708SOL    HW126526  10.788   8.478   1.618  1.0351 -1.3147  0.1837
 7708SOL    HW226527  10.791   8.348   1.541 -0.0521  0.3563 -2.8526
 7709SOL     OW26528   9.838   8.289   7.703  0.1156 -0.1043  0.2021
 7709SOL    HW126529   9.827   8.307   7.796 -1.4003 -1.1689  0.2696
 7709SOL    HW226530   9.836   8.193   7.697  0.3728 -0.0546 -0.9143
 7710SOL     OW26531   1.495   2.037   7.681  0.0083 -0.1953 -0.3398
 7710SOL    HW126532   1.513   2.123   7.643  0.0173  0.0037  0.1185
 7710SOL    HW226533   1.577   2.013   7.724  0.0243 -0.4618 -0.5160
 7711SOL     OW26534   2.722   4.636   2.424 -0.2601 -0.1062 -0.4101
 7711SOL    HW126535   2.812   4.615   2.445  0.3371  2.9692  0.6617
 7711SOL    HW226536   2.722   4.652   2.329  0.5164  0.5208 -0.3156
 7712SOL     OW26537   2.913   9.397   4.649  0.1432  0.0325 -0.9181
 7712SOL    HW126538   2.930   9.462   4.717 -1.0778 -1.5780  1.0437
 7712SOL    HW226539   2.997   9.387   4.604  0.5288  2.4097 -0.8295
 7713SOL     OW26540   9.356   9.983   9.391 -0.5845  0.6508  0.0681
 7713SOL    HW126541   9.288  10.020   9.336 -0.8117 -0.0660 -0.1402
 7713SOL    HW226542   9.385  10.056   9.446 -0.2696  1.4014 -1.0753
 7714SOL     OW26543   5.877   5.132   4.241  0.1452 -0.2332  0.0284
 7714SOL    HW126544   5.874   5.083   4.323  0.4566 -2.2647 -1.1195
 7714SOL    HW226545   5.949   5.092   4.192 -1.4480 -0.5986 -2.1395
 7715SOL     OW26546   9.986   9.107   9.662 -0.1462  0.6817  0.0251
 7715SOL    HW126547   9.934   9.156   9.725  0.2687  0.7265  0.3355
 7715SOL    HW226548  10.036   9.175   9.615  0.0104  0.6016  0.0746
 7716SOL     OW26549   9.332   0.838   8.795 -0.2096 -0.0233  0.2350
 7716SOL    HW126550   9.307   0.746   8.801  1.7768 -0.5718  0.9349
 7716SOL    HW226551   9.347   0.865   8.885  0.7244  0.5332 -0.0770
 7717SOL     OW26552   6.720   5.019   2.374 -0.1794 -0.0955 -0.5227
 7717SOL    HW126553   6.627   5.024   2.400 -0.6839 -0.7694 -2.0695
 7717SOL    HW226554   6.752   4.939   2.415 -0.0620  0.5180  0.6176
 7718SOL     OW26555  10.511   5.821   7.024 -0.3257 -0.0611  0.1570
 7718SOL    HW126556  10.447   5.761   6.986 -0.3050  0.7393 -1.1936
 7718SOL    HW226557  10.574   5.837   6.954 -1.2636  2.8462 -0.1773
 7719SOL     OW26558   6.836   3.380   9.157 -0.1040  0.2613 -0.5709
 7719SOL    HW126559   6.912   3.413   9.109  0.0405  0.2357 -0.3586
 7719SOL    HW226560   6.844   3.419   9.244 -0.8413  1.0121 -0.8310
 7720SOL     OW26561   4.647   9.461   2.739 -0.3220  0.3001 -0.0076
 7720SOL    HW126562   4.649   9.513   2.659 -0.4656 -1.2545 -1.0504
 7720SOL    HW226563   4.735   9.425   2.746 -0.8089 -1.0144 -0.4635
 7721SOL     OW26564   6.616   9.146  10.095  0.7941  0.7932 -0.4773
 7721SOL    HW126565   6.639   9.090  10.021 -0.9935 -0.4773 -0.1420
 7721SOL    HW226566   6.558   9.212  10.058 -1.0186 -0.5101 -0.0906
 7722SOL     OW26567   6.184   7.405   1.656  0.1612  0.0890 -0.2872
 7722SOL    HW126568   6.249   7.467   1.690  0.0565 -1.2022  2.4475
 7722SOL    HW226569   6.103   7.455   1.652  0.1228  0.2340  1.6885
 7723SOL     OW26570   1.293   0.254   9.678 -0.4391 -0.2381 -0.3225
 7723SOL    HW126571   1.252   0.275   9.594 -1.7297 -1.5964 -0.0838
 7723SOL    HW226572   1.363   0.193   9.655  0.8815  1.3430 -0.6360
 7724SOL     OW26573   9.899   8.966   5.428  0.2585  0.3320 -0.1870
 7724SOL    HW126574   9.950   8.922   5.496 -0.2534  0.0166  0.0053
 7724SOL    HW226575   9.865   8.894   5.374 -0.1491  0.5160 -0.1816
 7725SOL     OW26576  10.695   0.869   9.332 -0.1581 -0.1111  0.2607
 7725SOL    HW126577  10.695   0.798   9.397  0.8165 -1.4030 -1.0731
 7725SOL    HW226578  10.657   0.829   9.253 -1.8900  1.5903  0.1505
 7726SOL     OW26579   0.156   3.064   7.334 -0.5269  0.0730  0.1111
 7726SOL    HW126580   0.116   3.018   7.260 -0.0787 -0.9103  0.4514
 7726SOL    HW226581   0.249   3.068   7.312 -0.3307 -0.5917  0.7962
 7727SOL     OW26582   0.984   1.302   3.099 -0.1634  0.5039 -0.4582
 7727SOL    HW126583   0.949   1.228   3.049  1.1928 -0.9499  0.6688
 7727SOL    HW226584   1.037   1.350   3.036 -0.2020 -0.0787 -0.9450
 7728SOL     OW26585   5.232   7.528   3.076  0.3135  0.3468  0.2193
 7728SOL    HW126586   5.276   7.489   3.000  1.6043 -0.6741  1.4313
 7728SOL    HW226587   5.165   7.464   3.100 -1.9062  1.8531 -1.5586
 7729SOL     OW26588   9.309   1.552  10.613 -0.3713  0.1503  0.3180
 7729SOL    HW126589   9.248   1.624  10.598  0.1729  0.2739 -1.4649
 7729SOL    HW226590   9.359   1.545  10.532  1.5207 -0.4019  1.4689
 7730SOL     OW26591   2.073   7.711   0.001  0.2178  0.3593  0.1386
 7730SOL    HW126592   1.993   7.684   0.046  0.7185 -0.8825  0.3300
 7730SOL    HW226593   2.136   7.727   0.071  0.5569 -0.0965 -0.0595
 7731SOL     OW26594   7.404   7.047   9.978  0.5266  0.0274  0.2611
 7731SOL    HW126595   7.354   6.969   9.953 -1.0180  0.5677  1.4603
 7731SOL    HW226596   7.368   7.117   9.922  0.4719  0.2722  0.6006
 7732SOL     OW26597   0.016  10.278  10.203  0.6897  0.0337  0.0958
 7732SOL    HW126598   0.020  10.214  10.131 -2.5979 -0.8200  0.5160
 7732SOL    HW226599  -0.016  10.358  10.162  0.8203  0.1719  0.2623
 7733SOL     OW26600   4.217   8.620   3.176 -0.7333  0.3499 -0.6743
 7733SOL    HW126601   4.207   8.715   3.171  2.0485  0.9319  1.9738
 7733SOL    HW226602   4.233   8.593   3.086  0.7031  2.7438 -1.2149
 7734SOL     OW26603   2.077   1.948   9.324  0.0150 -0.1911  0.2852
 7734SOL    HW126604   2.014   1.875   9.325  0.1094 -0.2957 -0.6139
 7734SOL    HW226605   2.074   1.983   9.413 -0.9289 -0.5250  0.4000
 7735SOL     OW26606   9.641   7.762   5.209 -0.4815 -0.0874 -0.1755
 7735SOL    HW126607   9.689   7.719   5.138 -0.1705 -1.1505  0.6441
 7735SOL    HW226608   9.709   7.802   5.263 -0.7293  0.8638 -0.5566
 7736SOL     OW26609   6.568   3.329   9.184  0.8496  0.9956 -0.0628
 7736SOL    HW126610   6.554   3.259   9.121 -1.0244  1.0105  0.2658
 7736SOL    HW226611   6.656   3.361   9.166  2.5008 -2.5706  0.9220
 7737SOL     OW26612   9.698   4.162   1.621  0.3859  0.0575 -0.1064
 7737SOL    HW126613   9.672   4.119   1.540 -0.2247  1.8774 -0.9102
 7737SOL    HW226614   9.668   4.252   1.612  1.2547  0.5788  1.6974
 7738SOL     OW26615   1.701   8.283  10.597 -0.5068  0.7411 -0.2328
 7738SOL    HW126616   1.624   8.275  10.653 -0.9892  1.0684 -0.8440
 7738SOL    HW226617   1.752   8.204  10.615 -2.0422 -0.5825 -1.4079
 7739SOL     OW26618   3.220   2.528   2.280  0.0127  0.9470  0.7789
 7739SOL    HW126619   3.128   2.505   2.268  0.5683 -1.3553  0.5937
 7739SOL    HW226620   3.236   2.518   2.374 -0.3029  3.0708  1.1164
 7740SOL     OW26621   0.363   1.889   3.899  0.1518 -0.2192 -0.1458
 7740SOL    HW126622   0.432   1.838   3.942  0.7612  2.6491  2.6165
 7740SOL    HW226623   0.409   1.963   3.860 -1.2895  2.0999  2.2895
 7741SOL     OW26624  10.555   9.497   0.219  0.6169  0.4065  0.4098
 7741SOL    HW126625  10.607   9.548   0.158  0.7204  1.6561  1.4981
 7741SOL    HW226626  10.610   9.489   0.297 -0.1651  0.2950  0.9629
 7742SOL     OW26627   4.958   6.048  10.715  0.1928 -0.1476 -0.0194
 7742SOL    HW126628   4.948   6.140  10.690 -2.5476 -0.3816 -0.1241
 7742SOL    HW226629   4.965   6.002  10.632  1.7653 -0.0630  0.0377
 7743SOL     OW26630   5.060   1.431   2.430  0.3831 -0.2953 -0.1794
 7743SOL    HW126631   5.151   1.449   2.406  0.5914  0.3633  1.0046
 7743SOL    HW226632   5.059   1.437   2.526 -0.8920 -0.3772 -0.1696
 7744SOL     OW26633   1.332   2.446   8.593  0.2664  0.0910 -0.3307
 7744SOL    HW126634   1.349   2.490   8.510  1.0140 -2.3817 -1.6059
 7744SOL    HW226635   1.242   2.470   8.615  0.3215  1.4250 -1.4180
 7745SOL     OW26636   5.037   9.543   8.543 -0.4384 -0.4294  0.1231
 7745SOL    HW126637   4.977   9.595   8.596  0.3596  2.0993 -1.2644
 7745SOL    HW226638   5.006   9.453   8.552  0.5507 -0.5341  5.9922
 7746SOL     OW26639   8.539   5.017   0.846  0.2472  0.0597  0.2537
 7746SOL    HW126640   8.512   5.046   0.759 -0.3843 -3.2223 -0.7695
 7746SOL    HW226641   8.459   5.021   0.899  0.2077  0.3309  0.1718
 7747SOL     OW26642   0.800   1.058   4.971 -0.1259  0.1745  0.0068
 7747SOL    HW126643   0.769   1.088   5.056  0.9599  3.0118 -0.4494
 7747SOL    HW226644   0.723   1.060   4.915 -0.0536  3.4942 -0.2258
 7748SOL     OW26645   4.632   6.254   7.140 -0.2305  0.1458 -0.1007
 7748SOL    HW126646   4.681   6.260   7.222  0.4630  1.0375 -0.5629
 7748SOL    HW226647   4.616   6.345   7.114 -1.9844 -0.1135 -0.0697
 7749SOL     OW26648   1.271   7.265   6.127 -0.4147  0.0745  0.1186
 7749SOL    HW126649   1.305   7.294   6.042 -1.3493  1.2475  0.1145
 7749SOL    HW226650   1.178   7.248   6.111 -0.2402 -1.3888  0.5291
 7750SOL     OW26651  10.062   3.384   0.590  0.3937  0.4757  0.1722
 7750SOL    HW126652  10.096   3.317   0.530  2.1032  1.2673  0.2021
 7750SOL    HW226653   9.978   3.349   0.619  0.4498 -0.8566 -1.1408
 7751SOL     OW26654   6.100   4.160   5.698  0.8077 -0.0302  0.0985
 7751SOL    HW126655   6.012   4.180   5.666 -0.5531 -0.0324  3.4341
 7751SOL    HW226656   6.128   4.240   5.743  2.4323 -0.1523 -0.6061
 7752SOL     OW26657   8.130   6.990  10.905 -0.1431  0.1575  0.0726
 7752SOL    HW126658   8.067   6.992  10.977  0.7197 -0.7957  0.8934
 7752SOL    HW226659   8.097   6.922  10.846  0.1109 -0.3408  0.5003
 7753SOL     OW26660  10.684   7.566   5.585 -0.0173  0.0967 -0.0980
 7753SOL    HW126661  10.743   7.499   5.619  0.2599 -0.7516 -2.1513
 7753SOL    HW226662  10.636   7.597   5.663  2.4896  0.2518  1.4899
 7754SOL     OW26663   5.469   2.571   8.123 -0.4452 -0.1521 -0.1371
 7754SOL    HW126664   5.462   2.490   8.073 -3.1970 -0.6556  0.8643
 7754SOL    HW226665   5.439   2.548   8.211 -1.2177  1.9002  0.1996
 7755SOL     OW26666   3.240   7.270   2.780 -0.1422  0.0103 -0.3718
 7755SOL    HW126667   3.298   7.246   2.708  1.2139 -0.2771  0.7735
 7755SOL    HW226668   3.265   7.360   2.801 -0.4811  0.0704 -0.2231
 7756SOL     OW26669   9.900   2.663   6.557 -0.5623 -0.1075  0.2970
 7756SOL    HW126670   9.837   2.604   6.516 -2.2753  1.5236  0.4160
 7756SOL    HW226671   9.860   2.684   6.642  0.7054  0.1146  0.8583
 7757SOL     OW26672   4.722  10.766   9.511  0.4204 -0.1768 -0.2423
 7757SOL    HW126673   4.643  10.713   9.509  0.1297 -0.0369  2.9179
 7757SOL    HW226674   4.761  10.755   9.424 -1.7038 -2.2844 -1.0225
 7758SOL     OW26675   0.014   0.198   1.641  0.1134  0.2883 -0.1079
 7758SOL    HW126676   0.040   0.131   1.579  0.3408 -0.7270  1.0392
 7758SOL    HW226677  -0.067   0.166   1.679 -0.2606  1.1075 -0.1856
 7759SOL     OW26678   2.368   9.061  10.352  0.7560  0.4870 -0.2314
 7759SOL    HW126679   2.445   9.105  10.389  0.2796  1.3509 -0.2479
 7759SOL    HW226680   2.393   8.969  10.348  1.4624  0.6294  0.5923
 7760SOL     OW26681   3.986   1.957   4.708 -0.3244 -0.9002  0.4391
 7760SOL    HW126682   4.032   2.005   4.777 -1.1261  0.6572 -0.0516
 7760SOL    HW226683   4.055   1.904   4.666  0.6144 -0.1686  1.0084
 7761SOL     OW26684   7.215   2.076   8.178  0.5734 -0.3212 -0.3337
 7761SOL    HW126685   7.288   2.054   8.120  2.5671  1.7026  1.2070
 7761SOL    HW226686   7.231   2.168   8.201 -1.1957 -0.4940  1.8668
 7762SOL     OW26687   9.281   6.918   6.163 -0.1191  0.1777 -0.0778
 7762SOL    HW126688   9.204   6.880   6.206 -1.0417  1.2921 -0.6869
 7762SOL    HW226689   9.277   7.011   6.185  1.8789  0.0462  1.0641
 7763SOL     OW26690   8.294  10.028   4.468 -0.2888  0.6943 -0.4869
 7763SOL    HW126691   8.277  10.059   4.557 -0.3972 -1.2230  0.2233
 7763SOL    HW226692   8.357   9.956   4.480 -1.4234 -0.5728 -1.7633
 7764SOL     OW26693   7.002   0.343   2.082 -0.1607  0.3945 -0.3958
 7764SOL    HW126694   6.978   0.350   1.989  1.0600 -1.7213 -0.9239
 7764SOL    HW226695   6.945   0.406   2.126 -1.5502  0.6650 -2.4531
 7765SOL     OW26696   5.246   8.698   0.907 -0.0952 -0.6577 -0.0060
 7765SOL    HW126697   5.190   8.759   0.859  0.5611  0.2799  0.3864
 7765SOL    HW226698   5.325   8.748   0.927  1.9450 -2.5656 -2.5283
 7766SOL     OW26699   4.589   2.480   3.533 -0.3724 -0.2932 -0.0067
 7766SOL    HW126700   4.632   2.450   3.613  0.7740  3.6595  1.0861
 7766SOL    HW226701   4.655   2.470   3.465  0.3680  0.6563  0.5495
 7767SOL     OW26702   5.460   1.292   8.790 -0.1794 -0.1520 -0.0112
 7767SOL    HW126703   5.444   1.320   8.700 -1.0456  0.9068  0.4536
 7767SOL    HW226704   5.480   1.373   8.836 -1.6827 -0.4059  1.1542
 7768SOL     OW26705   2.980   7.524   4.658  0.1244 -0.0741  0.6415
 7768SOL    HW126706   3.067   7.492   4.682  0.3737  0.6973  0.7996
 7768SOL    HW226707   2.927   7.512   4.737 -0.3753 -2.0446  0.0731
 7769SOL     OW26708  10.666   0.815   8.437  0.0258 -0.0669 -0.6588
 7769SOL    HW126709  10.750   0.771   8.419  1.0346  0.8385  1.5315
 7769SOL    HW226710  10.609   0.745   8.467  1.2492 -0.1592  1.6393
 7770SOL     OW26711   8.560   8.538   7.348  0.1688  0.3646 -0.3083
 7770SOL    HW126712   8.561   8.604   7.279 -0.2862  1.7703  0.9429
 7770SOL    HW226713   8.528   8.586   7.425 -2.4996 -1.8623  0.1308
 7771SOL     OW26714   5.695   0.483   1.596 -0.2908 -0.8958  0.0260
 7771SOL    HW126715   5.608   0.446   1.608 -0.4430 -0.3730  0.6193
 7771SOL    HW226716   5.679   0.575   1.576  0.0916 -1.0632 -1.0831
 7772SOL     OW26717   4.159   2.786  10.299  0.3055  0.2886 -0.3125
 7772SOL    HW126718   4.135   2.754  10.385 -0.4592 -0.0995 -0.6582
 7772SOL    HW226719   4.192   2.875  10.314  0.4329  0.1247  0.3982
 7773SOL     OW26720   6.152   6.702   4.338  0.7719 -0.1713  0.7320
 7773SOL    HW126721   6.210   6.731   4.267  0.9430 -0.2247  0.8485
 7773SOL    HW226722   6.152   6.775   4.400 -0.3572  0.3888  0.0999
 7774SOL     OW26723   6.037   2.123   3.641 -0.1050 -0.9060 -0.6412
 7774SOL    HW126724   6.115   2.179   3.639 -0.0814 -0.9174 -0.0187
 7774SOL    HW226725   6.001   2.130   3.552  1.0042 -1.4585 -1.1686
 7775SOL     OW26726   3.050   3.428   1.492 -0.4829 -0.1760 -0.5008
 7775SOL    HW126727   2.969   3.378   1.502  0.0496 -1.0269 -0.3349
 7775SOL    HW226728   3.116   3.362   1.469  0.2574  0.4406 -0.1840
 7776SOL     OW26729   3.327   6.938   9.613  0.2862 -0.3137 -0.8136
 7776SOL    HW126730   3.359   6.860   9.567  0.4601 -1.5212  1.2567
 7776SOL    HW226731   3.255   6.906   9.668  0.3268  1.0009  0.0430
 7777SOL     OW26732   8.329   4.536  10.243  0.1235  0.3338 -0.1707
 7777SOL    HW126733   8.405   4.485  10.213  1.1453  1.5411  0.2565
 7777SOL    HW226734   8.265   4.528  10.173  0.1793 -1.6548 -0.0355
 7778SOL     OW26735   4.697   5.701   9.158  0.1743  0.0297 -0.5272
 7778SOL    HW126736   4.614   5.674   9.120 -0.1183 -2.8519  1.8347
 7778SOL    HW226737   4.676   5.782   9.205 -2.1689 -2.0622  2.3874
 7779SOL     OW26738   6.774  10.726   4.441 -0.4128  0.0947  0.1050
 7779SOL    HW126739   6.844  10.662   4.451  1.3526  1.7375 -0.9411
 7779SOL    HW226740   6.694  10.674   4.437  0.6535 -1.8486  1.7296
 7780SOL     OW26741   1.956   5.902   3.553 -0.1317 -0.5911  0.0416
 7780SOL    HW126742   2.052   5.909   3.553 -0.2407  1.5451  0.7553
 7780SOL    HW226743   1.938   5.820   3.599  1.3500 -1.5663 -1.0118
 7781SOL     OW26744   8.602   3.685   5.540 -0.1605 -0.0393 -0.1610
 7781SOL    HW126745   8.510   3.685   5.517 -0.4298  1.5665  0.7422
 7781SOL    HW226746   8.648   3.696   5.456 -0.8230 -0.1033 -0.5365
 7782SOL     OW26747   9.227   5.900   2.110  0.0043 -0.3904 -0.1958
 7782SOL    HW126748   9.211   5.991   2.084 -1.0123 -0.7710 -0.9935
 7782SOL    HW226749   9.306   5.904   2.164  0.4823  0.8514 -0.9364
 7783SOL     OW26750   5.962   4.633   1.047 -0.6955  0.2911 -0.2501
 7783SOL    HW126751   6.016   4.658   1.122  0.1189 -0.5404 -0.5403
 7783SOL    HW226752   5.913   4.557   1.077 -0.4939  0.0588 -0.5098
 7784SOL     OW26753   5.235   3.506   6.075  0.1011 -0.4808 -0.5019
 7784SOL    HW126754   5.197   3.524   5.989  0.5397 -0.7757 -0.7539
 7784SOL    HW226755   5.246   3.593   6.114 -2.2613 -0.4322  0.2030
 7785SOL     OW26756   0.630   8.716   2.034 -0.1521 -0.7976 -0.1402
 7785SOL    HW126757   0.574   8.719   1.956 -0.8195  0.7908  0.3572
 7785SOL    HW226758   0.594   8.646   2.087 -1.2878 -0.2133 -0.1218
 7786SOL     OW26759   2.106  10.842   5.866  0.1638 -0.6719 -0.2536
 7786SOL    HW126760   2.071  10.758   5.838 -1.3616  0.0520 -0.6173
 7786SOL    HW226761   2.074  10.854   5.955  0.8455 -0.7095  0.0061
 7787SOL     OW26762   3.573   1.156   0.173  0.6034 -0.1175 -0.7770
 7787SOL    HW126763   3.598   1.245   0.152  1.5407  0.1297  1.1832
 7787SOL    HW226764   3.478   1.159   0.182  0.8413  1.4747  2.3426
 7788SOL     OW26765   4.896   6.308   8.293 -0.0112  0.8420 -0.0952
 7788SOL    HW126766   4.942   6.389   8.274  1.7083 -0.1363 -0.2958
 7788SOL    HW226767   4.840   6.328   8.368  0.1234  2.2787 -0.3656
 7789SOL     OW26768   6.645   8.551   2.745 -0.2868  0.2975 -0.2472
 7789SOL    HW126769   6.606   8.616   2.803 -1.8925 -0.9883  0.1938
 7789SOL    HW226770   6.720   8.516   2.795  0.3469  1.4880 -0.3313
 7790SOL     OW26771   6.903   8.217   6.564  0.6256 -0.6445  0.0774
 7790SOL    HW126772   6.866   8.129   6.566 -0.8960 -0.0536 -0.8020
 7790SOL    HW226773   6.971   8.212   6.496  2.6344 -1.8603  2.0376
 7791SOL     OW26774   6.988   9.111   1.089  0.4726  0.4038 -0.2957
 7791SOL    HW126775   7.061   9.055   1.114 -0.7901 -1.5453 -0.7225
 7791SOL    HW226776   6.954   9.145   1.172  2.3611  2.0984 -0.1473
 7792SOL     OW26777   2.469   1.130   8.357 -0.3034 -0.5588 -0.3510
 7792SOL    HW126778   2.427   1.200   8.307 -0.5835  0.0383  0.6874
 7792SOL    HW226779   2.482   1.168   8.444  0.2855 -1.5325 -0.0030
 7793SOL     OW26780  10.303   2.239   4.707  0.0089 -0.1116 -0.3268
 7793SOL    HW126781  10.361   2.165   4.726  1.6010  0.9271 -0.8996
 7793SOL    HW226782  10.323   2.303   4.775 -1.2503 -0.1222  0.0758
 7794SOL     OW26783   9.302  10.216   4.701 -0.1241  0.4562 -0.5495
 7794SOL    HW126784   9.311  10.300   4.747 -0.4196  1.3948 -2.1477
 7794SOL    HW226785   9.275  10.240   4.613  2.1354 -1.1726 -1.7734
 7795SOL     OW26786   3.112   1.518   3.824  0.6387  0.1946 -0.2877
 7795SOL    HW126787   3.174   1.556   3.886  0.8475  0.6661 -0.7729
 7795SOL    HW226788   3.051   1.590   3.805  0.6064  0.0703 -0.6629
 7796SOL     OW26789   7.941   8.200   8.660 -0.0110 -0.0174 -0.2408
 7796SOL    HW126790   7.958   8.106   8.652  0.2237 -0.2179  2.0422
 7796SOL    HW226791   7.853   8.206   8.699  1.6627  0.4512  3.9801
 7797SOL     OW26792  10.091   1.031   7.901 -0.1146  0.9663 -0.1080
 7797SOL    HW126793  10.079   1.115   7.857 -0.5814  0.4507 -0.9896
 7797SOL    HW226794  10.107   0.969   7.831  0.7160  0.3918  0.5704
 7798SOL     OW26795   3.942   3.100  10.272 -0.2831  0.1975  0.3366
 7798SOL    HW126796   3.922   3.133  10.360 -1.7451 -0.7560  0.3885
 7798SOL    HW226797   4.038   3.092  10.271 -0.0995  1.9324  1.1979
 7799SOL     OW26798   9.114   8.636   7.842  0.1576  0.5316  0.4598
 7799SOL    HW126799   9.071   8.714   7.877 -0.9898 -0.3069  1.0092
 7799SOL    HW226800   9.199   8.634   7.885 -1.0026 -0.1811  2.8964
 7800SOL     OW26801   9.641   3.643   4.546 -0.2540  0.5874 -0.2153
 7800SOL    HW126802   9.604   3.699   4.615 -1.1247 -0.0737 -0.1301
 7800SOL    HW226803   9.566   3.617   4.493  0.3613  0.7753 -1.1963
 7801SOL     OW26804   4.096   9.635   3.169 -0.1653  0.0882 -0.3687
 7801SOL    HW126805   4.172   9.631   3.111 -0.2111  2.5738 -0.7220
 7801SOL    HW226806   4.125   9.686   3.244 -1.0172 -0.3836  0.3063
 7802SOL     OW26807   8.807   2.015   2.506  0.3456  0.1096  0.5278
 7802SOL    HW126808   8.809   2.017   2.411 -1.1128 -0.5132  0.4589
 7802SOL    HW226809   8.810   1.922   2.528  2.2905  0.2770  1.1793
 7803SOL     OW26810   2.467   8.817   7.026 -0.4343  0.4562  0.5290
 7803SOL    HW126811   2.439   8.732   7.058 -0.7729 -0.3601 -1.7410
 7803SOL    HW226812   2.506   8.799   6.940  0.4204  2.4679  0.4294
 7804SOL     OW26813   7.734   4.714   0.911  0.4255 -0.0147 -0.3910
 7804SOL    HW126814   7.652   4.753   0.941  0.3895  0.1692 -0.7189
 7804SOL    HW226815   7.796   4.787   0.906  0.4010 -0.0239 -0.8587
 7805SOL     OW26816   8.460   9.487   4.180  0.2387  0.0658  0.2321
 7805SOL    HW126817   8.500   9.502   4.265  0.3562 -0.0852  0.2045
 7805SOL    HW226818   8.366   9.480   4.198  0.1430  1.1058  0.2075
 7806SOL     OW26819   7.724   7.009   2.623  0.0074  0.0786 -0.1586
 7806SOL    HW126820   7.632   6.985   2.635  0.5917 -1.4607  1.7329
 7806SOL    HW226821   7.766   6.929   2.590  0.6569  0.8298 -1.2273
 7807SOL     OW26822   1.401   0.491   3.463  0.0946  0.4644  0.0764
 7807SOL    HW126823   1.389   0.424   3.395  2.1555  0.7296 -0.6111
 7807SOL    HW226824   1.326   0.550   3.452 -2.2630 -2.1016  1.2527
 7808SOL     OW26825   5.415   7.768   1.613 -0.6418  0.2858  0.3553
 7808SOL    HW126826   5.329   7.808   1.627  0.0865  1.6080  1.2112
 7808SOL    HW226827   5.474   7.841   1.600  0.4890 -0.5826  0.4487
 7809SOL     OW26828   7.037   3.216   3.106 -0.3760 -0.3142 -0.1571
 7809SOL    HW126829   6.998   3.301   3.089 -0.7209 -0.6874 -1.3678
 7809SOL    HW226830   6.971   3.169   3.157 -0.1047  0.1918  0.6830
 7810SOL     OW26831   2.794   6.445   8.773  0.6550  0.1729  0.5353
 7810SOL    HW126832   2.748   6.421   8.854 -1.4162  2.7640  0.2750
 7810SOL    HW226833   2.857   6.512   8.800  0.6551  0.3260  0.1534
 7811SOL     OW26834   8.782   4.949   0.621 -0.8002 -0.1647 -0.2077
 7811SOL    HW126835   8.770   4.902   0.703  0.0213  0.2608  0.1644
 7811SOL    HW226836   8.757   4.886   0.553 -1.1743 -0.6245  0.3453
 7812SOL     OW26837  10.153   5.007   3.994 -0.0756  0.0067  0.3900
 7812SOL    HW126838  10.236   4.960   3.987 -0.5471 -0.7355 -0.2507
 7812SOL    HW226839  10.178   5.094   4.028  0.7231 -0.9290  2.3721
 7813SOL     OW26840   4.147   9.016   8.958  0.0038  0.4346  0.0514
 7813SOL    HW126841   4.193   8.960   9.021  0.4227  0.5822 -0.1238
 7813SOL    HW226842   4.102   9.081   9.011 -1.1840 -0.5684  0.3213
 7814SOL     OW26843  10.819   5.772   1.529 -0.4663 -0.3596 -0.1927
 7814SOL    HW126844  10.901   5.767   1.579  1.2200 -1.6294 -2.8784
 7814SOL    HW226845  10.789   5.682   1.524 -0.6451 -0.2445 -1.3636
 7815SOL     OW26846   1.370   2.821   1.105 -0.4120 -0.3028 -0.1796
 7815SOL    HW126847   1.320   2.859   1.177  0.3928  0.0989  0.1747
 7815SOL    HW226848   1.345   2.873   1.029  1.3614  1.6193  0.4592
 7816SOL     OW26849   8.737   2.407  10.498 -0.3335 -0.4423 -0.2063
 7816SOL    HW126850   8.814   2.400  10.555 -2.1452 -0.8222  2.3409
 7816SOL    HW226851   8.687   2.328  10.515 -2.0424  0.4999 -0.6316
 7817SOL     OW26852   3.285   6.493   3.954  0.7925  0.5809 -0.3647
 7817SOL    HW126853   3.332   6.519   4.032  0.6504 -0.4050  0.0680
 7817SOL    HW226854   3.332   6.416   3.921 -0.0137  0.0725 -0.3799
 7818SOL     OW26855   8.538   0.815   5.703 -0.4397 -0.7064 -0.0940
 7818SOL    HW126856   8.583   0.882   5.651  0.3593 -0.2067  1.1973
 7818SOL    HW226857   8.609   0.768   5.746 -1.0665 -1.5383  0.0402
 7819SOL     OW26858   3.168   0.150   5.628 -0.5628  0.0150  0.1429
 7819SOL    HW126859   3.189   0.074   5.683 -3.7238 -0.5600  0.7280
 7819SOL    HW226860   3.227   0.143   5.553  0.9695 -1.5491  1.4266
 7820SOL     OW26861   0.425   5.458   0.787  0.0610  0.0452  0.3063
 7820SOL    HW126862   0.468   5.543   0.790 -0.8715  0.7271 -2.3369
 7820SOL    HW226863   0.495   5.395   0.769  0.3454  0.7965 -1.4114
 7821SOL     OW26864   4.403   3.969   1.111 -0.2451  0.0461  0.2126
 7821SOL    HW126865   4.474   3.924   1.064 -0.5099 -1.4882  1.2204
 7821SOL    HW226866   4.445   4.046   1.150  0.6606 -0.3524  0.0453
 7822SOL     OW26867  10.444   5.516   2.696 -0.5267 -0.0411  0.5137
 7822SOL    HW126868  10.509   5.583   2.718 -2.1883  1.8076  0.1256
 7822SOL    HW226869  10.362   5.565   2.688 -1.7590 -2.1074 -0.1429
 7823SOL     OW26870   2.140   9.435   9.887  0.3388  0.9297 -0.4362
 7823SOL    HW126871   2.103   9.509   9.839  0.2690 -0.0989 -2.0498
 7823SOL    HW226872   2.082   9.362   9.866 -0.5705  0.7027  2.4453
 7824SOL     OW26873   3.029   4.704   6.235  0.4207  0.3585  0.3137
 7824SOL    HW126874   2.939   4.732   6.253 -0.2033 -1.4648  0.3074
 7824SOL    HW226875   3.076   4.719   6.318 -0.0864  0.6279  0.5568
 7825SOL     OW26876   1.471   9.228  10.801  0.3975 -0.3008 -0.1317
 7825SOL    HW126877   1.547   9.246  10.857  1.0371  0.9112 -1.3139
 7825SOL    HW226878   1.442   9.141  10.828  1.7398 -0.4863  0.8774
 7826SOL     OW26879   7.394   0.786  10.032 -0.2580  0.0294 -0.3169
 7826SOL    HW126880   7.325   0.818   9.972 -2.1093  0.4592  1.8923
 7826SOL    HW226881   7.402   0.693  10.012 -1.5852 -0.0557 -0.5851
 7827SOL     OW26882   6.145   7.612   3.603 -0.7945 -0.3752  0.2238
 7827SOL    HW126883   6.182   7.698   3.584 -2.2725  0.4033  0.7355
 7827SOL    HW226884   6.065   7.608   3.552 -0.1180 -1.9920 -0.7847
 7828SOL     OW26885   6.077   5.377   3.178  0.1363 -0.8102 -0.4232
 7828SOL    HW126886   6.133   5.452   3.159  0.9666 -1.4001 -0.3636
 7828SOL    HW226887   5.997   5.415   3.215  0.8086  0.0079  0.2370
 7829SOL     OW26888   2.781   9.869  10.502  0.0071 -0.2887 -0.2771
 7829SOL    HW126889   2.814   9.802  10.442 -1.8235 -0.9024 -0.6765
 7829SOL    HW226890   2.717   9.824  10.556  0.2063  0.7075  0.8400
 7830SOL     OW26891   3.867   5.862   7.893 -0.6971  0.4749  0.3520
 7830SOL    HW126892   3.858   5.947   7.937 -1.3524  1.4349 -1.5162
 7830SOL    HW226893   3.870   5.884   7.800 -0.2631 -1.5318 -0.1475
 7831SOL     OW26894   6.058   6.460   0.221  0.2828  0.1347 -0.2456
 7831SOL    HW126895   5.975   6.477   0.178  0.8782  1.4748 -0.9150
 7831SOL    HW226896   6.034   6.416   0.303 -1.2118  2.0438  0.4073
 7832SOL     OW26897   6.554   4.650   7.714 -0.6774  0.4288 -0.1911
 7832SOL    HW126898   6.615   4.576   7.716 -1.5223 -0.2861  0.4031
 7832SOL    HW226899   6.535   4.664   7.621 -1.9564 -1.3859 -0.2626
 7833SOL     OW26900   5.502   0.595   3.978  0.4886 -0.2986  0.0898
 7833SOL    HW126901   5.579   0.636   4.018  0.2152  1.1745 -0.8075
 7833SOL    HW226902   5.442   0.580   4.050  0.5606  1.0204  0.4462
 7834SOL     OW26903   3.084   0.138   8.918 -0.4414 -0.0844 -0.6717
 7834SOL    HW126904   3.176   0.127   8.940 -0.7613 -0.7000  0.4940
 7834SOL    HW226905   3.075   0.100   8.831  0.4273  0.1040 -0.8512
 7835SOL     OW26906   1.305   6.915   0.182 -0.1021 -0.0983  0.3530
 7835SOL    HW126907   1.383   6.935   0.131 -0.2958  0.5122  0.2909
 7835SOL    HW226908   1.232   6.938   0.125 -0.3673 -2.1413 -0.1954
 7836SOL     OW26909   1.583   9.240   0.270 -0.2662  0.0178 -0.0250
 7836SOL    HW126910   1.634   9.226   0.190 -0.5131 -0.3877 -0.1162
 7836SOL    HW226911   1.549   9.329   0.262  0.0854  0.1429 -0.1540
 7837SOL     OW26912   8.579   8.384   2.871  0.2973  0.3184 -0.0000
 7837SOL    HW126913   8.504   8.338   2.907  0.0787  0.9765  0.3844
 7837SOL    HW226914   8.548   8.473   2.855  0.6548  0.2920 -0.9461
 7838SOL     OW26915  10.552   5.630   4.706  0.1306 -0.7067 -0.2727
 7838SOL    HW126916  10.538   5.678   4.624 -1.4220 -0.4259  0.1253
 7838SOL    HW226917  10.557   5.698   4.773 -2.2439 -1.0386  0.3184
 7839SOL     OW26918   1.260   9.602   2.446 -0.6960 -0.0649 -0.2930
 7839SOL    HW126919   1.223   9.633   2.363  1.4104 -0.4395 -1.4386
 7839SOL    HW226920   1.345   9.564   2.422  0.7130  1.2165  2.2206
 7840SOL     OW26921   7.062   7.676  10.712  0.7281 -0.0069  0.1399
 7840SOL    HW126922   7.145   7.636  10.688  0.4404  0.7341 -2.4347
 7840SOL    HW226923   7.013   7.681  10.630 -1.1620  1.1658  1.2510
 7841SOL     OW26924   5.989   8.178   6.189 -0.2565 -0.5215  1.0684
 7841SOL    HW126925   6.070   8.155   6.234 -1.0796 -0.8236  2.4465
 7841SOL    HW226926   5.979   8.112   6.121  0.7344 -0.3805  0.7789
 7842SOL     OW26927   6.386   8.418  10.719 -0.2255  0.0213  0.5502
 7842SOL    HW126928   6.358   8.367  10.644 -0.9653 -0.1129  0.9010
 7842SOL    HW226929   6.458   8.472  10.687 -0.5295 -0.0343 -0.2508
 7843SOL     OW26930   8.645   9.492   6.316  0.8593  0.0326 -0.2097
 7843SOL    HW126931   8.579   9.561   6.327 -0.1446 -0.8384 -0.5513
 7843SOL    HW226932   8.647   9.447   6.401  0.5968 -0.2955 -0.3766
 7844SOL     OW26933   7.386   9.162   0.914  0.4165  0.1233 -0.2963
 7844SOL    HW126934   7.319   9.219   0.876  1.7248  1.8227 -0.1643
 7844SOL    HW226935   7.418   9.111   0.839 -1.8061 -1.6271 -0.1543
 7845SOL     OW26936   7.302   9.687   8.373 -0.5332 -0.3486  0.5208
 7845SOL    HW126937   7.289   9.714   8.282  0.3951 -0.3771  0.3778
 7845SOL    HW226938   7.295   9.768   8.424  1.5926  0.1236  0.1563
 7846SOL     OW26939   4.890   4.037   6.647 -0.1555  0.5641  0.3499
 7846SOL    HW126940   4.875   4.126   6.616  0.2723 -0.0211 -1.6329
 7846SOL    HW226941   4.814   3.988   6.618  0.3079 -0.0296  0.1228
 7847SOL     OW26942   9.198   9.058   7.455  0.3185 -0.7477  0.2485
 7847SOL    HW126943   9.216   9.149   7.433 -2.7938 -0.3278 -1.0300
 7847SOL    HW226944   9.196   9.013   7.370  2.9150 -2.3322  0.9234
 7848SOL     OW26945   7.662  10.260   1.227  0.0791 -0.5262 -0.1336
 7848SOL    HW126946   7.735  10.307   1.187  0.0364 -0.4797 -0.1571
 7848SOL    HW226947   7.594  10.261   1.160 -1.0069  1.9282  0.8801
 7849SOL     OW26948   7.382   2.525   5.374  0.1802 -0.0509  0.3217
 7849SOL    HW126949   7.327   2.453   5.345  0.6073 -0.2781  0.0607
 7849SOL    HW226950   7.437   2.545   5.298 -0.6547  1.2572  0.0158
 7850SOL     OW26951   6.708   6.992   0.842  0.1458 -0.1479  0.4665
 7850SOL    HW126952   6.744   7.042   0.916 -0.9206 -0.2943  1.1113
 7850SOL    HW226953   6.650   6.927   0.883  0.3280 -0.9089 -0.4486
 7851SOL     OW26954   0.709   4.611   5.110 -0.3678 -0.0523 -0.5863
 7851SOL    HW126955   0.790   4.655   5.133 -0.4351 -1.1227  2.1807
 7851SOL    HW226956   0.736   4.525   5.078 -0.3404 -0.6604  0.9583
 7852SOL     OW26957   5.429   1.084  10.016  0.1383  0.1151  0.0860
 7852SOL    HW126958   5.406   1.052  10.103  0.0773  0.6384  0.2697
 7852SOL    HW226959   5.352   1.067   9.963  0.3537 -0.6444  0.0150
 7853SOL     OW26960   5.167  10.603   1.164 -0.0713 -0.1032 -0.9396
 7853SOL    HW126961   5.139  10.615   1.073  0.5822 -0.5308 -1.2022
 7853SOL    HW226962   5.236  10.669   1.177  0.4691 -0.6452 -1.0365
 7854SOL     OW26963   8.600   5.669   4.471 -0.4294 -0.1817  0.1287
 7854SOL    HW126964   8.630   5.656   4.561 -0.7533  0.6386  0.3588
 7854SOL    HW226965   8.560   5.756   4.470  1.5765  0.8165 -1.3294
 7855SOL     OW26966   5.182   6.746   0.064 -0.0704  0.1868  0.1029
 7855SOL    HW126967   5.264   6.791   0.044 -1.3196  2.1876 -0.8709
 7855SOL    HW226968   5.123   6.815   0.093 -1.6202 -1.0870  0.1572
 7856SOL     OW26969  10.886   3.782   9.138 -0.1643 -0.5225 -0.2309
 7856SOL    HW126970  10.871   3.845   9.209  2.7272 -2.1336  2.0553
 7856SOL    HW226971  10.900   3.837   9.061 -3.2034  1.3176  0.3399
 7857SOL     OW26972  10.073   1.278   7.747  0.4765 -0.4100  0.2787
 7857SOL    HW126973  10.148   1.273   7.688 -0.2376 -0.4358 -0.6504
 7857SOL    HW226974  10.009   1.332   7.700  0.1825  0.2033  1.3581
 7858SOL     OW26975   7.986   8.398  10.858  0.3725  0.1478 -0.6816
 7858SOL    HW126976   8.041   8.456  10.910  2.3463  0.2041 -2.6705
 7858SOL    HW226977   7.994   8.313  10.902 -0.2719  0.7407  0.6476
 7859SOL     OW26978   2.407   9.478   4.010 -0.5767  0.2691  0.3897
 7859SOL    HW126979   2.447   9.404   4.056 -0.6109  0.4205  0.6648
 7859SOL    HW226980   2.324   9.492   4.056 -2.7404 -2.3034 -2.2948
 7860SOL     OW26981   9.025   5.059   7.594  0.9191  0.1014  0.1084
 7860SOL    HW126982   9.070   5.129   7.643  1.5282 -0.1356 -0.1069
 7860SOL    HW226983   8.966   5.106   7.535  1.3846  0.4403 -0.0948
 7861SOL     OW26984   8.894   2.868   3.779  0.4373 -0.5506  0.2031
 7861SOL    HW126985   8.863   2.929   3.845 -0.9707  2.0008 -2.5789
 7861SOL    HW226986   8.988   2.885   3.771  0.3043  0.3075  0.4246
 7862SOL     OW26987   4.152  10.225   7.842  0.2723 -0.1928  0.0064
 7862SOL    HW126988   4.245  10.216   7.819  0.3080  0.5601 -0.1609
 7862SOL    HW226989   4.127  10.311   7.807 -0.1185  0.2457  1.3095
 7863SOL     OW26990   6.295   0.321  10.359  0.1069  0.3710  0.0464
 7863SOL    HW126991   6.380   0.317  10.316 -0.5323 -1.6758 -1.1713
 7863SOL    HW226992   6.269   0.413  10.351  0.8422  0.4374 -2.3901
 7864SOL     OW26993   7.027   3.970   6.335 -0.1820 -0.8769 -0.1576
 7864SOL    HW126994   6.937   3.954   6.306 -0.1044 -1.7829  0.0708
 7864SOL    HW226995   7.080   3.955   6.257 -0.1807 -0.8623 -0.1594
 7865SOL     OW26996   7.207   3.194   0.076 -0.0341 -0.0306  0.0206
 7865SOL    HW126997   7.154   3.212   0.154  1.9699  0.1851  1.3977
 7865SOL    HW226998   7.195   3.100   0.061 -1.5841  0.1881 -0.3530
 7866SOL     OW26999   6.745   6.019   4.812 -0.0862 -0.6846  0.0107
 7866SOL    HW127000   6.707   6.086   4.869  0.3977 -1.8334  1.7916
 7866SOL    HW227001   6.682   5.947   4.816 -0.3346 -0.5630 -1.4294
 7867SOL     OW27002   3.502   7.960   5.992 -0.3673  0.1327 -0.2397
 7867SOL    HW127003   3.517   7.923   6.079 -0.5380  0.4821 -0.0610
 7867SOL    HW227004   3.577   7.930   5.940  0.6351  1.3355  0.4777
 7868SOL     OW27005   1.714   9.869   0.498 -0.3189 -0.1861 -0.3099
 7868SOL    HW127006   1.706   9.825   0.582 -1.2820 -1.7275 -1.1545
 7868SOL    HW227007   1.808   9.878   0.483 -0.1419 -0.1738  0.7760
 7869SOL     OW27008   4.525   7.619   9.889 -0.0014  0.0504 -0.1465
 7869SOL    HW127009   4.614   7.589   9.909 -0.2130 -0.8318 -0.5155
 7869SOL    HW227010   4.525   7.632   9.794 -0.6939 -1.4140 -0.3724
 7870SOL     OW27011  10.774   2.416  10.418  0.0174  0.6230  0.0363
 7870SOL    HW127012  10.761   2.421  10.513 -2.7702 -1.9595 -0.0440
 7870SOL    HW227013  10.825   2.336  10.405 -0.1832  0.6021 -0.6548
 7871SOL     OW27014   0.818   8.818   8.701 -0.0833 -0.1455  0.2047
 7871SOL    HW127015   0.826   8.909   8.671 -2.1915  0.5520  1.5656
 7871SOL    HW227016   0.853   8.820   8.790 -0.1312 -0.6785  0.2369
 7872SOL     OW27017   7.519   1.156   5.487 -0.1232 -0.0110 -0.5510
 7872SOL    HW127018   7.494   1.232   5.434  0.2569  1.7526  1.6300
 7872SOL    HW227019   7.437   1.128   5.529 -0.6911 -2.2313 -2.9031
 7873SOL     OW27020   8.592   3.768   6.687  0.1027 -0.2092 -0.8354
 7873SOL    HW127021   8.590   3.676   6.662 -1.3416 -0.2509 -0.6688
 7873SOL    HW227022   8.638   3.769   6.771 -0.1252 -0.8299 -0.6940
 7874SOL     OW27023   0.555   7.177   3.228  0.2649  0.3618  0.0802
 7874SOL    HW127024   0.557   7.183   3.323  2.0259  3.6364 -0.0048
 7874SOL    HW227025   0.536   7.085   3.210 -0.5406 -0.2898  3.5428
 7875SOL     OW27026   3.521   5.507   9.697 -0.4965  0.1105  0.0100
 7875SOL    HW127027   3.479   5.421   9.693 -0.5561  0.1480 -0.1934
 7875SOL    HW227028   3.562   5.510   9.783  1.6217 -1.1184 -0.8825
 7876SOL     OW27029   0.181   3.228   8.521  0.2064 -0.0738  0.4422
 7876SOL    HW127030   0.213   3.237   8.431 -0.8109 -1.4786 -0.0934
 7876SOL    HW227031   0.141   3.142   8.524 -0.6967  0.3558  1.9660
 7877SOL     OW27032   4.920   7.238   9.697 -0.6448  0.4966 -0.0764
 7877SOL    HW127033   4.955   7.225   9.609 -0.8795  0.3218 -0.1459
 7877SOL    HW227034   4.989   7.284   9.744 -0.3373  0.1921 -0.2222
 7878SOL     OW27035   7.189  10.687   8.996 -0.4092 -0.3706  0.1205
 7878SOL    HW127036   7.141  10.653   9.072 -0.9573 -0.3984 -0.2289
 7878SOL    HW227037   7.139  10.655   8.921  0.4093 -0.7696 -0.2705
 7879SOL     OW27038   8.094   2.485   3.907  0.3830  0.0230 -0.3444
 7879SOL    HW127039   8.151   2.410   3.894  1.2851  0.1819  2.2361
 7879SOL    HW227040   8.039   2.462   3.981 -0.1519  1.4502 -0.2545
 7880SOL     OW27041   2.148   0.697   1.809  0.5140 -0.3849 -0.3697
 7880SOL    HW127042   2.094   0.619   1.797  0.3709 -0.2598 -0.5407
 7880SOL    HW227043   2.237   0.663   1.819  0.3863 -0.6037  0.0815
 7881SOL     OW27044  10.256   8.717   6.983  0.2225 -0.4619  0.1752
 7881SOL    HW127045  10.238   8.629   6.949  0.7740 -0.3584 -0.3932
 7881SOL    HW227046  10.173   8.763   6.974  0.4543 -0.3103 -1.4369
 7882SOL     OW27047   3.696   6.172   7.781  0.5247  0.6161  0.1283
 7882SOL    HW127048   3.782   6.187   7.741  0.0317  2.9040 -0.2041
 7882SOL    HW227049   3.638   6.235   7.738 -0.2130  2.7978  3.8970
 7883SOL     OW27050   3.575   2.103   5.290  0.5292 -0.2363  0.2699
 7883SOL    HW127051   3.669   2.085   5.287  0.2730 -1.9069  0.9574
 7883SOL    HW227052   3.549   2.081   5.380 -0.4282  0.7169  0.2468
 7884SOL     OW27053   1.010   4.519   0.956 -0.4061 -0.5568  0.1516
 7884SOL    HW127054   1.032   4.611   0.941  2.0387 -1.3897 -2.1474
 7884SOL    HW227055   1.033   4.504   1.048  1.1168  0.6847  0.0261
 7885SOL     OW27056   0.209   4.203   3.190  0.0854  0.0611  0.4156
 7885SOL    HW127057   0.157   4.281   3.209 -0.3903 -0.8255  3.2830
 7885SOL    HW227058   0.186   4.180   3.100 -1.9510  1.5887  0.4696
 7886SOL     OW27059   2.922   8.709   0.919  0.0522  0.2697  0.3199
 7886SOL    HW127060   2.890   8.619   0.918  1.2095 -0.1721  0.4883
 7886SOL    HW227061   2.844   8.763   0.909 -0.6888 -0.7450  0.4528
 7887SOL     OW27062   3.524  10.659   7.427 -0.1411  0.3648  0.5069
 7887SOL    HW127063   3.441  10.664   7.475  0.2553 -1.0407  1.3688
 7887SOL    HW227064   3.591  10.676   7.493  0.3002  1.2645 -0.1435
 7888SOL     OW27065   4.092   4.820   1.721  0.3746 -0.1651  0.3180
 7888SOL    HW127066   4.133   4.775   1.794 -0.4353 -0.2450  0.7330
 7888SOL    HW227067   4.001   4.789   1.721 -0.1712  1.3429  0.5179
 7889SOL     OW27068   2.832   9.579   9.928  0.3573 -0.4364  0.1001
 7889SOL    HW127069   2.789   9.566   9.843 -1.3220  1.3401  0.6000
 7889SOL    HW227070   2.891   9.653   9.915  0.8937 -0.8344  0.2303
 7890SOL     OW27071   8.399   9.048   4.216  0.4509  0.4285 -0.2210
 7890SOL    HW127072   8.403   9.041   4.121  1.3129 -1.3352 -0.0867
 7890SOL    HW227073   8.328   9.111   4.232 -1.1948 -0.8542 -1.9978
 7891SOL     OW27074   0.824   0.030   6.556 -0.0924 -0.1012  0.7835
 7891SOL    HW127075   0.860   0.004   6.641  1.3911  0.3175  0.3104
 7891SOL    HW227076   0.775   0.110   6.574  0.4015  0.1063  1.1973
 7892SOL     OW27077   7.531   3.686   9.891  0.1510  0.0237 -0.1114
 7892SOL    HW127078   7.532   3.621   9.960 -1.6186  1.3186  1.2403
 7892SOL    HW227079   7.501   3.639   9.813 -0.2113 -0.9602  0.6057
 7893SOL     OW27080  10.307   7.966   0.311  0.3425  0.8452 -0.3818
 7893SOL    HW127081  10.359   7.895   0.273 -0.9471  0.1429 -0.8776
 7893SOL    HW227082  10.225   7.965   0.262  0.3111  2.7360 -0.4494
 7894SOL     OW27083   3.292   7.246   3.608  0.0518  0.2454 -0.1321
 7894SOL    HW127084   3.268   7.209   3.693 -2.4775  0.7782 -0.5195
 7894SOL    HW227085   3.288   7.171   3.548  0.9834  0.0304  0.0688
 7895SOL     OW27086   4.618   1.647   1.250 -1.0277 -0.2986 -0.1013
 7895SOL    HW127087   4.617   1.636   1.345 -0.1761 -1.6394 -0.2332
 7895SOL    HW227088   4.575   1.732   1.236  0.4317  0.7873  1.5788
 7896SOL     OW27089   0.406   2.994  10.217 -0.4445 -0.9797  0.5807
 7896SOL    HW127090   0.418   2.991  10.312 -1.3809  0.8874  0.8042
 7896SOL    HW227091   0.491   3.023  10.184 -0.1592 -1.4822  0.8604
 7897SOL     OW27092   8.932   3.316   4.287  0.4657 -0.5509 -0.6380
 7897SOL    HW127093   8.856   3.257   4.285  1.0833 -1.3510 -1.4366
 7897SOL    HW227094   8.895   3.403   4.274 -0.2172 -1.0545 -2.3446
 7898SOL     OW27095   7.091   3.557   8.234 -0.1533 -0.0585  0.1217
 7898SOL    HW127096   7.116   3.465   8.249 -1.6398 -0.2439  1.7075
 7898SOL    HW227097   7.096   3.567   8.139  0.4361 -1.6667 -0.0529
 7899SOL     OW27098   0.046   2.459   8.653  0.3634  0.0388 -0.0470
 7899SOL    HW127099   0.059   2.442   8.746 -1.5292  0.1956  0.2951
 7899SOL    HW227100   0.090   2.543   8.637  0.8963 -0.1041  0.6482
 7900SOL     OW27101   3.873  10.622   4.118 -0.0976  0.9198 -0.1632
 7900SOL    HW127102   3.939  10.653   4.179  0.7717  1.4836 -1.3482
 7900SOL    HW227103   3.798  10.598   4.173  1.2565 -0.2217  1.2547
 7901SOL     OW27104   1.243   3.899   0.904  0.1274 -0.4888  0.3242
 7901SOL    HW127105   1.228   3.807   0.924 -0.4042 -0.5899 -0.5005
 7901SOL    HW227106   1.326   3.900   0.856  0.2389 -0.5125  0.5161
 7902SOL     OW27107   4.343  10.763  10.914  1.1488 -0.2157 -0.2570
 7902SOL    HW127108   4.262  10.748  10.964  1.0634 -1.3023 -0.6925
 7902SOL    HW227109   4.412  10.733  10.973  1.2033  0.3055 -0.0529
 7903SOL     OW27110   5.014   9.187   8.845 -0.0563  0.2525 -0.2224
 7903SOL    HW127111   4.985   9.267   8.888  1.7586  0.7176  0.2429
 7903SOL    HW227112   5.105   9.204   8.822 -0.2894 -0.8450 -2.1934
 7904SOL     OW27113   7.533   4.959   6.566 -0.4164 -0.1494  0.0899
 7904SOL    HW127114   7.481   4.957   6.647  1.6107  0.4070  1.4972
 7904SOL    HW227115   7.561   5.051   6.559  0.2179 -0.3975 -0.7194
 7905SOL     OW27116   8.750   3.057  10.211 -0.1422 -0.5615 -0.1265
 7905SOL    HW127117   8.760   3.035  10.118 -0.6429  1.1283 -0.6094
 7905SOL    HW227118   8.828   3.107  10.232  0.0147 -1.0193  0.4059
 7906SOL     OW27119   8.152   3.654   7.848 -0.5406  0.0636 -0.4226
 7906SOL    HW127120   8.165   3.577   7.792 -2.2290  0.6675 -1.7138
 7906SOL    HW227121   8.240   3.693   7.854  0.3630 -1.9312  0.2982
 7907SOL     OW27122   4.372   6.188   1.080 -0.4282 -0.2737  0.3550
 7907SOL    HW127123   4.332   6.104   1.059 -0.2949 -0.4439  0.7782
 7907SOL    HW227124   4.462   6.181   1.049 -0.5589 -0.1028 -0.0674
 7908SOL     OW27125   4.134   3.342   9.882 -0.0815  0.1533 -0.2771
 7908SOL    HW127126   4.073   3.299   9.942 -0.0399  1.0901  0.4563
 7908SOL    HW227127   4.146   3.279   9.811 -1.2879 -0.3721 -0.0430
 7909SOL     OW27128   7.510  10.070  10.574 -0.1873  0.0174  0.1723
 7909SOL    HW127129   7.482  10.108  10.657  0.2365  0.3360  0.1679
 7909SOL    HW227130   7.499  10.140  10.510  0.1317 -0.0192  0.0776
 7910SOL     OW27131   7.079   9.383  10.233  0.6026 -0.1888 -0.1244
 7910SOL    HW127132   7.039   9.327  10.166 -0.1029 -0.5998  0.6150
 7910SOL    HW227133   7.013   9.388  10.302  0.3356  2.2046 -0.4800
 7911SOL     OW27134   3.546   6.727   2.496 -0.1297 -0.3449 -0.0529
 7911SOL    HW127135   3.488   6.668   2.543 -1.8315  1.2488 -0.0479
 7911SOL    HW227136   3.577   6.789   2.563  0.1936 -0.1443 -0.3833
 7912SOL     OW27137  10.560   9.032   7.599 -0.2177 -0.4566  0.2243
 7912SOL    HW127138  10.620   9.104   7.617  0.6919 -1.4742  1.3941
 7912SOL    HW227139  10.509   9.062   7.524  0.1248  1.4021  0.6815
 7913SOL     OW27140   9.297   6.453   4.061  0.4630  0.5003  0.0278
 7913SOL    HW127141   9.383   6.472   4.023  0.1455  0.7701 -0.5651
 7913SOL    HW227142   9.265   6.378   4.012  1.4249 -1.2431  1.9196
 7914SOL     OW27143   6.173   2.044   0.157  0.0491 -0.3084 -0.1009
 7914SOL    HW127144   6.245   2.020   0.099 -0.6465 -1.0352 -0.6882
 7914SOL    HW227145   6.189   2.135   0.180  1.6023 -0.6948  0.4386
 7915SOL     OW27146   7.477   0.376   3.725 -0.2623  0.2236 -0.0840
 7915SOL    HW127147   7.495   0.372   3.819 -0.5715  1.1333  0.0193
 7915SOL    HW227148   7.466   0.284   3.700 -1.3912  0.0131  1.0225
 7916SOL     OW27149   0.998   3.431   5.935  0.0201  0.1132 -0.3845
 7916SOL    HW127150   1.081   3.424   5.889 -0.9686  0.5375 -2.3685
 7916SOL    HW227151   1.002   3.515   5.981 -0.0395  1.1179 -2.1237
 7917SOL     OW27152  10.582   3.041   1.212  0.4320 -0.4170 -0.9495
 7917SOL    HW127153  10.494   3.080   1.221  1.2029  2.4140 -3.7867
 7917SOL    HW227154  10.632   3.079   1.284  0.1396  0.7211 -1.3279
 7918SOL     OW27155   3.100   6.952   9.755 -0.4215 -0.5819 -0.6489
 7918SOL    HW127156   3.156   6.944   9.832 -1.1068 -1.9295 -0.2618
 7918SOL    HW227157   3.025   7.003   9.784  0.1962  0.5451 -0.9597
 7919SOL     OW27158   5.066   5.526   1.364  0.0345 -0.3558 -0.5297
 7919SOL    HW127159   4.983   5.565   1.336  0.3445  0.7196 -0.0337
 7919SOL    HW227160   5.097   5.585   1.433  1.9414  0.1268 -1.7182
 7920SOL     OW27161  10.660   5.957   0.268  0.0541 -0.0710  0.1331
 7920SOL    HW127162  10.580   5.926   0.310  0.5701  0.2481  1.4066
 7920SOL    HW227163  10.712   5.878   0.254 -1.0552 -0.4833 -2.0716
 7921SOL     OW27164  10.423  10.196   6.029  0.8269 -0.6736 -0.0241
 7921SOL    HW127165  10.435  10.203   5.934  0.4072 -0.2318 -0.0502
 7921SOL    HW227166  10.347  10.251   6.048  0.4763 -1.3097  0.4771
 7922SOL     OW27167   4.540  10.027   6.212  0.4347 -0.8718 -0.1484
 7922SOL    HW127168   4.540  10.062   6.302 -0.3085 -1.2765  0.0108
 7922SOL    HW227169   4.484   9.950   6.216 -0.9143  0.0073 -1.3069
 7923SOL     OW27170   4.650   6.060   2.970 -0.0032  0.3932  0.2974
 7923SOL    HW127171   4.688   6.013   2.896 -1.2394 -1.1005  0.5693
 7923SOL    HW227172   4.576   6.108   2.933 -1.0689 -0.9274  0.6429
 7924SOL     OW27173   3.425   3.971   7.735 -0.8142 -0.1403  0.2242
 7924SOL    HW127174   3.520   3.979   7.739 -0.5316 -2.8679  1.0210
 7924SOL    HW227175   3.397   4.043   7.678  1.5402  1.5837  1.0951
 7925SOL     OW27176   4.181   0.304   7.405  0.2218  0.5713  0.1378
 7925SOL    HW127177   4.086   0.291   7.412  0.2083  0.9767  0.8835
 7925SOL    HW227178   4.218   0.217   7.423  0.0122  0.6122  0.8111
 7926SOL     OW27179   5.599   3.702   6.421 -0.1091  0.5246  0.5352
 7926SOL    HW127180   5.583   3.694   6.327 -0.9814 -0.4291  0.7515
 7926SOL    HW227181   5.573   3.618   6.458  0.6495  0.7206  1.5867
 7927SOL     OW27182   0.104   7.371  10.480  0.8894 -0.0349 -0.1374
 7927SOL    HW127183   0.157   7.400  10.406 -1.2689  1.1672 -1.3025
 7927SOL    HW227184   0.163   7.377  10.555  2.7098  0.1675 -1.5111
 7928SOL     OW27185   6.837   3.451   2.841 -0.5144  0.4390 -0.0698
 7928SOL    HW127186   6.821   3.532   2.792 -1.6961 -0.0768 -0.5912
 7928SOL    HW227187   6.759   3.397   2.824  0.3331 -0.8950  0.0880
 7929SOL     OW27188   4.878   0.042   2.188  0.2779  0.1474 -0.4669
 7929SOL    HW127189   4.805   0.019   2.245  0.1039 -0.3561 -0.8913
 7929SOL    HW227190   4.838   0.067   2.105  0.3890  2.8194  0.1876
 7930SOL     OW27191  10.495   8.588   4.471  0.0301  0.1224  0.3811
 7930SOL    HW127192  10.485   8.494   4.489  0.2895  0.0102 -0.0530
 7930SOL    HW227193  10.495   8.629   4.558 -0.7919 -0.2045  0.5467
 7931SOL     OW27194   8.179   6.903   5.120  0.2090 -0.0905 -0.4480
 7931SOL    HW127195   8.272   6.893   5.099  0.6454  2.1869  0.1521
 7931SOL    HW227196   8.171   6.993   5.151 -2.3786  0.0499 -1.3191
 7932SOL     OW27197  10.077   4.900   9.055 -0.7650  0.7114 -0.2453
 7932SOL    HW127198  10.050   4.823   9.105 -0.4637  0.4583 -0.4709
 7932SOL    HW227199   9.996   4.933   9.016 -1.4112  2.2095  2.1677
 7933SOL     OW27200   5.140   0.817  10.515 -0.0175 -0.2968  0.0807
 7933SOL    HW127201   5.093   0.871  10.580  0.7540  0.0747  0.3391
 7933SOL    HW227202   5.073   0.758  10.481 -0.1722 -1.4229  2.1721
 7934SOL     OW27203   6.695  10.494   8.800  0.3005  0.1015  0.1519
 7934SOL    HW127204   6.665  10.410   8.766  1.5896 -0.8418  1.1872
 7934SOL    HW227205   6.615  10.542   8.822 -0.4679 -0.5508 -1.1395
 7935SOL     OW27206  10.317   1.346   2.240  0.3021 -0.2584 -0.0736
 7935SOL    HW127207  10.312   1.388   2.154 -0.1241 -0.5934 -0.2144
 7935SOL    HW227208  10.236   1.371   2.284  1.0500  0.8981  0.6963
 7936SOL     OW27209   9.165   2.740   4.431  0.1150 -0.4738  0.5474
 7936SOL    HW127210   9.114   2.746   4.350  0.9294 -0.8911 -0.0058
 7936SOL    HW227211   9.151   2.651   4.462 -1.0164 -0.0162  1.4392
 7937SOL     OW27212   2.292   5.698   3.483 -0.3428 -0.3032 -0.5471
 7937SOL    HW127213   2.212   5.690   3.430 -0.7807 -1.9039  0.3042
 7937SOL    HW227214   2.272   5.768   3.545 -0.9343 -0.4142 -0.6031
 7938SOL     OW27215   2.380   3.013  10.463  0.0436 -0.1830 -0.4038
 7938SOL    HW127216   2.294   3.011  10.504  0.9558  3.4472  2.2104
 7938SOL    HW227217   2.430   2.944  10.508 -0.4422  0.3147  0.9413
 7939SOL     OW27218  10.538   8.566   1.868 -0.5207 -0.1280  0.0113
 7939SOL    HW127219  10.556   8.654   1.900 -0.1373  0.1927 -1.0420
 7939SOL    HW227220  10.475   8.579   1.797 -0.0014 -0.6403 -0.5470
 7940SOL     OW27221   7.772   6.603   2.286  0.1531  0.2323 -0.3618
 7940SOL    HW127222   7.736   6.688   2.312 -1.5623 -0.5047 -0.2090
 7940SOL    HW227223   7.775   6.552   2.367 -0.4840 -0.4196 -0.7391
 7941SOL     OW27224   9.422   1.167   6.994  0.3639  0.2955 -0.6877
 7941SOL    HW127225   9.445   1.091   7.046 -0.6359 -0.1980 -0.9537
 7941SOL    HW227226   9.489   1.170   6.925  0.7788  0.0486 -0.2998
 7942SOL     OW27227   0.672   9.954   2.111 -0.0178  0.4867 -0.3456
 7942SOL    HW127228   0.613  10.007   2.057  2.7798  2.6708 -1.5317
 7942SOL    HW227229   0.687  10.007   2.189 -0.9914 -0.9009  0.8297
 7943SOL     OW27230   2.274   8.081   4.517 -0.1730  0.6482  0.4364
 7943SOL    HW127231   2.246   8.165   4.553  0.7693  0.6998  1.0718
 7943SOL    HW227232   2.364   8.095   4.490  0.2975 -0.3932  1.3799
 7944SOL     OW27233   7.504   4.834   3.075 -0.6093 -0.0338 -0.5701
 7944SOL    HW127234   7.560   4.906   3.047 -1.3674  0.8576  0.1745
 7944SOL    HW227235   7.459   4.866   3.153 -0.2827 -1.6392  0.3190
 7945SOL     OW27236  10.323   2.629   8.997  0.4997  0.5587 -0.3835
 7945SOL    HW127237  10.396   2.648   8.938 -1.4877  3.6730 -2.1048
 7945SOL    HW227238  10.279   2.713   9.009 -2.6547 -1.1073  0.7837
 7946SOL     OW27239   6.992   2.699   3.437  0.4187  0.3042  0.0310
 7946SOL    HW127240   7.083   2.723   3.458  0.7462 -0.4726 -0.4705
 7946SOL    HW227241   6.991   2.604   3.442 -0.2143  0.2734 -0.6112
 7947SOL     OW27242   2.554   4.835   7.864  0.3784 -0.2404  0.2390
 7947SOL    HW127243   2.522   4.855   7.952  0.7193  0.0550  0.2999
 7947SOL    HW227244   2.483   4.864   7.806  0.4816  0.3017  0.3766
 7948SOL     OW27245  10.810   4.404   5.197  0.5055  0.0250  0.3140
 7948SOL    HW127246  10.882   4.456   5.160  0.0805  0.3677 -0.0448
 7948SOL    HW227247  10.816   4.418   5.291 -0.3400  1.7441  0.1574
 7949SOL     OW27248   6.346   9.144   9.941 -0.4031 -0.2998  0.4884
 7949SOL    HW127249   6.392   9.224   9.917 -1.3909  0.1952  0.1927
 7949SOL    HW227250   6.358   9.086   9.865 -2.5071  0.8213 -0.8008
 7950SOL     OW27251   1.843   3.336   6.498 -0.7861  0.6009  0.5919
 7950SOL    HW127252   1.890   3.337   6.582  0.3874  2.0344 -0.0368
 7950SOL    HW227253   1.750   3.333   6.523 -0.4624 -1.8490  1.8705
 7951SOL     OW27254   6.149   6.261   3.749  0.3380  0.0477  0.2701
 7951SOL    HW127255   6.097   6.319   3.804 -0.0909  0.1683 -0.2593
 7951SOL    HW227256   6.086   6.216   3.694  0.8213  0.5569 -0.7280
 7952SOL     OW27257   3.892   2.646   2.671  0.1909  0.1835 -0.0215
 7952SOL    HW127258   3.835   2.666   2.597  0.2711 -2.3443 -0.8615
 7952SOL    HW227259   3.845   2.580   2.721  1.9598 -1.4010 -0.3129
 7953SOL     OW27260   8.306   7.589   1.961 -0.5720  0.0970  0.1005
 7953SOL    HW127261   8.383   7.628   2.002 -0.9801  0.7684  0.2474
 7953SOL    HW227262   8.244   7.576   2.033 -0.2847 -1.2691  0.1368
 7954SOL     OW27263   7.417   7.577  10.876 -0.2472 -0.3431 -0.5135
 7954SOL    HW127264   7.344   7.556  10.934  0.9953 -0.6177  1.0140
 7954SOL    HW227265   7.433   7.671  10.889  2.3151 -1.0422  2.4670
 7955SOL     OW27266   2.463   1.139   0.859  0.0107 -0.3199 -0.0835
 7955SOL    HW127267   2.386   1.096   0.896  0.4993 -0.3069  0.9720
 7955SOL    HW227268   2.430   1.220   0.821 -0.4442 -0.1230  0.7129
 7956SOL     OW27269   5.931   9.264   3.670  0.6260 -0.0770 -0.0838
 7956SOL    HW127270   5.887   9.273   3.585 -2.3628 -0.9773  1.2535
 7956SOL    HW227271   5.960   9.353   3.691 -2.7785  1.1979 -0.0496
 7957SOL     OW27272   8.549   0.518   1.638  0.0146  0.4951  0.1555
 7957SOL    HW127273   8.615   0.586   1.652  0.0637  0.2261  1.3977
 7957SOL    HW227274   8.596   0.436   1.655 -0.2829  0.2134 -0.3782
 7958SOL     OW27275   3.437   5.607   7.481 -0.1273 -0.0320 -0.2340
 7958SOL    HW127276   3.527   5.592   7.450  0.3021  2.7504 -0.6369
 7958SOL    HW227277   3.397   5.658   7.410 -1.4281  0.3146  0.7318
 7959SOL     OW27278   4.477   9.088   2.985  0.2648  0.0289  0.3219
 7959SOL    HW127279   4.386   9.115   2.986  0.6324  1.4823 -0.9701
 7959SOL    HW227280   4.503   9.086   3.077 -0.2871  2.5134  0.5954
 7960SOL     OW27281   3.248   8.446   2.168  0.0635 -0.5247  0.0855
 7960SOL    HW127282   3.302   8.518   2.201  1.7789 -1.1612 -1.2117
 7960SOL    HW227283   3.262   8.447   2.073 -3.1288 -0.0061 -0.4949
 7961SOL     OW27284  10.243   0.189   1.409  0.1883 -0.2089  0.4711
 7961SOL    HW127285  10.192   0.270   1.419  1.5791  0.6268  1.0608
 7961SOL    HW227286  10.255   0.179   1.315 -0.0941  0.1924  0.3883
 7962SOL     OW27287   2.617   3.372  10.387  0.5443  0.2399 -0.3467
 7962SOL    HW127288   2.570   3.441  10.342  0.2690 -0.9110 -1.8928
 7962SOL    HW227289   2.566   3.355  10.466  0.5325  1.6495 -0.0182
 7963SOL     OW27290   2.336   4.425   7.464 -0.2138 -0.0970 -0.2640
 7963SOL    HW127291   2.285   4.403   7.543 -0.2010 -0.7957 -0.4448
 7963SOL    HW227292   2.308   4.514   7.442 -0.6144 -0.0954  0.2199
 7964SOL     OW27293   6.241   5.271   1.667  0.2905 -0.5481 -0.0147
 7964SOL    HW127294   6.331   5.244   1.648  0.2543 -1.1484  0.6517
 7964SOL    HW227295   6.190   5.233   1.596  0.4424 -0.9648  0.0982
 7965SOL     OW27296   1.714   1.939   5.365  0.5892  0.1173  0.1962
 7965SOL    HW127297   1.752   1.900   5.286  1.4275  0.1350  0.5837
 7965SOL    HW227298   1.742   1.882   5.436  0.2322  0.3702  0.5461
 7966SOL     OW27299   2.950   9.814   8.838 -0.1327 -0.3403 -0.6930
 7966SOL    HW127300   3.024   9.865   8.805 -0.2527  0.1729 -0.1863
 7966SOL    HW227301   2.908   9.779   8.760  0.7357 -0.7784 -0.9883
 7967SOL     OW27302   5.181   1.769   9.660 -0.4645  0.3231  0.5940
 7967SOL    HW127303   5.190   1.686   9.613  0.7188  0.8344 -0.1140
 7967SOL    HW227304   5.270   1.793   9.684 -0.6156  2.0941 -0.4445
 7968SOL     OW27305   1.249   6.047   6.925 -0.1076 -0.3814 -0.0063
 7968SOL    HW127306   1.318   5.989   6.958 -0.6089 -1.2508 -0.4393
 7968SOL    HW227307   1.296   6.118   6.882  0.5310 -0.1657  1.0094
 7969SOL     OW27308  10.775   2.892   9.543  0.0253 -0.2513 -0.3186
 7969SOL    HW127309  10.845   2.957   9.535 -0.3952  0.2277 -0.1802
 7969SOL    HW227310  10.724   2.921   9.618 -1.0026  0.0767 -1.1064
 7970SOL     OW27311   3.878   9.118   7.551 -0.1525 -0.2194  0.3957
 7970SOL    HW127312   3.837   9.115   7.637  0.3957  0.5018  0.6936
 7970SOL    HW227313   3.947   9.052   7.555 -0.5394 -0.6292  0.2913
 7971SOL     OW27314   1.977  10.055   9.271 -0.1121 -0.3694 -0.2921
 7971SOL    HW127315   1.953  10.093   9.356  0.2433 -0.9643  0.0830
 7971SOL    HW227316   1.966  10.127   9.209 -0.0684  0.1690  0.3076
 7972SOL     OW27317   2.905   1.773   2.744  0.2033 -0.0367 -0.6800
 7972SOL    HW127318   2.954   1.762   2.826 -0.2496  1.3366 -0.2031
 7972SOL    HW227319   2.961   1.831   2.692  0.3102 -0.6010 -1.1922
 7973SOL     OW27320   9.226   1.968  10.405 -0.3490  0.3930  0.2108
 7973SOL    HW127321   9.237   1.879  10.371 -0.0740  0.8657 -0.9865
 7973SOL    HW227322   9.301   2.016  10.371 -0.7681  1.2098  0.4287
 7974SOL     OW27323   0.111   0.451   0.412  0.7113  0.0312 -0.5760
 7974SOL    HW127324   0.139   0.531   0.368 -0.8139  0.2321 -1.2563
 7974SOL    HW227325   0.042   0.416   0.355  1.1115 -1.5874 -0.1174
 7975SOL     OW27326   6.518   3.650   7.128  0.0392  0.2332 -0.4016
 7975SOL    HW127327   6.587   3.611   7.073  0.2931  1.5934 -1.0878
 7975SOL    HW227328   6.555   3.650   7.216  0.1454 -0.7902 -0.4310
 7976SOL     OW27329   2.780   0.759  10.419  0.1185  0.1841  0.1557
 7976SOL    HW127330   2.870   0.730  10.410  0.6647  0.9623  2.3903
 7976SOL    HW227331   2.728   0.688  10.381  1.5603 -1.7133  1.5578
 7977SOL     OW27332   2.834   0.412   6.667 -0.4643  0.1013 -0.4470
 7977SOL    HW127333   2.801   0.483   6.723  0.5126 -0.3307  0.7245
 7977SOL    HW227334   2.848   0.453   6.582  1.4880  1.7545  0.5723
 7978SOL     OW27335   2.400   7.906  10.760  0.0069  0.4770 -0.1056
 7978SOL    HW127336   2.405   7.907  10.855 -2.0976  1.2397  0.0584
 7978SOL    HW227337   2.448   7.827  10.733  0.9261  0.4437  1.5327
 7979SOL     OW27338   1.344   8.430   4.927  0.2194  0.1008  0.0518
 7979SOL    HW127339   1.389   8.355   4.967  0.7448 -0.0609 -0.8176
 7979SOL    HW227340   1.259   8.432   4.971  0.8012 -0.0149  1.2281
 7980SOL     OW27341   0.624  10.133   5.447 -0.1664 -0.3270  0.5294
 7980SOL    HW127342   0.682  10.187   5.393 -0.9142  0.3433  0.3671
 7980SOL    HW227343   0.615  10.182   5.529  0.2800 -0.9149  0.9333
 7981SOL     OW27344   9.042   8.003   8.112  0.0839  0.1433  0.5280
 7981SOL    HW127345   9.110   8.008   8.179 -0.1199 -0.8056  0.8254
 7981SOL    HW227346   9.088   8.014   8.030  0.5561 -0.1551  0.7495
 7982SOL     OW27347   6.098   1.688   2.004  0.4177  0.0218  0.0282
 7982SOL    HW127348   6.130   1.777   2.020  2.3212 -0.6331  0.1769
 7982SOL    HW227349   6.016   1.700   1.957  0.1862  1.8630  0.8146
 7983SOL     OW27350   1.031   0.476   8.427  0.5476  0.0711 -0.5282
 7983SOL    HW127351   1.049   0.542   8.494 -1.6554 -1.1677  1.4242
 7983SOL    HW227352   0.941   0.494   8.398  0.8873 -0.4265 -2.0140
 7984SOL     OW27353   3.958   2.957   0.123 -0.0562  0.3810 -0.8436
 7984SOL    HW127354   3.968   2.872   0.081 -2.2149 -0.1451 -0.4038
 7984SOL    HW227355   4.006   2.950   0.205 -0.4392 -0.5204 -0.6931
 7985SOL     OW27356   5.548   9.929   0.928 -0.1850  0.1495  0.7778
 7985SOL    HW127357   5.531   9.836   0.939  0.4038 -0.0758 -0.1411
 7985SOL    HW227358   5.642   9.935   0.917 -0.2626  0.8177  0.4475
 7986SOL     OW27359   6.696   1.798   2.886 -0.0206  0.2193 -0.2244
 7986SOL    HW127360   6.780   1.806   2.930  0.5450 -3.1807 -0.4452
 7986SOL    HW227361   6.631   1.808   2.956  0.6497  0.2291  0.4065
 7987SOL     OW27362   3.657   6.054   9.240 -0.1006  0.4767  0.7269
 7987SOL    HW127363   3.723   6.101   9.292 -0.0108  0.6372  0.4765
 7987SOL    HW227364   3.583   6.115   9.235  0.3485  0.9686 -0.3289
 7988SOL     OW27365   4.873   2.848   8.937 -0.6651  0.4547 -0.2875
 7988SOL    HW127366   4.934   2.774   8.942 -1.1176  0.1049  0.0852
 7988SOL    HW227367   4.916   2.918   8.985  0.0992  0.6710 -1.2615
 7989SOL     OW27368   3.685   4.812   4.158  0.1976 -0.2696 -0.5412
 7989SOL    HW127369   3.654   4.766   4.081  1.1065 -1.7305 -0.0678
 7989SOL    HW227370   3.693   4.745   4.226 -0.0618  0.8786  0.6867
 7990SOL     OW27371  10.264   3.039   2.489  0.1455  0.1884  0.3777
 7990SOL    HW127372  10.354   3.072   2.497  0.1169 -0.0336  1.8285
 7990SOL    HW227373  10.260   2.964   2.548 -0.7321 -0.4163 -0.4158
 7991SOL     OW27374   4.091   2.222   5.102 -0.4563  0.8516  0.1522
 7991SOL    HW127375   4.048   2.249   5.021 -1.4364 -0.1482  0.3250
 7991SOL    HW227376   4.046   2.143   5.128  2.1920 -0.9372 -0.2563
 7992SOL     OW27377   4.468   4.503   3.652 -0.0725  0.0040 -0.0929
 7992SOL    HW127378   4.515   4.420   3.642  2.3267  1.0256  1.5802
 7992SOL    HW227379   4.499   4.557   3.579  1.0550  0.5053  0.7224
 7993SOL     OW27380   2.428  10.354   1.058  0.6083 -0.3992  0.1170
 7993SOL    HW127381   2.409  10.399   1.140 -2.0681  0.0778 -0.6647
 7993SOL    HW227382   2.350  10.367   1.005  1.7652 -1.7365 -2.0659
 7994SOL     OW27383   9.387   3.490  10.795  0.3012 -0.1566  0.3808
 7994SOL    HW127384   9.375   3.548  10.720 -0.3208  0.4174  0.9108
 7994SOL    HW227385   9.434   3.543  10.859  0.2642 -0.4329  0.6406
 7995SOL     OW27386   0.194   0.041   8.384  0.1475  0.1982 -0.1066
 7995SOL    HW127387   0.143  -0.039   8.396  1.0655 -0.3280  0.4538
 7995SOL    HW227388   0.136   0.111   8.412  0.1627 -0.5064  1.8579
 7996SOL     OW27389   2.262   6.573   7.871  0.4000  0.2081  0.3776
 7996SOL    HW127390   2.228   6.498   7.823  2.5709 -1.7619  1.7262
 7996SOL    HW227391   2.238   6.649   7.817  0.3010 -1.6274 -2.3391
 7997SOL     OW27392   8.837   2.407   9.858  0.0121 -0.4338  0.7628
 7997SOL    HW127393   8.826   2.352   9.781 -1.2551  0.8062  0.0113
 7997SOL    HW227394   8.799   2.357   9.930 -2.6855  0.0759 -0.2004
 7998SOL     OW27395   4.504   5.692   0.310  0.4900 -0.4165 -0.1006
 7998SOL    HW127396   4.555   5.737   0.376 -0.5537  0.9874 -0.2024
 7998SOL    HW227397   4.454   5.627   0.358 -0.0498  0.4076  0.4785
 7999SOL     OW27398   2.928   1.074   1.159 -0.1041 -0.1510 -0.3809
 7999SOL    HW127399   2.889   0.996   1.122 -1.2282 -0.8510  2.0623
 7999SOL    HW227400   2.878   1.091   1.239  2.3640  0.9695  1.0655
 8000SOL     OW27401   0.847   9.155   2.828 -0.1546 -0.3097  0.0340
 8000SOL    HW127402   0.844   9.063   2.853 -0.2870 -0.1361  0.6638
 8000SOL    HW227403   0.856   9.202   2.911 -3.5166  0.4530  0.1274
 8001SOL     OW27404   3.686   5.887   9.048  0.3967  0.1300 -0.3548
 8001SOL    HW127405   3.731   5.816   9.094 -0.9010 -0.7099 -0.3130
 8001SOL    HW227406   3.653   5.944   9.118 -1.3359 -0.9983 -0.1775
 8002SOL     OW27407   7.165   2.299   5.798  0.1550 -0.0941 -0.5301
 8002SOL    HW127408   7.106   2.373   5.783 -0.6784 -0.4174  0.9742
 8002SOL    HW227409   7.107   2.227   5.823  1.1312 -0.6522  0.1920
 8003SOL     OW27410   6.065   0.371   4.741  0.1050 -0.0703 -0.0780
 8003SOL    HW127411   6.107   0.451   4.710 -0.5401 -0.6102 -2.5792
 8003SOL    HW227412   6.067   0.312   4.666 -0.2860 -2.0863  1.4005
 8004SOL     OW27413   0.242   4.438   7.558  0.0374 -0.3939 -0.0546
 8004SOL    HW127414   0.198   4.378   7.497  0.3816 -0.5407 -0.1662
 8004SOL    HW227415   0.256   4.385   7.637 -0.7376 -0.0938  0.2969
 8005SOL     OW27416   6.775   9.384   9.685  0.4017 -0.6913  0.1231
 8005SOL    HW127417   6.842   9.452   9.687  0.3742 -0.6777  0.6050
 8005SOL    HW227418   6.824   9.302   9.679  0.4984 -0.7377  1.4030
 8006SOL     OW27419   7.748   8.083   2.579 -0.2255 -0.5782  0.1561
 8006SOL    HW127420   7.801   8.133   2.517  1.5286 -0.5703  1.5770
 8006SOL    HW227421   7.672   8.138   2.596  1.3269  1.3523  1.1583
 8007SOL     OW27422   2.127   7.306   6.126 -0.2297  0.3632  0.2315
 8007SOL    HW127423   2.059   7.316   6.060 -0.3949 -0.3795  0.2723
 8007SOL    HW227424   2.167   7.392   6.134 -0.8781  0.6991 -0.1082
 8008SOL     OW27425   3.648   1.154   4.229  0.2988 -0.0709 -0.1603
 8008SOL    HW127426   3.734   1.172   4.268  0.2244  0.8117 -0.3868
 8008SOL    HW227427   3.592   1.135   4.304 -0.1696  2.9215  0.3813
 8009SOL     OW27428   5.277   0.754   6.137 -0.0479 -0.9649 -0.3145
 8009SOL    HW127429   5.334   0.775   6.063  1.8166 -2.1089  0.7113
 8009SOL    HW227430   5.266   0.837   6.184 -0.2244 -0.4905 -1.1805
 8010SOL     OW27431   1.923   8.747   8.050  0.0842  0.1016 -0.6377
 8010SOL    HW127432   1.914   8.841   8.063  1.4864  0.1450  0.2214
 8010SOL    HW227433   2.011   8.726   8.081 -0.7095 -1.7289  0.5533
 8011SOL     OW27434   5.416   3.206   0.122 -0.0854  0.1278  0.3942
 8011SOL    HW127435   5.418   3.245   0.035  1.6568 -1.3465 -0.2749
 8011SOL    HW227436   5.463   3.123   0.113 -1.4752 -0.9655  2.3222
 8012SOL     OW27437   7.033  10.765   7.162  0.6634 -0.1436  0.2273
 8012SOL    HW127438   7.125  10.780   7.184  1.3041 -3.1063  0.0046
 8012SOL    HW227439   6.992  10.741   7.245  0.5526 -0.7563 -0.0034
 8013SOL     OW27440   7.321   5.608  10.171 -0.0990  0.0683 -0.0217
 8013SOL    HW127441   7.249   5.550  10.148 -1.1734  1.7779 -1.1924
 8013SOL    HW227442   7.332   5.598  10.266 -0.8162 -1.3745 -0.0794
 8014SOL     OW27443   7.509   6.505   8.462  0.1354  0.0917 -0.2088
 8014SOL    HW127444   7.483   6.415   8.485  2.1204 -0.3337  0.5438
 8014SOL    HW227445   7.598   6.496   8.429  0.6707  1.8933  0.6482
 8015SOL     OW27446   6.615   7.576   9.610  0.1003  0.1901 -0.0440
 8015SOL    HW127447   6.548   7.513   9.583  0.0295  0.2696 -0.0544
 8015SOL    HW227448   6.630   7.629   9.532 -0.0084  0.3344  0.0321
 8016SOL     OW27449   2.826   9.292   8.267  0.3216 -0.9985  0.4809
 8016SOL    HW127450   2.830   9.386   8.286  0.0375 -1.2988  2.2577
 8016SOL    HW227451   2.811   9.286   8.173 -1.5120  0.7632  0.6101
 8017SOL     OW27452   6.567   1.058   0.633 -0.3607  0.6992  0.7074
 8017SOL    HW127453   6.505   0.994   0.601 -0.5163  0.8898  0.6253
 8017SOL    HW227454   6.575   1.122   0.562  0.6435  0.1769  0.3419
 8018SOL     OW27455   7.897   5.756   9.950 -0.1409 -0.3102  0.3027
 8018SOL    HW127456   7.881   5.677  10.003  0.8648 -0.9031 -0.2551
 8018SOL    HW227457   7.951   5.725   9.877 -0.1045  0.8217 -0.1588
 8019SOL     OW27458   4.146   1.475   5.146 -0.2945 -0.4953  0.7181
 8019SOL    HW127459   4.153   1.390   5.189  0.1723 -0.2059  1.2482
 8019SOL    HW227460   4.170   1.459   5.055 -0.7574 -1.0260  0.6891
 8020SOL     OW27461   6.149  10.182   9.478  0.1218  0.2512  0.6914
 8020SOL    HW127462   6.151  10.228   9.562  0.8650  1.1286  0.2169
 8020SOL    HW227463   6.241  10.171   9.455 -0.0462 -1.1796  0.6115
 8021SOL     OW27464   4.510   2.933   3.027 -0.3213  0.1558 -0.8924
 8021SOL    HW127465   4.509   3.027   3.008  0.1034  0.1580 -0.9282
 8021SOL    HW227466   4.418   2.908   3.032 -0.4440  0.8340  0.4692
 8022SOL     OW27467   9.644   2.417   4.715 -0.2144 -0.1926  0.0979
 8022SOL    HW127468   9.584   2.363   4.765  1.9426 -1.4197  1.5359
 8022SOL    HW227469   9.594   2.445   4.638 -1.9662 -2.7445  0.2132
 8023SOL     OW27470  10.119   9.247  10.814  0.2797  0.7766  0.1821
 8023SOL    HW127471  10.212   9.227  10.812  0.4058  1.3779 -0.0992
 8023SOL    HW227472  10.090   9.219  10.901 -0.2076 -3.4172 -1.1228
 8024SOL     OW27473   2.768   9.239   9.418  0.5123 -0.6960 -0.0031
 8024SOL    HW127474   2.681   9.251   9.380  1.1612  1.6840 -0.9198
 8024SOL    HW227475   2.781   9.144   9.417 -1.2417 -1.0011 -1.7515
 8025SOL     OW27476   8.484   9.857   7.080 -0.0958  0.0327 -0.2258
 8025SOL    HW127477   8.400   9.902   7.090 -0.5348 -0.7619 -0.2475
 8025SOL    HW227478   8.549   9.926   7.085 -0.7994  0.8059 -1.3018
 8026SOL     OW27479   0.570   2.764   3.231 -0.2107 -0.1570  0.0824
 8026SOL    HW127480   0.522   2.748   3.150 -1.6930  1.0485  0.6724
 8026SOL    HW227481   0.662   2.751   3.208 -0.7673 -2.3602 -1.1289
 8027SOL     OW27482   5.371   8.179   2.419 -0.2226  0.1006  0.7055
 8027SOL    HW127483   5.350   8.087   2.437 -1.4976  0.0007 -1.0969
 8027SOL    HW227484   5.378   8.184   2.324  1.9900  1.4615  0.8622
 8028SOL     OW27485   0.879   9.642  10.667 -0.1301  0.4400 -0.0766
 8028SOL    HW127486   0.843   9.577  10.729  0.2647 -1.8457 -2.0809
 8028SOL    HW227487   0.950   9.683  10.715 -1.0146  0.0975  1.6174
 8029SOL     OW27488   5.698   9.413   3.742 -0.3761 -0.1796  0.1399
 8029SOL    HW127489   5.750   9.492   3.755 -2.4385  1.0594  1.5858
 8029SOL    HW227490   5.731   9.351   3.807  0.2677  0.0267  0.0111
 8030SOL     OW27491   5.428   9.437   3.837 -0.3715  0.3951  0.7161
 8030SOL    HW127492   5.514   9.419   3.799 -0.8216  1.4266 -0.8848
 8030SOL    HW227493   5.445   9.446   3.931  0.8087 -2.0983  0.8310
 8031SOL     OW27494   3.340  10.244   7.239 -0.3418  0.0107 -0.3488
 8031SOL    HW127495   3.315  10.198   7.318 -3.5096  0.5867 -0.9014
 8031SOL    HW227496   3.420  10.291   7.263  1.1901 -3.0716  1.1515
 8032SOL     OW27497   5.928   9.941  10.702 -0.5230  0.4030  0.1699
 8032SOL    HW127498   5.962   9.999  10.770 -0.0617 -1.0038  1.1846
 8032SOL    HW227499   5.963   9.855  10.724  0.1894 -0.0050 -2.2186
 8033SOL     OW27500   9.818   0.302   2.377 -0.0599  0.0479 -0.2180
 8033SOL    HW127501   9.901   0.342   2.402 -0.8953  1.9384 -0.3614
 8033SOL    HW227502   9.751   0.361   2.411 -1.3305 -0.5804 -1.5136
 8034SOL     OW27503   3.554   3.337   1.157  0.6446 -0.1422  0.1396
 8034SOL    HW127504   3.552   3.335   1.252 -1.9252  2.5743  0.2664
 8034SOL    HW227505   3.621   3.402   1.135  0.5744 -0.0769  0.1184
 8035SOL     OW27506  10.220   7.865   7.184 -0.1335 -0.0909  0.2314
 8035SOL    HW127507  10.223   7.818   7.267 -0.6628 -0.2483  0.1647
 8035SOL    HW227508  10.127   7.886   7.171  0.0970  1.0525  0.3043
 8036SOL     OW27509   4.565   1.677   4.288 -0.1707  0.1256  0.5979
 8036SOL    HW127510   4.581   1.674   4.194  3.0362 -0.0497  1.0189
 8036SOL    HW227511   4.526   1.592   4.309 -0.6124  0.0420 -0.5050
 8037SOL     OW27512   5.536   1.226   3.632 -0.4506  0.0345 -0.5071
 8037SOL    HW127513   5.455   1.273   3.653 -0.3366 -0.2448  0.5833
 8037SOL    HW227514   5.528   1.206   3.539 -1.4410  0.3849 -0.5088
 8038SOL     OW27515   5.321   1.228   2.676  0.9928 -0.3940 -0.2833
 8038SOL    HW127516   5.384   1.160   2.701 -0.6134 -1.8065  0.0960
 8038SOL    HW227517   5.243   1.180   2.649 -0.1722  1.3058 -0.0996
 8039SOL     OW27518   0.988   9.186   0.207 -0.0905 -0.2849 -0.0106
 8039SOL    HW127519   1.043   9.158   0.280  0.4578  0.7603 -0.0044
 8039SOL    HW227520   0.953   9.271   0.235 -0.7047 -0.3549 -0.5382
 8040SOL     OW27521   9.862   1.225   1.219 -0.5754 -0.1089 -0.6190
 8040SOL    HW127522   9.838   1.271   1.299 -1.4173  1.2454 -1.6096
 8040SOL    HW227523   9.900   1.143   1.250 -0.7331  0.4321  1.1644
 8041SOL     OW27524   5.299   5.339   8.536  1.0280 -0.3762  0.3648
 8041SOL    HW127525   5.217   5.384   8.519  2.0653  1.7787  0.7775
 8041SOL    HW227526   5.281   5.282   8.610  0.0086  0.3699  0.7018
 8042SOL     OW27527   3.066   3.287   3.956  0.3848  0.1887  0.5922
 8042SOL    HW127528   3.074   3.275   4.050  1.8506 -0.9144  0.3739
 8042SOL    HW227529   3.153   3.264   3.922 -0.0554  0.7677 -0.9997
 8043SOL     OW27530   0.870   4.835   3.415  0.5155 -0.2437 -0.1320
 8043SOL    HW127531   0.807   4.905   3.399 -0.5434 -1.0068  0.6019
 8043SOL    HW227532   0.952   4.867   3.377 -0.0929  1.1379 -0.3178
 8044SOL     OW27533   0.542  10.788   9.096 -0.0265 -0.3762  0.2997
 8044SOL    HW127534   0.477  10.856   9.078  0.8611  0.2532 -0.6035
 8044SOL    HW227535   0.569  10.757   9.010  0.8850 -0.6096  0.6522
 8045SOL     OW27536   4.956   7.103   3.753  0.0719  0.4813 -0.0857
 8045SOL    HW127537   4.932   7.086   3.844  0.6781  0.8871  0.1594
 8045SOL    HW227538   4.999   7.023   3.724 -0.0275  0.3890  0.0191
 8046SOL     OW27539   3.207  10.857   6.947  0.5248  0.1998 -0.2880
 8046SOL    HW127540   3.128  10.804   6.955  0.7973 -0.0844  0.6756
 8046SOL    HW227541   3.272  10.810   6.999  1.5507  0.0320 -1.6518
 8047SOL     OW27542   7.816   9.085   2.449 -0.1359  0.6486 -0.2692
 8047SOL    HW127543   7.740   9.142   2.439 -0.5233  0.2026  0.1016
 8047SOL    HW227544   7.873   9.131   2.512 -0.1266  0.9520 -0.5002
 8048SOL     OW27545  10.162   0.044   6.683  0.7646  0.0237 -0.1661
 8048SOL    HW127546  10.225   0.114   6.668  0.9579 -0.4980 -2.2539
 8048SOL    HW227547  10.208  -0.035   6.653 -0.5338 -0.5054 -0.8235
 8049SOL     OW27548   4.781   8.367  10.185 -0.1702  0.0601  0.2794
 8049SOL    HW127549   4.832   8.402  10.258 -0.9776  1.3667  0.2508
 8049SOL    HW227550   4.822   8.404  10.107 -0.5339  0.2665  0.1889
 8050SOL     OW27551   4.073  10.681   5.579 -0.2068  0.4555  0.7076
 8050SOL    HW127552   4.061  10.586   5.579  0.3496  0.3812  1.0950
 8050SOL    HW227553   4.101  10.701   5.490  0.9087  0.0863  0.9598
 8051SOL     OW27554   2.617   8.957   7.481  0.2083 -0.5012  0.2489
 8051SOL    HW127555   2.653   8.996   7.402 -0.6332  0.4551  0.3212
 8051SOL    HW227556   2.686   8.898   7.512  1.6130  1.0441  0.2247
 8052SOL     OW27557   5.331   4.392   7.084 -0.3827 -0.0226 -0.0918
 8052SOL    HW127558   5.352   4.364   7.173 -0.6041  0.6523  0.1741
 8052SOL    HW227559   5.235   4.391   7.081 -0.3964  0.8980 -0.0196
 8053SOL     OW27560   8.290   6.927   9.955  0.1762  0.2365 -0.2219
 8053SOL    HW127561   8.199   6.901   9.969  0.1582  1.0920  1.5516
 8053SOL    HW227562   8.340   6.868  10.011  0.8132 -0.7128 -1.7401
 8054SOL     OW27563   3.236   9.769   1.584 -0.2303  0.3083  0.8562
 8054SOL    HW127564   3.331   9.777   1.590 -0.2524  0.2369  1.2922
 8054SOL    HW227565   3.219   9.676   1.598 -0.1469 -0.2610 -2.0772
 8055SOL     OW27566  10.155   7.536   2.632  0.4955 -0.1925  0.1454
 8055SOL    HW127567  10.129   7.586   2.710 -0.2020 -0.2177 -0.0643
 8055SOL    HW227568  10.156   7.445   2.661  2.4994 -0.0295  0.7298
 8056SOL     OW27569   0.499   3.772   1.856 -0.3709  0.0164 -0.1688
 8056SOL    HW127570   0.424   3.716   1.837  0.6958 -0.6403 -2.9820
 8056SOL    HW227571   0.573   3.730   1.811  1.4478  1.3007  1.4213
 8057SOL     OW27572   1.834   6.753   2.947 -0.0478  0.6577 -0.3614
 8057SOL    HW127573   1.753   6.786   2.909 -0.5045 -0.3905 -0.3374
 8057SOL    HW227574   1.806   6.702   3.023  0.7662  1.7778  0.7445
 8058SOL     OW27575   1.351   5.968   5.484 -0.6212 -0.2070  0.0533
 8058SOL    HW127576   1.339   6.058   5.452 -1.5214 -0.2567  0.2255
 8058SOL    HW227577   1.424   5.974   5.545 -0.3670  0.3188 -0.2929
 8059SOL     OW27578   3.143   7.277   9.956  0.6981  0.3073  0.2148
 8059SOL    HW127579   3.085   7.354   9.961 -0.3881 -0.4998  0.4448
 8059SOL    HW227580   3.119   7.224  10.032  2.7092  0.5801  1.1154
 8060SOL     OW27581   2.272   8.083   5.075  0.3165  0.0968  0.4165
 8060SOL    HW127582   2.366   8.065   5.087  0.0978 -1.2202  0.3335
 8060SOL    HW227583   2.249   8.034   4.996 -0.5591 -0.0250  0.7422
 8061SOL     OW27584   3.117  10.206   4.828 -0.3166 -0.3590 -0.5349
 8061SOL    HW127585   3.098  10.300   4.821  1.5330  0.0081 -1.1433
 8061SOL    HW227586   3.168  10.198   4.908 -0.3633 -0.8288 -0.5518
 8062SOL     OW27587   4.404   3.014   7.423  0.1396  0.4422  0.3494
 8062SOL    HW127588   4.446   3.091   7.385 -0.0763  0.6488  0.5246
 8062SOL    HW227589   4.395   3.034   7.516  2.3179 -0.7890  0.8915
 8063SOL     OW27590   4.902   8.124   1.811 -0.0978 -0.1053 -0.2555
 8063SOL    HW127591   4.956   8.171   1.747 -1.9223  0.4244 -1.4649
 8063SOL    HW227592   4.929   8.160   1.896  0.4441  1.1921 -0.9427
 8064SOL     OW27593   1.319  10.354   2.661 -0.2827 -0.0575  0.6578
 8064SOL    HW127594   1.358  10.441   2.652 -1.0143  0.3411  1.2009
 8064SOL    HW227595   1.376  10.296   2.612 -0.6392  0.9760 -1.0360
 8065SOL     OW27596   2.254   1.936   1.137  0.7509  0.2671 -0.0522
 8065SOL    HW127597   2.199   1.862   1.162  0.7653  0.4713  0.5954
 8065SOL    HW227598   2.234   2.004   1.200  1.6282  0.4000  0.1010
 8066SOL     OW27599  10.517   4.897   2.279  0.3039  0.4829  0.5319
 8066SOL    HW127600  10.545   4.814   2.240 -1.8323  0.8022 -1.9731
 8066SOL    HW227601  10.485   4.873   2.366  1.1711 -1.0467  0.4636
 8067SOL     OW27602   6.888   2.413   7.442  0.1993 -0.0291  0.2025
 8067SOL    HW127603   6.904   2.332   7.491 -2.1104 -1.1479 -0.7620
 8067SOL    HW227604   6.910   2.391   7.352 -3.3911 -0.7238 -0.6474
 8068SOL     OW27605  10.534   3.756   5.351 -0.4284  0.3450 -0.2781
 8068SOL    HW127606  10.621   3.788   5.329 -0.5292  0.1067 -1.0448
 8068SOL    HW227607  10.522   3.678   5.297 -0.7836 -0.1215  0.4480
 8069SOL     OW27608   3.652   9.690  10.375  0.0556 -0.2360 -0.5856
 8069SOL    HW127609   3.686   9.773  10.408  1.4090 -0.4742 -1.3255
 8069SOL    HW227610   3.669   9.693  10.281 -0.5385 -1.0503 -0.7246
 8070SOL     OW27611   3.639   6.408   0.469 -0.5027 -0.3175  0.6630
 8070SOL    HW127612   3.614   6.348   0.399  2.4939  0.2989 -1.1159
 8070SOL    HW227613   3.572   6.477   0.466  0.0287  0.2104 -2.3917
 8071SOL     OW27614   0.953   3.370   5.351  0.7629 -0.1730  0.0706
 8071SOL    HW127615   1.019   3.411   5.295 -0.4539  1.2655 -0.3869
 8071SOL    HW227616   0.956   3.277   5.329  1.1907  0.1781 -1.4544
 8072SOL     OW27617   7.358   0.802   0.818  0.7339 -0.1559  0.4593
 8072SOL    HW127618   7.408   0.848   0.885 -0.2235  0.4229  0.7997
 8072SOL    HW227619   7.270   0.841   0.822  0.7042  0.0342 -1.2601
 8073SOL     OW27620   9.881   1.933   2.556  0.6070 -0.2258  0.1365
 8073SOL    HW127621   9.952   1.882   2.518  0.1757 -0.6765 -0.0858
 8073SOL    HW227622   9.908   1.949   2.646  0.6061 -1.1452  0.3119
 8074SOL     OW27623   0.246   7.723  10.632  0.1833 -0.0549 -0.2220
 8074SOL    HW127624   0.295   7.745  10.553  0.0703  0.4234 -0.1596
 8074SOL    HW227625   0.283   7.640  10.661  0.7417  0.1498 -0.3472
 8075SOL     OW27626   8.123  10.221   9.888 -0.0606  0.0034 -0.0866
 8075SOL    HW127627   8.162  10.211   9.975 -3.2764 -1.9691  1.2875
 8075SOL    HW227628   8.179  10.169   9.831  0.5810 -0.9384  1.3453
 8076SOL     OW27629   8.130   9.461   8.768 -0.2543  0.1902  0.4085
 8076SOL    HW127630   8.110   9.494   8.681  0.0035 -1.2066 -0.2153
 8076SOL    HW227631   8.218   9.494   8.788 -0.6783  1.2570  0.5368
 8077SOL     OW27632   4.357   5.573   4.923  0.5907 -0.1371  0.4149
 8077SOL    HW127633   4.413   5.642   4.959 -0.8718 -0.2223  3.1599
 8077SOL    HW227634   4.294   5.619   4.868  1.8947  0.2233 -0.8154
 8078SOL     OW27635   3.988   9.255   9.838  0.3740 -0.4301  0.1923
 8078SOL    HW127636   3.995   9.346   9.866 -0.1181 -0.1676 -0.5131
 8078SOL    HW227637   3.896   9.244   9.813  0.7601 -0.6674 -1.2245
 8079SOL     OW27638   4.735   6.384  10.501 -0.3274  0.1312 -0.0532
 8079SOL    HW127639   4.781   6.322  10.558 -0.9226  0.0156  0.3145
 8079SOL    HW227640   4.668   6.331  10.458 -0.4455  0.3976 -0.1992
 8080SOL     OW27641   1.296   0.925   4.668 -0.6684  0.0400 -0.0654
 8080SOL    HW127642   1.208   0.958   4.687 -0.2688  0.3988  1.2450
 8080SOL    HW227643   1.355   0.995   4.693  0.0704 -0.7673  0.5209
 8081SOL     OW27644   8.992   7.230   5.484 -0.2192 -0.2486  0.3539
 8081SOL    HW127645   8.970   7.227   5.577 -0.9675 -1.4953  0.1605
 8081SOL    HW227646   9.084   7.256   5.482  0.2874 -1.8078  1.5420
 8082SOL     OW27647   5.098   7.779   3.117 -0.0514 -0.2059 -0.3171
 8082SOL    HW127648   5.144   7.718   3.059  0.1264  0.8429 -1.3153
 8082SOL    HW227649   5.098   7.735   3.202  0.7848 -1.2358 -0.8193
 8083SOL     OW27650  10.462   8.032   9.666  0.2065  0.4211 -0.0272
 8083SOL    HW127651  10.536   8.093   9.670  1.2770 -0.7751 -0.8243
 8083SOL    HW227652  10.445   8.022   9.572 -0.8249  0.4942  0.1397
 8084SOL     OW27653   7.536   6.725   4.011 -0.1353  0.5699 -0.5453
 8084SOL    HW127654   7.519   6.811   4.049  0.0103  0.5570 -0.4475
 8084SOL    HW227655   7.595   6.683   4.074 -0.6236  0.1996 -0.3278
 8085SOL     OW27656  10.527  10.414   2.509 -0.2435 -0.4333 -0.1707
 8085SOL    HW127657  10.534  10.496   2.558 -1.2460 -2.0733  3.0900
 8085SOL    HW227658  10.436  10.412   2.479 -0.5259 -0.7149  0.6465
 8086SOL     OW27659   9.860   8.217   4.399 -0.1109 -0.6881  0.0589
 8086SOL    HW127660   9.790   8.228   4.335  0.0622 -0.3366 -0.0702
 8086SOL    HW227661   9.919   8.153   4.359  0.2134 -0.1639 -0.3261
 8087SOL     OW27662   5.473  10.656   2.938 -0.1734 -0.0667 -0.9479
 8087SOL    HW127663   5.413  10.709   2.990  0.4658  1.8137 -2.0229
 8087SOL    HW227664   5.537  10.622   3.001 -2.0098 -1.7188  0.1370
 8088SOL     OW27665   4.588   5.167   0.235 -0.0630  0.0434 -0.7067
 8088SOL    HW127666   4.578   5.228   0.308  0.2159  0.8279 -1.3034
 8088SOL    HW227667   4.515   5.106   0.244  0.7032 -0.6876  0.9773
 8089SOL     OW27668   7.513   6.213   2.306 -0.4273  0.7723  0.6050
 8089SOL    HW127669   7.444   6.228   2.241 -1.0870 -2.2553  0.4569
 8089SOL    HW227670   7.466   6.203   2.389 -0.0016  0.4216  0.8097
 8090SOL     OW27671   0.869   2.170   9.839  0.6190  0.0405 -0.0317
 8090SOL    HW127672   0.882   2.194   9.931 -0.4498 -0.1850  0.1967
 8090SOL    HW227673   0.938   2.216   9.792  0.4072  1.1744  0.7330
 8091SOL     OW27674   9.277   8.781   2.110 -0.1094 -0.2970  0.6849
 8091SOL    HW127675   9.316   8.865   2.083 -0.6820 -0.3170 -0.2644
 8091SOL    HW227676   9.253   8.794   2.201 -1.2779  1.0026  0.2322
 8092SOL     OW27677   8.747   9.111   9.825  0.2886  0.5340  0.3948
 8092SOL    HW127678   8.827   9.138   9.781  0.8400 -1.1326  0.2964
 8092SOL    HW227679   8.677   9.140   9.768  0.9389 -0.2495 -0.8436
 8093SOL     OW27680   0.540   5.683   1.299 -0.4077 -0.2782  0.1456
 8093SOL    HW127681   0.496   5.603   1.328  1.5957 -1.2653  0.6412
 8093SOL    HW227682   0.633   5.660   1.297  0.1062  1.6567 -1.0110
 8094SOL     OW27683   1.308   2.518   1.757 -0.2668  0.2081 -0.1330
 8094SOL    HW127684   1.341   2.600   1.720 -0.5940  0.6341  0.5120
 8094SOL    HW227685   1.220   2.539   1.788 -0.5100 -0.4926 -0.3312
 8095SOL     OW27686   5.345   4.765   4.285  0.3045  0.3750  0.8105
 8095SOL    HW127687   5.271   4.784   4.227  1.4570  2.7213 -0.0121
 8095SOL    HW227688   5.324   4.811   4.366  0.6567  0.7026  0.7182
 8096SOL     OW27689   0.849   0.468   2.737 -0.3962 -0.2271  0.0264
 8096SOL    HW127690   0.790   0.405   2.695 -0.3980 -0.9671  1.0882
 8096SOL    HW227691   0.936   0.433   2.721 -0.4393 -1.0255  1.3844
 8097SOL     OW27692   0.886  10.907   0.874  0.1052 -0.1736 -0.4820
 8097SOL    HW127693   0.802  10.873   0.903  0.1312  0.3516  0.2404
 8097SOL    HW227694   0.909  10.854   0.797 -0.4888 -0.8561 -0.1930
 8098SOL     OW27695  10.441   8.294   8.927 -0.2126 -0.6567  0.1105
 8098SOL    HW127696  10.534   8.317   8.927 -0.4395  0.3157  0.2113
 8098SOL    HW227697  10.411   8.313   9.016 -0.5558 -0.7725  0.0225
 8099SOL     OW27698   3.039   7.501   3.295 -0.4372  0.3137  0.1112
 8099SOL    HW127699   3.104   7.550   3.345  1.2192 -2.1990  0.6262
 8099SOL    HW227700   3.068   7.507   3.204  0.9476 -1.2655  0.4025
 8100SOL     OW27701   5.515  10.638   4.654  0.3267 -0.2171 -0.0518
 8100SOL    HW127702   5.542  10.700   4.722 -1.3563  1.0358 -0.4625
 8100SOL    HW227703   5.591  10.582   4.641  1.2784  0.6113  1.6329
 8101SOL     OW27704   2.773   9.205  10.256 -0.2036 -0.4623 -0.1502
 8101SOL    HW127705   2.777   9.130  10.197  0.7358  1.3536 -2.5760
 8101SOL    HW227706   2.706   9.261  10.219  1.4592  1.4362 -0.4747
 8102SOL     OW27707   3.395   3.335  10.408  0.0752  0.2549  0.4173
 8102SOL    HW127708   3.380   3.408  10.349  0.8396 -1.6117 -2.2652
 8102SOL    HW227709   3.311   3.288  10.410  0.5155 -0.6044 -0.5825
 8103SOL     OW27710   2.605   8.507   7.021 -0.3709 -0.3892  0.1775
 8103SOL    HW127711   2.521   8.501   6.975 -0.5516  1.6901  0.1646
 8103SOL    HW227712   2.596   8.582   7.079  1.6793  0.2562 -0.2507
 8104SOL     OW27713   0.224   9.788   7.010 -0.0493  0.5416  0.0929
 8104SOL    HW127714   0.233   9.793   7.105 -1.1244 -1.6209  0.3707
 8104SOL    HW227715   0.308   9.755   6.979 -0.3511 -0.7303  0.5550
 8105SOL     OW27716   3.034   5.850   9.247  0.3311  0.1154 -0.5095
 8105SOL    HW127717   3.052   5.817   9.335 -0.7683 -1.4477 -0.8411
 8105SOL    HW227718   3.121   5.874   9.213  0.7405  0.9801  1.0649
 8106SOL     OW27719   0.047   9.598   0.987  0.6879  0.7140  0.0896
 8106SOL    HW127720  -0.012   9.583   0.913  0.6683 -0.0236  0.2417
 8106SOL    HW227721  -0.011   9.620   1.060  0.4029 -1.7290  0.6890
 8107SOL     OW27722   7.316  10.670  10.259  0.4528 -0.0698 -0.2483
 8107SOL    HW127723   7.283  10.753  10.223  0.5638  0.0678 -0.0393
 8107SOL    HW227724   7.273  10.602  10.207 -1.7890  0.0304  1.3524
 8108SOL     OW27725   0.596   8.467   4.779  0.4818  0.1129  0.3999
 8108SOL    HW127726   0.547   8.468   4.697  1.3063 -1.3223 -0.1388
 8108SOL    HW227727   0.539   8.424   4.842  0.8626 -1.1963 -0.1240
 8109SOL     OW27728   6.047   1.486   6.289 -0.6069  0.2095  0.2992
 8109SOL    HW127729   6.020   1.429   6.361  1.0069  0.3775  1.0757
 8109SOL    HW227730   5.983   1.556   6.288 -1.8948 -0.9213  0.1484
 8110SOL     OW27731   4.241   7.098   6.806 -0.3235  0.0188  0.0721
 8110SOL    HW127732   4.173   7.160   6.833  0.2827 -0.1663  2.1987
 8110SOL    HW227733   4.323   7.142   6.826  0.1260 -1.0736  0.7165
 8111SOL     OW27734   0.003   5.613   3.120 -0.0277 -0.3902  0.6780
 8111SOL    HW127735   0.062   5.538   3.110  0.9739  0.4187  0.2446
 8111SOL    HW227736  -0.009   5.646   3.030  2.8944  2.3793  1.0791
 8112SOL     OW27737  10.184   9.774   4.608  0.0746  0.2766  0.5781
 8112SOL    HW127738  10.186   9.781   4.513 -0.4499  1.6358  0.6429
 8112SOL    HW227739  10.240   9.845   4.639  1.8688 -1.3530  1.2975
 8113SOL     OW27740   0.202   7.805   7.888  0.3928  0.3223 -0.6679
 8113SOL    HW127741   0.271   7.750   7.924  0.7276  1.7418  0.9772
 8113SOL    HW227742   0.137   7.743   7.854  1.8485 -1.0419 -1.0980
 8114SOL     OW27743   3.759   9.693   2.691  0.6913 -0.3954 -0.4509
 8114SOL    HW127744   3.738   9.739   2.610 -1.1300  1.4145  0.9243
 8114SOL    HW227745   3.731   9.603   2.676  0.7309 -0.1789 -1.9513
 8115SOL     OW27746   4.498   7.352   4.893 -0.0679 -0.3089  0.5325
 8115SOL    HW127747   4.449   7.376   4.971 -1.1349 -0.9053  0.0700
 8115SOL    HW227748   4.501   7.256   4.895 -1.3698 -0.4247 -0.8630
 8116SOL     OW27749   3.127   4.903   9.089 -0.2324  0.1215 -0.6002
 8116SOL    HW127750   3.100   4.918   8.998 -1.1740  0.8697 -0.2071
 8116SOL    HW227751   3.222   4.892   9.084  0.0313  2.3419 -1.4253
 8117SOL     OW27752   0.293   7.570   7.639 -0.2441 -0.0941 -0.0301
 8117SOL    HW127753   0.371   7.524   7.668 -0.4114 -1.0331 -1.0077
 8117SOL    HW227754   0.308   7.661   7.663  2.0611  0.1323 -1.9273
 8118SOL     OW27755   5.942   3.990   4.843  0.1522 -0.7067 -0.3777
 8118SOL    HW127756   5.880   4.060   4.866 -0.3432 -1.3172  0.1821
 8118SOL    HW227757   6.028   4.032   4.845 -0.1350 -0.1289  0.0252
 8119SOL     OW27758  10.820   7.446   0.533  0.4192 -0.0469 -0.0061
 8119SOL    HW127759  10.776   7.427   0.616 -2.8907  0.3181 -1.5373
 8119SOL    HW227760  10.844   7.538   0.540 -1.6388  0.5544 -0.1011
 8120SOL     OW27761   9.604   2.881   1.910 -0.0024  0.0194 -0.6659
 8120SOL    HW127762   9.592   2.851   2.000 -0.1653  0.1126 -0.6561
 8120SOL    HW227763   9.522   2.860   1.867  0.7235 -1.7581 -1.2905
 8121SOL     OW27764   4.755   5.133   2.169 -0.5105 -0.1430 -0.5579
 8121SOL    HW127765   4.787   5.047   2.196  2.1695  1.0831  0.5447
 8121SOL    HW227766   4.691   5.157   2.236 -0.1203 -0.6350  0.0020
 8122SOL     OW27767   6.128   4.003   6.438  0.2606 -0.0052  0.0451
 8122SOL    HW127768   6.048   4.009   6.491  0.7149  1.6036  0.6098
 8122SOL    HW227769   6.106   4.049   6.357  0.1328 -0.9437 -0.4722
 8123SOL     OW27770   3.322   6.399   0.217  0.4738  0.0670 -0.5306
 8123SOL    HW127771   3.353   6.424   0.304  1.0580 -0.9900 -0.4124
 8123SOL    HW227772   3.343   6.474   0.162 -1.9108  1.6777  0.6259
 8124SOL     OW27773   6.078  10.684   7.114  0.2885 -0.5473  0.3089
 8124SOL    HW127774   6.171  10.678   7.092  0.0789 -1.6170 -0.3461
 8124SOL    HW227775   6.034  10.703   7.031 -0.0627  0.2654  0.6659
 8125SOL     OW27776  10.337   2.569   0.364  0.1542  0.4352  0.6406
 8125SOL    HW127777  10.302   2.528   0.443  1.7649  0.1994  1.2524
 8125SOL    HW227778  10.307   2.660   0.370 -0.2222  0.2807  1.2085
 8126SOL     OW27779   4.046   1.952   2.660  0.1936  0.0601  0.0444
 8126SOL    HW127780   4.085   1.889   2.719  0.0811  0.1224  0.1847
 8126SOL    HW227781   3.952   1.948   2.678 -0.0192 -0.9713 -1.1285
 8127SOL     OW27782   6.715   9.032   9.861  0.1157  0.3471  0.3434
 8127SOL    HW127783   6.794   9.067   9.904  1.0086  0.9829 -1.6586
 8127SOL    HW227784   6.697   9.095   9.790 -1.7047 -0.2456  0.2293
 8128SOL     OW27785   5.926   9.457   4.876 -0.2383  0.2724 -0.0685
 8128SOL    HW127786   5.852   9.403   4.850 -0.6017  0.1194  1.2364
 8128SOL    HW227787   5.946   9.430   4.966  0.2991  1.4968  0.2046
 8129SOL     OW27788   6.326   8.585   9.634  0.5578  0.4064 -0.2077
 8129SOL    HW127789   6.330   8.620   9.545 -2.0364  2.3471  0.3105
 8129SOL    HW227790   6.321   8.490   9.623  0.8226  0.5758 -2.0957
 8130SOL     OW27791   0.313   4.417   7.135 -0.4655 -0.1368 -0.1280
 8130SOL    HW127792   0.371   4.463   7.074 -1.2726  0.4542 -0.4613
 8130SOL    HW227793   0.335   4.324   7.123  0.0385  0.0423 -0.6324
 8131SOL     OW27794   3.057   3.145   1.890 -0.0265  0.1160 -0.2679
 8131SOL    HW127795   3.099   3.150   1.804 -2.0150  1.5157 -1.2444
 8131SOL    HW227796   3.057   3.236   1.922  0.9078 -0.4206  1.3583
 8132SOL     OW27797   2.130   4.229   6.580 -0.1061  0.3572 -0.0937
 8132SOL    HW127798   2.170   4.221   6.667 -0.8827  0.4332  0.2824
 8132SOL    HW227799   2.036   4.233   6.598 -0.6294 -3.3664 -1.0988
 8133SOL     OW27800   1.224   6.975   7.101 -0.4923 -0.0301  0.3424
 8133SOL    HW127801   1.163   6.957   7.030 -0.9297 -0.2702  0.7763
 8133SOL    HW227802   1.200   7.062   7.133 -0.9169 -0.3153  0.8178
 8134SOL     OW27803   7.140   5.105   9.197  0.1199 -0.0043 -0.0808
 8134SOL    HW127804   7.105   5.019   9.175  0.8271  0.0202 -1.4280
 8134SOL    HW227805   7.065   5.153   9.232 -0.2024 -1.2630  1.0402
 8135SOL     OW27806   1.766  10.847   5.160  0.2565  0.8906 -0.7851
 8135SOL    HW127807   1.675  10.831   5.135  0.2601 -0.7017  0.1200
 8135SOL    HW227808   1.818  10.795   5.099  0.4364  0.0694  0.0413
 8136SOL     OW27809  10.285   7.697   7.395  0.2871  0.4840 -0.2781
 8136SOL    HW127810  10.295   7.618   7.341  0.2689  0.8032 -0.7508
 8136SOL    HW227811  10.273   7.663   7.484  2.6336 -0.0199 -0.0806
 8137SOL     OW27812   0.481   1.653   5.877  0.4020  0.2896 -0.1234
 8137SOL    HW127813   0.518   1.568   5.901 -1.5159 -0.6796 -0.3900
 8137SOL    HW227814   0.541   1.687   5.810  0.5418 -1.4445 -0.9427
 8138SOL     OW27815   1.990   2.537   3.970  0.3610  0.0882  0.0982
 8138SOL    HW127816   2.028   2.624   3.979  0.2094  0.3641 -1.5361
 8138SOL    HW227817   1.913   2.550   3.915  0.4079 -1.0874 -0.2714
 8139SOL     OW27818   9.643   8.362   7.924  0.1097  0.1043  0.1321
 8139SOL    HW127819   9.635   8.383   7.831  0.3199  1.6227  0.4312
 8139SOL    HW227820   9.585   8.287   7.937  0.7231 -0.6569 -1.3838
 8140SOL     OW27821   0.339   2.435   1.684  0.0078  0.0945  0.4606
 8140SOL    HW127822   0.356   2.389   1.767  1.7907  0.6563  0.4430
 8140SOL    HW227823   0.383   2.519   1.694  0.5863  0.0202 -1.2060
 8141SOL     OW27824   4.526   8.739   4.528  0.1594 -0.3068  0.0065
 8141SOL    HW127825   4.504   8.648   4.506  0.7146 -0.5562  0.4397
 8141SOL    HW227826   4.584   8.768   4.458 -0.9885  0.1382 -0.7949
 8142SOL     OW27827   1.102   2.076   9.204 -0.6373 -0.1363  0.0152
 8142SOL    HW127828   1.195   2.088   9.223 -0.3247 -0.8976 -0.9416
 8142SOL    HW227829   1.096   2.085   9.108 -1.1219 -2.5862 -0.2452
 8143SOL     OW27830  10.716   4.620   9.307  0.1173  0.5856  0.0844
 8143SOL    HW127831  10.795   4.569   9.326 -1.0274 -1.5913 -0.6143
 8143SOL    HW227832  10.732   4.659   9.221  0.3931  0.0675 -0.1001
 8144SOL     OW27833   1.734   8.390   8.762 -0.4072 -0.4810  0.0385
 8144SOL    HW127834   1.791   8.405   8.837  0.4264  0.1677 -0.7106
 8144SOL    HW227835   1.684   8.311   8.785  0.6028 -0.9146  0.7999
 8145SOL     OW27836   1.527   7.455   3.413  0.4430  0.4588  0.2378
 8145SOL    HW127837   1.584   7.393   3.459 -1.7275 -1.8368  0.0923
 8145SOL    HW227838   1.470   7.490   3.482 -0.8269 -0.7015 -0.1610
 8146SOL     OW27839   3.860   2.980   0.924 -0.7918  0.1131 -0.2333
 8146SOL    HW127840   3.901   2.971   0.838 -0.6275  1.1640 -0.2718
 8146SOL    HW227841   3.930   3.012   0.981 -1.4791  1.7134 -0.2515
 8147SOL     OW27842   3.528  10.652   4.204 -0.3209 -0.4850 -0.3818
 8147SOL    HW127843   3.577  10.570   4.211  1.7062  0.4520 -2.5108
 8147SOL    HW227844   3.447  10.628   4.159  0.4222 -1.2882 -1.3324
 8148SOL     OW27845   5.101   0.179   1.368  0.3953  0.2956 -0.3783
 8148SOL    HW127846   5.154   0.242   1.416  2.4151 -0.6530 -1.2440
 8148SOL    HW227847   5.098   0.101   1.424 -1.5424  0.8574  0.3967
 8149SOL     OW27848   1.177   8.690   1.310  0.4848  0.0396  0.0588
 8149SOL    HW127849   1.148   8.705   1.220 -0.7388 -1.9562  0.0371
 8149SOL    HW227850   1.128   8.612   1.338  0.6547  0.7400  2.5443
 8150SOL     OW27851   6.104   3.838   7.714 -0.3499  0.0991 -0.0119
 8150SOL    HW127852   6.015   3.837   7.679 -0.5984 -1.0886  0.6100
 8150SOL    HW227853   6.158   3.803   7.644 -0.7955 -1.9112  0.5789
 8151SOL     OW27854   9.578   8.699   0.594  0.2192  0.1563  0.1574
 8151SOL    HW127855   9.483   8.691   0.590 -0.0440  2.1194  1.1890
 8151SOL    HW227856   9.604   8.634   0.659 -0.0294 -2.3356 -2.0691
 8152SOL     OW27857   0.674   9.981   1.380 -0.4564  0.2101 -0.2372
 8152SOL    HW127858   0.761   9.959   1.346 -0.0501 -2.8751  2.3326
 8152SOL    HW227859   0.675  10.077   1.387  3.9654  0.2685  2.4086
 8153SOL     OW27860   3.247   9.017   6.881 -0.0452 -0.1327 -0.3769
 8153SOL    HW127861   3.268   8.925   6.863  1.1243  0.2714 -1.1962
 8153SOL    HW227862   3.273   9.030   6.972  0.5789 -0.3892 -0.5180
 8154SOL     OW27863   4.933   0.652   6.500 -0.3660 -0.1111  0.1558
 8154SOL    HW127864   4.969   0.598   6.571  1.0864  2.0551  1.1823
 8154SOL    HW227865   4.895   0.728   6.545  0.1802  1.0926 -1.3408
 8155SOL     OW27866   9.725   8.705   2.717 -0.0886 -0.0525 -0.1376
 8155SOL    HW127867   9.696   8.614   2.710 -0.8151  0.2554 -1.5406
 8155SOL    HW227868   9.820   8.700   2.703  0.0625 -0.6932  0.9562
 8156SOL     OW27869   5.290   6.522   3.775 -0.0905  0.6226  0.1133
 8156SOL    HW127870   5.343   6.576   3.717 -0.0527 -1.0186 -1.4473
 8156SOL    HW227871   5.344   6.511   3.854  1.1948  0.3616 -0.7805
 8157SOL     OW27872   7.261   2.001   1.642  0.7255 -0.9051 -0.2614
 8157SOL    HW127873   7.293   2.025   1.555 -0.5517 -1.4617 -0.9199
 8157SOL    HW227874   7.270   2.081   1.693  2.9508 -0.9938 -0.4226
 8158SOL     OW27875   2.834   8.880   8.044  0.4578  0.5630 -0.2675
 8158SOL    HW127876   2.824   8.840   8.131  0.1512  1.3534  0.0752
 8158SOL    HW227877   2.800   8.815   7.983  2.1215 -0.6766  0.0371
 8159SOL     OW27878   9.811   4.714   8.019 -0.4582 -0.0704  0.3623
 8159SOL    HW127879   9.722   4.688   8.045 -0.5947 -1.4537 -1.3219
 8159SOL    HW227880   9.864   4.636   8.033  0.4057  0.5917  0.8568
 8160SOL     OW27881   6.018   1.308   7.960  0.2849 -0.0200  0.3998
 8160SOL    HW127882   6.004   1.395   7.923  0.5816  0.0962  0.5527
 8160SOL    HW227883   6.026   1.250   7.885  0.5050  0.1523  0.2917
 8161SOL     OW27884   7.526   2.791   1.788 -0.6409  0.1735 -0.3602
 8161SOL    HW127885   7.620   2.775   1.776 -0.5064  0.8877 -0.2906
 8161SOL    HW227886   7.488   2.703   1.793 -0.2188 -0.1522 -2.2138
 8162SOL     OW27887   1.960   3.109   4.025  0.2165 -0.4213  0.3016
 8162SOL    HW127888   2.032   3.172   4.018  0.6705 -1.0082 -0.3198
 8162SOL    HW227889   1.973   3.049   3.952 -1.5257  0.0954 -0.4840
 8163SOL     OW27890   9.077   6.943   7.683 -0.0828 -0.1175 -0.1744
 8163SOL    HW127891   9.124   7.024   7.703 -0.1755  0.1677 -1.0621
 8163SOL    HW227892   8.995   6.972   7.644  0.6966 -0.6339 -2.3130
 8164SOL     OW27893   1.428   9.104   0.947  0.1621 -0.2321 -0.1756
 8164SOL    HW127894   1.415   9.069   1.035  1.7694 -0.2155  0.0993
 8164SOL    HW227895   1.521   9.126   0.943 -0.0956  0.7683 -1.5269
 8165SOL     OW27896   6.925   2.408   1.296  0.6556  0.5190  0.2519
 8165SOL    HW127897   6.834   2.418   1.322  0.3588  0.7106 -0.8126
 8165SOL    HW227898   6.953   2.326   1.337  0.6598  1.4827  2.3176
 8166SOL     OW27899   8.760   8.292   2.680  0.1297 -0.0689 -0.0115
 8166SOL    HW127900   8.683   8.334   2.717  1.1775  1.2484  0.7933
 8166SOL    HW227901   8.772   8.213   2.732 -1.6666 -1.2779 -1.3096
 8167SOL     OW27902   3.448  10.172   4.154  0.1599  0.3802  0.3540
 8167SOL    HW127903   3.361  10.156   4.117  1.0315 -2.8663 -0.6323
 8167SOL    HW227904   3.434  10.171   4.248 -0.6521 -2.6255  0.3086
 8168SOL     OW27905   7.419   7.948   2.568 -0.1445  0.9330  0.1665
 8168SOL    HW127906   7.324   7.949   2.554 -0.0056 -0.9678 -1.5470
 8168SOL    HW227907   7.434   7.869   2.620  0.6267 -0.1530 -1.5932
 8169SOL     OW27908   8.900   0.107   4.370  0.2917 -0.4425  0.1442
 8169SOL    HW127909   8.983   0.129   4.413 -0.5945 -1.0058  2.2885
 8169SOL    HW227910   8.847   0.187   4.377  0.1577 -0.5182  0.0080
 8170SOL     OW27911   7.236   2.999   0.691  0.1994  0.0040  0.0833
 8170SOL    HW127912   7.165   3.014   0.753  0.4298 -0.4436  0.4678
 8170SOL    HW227913   7.313   2.985   0.746  0.1412 -1.8300 -0.2418
 8171SOL     OW27914  10.910   7.259   5.385  0.2490  0.0851 -0.5293
 8171SOL    HW127915  10.962   7.182   5.403  1.1209  0.5523 -0.9840
 8171SOL    HW227916  10.819   7.228   5.386  0.6120 -1.0536 -1.2846
 8172SOL     OW27917   3.629   4.636  10.038  0.4936 -0.7128 -0.5091
 8172SOL    HW127918   3.546   4.651  10.083  0.2275  2.3582 -1.7527
 8172SOL    HW227919   3.689   4.699  10.078  2.1131 -2.4521 -0.0528
 8173SOL     OW27920   2.650   6.908   6.200 -0.3126  0.0683  0.2638
 8173SOL    HW127921   2.600   6.830   6.225  0.7698 -1.1288 -1.0786
 8173SOL    HW227922   2.645   6.910   6.104 -1.6140  2.5975  0.3218
 8174SOL     OW27923   5.925   3.503   7.684 -0.7025  0.5447 -0.4155
 8174SOL    HW127924   5.891   3.472   7.767 -1.6973  1.4245 -0.4683
 8174SOL    HW227925   6.016   3.525   7.702 -1.3288  2.2760  0.9010
 8175SOL     OW27926   8.089   3.960   3.428  0.2975 -0.3295  0.1994
 8175SOL    HW127927   8.100   4.002   3.513  0.2548 -1.7540  0.9254
 8175SOL    HW227928   8.000   3.983   3.402 -0.2506 -1.1679  1.2720
 8176SOL     OW27929   4.644   8.440   4.864 -0.1331  0.3429 -0.0949
 8176SOL    HW127930   4.691   8.374   4.915 -0.2967 -0.5255 -1.0285
 8176SOL    HW227931   4.679   8.430   4.775 -1.0427  0.6693 -0.4955
 8177SOL     OW27932   1.829   1.150   7.281  0.6087 -0.9242 -0.2670
 8177SOL    HW127933   1.910   1.135   7.233  0.3955 -0.3837 -0.8006
 8177SOL    HW227934   1.848   1.116   7.369  1.2019 -1.3628 -0.5486
 8178SOL     OW27935   7.236   7.551   9.527  0.3544  0.4202 -0.0682
 8178SOL    HW127936   7.201   7.495   9.458  1.7812 -0.7999  0.1487
 8178SOL    HW227937   7.190   7.522   9.607  0.2227  0.3869 -0.1554
 8179SOL     OW27938   9.202   8.842  10.244  0.0507  0.4093  0.4627
 8179SOL    HW127939   9.282   8.790  10.253  1.5442  2.5609  0.4007
 8179SOL    HW227940   9.207   8.880  10.156  0.2761  2.5187  1.3144
 8180SOL     OW27941   4.494   2.397   2.102  0.2860 -0.2195  0.6798
 8180SOL    HW127942   4.483   2.462   2.172 -2.4163 -0.5004  0.6246
 8180SOL    HW227943   4.472   2.313   2.144  2.0893 -0.9099  0.3233
 8181SOL     OW27944   7.742   1.970   2.918  0.4183 -0.1636 -0.6206
 8181SOL    HW127945   7.650   1.945   2.905  0.3302  0.5761 -1.5024
 8181SOL    HW227946   7.781   1.964   2.831  1.3540 -0.9807 -0.1665
 8182SOL     OW27947   3.283   6.606   7.986  0.1473  0.3705  0.5449
 8182SOL    HW127948   3.318   6.584   8.072 -0.2112 -0.1446  0.5605
 8182SOL    HW227949   3.213   6.542   7.970  1.3464 -0.6636 -0.8680
 8183SOL     OW27950   7.737   5.820  10.491  0.1037 -0.0439  0.7684
 8183SOL    HW127951   7.832   5.815  10.490  0.1449 -0.6018 -2.5907
 8183SOL    HW227952   7.708   5.729  10.499 -0.1646  0.0822  1.3081
 8184SOL     OW27953   1.912   3.121   5.848 -0.0211 -0.2802  0.7186
 8184SOL    HW127954   1.877   3.140   5.761 -0.7864 -1.0700  0.8403
 8184SOL    HW227955   1.925   3.207   5.888 -2.6777  0.0978  0.9802
 8185SOL     OW27956   5.385   5.141   9.312 -0.4540  0.1194  0.0997
 8185SOL    HW127957   5.321   5.151   9.242  1.6091  0.8454 -1.7892
 8185SOL    HW227958   5.414   5.050   9.305  1.0007  0.6465 -1.1965
 8186SOL     OW27959   3.263   2.468   0.090  0.0705 -0.0218  0.5648
 8186SOL    HW127960   3.289   2.492   0.002 -0.2182 -0.1862  0.4329
 8186SOL    HW227961   3.318   2.522   0.147 -1.3256  1.7664  0.2844
 8187SOL     OW27962   4.246   9.908   6.579 -0.1776  0.1137 -0.0988
 8187SOL    HW127963   4.263   9.979   6.642  0.9567  0.6792 -1.0024
 8187SOL    HW227964   4.165   9.934   6.536  0.3541  1.0385 -0.5989
 8188SOL     OW27965   8.358   7.222   1.897 -0.0343  0.0763 -0.4801
 8188SOL    HW127966   8.366   7.282   1.823  0.3654 -0.9545 -1.3114
 8188SOL    HW227967   8.265   7.222   1.919  0.0154  1.2641 -0.2200
 8189SOL     OW27968   9.828   0.315   3.950  0.5782 -0.0745  0.2657
 8189SOL    HW127969   9.796   0.324   4.040 -3.3080 -0.2785 -0.8943
 8189SOL    HW227970   9.850   0.222   3.942 -1.2494 -0.5786  0.4943
 8190SOL     OW27971   3.448   9.834   4.797  0.7511 -0.1646  0.3764
 8190SOL    HW127972   3.445   9.773   4.872 -0.4520  0.5821  0.9705
 8190SOL    HW227973   3.505   9.791   4.734  1.5710 -0.9593  1.6058
 8191SOL     OW27974   5.681   0.929  10.073 -0.1949 -0.4317  0.3205
 8191SOL    HW127975   5.645   0.907  10.158 -1.0547 -2.4602 -0.5125
 8191SOL    HW227976   5.621   0.996  10.038  0.1348  0.3707  1.2445
 8192SOL     OW27977   2.507   8.267   3.230  0.0044 -0.0620 -0.6584
 8192SOL    HW127978   2.525   8.285   3.322  0.0866 -1.3175 -0.4163
 8192SOL    HW227979   2.585   8.297   3.184 -1.1158  3.2347 -0.7055
 8193SOL     OW27980   6.656   0.361   9.383  0.0749  0.0538  0.0773
 8193SOL    HW127981   6.648   0.440   9.436 -0.8613  0.1191 -0.1482
 8193SOL    HW227982   6.750   0.344   9.380  0.2316  0.7577  0.7109
 8194SOL     OW27983   5.203   5.601   9.278 -0.2713  0.1205 -0.4119
 8194SOL    HW127984   5.290   5.580   9.310 -0.6022 -2.5369 -1.0021
 8194SOL    HW227985   5.151   5.619   9.357  0.5941  0.9370 -0.0149
 8195SOL     OW27986   6.187   1.449   2.101 -0.0977  0.3883 -0.5301
 8195SOL    HW127987   6.120   1.390   2.066 -0.3886 -0.1334  0.8115
 8195SOL    HW227988   6.159   1.536   2.074 -2.1842  0.3537  1.1858
 8196SOL     OW27989   2.264   8.636   0.649  0.4123  0.2161  0.3701
 8196SOL    HW127990   2.233   8.727   0.651 -1.1294 -0.2243 -1.1759
 8196SOL    HW227991   2.194   8.586   0.692 -0.2557 -0.5736 -1.5404
 8197SOL     OW27992   4.176   6.822   0.874  0.3647 -0.5633  0.4515
 8197SOL    HW127993   4.213   6.897   0.828 -0.6433  0.4134  1.1745
 8197SOL    HW227994   4.153   6.856   0.960 -1.5714 -1.2923  0.2632
 8198SOL     OW27995   4.276   4.662   3.266 -0.2274  0.2617  0.7877
 8198SOL    HW127996   4.238   4.716   3.197 -1.7017 -0.9918  0.5659
 8198SOL    HW227997   4.215   4.670   3.340 -0.1431 -0.5979  0.9634
 8199SOL     OW27998   6.435   6.574   9.460 -0.2502  0.2496 -0.2055
 8199SOL    HW127999   6.388   6.494   9.484 -1.2804  1.0035  0.3550
 8199SOL    HW228000   6.506   6.544   9.403 -0.7555 -1.0316 -0.1877
 8200SOL     OW28001   1.863   3.844   6.960  0.1757  0.6556 -0.2351
 8200SOL    HW128002   1.920   3.797   6.898 -2.3938 -2.4324 -0.5242
 8200SOL    HW228003   1.819   3.909   6.907  0.9100  0.7598 -0.7416
 8201SOL     OW28004  10.674   5.692   3.194 -0.1387  0.1365 -0.1008
 8201SOL    HW128005  10.710   5.761   3.250  0.5497 -0.8981  0.7805
 8201SOL    HW228006  10.745   5.672   3.132 -1.1437  1.7733 -1.8911
 8202SOL     OW28007   9.009   2.513   0.816 -0.0071  0.1483 -0.0940
 8202SOL    HW128008   8.931   2.506   0.872 -1.0404  3.0821 -1.0076
 8202SOL    HW228009   9.007   2.432   0.764 -1.1617 -0.8561  1.4051
 8203SOL     OW28010   3.676   3.007   1.916  0.1953  0.2813 -0.2933
 8203SOL    HW128011   3.769   3.013   1.938  0.0240  1.3327  0.2443
 8203SOL    HW228012   3.666   3.061   1.837 -0.0709  0.7369  0.0482
 8204SOL     OW28013   3.940   9.376   7.864 -1.2931  0.1396 -0.0399
 8204SOL    HW128014   4.000   9.357   7.936  0.2368  2.6672 -0.5254
 8204SOL    HW228015   3.897   9.457   7.890 -0.6585  1.1497 -1.9243
 8205SOL     OW28016   8.706   8.798   5.391  0.1541 -0.4482 -0.1150
 8205SOL    HW128017   8.654   8.765   5.465  1.4442 -0.6016  0.7516
 8205SOL    HW228018   8.687   8.892   5.389  0.7280 -0.2988  0.9365
 8206SOL     OW28019   6.614  10.096   1.434  0.1192 -0.5738  0.4828
 8206SOL    HW128020   6.651  10.008   1.438  0.5716 -0.5121 -1.4298
 8206SOL    HW228021   6.676  10.150   1.482  0.9040 -0.9978 -0.0269
 8207SOL     OW28022   3.971   0.807   4.368 -0.0151 -0.2635  0.4594
 8207SOL    HW128023   4.040   0.840   4.310 -1.5352  1.7672 -0.3237
 8207SOL    HW228024   4.016   0.789   4.451  1.4391  1.1332  0.0238
 8208SOL     OW28025   4.812   3.377   3.017  0.3783  0.4402 -0.2234
 8208SOL    HW128026   4.810   3.471   2.999  3.1642  0.7272  0.4224
 8208SOL    HW228027   4.830   3.371   3.111  0.6974 -0.7099 -0.3416
 8209SOL     OW28028   7.467   3.579   9.040  0.2983 -0.0142 -0.0952
 8209SOL    HW128029   7.415   3.660   9.031  0.1226 -0.1843 -0.6427
 8209SOL    HW228030   7.419   3.514   8.989  1.7219  0.1324 -1.7063
 8210SOL     OW28031   0.363   6.376   3.618  0.1258  0.3894  0.3200
 8210SOL    HW128032   0.438   6.394   3.675  0.2311  1.3307 -0.1022
 8210SOL    HW228033   0.402   6.342   3.537  0.0052 -0.4432  0.5992
 8211SOL     OW28034   8.240   4.999   4.480 -0.4602 -0.0728  0.0475
 8211SOL    HW128035   8.229   5.087   4.445 -1.1086  0.3087  1.1481
 8211SOL    HW228036   8.332   4.978   4.463 -0.7011  0.1606 -1.6570
 8212SOL     OW28037   8.531   7.749   0.209  0.2941 -0.1292  0.1680
 8212SOL    HW128038   8.618   7.715   0.232 -0.3115 -0.3964  2.2758
 8212SOL    HW228039   8.540   7.844   0.213  0.0948 -0.1500  2.2780
 8213SOL     OW28040   7.271   6.897   2.248  0.2482 -0.0994 -0.1624
 8213SOL    HW128041   7.352   6.946   2.232  0.3355  0.0417  0.6741
 8213SOL    HW228042   7.278   6.821   2.190  1.5981 -0.7773  0.8323
 8214SOL     OW28043   7.728   1.713   9.910 -1.3948 -0.2322 -0.0382
 8214SOL    HW128044   7.740   1.743   9.819  0.0754  0.9029  0.4808
 8214SOL    HW228045   7.636   1.686   9.914 -1.8070  0.7622 -1.5612
 8215SOL     OW28046   5.166  10.243   1.268 -0.6970  0.1379  0.0668
 8215SOL    HW128047   5.230  10.227   1.338 -0.2006 -1.9927 -0.8228
 8215SOL    HW228048   5.211  10.303   1.208 -0.5929  0.8364  0.8193
 8216SOL     OW28049   3.547   6.938   9.290  0.0624 -0.2674  0.0324
 8216SOL    HW128050   3.502   6.875   9.346 -0.6473 -1.8400 -2.1956
 8216SOL    HW228051   3.481   7.004   9.269  0.0159 -0.2875  0.1142
 8217SOL     OW28052   2.472   5.579   8.609  0.6272  0.5828 -0.2182
 8217SOL    HW128053   2.483   5.674   8.613 -1.2620  0.7969  1.3547
 8217SOL    HW228054   2.477   5.550   8.700  1.0693 -0.8420 -0.6602
 8218SOL     OW28055   6.841   3.728   8.485  0.1981  0.1188 -0.3216
 8218SOL    HW128056   6.927   3.691   8.506  0.2810  0.8549  0.6800
 8218SOL    HW228057   6.815   3.682   8.405  0.7697 -1.3219  0.2734
 8219SOL     OW28058   1.800   8.805   7.607  0.1248  0.2064  0.5703
 8219SOL    HW128059   1.803   8.893   7.645 -3.3189 -0.1857  2.1164
 8219SOL    HW228060   1.816   8.746   7.681 -0.5508 -0.5070  0.1677
 8220SOL     OW28061   7.084   1.633   5.797 -0.4137  0.2286 -0.1171
 8220SOL    HW128062   7.170   1.665   5.769 -0.1047 -0.5171 -0.0343
 8220SOL    HW228063   7.072   1.669   5.885 -0.7937  1.4627 -0.6539
 8221SOL     OW28064   4.519   7.433   0.534 -0.2640 -0.2657 -0.4500
 8221SOL    HW128065   4.517   7.337   0.527 -0.3924 -0.3427  0.5293
 8221SOL    HW228066   4.607   7.457   0.506  0.0491 -0.7418  0.0958
 8222SOL     OW28067   6.958   4.925   1.092  0.3950  0.8455  0.6186
 8222SOL    HW128068   6.889   4.904   1.155  0.0492  1.1044  0.3240
 8222SOL    HW228069   6.912   4.953   1.014  0.8393  1.2000  0.4802
 8223SOL     OW28070   5.012   3.832   0.381  0.5628  0.0456  0.3344
 8223SOL    HW128071   4.918   3.840   0.394  0.8698 -0.1346  3.4605
 8223SOL    HW228072   5.023   3.758   0.322 -1.2243 -0.8315  1.0588
 8224SOL     OW28073  10.254   2.765   6.701  0.3730  0.1456 -0.2612
 8224SOL    HW128074  10.162   2.783   6.717 -0.2603 -0.9378 -2.3387
 8224SOL    HW228075  10.255   2.678   6.662  2.3562 -0.1152  0.2582
 8225SOL     OW28076   7.114   5.934  10.254  0.0407 -0.3868  0.1655
 8225SOL    HW128077   7.024   5.912  10.230  0.6564 -1.6573 -1.0921
 8225SOL    HW228078   7.106   5.973  10.341 -1.6987 -0.6975  0.1808
 8226SOL     OW28079   3.733   7.259  10.239 -0.3060 -0.0026  0.4281
 8226SOL    HW128080   3.697   7.273  10.152 -1.0022 -0.4481  0.6388
 8226SOL    HW228081   3.662   7.283  10.299  0.6137  1.6598  0.9234
 8227SOL     OW28082   1.866   4.803   0.507 -0.1792  0.1857  0.0746
 8227SOL    HW128083   1.957   4.798   0.539  0.8437 -0.7445 -2.6723
 8227SOL    HW228084   1.849   4.896   0.498  0.6912  0.3597  0.1222
 8228SOL     OW28085   1.393  10.903   4.108  0.0868  0.0952 -0.0279
 8228SOL    HW128086   1.457  10.974   4.100  0.5424 -0.4932 -2.1540
 8228SOL    HW228087   1.438  10.826   4.073 -1.1415 -0.7713  0.2441
 8229SOL     OW28088   0.887   4.240   1.108  0.5902 -0.5277 -0.7147
 8229SOL    HW128089   0.803   4.242   1.155 -0.4514  0.7955 -2.5081
 8229SOL    HW228090   0.931   4.321   1.135  1.2145 -1.1010  0.0359
 8230SOL     OW28091   4.529  10.848   1.341  0.5852 -0.3532  0.2404
 8230SOL    HW128092   4.505  10.911   1.273  1.4193 -0.0834  0.1782
 8230SOL    HW228093   4.468  10.775   1.329  0.2879 -0.0167 -0.3614
 8231SOL     OW28094   3.038   9.571   2.932 -0.3896 -0.4635 -0.8518
 8231SOL    HW128095   2.950   9.589   2.966 -0.6648 -1.5578 -0.9302
 8231SOL    HW228096   3.095   9.634   2.976 -0.8468 -1.3183  1.0403
 8232SOL     OW28097   0.369   3.449   9.100 -0.1104  1.0618 -0.0851
 8232SOL    HW128098   0.283   3.470   9.063 -1.1494 -0.1207  1.4618
 8232SOL    HW228099   0.350   3.380   9.165  1.9992  0.8614  0.3935
 8233SOL     OW28100   3.127   2.106   2.878  0.6262  0.5642  0.3151
 8233SOL    HW128101   3.199   2.134   2.936  1.3078 -1.2047  0.3877
 8233SOL    HW228102   3.049   2.111   2.933  1.2324 -0.8943  1.3728
 8234SOL     OW28103   4.210   0.339   8.265  0.5323  0.0743 -0.2435
 8234SOL    HW128104   4.152   0.415   8.269  0.1484 -0.2685  1.4105
 8234SOL    HW228105   4.264   0.346   8.344 -1.5494 -2.9001  1.6495
 8235SOL     OW28106   1.016   5.970   9.561  0.2951 -0.2499  0.3130
 8235SOL    HW128107   0.951   6.039   9.571  1.2127  0.4329  2.2629
 8235SOL    HW228108   1.090   6.012   9.517  0.6703 -0.0772  1.0801
 8236SOL     OW28109   0.663   6.733   2.081 -0.1669  0.0172  0.3768
 8236SOL    HW128110   0.655   6.725   1.986 -2.2142 -0.2704  0.5285
 8236SOL    HW228111   0.678   6.826   2.097  1.8365 -0.1564 -0.2826
 8237SOL     OW28112  10.725  10.139   5.392  0.1046 -0.3093  0.2767
 8237SOL    HW128113  10.760  10.159   5.479 -0.7003 -0.5164  0.6657
 8237SOL    HW228114  10.677  10.218   5.367  0.5955 -0.1322 -0.1250
 8238SOL     OW28115   7.107   9.901  10.259  0.2383  0.2193  0.1741
 8238SOL    HW128116   7.170   9.973  10.248 -0.5154  0.6525 -1.7942
 8238SOL    HW228117   7.029   9.943  10.295  0.0477  0.2859 -0.2983
 8239SOL     OW28118   2.713   2.923   9.043 -0.2370  0.3210  0.1097
 8239SOL    HW128119   2.656   2.975   8.987 -1.2779  1.5501  2.1625
 8239SOL    HW228120   2.792   2.976   9.054  0.8786 -0.8281 -1.7246
 8240SOL     OW28121   7.590  10.898   9.609 -0.6067  0.1627  0.3232
 8240SOL    HW128122   7.553  10.851   9.534 -0.0787  1.4251 -0.7705
 8240SOL    HW228123   7.612  10.829   9.671 -0.5027 -0.9988 -0.9375
 8241SOL     OW28124   5.705   1.440   7.326 -0.1016  0.1166 -0.1160
 8241SOL    HW128125   5.797   1.446   7.300  0.3478  0.3306  1.4327
 8241SOL    HW228126   5.673   1.530   7.319 -0.1467  0.0796 -0.4336
 8242SOL     OW28127   2.681   5.065   6.326 -0.3060  0.4478 -0.5807
 8242SOL    HW128128   2.735   5.106   6.394  0.0007 -0.9687  0.0875
 8242SOL    HW228129   2.615   5.016   6.375 -0.5927  0.0699 -1.3327
 8243SOL     OW28130   0.309   4.413   4.854 -0.4305 -0.1804 -0.1181
 8243SOL    HW128131   0.388   4.359   4.864 -0.0301  0.2090 -1.0549
 8243SOL    HW228132   0.338   4.501   4.878 -0.6437 -0.0815 -0.2249
 8244SOL     OW28133   7.635   1.185   3.100 -0.6905  0.4321 -0.1167
 8244SOL    HW128134   7.707   1.240   3.131 -0.8986  0.6501 -0.0114
 8244SOL    HW228135   7.678   1.113   3.053 -0.3960  0.3924  0.2121
 8245SOL     OW28136   9.901   6.924   8.685 -0.0031  0.0928 -0.9269
 8245SOL    HW128137   9.821   6.883   8.651 -0.7558 -0.5303  1.4176
 8245SOL    HW228138   9.922   6.873   8.763  2.0543  0.9838 -0.8412
 8246SOL     OW28139   9.961   9.137   6.893  0.6235 -0.3668  0.0359
 8246SOL    HW128140   9.951   9.043   6.904  0.7420 -0.1556  2.9233
 8246SOL    HW228141   9.878   9.174   6.924  0.7616  0.4791 -0.5800
 8247SOL     OW28142   1.323   8.197   5.915 -0.2435  0.2692  0.1681
 8247SOL    HW128143   1.322   8.186   6.010  1.1068  0.2582  0.1944
 8247SOL    HW228144   1.243   8.248   5.896 -0.5650  0.2052  1.2844
 8248SOL     OW28145   1.617   6.174   8.534 -0.2908 -0.0471 -0.0085
 8248SOL    HW128146   1.688   6.219   8.580 -1.0359 -0.9858  2.2174
 8248SOL    HW228147   1.631   6.081   8.552  0.1632 -0.6606 -2.9780
 8249SOL     OW28148   6.585   1.746   8.700 -0.5610 -0.8550  1.2139
 8249SOL    HW128149   6.638   1.741   8.620  0.7811  1.0326  1.9278
 8249SOL    HW228150   6.498   1.771   8.668 -0.6901 -2.5115  0.1538
 8250SOL     OW28151   2.782   1.077   3.491 -0.0087  0.1511  0.6276
 8250SOL    HW128152   2.856   1.017   3.482 -1.9354 -2.1321 -1.3287
 8250SOL    HW228153   2.745   1.058   3.577  0.1137 -0.6461  0.5124
 8251SOL     OW28154   0.821   6.357   2.920 -0.1979 -0.2679  0.0044
 8251SOL    HW128155   0.853   6.441   2.952 -0.4541  0.3196 -1.2125
 8251SOL    HW228156   0.773   6.319   2.993  0.4295  0.3716  0.7558
 8252SOL     OW28157   7.082   6.592   0.964  0.0498  0.3980 -0.0281
 8252SOL    HW128158   7.097   6.678   1.003  0.3618  0.3308 -0.0025
 8252SOL    HW228159   7.135   6.592   0.885 -1.1307  0.8105 -0.8603
 8253SOL     OW28160   5.204   8.503   0.499 -0.0649 -0.2455 -0.4544
 8253SOL    HW128161   5.117   8.491   0.536  0.2891 -1.1265  0.1171
 8253SOL    HW228162   5.259   8.441   0.546  1.0626  0.9270 -0.1483
 8254SOL     OW28163   7.362   2.942   1.536  0.0578  0.0297  0.5454
 8254SOL    HW128164   7.348   3.017   1.478  4.0405 -0.3915 -1.3145
 8254SOL    HW228165   7.432   2.971   1.595  0.7775 -1.7783  0.6378
 8255SOL     OW28166   5.543   2.562   8.405  0.6178  0.0486 -0.3809
 8255SOL    HW128167   5.507   2.650   8.416 -2.9940 -1.1882 -0.8458
 8255SOL    HW228168   5.543   2.525   8.493 -2.1230 -0.8354 -0.6635
 8256SOL     OW28169   2.043   7.154   0.639 -0.9656  0.5040 -0.0819
 8256SOL    HW128170   2.015   7.245   0.627 -0.0148  0.6806 -1.1149
 8256SOL    HW228171   1.973   7.114   0.690 -0.6745  2.1914  1.7610
 8257SOL     OW28172   2.470   0.159   0.493 -0.1144  0.3085  0.8546
 8257SOL    HW128173   2.560   0.184   0.475 -0.9617  1.1679 -3.2494
 8257SOL    HW228174   2.464   0.068   0.464 -0.3311 -0.1476  2.2719
 8258SOL     OW28175   3.910   6.974   8.811 -0.0235 -0.4532 -0.2302
 8258SOL    HW128176   3.999   6.939   8.803  0.9886  1.8307  0.1923
 8258SOL    HW228177   3.905   7.043   8.745 -0.6463  1.0168  1.2877
 8259SOL     OW28178   5.948   2.900   5.086  0.2043 -0.0771 -0.5515
 8259SOL    HW128179   5.861   2.938   5.082 -0.0940 -0.1499  2.7246
 8259SOL    HW228180   5.933   2.805   5.088 -0.0629 -0.1226  3.0066
 8260SOL     OW28181   1.220   6.075   3.280 -0.1497  0.6134 -0.5285
 8260SOL    HW128182   1.261   5.997   3.316 -2.3537  0.4191  1.8288
 8260SOL    HW228183   1.197   6.050   3.190  0.6529 -0.8374 -0.3622
 8261SOL     OW28184   6.751  10.522   0.550  0.2237  0.4627  0.1846
 8261SOL    HW128185   6.796  10.572   0.482  1.9188  0.2422  1.1051
 8261SOL    HW228186   6.665  10.565   0.557  0.2816  0.9440 -1.5502
 8262SOL     OW28187   2.340   0.900   8.735  0.0577 -0.0179 -0.6376
 8262SOL    HW128188   2.288   0.978   8.718  0.8871  0.6658 -0.0987
 8262SOL    HW228189   2.419   0.932   8.778  0.7734 -1.0729 -1.1241
 8263SOL     OW28190   7.937   6.323   2.950  0.0566  0.6143 -0.2436
 8263SOL    HW128191   7.917   6.314   2.857  0.3834 -1.8455 -0.1573
 8263SOL    HW228192   8.033   6.331   2.953 -0.0482  1.9878 -0.1605
 8264SOL     OW28193   6.597   7.448   3.864 -0.1561 -0.2464 -0.3731
 8264SOL    HW128194   6.594   7.452   3.959 -0.6576  0.5225 -0.4193
 8264SOL    HW228195   6.510   7.418   3.838 -0.3880  0.6501 -0.6442
 8265SOL     OW28196   9.182  10.486   5.885  0.1921 -0.1140 -0.0001
 8265SOL    HW128197   9.150  10.479   5.975 -0.0555 -0.5548 -0.1210
 8265SOL    HW228198   9.190  10.396   5.855  1.1367  0.0089 -0.1223
 8266SOL     OW28199   4.496   3.792   1.949 -0.0790  0.0589  0.2175
 8266SOL    HW128200   4.510   3.818   1.858  1.9686  0.6374  0.6567
 8266SOL    HW228201   4.415   3.741   1.947 -1.8542  2.6896 -1.4116
 8267SOL     OW28202   6.866   0.523   2.637  0.1862 -0.3153  0.4618
 8267SOL    HW128203   6.956   0.529   2.605  0.7574 -1.9164  1.6562
 8267SOL    HW228204   6.873   0.528   2.732 -1.1766  1.1728  0.5257
 8268SOL     OW28205   5.662   6.670   1.510  0.1331  0.6085  0.0889
 8268SOL    HW128206   5.680   6.600   1.573 -0.7054 -0.1312 -0.4761
 8268SOL    HW228207   5.716   6.648   1.434  0.4913  1.0326  0.2161
 8269SOL     OW28208   4.642   2.339   4.783 -0.1638  0.2109  0.2760
 8269SOL    HW128209   4.620   2.370   4.695 -1.3250 -1.0563  0.0824
 8269SOL    HW228210   4.635   2.244   4.777  0.4552  0.0641  1.5709
 8270SOL     OW28211   6.852   2.828   3.633  0.7094  0.5355  0.4702
 8270SOL    HW128212   6.885   2.776   3.560  0.2517 -0.1512  0.7419
 8270SOL    HW228213   6.815   2.764   3.694  0.4639  1.1494  0.9837
 8271SOL     OW28214   4.859   9.114   5.254  0.1748 -0.4857  0.0198
 8271SOL    HW128215   4.877   9.131   5.347 -4.4482 -1.6239  1.4023
 8271SOL    HW228216   4.803   9.037   5.254 -0.2853 -0.3502 -3.7649
 8272SOL     OW28217   9.164   2.870   8.232 -0.4638 -0.4359 -0.3058
 8272SOL    HW128218   9.090   2.813   8.254 -1.2879  0.7401  0.1028
 8272SOL    HW228219   9.125   2.940   8.179  0.5144 -0.2262 -0.7766
 8273SOL     OW28220   0.685   8.387   7.380 -0.1880 -0.2145 -0.1826
 8273SOL    HW128221   0.624   8.457   7.359  0.5691  0.6750  0.4683
 8273SOL    HW228222   0.635   8.307   7.369 -0.3490  0.2093 -3.6770
 8274SOL     OW28223   9.515   3.337   8.202  0.4584  0.4432 -0.1232
 8274SOL    HW128224   9.561   3.258   8.229 -0.8950 -0.5159 -0.4938
 8274SOL    HW228225   9.473   3.369   8.282 -1.3109 -0.8567 -0.4693
 8275SOL     OW28226  10.655   9.130   8.337 -0.7845 -0.0330 -0.6476
 8275SOL    HW128227  10.658   9.109   8.243 -0.2015  0.6932 -0.7987
 8275SOL    HW228228  10.727   9.192   8.350  1.3674 -2.6760  0.9614
 8276SOL     OW28229   3.687   8.647   4.317  0.0644 -0.2889 -0.1784
 8276SOL    HW128230   3.594   8.635   4.338  0.0967 -0.7624 -0.2817
 8276SOL    HW228231   3.690   8.725   4.262 -0.3401 -0.5800 -0.6147
 8277SOL     OW28232   4.859   3.927   9.011  0.3436 -0.0000 -0.0996
 8277SOL    HW128233   4.876   3.888   8.926 -0.2668 -0.8338  0.1469
 8277SOL    HW228234   4.806   3.862   9.057 -0.0403  0.7917  0.6089
 8278SOL     OW28235   3.984   2.874   9.077 -0.0382  0.5239  0.4310
 8278SOL    HW128236   3.987   2.950   9.136 -1.4781 -0.2942  1.6262
 8278SOL    HW228237   3.991   2.912   8.989 -0.3114  2.0147  1.0229
 8279SOL     OW28238   4.714   9.149   7.996 -0.2661 -0.0060  0.7442
 8279SOL    HW128239   4.647   9.094   7.955 -1.3882  1.7893  0.0206
 8279SOL    HW228240   4.724   9.223   7.937  2.0062  0.0617  1.1218
 8280SOL     OW28241  10.806   3.908  10.640  0.5060  0.5752  0.2567
 8280SOL    HW128242  10.838   3.843  10.577 -1.4142  0.4310 -0.6552
 8280SOL    HW228243  10.788   3.986  10.586 -0.5829  0.6577  0.7171
 8281SOL     OW28244   6.854   9.670   2.878  0.5056 -0.4108  0.3121
 8281SOL    HW128245   6.895   9.706   2.799  0.3744  0.3916  0.5952
 8281SOL    HW228246   6.812   9.590   2.848 -0.6598  0.5351 -0.7431
 8282SOL     OW28247   8.403   2.526   0.404 -0.2225 -0.5963 -0.2788
 8282SOL    HW128248   8.331   2.463   0.401 -1.2842  0.5774 -1.0373
 8282SOL    HW228249   8.428   2.537   0.313  0.2778 -0.2929 -0.1041
 8283SOL     OW28250   9.832   0.978   6.705 -0.2078  0.5027 -0.1181
 8283SOL    HW128251   9.927   0.983   6.709 -0.2169  0.3394  0.3830
 8283SOL    HW228252   9.808   0.919   6.777 -0.5748 -0.7999 -1.2701
 8284SOL     OW28253   9.258   8.315   7.854  0.2274 -0.6493 -0.4443
 8284SOL    HW128254   9.184   8.342   7.801  1.2319  0.7918 -1.2022
 8284SOL    HW228255   9.314   8.266   7.794 -0.5286 -2.6077  0.3712
 8285SOL     OW28256   9.122   1.482   6.496  0.1017 -0.7786 -0.0710
 8285SOL    HW128257   9.135   1.555   6.556 -0.3111 -0.6304 -0.1562
 8285SOL    HW228258   9.158   1.406   6.542 -1.4426 -0.9204  0.9552
 8286SOL     OW28259   0.336  10.444   0.260 -0.1349 -0.8212  0.0891
 8286SOL    HW128260   0.382  10.371   0.217 -0.1792 -0.6002 -0.3373
 8286SOL    HW228261   0.243  10.424   0.248 -0.1486 -0.3903 -0.5570
 8287SOL     OW28262   6.479   4.939   3.474 -0.0560  0.6709 -0.4162
 8287SOL    HW128263   6.546   4.913   3.410 -0.7489  1.4897 -1.5177
 8287SOL    HW228264   6.502   4.892   3.554  2.0313  1.1854 -0.6524
 8288SOL     OW28265   5.407   1.414  10.358 -0.0218 -0.0287 -0.7093
 8288SOL    HW128266   5.393   1.498  10.401  0.3619 -0.8816  1.2040
 8288SOL    HW228267   5.321   1.386  10.328 -0.6838 -0.3093  1.3459
 8289SOL     OW28268   8.171   5.670   4.340  0.6212  0.1941 -0.5818
 8289SOL    HW128269   8.077   5.659   4.355  0.3845 -0.2754 -2.2755
 8289SOL    HW228270   8.177   5.720   4.258  1.8426 -1.3999 -1.5152
 8290SOL     OW28271   4.690   1.978   5.331  0.0362 -0.1811  0.4024
 8290SOL    HW128272   4.743   1.898   5.325  0.1360 -0.0197 -1.6109
 8290SOL    HW228273   4.745   2.039   5.380  0.6568 -0.8237  0.5309
 8291SOL     OW28274   9.135   2.435   6.276 -0.6968 -0.4125  0.3350
 8291SOL    HW128275   9.177   2.361   6.233  1.0294  0.8282 -0.1824
 8291SOL    HW228276   9.054   2.398   6.313 -0.0463 -2.4615 -0.1773
 8292SOL     OW28277   4.960   4.545   9.824  0.3570  0.0284  1.1069
 8292SOL    HW128278   4.987   4.511   9.910  0.3474  1.1887  1.5755
 8292SOL    HW228279   4.966   4.640   9.832 -0.4437  0.1835  0.0779
 8293SOL     OW28280   3.612   1.627   3.954  0.0779 -0.5920 -0.6139
 8293SOL    HW128281   3.555   1.609   4.030 -1.3297  1.8804 -0.9867
 8293SOL    HW228282   3.700   1.607   3.985 -0.3364  1.2503  2.0646
 8294SOL     OW28283   7.467   6.901   0.036  0.5146 -0.2825 -0.2607
 8294SOL    HW128284   7.514   6.872   0.115 -1.6573 -0.0813  1.1961
 8294SOL    HW228285   7.439   6.990   0.056  0.5985  0.0701 -1.6119
 8295SOL     OW28286   2.944   2.138   4.972  0.2491 -0.4344 -0.5298
 8295SOL    HW128287   2.871   2.112   4.916  2.1086 -0.5618 -3.1053
 8295SOL    HW228288   2.925   2.099   5.057 -2.1251 -1.3337 -1.4063
 8296SOL     OW28289   2.510   6.136   3.475  0.1741 -0.1746 -0.3304
 8296SOL    HW128290   2.502   6.040   3.476 -1.3970 -0.0711  0.8158
 8296SOL    HW228291   2.471   6.162   3.392 -0.9459 -0.4381  0.0996
 8297SOL     OW28292  10.780   0.002   9.287 -0.1931 -0.0861  0.1551
 8297SOL    HW128293  10.728   0.040   9.217  1.2175  3.5272  0.8313
 8297SOL    HW228294  10.859  -0.031   9.243  0.6829  2.1560 -0.0501
 8298SOL     OW28295   3.504   1.612   1.261  0.0255 -0.4292  0.6426
 8298SOL    HW128296   3.578   1.669   1.238  0.4662 -0.6767  1.4239
 8298SOL    HW228297   3.505   1.543   1.194 -0.2317  0.2127 -0.0402
 8299SOL     OW28298   2.827   4.203   6.398  0.7224  0.4736  0.3832
 8299SOL    HW128299   2.848   4.143   6.470 -0.0653  1.1957  1.2359
 8299SOL    HW228300   2.735   4.185   6.379  1.1326 -0.3053 -1.0468
 8300SOL     OW28301   8.021   3.286   0.830 -0.9482  0.0789  0.4336
 8300SOL    HW128302   8.003   3.381   0.828 -0.7702  0.2074  2.6936
 8300SOL    HW228303   8.094   3.277   0.891 -0.6981 -1.5057 -0.0727
 8301SOL     OW28304   4.567  10.492   2.292  0.1061  0.2325 -0.2692
 8301SOL    HW128305   4.480  10.485   2.254 -0.5541 -1.4854  1.3965
 8301SOL    HW228306   4.555  10.546   2.370  0.4668 -0.2888  0.1541
 8302SOL     OW28307   5.645   9.152   0.099  0.3008 -0.0427  0.1768
 8302SOL    HW128308   5.737   9.162   0.072  0.3235  0.7655  0.5170
 8302SOL    HW228309   5.600   9.123   0.020  0.5992  1.0221 -0.4055
 8303SOL     OW28310   7.274   2.005   9.746  0.3545  0.0537  0.0843
 8303SOL    HW128311   7.330   2.013   9.823 -0.0720  3.2435  0.1934
 8303SOL    HW228312   7.314   2.063   9.681 -0.7789 -0.4898 -1.1479
 8304SOL     OW28313   3.982   1.658  10.902 -0.4506 -0.3595  0.2606
 8304SOL    HW128314   4.014   1.745  10.874  2.2404 -1.6040 -0.9764
 8304SOL    HW228315   3.915   1.636  10.838 -1.9310  1.1904  1.2073
 8305SOL     OW28316   1.549   1.181  10.191 -0.2460 -0.0710 -0.0147
 8305SOL    HW128317   1.624   1.178  10.132  0.9641 -1.8887  1.5016
 8305SOL    HW228318   1.586   1.211  10.274 -1.3643 -0.2351  0.5565
 8306SOL     OW28319   5.373   2.334   3.303 -0.2151 -0.0384 -0.4010
 8306SOL    HW128320   5.324   2.405   3.262 -1.6529 -0.7366  0.0670
 8306SOL    HW228321   5.405   2.282   3.229  0.9787  1.1364 -0.7555
 8307SOL     OW28322   7.775   1.283   4.473  0.5987 -0.2375 -0.0387
 8307SOL    HW128323   7.753   1.309   4.562  1.1299 -1.2953  0.4234
 8307SOL    HW228324   7.867   1.308   4.462  0.5748 -0.2327 -0.2339
 8308SOL     OW28325   4.646   4.961   3.005  0.0712  0.1139 -0.4537
 8308SOL    HW128326   4.684   5.044   2.978 -0.2383  0.5691  0.5085
 8308SOL    HW228327   4.687   4.896   2.947  2.2513  0.5853  0.4845
 8309SOL     OW28328   9.038   8.219   3.163  0.1222  0.3536 -0.3186
 8309SOL    HW128329   9.027   8.277   3.238 -1.7943  0.6562 -0.7769
 8309SOL    HW228330   8.965   8.241   3.104  1.1412 -0.3852 -1.9344
 8310SOL     OW28331   3.808  10.182   4.133 -0.0145 -0.2080 -0.0492
 8310SOL    HW128332   3.854  10.101   4.111 -1.4546 -0.8678 -0.8231
 8310SOL    HW228333   3.798  10.180   4.228  0.4937 -0.6295 -0.0004
 8311SOL     OW28334   8.556   1.160   4.363  0.0641 -0.2748 -0.1719
 8311SOL    HW128335   8.627   1.221   4.382 -1.4090  0.7031  2.6490
 8311SOL    HW228336   8.515   1.195   4.284  0.6231  1.0792  0.1188
 8312SOL     OW28337  10.010   7.703   5.365 -0.6857  0.3101 -0.4472
 8312SOL    HW128338   9.933   7.759   5.368  0.7885  2.4759 -0.9611
 8312SOL    HW228339  10.062   7.728   5.441 -0.5291 -1.2248 -0.0186
 8313SOL     OW28340   0.032   2.797   1.266 -0.0133  0.1036 -0.0209
 8313SOL    HW128341   0.101   2.785   1.200 -0.7474  0.8460 -0.9580
 8313SOL    HW228342   0.029   2.714   1.313  0.5991 -0.4097 -0.8563
 8314SOL     OW28343  10.183   4.557   1.097  0.0480 -0.4030 -0.1121
 8314SOL    HW128344  10.112   4.494   1.111  0.5292 -1.0798 -0.6577
 8314SOL    HW228345  10.197   4.557   1.003 -1.1269  1.8632 -0.3550
 8315SOL     OW28346   1.159   2.027   5.867  0.2441  0.3444 -0.1468
 8315SOL    HW128347   1.156   2.119   5.895 -0.4068  0.5858 -0.9915
 8315SOL    HW228348   1.129   1.978   5.944 -1.1049  0.9650 -0.2526
 8316SOL     OW28349   8.821   9.857  10.622  0.2767  0.2415 -0.0564
 8316SOL    HW128350   8.866   9.820  10.546 -0.9256 -1.4788  0.0151
 8316SOL    HW228351   8.889   9.904  10.670  1.6955 -1.0998 -0.6778
 8317SOL     OW28352   7.965   0.631   2.910  0.6556 -0.2969 -0.2404
 8317SOL    HW128353   7.947   0.715   2.868 -2.5342 -0.8185 -0.1931
 8317SOL    HW228354   7.956   0.649   3.004 -1.2905 -0.8529 -0.2763
 8318SOL     OW28355   1.066   6.304   1.680 -0.1840  0.4746 -0.4253
 8318SOL    HW128356   0.999   6.244   1.714  0.1093 -0.6383 -1.7183
 8318SOL    HW228357   1.091   6.266   1.596  0.7733  1.8714 -0.7996
 8319SOL     OW28358   3.279   5.905   3.060  0.2203  0.0893 -0.0368
 8319SOL    HW128359   3.364   5.946   3.043  0.1876 -0.3583 -1.4398
 8319SOL    HW228360   3.218   5.953   3.003 -0.6069  0.8235  1.4244
 8320SOL     OW28361   4.263   2.277   0.609 -0.7335  0.0604 -0.3907
 8320SOL    HW128362   4.308   2.200   0.574 -0.5430  0.6600 -1.4947
 8320SOL    HW228363   4.199   2.300   0.542 -1.9051 -0.0628  0.6317
 8321SOL     OW28364   4.581   2.808   8.631 -0.4310 -0.0702 -0.0170
 8321SOL    HW128365   4.618   2.879   8.579 -0.1193 -0.1145  0.1427
 8321SOL    HW228366   4.529   2.757   8.568  0.2854 -0.3645 -0.3881
 8322SOL     OW28367   3.326   8.365   9.984  0.5934 -0.3543 -0.4279
 8322SOL    HW128368   3.356   8.394   9.898  1.3016 -1.0214 -0.4220
 8322SOL    HW228369   3.396   8.390  10.044  0.7599 -1.1593 -0.2741
 8323SOL     OW28370   8.121   6.627   6.589 -0.4467  0.1059 -0.5549
 8323SOL    HW128371   8.102   6.717   6.618 -0.3862  0.0972 -0.4876
 8323SOL    HW228372   8.202   6.604   6.635 -1.0618 -0.3944  0.3224
 8324SOL     OW28373   0.109   7.752   7.020  0.2637 -0.0198  0.1872
 8324SOL    HW128374   0.178   7.817   7.009  1.0846 -0.7438  0.8717
 8324SOL    HW228375   0.102   7.740   7.115 -0.4684 -0.3060  0.1049
 8325SOL     OW28376   8.683   9.639   8.054  0.4406  0.7665 -0.2655
 8325SOL    HW128377   8.765   9.607   8.016 -0.6585  0.8448 -2.9567
 8325SOL    HW228378   8.657   9.570   8.115  0.1072 -1.7260 -3.0058
 8326SOL     OW28379   8.099  10.057   3.459  0.1154 -0.3086 -0.2613
 8326SOL    HW128380   8.147  10.009   3.392  2.1917 -0.3899  1.1743
 8326SOL    HW228381   8.010  10.024   3.454  1.0359 -2.9241 -0.6016
 8327SOL     OW28382   4.481   4.002   3.898 -0.3603  0.3388 -0.4275
 8327SOL    HW128383   4.460   4.054   3.976  2.7316 -1.7152  2.0242
 8327SOL    HW228384   4.561   4.041   3.864 -1.1150  0.5600 -2.0369
 8328SOL     OW28385   4.073   7.634   5.012 -0.3364  0.1800 -0.5181
 8328SOL    HW128386   4.082   7.692   4.937 -1.0306  1.7132  0.5349
 8328SOL    HW228387   4.161   7.601   5.027  0.3094  1.8127 -0.5126
 8329SOL     OW28388   0.635   7.262   6.240 -0.1715 -0.2347 -0.1454
 8329SOL    HW128389   0.549   7.244   6.202 -0.3310 -0.5651  0.3635
 8329SOL    HW228390   0.690   7.189   6.209  0.0683  0.2658 -0.9144
 8330SOL     OW28391   5.903   2.500   5.638 -0.4393  0.4378 -0.3142
 8330SOL    HW128392   5.976   2.524   5.695  0.3607  0.7734 -1.4479
 8330SOL    HW228393   5.844   2.450   5.694  0.4953  0.4483  0.7065
 8331SOL     OW28394   3.378   1.600   8.804  0.3535  0.1538 -0.7629
 8331SOL    HW128395   3.400   1.691   8.783 -1.4800  0.7761 -0.1400
 8331SOL    HW228396   3.324   1.571   8.730 -0.4739  0.1418 -0.1630
 8332SOL     OW28397  10.797   8.435   8.510 -0.5927 -0.7060 -0.0494
 8332SOL    HW128398  10.797   8.513   8.455  1.2525 -1.1927 -0.8202
 8332SOL    HW228399  10.874   8.386   8.482 -1.4563 -2.6071  0.7116
 8333SOL     OW28400   0.081   1.885   0.459 -0.5672 -0.5009 -0.3773
 8333SOL    HW128401   0.064   1.799   0.422 -0.5510 -0.4380 -0.5333
 8333SOL    HW228402   0.123   1.934   0.388  0.2277 -0.6367 -0.0115
 8334SOL     OW28403   8.750   0.070   7.218 -1.0419  0.3045  0.0431
 8334SOL    HW128404   8.789  -0.017   7.227 -1.0051  0.2353 -0.7474
 8334SOL    HW228405   8.690   0.077   7.293  1.2772  0.8581  1.9721
 8335SOL     OW28406   8.166   8.260   0.852  0.2342 -0.3591 -0.3223
 8335SOL    HW128407   8.083   8.284   0.895 -0.3052 -1.2523 -0.8379
 8335SOL    HW228408   8.216   8.341   0.851 -0.4628  0.0995  0.3867
 8336SOL     OW28409   9.138   1.412   2.839  0.0348 -0.5610 -0.2398
 8336SOL    HW128410   9.115   1.473   2.769 -2.0381 -2.6771 -1.5120
 8336SOL    HW228411   9.159   1.330   2.795 -0.0062 -1.5869  1.5417
 8337SOL     OW28412   5.779   0.032   9.994 -0.2763 -0.5394  0.0923
 8337SOL    HW128413   5.873   0.028  10.014 -0.1939 -0.4123 -0.2630
 8337SOL    HW228414   5.751   0.117  10.029  0.0538  0.0766 -1.0936
 8338SOL     OW28415   2.381   2.223   8.825 -0.1481  0.4734  0.1787
 8338SOL    HW128416   2.362   2.249   8.735 -0.7751 -0.4779  0.0242
 8338SOL    HW228417   2.315   2.158   8.846 -0.1691  0.8713  1.4308
 8339SOL     OW28418   4.413   3.478   1.336  0.1263  0.1062 -0.3646
 8339SOL    HW128419   4.503   3.456   1.311  0.5090  1.7450 -0.6012
 8339SOL    HW228420   4.409   3.573   1.325 -1.6917  0.0413 -0.4834
 8340SOL     OW28421  10.645   8.513   8.733  0.2435 -0.4415 -0.2744
 8340SOL    HW128422  10.691   8.495   8.651 -0.1694  2.1188 -1.1765
 8340SOL    HW228423  10.553   8.522   8.707  0.0997  0.3341  0.4411
 8341SOL     OW28424   8.251   2.548   6.703 -0.1765 -0.7650 -0.2184
 8341SOL    HW128425   8.336   2.590   6.694 -0.6564 -0.0255 -2.0023
 8341SOL    HW228426   8.258   2.492   6.780  1.1790  1.0086  1.0187
 8342SOL     OW28427   1.332   8.817   5.621  0.0986 -0.1585 -0.3945
 8342SOL    HW128428   1.336   8.723   5.603  2.1310 -0.1783 -0.1031
 8342SOL    HW228429   1.338   8.858   5.535  0.3454 -0.2949 -0.4443
 8343SOL     OW28430   3.742   9.254   2.321 -0.1306  0.6072 -0.0368
 8343SOL    HW128431   3.773   9.320   2.259 -1.4182  1.3323  0.0699
 8343SOL    HW228432   3.822   9.213   2.354  0.6060  0.8412 -1.4784
 8344SOL     OW28433   9.543   6.167   3.417  0.1179 -0.4986 -0.6396
 8344SOL    HW128434   9.594   6.204   3.345 -0.3099 -0.2631 -0.8272
 8344SOL    HW228435   9.601   6.102   3.456  0.6893  0.0146 -0.6198
 8345SOL     OW28436   2.463   4.318   8.056 -0.1726  0.4629  0.8964
 8345SOL    HW128437   2.471   4.257   7.983  0.4573  0.9111  0.5833
 8345SOL    HW228438   2.395   4.280   8.112  0.3246 -0.6036  0.7903
 8346SOL     OW28439   5.842  10.207   5.296 -1.1608  0.3802  0.4226
 8346SOL    HW128440   5.914  10.157   5.258 -0.2500  1.7581  0.2427
 8346SOL    HW228441   5.763  10.159   5.272 -0.3423 -0.8071  0.0481
 8347SOL     OW28442   4.522  10.237   0.109  0.2489  1.0795  0.0128
 8347SOL    HW128443   4.464  10.161   0.112  2.3095 -0.6414 -0.9538
 8347SOL    HW228444   4.607  10.203   0.136  1.4164  2.8610 -1.2169
 8348SOL     OW28445   4.296   0.173   6.378  0.1043 -0.0586 -0.3498
 8348SOL    HW128446   4.293   0.216   6.464  2.4281  0.8884 -0.6600
 8348SOL    HW228447   4.282   0.080   6.397 -0.8832  0.3129  0.8502
 8349SOL     OW28448   8.293  10.625   3.465 -0.0585 -0.5353 -0.4207
 8349SOL    HW128449   8.280  10.636   3.371  3.5338  1.3572 -0.8669
 8349SOL    HW228450   8.371  10.570   3.472 -0.1006 -0.4081  1.4567
 8350SOL     OW28451   7.421   5.707   8.542 -0.7615  0.2103 -0.0063
 8350SOL    HW128452   7.455   5.719   8.454 -0.8349 -1.1153 -0.2371
 8350SOL    HW228453   7.379   5.621   8.540 -0.8855  0.2194  1.2824
 8351SOL     OW28454   3.579   8.999   0.280 -0.7641  0.2809  0.1926
 8351SOL    HW128455   3.521   8.937   0.236 -0.5341  0.7675 -0.8377
 8351SOL    HW228456   3.552   8.997   0.371 -1.5465 -0.4465 -0.0394
 8352SOL     OW28457   1.606   1.338   0.449  0.3907  0.3852 -0.0603
 8352SOL    HW128458   1.663   1.401   0.494  0.0220  1.1018 -0.5616
 8352SOL    HW228459   1.615   1.257   0.499  0.0514  1.1339  1.2584
 8353SOL     OW28460   2.457   9.466   1.143 -0.1385 -0.4427  0.1801
 8353SOL    HW128461   2.421   9.532   1.082  0.6649  0.6844  0.8866
 8353SOL    HW228462   2.385   9.449   1.204 -0.0716  0.4961  0.5453
 8354SOL     OW28463   4.343   6.132   1.343 -0.7078  0.5465  0.4734
 8354SOL    HW128464   4.341   6.178   1.259 -3.5714  0.3809  0.3674
 8354SOL    HW228465   4.416   6.173   1.390  0.5932  1.0736 -1.8058
 8355SOL     OW28466   2.369   6.145   5.846  0.6864 -0.2892  0.2610
 8355SOL    HW128467   2.396   6.237   5.845 -0.8265  0.1854  0.6621
 8355SOL    HW228468   2.308   6.137   5.772 -2.3084  0.0797  2.5282
 8356SOL     OW28469   9.116   1.208   4.215  0.2499 -0.4601 -0.4921
 8356SOL    HW128470   9.031   1.195   4.259  0.7295 -0.9735  0.3104
 8356SOL    HW228471   9.147   1.120   4.196  0.8304 -0.2882 -0.3410
 8357SOL     OW28472   2.355   2.345   7.498 -0.3679 -0.0796  0.1341
 8357SOL    HW128473   2.394   2.260   7.519 -0.1148  0.0564  0.2168
 8357SOL    HW228474   2.421   2.409   7.523 -0.1558  0.0973 -0.8542
 8358SOL     OW28475   6.051   2.079  10.235 -0.2403 -0.2535 -0.3649
 8358SOL    HW128476   6.065   1.989  10.207 -1.8378 -0.7576  0.3403
 8358SOL    HW228477   6.025   2.126  10.155  3.4448  0.3886 -1.4122
 8359SOL     OW28478   7.877   5.998   1.049  0.2307  0.3627 -0.4431
 8359SOL    HW128479   7.867   6.056   0.974  2.5095 -0.2114 -1.2855
 8359SOL    HW228480   7.810   5.931   1.037 -0.6326  1.2933 -0.9408
 8360SOL     OW28481   5.590   9.735   0.337  0.0090 -0.2153  0.0039
 8360SOL    HW128482   5.495   9.724   0.343 -0.0459  0.0832 -0.3055
 8360SOL    HW228483   5.614   9.790   0.412 -0.4070  1.8517 -1.3083
 8361SOL     OW28484   4.960   9.276   6.800  0.2074 -0.1566 -0.1315
 8361SOL    HW128485   4.949   9.358   6.751  1.2592  0.9036  1.2944
 8361SOL    HW228486   5.041   9.238   6.766 -0.9831 -1.3670 -1.7518
 8362SOL     OW28487   7.234   8.877   4.220 -0.5587 -0.1826  0.7740
 8362SOL    HW128488   7.309   8.849   4.167 -1.7115 -1.0093 -0.4883
 8362SOL    HW228489   7.241   8.826   4.301  0.6138  0.2795  0.9851
 8363SOL     OW28490   2.940   3.452   6.425 -0.2583  0.0792  0.2303
 8363SOL    HW128491   3.001   3.495   6.485 -0.6685  1.6301 -0.4153
 8363SOL    HW228492   2.989   3.377   6.391  0.5568  0.1243  1.2471
 8364SOL     OW28493   3.129   4.128   5.953 -0.2542 -0.0709  0.2447
 8364SOL    HW128494   3.206   4.181   5.973 -0.0696 -0.0792 -0.4141
 8364SOL    HW228495   3.084   4.117   6.037  0.1054  0.4941  0.5137
 8365SOL     OW28496   4.625   4.777   5.601 -0.3213  0.1064  0.1229
 8365SOL    HW128497   4.628   4.682   5.619  1.0416 -0.1115 -1.1426
 8365SOL    HW228498   4.656   4.786   5.512  1.6517  1.9391  0.9169
 8366SOL     OW28499   1.014   1.597  10.550 -0.2006 -0.5333  0.0251
 8366SOL    HW128500   1.056   1.547  10.480  0.4739 -1.5657  1.1484
 8366SOL    HW228501   1.056   1.683  10.545  1.2745 -1.1995  0.3975
 8367SOL     OW28502   7.778   4.735   8.297  0.3319  0.1663  0.2210
 8367SOL    HW128503   7.756   4.723   8.389  1.4053  0.0949  0.4879
 8367SOL    HW228504   7.819   4.652   8.272 -1.6917 -0.5643 -0.8856
 8368SOL     OW28505   5.002   9.693   1.158  0.6568 -0.0031  0.6114
 8368SOL    HW128506   4.941   9.684   1.232 -0.6403 -0.8210 -0.5042
 8368SOL    HW228507   4.982   9.778   1.120 -2.0669 -1.4506 -1.5861
 8369SOL     OW28508   6.683   6.608   4.206 -0.1775 -0.0518  0.2796
 8369SOL    HW128509   6.740   6.660   4.149 -0.6909  0.6890  0.4213
 8369SOL    HW228510   6.605   6.592   4.153 -0.1607 -0.3937  0.3566
 8370SOL     OW28511   7.149  10.076   2.415  0.1992 -0.0162 -0.7955
 8370SOL    HW128512   7.081  10.032   2.363  0.3292  0.9827 -1.8567
 8370SOL    HW228513   7.166  10.158   2.368  0.3763  0.9116  0.8105
 8371SOL     OW28514   1.653   0.465   9.801  0.1654  0.0232 -0.0775
 8371SOL    HW128515   1.705   0.441   9.879 -1.0794 -0.4239  0.6380
 8371SOL    HW228516   1.718   0.498   9.739  1.4806 -1.5255  0.3742
 8372SOL     OW28517   0.155   0.743   4.904  0.4549  0.2182 -0.0882
 8372SOL    HW128518   0.203   0.817   4.942 -1.7869  0.9392  1.5631
 8372SOL    HW228519   0.082   0.784   4.858 -0.1945 -0.9529 -0.1169
 8373SOL     OW28520   7.078   1.188   4.998  0.2935  0.2150  0.1939
 8373SOL    HW128521   7.118   1.275   4.993 -0.2973  0.4567 -0.4690
 8373SOL    HW228522   7.135   1.139   5.057  2.3525  0.1184 -1.7660
 8374SOL     OW28523   0.131   0.545   4.363 -0.1065 -0.1795  0.0112
 8374SOL    HW128524   0.112   0.630   4.402  1.5485 -0.0909  0.7042
 8374SOL    HW228525   0.221   0.552   4.331 -0.1089 -1.5045 -0.3590
 8375SOL     OW28526   1.882   3.619   2.592  0.1349 -0.1623  0.1437
 8375SOL    HW128527   1.928   3.631   2.509  0.7415 -2.5149  0.0528
 8375SOL    HW228528   1.796   3.658   2.578  0.6417  0.5576 -1.1542
 8376SOL     OW28529   4.280  10.277   2.136  0.4925 -0.2694 -0.1917
 8376SOL    HW128530   4.203  10.260   2.083  0.8546 -0.2663 -0.7270
 8376SOL    HW228531   4.267  10.366   2.168 -0.7621 -1.0162  1.5257
 8377SOL     OW28532   4.309  10.133  10.359 -0.2037 -0.1006  0.0418
 8377SOL    HW128533   4.260  10.051  10.360  1.0991 -0.9582 -1.3659
 8377SOL    HW228534   4.395  10.109  10.324  0.8859  1.5320  1.4366
 8378SOL     OW28535   9.447   8.026   2.583  0.5663 -0.0747 -0.6609
 8378SOL    HW128536   9.364   7.980   2.568  1.1326 -0.5170 -2.8896
 8378SOL    HW228537   9.427   8.117   2.564  0.7361 -0.2986 -2.0247
 8379SOL     OW28538   2.741   1.671   4.322 -0.6385 -0.4058 -0.2307
 8379SOL    HW128539   2.653   1.710   4.323  0.4582  2.4173  1.3357
 8379SOL    HW228540   2.746   1.623   4.405 -0.5956 -0.2569 -0.1463
 8380SOL     OW28541   9.829   0.157   8.006  0.0196 -0.0110 -0.3622
 8380SOL    HW128542   9.861   0.245   7.987  0.6382 -0.0815  0.3265
 8380SOL    HW228543   9.744   0.152   7.962 -0.8831  1.5712  1.0872
 8381SOL     OW28544   3.769   7.128   3.235  0.1911  0.0385  0.0179
 8381SOL    HW128545   3.687   7.171   3.261 -1.2681 -2.5279  0.0395
 8381SOL    HW228546   3.782   7.154   3.144  0.0352  1.4287  0.3677
 8382SOL     OW28547   0.546  10.511  10.454  0.5320 -0.1126 -0.4845
 8382SOL    HW128548   0.553  10.475  10.366  0.7650 -1.4526  0.0703
 8382SOL    HW228549   0.570  10.603  10.443  1.2269 -0.4109 -1.7026
 8383SOL     OW28550   2.541   5.054   4.876  0.1222  0.2408 -0.3230
 8383SOL    HW128551   2.497   5.120   4.822 -0.1097  1.3316  1.1325
 8383SOL    HW228552   2.631   5.086   4.884 -0.1825  0.7932  1.0032
 8384SOL     OW28553   7.935  10.809   9.049 -0.0494 -0.0654 -0.3493
 8384SOL    HW128554   7.904  10.729   9.092 -0.4316  0.4083  0.2749
 8384SOL    HW228555   8.029  10.798   9.041 -0.0904 -0.5329 -0.1733
 8385SOL     OW28556   2.438   5.392   5.634 -0.3489 -0.5475  0.0600
 8385SOL    HW128557   2.412   5.457   5.699 -2.2016 -1.0085 -0.1628
 8385SOL    HW228558   2.522   5.423   5.601  0.1014  0.2896  1.8586
 8386SOL     OW28559   5.164   2.556   7.863  0.5461 -0.6052 -0.2356
 8386SOL    HW128560   5.228   2.593   7.803  1.0074 -2.2679 -0.8403
 8386SOL    HW228561   5.136   2.475   7.821 -2.2449  0.2226 -0.1412
 8387SOL     OW28562   8.394   1.670  10.667 -0.0969  0.6789 -0.1189
 8387SOL    HW128563   8.371   1.577  10.660  0.4976  0.6334 -3.0393
 8387SOL    HW228564   8.311   1.716  10.660 -0.3014  0.4031  0.4124
 8388SOL     OW28565   0.469   3.625   7.007  0.3978 -0.5700  0.1552
 8388SOL    HW128566   0.450   3.715   6.981  2.3834 -0.7809 -2.3968
 8388SOL    HW228567   0.383   3.582   7.006 -0.2621  0.6795 -1.2190
 8389SOL     OW28568   1.608   6.803   2.834  0.4630 -0.8022 -0.4589
 8389SOL    HW128569   1.513   6.804   2.844  0.4851  2.7551  0.6753
 8389SOL    HW228570   1.623   6.760   2.750 -2.0718 -1.7514 -0.5234
 8390SOL     OW28571  10.867   9.001   7.328  0.1909  0.8180 -0.0789
 8390SOL    HW128572  10.853   8.917   7.370  0.9602  0.0273 -1.3260
 8390SOL    HW228573  10.813   8.997   7.249 -1.6076  2.4495  0.9799
 8391SOL     OW28574  10.102   2.472   5.155 -0.3236 -0.2983  0.6540
 8391SOL    HW128575  10.087   2.494   5.248 -1.7491 -2.9720  1.1646
 8391SOL    HW228576  10.189   2.433   5.153 -0.1550  0.0659  0.8046
 8392SOL     OW28577   1.127   9.805   5.144 -0.5075  0.2745  0.1237
 8392SOL    HW128578   1.092   9.889   5.173 -1.4052  1.2024 -3.2465
 8392SOL    HW228579   1.218   9.823   5.119 -0.5400  0.1409 -0.1023
 8393SOL     OW28580   1.172   7.052   2.837  0.2402  0.4827  0.0750
 8393SOL    HW128581   1.084   7.017   2.849  0.0655  1.0636  0.5402
 8393SOL    HW228582   1.227   7.004   2.899  0.4199 -0.4599 -0.7919
 8394SOL     OW28583   9.257   3.115   0.689 -0.0670  0.3771 -0.2632
 8394SOL    HW128584   9.214   3.143   0.770  0.5518 -1.2275  0.6693
 8394SOL    HW228585   9.323   3.182   0.672  1.2447 -0.3045  1.7848
 8395SOL     OW28586   8.526   2.745   4.977  0.4607 -0.3856 -0.3642
 8395SOL    HW128587   8.532   2.714   4.886  2.6061 -0.6047 -0.2032
 8395SOL    HW228588   8.614   2.733   5.012  0.0589  1.1341  1.3048
 8396SOL     OW28589   4.891   0.432   9.862 -0.4719  0.1285 -0.2755
 8396SOL    HW128590   4.823   0.492   9.895 -0.4889  0.0116 -0.0937
 8396SOL    HW228591   4.966   0.488   9.845 -0.1269  0.0564  0.9221
 8397SOL     OW28592   7.068   3.736   9.837  0.1774  0.0318  0.0208
 8397SOL    HW128593   7.114   3.696   9.763 -1.4418  1.3975 -1.8415
 8397SOL    HW228594   7.119   3.711   9.913  2.9232 -0.0302 -1.7011
 8398SOL     OW28595   8.103   6.582   9.400  0.4929  0.3016 -0.4043
 8398SOL    HW128596   8.198   6.584   9.391  0.7274  0.4064  1.6063
 8398SOL    HW228597   8.077   6.674   9.393  0.9659  0.7210  2.1813
 8399SOL     OW28598  10.078   7.732   8.439 -0.0249 -0.9669 -0.4233
 8399SOL    HW128599  10.038   7.786   8.507  0.1085 -1.0945 -0.2415
 8399SOL    HW228600  10.073   7.642   8.473 -1.3530 -1.2325 -1.2658
 8400SOL     OW28601   9.997   9.562   3.245  0.5159 -0.0816  0.1041
 8400SOL    HW128602  10.083   9.523   3.228  0.6032 -0.3030  0.9938
 8400SOL    HW228603   9.940   9.521   3.180  0.7690 -1.1299  0.5205
 8401SOL     OW28604   4.611   5.141   8.931  0.2484  0.1678  0.3639
 8401SOL    HW128605   4.649   5.069   8.879 -0.8876 -2.3739  2.8056
 8401SOL    HW228606   4.686   5.185   8.969  0.9728  0.2073 -1.0388
 8402SOL     OW28607   0.370   2.889   4.407  0.0507  0.3146  0.9159
 8402SOL    HW128608   0.406   2.941   4.334  0.9278 -0.6522  0.6305
 8402SOL    HW228609   0.313   2.950   4.454 -1.2120  0.7550 -1.0624
 8403SOL     OW28610   9.320   9.270   6.135  0.1862  0.5482 -0.3328
 8403SOL    HW128611   9.323   9.178   6.161 -2.5366  0.4493 -0.0618
 8403SOL    HW228612   9.244   9.305   6.182 -0.5028  2.2369 -2.5407
 8404SOL     OW28613   9.219   1.802   8.662 -0.4240 -0.4941 -0.1199
 8404SOL    HW128614   9.296   1.841   8.621 -0.3297 -0.8790 -0.3107
 8404SOL    HW228615   9.199   1.726   8.608 -1.8647  0.4592 -0.9922
 8405SOL     OW28616   9.707   9.318   9.724  0.3627 -0.3634  0.2499
 8405SOL    HW128617   9.627   9.276   9.757 -0.5073  1.2835  0.4061
 8405SOL    HW228618   9.770   9.310   9.796 -0.6543  0.8730  1.3350
 8406SOL     OW28619   2.065   4.051   1.069  0.0854  0.3704  0.1264
 8406SOL    HW128620   2.007   4.015   1.137  0.0134 -0.5780 -0.4161
 8406SOL    HW228621   2.150   4.011   1.085 -0.2696 -0.9892 -1.1734
 8407SOL     OW28622   8.976  10.256   8.571 -0.7992  0.1116 -0.0023
 8407SOL    HW128623   8.930  10.296   8.644  0.3472 -0.3162  0.9890
 8407SOL    HW228624   8.918  10.269   8.496 -1.4343  1.6925  0.7094
 8408SOL     OW28625   7.830   6.760  10.221  0.0171  0.3746  0.4936
 8408SOL    HW128626   7.855   6.676  10.182  1.1690  1.0571 -0.3214
 8408SOL    HW228627   7.797   6.811  10.148 -1.5016  0.3557  1.1452
 8409SOL     OW28628  10.080   6.757   6.079 -0.4426 -0.2494  0.2638
 8409SOL    HW128629  10.061   6.686   6.017 -1.0428  0.2678 -0.1628
 8409SOL    HW228630   9.994   6.782   6.113 -0.0178 -1.6301  2.5888
 8410SOL     OW28631   8.939   0.499   0.963 -0.2682  0.5662 -0.8585
 8410SOL    HW128632   8.866   0.438   0.956  0.5854 -0.6647  0.3319
 8410SOL    HW228633   8.981   0.496   0.877 -0.2318 -0.5721 -0.8205
 8411SOL     OW28634   3.520   1.746   7.336 -0.0554 -0.3298  0.2425
 8411SOL    HW128635   3.450   1.715   7.278 -0.4462  0.5396  0.2254
 8411SOL    HW228636   3.517   1.841   7.327  1.2422 -0.2905  0.1319
 8412SOL     OW28637   3.265   4.346   4.620  0.4307 -0.6075 -0.0972
 8412SOL    HW128638   3.171   4.329   4.614  0.6105 -1.8614  0.3101
 8412SOL    HW228639   3.276   4.388   4.705  0.2226 -0.2650 -0.2352
 8413SOL     OW28640   0.488  10.078   8.346  0.2038  0.3845 -0.3390
 8413SOL    HW128641   0.490   9.996   8.394  0.0207 -0.2697 -1.4089
 8413SOL    HW228642   0.520  10.056   8.259  1.1462  1.6672 -0.3597
 8414SOL     OW28643   9.841  10.322  10.533  0.6485  0.3155  0.0912
 8414SOL    HW128644   9.895  10.248  10.504  2.1817  1.1963  0.6105
 8414SOL    HW228645   9.885  10.399  10.499 -1.1830  1.0242 -0.8345
 8415SOL     OW28646  10.262   4.295   6.038  0.3657 -0.3776 -0.1018
 8415SOL    HW128647  10.313   4.342   6.104  1.5836 -0.6334 -0.8384
 8415SOL    HW228648  10.327   4.263   5.975 -0.5771 -1.7506 -0.4311
 8416SOL     OW28649   8.802   1.369   2.116 -0.1989 -0.0159 -0.3923
 8416SOL    HW128650   8.796   1.277   2.092 -0.9538  0.1195 -0.7446
 8416SOL    HW228651   8.889   1.377   2.157  0.2107 -0.6997 -1.0938
 8417SOL     OW28652   8.196   8.974  10.369 -0.3124 -0.0382 -0.0735
 8417SOL    HW128653   8.131   9.043  10.384  0.4255  0.5255  0.5783
 8417SOL    HW228654   8.280   9.016  10.385  0.2772 -0.5843 -1.5624
 8418SOL     OW28655   8.020   0.561   9.405 -0.2288  0.6479 -0.1094
 8418SOL    HW128656   8.010   0.618   9.329 -1.3488 -1.1677 -1.4007
 8418SOL    HW228657   7.973   0.605   9.476  0.7366  2.3097 -0.4642
 8419SOL     OW28658   5.484   1.792  10.737  0.4547  0.5892  0.4486
 8419SOL    HW128659   5.561   1.767  10.789  1.6019  2.3083 -0.3218
 8419SOL    HW228660   5.474   1.886  10.753 -0.8490  0.6002 -0.2962
 8420SOL     OW28661   0.787   9.338   9.029 -0.6101  0.5871  0.4334
 8420SOL    HW128662   0.801   9.274   9.099  1.0138  1.1614  0.6948
 8420SOL    HW228663   0.831   9.301   8.953  0.1139  1.2374  0.5166
 8421SOL     OW28664   1.180   9.309  10.415 -0.0912 -0.0494 -0.3212
 8421SOL    HW128665   1.214   9.242  10.354  0.0614 -0.2408 -0.0282
 8421SOL    HW228666   1.252   9.323  10.477 -0.7237 -0.8254  0.6108
 8422SOL     OW28667   8.117   3.669   3.083  0.2706 -0.2010 -0.0022
 8422SOL    HW128668   8.061   3.591   3.076  2.0397 -1.5955  0.5617
 8422SOL    HW228669   8.203   3.639   3.053  0.6287  2.0392 -1.4932
 8423SOL     OW28670  10.445   6.117   5.661 -0.4216 -0.2466 -0.2191
 8423SOL    HW128671  10.437   6.132   5.567 -0.3994  1.4319  0.0199
 8423SOL    HW228672  10.537   6.093   5.673 -0.8543 -2.4679 -0.8268
 8424SOL     OW28673   3.770  10.773   7.500  0.4763 -0.0707 -0.0448
 8424SOL    HW128674   3.801  10.776   7.410  0.5469 -0.9561 -0.0516
 8424SOL    HW228675   3.714  10.850   7.508  0.0464 -0.2716 -0.9969
 8425SOL     OW28676   1.365   6.445   5.228 -0.1423  0.3913  0.2100
 8425SOL    HW128677   1.434   6.488   5.177 -0.4153  1.1004  0.4282
 8425SOL    HW228678   1.359   6.497   5.308  0.0035 -0.4751  0.7945
 8426SOL     OW28679   7.538   9.323   1.069 -0.3836 -0.3332 -0.1996
 8426SOL    HW128680   7.627   9.287   1.066  0.1219  0.9215 -0.8911
 8426SOL    HW228681   7.486   9.261   1.017  0.8505  0.8125 -3.0389
 8427SOL     OW28682   4.057   4.399   0.298  0.5625 -0.4315 -0.6327
 8427SOL    HW128683   3.978   4.347   0.286  0.4934 -0.5211  0.1933
 8427SOL    HW228684   4.027   4.490   0.292 -0.5999 -0.1933  4.6567
 8428SOL     OW28685   9.549   5.839   5.952  0.5909 -0.2282 -0.3159
 8428SOL    HW128686   9.459   5.865   5.932  0.1854 -1.0340  0.4153
 8428SOL    HW228687   9.542   5.751   5.989  1.6387 -0.1599  0.0978
 8429SOL     OW28688   9.212   6.292   7.091 -0.2823  0.5799 -0.7661
 8429SOL    HW128689   9.278   6.356   7.065 -0.1980  0.4499 -0.8703
 8429SOL    HW228690   9.237   6.265   7.179 -0.1191  0.4310 -0.8575
 8430SOL     OW28691   5.374   1.029   1.049 -0.5919 -0.2408 -0.1695
 8430SOL    HW128692   5.388   1.106   1.103  0.3263  0.3367 -1.1885
 8430SOL    HW228693   5.278   1.019   1.047 -0.6502 -0.2627  1.4859
 8431SOL     OW28694  10.393  10.380   0.748  0.2597 -0.2355 -0.2513
 8431SOL    HW128695  10.397  10.315   0.677 -0.3268 -0.1242 -0.3913
 8431SOL    HW228696  10.305  10.370   0.785  0.9345 -1.0785  1.2200
 8432SOL     OW28697   2.179   5.273   8.468  0.0898 -0.1680 -0.2122
 8432SOL    HW128698   2.129   5.355   8.461 -0.7890 -0.7129 -0.4556
 8432SOL    HW228699   2.216   5.275   8.556 -2.9854 -1.2017  1.2307
 8433SOL     OW28700   3.051  10.271  10.619 -0.5382  0.2776  0.4159
 8433SOL    HW128701   2.982  10.333  10.641 -1.1737 -0.4977  0.6415
 8433SOL    HW228702   3.102  10.262  10.699 -1.6310 -0.9799  1.0117
 8434SOL     OW28703   5.304   6.065   3.143  0.0723 -0.0748 -0.3896
 8434SOL    HW128704   5.315   6.141   3.087 -1.1646  1.0239  0.7634
 8434SOL    HW228705   5.275   5.995   3.085  0.6492  0.4958 -1.3796
 8435SOL     OW28706   4.049   2.090   1.297  0.1980  0.7844  0.2186
 8435SOL    HW128707   3.969   2.134   1.324 -0.3052 -0.0587  0.1244
 8435SOL    HW228708   4.113   2.161   1.287 -0.1542  1.3260  1.6231
 8436SOL     OW28709   1.446   3.641   7.450 -0.5591 -0.6010 -0.1905
 8436SOL    HW128710   1.452   3.690   7.368  0.2462 -0.2432  0.0773
 8436SOL    HW228711   1.520   3.581   7.449 -1.3515 -1.6087 -0.3632
 8437SOL     OW28712   7.675   2.628   7.349 -0.6646  0.4730  0.7978
 8437SOL    HW128713   7.706   2.704   7.299  0.6494 -1.0424 -0.8566
 8437SOL    HW228714   7.584   2.617   7.322  0.1824 -0.6847 -1.9143
 8438SOL     OW28715   5.255   6.729   9.166  0.5907  0.1080  0.2465
 8438SOL    HW128716   5.178   6.672   9.174  2.7917 -3.0164  1.2468
 8438SOL    HW228717   5.327   6.669   9.149  3.0687  2.7329  0.7540
 8439SOL     OW28718   7.343   4.776   1.918 -0.1483 -0.5595 -0.0865
 8439SOL    HW128719   7.326   4.688   1.885  0.2730 -1.4371  1.8622
 8439SOL    HW228720   7.436   4.775   1.942 -0.7060 -0.4904  2.3409
 8440SOL     OW28721   6.373   5.796  10.546  0.2942 -0.4907 -0.1598
 8440SOL    HW128722   6.386   5.767  10.456 -0.3055 -0.8813 -0.1294
 8440SOL    HW228723   6.375   5.891  10.541  0.1015 -0.5087 -0.6171
 8441SOL     OW28724   4.964   5.665   8.125  0.4836  0.0132 -0.8307
 8441SOL    HW128725   4.987   5.753   8.095 -0.1368 -0.1970 -1.9878
 8441SOL    HW228726   5.029   5.645   8.192  0.6317  1.3517 -0.5427
 8442SOL     OW28727   2.389  10.831   3.888  0.0931 -0.5340 -0.4858
 8442SOL    HW128728   2.300  10.838   3.853  0.3367  2.4552 -0.7902
 8442SOL    HW228729   2.444  10.824   3.809  0.2088 -1.6408 -0.3238
 8443SOL     OW28730   0.613   4.090   1.509 -0.0477  0.1140  0.3037
 8443SOL    HW128731   0.571   4.017   1.463  1.0547 -0.1229 -0.3426
 8443SOL    HW228732   0.703   4.061   1.524  0.1958  1.0461  0.7075
 8444SOL     OW28733   0.201   5.819  10.187  0.0559  0.2750 -0.5934
 8444SOL    HW128734   0.179   5.730  10.214 -0.3882  0.9093  1.3085
 8444SOL    HW228735   0.132   5.873  10.225  1.2781  1.6068 -0.1527
 8445SOL     OW28736   6.268  10.764   4.298  0.2027 -0.2649  0.4091
 8445SOL    HW128737   6.356  10.742   4.268  0.3528  0.2633  0.4433
 8445SOL    HW228738   6.281  10.834   4.362 -0.3383  1.0404 -0.8538
 8446SOL     OW28739   8.370   8.149   0.618  0.3081 -0.6379 -0.1475
 8446SOL    HW128740   8.401   8.239   0.619  2.0560 -1.1863  1.6598
 8446SOL    HW228741   8.275   8.156   0.627  0.3081  1.0311 -1.2125
 8447SOL     OW28742   0.014  10.267   0.529  0.0793  0.0924  1.1492
 8447SOL    HW128743   0.103  10.235   0.544  0.1374 -0.2837  0.0404
 8447SOL    HW228744   0.021  10.327   0.455 -0.6941 -0.4813  0.5855
 8448SOL     OW28745   5.887   4.604   2.059  0.3068  1.0956  0.0468
 8448SOL    HW128746   5.968   4.560   2.035 -0.0955  0.5201 -0.2870
 8448SOL    HW228747   5.905   4.697   2.047  0.6406  0.9158 -0.8886
 8449SOL     OW28748   6.441   6.577   5.271  0.1598  0.0902  0.1476
 8449SOL    HW128749   6.371   6.639   5.248  0.5594  0.4077 -0.2328
 8449SOL    HW228750   6.412   6.494   5.233 -0.1629  0.1433  0.2698
 8450SOL     OW28751   2.021   8.291   4.228 -0.4011  0.4660 -0.0554
 8450SOL    HW128752   1.998   8.356   4.161 -0.2705  0.7793  0.2050
 8450SOL    HW228753   2.067   8.341   4.295  0.5094 -0.0519 -0.2776
 8451SOL     OW28754   7.097   2.295   4.278 -0.2612 -0.6628 -0.1140
 8451SOL    HW128755   7.036   2.335   4.216 -0.8855 -1.7495 -0.2289
 8451SOL    HW228756   7.183   2.305   4.237 -0.4681  0.0472 -0.3913
 8452SOL     OW28757   9.659   4.004   9.028  0.1744 -0.4180 -0.2124
 8452SOL    HW128758   9.734   4.017   8.969 -0.2215  0.3521 -0.5560
 8452SOL    HW228759   9.583   4.027   8.975 -0.2340 -0.3140  0.4170
 8453SOL     OW28760   4.955   9.122   3.809 -0.2057  0.1104  0.4252
 8453SOL    HW128761   4.895   9.050   3.826  0.4496 -0.9374 -1.3980
 8453SOL    HW228762   4.919   9.165   3.731  0.9909 -0.1213 -0.2932
 8454SOL     OW28763   5.372   1.649  10.531  0.4206  0.4876  0.1801
 8454SOL    HW128764   5.396   1.690  10.614 -1.1572 -0.4154  1.1422
 8454SOL    HW228765   5.281   1.677  10.516 -0.0965 -1.1902 -0.0362
 8455SOL     OW28766  10.352   0.364   2.569 -0.3040 -0.5279  0.1839
 8455SOL    HW128767  10.309   0.330   2.491  0.2275 -0.8129  0.0124
 8455SOL    HW228768  10.442   0.331   2.564 -0.9373 -2.9715  2.3091
 8456SOL     OW28769  10.504   5.003   4.322 -0.1698  0.6412  0.3739
 8456SOL    HW128770  10.578   5.030   4.376 -1.0831 -0.4770  2.3091
 8456SOL    HW228771  10.430   5.053   4.357 -0.5557  0.8901 -0.7595
 8457SOL     OW28772   8.775   8.989   6.923 -0.2409  0.7512 -0.4805
 8457SOL    HW128773   8.807   8.929   6.855 -0.1636 -0.3402  0.4742
 8457SOL    HW228774   8.814   9.073   6.901  2.2251 -0.2094 -0.1676
 8458SOL     OW28775   1.901   1.531   2.771 -0.2217  0.6548  0.2547
 8458SOL    HW128776   1.899   1.573   2.686  0.0815  1.8972  0.8430
 8458SOL    HW228777   1.992   1.540   2.800 -0.4737  0.8501  1.0015
 8459SOL     OW28778   9.277   9.216   8.357  0.3752  0.2098 -0.4522
 8459SOL    HW128779   9.186   9.221   8.387  0.1726 -1.0760 -0.8276
 8459SOL    HW228780   9.324   9.176   8.430  0.3659 -0.4671 -0.8113
 8460SOL     OW28781   6.277   2.090   2.660 -0.0535  0.1281 -0.0139
 8460SOL    HW128782   6.364   2.129   2.663  0.8364 -1.7430 -0.3022
 8460SOL    HW228783   6.279   2.021   2.727 -0.9508 -0.6006 -0.7068
 8461SOL     OW28784   7.886   8.498   3.134  0.4061  0.1017  0.5195
 8461SOL    HW128785   7.805   8.473   3.090 -0.4059  0.8657  1.5472
 8461SOL    HW228786   7.955   8.482   3.068 -0.3346 -2.3481  0.2624
 8462SOL     OW28787   2.774   8.936  10.501  0.4892  0.3388 -0.2024
 8462SOL    HW128788   2.822   8.917  10.420 -0.4036 -1.8326 -0.2736
 8462SOL    HW228789   2.696   8.982  10.472  0.2663 -0.2615 -0.5647
 8463SOL     OW28790   9.045   9.003   3.778 -0.1996  0.0094  0.5267
 8463SOL    HW128791   9.005   8.916   3.779  1.0648 -0.6911 -1.7262
 8463SOL    HW228792   8.974   9.063   3.804 -1.7228 -1.4832 -0.0051
 8464SOL     OW28793   4.898   6.505   0.471 -0.0227 -0.1486  0.0107
 8464SOL    HW128794   4.809   6.478   0.448 -0.3107  1.4008 -0.8238
 8464SOL    HW228795   4.932   6.544   0.391  0.3648  1.8777  1.0883
 8465SOL     OW28796   4.427   4.470   0.079  0.2473  0.0165 -0.2268
 8465SOL    HW128797   4.461   4.560   0.075  1.9942 -0.4167  2.3956
 8465SOL    HW228798   4.494   4.418   0.035  1.3603 -0.4073  1.8306
 8466SOL     OW28799   7.423  10.348   2.877 -0.4941  0.1868  0.6245
 8466SOL    HW128800   7.424  10.277   2.813  1.5759  1.3872 -0.7780
 8466SOL    HW228801   7.479  10.318   2.948 -0.0999  0.1714  0.3088
 8467SOL     OW28802   2.333   7.775   2.686 -0.1468  0.3630  0.3689
 8467SOL    HW128803   2.388   7.816   2.620  0.9594 -0.6359  0.6471
 8467SOL    HW228804   2.258   7.741   2.637  0.0464  0.7206 -0.1853
 8468SOL     OW28805   9.208   3.787   1.667  0.1400  0.4802 -0.0235
 8468SOL    HW128806   9.206   3.876   1.631  0.4129  0.1254 -0.9390
 8468SOL    HW228807   9.170   3.732   1.599 -0.9050 -0.0009  0.9149
 8469SOL     OW28808   7.187   9.782   8.096 -0.0303 -0.2103 -0.1035
 8469SOL    HW128809   7.262   9.737   8.057 -0.4954 -0.6558 -0.4983
 8469SOL    HW228810   7.147   9.829   8.023 -0.5749 -0.5873 -0.0523
 8470SOL     OW28811   9.617   5.154  10.767  0.5880  0.0548  0.1024
 8470SOL    HW128812   9.710   5.160  10.747  0.7152  1.0451  0.8806
 8470SOL    HW228813   9.602   5.226  10.828  0.1343 -2.3654  3.0662
 8471SOL     OW28814   2.399   8.577   8.020  0.1286 -0.1403 -0.1607
 8471SOL    HW128815   2.373   8.634   7.948  1.2901  0.4423 -0.1532
 8471SOL    HW228816   2.383   8.488   7.989 -1.8741  0.1637 -0.1141
 8472SOL     OW28817   6.114   7.726   9.866 -0.0280 -0.5525  0.1501
 8472SOL    HW128818   6.113   7.649   9.808 -1.4028  0.2969 -1.0493
 8472SOL    HW228819   6.026   7.729   9.903  0.1824  0.1294  0.6161
 8473SOL     OW28820   4.639   1.089   3.948  0.3777  0.2306 -0.1480
 8473SOL    HW128821   4.626   1.094   3.854 -1.4421  0.2362  0.0570
 8473SOL    HW228822   4.656   1.179   3.976  0.5140  0.2882 -0.4223
 8474SOL     OW28823   5.788   3.191   3.899  0.4354  0.1101 -0.0351
 8474SOL    HW128824   5.730   3.140   3.955  0.4284 -2.1857 -2.0053
 8474SOL    HW228825   5.867   3.205   3.951  0.3709 -1.8252  0.6282
 8475SOL     OW28826   4.539   9.374   5.763 -0.5795  0.5705  0.1088
 8475SOL    HW128827   4.491   9.293   5.745  1.3422 -1.2154  2.3841
 8475SOL    HW228828   4.544   9.378   5.858  1.4709  2.0729 -0.0138
 8476SOL     OW28829   2.297   0.607   1.247 -0.0161  0.1503 -0.3435
 8476SOL    HW128830   2.355   0.664   1.197 -0.5504  1.3859  0.4109
 8476SOL    HW228831   2.355   0.537   1.279  1.6472  2.5149  2.2869
 8477SOL     OW28832   8.571   2.381   8.711 -0.6744 -0.3841  0.1169
 8477SOL    HW128833   8.538   2.471   8.708  0.0940 -0.0643  0.7172
 8477SOL    HW228834   8.520   2.339   8.780 -0.2699 -0.0678  0.6216
 8478SOL     OW28835   7.209   2.185   2.975  0.0241 -0.1222 -0.1452
 8478SOL    HW128836   7.222   2.134   2.896  1.3131  0.0063 -0.0393
 8478SOL    HW228837   7.297   2.219   2.997 -0.5267  0.8773  0.6239
 8479SOL     OW28838   4.185   8.079   1.165 -0.0801 -0.3395  0.3936
 8479SOL    HW128839   4.197   8.064   1.071 -2.7942  0.4551 -0.1522
 8479SOL    HW228840   4.212   8.170   1.178 -0.8401 -0.0647  0.1143
 8480SOL     OW28841   3.447   9.765   1.042 -0.0374  0.2424 -0.2351
 8480SOL    HW128842   3.505   9.690   1.049 -1.3076 -0.9079 -1.3848
 8480SOL    HW228843   3.439   9.798   1.131  0.9369 -0.6818  0.2073
 8481SOL     OW28844   4.560   5.149  10.180 -0.4144 -0.0677 -0.2512
 8481SOL    HW128845   4.627   5.106  10.127  0.4553  1.2785 -0.2877
 8481SOL    HW228846   4.609   5.193  10.249 -1.0274  2.5738 -1.4063
 8482SOL     OW28847  10.788   4.860   5.720 -0.6797 -0.4079  0.5951
 8482SOL    HW128848  10.813   4.860   5.813  1.4081  0.8175  0.0687
 8482SOL    HW228849  10.707   4.911   5.718 -0.0427  0.6864  1.5745
 8483SOL     OW28850   6.308   8.611   5.703 -0.7497 -0.6152  0.0313
 8483SOL    HW128851   6.251   8.656   5.641  0.9033  0.3248 -0.8694
 8483SOL    HW228852   6.337   8.679   5.763 -0.4766 -1.0674  0.4210
 8484SOL     OW28853   8.074   1.078   2.251 -0.4173  0.5373 -0.2948
 8484SOL    HW128854   8.104   0.989   2.267 -0.5583  0.7349  1.2453
 8484SOL    HW228855   8.148   1.134   2.275 -0.7077  0.8812 -0.1868
 8485SOL     OW28856   0.116   0.245   1.289 -0.0056 -0.7197  0.1358
 8485SOL    HW128857   0.105   0.169   1.347 -0.1597 -0.4522  0.4552
 8485SOL    HW228858   0.196   0.287   1.320 -0.6822  0.0608  0.8829
 8486SOL     OW28859   5.249   4.673   3.263 -0.4467 -0.3904  0.1265
 8486SOL    HW128860   5.226   4.584   3.236 -0.9921 -0.5629  1.1081
 8486SOL    HW228861   5.330   4.693   3.216  0.5806 -2.0143  1.1453
 8487SOL     OW28862   1.709   1.453   5.617  0.0144 -0.1269 -0.5665
 8487SOL    HW128863   1.696   1.531   5.670  0.9874  0.4808 -1.1939
 8487SOL    HW228864   1.677   1.478   5.530  0.6405 -0.3082 -0.8526
 8488SOL     OW28865   5.648   6.569   2.603 -0.0041 -0.2750 -0.2975
 8488SOL    HW128866   5.739   6.592   2.585 -0.1264 -0.4291 -1.1340
 8488SOL    HW228867   5.607   6.562   2.517 -0.7431 -0.4840  0.0608
 8489SOL     OW28868   8.749   5.211   4.991 -0.7367 -0.1438 -0.2832
 8489SOL    HW128869   8.681   5.274   5.018  0.1597  0.8980 -0.4030
 8489SOL    HW228870   8.788   5.250   4.913  0.1192 -0.6450 -0.1115
 8490SOL     OW28871   9.467   2.944   6.586  0.8057 -0.0579  0.0917
 8490SOL    HW128872   9.528   2.978   6.520 -0.0153 -0.1357 -0.7231
 8490SOL    HW228873   9.524   2.907   6.653  1.7148  1.6668  0.3510
 8491SOL     OW28874   7.831  10.849   5.850 -0.3128 -0.2662  0.3815
 8491SOL    HW128875   7.916  10.868   5.889 -0.4605  0.7352  0.2618
 8491SOL    HW228876   7.793  10.936   5.833 -0.8494 -0.6873 -0.6589
 8492SOL     OW28877   4.918   0.125   7.781 -0.1055  0.4801 -0.0654
 8492SOL    HW128878   4.931   0.151   7.690  2.5595 -0.0854  0.0829
 8492SOL    HW228879   4.923   0.208   7.830 -0.0825  0.6300 -0.3181
 8493SOL     OW28880   1.705   6.268   4.954 -0.4743  0.0208  0.5592
 8493SOL    HW128881   1.657   6.257   5.036 -2.8917 -2.5722 -0.9892
 8493SOL    HW228882   1.641   6.307   4.894  0.9992  1.1636 -0.3463
 8494SOL     OW28883  10.438   6.524   9.104  0.5225  0.3025 -0.5277
 8494SOL    HW128884  10.362   6.535   9.047 -0.0093 -0.7504 -0.0565
 8494SOL    HW228885  10.450   6.610   9.145 -1.1179  0.2182  0.2296
 8495SOL     OW28886   6.927   3.447   3.093 -0.6135 -0.2440  0.0036
 8495SOL    HW128887   6.877   3.516   3.136  0.7942  0.6899  0.2315
 8495SOL    HW228888   6.902   3.453   3.001 -1.0101  0.1146  0.1330
 8496SOL     OW28889   5.250   4.815   6.319 -0.4197 -0.5083  0.4201
 8496SOL    HW128890   5.200   4.883   6.274  0.0611 -0.6622 -0.3720
 8496SOL    HW228891   5.334   4.857   6.338  0.2844 -1.1957 -1.0510
 8497SOL     OW28892   5.351   0.501   1.497  0.0422 -0.1273  0.1062
 8497SOL    HW128893   5.326   0.548   1.576  1.3948 -0.3772  0.7172
 8497SOL    HW228894   5.279   0.516   1.436 -0.4298  1.1445  0.9335
 8498SOL     OW28895   2.449   5.717   0.817  0.7561  0.2429 -0.0662
 8498SOL    HW128896   2.456   5.622   0.827 -1.0155  0.0337 -0.4292
 8498SOL    HW228897   2.431   5.729   0.723  0.4238  0.8949  0.0789
 8499SOL     OW28898   0.746   8.351   3.591 -0.0003  0.1629  0.3969
 8499SOL    HW128899   0.725   8.357   3.684  0.3444 -0.0194  0.4876
 8499SOL    HW228900   0.779   8.262   3.579 -1.3361 -0.2983 -0.1689
 8500SOL     OW28901   9.941  10.891   3.805 -0.0451 -0.3841  0.2153
 8500SOL    HW128902   9.858  10.846   3.818 -0.9134  0.7795 -1.0656
 8500SOL    HW228903   9.937  10.924   3.715  2.3636 -1.4248 -0.3518
 8501SOL     OW28904  10.230   9.604   8.039 -0.3605  0.1436  0.4272
 8501SOL    HW128905  10.179   9.550   8.100 -0.2175 -0.7000 -0.1845
 8501SOL    HW228906  10.297   9.645   8.095 -1.1731  0.5943  1.0862
 8502SOL     OW28907   0.088   4.001   0.184  0.1777  0.8046  0.2247
 8502SOL    HW128908   0.125   3.923   0.226 -0.0682  0.6184  0.1022
 8502SOL    HW228909   0.087   3.979   0.090 -2.6943 -0.2865  0.4025
 8503SOL     OW28910   4.618   0.818   5.981  0.5111 -0.1189  0.2092
 8503SOL    HW128911   4.565   0.740   5.963  0.0709  0.1695  0.2195
 8503SOL    HW228912   4.580   0.855   6.060  1.7279 -0.7571  1.1166
 8504SOL     OW28913   2.431   9.706   9.285  0.3784 -0.2278  0.3319
 8504SOL    HW128914   2.337   9.705   9.303  0.2667 -1.5530 -0.1880
 8504SOL    HW228915   2.468   9.765   9.351 -0.9286  1.1837 -0.1382
 8505SOL     OW28916   7.719   7.271   1.220 -0.3256 -0.4692 -0.5191
 8505SOL    HW128917   7.702   7.340   1.285  0.0410 -0.3451 -0.5582
 8505SOL    HW228918   7.708   7.315   1.136  1.9673  0.0777 -0.5806
 8506SOL     OW28919   1.459   8.739  10.373  0.5482  0.2338 -0.3668
 8506SOL    HW128920   1.541   8.758  10.418 -0.0837 -1.3280  1.5691
 8506SOL    HW228921   1.413   8.823  10.371  1.1775  0.6174  0.7116
 8507SOL     OW28922  10.622   1.317   9.955 -0.5041  0.0654 -0.3929
 8507SOL    HW128923  10.622   1.394   9.898 -1.9190 -0.0412 -0.5763
 8507SOL    HW228924  10.572   1.251   9.907 -0.0884 -0.6750  0.1567
 8508SOL     OW28925   8.644   8.032   6.729  0.1596  0.1489  0.5803
 8508SOL    HW128926   8.633   8.062   6.639 -0.6441 -1.8798 -0.0549
 8508SOL    HW228927   8.733   7.996   6.731 -0.8685 -2.7273 -0.4093
 8509SOL     OW28928   0.594   4.775   3.807 -0.1871 -0.4496 -0.5909
 8509SOL    HW128929   0.583   4.684   3.778 -0.2398  0.4309 -3.6248
 8509SOL    HW228930   0.509   4.815   3.794  0.4464  0.6049 -1.6249
 8510SOL     OW28931   8.233   4.435   3.112  0.1430  0.0013 -0.4991
 8510SOL    HW128932   8.288   4.357   3.116  0.3929  0.1410 -1.0255
 8510SOL    HW228933   8.218   4.449   3.018  0.2162  0.6587 -0.4199
 8511SOL     OW28934   3.672   5.583   2.470 -0.0251  0.2493 -0.2668
 8511SOL    HW128935   3.617   5.562   2.545  1.0198 -0.1971  0.3897
 8511SOL    HW228936   3.708   5.499   2.441  0.8198  0.6025 -0.2790
 8512SOL     OW28937   4.561   4.612   1.083  0.2586 -0.1964  0.2816
 8512SOL    HW128938   4.528   4.696   1.051 -1.9491 -0.6496  1.2272
 8512SOL    HW228939   4.656   4.619   1.073  0.0091  1.5846 -1.6039
 8513SOL     OW28940   3.622  10.276   0.982 -0.4846 -0.7387  0.5367
 8513SOL    HW128941   3.566  10.203   1.008 -0.5084 -0.2517  1.9662
 8513SOL    HW228942   3.572  10.354   1.009 -0.2393 -0.1985 -0.5035
 8514SOL     OW28943   0.943   2.189   6.067  0.4321 -0.0756 -0.1414
 8514SOL    HW128944   0.997   2.140   6.130 -2.4113 -0.2047  2.4756
 8514SOL    HW228945   0.919   2.125   6.001  1.0393 -0.8084  0.3300
 8515SOL     OW28946   9.845   3.128   9.878  0.4268 -0.5448 -0.6584
 8515SOL    HW128947   9.936   3.103   9.889  0.2187 -0.9444  0.2506
 8515SOL    HW228948   9.843   3.221   9.900  0.5841 -0.5766 -0.5057
 8516SOL     OW28949   1.294  10.672   2.207 -0.3434 -0.0945  0.7753
 8516SOL    HW128950   1.254  10.601   2.258 -0.4819 -0.1832  0.5430
 8516SOL    HW228951   1.298  10.638   2.118 -0.6414  0.2876  0.6166
 8517SOL     OW28952   8.192   3.947   4.118 -0.0167  0.1214 -0.0437
 8517SOL    HW128953   8.222   3.997   4.042  0.2657  0.7524  0.4816
 8517SOL    HW228954   8.122   4.001   4.157 -0.2780 -0.2788  0.0496
 8518SOL     OW28955   4.624   5.776   8.288  0.0168 -0.0844  0.2010
 8518SOL    HW128956   4.678   5.709   8.247 -0.7578 -0.8397  0.3869
 8518SOL    HW228957   4.653   5.858   8.247  0.3119 -0.6397 -0.7372
 8519SOL     OW28958   2.841   3.298   3.796 -0.0406  0.0411  0.0469
 8519SOL    HW128959   2.926   3.292   3.839 -0.4397 -0.8541  0.7308
 8519SOL    HW228960   2.847   3.377   3.742  1.6239 -0.6264 -0.8145
 8520SOL     OW28961   0.920   7.928   5.121 -0.5033 -0.0083 -0.1616
 8520SOL    HW128962   0.885   8.009   5.159  0.4370 -0.2895  1.4108
 8520SOL    HW228963   0.863   7.859   5.154 -0.4419 -0.1280 -0.3055
 8521SOL     OW28964   8.564   0.190   0.742  0.1285  0.2021  0.8443
 8521SOL    HW128965   8.572   0.165   0.649  1.0846  2.0513  0.3784
 8521SOL    HW228966   8.470   0.194   0.757 -0.0493 -1.0374  0.2364
 8522SOL     OW28967   1.784   1.603   6.280 -0.5618 -0.9040 -0.1881
 8522SOL    HW128968   1.694   1.628   6.303 -0.1410  0.7851 -0.1939
 8522SOL    HW228969   1.784   1.595   6.185 -0.0426  2.4053 -0.5863
 8523SOL     OW28970   3.526   0.194   5.716 -0.1004  0.3453  0.4864
 8523SOL    HW128971   3.469   0.210   5.791 -1.6195  0.6120 -0.6562
 8523SOL    HW228972   3.589   0.129   5.746  0.9246  2.2246  2.7216
 8524SOL     OW28973   4.755   3.704   9.799  0.6641 -0.2400  0.3516
 8524SOL    HW128974   4.759   3.640   9.728  0.6980 -0.5605  0.6378
 8524SOL    HW228975   4.661   3.715   9.816  0.6597 -0.2364  0.3245
 8525SOL     OW28976   7.888   6.288   9.059 -0.4266  0.0199  0.4815
 8525SOL    HW128977   7.955   6.334   9.108  1.9476 -2.9126  0.2922
 8525SOL    HW228978   7.818   6.271   9.123  1.6027 -1.7853  2.3847
 8526SOL     OW28979   1.688   1.427   7.782  0.1394  0.9296  0.4833
 8526SOL    HW128980   1.730   1.462   7.703 -0.1438  2.2161  0.8745
 8526SOL    HW228981   1.595   1.442   7.768  0.0671  0.8865  0.9211
 8527SOL     OW28982   0.100   5.079   1.666  0.0116  0.6203  0.3529
 8527SOL    HW128983   0.034   5.055   1.602  0.1610  0.6840  0.1735
 8527SOL    HW228984   0.132   4.996   1.701  0.9737  0.5197 -0.7148
 8528SOL     OW28985   5.572   6.874   0.732 -0.0384 -0.0928 -0.1581
 8528SOL    HW128986   5.565   6.920   0.648  0.6868 -0.8080 -0.6254
 8528SOL    HW228987   5.506   6.805   0.727 -1.2273  0.9508  0.6020
 8529SOL     OW28988   5.918   5.324   8.627  1.1427  0.6848 -0.2245
 8529SOL    HW128989   5.927   5.418   8.641 -0.9453  1.3579 -2.6400
 8529SOL    HW228990   6.002   5.298   8.590  0.7908  2.2833 -2.3489
 8530SOL     OW28991   6.841   9.539   0.120 -0.0295 -0.2460  0.5430
 8530SOL    HW128992   6.850   9.486   0.199  2.3421 -0.8498 -0.0538
 8530SOL    HW228993   6.793   9.617   0.149  0.4707 -0.6098  2.4843
 8531SOL     OW28994   2.135   4.184   4.982 -0.3264 -0.3006 -0.4406
 8531SOL    HW128995   2.078   4.252   5.017 -0.8756 -0.8486 -0.2454
 8531SOL    HW228996   2.145   4.122   5.055 -1.0992 -1.2161 -1.1015
 8532SOL     OW28997   6.048   8.546   0.136  0.3710  0.0993 -0.4984
 8532SOL    HW128998   6.075   8.558   0.045  0.4987 -1.4946 -0.7074
 8532SOL    HW228999   5.969   8.492   0.131 -1.3616  2.3847  0.2412
 8533SOL     OW29000   0.526   0.329   5.165 -0.2255 -0.0813 -0.0345
 8533SOL    HW129001   0.558   0.249   5.208 -0.0380 -0.1587 -0.3120
 8533SOL    HW229002   0.494   0.299   5.080  0.5585  0.2401 -0.4600
 8534SOL     OW29003   3.690   3.705   6.020  0.2490 -0.2833 -0.4329
 8534SOL    HW129004   3.680   3.612   6.002 -0.3987 -0.7176  1.8426
 8534SOL    HW229005   3.631   3.722   6.094  1.2168  1.6679 -0.0388
 8535SOL     OW29006   6.868   6.556   9.125 -0.0067 -0.6527 -0.0537
 8535SOL    HW129007   6.792   6.572   9.068 -0.8949 -1.7620  0.7790
 8535SOL    HW229008   6.845   6.598   9.208  0.6027 -0.3899 -0.0129
 8536SOL     OW29009   2.184   6.949   5.108  0.0877  0.1088  0.2279
 8536SOL    HW129010   2.243   7.018   5.078  0.7639 -0.6043 -0.1132
 8536SOL    HW229011   2.099   6.992   5.116  0.2634  0.7344 -1.0518
 8537SOL     OW29012   6.648   4.456   3.431  0.0483  0.2331  0.2086
 8537SOL    HW129013   6.574   4.507   3.399  0.0196  0.0180 -0.0616
 8537SOL    HW229014   6.720   4.480   3.373 -0.3990 -1.4009 -1.0640
 8538SOL     OW29015   7.110  10.294  10.063  0.5676 -0.0830 -0.1320
 8538SOL    HW129016   7.019  10.265  10.067  0.8283 -0.7988  1.3726
 8538SOL    HW229017   7.105  10.388  10.047 -0.3380 -0.5783 -3.5476
 8539SOL     OW29018   2.656   4.186   8.990 -0.3204 -0.4777 -0.2316
 8539SOL    HW129019   2.689   4.106   8.948 -0.7344  0.5224 -2.6222
 8539SOL    HW229020   2.733   4.241   9.001 -0.2268 -0.6989  0.2238
 8540SOL     OW29021   6.054   2.817   2.316 -0.0500 -0.4910  0.4173
 8540SOL    HW129022   6.108   2.895   2.327 -1.9858  0.5667  3.8001
 8540SOL    HW229023   5.968   2.850   2.291 -0.6579 -1.5919  0.9786
 8541SOL     OW29024  10.160   0.391   3.939 -0.5811  0.3173  0.4187
 8541SOL    HW129025  10.140   0.297   3.935  0.8853  0.0238 -1.1879
 8541SOL    HW229026  10.194   0.404   4.028  1.1235 -1.1387  0.0359
 8542SOL     OW29027  10.871   2.770  10.223 -0.0464 -0.0631 -0.1202
 8542SOL    HW129028  10.920   2.724  10.154 -1.4546 -1.8635 -0.0242
 8542SOL    HW229029  10.908   2.858  10.225  0.8219 -0.3059 -2.3802
 8543SOL     OW29030   9.255   5.820   1.314 -0.7444 -0.0260  0.1967
 8543SOL    HW129031   9.256   5.914   1.300  0.2881  0.1722  1.4116
 8543SOL    HW229032   9.194   5.807   1.386 -0.2180 -0.1843  0.6195
 8544SOL     OW29033   9.696   4.454   3.317  0.3945  0.6036  0.7980
 8544SOL    HW129034   9.774   4.483   3.365  0.0678 -0.4057  1.9974
 8544SOL    HW229035   9.656   4.389   3.374  0.4345 -1.3169 -1.2169
 8545SOL     OW29036   1.348   6.743   2.710  0.7620 -0.5462 -0.2725
 8545SOL    HW129037   1.321   6.779   2.795  2.7875 -0.9543  0.5990
 8545SOL    HW229038   1.266   6.730   2.663 -0.3914  0.1597  1.4197
 8546SOL     OW29039   8.408   8.749   3.949 -0.0059 -0.6840 -0.0513
 8546SOL    HW129040   8.487   8.756   3.895 -0.8280 -0.1614 -1.2198
 8546SOL    HW229041   8.440   8.756   4.039  1.0816  1.7974 -0.5561
 8547SOL     OW29042   6.793   1.693   4.243  0.7734  0.2305  0.4821
 8547SOL    HW129043   6.878   1.667   4.208  0.8025 -1.1625  1.5244
 8547SOL    HW229044   6.744   1.723   4.166  0.5387 -3.5161 -1.0273
 8548SOL     OW29045   1.901   6.354   1.866  0.5510 -0.0845  0.2869
 8548SOL    HW129046   1.985   6.311   1.848  0.9280  0.6934  0.1392
 8548SOL    HW229047   1.887   6.412   1.791 -0.8281 -1.2363 -0.3830
 8549SOL     OW29048   6.789   9.754   4.086  0.5489 -0.3556  0.3253
 8549SOL    HW129049   6.791   9.794   4.173  1.5033 -0.1362  0.2103
 8549SOL    HW229050   6.781   9.660   4.103 -0.0432 -0.2527  0.6323
 8550SOL     OW29051   1.443   1.628   0.180 -0.1732 -0.3227 -0.0678
 8550SOL    HW129052   1.383   1.596   0.247 -0.1226 -0.2044  0.0346
 8550SOL    HW229053   1.526   1.640   0.226  0.4654 -2.2856 -0.5987
 8551SOL     OW29054   3.196   0.528   9.311 -0.0396  0.3229  0.3025
 8551SOL    HW129055   3.100   0.533   9.320 -0.3955 -0.5311 -2.1442
 8551SOL    HW229056   3.210   0.447   9.262  1.9266  0.6352  0.2969
 8552SOL     OW29057   6.947   4.836   9.607 -0.3552  0.3998 -0.2823
 8552SOL    HW129058   6.983   4.919   9.575 -0.8544  0.4093 -0.8369
 8552SOL    HW229059   6.892   4.860   9.681 -2.8708  0.9619 -2.2021
 8553SOL     OW29060   5.897   4.039   6.985  0.3565 -0.1506  0.3575
 8553SOL    HW129061   5.846   3.999   7.056 -0.2734  0.4039  0.2203
 8553SOL    HW229062   5.945   4.110   7.026 -0.0754  0.2266  0.2186
 8554SOL     OW29063   1.297   2.807   5.930  0.2765  0.3040 -0.1290
 8554SOL    HW129064   1.377   2.757   5.949 -1.3796 -1.9093  1.4867
 8554SOL    HW229065   1.231   2.771   5.989 -1.7580  2.6212 -0.8135
 8555SOL     OW29066   1.382   0.903   4.369 -0.8122 -0.1525  0.3924
 8555SOL    HW129067   1.328   0.922   4.446 -1.7739  0.6625 -0.4584
 8555SOL    HW229068   1.406   0.989   4.335 -1.0216 -0.4884 -0.6345
 8556SOL     OW29069   2.295   4.952   4.000  0.2418 -0.3111  0.6252
 8556SOL    HW129070   2.372   4.901   4.028  1.2506 -0.5761 -2.3487
 8556SOL    HW229071   2.276   4.920   3.912 -0.7241  2.6303 -0.3280
 8557SOL     OW29072   6.306   5.229   3.076  0.2834  0.2991  0.3088
 8557SOL    HW129073   6.345   5.198   3.158 -0.7975 -0.7696  0.4580
 8557SOL    HW229074   6.237   5.289   3.104  0.2218  0.2970  0.1619
 8558SOL     OW29075   2.047   7.799   8.691  0.7664 -0.2722  0.1950
 8558SOL    HW129076   2.101   7.721   8.679  0.7312 -0.0801 -1.3948
 8558SOL    HW229077   2.100   7.856   8.747  2.5266  0.1482 -1.7639
 8559SOL     OW29078   5.113   1.773   7.931  0.3341  1.2129  0.6031
 8559SOL    HW129079   5.150   1.698   7.885  1.4436  2.9779 -1.5794
 8559SOL    HW229080   5.030   1.740   7.968 -0.6091 -0.4124 -2.6163
 8560SOL     OW29081  10.113   1.253   6.771 -0.3088 -0.2607 -0.2091
 8560SOL    HW129082  10.038   1.220   6.820 -1.5081  0.3111 -1.6045
 8560SOL    HW229083  10.180   1.268   6.838 -2.0279  0.9858  1.3347
 8561SOL     OW29084   8.158   2.840   5.101 -0.0786 -0.0508  0.0350
 8561SOL    HW129085   8.086   2.904   5.103 -0.2675 -0.2250 -0.7902
 8561SOL    HW229086   8.166   2.811   5.192  0.0383  1.1739  0.4393
 8562SOL     OW29087   9.860   8.142   1.151 -0.0887 -0.1489 -0.1571
 8562SOL    HW129088   9.833   8.104   1.068  1.6110 -1.8154 -0.0171
 8562SOL    HW229089   9.871   8.235   1.133 -2.2101 -0.0230 -1.0963
 8563SOL     OW29090   6.723  10.432   1.263  0.2069  0.4004  0.1268
 8563SOL    HW129091   6.791  10.459   1.201  0.9177 -2.9253 -0.7405
 8563SOL    HW229092   6.771  10.389   1.333 -0.7765  1.9666  1.8289
 8564SOL     OW29093  10.489   0.588   4.883 -0.0124 -0.6672 -0.6751
 8564SOL    HW129094  10.494   0.499   4.916 -1.6991 -0.5104  0.0856
 8564SOL    HW229095  10.563   0.633   4.924  0.7617 -1.6456 -0.9468
 8565SOL     OW29096   9.152   8.613   4.632  0.4398  0.3730  0.6120
 8565SOL    HW129097   9.214   8.685   4.624 -0.5971  1.3365  1.0876
 8565SOL    HW229098   9.098   8.635   4.708 -0.4421 -0.4737  0.2627
 8566SOL     OW29099   7.742   2.141   8.186  0.1274 -0.2656  1.4223
 8566SOL    HW129100   7.742   2.060   8.135  0.8830 -0.0835  1.1214
 8566SOL    HW229101   7.689   2.202   8.134  0.2969 -0.3012  1.2059
 8567SOL     OW29102   3.697   8.237   9.606  0.0648 -0.7402 -0.4754
 8567SOL    HW129103   3.680   8.247   9.699  0.3309 -0.2448 -0.4788
 8567SOL    HW229104   3.773   8.181   9.600  0.3139 -0.4139 -0.3811
 8568SOL     OW29105   8.035  10.428   5.046 -0.1163 -0.2779 -0.1289
 8568SOL    HW129106   7.968  10.423   5.114  0.6495  0.4137  0.6983
 8568SOL    HW229107   8.108  10.473   5.088  0.0601  0.9469 -1.6779
 8569SOL     OW29108  10.450   1.007   2.545 -0.0727 -0.4233 -0.0074
 8569SOL    HW129109  10.475   0.927   2.593  1.5764 -1.2737 -2.1014
 8569SOL    HW229110  10.526   1.065   2.554 -0.8571  0.5359  0.6441
 8570SOL     OW29111   3.149  10.875   6.501  0.1388 -0.3202  0.0588
 8570SOL    HW129112   3.130  10.939   6.569 -1.4900 -1.1642  0.4415
 8570SOL    HW229113   3.202  10.808   6.544 -0.0826 -0.3740  0.2441
 8571SOL     OW29114   1.516   9.712   0.819 -0.6454 -0.0296 -0.0675
 8571SOL    HW129115   1.455   9.764   0.767  1.7327  1.8319 -1.1882
 8571SOL    HW229116   1.523   9.629   0.772 -0.8308  0.4843 -1.0290
 8572SOL     OW29117   5.983   7.909   2.695  0.0829 -0.2009 -0.3734
 8572SOL    HW129118   5.914   7.963   2.734  0.2871 -1.2808  1.5538
 8572SOL    HW229119   6.064   7.938   2.737  0.2790 -1.5442  0.2188
 8573SOL     OW29120  10.275   0.117   7.306 -0.3018  0.0838 -0.5196
 8573SOL    HW129121  10.325   0.196   7.323  0.4748 -0.6289  0.6104
 8573SOL    HW229122  10.303   0.055   7.373 -0.6512 -1.2634 -1.5615
 8574SOL     OW29123  10.600  10.837   1.069  0.0652  0.5658  0.3119
 8574SOL    HW129124  10.686  10.847   1.030  1.2844  0.2680  2.7482
 8574SOL    HW229125  10.542  10.891   1.014  1.3109 -0.8487 -2.6193
 8575SOL     OW29126   4.552   9.898   0.943 -0.6213  0.6131 -0.0334
 8575SOL    HW129127   4.591   9.970   0.992 -0.7628  0.3546  0.4591
 8575SOL    HW229128   4.458   9.903   0.964 -1.2753  2.4756 -2.7217
 8576SOL     OW29129   1.723   8.794   8.871 -0.4125 -0.2518  0.0398
 8576SOL    HW129130   1.721   8.777   8.777  0.9463 -0.9247  0.1107
 8576SOL    HW229131   1.631   8.789   8.898 -0.6382 -2.1368 -0.9021
 8577SOL     OW29132   1.416   8.050   2.638  0.5690  0.1386  0.2655
 8577SOL    HW129133   1.432   8.001   2.719  1.1662  1.2267  0.8474
 8577SOL    HW229134   1.491   8.029   2.582  0.3332 -0.3458  0.1256
 8578SOL     OW29135   6.162   5.436   0.060  0.2697 -0.4223 -0.0899
 8578SOL    HW129136   6.205   5.475   0.136  0.2625 -0.3819 -0.1059
 8578SOL    HW229137   6.220   5.364   0.034  0.0585 -0.6996  0.2045
 8579SOL     OW29138   5.858   8.319   2.616 -0.1713  0.4213 -0.1643
 8579SOL    HW129139   5.800   8.295   2.544 -0.0012 -0.9055  0.1168
 8579SOL    HW229140   5.821   8.275   2.692  0.1032  1.1675  0.4152
 8580SOL     OW29141  10.749   0.520   9.230  0.7557  0.0491  0.1724
 8580SOL    HW129142  10.654   0.519   9.244  0.1593  2.0660 -2.7077
 8580SOL    HW229143  10.761   0.478   9.145  2.4866 -0.3643  0.5893
 8581SOL     OW29144   8.130   6.097   4.835  0.5253  0.1598  0.0526
 8581SOL    HW129145   8.057   6.056   4.789  1.4698 -0.0963 -1.2964
 8581SOL    HW229146   8.093   6.126   4.918 -1.1008  0.0316 -0.5844
 8582SOL     OW29147   2.263   8.780   3.687  0.2259  0.0845  0.2870
 8582SOL    HW129148   2.309   8.745   3.763  0.9362  0.3171 -0.0224
 8582SOL    HW229149   2.218   8.858   3.720  1.2353  0.6801  0.2970
 8583SOL     OW29150   9.523   6.336   7.123 -0.7353 -0.2245  0.0152
 8583SOL    HW129151   9.579   6.266   7.087  2.0582  1.4734  0.7869
 8583SOL    HW229152   9.484   6.297   7.201  1.8837 -0.6386  1.2476
 8584SOL     OW29153   2.444   9.576   6.127 -0.2730 -0.0475 -0.3748
 8584SOL    HW129154   2.536   9.552   6.113 -0.2905 -1.4641  1.5417
 8584SOL    HW229155   2.447   9.671   6.142  0.8817 -0.0792 -0.2911
 8585SOL     OW29156   8.839   6.823   2.780 -0.1573 -0.5813 -0.6553
 8585SOL    HW129157   8.810   6.904   2.736 -1.4541 -0.9949 -0.6197
 8585SOL    HW229158   8.934   6.830   2.784 -0.2810  1.2357 -0.1062
 8586SOL     OW29159   0.902   3.768   1.861  0.4089 -0.3864  0.0645
 8586SOL    HW129160   0.848   3.735   1.789  1.1346  0.4680 -0.9035
 8586SOL    HW229161   0.934   3.852   1.831 -1.4265  1.3245  2.4870
 8587SOL     OW29162   2.814   0.465   9.671  0.4687  0.3049 -0.1369
 8587SOL    HW129163   2.887   0.427   9.623  0.3191  0.0478 -0.1600
 8587SOL    HW229164   2.855   0.522   9.737  0.7338 -0.8593  0.7322
 8588SOL     OW29165   0.074   8.011   6.470  0.6314  0.1233 -0.6720
 8588SOL    HW129166   0.022   7.950   6.522  1.1966  0.2307  0.0494
 8588SOL    HW229167   0.164   7.996   6.500  0.9521  0.3007 -1.5235
 8589SOL     OW29168   1.944   5.899   7.970  0.3669 -0.0069 -0.1190
 8589SOL    HW129169   1.887   5.829   7.938 -1.2544  0.5063  1.4933
 8589SOL    HW229170   1.913   5.978   7.925 -0.5897  0.3597  1.1164
 8590SOL     OW29171   3.190   6.019   0.141 -0.5684  0.0821 -0.2439
 8590SOL    HW129172   3.161   5.972   0.064 -1.4025 -1.3119  0.8642
 8590SOL    HW229173   3.180   6.111   0.119 -0.7127 -0.2905 -1.8059
 8591SOL     OW29174   3.045   0.232   9.342 -0.0685 -0.3361  0.3607
 8591SOL    HW129175   3.033   0.137   9.342 -0.6778 -0.3347 -2.5608
 8591SOL    HW229176   3.124   0.247   9.291  0.9355  0.7308  2.1027
 8592SOL     OW29177   0.434   8.721  10.371 -0.4336  0.4779  0.0130
 8592SOL    HW129178   0.524   8.747  10.394 -0.5402  0.6409  0.2446
 8592SOL    HW229179   0.379   8.784  10.417 -0.6593  0.6446 -0.4778
 8593SOL     OW29180   9.000   7.968   4.204 -0.4673  0.2500  0.5646
 8593SOL    HW129181   9.091   7.997   4.215 -0.4407  1.3068 -1.8319
 8593SOL    HW229182   8.968   8.018   4.129 -2.9876 -0.2550  1.2266
 8594SOL     OW29183  10.147   8.907   5.249 -1.2127  0.1729 -0.9055
 8594SOL    HW129184  10.112   8.921   5.162 -1.4651  0.5099 -0.7515
 8594SOL    HW229185  10.165   8.813   5.253 -1.4503  0.1150 -1.2242
 8595SOL     OW29186   3.779   9.416   2.599  0.8598  0.1978 -0.1193
 8595SOL    HW129187   3.701   9.368   2.571  0.6530 -0.2564  1.1401
 8595SOL    HW229188   3.810   9.460   2.521 -1.3166  1.3221 -0.4198
 8596SOL     OW29189   8.244   2.749   0.347  0.6337 -0.3283 -0.3291
 8596SOL    HW129190   8.218   2.796   0.426  1.0646 -1.9908  0.8611
 8596SOL    HW229191   8.319   2.696   0.375 -1.2581 -3.5494 -0.8942
 8597SOL     OW29192   9.956  10.916   5.947 -0.0228 -0.0481 -0.1556
 8597SOL    HW129193   9.914  10.843   5.991  1.9738 -1.1451 -0.0056
 8597SOL    HW229194   9.972  10.980   6.016 -0.5345 -0.0305 -0.0461
 8598SOL     OW29195   5.485   2.381   0.183 -0.1579 -0.3204  0.6478
 8598SOL    HW129196   5.576   2.411   0.181 -0.0687 -0.6042  0.0588
 8598SOL    HW229197   5.436   2.453   0.222  0.3419 -0.2214  1.0991
 8599SOL     OW29198   1.760   9.553   0.545 -0.0136 -0.4332 -0.1823
 8599SOL    HW129199   1.746   9.545   0.450  0.6894 -1.4563 -0.2145
 8599SOL    HW229200   1.706   9.484   0.583  0.7594 -0.9225  0.0548
 8600SOL     OW29201   8.620   7.038   6.888  0.0633 -0.2912  0.3247
 8600SOL    HW129202   8.713   7.036   6.912 -0.1977 -0.5593  1.3954
 8600SOL    HW229203   8.575   7.059   6.970 -0.8812 -1.0341  0.0172
 8601SOL     OW29204   6.978   2.843   7.083 -0.3907  0.1367 -0.3235
 8601SOL    HW129205   6.935   2.927   7.065 -0.7337  0.4877  1.8654
 8601SOL    HW229206   6.973   2.795   7.000  0.6224  2.5889 -1.9179
 8602SOL     OW29207   5.305   9.653   1.673  0.1491  0.1352 -0.3373
 8602SOL    HW129208   5.393   9.621   1.653  0.0468 -0.9500  0.8540
 8602SOL    HW229209   5.282   9.612   1.756 -0.4797  2.3900  0.6800
 8603SOL     OW29210   7.583   8.906   2.466  0.6460  0.5049 -0.3433
 8603SOL    HW129211   7.550   8.994   2.483  1.9022  1.2019 -1.3153
 8603SOL    HW229212   7.678   8.915   2.470  0.8079 -1.2823  1.7049
 8604SOL     OW29213   3.973   6.661   7.310 -0.2151  0.1344 -0.2272
 8604SOL    HW129214   3.978   6.724   7.382  0.1492  1.4564 -1.3661
 8604SOL    HW229215   4.062   6.661   7.273 -0.5238 -0.1497 -0.9797
 8605SOL     OW29216   5.254   6.940   9.399 -0.8198 -0.1539  0.1283
 8605SOL    HW129217   5.227   6.897   9.318 -0.4421  1.6441 -1.0016
 8605SOL    HW229218   5.350   6.934   9.400 -0.8810 -3.0562  2.1704
 8606SOL     OW29219   7.696   2.463   6.721 -0.3830  0.2334 -0.7557
 8606SOL    HW129220   7.690   2.512   6.639 -0.5008  1.8761  0.1762
 8606SOL    HW229221   7.788   2.466   6.745 -0.5799  1.1420 -0.0572
 8607SOL     OW29222   6.195   4.125   4.747  0.0978 -0.3142 -0.1246
 8607SOL    HW129223   6.210   4.056   4.683  1.7773 -0.0270 -0.0686
 8607SOL    HW229224   6.236   4.093   4.828 -0.3034  0.1748  0.2829
 8608SOL     OW29225   4.882   8.938   8.849  0.7771  0.3902 -0.0191
 8608SOL    HW129226   4.878   9.022   8.804  0.4152 -0.1585 -1.0425
 8608SOL    HW229227   4.882   8.960   8.942  3.0551  1.6250 -0.2447
 8609SOL     OW29228   1.428   7.782  10.403  0.7552 -0.3946 -0.5156
 8609SOL    HW129229   1.461   7.870  10.387 -2.8782  1.1113 -0.7121
 8609SOL    HW229230   1.393   7.785  10.492  0.2712 -1.5149 -0.6484
 8610SOL     OW29231   6.976   0.492   6.433  0.4797 -0.3149 -0.0125
 8610SOL    HW129232   6.916   0.462   6.364 -0.7406 -0.7960  1.2028
 8610SOL    HW229233   7.037   0.420   6.445  0.6806 -0.2394 -0.5736
 8611SOL     OW29234   3.329  10.512   7.037  0.3735 -0.0913  0.3532
 8611SOL    HW129235   3.252  10.466   7.068  0.5786 -1.5166 -1.1122
 8611SOL    HW229236   3.391  10.442   7.014  0.4349  0.7870 -2.6218
 8612SOL     OW29237   6.739   3.003   1.565 -0.3666 -0.4883 -0.0962
 8612SOL    HW129238   6.710   3.049   1.486 -0.5641 -0.7247 -0.1633
 8612SOL    HW229239   6.748   2.912   1.537  2.5026 -0.1288 -0.6590
 8613SOL     OW29240   1.209   5.730   3.050 -0.2825  0.1276 -0.2864
 8613SOL    HW129241   1.284   5.735   3.109  0.5445  1.6383 -1.3996
 8613SOL    HW229242   1.142   5.683   3.100  1.8876 -2.7424  0.1889
 8614SOL     OW29243   1.723   7.896   0.301 -0.1201 -0.1857 -0.0142
 8614SOL    HW129244   1.810   7.866   0.329 -0.6548 -0.5990  1.2708
 8614SOL    HW229245   1.669   7.818   0.304 -0.7542  0.2513  0.0816
 8615SOL     OW29246   5.262   2.862   6.140  0.4890  0.2479  0.2904
 8615SOL    HW129247   5.291   2.953   6.146  1.8150 -0.1298 -0.0605
 8615SOL    HW229248   5.262   2.843   6.046 -0.0239 -0.0391  0.3463
 8616SOL     OW29249   3.739   5.695  10.703 -0.3724  0.3634  0.1979
 8616SOL    HW129250   3.702   5.750  10.773 -1.2623  0.7143 -0.5231
 8616SOL    HW229251   3.665   5.680  10.644  0.2798 -0.2390 -0.4771
 8617SOL     OW29252   7.588  10.647   6.882  0.3251 -0.1207  0.1591
 8617SOL    HW129253   7.579  10.642   6.977 -0.4248 -1.7231  0.0353
 8617SOL    HW229254   7.523  10.713   6.855  0.3222  0.1120  0.7316
 8618SOL     OW29255   6.680   6.510   5.118  0.0595  0.0924  0.0829
 8618SOL    HW129256   6.725   6.429   5.143  0.6779  0.0457 -1.1068
 8618SOL    HW229257   6.597   6.507   5.165 -0.3180 -1.6609 -0.6113
 8619SOL     OW29258   2.685   9.465   6.097 -0.2924  0.0018 -0.0677
 8619SOL    HW129259   2.757   9.498   6.042 -0.5408  1.3325  0.3598
 8619SOL    HW229260   2.729   9.424   6.172  0.0977 -3.0685 -1.8157
 8620SOL     OW29261  10.468   9.976   8.420  0.3003  0.0687  0.5387
 8620SOL    HW129262  10.513   9.903   8.462  0.6592  0.9523  1.7666
 8620SOL    HW229263  10.538  10.038   8.398 -0.0459  0.2777  0.0023
 8621SOL     OW29264   0.021   5.071   5.598  0.1618 -0.0247 -0.2783
 8621SOL    HW129265  -0.029   5.147   5.627 -0.0627  0.3155 -1.5137
 8621SOL    HW229266  -0.015   4.998   5.649 -0.3080  0.5224  0.1854
 8622SOL     OW29267  10.426   5.723   8.644  0.5758 -0.0817  0.2601
 8622SOL    HW129268  10.340   5.746   8.679  0.2779  0.7732 -0.9447
 8622SOL    HW229269  10.407   5.691   8.555  1.4316 -0.7371  0.3017
 8623SOL     OW29270   6.500   0.562   2.127 -0.2390  0.0457 -0.8880
 8623SOL    HW129271   6.427   0.619   2.102  1.3823  2.1952 -1.0571
 8623SOL    HW229272   6.558   0.562   2.050  0.1735 -1.2077 -0.5957
 8624SOL     OW29273   4.729  10.704   2.477 -0.1611 -0.5333  0.6415
 8624SOL    HW129274   4.794  10.670   2.415 -0.2075  0.3738  0.0695
 8624SOL    HW229275   4.763  10.680   2.563 -0.3307 -2.2303  0.2683
 8625SOL     OW29276   3.165   0.615   9.620  0.2956 -0.2149  0.2644
 8625SOL    HW129277   3.158   0.520   9.604 -0.6989  0.0518 -0.9887
 8625SOL    HW229278   3.167   0.654   9.533  1.8801  0.8725  0.7417
 8626SOL     OW29279   2.494   2.823   0.231  0.3759 -0.5353 -0.2779
 8626SOL    HW129280   2.485   2.772   0.311 -1.3734  1.8964  1.2089
 8626SOL    HW229281   2.429   2.787   0.171 -0.9018 -0.0410  0.7760
 8627SOL     OW29282   4.721   5.816   3.470  0.3583  0.3809  0.1452
 8627SOL    HW129283   4.696   5.872   3.543  0.7685 -0.4045  0.9060
 8627SOL    HW229284   4.707   5.870   3.392 -1.3877  0.7744  0.6887
 8628SOL     OW29285   3.255   6.956   8.429  0.3678  0.2710  0.3242
 8628SOL    HW129286   3.171   6.941   8.385  1.5274 -1.0200 -1.5804
 8628SOL    HW229287   3.277   6.872   8.469  1.1444  0.3635  0.0984
 8629SOL     OW29288   9.103   0.896   0.325 -0.2268  0.0931 -0.1412
 8629SOL    HW129289   9.055   0.926   0.248 -2.3783  0.3574  1.2050
 8629SOL    HW229290   9.186   0.944   0.323  0.0801 -0.4269 -2.6107
 8630SOL     OW29291   5.888   8.901   2.824  0.2747 -0.2038  0.5260
 8630SOL    HW129292   5.931   8.817   2.809  2.6140  0.4855  2.6988
 8630SOL    HW229293   5.864   8.899   2.916  1.3265  1.8548  0.9013
 8631SOL     OW29294  10.538   3.582   7.580  0.1355 -0.5176 -0.2484
 8631SOL    HW129295  10.559   3.652   7.642  0.5954 -0.9069  0.0396
 8631SOL    HW229296  10.623   3.554   7.546 -0.1137 -0.3039 -1.0620
 8632SOL     OW29297   8.648   4.557   2.520  0.3798 -0.3789 -0.2114
 8632SOL    HW129298   8.695   4.629   2.477 -0.2667 -0.1644 -0.5643
 8632SOL    HW229299   8.556   4.580   2.512  0.2347  0.4617  2.6863
 8633SOL     OW29300   4.893   3.643   3.627 -0.3243  0.0828 -0.2276
 8633SOL    HW129301   4.930   3.616   3.711 -1.1614 -2.9863 -0.7519
 8633SOL    HW229302   4.967   3.644   3.567  0.1860  1.8038  0.3582
 8634SOL     OW29303   3.218  10.626   3.677  0.7083 -0.0992 -0.0869
 8634SOL    HW129304   3.274  10.617   3.600 -0.3678  2.0744 -1.2382
 8634SOL    HW229305   3.250  10.704   3.721  0.7733 -0.8425  1.2251
 8635SOL     OW29306   5.393  10.861  10.295 -0.1710  1.2034 -0.7918
 8635SOL    HW129307   5.415  10.949  10.326  2.9458  0.7677 -1.4655
 8635SOL    HW229308   5.459  10.804  10.335 -1.6452 -0.7302 -0.9946
 8636SOL     OW29309   0.726   6.164  10.800  0.1117 -0.2252  0.2367
 8636SOL    HW129310   0.707   6.148  10.893 -2.1976 -2.0769 -0.4551
 8636SOL    HW229311   0.654   6.219  10.770 -0.1382 -1.1133 -0.8350
 8637SOL     OW29312   0.616   8.586   8.833 -0.3260 -0.2360 -0.0904
 8637SOL    HW129313   0.534   8.571   8.786 -0.7583  1.8209 -0.0714
 8637SOL    HW229314   0.611   8.677   8.862  0.5955 -0.9707  2.6633
 8638SOL     OW29315   9.666   1.622   4.145  0.0918 -0.3036  0.0081
 8638SOL    HW129316   9.660   1.667   4.060  0.3162 -0.1153  0.0935
 8638SOL    HW229317   9.703   1.536   4.124  1.2646  0.1747  0.0683
 8639SOL     OW29318   1.078   3.733   2.263 -0.1381  0.5499  0.1866
 8639SOL    HW129319   1.068   3.649   2.217  1.6887  0.6766 -0.5104
 8639SOL    HW229320   1.017   3.727   2.337  0.8237 -1.8832  0.8680
 8640SOL     OW29321   0.755   6.420  10.524  0.3542 -0.0863 -0.0363
 8640SOL    HW129322   0.788   6.334  10.496 -0.3145 -0.8969  1.5456
 8640SOL    HW229323   0.796   6.434  10.610  3.2145  2.8046 -1.6423
 8641SOL     OW29324   3.094   5.141   2.096 -0.5491 -0.2840  0.3886
 8641SOL    HW129325   3.178   5.146   2.143 -0.2137 -1.1898 -0.0907
 8641SOL    HW229326   3.105   5.200   2.021 -0.3214 -0.4394  0.2989
 8642SOL     OW29327   9.603   0.882   5.129 -0.2562 -0.2073 -0.1473
 8642SOL    HW129328   9.691   0.915   5.113  0.1908 -0.2931  1.8687
 8642SOL    HW229329   9.563   0.946   5.189 -1.4538 -0.3335 -0.7830
 8643SOL     OW29330   9.074   8.731   0.915 -0.0001 -1.0268 -0.0212
 8643SOL    HW129331   9.032   8.801   0.965 -0.5600 -0.6399 -0.9961
 8643SOL    HW229332   9.093   8.771   0.830  2.0093 -1.3140  0.2559
 8644SOL     OW29333  10.529   5.243  10.857  0.7437  0.5985  0.3489
 8644SOL    HW129334  10.552   5.225  10.948  0.5863 -0.4143  0.2016
 8644SOL    HW229335  10.493   5.332  10.858 -0.8178 -0.0036  1.5752
 8645SOL     OW29336   3.896   8.434  10.042  0.1511  0.5000 -0.4523
 8645SOL    HW129337   3.845   8.383  10.105 -1.8171  0.5090 -1.9584
 8645SOL    HW229338   3.939   8.368   9.987  2.5852  0.4700  1.3024
 8646SOL     OW29339   2.829   3.544   0.238 -0.3713 -0.2976 -0.0182
 8646SOL    HW129340   2.744   3.575   0.270 -0.8042 -0.4780 -0.9737
 8646SOL    HW229341   2.893   3.591   0.292 -1.0684 -1.5436  2.0463
 8647SOL     OW29342   9.693  10.656   4.747 -0.4021  0.7706 -0.6169
 8647SOL    HW129343   9.751  10.730   4.764 -0.5473  1.2569 -2.0933
 8647SOL    HW229344   9.752  10.581   4.742  0.0529  1.1714 -1.5291
 8648SOL     OW29345   4.223   4.574   1.546 -0.2348 -0.5627 -0.1297
 8648SOL    HW129346   4.155   4.618   1.495  0.9637 -1.1973 -2.4210
 8648SOL    HW229347   4.215   4.481   1.523  2.4488 -0.4709 -1.9327
 8649SOL     OW29348   1.597   9.097   2.950 -0.1084 -0.0331  0.3107
 8649SOL    HW129349   1.644   9.029   2.999 -0.5473  0.1568  1.0189
 8649SOL    HW229350   1.510   9.059   2.935  0.0291 -0.0979 -0.3592
 8650SOL     OW29351   2.475   4.463   3.638 -0.3845  0.1260  0.2841
 8650SOL    HW129352   2.459   4.498   3.551  0.0964 -1.0151 -0.2914
 8650SOL    HW229353   2.422   4.517   3.696  0.1817  1.6608 -0.5613
 8651SOL     OW29354   4.621   8.488   5.603  0.0779 -0.4758 -0.0306
 8651SOL    HW129355   4.702   8.448   5.634  0.5669  1.4903  1.3731
 8651SOL    HW229356   4.615   8.460   5.512  2.3903 -0.5975 -0.2145
 8652SOL     OW29357   3.013   5.591   3.406 -0.4256  0.3830 -0.6169
 8652SOL    HW129358   3.088   5.568   3.351 -0.6842 -0.2698 -0.7067
 8652SOL    HW229359   3.052   5.636   3.481  0.0640  0.0166 -0.6438
 8653SOL     OW29360   1.142   9.999   7.178  0.2072 -0.0273 -0.6194
 8653SOL    HW129361   1.123  10.024   7.087  0.0891  0.3188 -0.5001
 8653SOL    HW229362   1.059  10.007   7.224  0.1396 -0.7699 -0.6033
 8654SOL     OW29363   1.525   0.632   6.377  0.3079  0.1026  0.3401
 8654SOL    HW129364   1.609   0.605   6.413  0.0439 -0.1927  0.7379
 8654SOL    HW229365   1.514   0.578   6.299  1.0814  1.0442 -0.4643
 8655SOL     OW29366   9.385   5.301   9.639  0.3422  0.0507 -0.7121
 8655SOL    HW129367   9.330   5.253   9.701  1.3658 -1.5322 -0.9591
 8655SOL    HW229368   9.360   5.393   9.650 -0.2069 -0.2935  1.3374
 8656SOL     OW29369   3.425   2.760   8.864 -0.1012 -0.2560  0.1325
 8656SOL    HW129370   3.381   2.694   8.811 -2.4112 -1.1230  2.8527
 8656SOL    HW229371   3.502   2.715   8.898  0.3574 -0.2991 -0.9255
 8657SOL     OW29372   4.176   6.660   1.964  0.4105 -0.1272  0.3295
 8657SOL    HW129373   4.087   6.692   1.949  0.8365  0.8291 -0.2448
 8657SOL    HW229374   4.232   6.735   1.944  1.4638 -1.2415 -1.1356
 8658SOL     OW29375   6.383   9.418   3.127 -0.3558  0.0310  0.0658
 8658SOL    HW129376   6.339   9.339   3.158 -1.3005  0.3539 -0.4269
 8658SOL    HW229377   6.464   9.386   3.087 -0.4291 -0.6249  0.4266
 8659SOL     OW29378   8.610   2.816   4.611  0.0745  0.2839 -0.3195
 8659SOL    HW129379   8.608   2.732   4.566  0.4638 -0.7363  1.4643
 8659SOL    HW229380   8.524   2.856   4.592 -1.5686 -2.0705  1.5441
 8660SOL     OW29381   0.588   2.564   1.086 -0.2593 -0.9237  0.5226
 8660SOL    HW129382   0.600   2.534   0.996 -1.4752 -1.0537  0.3897
 8660SOL    HW229383   0.591   2.484   1.138 -2.2942 -1.1943  0.2922
 8661SOL     OW29384   3.347   8.328   8.651 -0.0116  0.6605 -0.0406
 8661SOL    HW129385   3.332   8.261   8.583  0.9096  0.6226 -0.2215
 8661SOL    HW229386   3.296   8.297   8.726 -1.6213  1.0638 -0.9189
 8662SOL     OW29387   7.550   3.570   7.308 -0.1582  0.8365 -0.2595
 8662SOL    HW129388   7.630   3.566   7.255 -0.4500 -0.4213 -0.6492
 8662SOL    HW229389   7.492   3.630   7.261 -0.3434 -0.1298 -1.3022
 8663SOL     OW29390  10.851   5.468   1.076 -0.1971 -0.4038  0.3519
 8663SOL    HW129391  10.832   5.402   1.009 -1.2625  2.1752 -2.0903
 8663SOL    HW229392  10.771   5.470   1.129  0.0890 -1.4671  0.8550
 8664SOL     OW29393   3.936   6.903   4.941  0.1006  0.3727  0.3054
 8664SOL    HW129394   3.989   6.900   5.021  0.3881  0.4747  0.1203
 8664SOL    HW229395   3.864   6.962   4.962 -0.7680 -0.9161  1.0544
 8665SOL     OW29396   1.796   9.150   2.449  0.0252 -0.3846 -0.0971
 8665SOL    HW129397   1.726   9.209   2.477  0.3090 -0.8557  1.7510
 8665SOL    HW229398   1.875   9.203   2.449  0.3048 -0.7337  1.7020
 8666SOL     OW29399   0.794   3.912   7.363  0.0762 -0.2102 -0.1237
 8666SOL    HW129400   0.869   3.913   7.304  0.2355  0.6075  0.0711
 8666SOL    HW229401   0.803   3.993   7.413 -0.2522 -0.7171  0.7704
 8667SOL     OW29402   1.934   1.253   3.243  0.3268  0.4104 -0.2392
 8667SOL    HW129403   1.883   1.326   3.209 -1.4640 -0.8237 -0.3571
 8667SOL    HW229404   1.938   1.267   3.337 -1.8928 -0.3727  0.0392
 8668SOL     OW29405   1.275   0.027   5.024 -0.0419 -0.2048  0.3895
 8668SOL    HW129406   1.286   0.081   4.946 -0.6241  1.0589  1.1507
 8668SOL    HW229407   1.181   0.008   5.027 -0.6207  2.4035  2.4074
 8669SOL     OW29408   8.004   3.596   9.217 -0.4928 -0.2460 -0.7721
 8669SOL    HW129409   7.916   3.562   9.234 -1.1575  1.8397  0.3095
 8669SOL    HW229410   7.990   3.687   9.188  1.3313  1.0327  1.8910
 8670SOL     OW29411   0.291   3.689   1.068 -0.1662 -0.2196  0.1331
 8670SOL    HW129412   0.377   3.683   1.026  1.1800 -0.6899  2.7486
 8670SOL    HW229413   0.274   3.783   1.076  0.3071 -0.1205 -0.0335
 8671SOL     OW29414   6.191   1.524   9.757 -0.3449 -0.1229 -0.4627
 8671SOL    HW129415   6.205   1.516   9.663 -0.9245 -0.1673 -0.5450
 8671SOL    HW229416   6.098   1.544   9.766 -0.7404 -2.0965  0.2073
 8672SOL     OW29417   5.307   0.087   5.369  0.2626  0.2478 -0.0760
 8672SOL    HW129418   5.259   0.010   5.339  0.8387  0.2299 -0.9836
 8672SOL    HW229419   5.274   0.102   5.458 -1.4122  0.2508 -0.6656
 8673SOL     OW29420   6.596   4.055   9.096  0.5995 -0.4828  0.6826
 8673SOL    HW129421   6.661   4.059   9.167  1.3182 -1.6891  0.1271
 8673SOL    HW229422   6.548   3.973   9.112  1.2274 -1.1286 -0.5904
 8674SOL     OW29423   3.293   0.461   7.275  0.0864 -0.2639  0.4455
 8674SOL    HW129424   3.312   0.410   7.197  0.4442  0.4888  0.0246
 8674SOL    HW229425   3.237   0.404   7.328  0.5136 -1.1011  0.0208
 8675SOL     OW29426   5.586   9.908   0.104  0.2010  0.2180 -0.1690
 8675SOL    HW129427   5.585   9.849   0.180  0.8463  0.3820 -0.0268
 8675SOL    HW229428   5.569   9.995   0.140  2.7535  0.6567  0.1400
 8676SOL     OW29429   9.929  10.680   7.852 -0.3477  0.5948 -0.1917
 8676SOL    HW129430   9.909  10.713   7.764  0.8217  0.5860 -0.4869
 8676SOL    HW229431   9.881  10.598   7.859 -0.3908  0.5574 -0.8548
 8677SOL     OW29432  10.357  10.831   3.402 -0.4090  0.3935  0.8595
 8677SOL    HW129433  10.448  10.859   3.413  0.7920 -2.9855  0.6643
 8677SOL    HW229434  10.336  10.855   3.312  1.0506 -0.5326  0.2258
 8678SOL     OW29435   5.615   3.555   2.219  0.0539  0.2554  0.0253
 8678SOL    HW129436   5.576   3.485   2.272  3.2301 -0.4910  1.6722
 8678SOL    HW229437   5.575   3.635   2.252 -1.5617 -0.5486  0.1228
 8679SOL     OW29438   4.479   8.643   3.928  0.0416 -0.0270  0.1479
 8679SOL    HW129439   4.463   8.642   4.022  0.6470 -0.3068  0.2516
 8679SOL    HW229440   4.468   8.735   3.903 -3.9497 -0.4301 -0.2096
 8680SOL     OW29441   8.505   5.322   3.467  0.3542 -0.7470 -0.1730
 8680SOL    HW129442   8.489   5.357   3.555  0.4775 -0.1240 -0.3951
 8680SOL    HW229443   8.420   5.329   3.423  0.7233  0.7671 -0.7257
 8681SOL     OW29444   8.318   1.351   3.931 -0.4774  0.4866 -0.2533
 8681SOL    HW129445   8.230   1.319   3.949 -0.6145  0.4090 -1.0335
 8681SOL    HW229446   8.375   1.278   3.954 -0.8021 -0.4437 -2.2368
 8682SOL     OW29447   9.580   9.332   7.981 -0.0103 -0.0973  0.3988
 8682SOL    HW129448   9.527   9.370   8.051  1.2876  0.5084  1.0739
 8682SOL    HW229449   9.658   9.387   7.977  0.5981 -1.0012 -0.5408
 8683SOL     OW29450   4.833   1.065   6.709  0.2523  0.3569 -0.4713
 8683SOL    HW129451   4.906   1.069   6.647  0.2281 -1.0699 -0.6295
 8683SOL    HW229452   4.784   0.987   6.683 -0.3106  0.2836  0.7413
 8684SOL     OW29453   9.336   4.458   1.272 -0.3388  0.4353 -0.1880
 8684SOL    HW129454   9.423   4.462   1.233  0.3380  0.5179  1.2679
 8684SOL    HW229455   9.352   4.440   1.365 -1.9044 -0.2945 -0.0229
 8685SOL     OW29456   7.375   4.230  10.066 -0.1550 -0.3315 -0.4700
 8685SOL    HW129457   7.373   4.141  10.102 -2.1906 -0.0969  0.0647
 8685SOL    HW229458   7.406   4.285  10.138 -0.7255 -0.3526 -0.2087
 8686SOL     OW29459   3.513   7.884   2.738 -0.2025  0.0103  0.4362
 8686SOL    HW129460   3.539   7.848   2.653  0.7180  0.8332  0.3499
 8686SOL    HW229461   3.581   7.854   2.798 -0.4613  0.0351  0.7419
 8687SOL     OW29462   8.800   8.955   3.156  0.0195  0.1160 -0.6467
 8687SOL    HW129463   8.840   9.024   3.104 -1.0358  0.4735 -1.0132
 8687SOL    HW229464   8.720   8.994   3.191  1.2286  0.2830  2.2546
 8688SOL     OW29465   8.043   2.004   3.431  0.5033 -0.7225  0.3227
 8688SOL    HW129466   8.097   1.987   3.508 -0.0422 -0.1942  0.8322
 8688SOL    HW229467   8.061   2.095   3.408 -0.9764 -0.1684  1.1845
 8689SOL     OW29468   6.636   9.702  10.799  0.3850 -0.1332  0.0533
 8689SOL    HW129469   6.719   9.749  10.810 -0.2852  1.1309 -0.0709
 8689SOL    HW229470   6.605   9.687  10.888  0.1621  0.5068  0.0925
 8690SOL     OW29471  10.567   3.830   6.403 -0.0915 -0.1595  0.3921
 8690SOL    HW129472  10.645   3.885   6.395 -0.5454  0.5121  0.4580
 8690SOL    HW229473  10.518   3.869   6.476 -1.3651  0.5413 -0.7890
 8691SOL     OW29474   9.848   2.455   9.280 -0.1900  0.2872  0.7596
 8691SOL    HW129475   9.790   2.456   9.356  1.1019  0.5204  1.7708
 8691SOL    HW229476   9.810   2.388   9.222 -1.4796  0.4724  1.3580
 8692SOL     OW29477   0.476   3.131   5.212 -0.7203 -0.0383 -0.4403
 8692SOL    HW129478   0.498   3.117   5.120 -0.5581  0.1662 -0.4317
 8692SOL    HW229479   0.554   3.172   5.249 -1.0313  0.4874 -0.3581
 8693SOL     OW29480  10.528   0.840   0.924  0.2071  0.0189  0.3612
 8693SOL    HW129481  10.572   0.770   0.875  0.2242  0.9043 -0.9415
 8693SOL    HW229482  10.446   0.854   0.877 -0.6103 -0.3039  1.6487
 8694SOL     OW29483   3.053   0.977   7.886  0.0606  0.1063  0.1519
 8694SOL    HW129484   3.111   1.039   7.841 -1.1542  1.7349  0.7328
 8694SOL    HW229485   3.111   0.932   7.948  0.7146  1.8199  0.8497
 8695SOL     OW29486   3.735   1.785   1.234 -0.1654 -0.0207  0.1471
 8695SOL    HW129487   3.693   1.871   1.243 -0.9101 -0.3154 -0.4294
 8695SOL    HW229488   3.774   1.787   1.147 -0.6933 -0.4810 -0.1030
 8696SOL     OW29489   9.751   7.066   0.993 -0.3515  0.2808 -0.0323
 8696SOL    HW129490   9.672   7.046   0.943  0.7447 -0.0796 -1.6962
 8696SOL    HW229491   9.728   7.046   1.083 -2.5511  1.3732 -0.2844
 8697SOL     OW29492   8.628   0.239   0.252 -0.2682 -0.1131  0.2028
 8697SOL    HW129493   8.642   0.334   0.253  0.0857 -0.0797 -2.0205
 8697SOL    HW229494   8.571   0.224   0.177 -1.2815 -1.5864  1.2195
 8698SOL     OW29495   0.492   3.735   0.450  0.0788  0.7212 -0.4652
 8698SOL    HW129496   0.523   3.649   0.420 -1.3776 -0.1558  0.4127
 8698SOL    HW229497   0.401   3.720   0.473  0.2086  2.1506  1.1251
 8699SOL     OW29498   4.490   5.636   2.338 -0.1812  0.3892 -0.2621
 8699SOL    HW129499   4.423   5.652   2.405 -1.1997 -0.1532 -1.1231
 8699SOL    HW229500   4.521   5.547   2.356  2.2228  1.4779  1.7132
 8700SOL     OW29501   3.306   6.529   6.308 -0.0928  0.3826  0.2040
 8700SOL    HW129502   3.264   6.495   6.229 -0.2737 -1.4804  1.0342
 8700SOL    HW229503   3.368   6.460   6.333  0.2191  1.0970  1.4787
 8701SOL     OW29504   2.021   1.975   3.922  0.1200 -0.0442  0.4998
 8701SOL    HW129505   2.022   2.034   3.847  0.8595 -0.5165  0.1209
 8701SOL    HW229506   1.936   1.931   3.917  0.8841 -1.4566 -1.2004
 8702SOL     OW29507  10.114   8.336   5.885  0.0606  0.5520 -0.0554
 8702SOL    HW129508  10.157   8.253   5.909  1.1192  0.7019 -1.2875
 8702SOL    HW229509  10.051   8.352   5.955  0.2745 -0.9805  0.5289
 8703SOL     OW29510   9.977   5.459   2.529  0.0278  0.2143  0.1608
 8703SOL    HW129511  10.058   5.483   2.483 -1.2062 -0.8090 -2.7929
 8703SOL    HW229512   9.990   5.367   2.552 -0.1565  0.1287 -0.0689
 8704SOL     OW29513   2.112   0.002   9.401  0.3782  0.4974 -0.3815
 8704SOL    HW129514   2.106  -0.012   9.307  0.6571  1.0825 -0.4954
 8704SOL    HW229515   2.026  -0.023   9.435  0.8701 -1.5022 -0.5358
 8705SOL     OW29516   3.859   4.370   7.318 -0.1879  1.1821 -0.3697
 8705SOL    HW129517   3.954   4.374   7.308 -0.0254 -1.3990 -0.6425
 8705SOL    HW229518   3.828   4.453   7.283  2.0584  3.1239  1.8409
 8706SOL     OW29519  10.061   0.645   4.424 -0.4659 -0.0797  0.0333
 8706SOL    HW129520  10.115   0.711   4.466  0.0439 -0.6475  0.2851
 8706SOL    HW229521  10.000   0.616   4.492  1.5812 -2.3558  1.0311
 8707SOL     OW29522   8.642   0.876   7.481  0.5994 -0.0619 -0.2000
 8707SOL    HW129523   8.638   0.781   7.468 -1.2005 -0.1319  0.5398
 8707SOL    HW229524   8.674   0.887   7.570  1.0215  0.0545 -0.3607
 8708SOL     OW29525   4.608   8.896   7.130 -0.1121 -0.2729 -0.6134
 8708SOL    HW129526   4.526   8.920   7.088 -1.0951 -0.3788  1.1473
 8708SOL    HW229527   4.650   8.836   7.068 -2.1062 -1.4739 -0.9044
 8709SOL     OW29528   6.122  10.889   0.184  0.6645 -0.3427 -0.0829
 8709SOL    HW129529   6.062  10.959   0.155  0.7461 -0.3150 -0.1862
 8709SOL    HW229530   6.065  10.813   0.195  0.4678 -0.0978  0.6600
 8710SOL     OW29531   3.191   9.680   2.491  0.0078  0.0331 -0.2021
 8710SOL    HW129532   3.162   9.760   2.448  1.6585  1.5511  1.3206
 8710SOL    HW229533   3.145   9.679   2.575  0.3928 -0.3329  0.0099
 8711SOL     OW29534   4.812   8.363   9.488  0.4263 -0.9542  0.2485
 8711SOL    HW129535   4.781   8.405   9.408 -0.7182 -1.9914  0.1118
 8711SOL    HW229536   4.761   8.282   9.493  0.5736 -0.9674  1.9592
 8712SOL     OW29537   0.936   9.732   2.646  0.4705 -0.1899 -0.4858
 8712SOL    HW129538   1.014   9.732   2.702  1.2770  0.5974 -1.5719
 8712SOL    HW229539   0.927   9.640   2.619 -1.1354 -1.0156  2.4799
 8713SOL     OW29540   8.821  10.697   9.494 -0.1089 -0.1416  0.6809
 8713SOL    HW129541   8.801  10.787   9.468 -0.1001 -0.6665 -1.3359
 8713SOL    HW229542   8.824  10.699   9.589 -2.2128  1.5528  0.7889
 8714SOL     OW29543   1.830   6.804   2.349 -0.3634  0.3920 -0.1731
 8714SOL    HW129544   1.738   6.820   2.331 -0.4556 -0.9722 -0.9948
 8714SOL    HW229545   1.865   6.767   2.268  0.3871 -1.1544  0.8067
 8715SOL     OW29546   2.736   0.227   0.470 -0.5131 -0.3905 -0.0207
 8715SOL    HW129547   2.806   0.167   0.445 -0.6418 -1.3708  1.8120
 8715SOL    HW229548   2.781   0.307   0.498 -0.2493 -0.2707 -0.7686
 8716SOL     OW29549   2.134   0.209   9.587 -0.6530 -0.6786 -0.4737
 8716SOL    HW129550   2.083   0.174   9.660 -1.1555  2.8901  1.1478
 8716SOL    HW229551   2.136   0.139   9.522 -1.2295 -3.6323  2.4382
 8717SOL     OW29552   1.209   2.665   8.835 -0.0686 -0.1824  0.0495
 8717SOL    HW129553   1.281   2.713   8.794 -0.7473  2.8388  2.0545
 8717SOL    HW229554   1.227   2.670   8.929 -2.7132  0.4933  0.6092
 8718SOL     OW29555   3.720   7.921  10.357  0.0511 -0.0915 -0.3675
 8718SOL    HW129556   3.683   8.007  10.333 -0.2037 -0.0943  0.0016
 8718SOL    HW229557   3.770   7.938  10.437  1.2982  0.0138 -1.1461
 8719SOL     OW29558   1.703   4.725   8.196  0.3507  0.1464  0.1130
 8719SOL    HW129559   1.728   4.676   8.117  0.1552  0.8822 -0.4096
 8719SOL    HW229560   1.715   4.817   8.172  0.5668  0.3640  1.0392
 8720SOL     OW29561   7.611   1.943   1.018  0.1044  0.3116 -0.4922
 8720SOL    HW129562   7.652   1.924   1.103 -2.2552 -2.0927  0.2211
 8720SOL    HW229563   7.637   1.869   0.962 -1.0817  0.1304 -0.8152
 8721SOL     OW29564   1.782   1.088   4.148 -0.2138  0.3704  0.0422
 8721SOL    HW129565   1.714   1.113   4.087 -0.3781  0.6960  0.3526
 8721SOL    HW229566   1.849   1.045   4.095  0.4942  2.2507 -0.6598
 8722SOL     OW29567   3.061   0.145  10.186 -0.0497  0.6623  0.1817
 8722SOL    HW129568   2.983   0.109  10.145  0.8387  0.6750 -1.5902
 8722SOL    HW229569   3.047   0.133  10.280 -1.6844 -0.3136 -0.1661
 8723SOL     OW29570   9.357   8.443   3.928  0.0357  0.3562 -0.3969
 8723SOL    HW129571   9.309   8.457   3.847 -0.1259  1.2264 -0.1554
 8723SOL    HW229572   9.437   8.398   3.901 -0.4328 -0.1761 -0.9210
 8724SOL     OW29573   9.796   5.794   9.670  0.1720 -0.0921  0.2289
 8724SOL    HW129574   9.792   5.776   9.576 -1.8919  0.5250  0.1471
 8724SOL    HW229575   9.778   5.711   9.712 -1.9948  0.2185 -0.0097
 8725SOL     OW29576   9.154   2.847   7.397 -0.1274 -0.4463 -0.3602
 8725SOL    HW129577   9.223   2.891   7.349 -0.3219 -1.5584 -1.7337
 8725SOL    HW229578   9.076   2.902   7.385  0.2141  0.1556  0.1330
 8726SOL     OW29579   2.109   5.043   5.685 -0.0037  0.1769  0.3077
 8726SOL    HW129580   2.059   5.120   5.657  0.3732 -0.0944 -1.1757
 8726SOL    HW229581   2.196   5.057   5.648  0.0969 -0.9048  0.1225
 8727SOL     OW29582   3.090   8.667   1.414 -0.1282 -0.3084 -0.1147
 8727SOL    HW129583   3.009   8.618   1.426 -1.0183  0.9826 -0.6583
 8727SOL    HW229584   3.087   8.697   1.324  0.6695  0.2852  0.0419
 8728SOL     OW29585   0.311   3.676   6.012 -0.2611 -0.4009 -0.1743
 8728SOL    HW129586   0.229   3.706   6.051 -0.5569 -1.1303 -0.2401
 8728SOL    HW229587   0.342   3.752   5.962 -1.0258 -0.2080 -0.3668
 8729SOL     OW29588   8.361   2.059   8.750  0.2950  0.7911 -0.1457
 8729SOL    HW129589   8.419   2.095   8.817  0.3875 -0.1088  0.2854
 8729SOL    HW229590   8.410   1.985   8.713  0.1380  1.1135 -1.0362
 8730SOL     OW29591   5.508   7.178   1.699  0.2178  0.0307 -0.3007
 8730SOL    HW129592   5.565   7.151   1.771 -0.1501 -1.3071 -0.4856
 8730SOL    HW229593   5.488   7.097   1.652  0.2625  0.8450 -1.7813
 8731SOL     OW29594   3.690   7.544   9.494 -0.4724 -0.2628  0.3397
 8731SOL    HW129595   3.710   7.499   9.412 -0.8565  0.7922 -0.3532
 8731SOL    HW229596   3.672   7.473   9.556 -0.3456 -1.0779 -0.5282
 8732SOL     OW29597   4.307   0.764   1.609  0.2458  0.0543 -0.1555
 8732SOL    HW129598   4.235   0.800   1.557  0.0788  0.2792  0.2204
 8732SOL    HW229599   4.385   0.807   1.575  0.1495  0.1334 -0.2801
 8733SOL     OW29600   4.110   5.464   2.034 -0.4407  0.2861 -0.1487
 8733SOL    HW129601   4.099   5.376   2.070  0.3083  0.6240  0.9661
 8733SOL    HW229602   4.196   5.492   2.065 -0.4871  1.2513 -0.8378
 8734SOL     OW29603  10.242   8.588   1.187 -0.2582  0.1138  0.0944
 8734SOL    HW129604  10.190   8.668   1.180 -1.5823 -0.8081 -1.3175
 8734SOL    HW229605  10.186   8.527   1.236  0.7699  0.0455  1.2350
 8735SOL     OW29606   5.992   5.824   2.353  0.0638 -0.2307  0.8189
 8735SOL    HW129607   5.919   5.886   2.350 -0.1369 -0.4992 -0.7223
 8735SOL    HW229608   5.999   5.801   2.445 -0.4658  1.3513  1.2959
 8736SOL     OW29609   9.080  10.340   3.381 -0.3196 -0.5002 -0.1455
 8736SOL    HW129610   9.131  10.373   3.456 -1.2216  0.7619 -0.0530
 8736SOL    HW229611   9.016  10.281   3.420 -1.2744  0.7235  0.2075
 8737SOL     OW29612   6.574   5.401   8.828 -0.0362 -0.1180  0.3409
 8737SOL    HW129613   6.566   5.351   8.747 -0.9656  1.8804 -0.8389
 8737SOL    HW229614   6.512   5.473   8.819  0.6344  0.7813  2.3660
 8738SOL     OW29615   6.597   2.791   5.942  0.1670  0.0096 -0.4141
 8738SOL    HW129616   6.689   2.815   5.957 -0.2228  1.3976 -0.0495
 8738SOL    HW229617   6.563   2.773   6.030  0.2659 -1.2609 -0.6211
 8739SOL     OW29618   4.480  10.184   3.409  0.1491 -0.6001 -0.1234
 8739SOL    HW129619   4.449  10.102   3.446 -5.1003  1.4149  0.8224
 8739SOL    HW229620   4.524  10.229   3.482 -2.3410 -0.2322  1.2425
 8740SOL     OW29621   0.713   9.569   6.140 -0.4208  0.8978  0.1366
 8740SOL    HW129622   0.785   9.609   6.188  0.3991  0.5575 -0.7626
 8740SOL    HW229623   0.658   9.643   6.113  0.7145  1.3900 -0.9388
 8741SOL     OW29624   7.923   9.789   0.050  0.0934 -0.2607 -0.0805
 8741SOL    HW129625   7.913   9.858  -0.015  1.0928 -0.6571 -0.6544
 8741SOL    HW229626   7.844   9.798   0.105  0.3846  1.5905  0.1169
 8742SOL     OW29627   5.653  10.592   6.058 -0.0617  0.1783 -0.7199
 8742SOL    HW129628   5.693  10.679   6.057 -1.3129  0.7903 -0.2358
 8742SOL    HW229629   5.574  10.603   6.005 -0.8224 -0.3498  0.2767
 8743SOL     OW29630  10.840   6.909   1.506  0.6128  0.1589  0.0412
 8743SOL    HW129631  10.930   6.920   1.535  1.3866 -4.1154 -0.1176
 8743SOL    HW229632  10.844   6.915   1.411  0.7498 -0.1055  0.0305
 8744SOL     OW29633   5.269   1.143   9.550  0.1056  0.0319 -0.0700
 8744SOL    HW129634   5.178   1.153   9.524 -0.5491  1.4326  2.4414
 8744SOL    HW229635   5.275   1.185   9.636  2.8419 -1.1049  0.4236
 8745SOL     OW29636   8.012   5.929   8.234 -0.2866  0.1979 -0.0018
 8745SOL    HW129637   8.010   5.835   8.217  0.4006 -0.1757  1.8264
 8745SOL    HW229638   8.041   5.937   8.324  0.2598  2.2029 -0.3034
 8746SOL     OW29639   5.430   1.364  10.684 -0.2480  0.0356  0.0629
 8746SOL    HW129640   5.402   1.447  10.646 -0.7132  0.4731  1.3151
 8746SOL    HW229641   5.353   1.308  10.681 -0.8749  0.7148  2.0654
 8747SOL     OW29642   4.230   6.720   7.226 -0.1474 -0.1249  0.4440
 8747SOL    HW129643   4.201   6.785   7.163  0.5052 -0.2468  0.0059
 8747SOL    HW229644   4.304   6.760   7.270  1.1920 -1.0757 -0.8299
 8748SOL     OW29645   2.961   6.600   5.764  0.2936  0.0562 -0.7047
 8748SOL    HW129646   2.986   6.650   5.842 -0.9198  1.7877 -1.3606
 8748SOL    HW229647   2.865   6.606   5.761 -0.0009 -2.9322 -0.4714
 8749SOL     OW29648   3.333   4.401  10.288  0.8487 -0.0804  0.5376
 8749SOL    HW129649   3.366   4.491  10.296  0.3272  0.0886  0.8471
 8749SOL    HW229650   3.345   4.364  10.376  0.0294  0.0501  0.7093
 8750SOL     OW29651   5.303   2.064   9.917 -0.1857  0.7949  0.4861
 8750SOL    HW129652   5.380   2.102   9.873  0.0594 -0.4838 -0.2454
 8750SOL    HW229653   5.303   2.105  10.003  1.7540  0.3077  0.7673
 8751SOL     OW29654   7.878   7.249   1.570 -0.3090  0.6487  0.9066
 8751SOL    HW129655   7.786   7.221   1.569  0.3566 -1.6978  0.4915
 8751SOL    HW229656   7.918   7.202   1.497  1.0535  2.3577  0.5119
 8752SOL     OW29657   5.734   0.402   8.250 -0.1136  0.3551 -0.0432
 8752SOL    HW129658   5.726   0.345   8.173 -0.4072 -1.2190  1.1040
 8752SOL    HW229659   5.778   0.348   8.315  0.5466  1.8190  0.7694
 8753SOL     OW29660   9.933   3.027   6.299  0.0113  0.2082  0.0611
 8753SOL    HW129661   9.988   3.088   6.249  0.6483 -0.3353  0.0827
 8753SOL    HW229662   9.984   3.007   6.377 -0.1416 -0.4342  0.0008
 8754SOL     OW29663   5.808   8.037   0.262  0.3908 -0.0120  0.0136
 8754SOL    HW129664   5.809   8.128   0.294  0.6135  0.5361 -1.4917
 8754SOL    HW229665   5.832   8.044   0.170  0.7122 -1.6487 -0.0423
 8755SOL     OW29666   3.422   1.549   6.969  0.0792 -0.0255  0.2802
 8755SOL    HW129667   3.359   1.506   6.911  0.4225  0.1382 -0.2142
 8755SOL    HW229668   3.487   1.481   6.989 -0.2783 -0.2125  0.8397
 8756SOL     OW29669   6.526   0.570   1.608 -0.3181  0.2187  0.1057
 8756SOL    HW129670   6.548   0.477   1.607 -0.0921  0.2669 -2.0019
 8756SOL    HW229671   6.466   0.579   1.682  0.2638 -1.4413  0.8349
 8757SOL     OW29672   9.058   4.121   1.234 -0.0182  0.6018 -0.4928
 8757SOL    HW129673   9.152   4.116   1.216  0.0085  1.0950 -0.5157
 8757SOL    HW229674   9.027   4.194   1.181 -0.9983 -1.3531 -2.7706
 8758SOL     OW29675   4.954   3.261   4.202 -0.3404 -0.0815 -0.9232
 8758SOL    HW129676   4.907   3.341   4.179 -0.3151  0.5336  1.0559
 8758SOL    HW229677   4.891   3.190   4.186 -0.8323  0.4449 -1.3428
 8759SOL     OW29678   6.441  10.136   6.004 -0.3688  0.3822  0.4605
 8759SOL    HW129679   6.405  10.054   5.971 -4.5341  1.9608  0.3518
 8759SOL    HW229680   6.522  10.150   5.955 -0.7857 -2.4632 -1.2166
 8760SOL     OW29681   7.891   4.706   0.601  0.1009  0.0953  0.1140
 8760SOL    HW129682   7.805   4.747   0.591  0.8650  1.5821 -0.7985
 8760SOL    HW229683   7.930   4.751   0.676  1.0094  1.2265 -0.9947
 8761SOL     OW29684   2.419   1.725   7.641  0.1723  1.0187 -0.1609
 8761SOL    HW129685   2.472   1.723   7.561 -1.1808 -0.0232 -1.0783
 8761SOL    HW229686   2.375   1.640   7.643 -0.7188  1.4810  1.0724
 8762SOL     OW29687   3.979  10.049   6.726  0.0618  0.2335  0.5139
 8762SOL    HW129688   3.945  10.062   6.815 -0.3761  1.8441  0.1372
 8762SOL    HW229689   4.040  10.121   6.713  1.7790 -1.2171  0.2550
 8763SOL     OW29690   2.258   1.111   1.862 -0.1346 -0.3054 -0.7074
 8763SOL    HW129691   2.345   1.148   1.851 -0.5803  1.7739  1.7729
 8763SOL    HW229692   2.199   1.185   1.850 -1.2106 -0.5677  2.2883
 8764SOL     OW29693   5.346   2.212   0.568  0.2431 -0.1564  0.2296
 8764SOL    HW129694   5.267   2.162   0.586 -0.0759  1.0790  2.7862
 8764SOL    HW229695   5.340   2.236   0.476 -1.7477 -1.1202  0.0711
 8765SOL     OW29696  10.307   6.999   6.873  0.1307 -0.3075 -0.4020
 8765SOL    HW129697  10.246   6.982   6.801  2.0521 -1.8283 -1.7875
 8765SOL    HW229698  10.337   7.089   6.858  0.0771 -0.4142 -1.1786
 8766SOL     OW29699   8.124   1.257   7.416  0.9457 -0.2354 -0.1386
 8766SOL    HW129700   8.094   1.166   7.415  2.3943 -0.7533  0.4633
 8766SOL    HW229701   8.043   1.309   7.415  0.0021 -1.5541  1.5412
 8767SOL     OW29702   9.344   4.983   6.207 -0.2172 -0.0572  0.8066
 8767SOL    HW129703   9.357   5.076   6.193  1.5342 -0.2473  0.9760
 8767SOL    HW229704   9.432   4.945   6.203 -1.0496 -2.0018 -1.2554
 8768SOL     OW29705   7.990   7.229   9.303 -0.0015  0.0554 -0.1609
 8768SOL    HW129706   7.991   7.302   9.364 -2.0175  0.0423 -0.0576
 8768SOL    HW229707   7.965   7.268   9.219 -0.5871 -0.4213 -0.2177
 8769SOL     OW29708   1.065   2.491   8.354  0.4724 -0.3709  0.0199
 8769SOL    HW129709   1.127   2.564   8.355  1.8274 -1.4758 -0.5642
 8769SOL    HW229710   1.051   2.473   8.261 -0.5640 -0.3049  0.1443
 8770SOL     OW29711   2.927  10.706   3.782 -0.2125  0.6859 -0.1085
 8770SOL    HW129712   2.997  10.665   3.732 -0.1664  1.6172 -0.8386
 8770SOL    HW229713   2.953  10.798   3.790  0.0787  0.4546  2.1877
 8771SOL     OW29714   9.737  10.306   6.428  0.2818 -0.0988 -0.2373
 8771SOL    HW129715   9.760  10.360   6.352 -2.1162 -1.6144 -2.2211
 8771SOL    HW229716   9.667  10.249   6.396 -0.9165 -0.7833  3.1817
 8772SOL     OW29717  10.653   4.407   1.494 -0.4225 -0.0602 -0.3130
 8772SOL    HW129718  10.656   4.431   1.401 -1.2810 -0.5528 -0.4825
 8772SOL    HW229719  10.744   4.392   1.518  0.0257  1.9862 -0.5479
 8773SOL     OW29720   3.522   4.135   6.496  0.0360 -0.3880 -0.5746
 8773SOL    HW129721   3.561   4.178   6.572 -0.1580 -1.3614  0.1074
 8773SOL    HW229722   3.433   4.170   6.491  0.0811 -0.2485 -0.4123
 8774SOL     OW29723   7.275   2.618   0.536  0.4726 -0.0274 -0.1021
 8774SOL    HW129724   7.269   2.673   0.614  0.3214  1.3256 -1.0436
 8774SOL    HW229725   7.327   2.669   0.475 -1.0106 -0.2120 -1.5803
 8775SOL     OW29726   4.810   7.602   5.395  0.1734  0.7161 -0.4142
 8775SOL    HW129727   4.795   7.513   5.363 -1.8603  1.2608 -1.1030
 8775SOL    HW229728   4.824   7.654   5.316 -1.4016  1.4645 -0.2355
 8776SOL     OW29729   4.583   8.474   0.236  0.0781  0.3731  0.3861
 8776SOL    HW129730   4.625   8.542   0.289  1.6533  0.4888 -0.9160
 8776SOL    HW229731   4.655   8.419   0.206 -0.6401  0.6777 -2.1136
 8777SOL     OW29732   2.711   7.862   4.578  0.0363  0.7294  0.4386
 8777SOL    HW129733   2.659   7.882   4.655 -1.5695  0.9567 -0.6475
 8777SOL    HW229734   2.695   7.769   4.561  0.5739  0.6207  0.5216
 8778SOL     OW29735   9.875  10.674   7.140 -0.5444 -0.1764  0.2150
 8778SOL    HW129736   9.870  10.579   7.131 -1.9312  0.0314 -2.6067
 8778SOL    HW229737   9.785  10.703   7.124  0.4624  1.7301 -2.8542
 8779SOL     OW29738   1.621   8.308   6.283  0.2689  0.3259  0.4735
 8779SOL    HW129739   1.682   8.300   6.209 -0.0048 -1.2543  0.3936
 8779SOL    HW229740   1.537   8.327   6.243  0.0282 -0.9825  0.3190
 8780SOL     OW29741   3.963   0.838   3.951  0.3417 -0.1734 -0.0448
 8780SOL    HW129742   3.927   0.821   3.864  0.0152 -0.8552  0.2243
 8780SOL    HW229743   3.963   0.753   3.995  3.5732 -0.5370 -0.4931
 8781SOL     OW29744   1.221   7.023   0.421  0.1315 -0.1080  0.4462
 8781SOL    HW129745   1.229   6.965   0.345  0.9115  0.3017  0.2094
 8781SOL    HW229746   1.142   6.992   0.466  0.0511 -0.7988 -0.1472
 8782SOL     OW29747   7.739   3.712   0.908 -0.0324 -0.1417 -0.1079
 8782SOL    HW129748   7.747   3.799   0.948 -3.0007  0.1147  0.2079
 8782SOL    HW229749   7.645   3.702   0.893  0.1713 -3.4417  0.1269
 8783SOL     OW29750   7.150   5.436   5.443 -0.4585 -0.1342 -0.0656
 8783SOL    HW129751   7.244   5.450   5.435 -0.0126 -2.5894 -0.0884
 8783SOL    HW229752   7.124   5.483   5.521  0.0920  3.2874 -1.7728
 8784SOL     OW29753   3.027   0.411   0.198 -0.0281 -0.6970  0.1784
 8784SOL    HW129754   3.082   0.489   0.204  0.2650 -0.7825 -0.9901
 8784SOL    HW229755   2.939   0.445   0.183 -0.4384 -0.5454  2.6461
 8785SOL     OW29756   1.747   9.482   3.158 -0.5098 -0.0316  0.2984
 8785SOL    HW129757   1.741   9.574   3.132 -1.7771 -0.0463  0.4775
 8785SOL    HW229758   1.827   9.451   3.117 -0.3206  1.0213 -0.1726
 8786SOL     OW29759   8.518   4.653   3.119  0.5852  0.0873  0.2417
 8786SOL    HW129760   8.572   4.653   3.039  0.4245 -0.4301  0.1270
 8786SOL    HW229761   8.429   4.640   3.087  0.3715  1.0356  0.4234
 8787SOL     OW29762   8.241   8.968   8.522  0.2965 -0.2546  0.1776
 8787SOL    HW129763   8.318   8.990   8.469 -0.9030  0.5525 -1.2912
 8787SOL    HW229764   8.182   9.041   8.511 -1.6622 -1.8742 -0.6191
 8788SOL     OW29765   7.543   7.926  10.226 -0.3886  0.4860 -0.2353
 8788SOL    HW129766   7.522   8.015  10.197  0.6211  0.4227 -1.2434
 8788SOL    HW229767   7.592   7.888  10.153 -3.3662 -1.9715 -1.1406
 8789SOL     OW29768   1.909   2.420   3.136  0.3568 -0.0166  0.1783
 8789SOL    HW129769   1.921   2.473   3.215  2.5655  0.4089 -0.3957
 8789SOL    HW229770   1.880   2.335   3.169  2.8112 -0.3755  1.6530
 8790SOL     OW29771   9.432   6.208   2.259  0.3374  0.0350  0.2309
 8790SOL    HW129772   9.465   6.125   2.294  1.8774  0.4017 -0.2616
 8790SOL    HW229773   9.504   6.270   2.273 -0.2242  0.9393 -0.7192
 8791SOL     OW29774   2.160  10.446   4.249  0.1254  0.4379  0.0508
 8791SOL    HW129775   2.143  10.352   4.238 -2.3233  0.7335  0.6350
 8791SOL    HW229776   2.230  10.450   4.313 -1.4425 -1.0552  2.0078
 8792SOL     OW29777   3.825   4.140   0.081 -0.2626  0.3060  0.0327
 8792SOL    HW129778   3.872   4.198   0.021 -0.1048  0.0543 -0.0912
 8792SOL    HW229779   3.797   4.067   0.026  1.4076 -0.8145  0.5811
 8793SOL     OW29780  10.226   5.282  10.747 -0.3446 -0.0265  0.2492
 8793SOL    HW129781  10.200   5.212  10.807  0.0875 -1.2988 -1.0102
 8793SOL    HW229782  10.154   5.345  10.751 -0.8229 -0.6040  1.2767
 8794SOL     OW29783   3.997   8.239   9.865 -0.5254  0.1216  0.1430
 8794SOL    HW129784   3.962   8.168   9.810  1.1009 -0.0088 -0.7798
 8794SOL    HW229785   4.005   8.200   9.952 -3.1694  0.3417  0.5673
 8795SOL     OW29786   9.089   5.408   4.140 -0.2868 -0.5505 -0.1686
 8795SOL    HW129787   9.068   5.316   4.124 -1.0840 -0.5488  0.7886
 8795SOL    HW229788   9.168   5.424   4.088  0.7419 -2.1658  0.8291
 8796SOL     OW29789   5.435   4.859  10.404  0.0974 -0.2604  0.1051
 8796SOL    HW129790   5.508   4.920  10.416 -0.5954  0.8147 -0.9543
 8796SOL    HW229791   5.414   4.829  10.493  1.0660  0.2970  0.5402
 8797SOL     OW29792   9.352   1.708   0.488 -0.0191  0.3047 -0.6586
 8797SOL    HW129793   9.389   1.709   0.400  1.3739  1.9127 -0.1059
 8797SOL    HW229794   9.290   1.781   0.489 -0.7359 -0.2839 -0.5454
 8798SOL     OW29795  10.428   3.599   6.910  0.5626 -0.2142 -0.2195
 8798SOL    HW129796  10.519   3.570   6.912  0.6805  0.1556  1.4200
 8798SOL    HW229797  10.432   3.693   6.930 -0.1833 -0.2461  0.1150
 8799SOL     OW29798   3.053   9.436   4.205 -0.2283 -0.1532 -0.6880
 8799SOL    HW129799   3.001   9.355   4.202  0.7584 -0.7893 -1.0824
 8799SOL    HW229800   3.020   9.483   4.281  0.0667 -1.5440  0.3463
 8800SOL     OW29801   4.322   9.900  10.643 -0.0756 -0.5709 -0.0671
 8800SOL    HW129802   4.298   9.908  10.550  0.6504  1.0777 -0.1580
 8800SOL    HW229803   4.418   9.893  10.642 -0.1007 -1.1217  0.5466
 8801SOL     OW29804   4.078   7.557   3.415 -0.8356 -0.1529 -0.1179
 8801SOL    HW129805   4.022   7.613   3.470  1.3464  0.4059  1.6721
 8801SOL    HW229806   4.047   7.468   3.433 -1.6594  0.1873  0.2193
 8802SOL     OW29807   3.332   3.598   7.196  0.0612  0.0257 -0.1122
 8802SOL    HW129808   3.276   3.559   7.129 -0.2390 -1.3260  0.8827
 8802SOL    HW229809   3.404   3.639   7.147 -0.1078 -1.0082 -1.2545
 8803SOL     OW29810   3.871   6.736   3.951  0.2645 -0.2903  0.4638
 8803SOL    HW129811   3.898   6.770   4.036 -1.2605 -0.6370  1.1111
 8803SOL    HW229812   3.936   6.772   3.890  1.6115 -0.3452  1.7892
 8804SOL     OW29813   0.217   8.707   4.758  0.6069 -0.2534  0.0643
 8804SOL    HW129814   0.123   8.722   4.755  0.7193  0.3433 -0.6001
 8804SOL    HW229815   0.240   8.672   4.672  1.1068  0.3389 -0.0548
 8805SOL     OW29816   7.685   7.577   3.347  0.1562  0.0755 -0.0655
 8805SOL    HW129817   7.596   7.561   3.379 -0.1440  0.6452 -0.5818
 8805SOL    HW229818   7.728   7.492   3.350 -1.2927 -0.8572 -2.4829
 8806SOL     OW29819   5.113   4.894   7.159  0.6665  0.6221  0.0182
 8806SOL    HW129820   5.077   4.809   7.187 -1.4953  1.2096 -0.7451
 8806SOL    HW229821   5.156   4.928   7.237 -2.8842  1.0408  2.0100
 8807SOL     OW29822   8.871   2.728   0.660  0.9962 -0.0494  0.2159
 8807SOL    HW129823   8.912   2.673   0.727  1.9576  0.6625  0.2191
 8807SOL    HW229824   8.943   2.753   0.602  0.1968 -0.5941 -1.0619
 8808SOL     OW29825   4.771   9.558   7.681 -0.1422  0.0028  0.2116
 8808SOL    HW129826   4.707   9.625   7.656  0.0045 -0.1569 -0.6426
 8808SOL    HW229827   4.855   9.595   7.654 -0.1633 -0.9849 -1.3658
 8809SOL     OW29828   8.835   3.068   2.996  0.1272  0.0799 -0.4991
 8809SOL    HW129829   8.808   2.990   3.044  1.2519  1.4942  2.6929
 8809SOL    HW229830   8.776   3.072   2.920 -0.1144 -3.6629 -0.6585
 8810SOL     OW29831   6.172   7.497   4.896 -0.4897 -0.2422 -0.4739
 8810SOL    HW129832   6.139   7.572   4.847 -0.6594  0.5301  0.7627
 8810SOL    HW229833   6.235   7.535   4.958  0.0460 -1.2338 -0.3973
 8811SOL     OW29834   9.254  10.673   4.127 -0.4767  0.0274 -0.1156
 8811SOL    HW129835   9.318  10.619   4.173 -0.9923  0.1545  0.7556
 8811SOL    HW229836   9.282  10.763   4.144 -1.0896  0.0922  0.5624
 8812SOL     OW29837   2.502   0.513   9.752 -0.5698 -0.2512 -0.3028
 8812SOL    HW129838   2.547   0.596   9.764  0.2330 -0.6416 -0.5477
 8812SOL    HW229839   2.453   0.501   9.834  0.4676 -0.2304  0.3451
 8813SOL     OW29840   5.609   5.127   9.665  0.0117 -0.0386 -0.4230
 8813SOL    HW129841   5.642   5.038   9.662 -0.4457 -0.1957 -1.0963
 8813SOL    HW229842   5.624   5.161   9.577  1.3698  0.9983  0.1726
 8814SOL     OW29843   0.163   3.224   0.729  0.4058 -0.0328 -0.6636
 8814SOL    HW129844   0.202   3.160   0.670  2.3524 -1.7262  2.2120
 8814SOL    HW229845   0.084   3.182   0.762  0.8319 -0.3106  0.0225
 8815SOL     OW29846   4.744   6.893   0.462 -0.4714  0.4609  0.4064
 8815SOL    HW129847   4.804   6.841   0.516  0.2657 -0.6609 -1.4092
 8815SOL    HW229848   4.794   6.971   0.440  0.7480 -0.8303 -1.7732
 8816SOL     OW29849   3.763   2.181   2.816  0.0610  0.2889 -0.4311
 8816SOL    HW129850   3.802   2.099   2.845 -1.4994 -0.1609  0.4582
 8816SOL    HW229851   3.768   2.177   2.720  2.8074  0.5992 -0.4009
 8817SOL     OW29852   9.299   3.317   1.506 -0.0832 -0.1956  0.1250
 8817SOL    HW129853   9.213   3.345   1.538  0.7622  0.4230  1.9832
 8817SOL    HW229854   9.304   3.224   1.529  0.2548  0.0888  1.2642
 8818SOL     OW29855   5.678   7.954   9.702 -0.3407 -0.2103  0.1326
 8818SOL    HW129856   5.690   8.041   9.666  0.1046 -0.0739  0.5895
 8818SOL    HW229857   5.689   7.965   9.797  3.6575 -1.3354 -0.0140
 8819SOL     OW29858   4.725   9.109   1.995  0.7932 -0.4223  0.0291
 8819SOL    HW129859   4.725   9.047   1.922  2.3004  0.1283 -0.4723
 8819SOL    HW229860   4.653   9.169   1.975 -0.1169 -1.4644  0.0694
 8820SOL     OW29861   9.263   9.015   6.248 -0.1740  0.1816  0.6102
 8820SOL    HW129862   9.174   9.021   6.212  0.6116 -1.6973 -1.9763
 8820SOL    HW229863   9.264   8.933   6.297  0.5887 -0.9047 -1.1153
 8821SOL     OW29864   1.894   1.022   0.713 -0.0542  0.1704 -0.0796
 8821SOL    HW129865   1.818   1.077   0.694  0.2907  0.3830 -0.8835
 8821SOL    HW229866   1.886   0.949   0.652  2.0214  1.7613 -2.4793
 8822SOL     OW29867   5.552   7.174  10.443  0.3800 -0.2975  0.3089
 8822SOL    HW129868   5.509   7.143  10.363  0.9473  0.5127 -0.3377
 8822SOL    HW229869   5.563   7.096  10.497 -2.7709 -0.4228  0.9664
 8823SOL     OW29870   8.158   9.414   7.541 -0.3794  0.3635 -0.2994
 8823SOL    HW129871   8.115   9.431   7.457 -0.6444  2.3870  0.2011
 8823SOL    HW229872   8.086   9.409   7.604 -0.2489 -1.9803 -0.2562
 8824SOL     OW29873   9.408   1.146   3.923  0.0151 -0.0734 -0.0377
 8824SOL    HW129874   9.440   1.069   3.875 -0.2778 -0.6838  0.7224
 8824SOL    HW229875   9.405   1.117   4.014 -0.2634  0.7934  0.2325
 8825SOL     OW29876   4.925   7.933   7.089 -0.1721 -0.4086 -0.1751
 8825SOL    HW129877   4.981   7.862   7.118  1.1070 -0.0474 -1.6224
 8825SOL    HW229878   4.964   8.012   7.128  0.1521 -0.2018 -0.8854
 8826SOL     OW29879   2.937   3.395   2.404  0.2362 -0.3099  0.6418
 8826SOL    HW129880   3.021   3.355   2.379 -0.5771 -1.6976 -0.0153
 8826SOL    HW229881   2.948   3.488   2.384  0.8703 -0.7952 -1.6406
 8827SOL     OW29882   8.794   2.047   3.444 -0.5669 -0.3644  0.4894
 8827SOL    HW129883   8.855   2.098   3.498 -0.8129 -1.2203  1.6177
 8827SOL    HW229884   8.711   2.052   3.492 -1.4318  0.7905 -1.0232
 8828SOL     OW29885   9.396   5.775   3.618 -0.3212 -0.2956 -0.0334
 8828SOL    HW129886   9.479   5.733   3.638  0.9693  0.1726 -3.7209
 8828SOL    HW229887   9.398   5.858   3.666  0.8290 -0.7871  0.7841
 8829SOL     OW29888  10.421   0.108   6.105 -0.6733  0.4118 -0.0711
 8829SOL    HW129889  10.385   0.046   6.041  0.1097  0.5930 -0.7019
 8829SOL    HW229890  10.393   0.194   6.074 -0.7234  0.4640  0.1176
 8830SOL     OW29891   4.047   7.605   0.881 -0.4032 -0.2219 -0.4602
 8830SOL    HW129892   4.008   7.581   0.797  0.2826  2.4207 -1.6639
 8830SOL    HW229893   4.110   7.536   0.899  1.3444  0.3599 -3.5652
 8831SOL     OW29894   8.900   0.583   7.838  0.5166  0.4865  0.3466
 8831SOL    HW129895   8.821   0.558   7.886  1.1281  1.7045  2.0702
 8831SOL    HW229896   8.971   0.573   7.901  1.9887 -1.6932 -1.5056
 8832SOL     OW29897   9.721   3.347   9.540 -0.1511 -0.3607 -0.3399
 8832SOL    HW129898   9.799   3.381   9.498 -1.6101  1.3801 -1.7773
 8832SOL    HW229899   9.716   3.395   9.623  0.4379 -0.7192 -0.0842
 8833SOL     OW29900  10.684   2.136   1.359 -0.0547  0.3724  0.3718
 8833SOL    HW129901  10.695   2.085   1.279 -1.1599  0.6148  0.0509
 8833SOL    HW229902  10.595   2.171   1.353  0.2682  1.3713  1.1365
 8834SOL     OW29903   2.734  10.059   3.090  0.2310  0.4127 -0.3138
 8834SOL    HW129904   2.780   9.984   3.127 -0.0590  0.5184  0.2729
 8834SOL    HW229905   2.802  10.126   3.077  0.0472  1.1627  2.0621
 8835SOL     OW29906  10.422   4.032  10.023 -0.2161  0.5078 -0.2821
 8835SOL    HW129907  10.388   3.980  10.097  1.7066  0.2834  0.4887
 8835SOL    HW229908  10.438   4.118  10.060 -0.1319  0.6647 -0.6884
 8836SOL     OW29909   2.735   9.735   3.287  0.2872 -0.4018  0.6138
 8836SOL    HW129910   2.697   9.804   3.341  0.3162 -1.3828  1.9548
 8836SOL    HW229911   2.816   9.772   3.252 -0.1055  0.4999  0.6428
 8837SOL     OW29912   7.696  10.433  10.078 -0.3824 -0.4022 -0.8268
 8837SOL    HW129913   7.619  10.487  10.058 -2.0831 -2.4792 -0.2129
 8837SOL    HW229914   7.680  10.350  10.034  1.1286 -1.1887  0.0227
 8838SOL     OW29915   9.036   9.372   3.048 -0.1950 -0.3281 -1.2577
 8838SOL    HW129916   8.943   9.394   3.049  0.0430  1.1004  1.4698
 8838SOL    HW229917   9.040   9.282   3.079 -0.6637  0.0174 -0.1232
 8839SOL     OW29918   4.327   3.516   2.506  0.1291 -0.3083  0.0438
 8839SOL    HW129919   4.234   3.523   2.530 -0.3806 -3.2442 -0.6205
 8839SOL    HW229920   4.326   3.510   2.410  1.0357 -0.1685  0.0180
 8840SOL     OW29921   4.400   2.277  10.362  0.3237 -0.2287 -0.8289
 8840SOL    HW129922   4.427   2.369  10.369 -0.7238  0.0061  0.4311
 8840SOL    HW229923   4.334   2.276  10.294 -1.3747  0.4084  0.7287
 8841SOL     OW29924   0.658   5.781   8.626 -0.5942 -0.0947 -0.3635
 8841SOL    HW129925   0.744   5.755   8.658  0.3305  1.5891 -1.3603
 8841SOL    HW229926   0.640   5.720   8.554 -0.1606 -0.3350 -0.2715
 8842SOL     OW29927   0.898   8.396   1.194  0.1835 -1.0134 -0.3050
 8842SOL    HW129928   0.960   8.436   1.255  0.4539  0.5874 -1.5492
 8842SOL    HW229929   0.939   8.407   1.108 -2.2340  1.1225 -1.3272
 8843SOL     OW29930   1.864   9.749   2.219  0.1417 -0.1272  0.5056
 8843SOL    HW129931   1.887   9.705   2.301  0.7722 -2.0685 -0.6635
 8843SOL    HW229932   1.769   9.738   2.212  0.1758 -0.5376  0.6497
 8844SOL     OW29933   3.429   3.532   5.068 -1.0168  0.2004  0.3832
 8844SOL    HW129934   3.460   3.622   5.060  1.6264 -0.5995  0.8749
 8844SOL    HW229935   3.399   3.525   5.159 -2.1717  0.8027  0.0771
 8845SOL     OW29936   5.016  10.572   5.946 -0.1753 -0.2890  0.1626
 8845SOL    HW129937   5.031  10.618   5.864  1.0480  0.2936  0.6782
 8845SOL    HW229938   4.967  10.494   5.922  0.7707 -0.4877 -1.2237
 8846SOL     OW29939   3.759   9.427  10.178  0.8312 -0.1948 -0.6979
 8846SOL    HW129940   3.817   9.355  10.157  0.9456 -0.8239  1.4583
 8846SOL    HW229941   3.770   9.439  10.273 -1.9753  0.1527 -0.3336
 8847SOL     OW29942   0.320   9.204   7.716  0.1733  0.0993 -0.4184
 8847SOL    HW129943   0.250   9.174   7.774  1.2604 -1.3980  0.1517
 8847SOL    HW229944   0.291   9.176   7.628 -0.2944  0.1730 -0.2940
 8848SOL     OW29945   2.237   2.603   3.112  0.2585 -0.0006 -0.2075
 8848SOL    HW129946   2.242   2.509   3.095 -0.5502 -0.0537 -0.2091
 8848SOL    HW229947   2.143   2.621   3.117  0.3851  0.9344 -0.9160
 8849SOL     OW29948   4.319   5.005   0.217  0.5854 -0.0031 -0.6164
 8849SOL    HW129949   4.274   4.927   0.185  0.9343 -0.2651 -0.4738
 8849SOL    HW229950   4.380   4.973   0.283 -0.8827  0.6605  1.1293
 8850SOL     OW29951   4.595   7.066   1.978 -0.0607  0.1793 -0.5751
 8850SOL    HW129952   4.673   7.013   1.997 -0.5495 -1.0767 -1.9050
 8850SOL    HW229953   4.596   7.077   1.883 -1.5300  0.1274 -0.6186
 8851SOL     OW29954   0.001   9.840   1.433  0.0921 -0.8178  0.3587
 8851SOL    HW129955   0.036   9.889   1.507  0.3220 -0.1372 -0.1794
 8851SOL    HW229956   0.033   9.887   1.356  0.7565 -2.1247 -0.1959
 8852SOL     OW29957   8.224   6.308   3.155  0.5568 -0.6476 -0.1171
 8852SOL    HW129958   8.163   6.296   3.228 -0.6668 -0.9184 -1.1584
 8852SOL    HW229959   8.307   6.274   3.188 -0.1367 -1.4186  0.9047
 8853SOL     OW29960   9.924   5.748   5.585 -0.1105  0.5746 -0.2360
 8853SOL    HW129961   9.838   5.742   5.544 -0.3707 -0.8152  0.4642
 8853SOL    HW229962   9.980   5.785   5.517  0.2194 -4.4182 -3.1808
 8854SOL     OW29963   8.731  10.454   7.799 -0.6786  0.1344  0.8448
 8854SOL    HW129964   8.675  10.524   7.834 -4.8380 -1.6006 -1.5580
 8854SOL    HW229965   8.730  10.386   7.866 -3.1547 -0.5577  0.2343
 8855SOL     OW29966   3.827   7.207   2.993  0.5753 -0.3362 -0.9190
 8855SOL    HW129967   3.862   7.284   2.949 -1.3026  1.7930  0.9855
 8855SOL    HW229968   3.791   7.153   2.923  0.1226  1.5577 -2.2236
 8856SOL     OW29969   6.299  10.639   8.503 -0.1315  0.0227 -0.6394
 8856SOL    HW129970   6.279  10.663   8.412 -1.0241  0.8399 -0.2455
 8856SOL    HW229971   6.220  10.662   8.552 -0.2371 -1.8436  0.1219
 8857SOL     OW29972   0.803   8.217   2.618 -0.6639 -0.0543  0.1508
 8857SOL    HW129973   0.798   8.252   2.707  0.4171  0.5480 -0.0070
 8857SOL    HW229974   0.896   8.221   2.596 -0.8495 -0.6788 -0.8220
 8858SOL     OW29975  10.647   4.603   4.562 -0.1068 -0.1157  0.4937
 8858SOL    HW129976  10.683   4.662   4.628 -0.6069 -1.5054  2.0769
 8858SOL    HW229977  10.565   4.645   4.535  1.8126  2.3545 -2.1056
 8859SOL     OW29978   0.756   1.090   1.137  0.1185  1.0542 -0.0694
 8859SOL    HW129979   0.755   1.079   1.042  0.3393  2.1364 -0.2161
 8859SOL    HW229980   0.802   1.013   1.170 -3.4576 -1.5322 -0.4753
 8860SOL     OW29981   4.770   9.318   4.548 -0.0237  0.3254 -0.3407
 8860SOL    HW129982   4.739   9.232   4.577  0.5702  0.3745  0.4567
 8860SOL    HW229983   4.754   9.318   4.453 -0.3228 -0.5384 -0.3008
 8861SOL     OW29984   2.829   5.589  10.304  0.2908 -0.2058  0.3172
 8861SOL    HW129985   2.742   5.624  10.319  0.4624 -0.0321  0.9025
 8861SOL    HW229986   2.867   5.577  10.391 -0.2493 -3.1208  0.2611
 8862SOL     OW29987   8.828   8.787   9.629  0.4459  0.0299 -0.2068
 8862SOL    HW129988   8.764   8.854   9.654  1.4525  1.0643 -0.3673
 8862SOL    HW229989   8.910   8.815   9.669  0.5753 -1.9560  1.1032
 8863SOL     OW29990   4.470   0.209   2.683  0.2076 -0.3745  0.3160
 8863SOL    HW129991   4.403   0.208   2.752  1.2231 -1.0252  1.3190
 8863SOL    HW229992   4.422   0.188   2.603 -1.2012  1.4650  0.6040
 8864SOL     OW29993   6.691  10.340   6.785  0.4233 -0.7733 -0.3776
 8864SOL    HW129994   6.652  10.424   6.762 -1.5462 -0.4894  3.1889
 8864SOL    HW229995   6.781  10.361   6.809  0.1449  0.2522 -0.1607
 8865SOL     OW29996   0.378   7.597   7.946  0.2720 -0.0634 -0.5847
 8865SOL    HW129997   0.451   7.547   7.909  1.7120  0.6129  1.1958
 8865SOL    HW229998   0.310   7.531   7.962  1.0895 -0.9880 -0.8098
 8866SOL     OW29999   1.544   5.460   9.004  0.3922  0.4008  0.4574
 8866SOL    HW130000   1.626   5.468   8.956 -0.0093  2.0253 -0.0500
 8866SOL    HW230001   1.497   5.389   8.960  0.7710  0.6860 -0.4371
 8867SOL     OW30002   1.984  10.918   0.522 -0.6365  0.3388  1.1526
 8867SOL    HW130003   2.076  10.921   0.549  0.3341  0.1325 -1.8148
 8867SOL    HW230004   1.959  11.010   0.515  0.0311  0.4515 -0.0278
 8868SOL     OW30005  10.373   4.369   6.855  0.0059 -0.6602 -0.7308
 8868SOL    HW130006  10.280   4.387   6.871  0.3497 -0.5841  1.5089
 8868SOL    HW230007  10.419   4.442   6.897  1.1268 -1.5909 -0.3051
 8869SOL     OW30008   9.451   3.291   9.036  0.1509  0.2865  0.6774
 8869SOL    HW130009   9.409   3.207   9.019 -0.2954  0.2698  1.8002
 8869SOL    HW230010   9.380   3.350   9.058  0.7118 -0.0820  3.9806
 8870SOL     OW30011  10.406   5.057   2.120  0.1193  0.4208  0.4512
 8870SOL    HW130012  10.467   5.063   2.047 -0.6281 -0.6810 -0.3127
 8870SOL    HW230013  10.441   4.986   2.175 -0.4632 -0.2192  0.0065
 8871SOL     OW30014   8.068   4.615   3.801 -0.7377 -0.4570 -0.0652
 8871SOL    HW130015   8.109   4.598   3.886  0.1352  1.3856 -0.0545
 8871SOL    HW230016   8.108   4.552   3.742 -1.5614 -1.9603  0.9182
 8872SOL     OW30017   7.548   6.153   0.828  0.2042  0.2270 -0.0999
 8872SOL    HW130018   7.580   6.173   0.740 -0.5479 -0.0245 -0.4325
 8872SOL    HW230019   7.471   6.209   0.839 -1.6768 -2.0410 -0.8810
 8873SOL     OW30020   6.053  10.017   4.740  0.7164  0.0233  0.0073
 8873SOL    HW130021   6.093   9.953   4.799 -0.2501  0.7626  1.5387
 8873SOL    HW230022   5.979  10.051   4.789 -0.1908  0.6224 -1.7064
 8874SOL     OW30023   7.099   2.024   3.613  0.0171  0.3261  0.4368
 8874SOL    HW130024   7.181   2.005   3.567  0.7105 -1.4668  2.2785
 8874SOL    HW230025   7.126   2.076   3.688 -0.7102  0.7450  0.4109
 8875SOL     OW30026   9.208  10.201   9.678 -0.1751 -0.4105 -0.3408
 8875SOL    HW130027   9.278  10.145   9.646  2.1630  1.4768  1.1299
 8875SOL    HW230028   9.246  10.289   9.678 -2.3396  0.6025  1.1522
 8876SOL     OW30029   2.329   9.427   5.762 -1.0318  0.2305  0.6099
 8876SOL    HW130030   2.257   9.475   5.803 -0.8709 -1.4842  3.0740
 8876SOL    HW230031   2.395   9.419   5.830  1.2063  0.9695 -1.3156
 8877SOL     OW30032   0.574   0.817   7.708  0.1729 -0.3455  0.2506
 8877SOL    HW130033   0.564   0.816   7.613  1.5715  1.8039  0.0029
 8877SOL    HW230034   0.667   0.795   7.722  0.0225 -0.4745  1.1081
 8878SOL     OW30035  10.743   8.932   1.072  0.0666 -0.3921  0.0281
 8878SOL    HW130036  10.670   8.914   1.013 -1.2632 -1.3984  1.8867
 8878SOL    HW230037  10.733   9.025   1.095 -0.5277 -0.4795  0.1274
 8879SOL     OW30038   8.311   8.524   9.894 -0.4288 -0.3239 -0.3725
 8879SOL    HW130039   8.299   8.464   9.968  0.5967  0.1769  0.2186
 8879SOL    HW230040   8.232   8.579   9.895 -0.6248 -0.6091  0.0761
 8880SOL     OW30041   6.811   9.047   9.054 -0.5758 -0.3021  0.1734
 8880SOL    HW130042   6.718   9.039   9.032 -0.2837  1.2339 -2.0049
 8880SOL    HW230043   6.845   8.958   9.048 -1.5257 -0.6040 -1.0639
 8881SOL     OW30044   2.568   9.060   9.834 -0.1272 -0.0191 -0.3360
 8881SOL    HW130045   2.576   9.138   9.779 -1.8051  0.3319 -0.1300
 8881SOL    HW230046   2.566   9.094   9.923  0.8102 -0.4502 -0.1380
 8882SOL     OW30047   1.280   0.436   2.997 -0.1343  0.4401 -0.0731
 8882SOL    HW130048   1.330   0.479   2.928  1.5463  0.5548  1.1611
 8882SOL    HW230049   1.262   0.505   3.061 -0.2001 -0.0048  0.4003
 8883SOL     OW30050   3.705   2.520   3.996  0.0616 -0.2187 -0.3122
 8883SOL    HW130051   3.790   2.480   4.013  1.9025  2.5800 -2.0305
 8883SOL    HW230052   3.665   2.464   3.928  0.3795 -1.6790  0.6583
 8884SOL     OW30053   8.982   3.165   2.305 -0.1979 -0.0142  0.1172
 8884SOL    HW130054   9.032   3.173   2.224 -0.7622 -0.4055 -0.2782
 8884SOL    HW230055   9.048   3.170   2.374  0.2864  0.3535 -0.3610
 8885SOL     OW30056   3.383   8.996   0.540 -0.0825  0.1301 -0.1121
 8885SOL    HW130057   3.295   8.996   0.503  0.6304  0.1613 -1.9375
 8885SOL    HW230058   3.378   9.055   0.615 -1.1060  1.9950 -1.5541
 8886SOL     OW30059   1.873   0.848   0.497 -0.2600 -0.2766  0.3179
 8886SOL    HW130060   1.790   0.883   0.464 -0.5606  0.5504  1.8528
 8886SOL    HW230061   1.892   0.774   0.440 -0.9468  0.8195 -1.3959
 8887SOL     OW30062   5.440   9.890   3.214 -0.3798 -0.3566 -0.5035
 8887SOL    HW130063   5.434   9.912   3.308 -0.3726 -2.0686 -0.0811
 8887SOL    HW230064   5.351   9.906   3.181 -1.3593 -2.9565  0.5881
 8888SOL     OW30065   5.139   6.042   7.791  0.2005  0.0367  0.0746
 8888SOL    HW130066   5.234   6.050   7.791  0.1035  1.8741  1.3916
 8888SOL    HW230067   5.108   6.113   7.735 -0.4120 -0.2773  0.0032
 8889SOL     OW30068   5.012   4.667   5.626  0.4523 -0.7002  0.2581
 8889SOL    HW130069   5.013   4.710   5.712  1.7034  1.7954 -0.9032
 8889SOL    HW230070   5.090   4.611   5.626  0.8073 -0.2108  0.5103
 8890SOL     OW30071   7.376   5.375   1.087  0.4716 -0.1722  0.3815
 8890SOL    HW130072   7.442   5.429   1.044  0.0007  1.7609  1.9747
 8890SOL    HW230073   7.415   5.351   1.171  1.0553 -3.2243 -0.6261
 8891SOL     OW30074   3.512   5.691  10.514 -0.3631  0.1163  0.0801
 8891SOL    HW130075   3.452   5.652  10.577 -0.8762 -0.8389 -0.9510
 8891SOL    HW230076   3.458   5.750  10.462 -0.5773 -1.1051 -1.1639
 8892SOL     OW30077   1.584   1.264   8.634 -0.2867  0.2919  0.2223
 8892SOL    HW130078   1.531   1.316   8.695 -0.1481  0.4295  0.2276
 8892SOL    HW230079   1.674   1.277   8.665 -0.2729 -0.1666  0.3841
 8893SOL     OW30080   3.906   6.160   9.412 -0.8891 -0.3368  0.5825
 8893SOL    HW130081   3.918   6.219   9.338 -0.5472 -1.2056 -0.0664
 8893SOL    HW230082   3.885   6.218   9.485  1.7151  0.8298  0.5194
 8894SOL     OW30083  10.564   2.690   8.216 -0.2784  0.6498  0.3938
 8894SOL    HW130084  10.581   2.689   8.122  0.6128  0.7806  0.5523
 8894SOL    HW230085  10.488   2.633   8.227  1.4798 -1.9281 -0.0453
 8895SOL     OW30086   3.620   2.595   1.793  0.0966 -0.1099 -0.3701
 8895SOL    HW130087   3.681   2.638   1.853 -0.8794 -1.1503  1.4288
 8895SOL    HW230088   3.551   2.660   1.778 -0.7041 -0.5236  1.3053
 8896SOL     OW30089   6.704   4.331   0.514  0.5250 -0.3769 -0.3547
 8896SOL    HW130090   6.659   4.248   0.530  0.5617 -0.3421 -0.0689
 8896SOL    HW230091   6.673   4.389   0.584  1.7240 -0.6307  0.4237
 8897SOL     OW30092   3.683   0.273  10.908 -0.5710 -0.0432 -0.0634
 8897SOL    HW130093   3.698   0.317  10.824 -0.1657 -1.3234 -0.6883
 8897SOL    HW230094   3.590   0.283  10.925 -0.5655  0.6446 -0.4208
 8898SOL     OW30095   9.593   7.959   2.260  0.4844  0.4741  0.7451
 8898SOL    HW130096   9.656   7.887   2.253  0.0011  0.2133 -3.1104
 8898SOL    HW230097   9.519   7.921   2.307  0.5558 -1.3565 -0.5083
 8899SOL     OW30098   1.505   9.577   1.863 -0.2519  0.9763  0.3766
 8899SOL    HW130099   1.586   9.583   1.814 -0.0417  2.1633  0.8278
 8899SOL    HW230100   1.489   9.666   1.895 -0.7019  0.3857  1.9268
 8900SOL     OW30101   3.099   5.438   6.071 -0.4599 -0.6285  0.5937
 8900SOL    HW130102   3.157   5.382   6.019  0.7593  1.0188  0.0857
 8900SOL    HW230103   3.043   5.481   6.006  0.2649  0.5382  0.7070
 8901SOL     OW30104  10.437   3.645   3.621 -0.3148  0.8808 -0.3876
 8901SOL    HW130105  10.372   3.587   3.581 -0.3771  3.4504 -4.5514
 8901SOL    HW230106  10.386   3.700   3.680 -0.6762 -1.3102  1.4924
 8902SOL     OW30107   6.895   6.388   7.499 -0.4343  0.0314 -0.2864
 8902SOL    HW130108   6.919   6.392   7.591 -0.4575 -4.0125  0.1026
 8902SOL    HW230109   6.822   6.449   7.490  1.9320  3.3735  1.3559
 8903SOL     OW30110   2.467  10.346   3.293  0.7144  0.1807 -0.0900
 8903SOL    HW130111   2.490  10.341   3.386  2.4994  0.5277 -0.4839
 8903SOL    HW230112   2.444  10.256   3.269 -1.1639  0.3271  0.9959
 8904SOL     OW30113   3.222   2.746   0.798  0.1128 -0.3707  0.1370
 8904SOL    HW130114   3.149   2.703   0.843 -2.3825  1.3062 -2.0124
 8904SOL    HW230115   3.213   2.838   0.821  1.1475 -0.0322 -0.7372
 8905SOL     OW30116   8.293   1.563   8.905  0.3434 -0.1229 -0.0986
 8905SOL    HW130117   8.295   1.632   8.972  0.0333 -1.2012  1.0606
 8905SOL    HW230118   8.278   1.482   8.954  0.5163 -1.0066 -1.4446
 8906SOL     OW30119   6.835   2.415   0.899  0.2961  0.5511 -0.0897
 8906SOL    HW130120   6.832   2.328   0.858 -0.2952  0.0303  1.0194
 8906SOL    HW230121   6.753   2.457   0.873  1.3446  1.5216 -2.1101
 8907SOL     OW30122   8.375   2.012   4.590 -0.0766 -0.2155  0.5301
 8907SOL    HW130123   8.447   2.020   4.528  0.3656  0.2783  1.0956
 8907SOL    HW230124   8.341   2.101   4.600 -1.0721 -0.5093 -0.0827
 8908SOL     OW30125   3.157   6.266   2.199  0.7010  0.3784  0.2402
 8908SOL    HW130126   3.095   6.239   2.132  1.7553  1.5427 -1.2778
 8908SOL    HW230127   3.166   6.190   2.256 -0.4190 -0.5621 -0.8027
 8909SOL     OW30128   4.512   4.281   2.286  0.0846  0.0829 -0.1552
 8909SOL    HW130129   4.515   4.296   2.380 -2.1759  0.7705 -0.1457
 8909SOL    HW230130   4.459   4.202   2.276 -0.6352  0.6402 -0.8729
 8910SOL     OW30131   0.048   0.005   1.431  0.0228  0.4830  0.1017
 8910SOL    HW130132   0.091  -0.079   1.421 -0.1566  0.4672 -0.6216
 8910SOL    HW230133  -0.037  -0.006   1.388 -0.0653  0.9819  0.1402
 8911SOL     OW30134   6.975   3.340   6.151  0.3701 -0.2934  0.0198
 8911SOL    HW130135   6.918   3.417   6.149 -0.1446 -0.6334  0.8103
 8911SOL    HW230136   6.983   3.319   6.244  2.5967  0.3178  0.0284
 8912SOL     OW30137   2.350   6.959   2.805 -0.5084 -0.3667 -0.1660
 8912SOL    HW130138   2.353   7.054   2.801  3.2898 -0.2812  0.4962
 8912SOL    HW230139   2.328   6.932   2.716 -1.4261  1.1011 -0.4155
 8913SOL     OW30140   2.471  10.090   3.145  0.6655  0.1076 -0.6021
 8913SOL    HW130141   2.564  10.072   3.136  1.0654  1.4573  0.4605
 8913SOL    HW230142   2.432  10.005   3.170  1.6600 -0.3857 -0.6859
 8914SOL     OW30143   3.600   2.930   2.412 -0.5989 -0.1613 -0.0023
 8914SOL    HW130144   3.524   2.890   2.372 -0.3327 -2.9067  1.9164
 8914SOL    HW230145   3.631   2.994   2.348 -2.3222 -1.6018 -2.4311
 8915SOL     OW30146   4.843   0.524   7.255  0.2475 -0.5829 -0.8472
 8915SOL    HW130147   4.860   0.461   7.184  0.0211 -0.9213 -0.6044
 8915SOL    HW230148   4.805   0.600   7.210 -3.1175 -2.0489 -0.8001
 8916SOL     OW30149   1.336   9.223   4.949 -0.0739  0.0485 -0.3459
 8916SOL    HW130150   1.254   9.267   4.973  0.2108  0.1139  0.5775
 8916SOL    HW230151   1.363   9.264   4.867 -1.6417 -0.8984 -1.3965
 8917SOL     OW30152   1.520   1.670   6.280  0.0867  0.0537  0.1642
 8917SOL    HW130153   1.489   1.760   6.287  0.1961  0.0117  1.3237
 8917SOL    HW230154   1.451   1.625   6.231 -0.2422  0.6339  0.0824
 8918SOL     OW30155   5.077   3.691   4.824  0.0114  0.0984  0.3765
 8918SOL    HW130156   5.087   3.727   4.912 -0.2072  0.4493  0.2599
 8918SOL    HW230157   5.160   3.646   4.807  0.3928  0.7703  0.4241
 8919SOL     OW30158   4.622  10.592   3.037  0.0540 -0.4610 -0.0232
 8919SOL    HW130159   4.645  10.594   2.944 -2.8180  0.4620 -0.8053
 8919SOL    HW230160   4.581  10.507   3.050 -3.7456  1.0231 -0.8871
 8920SOL     OW30161  10.667   7.759   6.437 -0.5125 -0.1557 -0.0196
 8920SOL    HW130162  10.726   7.725   6.504  0.1490 -0.4096 -0.7054
 8920SOL    HW230163  10.606   7.815   6.484  0.9880  1.0489  0.5612
 8921SOL     OW30164   8.793   8.192   7.628  0.3998 -0.7241  0.4383
 8921SOL    HW130165   8.835   8.128   7.570  1.7836  0.0742  0.5198
 8921SOL    HW230166   8.788   8.272   7.577 -0.9815 -0.7680  0.4708
 8922SOL     OW30167   7.551   4.302   9.681 -0.1894 -0.0492 -0.4414
 8922SOL    HW130168   7.527   4.259   9.599 -1.4802  1.8841 -1.1740
 8922SOL    HW230169   7.629   4.256   9.711  1.6243  0.4552 -3.8752
 8923SOL     OW30170   3.152   9.762   1.028  0.4300 -0.4494 -0.7127
 8923SOL    HW130171   3.229   9.749   1.084  1.0174 -0.4533 -1.5142
 8923SOL    HW230172   3.182   9.740   0.940 -0.5272 -0.5776 -1.0186
 8924SOL     OW30173   5.253   2.580   3.186  0.1128  0.4644 -0.1477
 8924SOL    HW130174   5.345   2.605   3.184 -0.1405  1.3937 -1.2086
 8924SOL    HW230175   5.222   2.596   3.097 -0.5330 -2.0161 -0.4213
 8925SOL     OW30176   0.801  10.692   9.857 -0.2103  0.0491 -0.0112
 8925SOL    HW130177   0.774  10.784   9.853  0.9073  0.4317  0.5697
 8925SOL    HW230178   0.865  10.690   9.928  0.1529 -1.0825 -0.3554
 8926SOL     OW30179   7.568   1.792   0.094 -0.0860  0.1875 -0.2825
 8926SOL    HW130180   7.476   1.798   0.118  0.2000 -1.9659  1.7159
 8926SOL    HW230181   7.568   1.804  -0.001 -2.4366  0.0980 -0.3617
 8927SOL     OW30182   5.070   5.285   2.373 -0.2247 -0.3750 -0.1927
 8927SOL    HW130183   5.085   5.211   2.315  0.4054  0.7042 -1.4485
 8927SOL    HW230184   5.156   5.326   2.382 -0.3437 -0.4097  1.3770
 8928SOL     OW30185   2.706   1.577   9.896  0.0431  0.3006  0.2265
 8928SOL    HW130186   2.669   1.657   9.933 -2.4022 -0.5083 -0.3138
 8928SOL    HW230187   2.720   1.519   9.971 -4.3922 -1.1329  0.2725
 8929SOL     OW30188   3.960   8.550   0.520  0.1185 -0.2676  0.1818
 8929SOL    HW130189   3.878   8.587   0.486  0.0606  0.5625  1.1752
 8929SOL    HW230190   4.028   8.588   0.464 -0.1933 -1.6015 -1.1867
 8930SOL     OW30191  10.115   8.652   9.616  0.1476  0.3573  0.2313
 8930SOL    HW130192  10.131   8.676   9.707  1.3817 -0.1436  0.1582
 8930SOL    HW230193  10.101   8.557   9.619 -0.3262  0.4140 -0.0430
 8931SOL     OW30194   1.997   8.004   4.453 -0.2748 -0.2520  0.3920
 8931SOL    HW130195   2.085   8.042   4.445 -0.0016 -0.8632  0.3637
 8931SOL    HW230196   1.939   8.078   4.469  0.2001  0.1981  0.0410
 8932SOL     OW30197   9.973   4.106   1.565  0.1695  0.0238  0.1810
 8932SOL    HW130198   9.884   4.125   1.595 -0.1887 -2.7791  1.2110
 8932SOL    HW230199   9.991   4.018   1.598  2.7774 -0.1007 -1.3012
 8933SOL     OW30200   2.809   2.011   5.222  0.2355 -0.1050 -0.4711
 8933SOL    HW130201   2.813   2.077   5.291  2.0778  1.4573 -1.9183
 8933SOL    HW230202   2.854   1.935   5.258  1.5906  0.8550 -0.0718
 8934SOL     OW30203   6.496   9.149   3.652  0.4139 -0.0777 -0.5055
 8934SOL    HW130204   6.432   9.212   3.618  1.1413  0.5955 -0.6425
 8934SOL    HW230205   6.539   9.114   3.575  1.3502  0.6893 -0.3452
 8935SOL     OW30206   8.235   2.415   1.263 -0.1621 -0.5997 -0.5423
 8935SOL    HW130207   8.152   2.412   1.215 -0.9765 -0.2450  0.8062
 8935SOL    HW230208   8.279   2.492   1.229 -2.1073  1.5115  1.3826
 8936SOL     OW30209   4.441   2.817   4.766  0.4990  0.4181 -0.0006
 8936SOL    HW130210   4.385   2.846   4.838  0.6711  0.2780  0.1883
 8936SOL    HW230211   4.519   2.781   4.808  0.5713  0.2755 -0.2528
 8937SOL     OW30212   2.277   2.445   3.918  0.2641  0.3157 -0.2237
 8937SOL    HW130213   2.188   2.463   3.888  0.1303 -1.1918 -0.8085
 8937SOL    HW230214   2.268   2.368   3.975  1.2917 -0.3735 -0.9588
 8938SOL     OW30215   1.739   9.755   3.079 -0.2727  1.1467  0.0167
 8938SOL    HW130216   1.664   9.811   3.059 -0.3543  1.6290  1.5369
 8938SOL    HW230217   1.799   9.812   3.127  0.0330  0.1550  0.8416
 8939SOL     OW30218   1.956   2.945   3.765  0.6244  0.6043  0.0832
 8939SOL    HW130219   1.869   2.981   3.746 -0.5254 -0.5973  2.5829
 8939SOL    HW230220   1.950   2.854   3.737  0.9086  0.4022  0.6645
 8940SOL     OW30221   6.951   7.101   0.466 -0.2471 -0.4727 -0.7539
 8940SOL    HW130222   6.912   7.142   0.389  0.0396 -1.5906 -1.5177
 8940SOL    HW230223   6.941   7.007   0.451  1.2810 -0.7536 -0.2092
 8941SOL     OW30224   6.216   3.345   2.208 -0.4140  0.1469 -0.0787
 8941SOL    HW130225   6.193   3.387   2.291  0.8453  0.3366  0.2001
 8941SOL    HW230226   6.298   3.299   2.226 -0.3885 -0.2375 -1.0853
 8942SOL     OW30227   1.112  10.457   3.967  0.1122  0.5807  0.0850
 8942SOL    HW130228   1.173  10.409   4.024  0.9860  0.8729 -0.5819
 8942SOL    HW230229   1.147  10.444   3.879 -1.1597  0.2301 -0.3895
 8943SOL     OW30230   8.774   8.711   2.267 -0.5890  0.3101 -0.0964
 8943SOL    HW130231   8.765   8.684   2.175 -0.7873 -0.0619  0.0328
 8943SOL    HW230232   8.845   8.658   2.302 -0.5572  0.4063 -0.0141
 8944SOL     OW30233   7.408   5.226   4.479  0.2824  0.0656 -0.3949
 8944SOL    HW130234   7.479   5.171   4.513  0.8697 -0.1009 -1.8170
 8944SOL    HW230235   7.371   5.175   4.407 -0.5430  0.6613 -0.4057
 8945SOL     OW30236   3.926   5.398   3.813 -0.4669 -0.7823  0.9937
 8945SOL    HW130237   3.934   5.354   3.897 -0.9841 -1.8440  0.5087
 8945SOL    HW230238   3.845   5.448   3.819 -0.7892 -1.2891  0.9490
 8946SOL     OW30239   6.615   0.168   3.077  0.0996  0.0599  0.0919
 8946SOL    HW130240   6.655   0.230   3.017 -0.1468 -0.7492 -0.9346
 8946SOL    HW230241   6.679   0.158   3.147  0.2395  1.2758  0.1593
 8947SOL     OW30242   4.198   9.429   6.428 -0.3866  0.4943 -0.2644
 8947SOL    HW130243   4.110   9.391   6.433 -0.3070  0.1112 -1.5657
 8947SOL    HW230244   4.184   9.522   6.411 -0.5402  0.5514  0.1605
 8948SOL     OW30245   6.319   1.241   0.339 -0.2140 -0.1504 -0.1003
 8948SOL    HW130246   6.340   1.334   0.344  1.2630 -0.4855  0.5076
 8948SOL    HW230247   6.390   1.203   0.287  1.5663 -1.5254  3.0389
 8949SOL     OW30248   1.493  10.401   4.080  0.3281  0.0331  0.0917
 8949SOL    HW130249   1.491  10.475   4.141  0.0278  1.5242 -1.6367
 8949SOL    HW230250   1.415  10.350   4.102 -1.1257  1.8609 -0.5644
 8950SOL     OW30251   4.278   5.610   9.480  1.3716 -0.7259  0.5703
 8950SOL    HW130252   4.365   5.648   9.468  1.3167 -0.6941  0.2647
 8950SOL    HW230253   4.219   5.685   9.481  1.1590 -0.8487 -0.9794
 8951SOL     OW30254   3.031   0.166   8.639 -0.3257  0.5249  0.2258
 8951SOL    HW130255   3.047   0.196   8.549 -0.7548 -0.9733 -0.3904
 8951SOL    HW230256   2.964   0.224   8.672 -0.2219  1.0532 -0.4538
 8952SOL     OW30257   2.720   3.456   6.603 -0.4655 -0.2681  0.0705
 8952SOL    HW130258   2.719   3.364   6.631 -0.2730 -0.7226 -1.3694
 8952SOL    HW230259   2.798   3.465   6.548  0.1859  1.0758  1.1380
 8953SOL     OW30260  10.504  10.328   6.718 -0.1506 -0.1455  0.0719
 8953SOL    HW130261  10.557  10.249   6.726 -0.1646 -0.1557  0.0619
 8953SOL    HW230262  10.508  10.350   6.624  3.3112  2.1932  0.5589
 8954SOL     OW30263   3.120   8.529   5.731 -0.1322 -0.0207 -0.1471
 8954SOL    HW130264   3.202   8.490   5.701  0.2858 -0.5763  1.5941
 8954SOL    HW230265   3.090   8.471   5.801 -2.1054  0.0915 -0.8279
 8955SOL     OW30266   6.381   3.410   6.061  0.2341  1.0774 -0.4118
 8955SOL    HW130267   6.474   3.393   6.044  0.1790  0.3570 -0.0086
 8955SOL    HW230268   6.339   3.397   5.976 -0.0725 -2.7637  0.1251
 8956SOL     OW30269   1.644   4.521   2.308 -0.7932 -0.4159  0.2049
 8956SOL    HW130270   1.673   4.508   2.218 -2.3462 -0.0461 -0.3679
 8956SOL    HW230271   1.602   4.607   2.307 -0.7972 -0.3956  1.3010
 8957SOL     OW30272   2.088   4.032  10.205  0.5468  0.4166 -0.1328
 8957SOL    HW130273   2.073   3.941  10.178 -1.1936  0.4325  0.6613
 8957SOL    HW230274   2.001   4.070  10.209  1.0069  1.3970  2.0666
 8958SOL     OW30275   6.736   8.988  10.677  1.1899 -1.0687  0.5747
 8958SOL    HW130276   6.822   8.946  10.669  0.1749 -3.4640  1.3214
 8958SOL    HW230277   6.680   8.937  10.619 -0.1770 -0.8894  1.7068
 8959SOL     OW30278   2.987   9.545   6.250  0.0154 -0.0582  0.0493
 8959SOL    HW130279   3.010   9.630   6.288  2.2745 -0.5377 -0.0996
 8959SOL    HW230280   2.984   9.560   6.156  1.1808 -0.2709 -0.0359
 8960SOL     OW30281   4.317   9.981   2.244  0.2343  0.4997 -0.3961
 8960SOL    HW130282   4.399   9.947   2.279 -0.0243 -0.5886 -0.8019
 8960SOL    HW230283   4.321  10.075   2.259  0.3093  0.1398  2.2038
 8961SOL     OW30284   1.134   4.968   8.112  0.1518  0.2300 -0.0779
 8961SOL    HW130285   1.162   4.947   8.023 -1.9987 -1.6395 -0.4164
 8961SOL    HW230286   1.196   4.921   8.168 -0.0688 -0.8463 -0.6927
 8962SOL     OW30287   4.583   7.683   6.161  0.1049  0.2027 -0.1371
 8962SOL    HW130288   4.660   7.629   6.177 -1.5956 -2.6192 -0.8739
 8962SOL    HW230289   4.603   7.729   6.080  0.7656 -1.0126 -0.6927
 8963SOL     OW30290   2.947   2.662   9.911 -0.6444  0.4650 -0.0674
 8963SOL    HW130291   2.928   2.577   9.873 -0.2544  1.5158 -2.8532
 8963SOL    HW230292   2.866   2.688   9.955 -0.9684 -1.0184  0.2740
 8964SOL     OW30293   4.939   1.493   5.832 -0.6685  0.6353 -0.5517
 8964SOL    HW130294   4.907   1.551   5.902  1.3672  0.9337  0.2268
 8964SOL    HW230295   4.971   1.553   5.765 -1.1729  0.3611 -1.0408
 8965SOL     OW30296   3.719   1.123   2.067 -0.2118  0.0304  0.9844
 8965SOL    HW130297   3.651   1.178   2.028 -0.8826  0.9534  3.2546
 8965SOL    HW230298   3.798   1.143   2.017 -1.2543  0.0888 -0.7225
 8966SOL     OW30299   3.167   1.136   7.308  0.2088 -0.0285  0.0775
 8966SOL    HW130300   3.186   1.083   7.385 -1.2432 -3.1435 -1.5483
 8966SOL    HW230301   3.081   1.173   7.324  0.4118  0.2968  0.4261
 8967SOL     OW30302   9.093   8.018   8.570 -0.3993 -0.0876  0.4404
 8967SOL    HW130303   9.094   7.924   8.553 -0.3196 -0.1170  0.6048
 8967SOL    HW230304   9.164   8.053   8.515  0.4223 -0.2970  1.3407
 8968SOL     OW30305   6.003   5.750   9.766 -0.0456  0.0384  0.0325
 8968SOL    HW130306   6.081   5.698   9.746 -0.1366  0.0469 -0.3601
 8968SOL    HW230307   5.952   5.749   9.685  0.9124  2.4294 -0.6978
 8969SOL     OW30308  10.586   8.164   3.516 -0.0570 -0.6125 -0.1029
 8969SOL    HW130309  10.680   8.175   3.499  0.1865 -1.2349  0.7824
 8969SOL    HW230310  10.582   8.106   3.592 -1.1910 -1.7803 -1.0071
 8970SOL     OW30311   3.162   0.010   3.313 -0.0064 -0.0834  0.2474
 8970SOL    HW130312   3.186  -0.060   3.373  3.4360 -0.4150 -1.2899
 8970SOL    HW230313   3.084   0.049   3.352  1.4589 -0.8297  4.4258
 8971SOL     OW30314   4.495   6.650   5.243  0.1629 -0.3890  0.4518
 8971SOL    HW130315   4.560   6.673   5.177 -0.6262 -0.6184 -0.4192
 8971SOL    HW230316   4.542   6.594   5.305  0.5534 -1.3934 -0.7139
 8972SOL     OW30317   4.006   2.874   1.180 -0.0077 -0.3701  0.0863
 8972SOL    HW130318   4.072   2.821   1.135  0.4278  1.1899 -1.1967
 8972SOL    HW230319   4.053   2.952   1.207 -0.5580 -0.7242  2.2642
 8973SOL     OW30320   5.853   9.915   5.817 -0.0415 -0.2598 -0.3885
 8973SOL    HW130321   5.837   9.861   5.894  0.7948  0.5825  0.3965
 8973SOL    HW230322   5.922   9.869   5.769 -1.3963 -1.4173 -1.2985
 8974SOL     OW30323   2.035   1.094   6.735 -0.6644 -0.4924 -0.1414
 8974SOL    HW130324   2.077   1.015   6.769 -0.4385 -0.6477 -0.7656
 8974SOL    HW230325   1.976   1.063   6.667 -1.3356 -0.2117  0.3027
 8975SOL     OW30326   2.509   3.065   3.009 -0.4770  0.0882  0.2738
 8975SOL    HW130327   2.545   3.125   3.074 -0.4122 -0.0925  0.4057
 8975SOL    HW230328   2.562   3.080   2.931 -1.5157  1.3804 -0.2172
 8976SOL     OW30329   2.828   8.044   8.015  0.1609  0.0212 -0.0047
 8976SOL    HW130330   2.914   8.009   7.993  1.5573  2.5413  1.0653
 8976SOL    HW230331   2.789   8.066   7.930  1.2431  0.2800 -0.4563
 8977SOL     OW30332   5.029   4.912   2.684  0.2672  0.0440 -0.5033
 8977SOL    HW130333   5.077   4.833   2.710  0.6643  0.1453 -0.9147
 8977SOL    HW230334   5.074   4.941   2.605 -1.5361 -0.8203 -1.9049
 8978SOL     OW30335   4.516   3.484   7.211  0.4297 -0.0150 -0.1101
 8978SOL    HW130336   4.471   3.542   7.149  1.1128 -0.0230 -0.6358
 8978SOL    HW230337   4.596   3.457   7.164  0.6252 -0.5588  0.5239
 8979SOL     OW30338  10.319   3.495   5.370 -0.2954 -0.1863 -0.2566
 8979SOL    HW130339  10.384   3.501   5.441  0.8775 -1.7678 -1.1327
 8979SOL    HW230340  10.363   3.445   5.301 -3.1402 -3.4174 -0.0184
 8980SOL     OW30341   2.415  10.023   0.242  0.0444 -0.1713 -0.7707
 8980SOL    HW130342   2.333  10.053   0.202  0.5601  1.2562 -0.8203
 8980SOL    HW230343   2.465   9.985   0.170 -0.5953 -1.1620 -0.7194
 8981SOL     OW30344   9.616   2.285   5.766 -0.4264 -0.2185 -0.5715
 8981SOL    HW130345   9.655   2.227   5.831 -0.7980  1.3678  1.1459
 8981SOL    HW230346   9.646   2.373   5.790  0.5733  0.3419 -3.4053
 8982SOL     OW30347   3.996   2.471   3.799  0.6920 -0.3304  0.2741
 8982SOL    HW130348   4.089   2.452   3.787  0.1509 -2.4192 -1.2799
 8982SOL    HW230349   3.990   2.566   3.798  2.7143 -0.1655 -0.4678
 8983SOL     OW30350   1.517   0.634   3.678  0.2945 -0.5434  0.5834
 8983SOL    HW130351   1.611   0.616   3.677  0.4089  0.0345 -0.1816
 8983SOL    HW230352   1.479   0.567   3.621  0.4946  0.4151 -0.7213
 8984SOL     OW30353   1.686   4.376   0.564  0.5624  1.0071 -0.6399
 8984SOL    HW130354   1.616   4.402   0.623  0.7547  2.0040 -0.8308
 8984SOL    HW230355   1.761   4.430   0.590  0.6229  1.5379 -1.8481
 8985SOL     OW30356   1.805   0.513   8.282  0.0699  0.4742  0.3512
 8985SOL    HW130357   1.725   0.565   8.270 -0.4076 -0.6445 -1.8111
 8985SOL    HW230358   1.813   0.502   8.376 -1.6933  1.5834  0.6744
 8986SOL     OW30359   8.667   5.869   0.366 -0.2451  0.4447 -0.1543
 8986SOL    HW130360   8.684   5.961   0.383  0.8793  0.1382  0.4683
 8986SOL    HW230361   8.636   5.867   0.276  4.5267  0.9930 -2.1109
 8987SOL     OW30362   2.266   4.567   9.566  0.1438 -0.1151  0.1816
 8987SOL    HW130363   2.193   4.507   9.549 -0.1179 -0.6826  2.8875
 8987SOL    HW230364   2.344   4.512   9.567  0.2237 -0.0017  0.2485
 8988SOL     OW30365   4.823   9.315   5.972 -0.2204  0.4009 -0.1374
 8988SOL    HW130366   4.739   9.354   5.998  0.0508  0.8727  0.0434
 8988SOL    HW230367   4.811   9.221   5.986 -0.0388  0.6339  1.8955
 8989SOL     OW30368   4.386   9.826   6.340 -0.0461  0.6345  0.3787
 8989SOL    HW130369   4.292   9.818   6.325  0.1500  1.1355 -1.3995
 8989SOL    HW230370   4.394   9.851   6.432 -1.5983 -0.2194  0.7700
 8990SOL     OW30371   5.355  10.840   0.272 -0.3437  0.2225  0.0390
 8990SOL    HW130372   5.317  10.928   0.275 -0.5828  0.0992  1.9190
 8990SOL    HW230373   5.291  10.788   0.223 -0.6189  0.8937 -0.3320
 8991SOL     OW30374   1.789   1.320  10.294  0.0065  0.0959 -0.0289
 8991SOL    HW130375   1.812   1.373  10.218 -0.8185  0.2264 -0.1965
 8991SOL    HW230376   1.842   1.355  10.365  1.0099 -0.2172 -0.6050
 8992SOL     OW30377   4.600   4.097   5.414  0.0358  0.1871  0.3863
 8992SOL    HW130378   4.509   4.122   5.429  0.2991  0.5497  1.5170
 8992SOL    HW230379   4.595   4.020   5.357 -1.1281 -1.5754  2.7058
 8993SOL     OW30380   4.760   4.323   5.479  0.5726  0.2915 -0.2206
 8993SOL    HW130381   4.807   4.288   5.403  1.5179 -1.3368  1.0635
 8993SOL    HW230382   4.686   4.264   5.490 -1.3434  2.2464 -1.6017
 8994SOL     OW30383   2.720   7.903   7.136  0.1583  0.1742 -0.5731
 8994SOL    HW130384   2.680   7.899   7.223 -0.3916  2.4452 -0.6619
 8994SOL    HW230385   2.755   7.992   7.129  1.3099 -0.3528 -2.2128
 8995SOL     OW30386   8.465   1.446   3.712  0.0999 -0.2008  0.0571
 8995SOL    HW130387   8.406   1.424   3.784 -0.1522  1.0687  0.2674
 8995SOL    HW230388   8.549   1.463   3.754  0.7626 -2.3476 -0.2758
 8996SOL     OW30389   6.183   2.257   4.079 -0.1156  0.1180  0.4170
 8996SOL    HW130390   6.163   2.350   4.069 -3.3813 -0.4677  0.4373
 8996SOL    HW230391   6.190   2.244   4.174 -1.9176  0.0165  0.5707
 8997SOL     OW30392   4.142   9.594   5.384 -0.1441 -0.0659 -0.1607
 8997SOL    HW130393   4.127   9.680   5.344  0.4074  0.1408  0.0693
 8997SOL    HW230394   4.202   9.551   5.324 -0.9364 -0.5539 -0.6222
 8998SOL     OW30395   0.653  10.191   0.904  0.1455 -0.3805  0.1290
 8998SOL    HW130396   0.649  10.240   0.986 -0.2707  1.1108 -0.7436
 8998SOL    HW230397   0.737  10.215   0.865 -0.5139  0.4764 -0.7945
 8999SOL     OW30398   2.711   1.069   5.003 -0.9726  0.0738  0.2076
 8999SOL    HW130399   2.748   1.021   5.077  0.3516  0.9110  0.1221
 8999SOL    HW230400   2.716   1.008   4.930 -0.3144 -0.0438  0.3442
 9000SOL     OW30401   4.855   3.298  10.826  0.1277 -0.5316  0.4525
 9000SOL    HW130402   4.849   3.391  10.805  1.8937 -0.1053  1.6877
 9000SOL    HW230403   4.770   3.277  10.865 -0.8899  0.1220 -1.2789
 9001SOL     OW30404   3.961   2.239   7.020 -0.6922  0.2654  0.1673
 9001SOL    HW130405   3.988   2.150   7.043  1.0100 -0.0229 -2.4356
 9001SOL    HW230406   3.883   2.226   6.965  0.3928  0.1709 -1.4349
 9002SOL     OW30407   9.235   0.489   4.874 -0.0217  0.6665 -0.0068
 9002SOL    HW130408   9.276   0.530   4.949 -2.2216  3.0289  0.0227
 9002SOL    HW230409   9.268   0.537   4.798 -1.7341  1.8442 -0.0671
 9003SOL     OW30410   5.807   0.929   0.815 -0.0023 -0.3227  0.0313
 9003SOL    HW130411   5.818   0.876   0.736  1.0931  0.2074 -0.1924
 9003SOL    HW230412   5.806   1.019   0.783  1.0309 -0.0770  0.6736
 9004SOL     OW30413   6.495   0.313   8.442  0.4088  0.5961 -0.2100
 9004SOL    HW130414   6.525   0.404   8.451  0.7915  0.3755  0.9224
 9004SOL    HW230415   6.532   0.268   8.518 -1.0040 -0.1804  0.0485
 9005SOL     OW30416   3.840   7.229   6.522 -0.1564  0.1985 -0.2321
 9005SOL    HW130417   3.906   7.286   6.483 -0.5106  1.9125  1.5307
 9005SOL    HW230418   3.890   7.165   6.573  0.2364 -1.0524 -2.0923
 9006SOL     OW30419   0.831   3.354   3.241 -0.0272 -0.1780 -0.0903
 9006SOL    HW130420   0.791   3.291   3.180  0.8984 -0.3951 -0.4951
 9006SOL    HW230421   0.787   3.337   3.324 -0.4406 -0.7353 -0.4088
 9007SOL     OW30422   9.779   5.247   9.008 -0.1210  0.0268 -0.5044
 9007SOL    HW130423   9.759   5.194   9.085  0.0122 -0.3420 -0.7258
 9007SOL    HW230424   9.797   5.334   9.043 -1.6495  0.2727 -0.2398
 9008SOL     OW30425   7.464   0.693   7.401  0.6470  0.9952 -0.0866
 9008SOL    HW130426   7.543   0.741   7.427  0.5346  1.9020 -1.3191
 9008SOL    HW230427   7.403   0.761   7.372 -0.4326  0.2727  0.4070
 9009SOL     OW30428   3.324   9.792   6.433 -0.4389 -0.2333  0.2296
 9009SOL    HW130429   3.372   9.739   6.497 -1.2555 -0.4731  0.6503
 9009SOL    HW230430   3.235   9.796   6.467 -1.1240 -1.1598 -1.3935
 9010SOL     OW30431   6.849  10.135   4.145 -0.2880 -0.5590 -0.3347
 9010SOL    HW130432   6.881  10.122   4.234  0.2373 -0.4873 -0.5121
 9010SOL    HW230433   6.758  10.106   4.148 -0.8805  1.1987  0.6973
 9011SOL     OW30434  10.486   9.247   0.419  0.3588  0.1546 -0.2197
 9011SOL    HW130435  10.464   9.176   0.479 -0.0096  0.1013 -0.4172
 9011SOL    HW230436  10.565   9.216   0.373  0.2843 -0.0617 -0.2028
 9012SOL     OW30437   8.900   6.194   1.356  0.1961 -0.8015  0.3407
 9012SOL    HW130438   8.921   6.229   1.269  3.0064 -0.1512  1.1900
 9012SOL    HW230439   8.902   6.099   1.344 -0.7655 -0.7308 -0.5505
 9013SOL     OW30440   0.628  10.378   4.301 -0.3369  0.5021 -0.3724
 9013SOL    HW130441   0.629  10.320   4.377 -0.2510 -0.3617 -1.0200
 9013SOL    HW230442   0.713  10.363   4.258  0.5802  2.6195  0.5504
 9014SOL     OW30443   9.955   8.057   6.069  0.4535  0.2095 -0.0119
 9014SOL    HW130444   9.950   8.147   6.101 -0.3213 -0.1347  0.8840
 9014SOL    HW230445   9.915   8.060   5.982 -0.1299  0.6259  0.2652
 9015SOL     OW30446   5.227   7.637   6.562  0.6155 -0.3811 -0.5875
 9015SOL    HW130447   5.283   7.560   6.571  1.5473  0.0732 -2.1918
 9015SOL    HW230448   5.286   7.707   6.535 -0.4104  0.6153 -0.3090
 9016SOL     OW30449   4.900   6.437   3.511  0.5833  0.1045  0.6260
 9016SOL    HW130450   4.833   6.440   3.580 -0.2284 -1.6743 -0.0422
 9016SOL    HW230451   4.866   6.375   3.447  2.1699  0.3580 -0.5078
 9017SOL     OW30452   2.118   3.107   1.673  0.6622 -0.3503 -0.3127
 9017SOL    HW130453   2.051   3.039   1.665  0.5144 -0.2656  0.2269
 9017SOL    HW230454   2.102   3.148   1.757  0.1958  0.9521 -1.0025
 9018SOL     OW30455   4.355   0.627   5.683  0.1786  0.4202  0.3108
 9018SOL    HW130456   4.357   0.659   5.774  0.3916  0.4235  0.3058
 9018SOL    HW230457   4.437   0.660   5.645 -0.3751  1.2732 -0.1745
 9019SOL     OW30458   5.404   8.887   1.960  0.3175 -0.5314 -0.3143
 9019SOL    HW130459   5.320   8.914   1.923 -1.2396 -1.5892  2.1707
 9019SOL    HW230460   5.441   8.966   1.998 -1.6219 -0.7045  2.1807
 9020SOL     OW30461   1.015   8.466   1.439  0.6430  0.2153 -0.6129
 9020SOL    HW130462   1.033   8.407   1.512 -1.0741  0.5188  0.0856
 9020SOL    HW230463   1.015   8.553   1.478  0.1551  0.4173 -1.0603
 9021SOL     OW30464   8.452   1.035   7.394  0.2528  0.6493  0.8151
 9021SOL    HW130465   8.521   0.988   7.441 -0.0644  0.2445  0.8912
 9021SOL    HW230466   8.429   0.977   7.322 -0.0547  0.7478  0.8323
 9022SOL     OW30467   0.731   0.070   2.678 -0.1726 -0.9257  0.3371
 9022SOL    HW130468   0.813   0.074   2.630 -0.7126 -1.2650 -0.6497
 9022SOL    HW230469   0.743  -0.002   2.740  0.4802 -0.5828  0.6174
 9023SOL     OW30470   8.198   5.501   2.585 -0.1494 -0.7588 -0.1709
 9023SOL    HW130471   8.182   5.595   2.583  1.5565 -0.3462  1.6432
 9023SOL    HW230472   8.178   5.470   2.497 -1.3570  1.1736 -0.6225
 9024SOL     OW30473   2.690   6.124   0.401  0.2794 -0.7656  0.2929
 9024SOL    HW130474   2.628   6.067   0.446  0.5145 -0.1185  1.4710
 9024SOL    HW230475   2.677   6.210   0.441  0.6183 -0.2050 -0.7675
 9025SOL     OW30476   8.285   0.769   9.877  0.4032  0.1337 -0.1061
 9025SOL    HW130477   8.263   0.758   9.970  0.4381  1.6343  0.1107
 9025SOL    HW230478   8.235   0.846   9.850  0.9020  0.1025 -1.1644
 9026SOL     OW30479   6.790   2.366   3.815 -0.4884  0.1224  0.1574
 9026SOL    HW130480   6.836   2.284   3.800  0.1842  0.3503  0.9139
 9026SOL    HW230481   6.701   2.350   3.784 -0.3963 -0.9327  0.4081
 9027SOL     OW30482   6.554   5.373   9.919 -0.3758  0.1295  0.6698
 9027SOL    HW130483   6.601   5.353  10.000 -1.1352  0.1251  1.1162
 9027SOL    HW230484   6.463   5.351   9.938 -0.2849 -1.8492 -0.8570
 9028SOL     OW30485   0.147   4.654   4.152 -0.0482  0.3396  0.5992
 9028SOL    HW130486   0.131   4.625   4.242  1.5538 -1.2168  0.4340
 9028SOL    HW230487   0.240   4.677   4.150 -0.0367  0.2695 -0.6674
 9029SOL     OW30488  10.636   5.445   7.262  0.1519 -0.2751 -0.0108
 9029SOL    HW130489  10.564   5.398   7.219 -0.4026  0.8559 -0.3623
 9029SOL    HW230490  10.702   5.455   7.193  0.4407 -0.8621  0.1719
 9030SOL     OW30491   1.395   9.488   0.571 -0.2149  0.4244  0.4095
 9030SOL    HW130492   1.397   9.399   0.606  0.4112  0.3138  0.1076
 9030SOL    HW230493   1.305   9.517   0.583 -0.8902 -0.9123 -1.1705
 9031SOL     OW30494   9.744   1.381   8.289 -1.0090  0.2106  0.0207
 9031SOL    HW130495   9.678   1.315   8.311 -1.0713 -0.3520 -1.7108
 9031SOL    HW230496   9.822   1.331   8.266 -0.6906  0.7933 -0.1859
 9032SOL     OW30497   5.082   0.990   4.338 -0.2119 -0.2161  0.6496
 9032SOL    HW130498   5.086   1.083   4.315  0.1818 -0.6733 -1.2886
 9032SOL    HW230499   4.995   0.979   4.375 -0.2098  0.9423  1.0595
 9033SOL     OW30500   6.771   7.978   4.590  0.6822  0.1830  0.2516
 9033SOL    HW130501   6.695   7.986   4.648 -0.1629 -0.6499 -0.7062
 9033SOL    HW230502   6.734   7.963   4.503  1.9365 -0.9347 -0.1307
 9034SOL     OW30503   0.615   7.413   9.294  0.4671 -0.6199 -0.2510
 9034SOL    HW130504   0.601   7.319   9.278  0.5155 -0.5309 -0.8333
 9034SOL    HW230505   0.685   7.416   9.359 -0.2563 -1.0112  0.5688
 9035SOL     OW30506   2.784   5.426  10.882 -0.3850 -0.1548  0.1124
 9035SOL    HW130507   2.865   5.405  10.835 -0.5619  0.2252 -0.3803
 9035SOL    HW230508   2.807   5.421  10.974 -0.0447 -1.0041 -0.0102
 9036SOL     OW30509   5.842   6.533   5.114 -0.6124 -0.1048  0.0830
 9036SOL    HW130510   5.917   6.552   5.171  0.0264  0.6115 -0.9702
 9036SOL    HW230511   5.870   6.460   5.059 -0.3711  0.6888 -0.8703
 9037SOL     OW30512  10.286   0.432   0.541  0.4268  0.2190  0.0087
 9037SOL    HW130513  10.351   0.365   0.562  1.1897  0.5713 -1.1502
 9037SOL    HW230514  10.204   0.397   0.575  0.5564 -1.9095 -1.6451
 9038SOL     OW30515   0.458  10.451   3.001  0.0841  0.1462  0.1260
 9038SOL    HW130516   0.452  10.441   3.096  0.3452  1.3721  0.2891
 9038SOL    HW230517   0.505  10.534   2.989 -1.4782  0.9070 -1.0616
 9039SOL     OW30518   9.851   7.782   2.786 -0.2742 -0.5511 -0.4932
 9039SOL    HW130519   9.896   7.848   2.839 -1.9818  0.4662 -0.2243
 9039SOL    HW230520   9.898   7.782   2.703  1.3711 -0.9091  0.3946
 9040SOL     OW30521   1.806   8.575   7.824  0.5248 -0.3893  0.4033
 9040SOL    HW130522   1.816   8.639   7.895  0.2135  0.7795 -0.5778
 9040SOL    HW230523   1.884   8.520   7.830  1.3068  0.7170  0.6456
 9041SOL     OW30524   9.005   1.640   5.477 -0.2426 -0.6580  0.7082
 9041SOL    HW130525   8.956   1.688   5.410  0.5937  1.0766  1.2577
 9041SOL    HW230526   9.008   1.700   5.552  0.2713 -1.8697  1.6964
 9042SOL     OW30527   7.876   4.476   1.692 -0.1697 -0.1017  0.4616
 9042SOL    HW130528   7.850   4.434   1.774 -0.9778  3.1428  2.0154
 9042SOL    HW230529   7.802   4.461   1.633 -0.4354 -0.8186  0.9583
 9043SOL     OW30530   4.074   4.410   9.889  0.8454 -0.2077 -0.1874
 9043SOL    HW130531   4.027   4.340   9.934  1.4217 -0.1513  0.5235
 9043SOL    HW230532   4.145   4.365   9.843  0.2775 -0.2612 -1.0436
 9044SOL     OW30533   2.247   3.297   2.699 -0.2110  0.7584  0.2425
 9044SOL    HW130534   2.229   3.335   2.613  0.0482  0.3245 -0.0033
 9044SOL    HW230535   2.220   3.365   2.761  0.3295  1.3767 -0.1939
 9045SOL     OW30536   3.204   9.464   1.640  0.1773  0.1810  0.1978
 9045SOL    HW130537   3.211   9.458   1.735  2.5276 -0.0520  0.0569
 9045SOL    HW230538   3.195   9.373   1.610  1.0634  0.1127  0.1183
 9046SOL     OW30539  10.140   1.707   5.598  0.7421  0.4523  1.1184
 9046SOL    HW130540  10.108   1.651   5.528  1.1287  1.9606 -0.3368
 9046SOL    HW230541  10.064   1.762   5.620  0.6214 -0.0176  1.9089
 9047SOL     OW30542   2.678  10.887   7.378  0.7429  0.0029 -0.3779
 9047SOL    HW130543   2.689  10.936   7.459  0.4373  1.1554 -1.0034
 9047SOL    HW230544   2.589  10.852   7.382  0.9675 -0.5111  0.0830
 9048SOL     OW30545   3.579   2.011   1.263 -0.0723  0.0314 -0.0344
 9048SOL    HW130546   3.572   2.105   1.247  0.0357  0.3583  1.6264
 9048SOL    HW230547   3.490   1.984   1.284 -0.4602 -0.6475 -2.2855
 9049SOL     OW30548   1.438   1.998   3.839  0.0472  0.4700  0.0419
 9049SOL    HW130549   1.464   1.991   3.931  0.0998  2.4801  0.2163
 9049SOL    HW230550   1.392   1.915   3.821 -0.2158  0.1520  1.9403
 9050SOL     OW30551   8.427   5.719   9.182 -0.2973  0.2729 -0.4699
 9050SOL    HW130552   8.479   5.642   9.158 -0.4151  0.1745 -0.4123
 9050SOL    HW230553   8.339   5.699   9.149 -0.6568 -0.2141  0.7377
 9051SOL     OW30554   1.791   7.853   1.247  0.2869  0.7311  0.4439
 9051SOL    HW130555   1.751   7.931   1.284  0.6063 -0.1531  2.8191
 9051SOL    HW230556   1.860   7.829   1.309  0.9242 -0.8250 -0.7752
 9052SOL     OW30557   7.739   9.639   2.048 -0.4654  0.1771 -0.1382
 9052SOL    HW130558   7.783   9.580   1.987 -0.6817  0.1920 -0.3140
 9052SOL    HW230559   7.686   9.582   2.103 -0.2772  0.1650  0.0299
 9053SOL     OW30560   2.656   5.147   2.684 -0.1287  0.3186  0.5473
 9053SOL    HW130561   2.686   5.116   2.598  0.8460 -0.6658  1.2234
 9053SOL    HW230562   2.575   5.196   2.664  0.5779  0.9276 -1.0245
 9054SOL     OW30563   7.581   2.903   3.633  0.1643 -0.1756  0.3282
 9054SOL    HW130564   7.598   2.984   3.682 -0.8848  0.6851 -0.6800
 9054SOL    HW230565   7.486   2.898   3.626  0.1734 -1.8777  0.9358
 9055SOL     OW30566   1.240   8.794   4.841 -0.0718 -0.0393 -0.3567
 9055SOL    HW130567   1.285   8.850   4.779  0.6337 -0.4601 -0.2379
 9055SOL    HW230568   1.290   8.712   4.840  0.7586  0.3855  1.7206
 9056SOL     OW30569   1.559   6.534   0.337  0.1472  0.0302 -0.0498
 9056SOL    HW130570   1.570   6.580   0.421 -0.6522  0.1066  0.0248
 9056SOL    HW230571   1.560   6.441   0.360 -1.9862  0.0406  0.3574
 9057SOL     OW30572   5.608   7.636   3.468 -0.5706  0.4136 -0.3752
 9057SOL    HW130573   5.561   7.626   3.385 -0.0195 -1.1989 -0.5220
 9057SOL    HW230574   5.664   7.712   3.455 -0.0023 -0.2113 -1.7420
 9058SOL     OW30575   9.887   6.536   7.077  0.1586 -0.4054  0.3998
 9058SOL    HW130576   9.818   6.586   7.121  1.7808  1.3754  1.0732
 9058SOL    HW230577   9.867   6.545   6.984  0.7512  2.2303  0.4430
 9059SOL     OW30578   5.311   5.605   6.080 -0.0772  0.2880  0.3216
 9059SOL    HW130579   5.263   5.685   6.062  0.0544  0.4348  0.6275
 9059SOL    HW230580   5.304   5.554   5.999 -0.2707  0.5499  0.1745
 9060SOL     OW30581   4.693   3.326   9.410 -0.4279  0.9858  0.3027
 9060SOL    HW130582   4.723   3.235   9.409 -0.2755  1.0088 -1.6142
 9060SOL    HW230583   4.601   3.321   9.436 -1.5096 -0.1934 -3.1593
 9061SOL     OW30584   8.182   2.128   4.950 -0.1238 -0.2725  0.1749
 9061SOL    HW130585   8.133   2.046   4.944 -0.3634 -0.1162  0.0129
 9061SOL    HW230586   8.161   2.161   5.038 -1.2260  0.3750 -0.3226
 9062SOL     OW30587  10.631   8.207   8.406 -0.8086 -0.6674  0.0742
 9062SOL    HW130588  10.589   8.202   8.491 -0.2354 -1.3438  0.3294
 9062SOL    HW230589  10.707   8.264   8.420 -1.0949 -0.2201 -0.1559
 9063SOL     OW30590   1.916  10.591   0.585 -0.1285 -0.5262 -0.0491
 9063SOL    HW130591   1.932  10.685   0.581 -2.7520 -0.0344 -1.3611
 9063SOL    HW230592   2.003  10.551   0.586  1.0485  1.8811  0.3154
 9064SOL     OW30593   1.436   2.383   3.779  0.2537  0.3709 -0.5091
 9064SOL    HW130594   1.466   2.438   3.708  2.6287 -0.9492 -0.6240
 9064SOL    HW230595   1.434   2.294   3.742  1.5126 -0.3378  1.0094
 9065SOL     OW30596  10.122   2.870   7.403 -0.2699 -0.0340  0.8105
 9065SOL    HW130597  10.059   2.802   7.377 -1.7280  0.9118  1.7138
 9065SOL    HW230598  10.149   2.910   7.321 -1.2052 -0.1717  0.4193
 9066SOL     OW30599   9.304   1.260   1.367  0.2102 -0.3234 -0.4726
 9066SOL    HW130600   9.237   1.293   1.427  0.4117  0.4861 -0.6670
 9066SOL    HW230601   9.355   1.338   1.344  1.2815 -0.9395 -0.2514
 9067SOL     OW30602   1.125   5.900   1.505 -0.0733 -0.4459  0.4911
 9067SOL    HW130603   1.154   5.974   1.558 -3.9151 -0.4616  2.9804
 9067SOL    HW230604   1.166   5.824   1.546  2.0027 -0.0395 -0.6469
 9068SOL     OW30605  10.780   8.055   6.906  0.3036 -0.1308 -0.1305
 9068SOL    HW130606  10.802   8.135   6.860 -1.0729 -0.1293 -0.8460
 9068SOL    HW230607  10.796   8.075   6.999 -0.1846  1.0247 -0.2818
 9069SOL     OW30608   8.891   6.803   8.876 -0.4205 -0.0452  0.1694
 9069SOL    HW130609   8.824   6.786   8.942 -0.9354  0.3471 -0.2475
 9069SOL    HW230610   8.881   6.895   8.855  1.4041  0.4879  1.3689
 9070SOL     OW30611   0.328   9.175   6.150  0.2246  0.7328  0.0565
 9070SOL    HW130612   0.301   9.135   6.068  1.4504  0.7972 -0.3989
 9070SOL    HW230613   0.365   9.259   6.125  0.8964  0.6194  0.6266
 9071SOL     OW30614   0.085   5.594   0.667  0.5513  0.3971 -0.1853
 9071SOL    HW130615   0.144   5.601   0.592 -0.2749  0.3003 -0.8674
 9071SOL    HW230616   0.019   5.662   0.652 -0.5571 -0.7011 -0.4232
 9072SOL     OW30617   2.847   9.510   0.438 -0.4623 -0.4778 -0.5326
 9072SOL    HW130618   2.937   9.540   0.425 -0.5777  0.1658  0.0896
 9072SOL    HW230619   2.823   9.470   0.354  0.9216 -2.0702 -0.2149
 9073SOL     OW30620   8.665   5.895   6.187  0.5349  0.2778  0.3447
 9073SOL    HW130621   8.708   5.934   6.111 -0.3054  0.3136 -0.1130
 9073SOL    HW230622   8.633   5.810   6.156 -0.0233  0.3930  0.5897
 9074SOL     OW30623   3.090   7.592   1.294 -0.1946 -0.0096  0.3768
 9074SOL    HW130624   3.118   7.574   1.384 -0.8580 -0.1007  0.5683
 9074SOL    HW230625   3.070   7.505   1.257  0.2883  0.0050  0.0618
 9075SOL     OW30626   9.680   8.203   5.412  0.0588  0.5832  0.4997
 9075SOL    HW130627   9.766   8.162   5.407  0.8132  2.2501 -2.2277
 9075SOL    HW230628   9.683   8.255   5.493  0.5848 -1.3522  1.8003
 9076SOL     OW30629   5.629   5.677   3.314 -0.3836  0.4023  0.0873
 9076SOL    HW130630   5.580   5.641   3.388 -2.4194 -0.4577 -1.5688
 9076SOL    HW230631   5.578   5.753   3.286 -0.4255 -0.0791 -1.2380
 9077SOL     OW30632   2.274   7.787   9.239 -0.3785 -0.0814  0.0052
 9077SOL    HW130633   2.277   7.840   9.318  2.8223 -0.6934  0.4564
 9077SOL    HW230634   2.327   7.835   9.176  1.2717 -1.8803 -0.0760
 9078SOL     OW30635   7.492   2.796   0.125 -0.1641  0.2984 -0.1377
 9078SOL    HW130636   7.422   2.752   0.077  0.7083 -1.8274  0.3944
 9078SOL    HW230637   7.558   2.728   0.138  0.9298  1.5839  1.4905
 9079SOL     OW30638   0.652   5.705   3.073  0.1288 -0.1476 -0.1471
 9079SOL    HW130639   0.580   5.649   3.102  0.3826 -0.1141  0.5561
 9079SOL    HW230640   0.646   5.782   3.129  0.2134  0.2179 -0.6375
 9080SOL     OW30641   5.837   0.235   4.324 -0.1178 -0.0830  0.5159
 9080SOL    HW130642   5.784   0.160   4.350  0.2849 -0.6617 -0.2883
 9080SOL    HW230643   5.849   0.224   4.230  1.2398  0.1391  0.6408
 9081SOL     OW30644   6.136  10.423   9.208  0.5278  0.4797  0.0325
 9081SOL    HW130645   6.145  10.444   9.301  0.3417  1.3243 -0.1328
 9081SOL    HW230646   6.063  10.362   9.204  0.8817  0.0119  0.4946
 9082SOL     OW30647   4.922   1.624   2.623  0.4539 -0.2303  0.4997
 9082SOL    HW130648   5.011   1.600   2.650  1.1658 -0.4047 -1.7555
 9082SOL    HW230649   4.931   1.713   2.589 -0.3499 -0.0597  0.7283
 9083SOL     OW30650   0.840   0.119  10.687  0.5214  0.1512 -0.3555
 9083SOL    HW130651   0.747   0.134  10.670  0.8460  0.2859 -2.1265
 9083SOL    HW230652   0.841   0.054  10.758 -0.9080  0.3688 -0.1165
 9084SOL     OW30653   0.328   1.761   0.674  0.0457 -0.0469 -0.2051
 9084SOL    HW130654   0.258   1.697   0.658  0.3611 -0.7113  0.9414
 9084SOL    HW230655   0.392   1.744   0.604 -0.2707 -0.4127 -0.4085
 9085SOL     OW30656   2.373   9.854   3.878 -0.0163 -0.1743 -0.3070
 9085SOL    HW130657   2.375   9.890   3.789 -0.3200 -0.2810 -0.3587
 9085SOL    HW230658   2.351   9.929   3.934  2.3909  0.4209 -0.0388
 9086SOL     OW30659   3.905   0.637   1.773  0.2304 -0.2390 -0.5836
 9086SOL    HW130660   3.865   0.565   1.724 -0.1055  0.7493 -1.8055
 9086SOL    HW230661   3.958   0.684   1.709  1.1525  0.1018  0.3967
 9087SOL     OW30662   1.436   4.287   0.282 -0.1523 -0.0123 -0.5229
 9087SOL    HW130663   1.385   4.322   0.355  1.2297  1.4540 -0.2157
 9087SOL    HW230664   1.526   4.315   0.300  0.5684 -1.4320 -1.7130
 9088SOL     OW30665   7.466   4.768   0.201  0.2050  0.4511  0.1357
 9088SOL    HW130666   7.517   4.729   0.272 -1.2254 -3.7752 -0.8846
 9088SOL    HW230667   7.381   4.788   0.241  0.4353  1.1317  0.2997
 9089SOL     OW30668   2.857   9.525   9.261 -0.4214  0.2294 -0.3252
 9089SOL    HW130669   2.776   9.485   9.227 -0.2429 -2.3508  1.9699
 9089SOL    HW230670   2.911   9.538   9.183 -1.7493 -1.1824 -1.5556
 9090SOL     OW30671   8.517   7.729  10.465  0.0511  0.2063 -0.2396
 9090SOL    HW130672   8.547   7.761  10.550  0.8954 -0.3934 -0.3016
 9090SOL    HW230673   8.458   7.657  10.486 -1.6498  1.5689 -0.1071
 9091SOL     OW30674   6.541   8.222  10.850 -0.5862 -0.0951 -0.5253
 9091SOL    HW130675   6.629   8.207  10.816 -0.2380  0.6518  0.0444
 9091SOL    HW230676   6.503   8.286  10.791 -0.5045  0.1002 -0.3656
 9092SOL     OW30677   3.306  10.143   1.831 -0.1854 -0.0058  0.1726
 9092SOL    HW130678   3.259  10.205   1.775 -0.7775 -0.8840 -0.3196
 9092SOL    HW230679   3.240  10.078   1.855  0.1194  0.2175  1.6990
 9093SOL     OW30680   3.027   4.747   0.013 -0.6650 -0.0136 -0.2226
 9093SOL    HW130681   2.998   4.715   0.099  1.3398 -1.5238 -0.0302
 9093SOL    HW230682   3.107   4.795   0.032  0.7876 -1.8483 -1.3623
 9094SOL     OW30683   3.564   4.335   3.044  0.5074 -0.2589  0.3266
 9094SOL    HW130684   3.626   4.335   2.971  0.7912  0.0510  0.5631
 9094SOL    HW230685   3.609   4.383   3.114  1.5501 -3.1714  1.8273
 9095SOL     OW30686   8.033   4.245  10.705  0.6041  0.2460 -0.5149
 9095SOL    HW130687   8.096   4.304  10.746  1.7330 -0.4722 -1.1528
 9095SOL    HW230688   8.013   4.286  10.620  0.4704  0.3054 -0.4552
 9096SOL     OW30689   5.111   1.941   2.623  0.5662  0.1056  0.5159
 9096SOL    HW130690   5.190   1.908   2.581  0.0349 -0.4684 -0.0359
 9096SOL    HW230691   5.040   1.919   2.563 -0.0136  0.6496  0.9890
 9097SOL     OW30692   3.409   9.168   6.277 -0.5967  0.2685 -0.2255
 9097SOL    HW130693   3.486   9.195   6.327 -0.4311 -0.5774 -0.0207
 9097SOL    HW230694   3.348   9.241   6.286  0.7082  1.6042 -1.5776
 9098SOL     OW30695   5.567   5.623  10.133  0.1626 -0.4802 -0.4993
 9098SOL    HW130696   5.626   5.669  10.072  1.2403 -0.6080  0.4075
 9098SOL    HW230697   5.585   5.663  10.218  0.4547 -1.9393  0.1591
 9099SOL     OW30698   5.324   5.664   4.318 -0.0963 -0.3933  0.3203
 9099SOL    HW130699   5.345   5.649   4.410 -0.3392  0.3893  0.5169
 9099SOL    HW230700   5.244   5.614   4.304 -1.3123  1.2182  1.1584
 9100SOL     OW30701  10.452   3.882   7.069  0.4464 -0.9525 -0.5969
 9100SOL    HW130702  10.441   3.976   7.086  0.6772 -1.0816  0.2928
 9100SOL    HW230703  10.496   3.849   7.147  2.3995 -1.3966 -1.8198
 9101SOL     OW30704   1.198  10.900   6.155  0.1316 -0.3728 -0.2984
 9101SOL    HW130705   1.250  10.839   6.103  0.0432 -0.4536 -0.2933
 9101SOL    HW230706   1.236  10.986   6.138  0.7004 -0.5125  0.2409
 9102SOL     OW30707   9.961   4.528   5.809 -0.0904 -0.1220 -0.1407
 9102SOL    HW130708   9.867   4.546   5.798  0.5186  3.9455 -0.3290
 9102SOL    HW230709   9.972   4.522   5.904 -0.5832 -1.0772 -0.1345
 9103SOL     OW30710   6.233  10.048   1.298 -0.0695 -0.0284 -0.3384
 9103SOL    HW130711   6.291   9.977   1.323  0.4956  1.0329  1.5925
 9103SOL    HW230712   6.204  10.026   1.210  0.7681 -2.1781 -0.1254
 9104SOL     OW30713   1.820   3.409  10.504 -0.0512 -0.1269 -1.1210
 9104SOL    HW130714   1.846   3.342  10.568  0.1496  2.0879  1.2983
 9104SOL    HW230715   1.725   3.415  10.513  0.1821  2.1606  1.3220
 9105SOL     OW30716   9.320   2.774   9.072 -0.0957 -0.4601 -0.3379
 9105SOL    HW130717   9.402   2.809   9.106 -0.5692  0.6516 -0.3073
 9105SOL    HW230718   9.254   2.797   9.138 -0.5908 -0.5261 -0.8031
 9106SOL     OW30719   8.204   8.237   4.568  0.1147 -0.1038 -0.6623
 9106SOL    HW130720   8.169   8.151   4.590  1.6849 -0.2903  1.3506
 9106SOL    HW230721   8.179   8.250   4.476 -3.3612 -1.0631  0.0046
 9107SOL     OW30722   5.733  10.521   3.072  0.7957  0.0517 -0.1888
 9107SOL    HW130723   5.651  10.503   3.118 -0.4371 -1.1224 -2.6882
 9107SOL    HW230724   5.797  10.464   3.116  1.2535  3.1901  3.8738
 9108SOL     OW30725   2.338   2.513   8.314 -0.0014 -0.1387  0.3417
 9108SOL    HW130726   2.316   2.508   8.221 -0.4676 -0.9175  0.4768
 9108SOL    HW230727   2.277   2.577   8.349 -1.8337 -1.9117  0.6123
 9109SOL     OW30728   4.894   9.898   6.341  0.3372  0.2790  0.6237
 9109SOL    HW130729   4.932   9.858   6.419  0.9125 -2.0270 -0.7541
 9109SOL    HW230730   4.902   9.832   6.273 -3.2593  0.8478 -0.5937
 9110SOL     OW30731   5.026   2.881   6.283 -0.2389 -0.2973  0.2843
 9110SOL    HW130732   4.953   2.850   6.229 -2.0802  0.7692  2.0153
 9110SOL    HW230733   5.104   2.861   6.231 -1.6599 -2.2764 -1.2902
 9111SOL     OW30734  10.902   8.882  10.153  0.6639 -0.1595  0.2182
 9111SOL    HW130735  10.981   8.911  10.199  0.1849  0.3763  0.7156
 9111SOL    HW230736  10.844   8.850  10.221  0.1475  0.1584 -0.0663
 9112SOL     OW30737   0.068   5.592  10.248  0.5357 -0.1782 -0.0035
 9112SOL    HW130738   0.052   5.535  10.173  0.4418 -0.3934  0.1774
 9112SOL    HW230739   0.090   5.532  10.319  0.4594  0.0130  0.1826
 9113SOL     OW30740   5.672   6.222   6.101 -0.1341  0.4325 -0.0381
 9113SOL    HW130741   5.586   6.195   6.068  0.8578  0.9945 -3.5487
 9113SOL    HW230742   5.653   6.293   6.162 -2.1982 -0.7082  0.7527
 9114SOL     OW30743   4.331   7.353   4.389 -0.2740  0.0586 -0.6542
 9114SOL    HW130744   4.343   7.374   4.297  2.6849  2.2034  0.0772
 9114SOL    HW230745   4.407   7.299   4.412 -0.4961  0.2757  0.6897
 9115SOL     OW30746   0.439   5.413   1.334 -0.3454 -0.1525  0.3343
 9115SOL    HW130747   0.462   5.354   1.406  1.3322  0.1003  0.0405
 9115SOL    HW230748   0.474   5.370   1.256 -2.6541 -0.7178 -0.4656
 9116SOL     OW30749   9.113   2.928   9.756  0.4903 -1.1284  0.2014
 9116SOL    HW130750   9.197   2.883   9.759  0.6439 -0.8624 -0.0565
 9116SOL    HW230751   9.133   3.014   9.719 -0.1329 -1.6097 -1.3178
 9117SOL     OW30752   4.521   3.709   2.684  0.2836  0.0407 -0.0660
 9117SOL    HW130753   4.435   3.726   2.720  0.9207 -0.5494  1.8852
 9117SOL    HW230754   4.530   3.614   2.686  0.8499  0.0703 -0.5893
 9118SOL     OW30755   8.897   4.527   0.349 -0.2480 -0.2911 -0.2118
 9118SOL    HW130756   8.978   4.562   0.314  0.2035  0.1994  1.2725
 9118SOL    HW230757   8.924   4.452   0.402 -0.6230  0.5325  1.1898
 9119SOL     OW30758   5.685   8.084   5.125 -0.4826  0.0556  0.4131
 9119SOL    HW130759   5.612   8.121   5.175  1.1075 -0.1306  3.0358
 9119SOL    HW230760   5.678   8.125   5.039 -2.4214  1.6712  1.2679
 9120SOL     OW30761   9.252   2.777   4.156 -0.8806  0.0770  0.4543
 9120SOL    HW130762   9.193   2.720   4.106 -2.4750  0.7093  1.5231
 9120SOL    HW230763   9.222   2.866   4.135  3.6887  1.0227 -3.9210
 9121SOL     OW30764   6.261   4.000   0.274 -0.2758 -0.4872 -0.1692
 9121SOL    HW130765   6.295   4.089   0.285 -0.0000 -0.7360  1.2512
 9121SOL    HW230766   6.263   3.985   0.180 -1.4523  1.4316 -0.5719
 9122SOL     OW30767   0.022   8.991   9.436  0.4916  0.4677 -0.2594
 9122SOL    HW130768  -0.024   8.912   9.410  0.0018  0.9085 -0.7445
 9122SOL    HW230769   0.115   8.972   9.419  0.6288 -0.7317  1.5131
 9123SOL     OW30770   0.583   1.054   4.813 -0.2337  0.0715 -0.0707
 9123SOL    HW130771   0.570   0.969   4.770 -0.5347  0.0042  0.1458
 9123SOL    HW230772   0.496   1.079   4.842  0.1540 -0.5817  1.7912
 9124SOL     OW30773   2.990   3.074   0.570 -0.3930  0.0338  0.4907
 9124SOL    HW130774   3.053   3.008   0.600  0.6975  0.7777 -0.0613
 9124SOL    HW230775   2.971   3.049   0.480  0.0176  0.4602  0.2836
 9125SOL     OW30776   4.818   3.086   0.628  0.6099  0.4990 -0.0283
 9125SOL    HW130777   4.771   3.021   0.576 -1.0339 -0.6027  2.6530
 9125SOL    HW230778   4.910   3.060   0.621 -0.0373 -2.6637  1.5368
 9126SOL     OW30779   7.739   9.979   6.022  0.1628  0.0855  0.1200
 9126SOL    HW130780   7.744   9.978   6.117  3.1633 -0.0201  0.0626
 9126SOL    HW230781   7.707  10.066   6.000  0.1283  0.3589  1.2221
 9127SOL     OW30782   2.404  10.375   7.368  0.1286 -0.2507  0.2550
 9127SOL    HW130783   2.436  10.401   7.454  0.8696  0.1686 -0.1299
 9127SOL    HW230784   2.318  10.337   7.384 -0.5903  1.5807  0.9645
 9128SOL     OW30785  10.445   1.985   0.210  0.5430  0.1139 -0.1932
 9128SOL    HW130786  10.429   1.986   0.116 -0.0315 -1.5287 -0.1618
 9128SOL    HW230787  10.540   1.989   0.219  0.6811 -0.9903 -0.9207
 9129SOL     OW30788   4.662  10.864  10.820  0.0453 -0.3170 -0.1612
 9129SOL    HW130789   4.692  10.882  10.731 -0.2469  0.1458 -0.1718
 9129SOL    HW230790   4.706  10.783  10.844  3.8171  1.8098  0.9787
 9130SOL     OW30791   4.360   9.166  10.701  0.3786 -0.2843 -0.0122
 9130SOL    HW130792   4.280   9.114  10.703  0.4024 -0.3145  0.1470
 9130SOL    HW230793   4.343   9.232  10.633 -0.6747  1.1245  1.5544
 9131SOL     OW30794   3.784   9.948   5.688 -0.3771 -0.0841 -0.3776
 9131SOL    HW130795   3.781   9.869   5.634 -0.1601 -0.3540 -0.0027
 9131SOL    HW230796   3.694   9.982   5.685 -0.2926  0.1007 -1.1835
 9132SOL     OW30797   3.292   5.928   2.732  0.3303 -0.0759  0.0232
 9132SOL    HW130798   3.276   6.011   2.778  0.5282  0.7620 -1.3705
 9132SOL    HW230799   3.382   5.934   2.702 -0.5235  0.5966 -2.7274
 9133SOL     OW30800   4.607   8.749   3.434 -0.0535  0.4056 -0.3131
 9133SOL    HW130801   4.693   8.720   3.404  0.1655  0.8530 -0.1235
 9133SOL    HW230802   4.558   8.766   3.354  0.0679  0.2550 -0.4200
 9134SOL     OW30803   5.787  10.653   8.211 -0.1105 -0.0859  0.0746
 9134SOL    HW130804   5.871  10.607   8.212  1.0902  2.0190  0.0862
 9134SOL    HW230805   5.779  10.686   8.122 -2.1978 -2.3290 -0.6951
 9135SOL     OW30806   6.248   4.907   8.224 -0.3834 -0.1837 -0.8963
 9135SOL    HW130807   6.337   4.876   8.240  0.3151  1.8177 -0.5517
 9135SOL    HW230808   6.199   4.881   8.302  1.0137  2.3916  0.9957
 9136SOL     OW30809  10.515   5.269   4.516  0.2675 -0.5189 -0.0858
 9136SOL    HW130810  10.600   5.245   4.479  0.6707 -0.3875  0.7151
 9136SOL    HW230811  10.506   5.212   4.593 -0.2648 -0.3726 -0.0317
 9137SOL     OW30812   5.228   4.426   2.020 -0.6920 -0.0782 -0.0113
 9137SOL    HW130813   5.153   4.439   2.077 -2.1760  0.1401 -1.9230
 9137SOL    HW230814   5.250   4.333   2.030 -2.0247 -0.4506 -0.3370
 9138SOL     OW30815   4.472   3.240   4.175  1.1823 -0.5438  0.1221
 9138SOL    HW130816   4.421   3.243   4.094  0.1783 -0.3443  0.7497
 9138SOL    HW230817   4.493   3.148   4.188 -0.4877 -0.8776  0.7346
 9139SOL     OW30818   6.282   3.980   5.781  0.1576  0.4909 -0.1755
 9139SOL    HW130819   6.206   4.033   5.756 -0.1887  0.6166  1.0524
 9139SOL    HW230820   6.254   3.889   5.766  0.2490  0.5895 -0.9706
 9140SOL     OW30821   4.040   4.631   2.087 -0.4274  0.2619 -0.0188
 9140SOL    HW130822   4.007   4.544   2.065 -1.7495  0.4696  1.0125
 9140SOL    HW230823   3.963   4.688   2.086  0.5787  1.7219 -1.8807
 9141SOL     OW30824   5.734   3.786   8.113 -0.4630  0.1747  0.0900
 9141SOL    HW130825   5.748   3.881   8.107  0.9269 -0.0826 -1.5844
 9141SOL    HW230826   5.819   3.751   8.140  0.1484 -0.8306 -2.7986
 9142SOL     OW30827  10.587   3.589   9.482  0.0181 -0.2197 -0.0027
 9142SOL    HW130828  10.620   3.603   9.393 -1.4494 -0.2926 -0.5801
 9142SOL    HW230829  10.564   3.677   9.513  1.3842 -0.0689  0.6934
 9143SOL     OW30830   3.953   6.361   0.784 -0.1372  0.4584 -0.8526
 9143SOL    HW130831   4.016   6.317   0.841 -0.8406  0.1913 -0.2689
 9143SOL    HW230832   4.006   6.418   0.728  0.5955  0.3980 -0.2234
 9144SOL     OW30833   8.576   6.990   8.563 -0.3970  0.0721  0.0297
 9144SOL    HW130834   8.664   7.024   8.579 -1.0718  2.1411 -0.3552
 9144SOL    HW230835   8.527   7.064   8.527 -2.1047 -1.2292 -0.5024
 9145SOL     OW30836   9.910   5.067   6.253  1.0676 -0.2611  0.6349
 9145SOL    HW130837   9.864   5.136   6.302  0.1674  0.5663 -1.2756
 9145SOL    HW230838   9.982   5.113   6.210 -0.1894 -0.1888 -1.5543
 9146SOL     OW30839   7.920   2.999   9.120 -0.1917  0.3191 -0.5309
 9146SOL    HW130840   7.860   3.055   9.071 -1.1533 -1.0182 -0.9527
 9146SOL    HW230841   8.003   3.003   9.072  0.0764  2.1019 -0.0006
 9147SOL     OW30842   8.132   0.402   4.138  0.3003  0.8053 -0.2279
 9147SOL    HW130843   8.214   0.440   4.169  1.9838 -1.2958 -1.7878
 9147SOL    HW230844   8.126   0.317   4.182 -1.1909  1.0319  0.0595
 9148SOL     OW30845   9.032   4.256   3.795 -0.9204 -0.2586 -0.3992
 9148SOL    HW130846   9.030   4.194   3.723 -1.2046 -2.1710  1.1579
 9148SOL    HW230847   8.945   4.251   3.834 -1.1837  1.7006 -0.6722
 9149SOL     OW30848   2.295   2.638   6.816  0.0123  0.2599 -0.0586
 9149SOL    HW130849   2.379   2.635   6.862 -0.7079 -0.3017  1.2834
 9149SOL    HW230850   2.237   2.687   6.876 -0.2798  1.8693 -1.5691
 9150SOL     OW30851   2.478   1.228   1.548  0.0226  0.2914 -0.1489
 9150SOL    HW130852   2.546   1.294   1.531  0.4190  0.1417  0.7612
 9150SOL    HW230853   2.483   1.214   1.643 -0.7511 -0.3060 -0.1918
 9151SOL     OW30854   5.641  10.549   0.169 -0.0652  0.2116 -0.3714
 9151SOL    HW130855   5.636  10.475   0.109 -2.5740  0.7834 -1.0251
 9151SOL    HW230856   5.677  10.513   0.249 -0.1340 -1.4516 -1.0462
 9152SOL     OW30857   3.753   2.328   0.980  0.2708  0.1905 -0.2720
 9152SOL    HW130858   3.689   2.357   0.914 -0.8626 -2.8359 -0.6571
 9152SOL    HW230859   3.778   2.240   0.952  1.4282 -0.3392  2.1846
 9153SOL     OW30860   3.616   2.320   3.847 -0.7963  0.0085 -0.0370
 9153SOL    HW130861   3.650   2.318   3.758  1.4048 -1.8374  0.7309
 9153SOL    HW230862   3.550   2.249   3.849 -1.7145  0.8245 -0.4494
 9154SOL     OW30863   7.274   4.086   4.357  0.1600  0.6007  0.2326
 9154SOL    HW130864   7.367   4.072   4.342  0.0659 -0.8946  0.7941
 9154SOL    HW230865   7.254   4.033   4.434 -1.3156  0.1439 -0.4094
 9155SOL     OW30866   4.524   3.911   7.574 -0.0393 -0.6270  0.0650
 9155SOL    HW130867   4.570   3.995   7.589 -0.6110 -0.5160  1.2742
 9155SOL    HW230868   4.455   3.910   7.640 -1.7142 -0.8699 -1.6298
 9156SOL     OW30869   0.844   2.728   3.845 -0.6498 -0.3760 -0.4760
 9156SOL    HW130870   0.748   2.723   3.840 -0.6702  0.1435 -0.7334
 9156SOL    HW230871   0.873   2.637   3.847 -1.0475 -0.5924 -2.3742
 9157SOL     OW30872   2.004   7.089   9.908  0.7590 -0.8207  0.3842
 9157SOL    HW130873   1.991   7.167   9.854  0.7713  0.0007  1.5343
 9157SOL    HW230874   2.041   7.024   9.847 -0.6089 -0.4289 -0.9274
 9158SOL     OW30875   2.947   4.435   4.964  0.0364  0.9475  0.0926
 9158SOL    HW130876   2.877   4.392   4.916  2.5692 -1.8067 -1.5497
 9158SOL    HW230877   2.919   4.432   5.055 -0.8438 -2.8372 -0.1126
 9159SOL     OW30878   6.840   9.854   9.564  0.1517 -0.1573  0.2486
 9159SOL    HW130879   6.887   9.937   9.574  0.2108 -0.0535 -0.7397
 9159SOL    HW230880   6.869   9.820   9.479  2.2796 -2.6181  1.7936
 9160SOL     OW30881   8.206   3.011   7.630 -0.2651 -0.1271  0.1265
 9160SOL    HW130882   8.283   3.025   7.685 -0.4517  1.2868  0.0868
 9160SOL    HW230883   8.233   2.947   7.565  1.1295  0.8780 -0.3259
 9161SOL     OW30884   2.290   1.170   6.804  0.2777 -0.6625 -0.4110
 9161SOL    HW130885   2.324   1.134   6.885 -0.7568 -0.4494  0.1301
 9161SOL    HW230886   2.196   1.173   6.816  0.0908 -0.7570 -1.6806
 9162SOL     OW30887   6.826   2.794   3.237  0.1996  0.2481 -0.1291
 9162SOL    HW130888   6.730   2.788   3.235  0.0437  1.6650  1.0534
 9162SOL    HW230889   6.851   2.749   3.318  0.2934  1.9272  0.8175
 9163SOL     OW30890   0.718  10.322   5.223  0.1373  0.3003  0.8866
 9163SOL    HW130891   0.782  10.314   5.152  1.0591  1.0683  1.5980
 9163SOL    HW230892   0.634  10.300   5.182  0.6492  0.6497 -0.4154
 9164SOL     OW30893   0.661   4.407   4.321  0.8704 -0.5051 -0.0518
 9164SOL    HW130894   0.623   4.386   4.406  0.9880 -0.2482  0.0652
 9164SOL    HW230895   0.751   4.373   4.325  1.1300  0.1875  0.2140
 9165SOL     OW30896   2.959   1.916   1.347  0.0123  0.1603 -0.4841
 9165SOL    HW130897   2.941   1.904   1.253  1.4092 -1.6640 -0.5912
 9165SOL    HW230898   3.001   2.002   1.352  0.0369  0.2329 -1.5520
 9166SOL     OW30899   6.890   2.212   2.860  0.0310 -0.4078  0.8407
 9166SOL    HW130900   6.951   2.286   2.867  0.4672 -0.5050 -1.1438
 9166SOL    HW230901   6.862   2.214   2.768 -1.4560 -1.5474  1.2450
 9167SOL     OW30902   9.398   2.472   7.976  0.1485 -0.0852  0.1314
 9167SOL    HW130903   9.310   2.463   7.940  0.1884  2.9063 -0.9628
 9167SOL    HW230904   9.413   2.566   7.982  2.8893 -0.4814  1.3055
 9168SOL     OW30905   5.510   2.121   9.279  0.1199  1.0605  0.4162
 9168SOL    HW130906   5.543   2.154   9.195 -2.6834  2.5488 -0.2106
 9168SOL    HW230907   5.485   2.031   9.260  1.6598  0.6024  0.3513
 9169SOL     OW30908   3.452   2.104   9.969  0.2859 -0.6956 -0.2680
 9169SOL    HW130909   3.404   2.133   9.891  1.3343  3.4992  0.4046
 9169SOL    HW230910   3.383   2.080  10.032 -0.7535  0.0848 -1.0734
 9170SOL     OW30911   4.411   6.490   6.103 -0.2428  0.1282  0.0878
 9170SOL    HW130912   4.331   6.478   6.155  0.6612  2.0212  2.1119
 9170SOL    HW230913   4.389   6.454   6.017 -1.4874 -4.1947  1.9494
 9171SOL     OW30914   2.032   2.981   0.488  0.0887  0.1790  0.1242
 9171SOL    HW130915   2.043   2.932   0.407  0.6891  0.0417  0.2800
 9171SOL    HW230916   2.059   2.920   0.557  0.7916  0.7014  0.3218
 9172SOL     OW30917   1.481   5.270   0.683  0.1870 -0.3305  0.2417
 9172SOL    HW130918   1.443   5.248   0.598 -1.8998  2.2643  0.3641
 9172SOL    HW230919   1.575   5.279   0.666 -0.2539  0.7507 -1.9575
 9173SOL     OW30920   1.344   3.862   9.201  0.2465 -0.3251  0.6415
 9173SOL    HW130921   1.393   3.934   9.159  2.2993 -1.6414  0.6292
 9173SOL    HW230922   1.352   3.880   9.295 -1.4467  0.7870  0.6172
 9174SOL     OW30923   6.005   0.344   8.712  0.8072  0.4073 -0.5403
 9174SOL    HW130924   6.079   0.302   8.668 -0.3323 -0.4350 -1.7072
 9174SOL    HW230925   5.928   0.303   8.674 -0.2600  0.0543  1.8515
 9175SOL     OW30926   2.364   9.424   4.592  0.4379 -0.5779  0.5550
 9175SOL    HW130927   2.455   9.448   4.575 -0.0181  0.3399 -0.7620
 9175SOL    HW230928   2.313   9.487   4.542 -0.9125 -1.6054  0.5717
 9176SOL     OW30929   6.725   8.054   1.548 -0.3981 -0.1267 -0.8307
 9176SOL    HW130930   6.636   8.022   1.536 -0.2595 -1.3214  0.9771
 9176SOL    HW230931   6.720   8.115   1.621  0.5903 -1.9670  0.8446
 9177SOL     OW30932   5.409   6.437   4.031 -0.0711  0.4422 -0.9199
 9177SOL    HW130933   5.497   6.448   4.066 -0.6675  1.2333  0.3729
 9177SOL    HW230934   5.365   6.380   4.093 -0.9656  1.3743 -0.6744
 9178SOL     OW30935   3.320   7.011   4.359 -0.9089  0.0056  0.3020
 9178SOL    HW130936   3.279   7.097   4.367 -0.2191  0.2572  1.3184
 9178SOL    HW230937   3.358   6.995   4.445 -0.0693 -0.8294 -0.2083
 9179SOL     OW30938   7.187   5.962   1.653 -0.1837 -0.0045  0.0135
 9179SOL    HW130939   7.160   5.928   1.568  0.1714  0.1803 -0.1752
 9179SOL    HW230940   7.277   5.930   1.665  0.0440  0.5959 -0.0267
 9180SOL     OW30941   2.570   1.621   5.664 -0.0624 -0.4236 -0.0470
 9180SOL    HW130942   2.606   1.674   5.593 -0.9701 -1.9618 -1.7347
 9180SOL    HW230943   2.606   1.660   5.744  1.3346  1.1048 -1.3547
 9181SOL     OW30944   7.817   4.235  10.466 -0.4779  0.1769 -0.1648
 9181SOL    HW130945   7.841   4.144  10.483  0.4710  0.4801  0.1770
 9181SOL    HW230946   7.899   4.277  10.441 -1.3038  0.3854 -2.8715
 9182SOL     OW30947   0.623   8.412   3.348 -0.0982  0.3969 -0.1236
 9182SOL    HW130948   0.670   8.388   3.427 -2.9901 -2.0586  1.0097
 9182SOL    HW230949   0.633   8.337   3.289  0.4291  1.4025 -1.3872
 9183SOL     OW30950   7.243   6.526   0.499  0.3937  0.0943 -0.1976
 9183SOL    HW130951   7.165   6.499   0.547  0.8117 -2.1328 -0.6857
 9183SOL    HW230952   7.211   6.548   0.411  0.3233 -1.0262 -0.4615
 9184SOL     OW30953   0.349   5.849   5.453  0.6321  0.2313  0.6546
 9184SOL    HW130954   0.351   5.754   5.438  1.3815  0.1939  0.9753
 9184SOL    HW230955   0.324   5.886   5.368 -5.7911 -0.5318  1.6789
 9185SOL     OW30956   2.329   9.396   2.936  0.2473 -0.0421  0.0986
 9185SOL    HW130957   2.336   9.359   2.848  1.4379 -0.2755  0.2716
 9185SOL    HW230958   2.298   9.323   2.990 -2.0815  0.5321 -0.3821
 9186SOL     OW30959  10.071   0.834   6.139  0.1411 -1.0405  0.0483
 9186SOL    HW130960   9.993   0.859   6.189 -1.5722 -2.5666 -1.6918
 9186SOL    HW230961  10.126   0.786   6.202  0.1118  0.7464  1.5067
 9187SOL     OW30962   9.704   3.577   1.286 -0.0279  0.0436 -0.3179
 9187SOL    HW130963   9.775   3.544   1.231  1.0751 -1.9208  2.0977
 9187SOL    HW230964   9.634   3.512   1.276  0.4164 -0.6605  1.0262
 9188SOL     OW30965   7.490   0.715   9.615 -0.3596 -0.3740 -0.2444
 9188SOL    HW130966   7.512   0.712   9.522 -0.3334  1.3449 -0.3266
 9188SOL    HW230967   7.510   0.628   9.648 -1.6288 -1.4547 -2.1251
 9189SOL     OW30968   8.527   7.843   0.908  0.1961 -0.0397  0.4996
 9189SOL    HW130969   8.444   7.891   0.903  0.4822  0.3389 -2.0741
 9189SOL    HW230970   8.594   7.911   0.916  0.4855 -0.0224 -1.5072
 9190SOL     OW30971   8.254   1.347   1.323 -0.0952 -0.0080  0.3810
 9190SOL    HW130972   8.257   1.349   1.418 -2.2825 -2.5202  0.6160
 9190SOL    HW230973   8.309   1.274   1.298  2.6530  2.2259 -0.5975
 9191SOL     OW30974   5.601   5.015   0.949 -0.0141 -0.8376 -0.5600
 9191SOL    HW130975   5.546   5.000   1.026 -2.6059  0.2286 -2.0546
 9191SOL    HW230976   5.673   4.952   0.957 -1.2232 -2.0459  1.7348
 9192SOL     OW30977   9.208   2.003   7.747 -0.0840  0.1446  0.5930
 9192SOL    HW130978   9.265   1.939   7.705 -0.6495 -0.1882  0.3224
 9192SOL    HW230979   9.231   2.086   7.706  0.7677  0.1530  1.0613
 9193SOL     OW30980   7.012   9.633   4.414  0.3333 -0.4564  0.1043
 9193SOL    HW130981   6.957   9.562   4.447  1.4262 -0.8892  1.0494
 9193SOL    HW230982   6.950   9.692   4.370 -0.5153 -2.3533 -1.4179
 9194SOL     OW30983   2.837   7.293   1.084  0.4478  0.1935  0.3884
 9194SOL    HW130984   2.870   7.310   1.172  0.0422  0.5751  0.4682
 9194SOL    HW230985   2.908   7.318   1.026  0.7666 -0.1848  0.6118
 9195SOL     OW30986   0.946   1.677   9.795  0.4318  0.5874 -0.3204
 9195SOL    HW130987   0.988   1.669   9.881 -0.2546 -1.5554 -0.1314
 9195SOL    HW230988   0.893   1.757   9.803  0.2170  0.3317  1.3287
 9196SOL     OW30989  10.444   4.165   8.439 -0.3652 -0.8270  0.2747
 9196SOL    HW130990  10.500   4.176   8.516  0.4627  0.6960 -0.5057
 9196SOL    HW230991  10.499   4.190   8.365 -1.7195 -0.4377 -0.6415
 9197SOL     OW30992   7.584   3.806  10.178  0.2962  0.0510  0.3160
 9197SOL    HW130993   7.575   3.733  10.117 -1.3651 -0.3566  0.9848
 9197SOL    HW230994   7.621   3.767  10.257 -1.8883 -0.4424  1.1803
 9198SOL     OW30995  10.613   3.389   4.299 -0.0153  0.2230  0.0369
 9198SOL    HW130996  10.533   3.361   4.342 -0.4203  0.0907 -0.7967
 9198SOL    HW230997  10.643   3.313   4.250 -1.1420  1.1643 -2.2695
 9199SOL     OW30998   4.387   7.131   9.374  0.0593  0.4910 -0.0969
 9199SOL    HW130999   4.314   7.186   9.403  0.8273  0.8710  1.1937
 9199SOL    HW231000   4.352   7.042   9.378 -0.0505  0.5696  1.5399
 9200SOL     OW31001   8.120   8.106   1.663  0.2867 -0.2964 -0.4930
 9200SOL    HW131002   8.193   8.167   1.658  0.8937 -0.9212  0.4471
 9200SOL    HW231003   8.060   8.147   1.726  0.6702 -0.6316  0.0983
 9201SOL     OW31004   6.228  10.662   3.067  0.0456  0.0345  0.1935
 9201SOL    HW131005   6.134  10.679   3.068 -0.3071 -1.7572  0.9707
 9201SOL    HW231006   6.264  10.728   3.008 -1.8971 -0.2508 -1.3894
 9202SOL     OW31007   0.235   7.280   3.246 -0.9619  0.0140 -0.1554
 9202SOL    HW131008   0.153   7.317   3.279 -0.3561  0.9644  0.3325
 9202SOL    HW231009   0.293   7.281   3.322 -0.2478  0.0942 -0.6985
 9203SOL     OW31010   0.893   5.072   1.197 -0.1560 -0.1792  0.2591
 9203SOL    HW131011   0.967   5.024   1.160  0.0255 -1.0927  1.7426
 9203SOL    HW231012   0.928   5.160   1.214 -0.2410  0.2677 -1.6290
 9204SOL     OW31013   0.331   5.115   8.830  0.0805 -0.0171  0.3455
 9204SOL    HW131014   0.339   5.083   8.740 -1.1568 -1.0109  0.5474
 9204SOL    HW231015   0.387   5.057   8.882  0.1718  0.0443  0.3149
 9205SOL     OW31016   4.330   9.892   5.135  0.3664 -0.0899 -0.1641
 9205SOL    HW131017   4.336   9.962   5.199 -0.8866  0.4790 -0.6265
 9205SOL    HW231018   4.244   9.852   5.151  0.4277 -0.5305 -0.8816
 9206SOL     OW31019   0.468   9.501   9.189  0.5202  0.0515  0.4197
 9206SOL    HW131020   0.552   9.517   9.146  0.5865  0.0744  0.5582
 9206SOL    HW231021   0.485   9.517   9.281  1.2272 -3.1597  0.9478
 9207SOL     OW31022   9.548   9.157   0.456 -0.1269  0.4269  0.2560
 9207SOL    HW131023   9.624   9.213   0.471  1.6901 -2.3245  2.3583
 9207SOL    HW231024   9.565   9.117   0.371  0.6897  0.0309  0.5901
 9208SOL     OW31025   5.125   4.665   8.417  0.6912 -0.7357 -0.4840
 9208SOL    HW131026   5.155   4.575   8.409  0.5054 -0.6970 -1.9416
 9208SOL    HW231027   5.141   4.703   8.330 -4.3839 -0.9963 -1.8678
 9209SOL     OW31028   3.464   5.999   8.215 -0.0659 -0.6663 -0.5702
 9209SOL    HW131029   3.557   5.980   8.205  0.1238 -0.1461  0.1235
 9209SOL    HW231030   3.442   6.052   8.138  0.9140  1.6798  0.6551
 9210SOL     OW31031  10.403   1.527   9.749  0.8099  0.6795  0.1756
 9210SOL    HW131032  10.458   1.453   9.725 -0.7816 -0.9229  1.2679
 9210SOL    HW231033  10.314   1.499   9.729  0.0897  1.9999  1.3370
 9211SOL     OW31034   8.052   8.285   9.890  0.0085  0.7243 -0.2484
 9211SOL    HW131035   8.052   8.238   9.806 -3.5494  1.2029 -0.6870
 9211SOL    HW231036   8.076   8.218   9.954  0.7775 -0.1712 -1.4253
 9212SOL     OW31037   0.235   2.462   3.014  0.1337  0.1405  0.5241
 9212SOL    HW131038   0.210   2.444   3.104  1.4389 -0.4274  0.7952
 9212SOL    HW231039   0.176   2.532   2.986 -0.9301 -0.3470  1.4831
 9213SOL     OW31040   3.153   2.253   9.986  0.1330 -0.5002 -0.2918
 9213SOL    HW131041   3.080   2.296   9.941 -0.1863 -1.5674 -0.8438
 9213SOL    HW231042   3.222   2.248   9.920  0.1448 -0.8752 -0.2523
 9214SOL     OW31043   7.102   7.865   4.286 -0.3381 -0.0396  0.2130
 9214SOL    HW131044   7.190   7.845   4.317  0.1347  1.8638  0.2223
 9214SOL    HW231045   7.094   7.960   4.296 -1.8606  0.0213 -1.1626
 9215SOL     OW31046   1.446  10.513   1.677  0.3024 -0.2731  0.3326
 9215SOL    HW131047   1.506  10.586   1.660 -1.7347  0.9828 -2.0845
 9215SOL    HW231048   1.504  10.440   1.699  2.6161  1.2703 -0.2121
 9216SOL     OW31049   4.430   7.658   6.402 -0.0478 -0.7744  0.0864
 9216SOL    HW131050   4.503   7.682   6.460  0.0203 -1.0227  0.1054
 9216SOL    HW231051   4.455   7.693   6.317 -1.2871  1.8216  0.6829
 9217SOL     OW31052   4.810   0.262   7.528 -1.0423 -0.2706 -0.1252
 9217SOL    HW131053   4.776   0.237   7.614  1.2027  0.6973  1.1295
 9217SOL    HW231054   4.902   0.235   7.530 -0.6784  0.7386 -1.8179
 9218SOL     OW31055   4.573   5.288   5.011 -0.1999 -0.2455  0.0978
 9218SOL    HW131056   4.555   5.215   4.952 -0.7865 -0.1999  0.2134
 9218SOL    HW231057   4.587   5.363   4.953  1.1600 -0.5929 -0.0530
 9219SOL     OW31058   2.644   3.539   7.030  0.1514  0.2707  0.2778
 9219SOL    HW131059   2.584   3.559   7.103 -1.1966 -0.2826 -0.6379
 9219SOL    HW231060   2.609   3.458   6.993  1.4734 -0.0443 -0.3198
 9220SOL     OW31061   7.835   5.670   9.153  0.0834  0.0839 -0.4704
 9220SOL    HW131062   7.885   5.624   9.220 -1.5752  0.6655  1.2496
 9220SOL    HW231063   7.840   5.762   9.178 -2.4279  0.0965  0.2355
 9221SOL     OW31064   6.568   4.237   2.823  0.5451  0.2590 -0.3783
 9221SOL    HW131065   6.579   4.245   2.918 -1.1174 -2.0497  0.0789
 9221SOL    HW231066   6.492   4.292   2.804 -0.9796 -1.5521  0.1783
 9222SOL     OW31067   5.397   1.986   6.940  0.7189 -0.5784  0.1060
 9222SOL    HW131068   5.490   1.971   6.926  0.7573  0.3387 -0.7772
 9222SOL    HW231069   5.387   2.081   6.936 -0.3581 -0.6974 -0.6598
 9223SOL     OW31070  10.032   6.404   4.771 -0.3959 -0.1243 -0.6551
 9223SOL    HW131071   9.986   6.467   4.715 -0.2566  1.5389  0.9926
 9223SOL    HW231072  10.067   6.457   4.843  1.5184 -1.7962 -0.2649
 9224SOL     OW31073  10.183   5.558   5.630  0.0241 -0.5133 -0.2599
 9224SOL    HW131074  10.245   5.487   5.647 -0.3654 -1.2276 -1.6500
 9224SOL    HW231075  10.177   5.561   5.534  0.2305  1.5787 -0.2486
 9225SOL     OW31076   6.027  10.252   3.585 -0.5025  0.3464  0.3936
 9225SOL    HW131077   5.936  10.254   3.616 -1.0829 -0.3361 -1.1567
 9225SOL    HW231078   6.066  10.331   3.622 -1.1618 -0.3039  2.6495
 9226SOL     OW31079   4.112   1.980   3.466 -0.6037  0.0464 -0.1552
 9226SOL    HW131080   4.207   1.969   3.469 -0.6451 -0.4211 -0.5060
 9226SOL    HW231081   4.095   2.050   3.529 -0.2878 -1.6830  1.9948
 9227SOL     OW31082   5.366   2.515   4.782 -0.1191  0.3204  0.0462
 9227SOL    HW131083   5.447   2.565   4.794  0.2669 -0.2844 -0.0157
 9227SOL    HW231084   5.325   2.555   4.705 -0.0143  0.7996  0.2357
 9228SOL     OW31085   9.172   8.467   4.934  0.1664 -0.1973  0.1708
 9228SOL    HW131086   9.194   8.426   4.850 -2.8274  0.8008 -1.2421
 9228SOL    HW231087   9.194   8.401   4.999  3.9370 -0.5042 -1.1459
 9229SOL     OW31088   7.002  10.450   9.700  0.2121  0.1251  0.0195
 9229SOL    HW131089   6.954  10.388   9.754 -3.0942 -0.2405 -2.9652
 9229SOL    HW231090   6.995  10.533   9.747 -0.6001 -0.5846  1.2059
 9230SOL     OW31091  10.536   7.059   7.787 -0.1222  0.3090 -0.4825
 9230SOL    HW131092  10.504   7.029   7.872  0.5610  0.6614 -0.0924
 9230SOL    HW231093  10.632   7.053   7.794 -0.0462  0.8016 -1.0562
 9231SOL     OW31094   1.318   2.840   5.002 -0.1111  0.0884  0.2980
 9231SOL    HW131095   1.224   2.823   4.998 -0.1951  0.5645 -3.1908
 9231SOL    HW231096   1.356   2.757   5.032 -1.5927 -0.3218  1.1191
 9232SOL     OW31097   6.970   9.810   4.678 -0.3648  0.1589 -0.3937
 9232SOL    HW131098   7.023   9.762   4.614 -0.2293 -0.0221 -0.1486
 9232SOL    HW231099   6.884   9.818   4.636  0.5433  2.8194 -1.9524
 9233SOL     OW31100   5.930   4.260   3.701 -0.0642  0.5668 -0.5826
 9233SOL    HW131101   5.855   4.200   3.707 -0.0037  0.4802 -0.6841
 9233SOL    HW231102   5.933   4.286   3.609  0.5572 -0.1191 -0.7765
 9234SOL     OW31103  10.140   5.674  10.742  0.0340  0.2584 -0.6007
 9234SOL    HW131104  10.125   5.735  10.670  3.3623 -0.7129 -2.2978
 9234SOL    HW231105  10.224   5.702  10.780 -1.1641  0.1852  2.4151
 9235SOL     OW31106   8.926   8.241   7.906  0.4932  0.2974  0.2518
 9235SOL    HW131107   8.955   8.268   7.819 -1.0753  1.4969  0.0544
 9235SOL    HW231108   8.863   8.171   7.889  1.3511 -0.5793  0.5449
 9236SOL     OW31109   5.757   4.258   8.348 -0.2814 -0.0296 -0.8897
 9236SOL    HW131110   5.803   4.174   8.338 -1.8415 -0.8300 -1.6252
 9236SOL    HW231111   5.676   4.236   8.393 -0.0109  1.3539  0.3303
 9237SOL     OW31112   7.056   9.403   8.302  0.0224 -0.5193  0.5180
 9237SOL    HW131113   7.065   9.471   8.236  0.1858  0.5677  1.6108
 9237SOL    HW231114   7.064   9.321   8.254  2.0166  0.2422 -0.5650
 9238SOL     OW31115   2.571   1.792   5.056  0.0666 -0.0985  0.0787
 9238SOL    HW131116   2.636   1.766   4.990 -0.0946  2.1468 -1.0796
 9238SOL    HW231117   2.622   1.831   5.126  0.0847  0.0205  0.0000
 9239SOL     OW31118   2.793   9.138   1.946  1.0373  0.2198  0.0995
 9239SOL    HW131119   2.737   9.066   1.918  1.8826  0.0023 -1.1230
 9239SOL    HW231120   2.868   9.096   1.989  0.1009  0.5238  2.1493
 9240SOL     OW31121   7.944   4.753   1.124 -0.6523 -0.3202 -0.3938
 9240SOL    HW131122   7.948   4.775   1.217  0.9943 -0.3983 -0.4161
 9240SOL    HW231123   7.905   4.830   1.082  2.3672  1.5345 -0.1182
 9241SOL     OW31124   8.030   6.604   5.697 -0.0694  0.1706 -0.2317
 9241SOL    HW131125   7.990   6.688   5.675 -0.0899  0.0630 -0.6111
 9241SOL    HW231126   8.121   6.625   5.718  0.2590  0.1367 -1.5399
 9242SOL     OW31127   0.222   5.764   6.698 -1.2520  0.2548 -0.4063
 9242SOL    HW131128   0.266   5.798   6.776 -0.5483  0.3282 -0.8151
 9242SOL    HW231129   0.177   5.840   6.661 -0.1295  0.6499 -1.0198
 9243SOL     OW31130   9.060   6.533   6.164 -0.2956 -0.1528  0.2206
 9243SOL    HW131131   9.041   6.552   6.072  0.4266  0.9243  0.2729
 9243SOL    HW231132   9.051   6.438   6.171 -1.7409 -0.1234 -0.6286
 9244SOL     OW31133   9.479   4.397  10.552 -0.2321  0.1062  0.1603
 9244SOL    HW131134   9.443   4.330  10.610 -1.8177 -0.8814 -1.8578
 9244SOL    HW231135   9.570   4.371  10.540 -0.5818 -1.1803  0.1422
 9245SOL     OW31136   1.195   2.753   2.558 -0.7325  0.1193 -0.3371
 9245SOL    HW131137   1.141   2.829   2.534  0.0027 -0.4480 -4.4587
 9245SOL    HW231138   1.149   2.678   2.520  0.5869 -0.9835  0.1610
 9246SOL     OW31139  10.686   0.015   4.933 -0.4412  0.1885  0.0778
 9246SOL    HW131140  10.683   0.049   4.844  0.7025 -0.0718 -0.0815
 9246SOL    HW231141  10.717  -0.075   4.923  1.5351  0.7267  0.8441
 9247SOL     OW31142   0.536   9.951   0.799  0.0802  0.3030  0.3144
 9247SOL    HW131143   0.442   9.967   0.788 -0.0227  0.0016  0.7540
 9247SOL    HW231144   0.569  10.034   0.835  0.0843  0.6058 -0.3620
 9248SOL     OW31145  10.705   9.510   0.437  0.3121  0.0595 -0.2180
 9248SOL    HW131146  10.794   9.539   0.456  1.6746 -3.8526  0.2463
 9248SOL    HW231147  10.665   9.497   0.523 -0.5327  1.1281 -0.4225
 9249SOL     OW31148   4.104   6.217   1.954  0.2558 -0.3059  0.1222
 9249SOL    HW131149   4.148   6.265   2.025  1.4858 -0.5036 -0.4843
 9249SOL    HW231150   4.121   6.269   1.876  0.3250 -0.9621 -0.2994
 9250SOL     OW31151   3.764   5.620   6.003  0.5707  0.1165 -0.0253
 9250SOL    HW131152   3.832   5.686   5.986  1.0570  0.4845  2.8065
 9250SOL    HW231153   3.806   5.558   6.063 -0.6418 -1.4314 -0.7233
 9251SOL     OW31154   0.406   5.595   9.257  0.8827  0.4611  0.2405
 9251SOL    HW131155   0.357   5.599   9.340  1.2362 -0.4242  0.5042
 9251SOL    HW231156   0.470   5.665   9.264  1.8408 -0.4611  1.3497
 9252SOL     OW31157   6.168   0.489   2.327 -0.0940 -0.6911  0.4115
 9252SOL    HW131158   6.085   0.536   2.329  0.0609 -0.3196 -1.1556
 9252SOL    HW231159   6.180   0.458   2.417 -0.9154  1.0064  1.1418
 9253SOL     OW31160   8.237   5.851   7.259  0.1097  0.0904  0.3841
 9253SOL    HW131161   8.294   5.842   7.183 -0.9494 -0.4985 -0.3502
 9253SOL    HW231162   8.163   5.903   7.229 -1.6483 -2.3642  0.2055
 9254SOL     OW31163   7.470   9.512   2.782 -0.2960  0.3776 -0.5396
 9254SOL    HW131164   7.530   9.569   2.830 -2.1390  1.5716  0.4445
 9254SOL    HW231165   7.500   9.518   2.691  0.7655  1.3328 -0.1582
 9255SOL     OW31166   4.267   5.476   9.792  0.7897 -0.5823 -0.1832
 9255SOL    HW131167   4.195   5.506   9.848  2.2926 -0.2441  1.6853
 9255SOL    HW231168   4.304   5.555   9.755  2.2316 -0.3707  1.5471
 9256SOL     OW31169   1.601   0.179   7.028 -0.6047 -0.2276  0.6986
 9256SOL    HW131170   1.675   0.129   6.994 -0.2502 -1.2620  2.8266
 9256SOL    HW231171   1.552   0.207   6.950  0.1106 -2.4757 -0.6357
 9257SOL     OW31172   0.753  10.346   2.048  0.0341  0.0128 -0.6480
 9257SOL    HW131173   0.764  10.294   2.128  0.6784 -0.8710 -1.2934
 9257SOL    HW231174   0.660  10.339   2.028 -0.0338 -0.2095 -0.2761
 9258SOL     OW31175   1.108   7.282   7.441  0.3459  0.3182 -0.0220
 9258SOL    HW131176   1.137   7.359   7.490 -0.0933  1.7521 -1.8882
 9258SOL    HW231177   1.021   7.263   7.475  1.0389 -0.3291  1.4848
 9259SOL     OW31178   7.360   3.809   3.253  0.1854  0.2889  0.1100
 9259SOL    HW131179   7.325   3.721   3.265  0.1171  0.0310 -1.7750
 9259SOL    HW231180   7.283   3.865   3.246  0.1877  0.8890  3.2843
 9260SOL     OW31181  10.133   0.666   3.426 -0.0764  0.1300  0.0723
 9260SOL    HW131182  10.182   0.619   3.493  0.3981 -0.5901 -0.7621
 9260SOL    HW231183  10.179   0.749   3.417 -0.1256  0.2240  0.6003
 9261SOL     OW31184   1.483   1.405   4.789 -0.0354  0.6248 -0.7564
 9261SOL    HW131185   1.518   1.492   4.808  0.6119  0.1556  0.2778
 9261SOL    HW231186   1.393   1.408   4.820  0.5271  0.3749  1.0284
 9262SOL     OW31187   1.651   4.817   9.486  0.4937  0.8905 -0.0785
 9262SOL    HW131188   1.662   4.740   9.542 -2.7786 -0.5226 -1.1243
 9262SOL    HW231189   1.720   4.810   9.421 -0.3054 -1.8679 -0.7820
 9263SOL     OW31190   3.272   3.459   4.559  0.0323 -0.4701 -0.1315
 9263SOL    HW131191   3.204   3.459   4.627  0.9246  0.0308  0.7834
 9263SOL    HW231192   3.345   3.507   4.598 -0.0526  1.4147 -2.0866
 9264SOL     OW31193   0.960   4.725   5.157  0.2927  0.8973 -0.0429
 9264SOL    HW131194   0.963   4.819   5.141  0.2406  0.7952 -0.6767
 9264SOL    HW231195   1.048   4.694   5.136 -0.1224  0.5729 -1.3751
 9265SOL     OW31196   6.985   8.633   6.344  0.1522  0.1228  0.5225
 9265SOL    HW131197   6.926   8.560   6.322 -1.4287  1.3557  0.4443
 9265SOL    HW231198   7.035   8.648   6.264  0.2172 -0.6231  0.4145
 9266SOL     OW31199   9.882   0.465   8.557  0.3039  0.8298  0.4570
 9266SOL    HW131200   9.899   0.547   8.511 -2.0977  0.5741 -1.0025
 9266SOL    HW231201   9.829   0.413   8.497  0.3349 -1.1419  2.0092
 9267SOL     OW31202   3.320   4.174   9.396  0.7326  0.2539 -0.0632
 9267SOL    HW131203   3.406   4.137   9.376 -0.1518 -2.0157  0.1057
 9267SOL    HW231204   3.303   4.149   9.486  0.2431  1.4835  0.2123
 9268SOL     OW31205   0.009   3.423   0.216  0.3451 -0.2016  0.1841
 9268SOL    HW131206   0.088   3.450   0.262  1.4385  0.4581 -1.9757
 9268SOL    HW231207  -0.040   3.372   0.281  2.2222 -0.0978  1.7699
 9269SOL     OW31208   2.996   4.071   0.364  0.2155  0.1207 -0.2093
 9269SOL    HW131209   3.003   4.155   0.319  0.1297 -0.1047 -0.6479
 9269SOL    HW231210   2.911   4.075   0.409  0.4725  0.4957  0.2460
 9270SOL     OW31211   3.581   9.819   7.857 -0.3688  0.0185  0.9670
 9270SOL    HW131212   3.653   9.867   7.898 -1.3588  0.3477  2.3596
 9270SOL    HW231213   3.609   9.809   7.766  1.3696  0.2742  1.4245
 9271SOL     OW31214   3.945   3.618   9.178  0.3326 -0.5000 -0.8331
 9271SOL    HW131215   3.922   3.526   9.190  0.4557 -0.3810  0.4587
 9271SOL    HW231216   3.860   3.663   9.177  0.3157 -0.5045 -0.2010
 9272SOL     OW31217   9.260   0.052   8.640 -0.1399  0.0656  0.0078
 9272SOL    HW131218   9.338  -0.003   8.639 -1.3120 -1.6844 -0.4345
 9272SOL    HW231219   9.197   0.004   8.694 -1.3070  0.8400 -0.6138
 9273SOL     OW31220   6.570   0.467   5.653 -0.1831 -0.1201  0.9991
 9273SOL    HW131221   6.570   0.391   5.710 -0.8485 -0.8608  0.0370
 9273SOL    HW231222   6.490   0.459   5.602 -0.7625  1.7185  1.5165
 9274SOL     OW31223   6.525   0.666   2.426  0.1881 -0.1913  0.8163
 9274SOL    HW131224   6.568   0.736   2.376  1.2356 -0.5916  1.1162
 9274SOL    HW231225   6.485   0.610   2.359  0.5582 -0.0712  0.4848
 9275SOL     OW31226   2.106   6.651   3.890  0.2594 -0.2737 -0.2036
 9275SOL    HW131227   2.073   6.608   3.968 -0.9438  0.6342 -0.1803
 9275SOL    HW231228   2.130   6.580   3.831 -0.1092 -0.9632  0.4622
 9276SOL     OW31229   1.978   5.817   2.991 -0.1897 -0.2103 -0.5798
 9276SOL    HW131230   1.914   5.783   3.053 -1.9010  0.9237 -1.6543
 9276SOL    HW231231   1.930   5.826   2.909  0.9319  2.0195 -1.0726
 9277SOL     OW31232   6.982   1.149   8.053  0.2893  0.3695 -0.5056
 9277SOL    HW131233   7.046   1.081   8.031  0.5762  1.1127 -2.1817
 9277SOL    HW231234   7.018   1.228   8.012 -1.2737  0.9954 -0.7176
 9278SOL     OW31235   6.299   0.597   9.457  0.4322  0.3986  0.0499
 9278SOL    HW131236   6.320   0.678   9.410  0.3416  0.4189  0.0442
 9278SOL    HW231237   6.213   0.613   9.496  0.4127  0.3044  0.0465
 9279SOL     OW31238   5.018   4.350   4.682 -0.2328  0.4951 -0.5682
 9279SOL    HW131239   5.011   4.307   4.596  1.0536  0.3043 -0.5943
 9279SOL    HW231240   4.936   4.328   4.726 -0.1974 -0.8486 -1.1105
 9280SOL     OW31241   1.238   0.872  10.795  1.1200  0.2666 -0.4206
 9280SOL    HW131242   1.272   0.871  10.706 -1.3806 -2.3769 -1.5022
 9280SOL    HW231243   1.315   0.880  10.850  2.8829  0.5685 -2.7674
 9281SOL     OW31244   2.147   3.244   5.234  0.2637  0.0466 -0.0302
 9281SOL    HW131245   2.197   3.295   5.298  1.4995 -0.5027 -0.5357
 9281SOL    HW231246   2.138   3.157   5.273  0.0935  0.0107 -0.1454
 9282SOL     OW31247  10.308   2.925   9.090  0.6649  0.7532 -0.3452
 9282SOL    HW131248  10.385   2.980   9.079 -0.5833  3.2071  2.0785
 9282SOL    HW231249  10.285   2.934   9.182 -3.4755  1.5072 -1.2742
 9283SOL     OW31250   8.140   8.877   3.419 -0.0569  0.0168  0.4562
 9283SOL    HW131251   8.046   8.895   3.418  0.0678  0.7668 -1.1894
 9283SOL    HW231252   8.181   8.959   3.445  0.2109  0.2722 -0.7099
 9284SOL     OW31253   2.186   7.273   4.257 -0.1012 -0.1591  0.1452
 9284SOL    HW131254   2.109   7.245   4.208  0.2098  0.5783 -0.7891
 9284SOL    HW231255   2.245   7.309   4.191  0.6255  0.2021  0.9696
 9285SOL     OW31256   9.741   2.294   2.811 -0.2645 -0.0531  0.1620
 9285SOL    HW131257   9.692   2.262   2.735  0.2581 -0.8165  0.1424
 9285SOL    HW231258   9.731   2.226   2.877  0.5373 -0.0910  0.2539
 9286SOL     OW31259   3.369   9.024   4.010  0.6374 -0.1135 -0.2539
 9286SOL    HW131260   3.365   8.933   4.038  1.0173  0.5197  2.0664
 9286SOL    HW231261   3.278   9.055   4.017  0.5223 -0.2737 -0.9619
 9287SOL     OW31262   5.154   1.753   4.313  0.2961  0.1383  0.1963
 9287SOL    HW131263   5.118   1.666   4.298  1.4661 -0.3783  0.2886
 9287SOL    HW231264   5.247   1.744   4.293  0.8453  0.8407  2.1954
 9288SOL     OW31265   5.630   9.212   4.538  0.2321 -1.5198  0.2619
 9288SOL    HW131266   5.672   9.186   4.456 -0.8147  1.0999 -1.2265
 9288SOL    HW231267   5.702   9.243   4.593  0.6658 -0.3004 -0.9312
 9289SOL     OW31268   4.134   8.225  10.754 -0.1235 -0.4940 -0.3774
 9289SOL    HW131269   4.223   8.189  10.748  0.1967  0.0412  0.7676
 9289SOL    HW231270   4.144   8.317  10.729  0.2193  0.3105  2.3536
 9290SOL     OW31271   8.349   3.723   9.503  1.1573  0.4236  0.4855
 9290SOL    HW131272   8.375   3.631   9.509  0.1775  0.1235  0.3310
 9290SOL    HW231273   8.258   3.720   9.474  1.6507  1.4896 -1.3037
 9291SOL     OW31274   9.742   2.367   7.470  0.3949  0.4934  0.2475
 9291SOL    HW131275   9.708   2.412   7.393 -2.0971 -0.1644  0.8754
 9291SOL    HW231276   9.816   2.316   7.438 -0.3790  0.4854 -1.6422
 9292SOL     OW31277   1.640   2.441   4.167  0.0757 -0.2738 -0.1084
 9292SOL    HW131278   1.616   2.439   4.260 -1.4556  1.7244 -0.4059
 9292SOL    HW231279   1.584   2.374   4.127 -0.1156 -0.3198  0.2311
 9293SOL     OW31280  10.193   5.271   4.046 -0.3539  0.2002  0.0948
 9293SOL    HW131281  10.111   5.314   4.073 -0.4366 -0.1965  0.4897
 9293SOL    HW231282  10.252   5.283   4.120 -0.1898  0.1247 -0.0225
 9294SOL     OW31283   5.077   3.829   5.048  0.1457  0.0152  0.5665
 9294SOL    HW131284   5.008   3.855   5.108  0.4936  1.3327  0.4226
 9294SOL    HW231285   5.114   3.911   5.017  0.8678 -0.6586 -0.4140
 9295SOL     OW31286   7.527   1.876   6.823  0.4076  0.0546  0.3462
 9295SOL    HW131287   7.623   1.881   6.827  0.3395  1.5827  0.7432
 9295SOL    HW231288   7.497   1.954   6.869 -1.0265  0.0705 -0.5531
 9296SOL     OW31289   6.350   0.298   2.148  0.9153  0.1577 -0.4577
 9296SOL    HW131290   6.358   0.246   2.068  0.7327  0.9615 -1.0140
 9296SOL    HW231291   6.261   0.334   2.144  0.5905 -0.5043  0.5516
 9297SOL     OW31292   5.829   2.764  10.759 -0.0026  0.6064  0.0187
 9297SOL    HW131293   5.745   2.738  10.721  0.2156  0.9645 -0.7179
 9297SOL    HW231294   5.884   2.686  10.753 -0.8413 -0.2490  2.2455
 9298SOL     OW31295   6.333   9.980   3.213  0.3739 -0.3156 -0.4338
 9298SOL    HW131296   6.369   9.898   3.248 -0.4559 -1.3231 -1.8464
 9298SOL    HW231297   6.379  10.048   3.262  2.4118 -1.5718 -0.4631
 9299SOL     OW31298   9.819   2.228   4.580 -0.2405  0.8783  0.2210
 9299SOL    HW131299   9.785   2.139   4.589  1.5053  0.3250  2.2649
 9299SOL    HW231300   9.777   2.278   4.649 -0.6635  1.4775 -0.4542
 9300SOL     OW31301   2.712   3.974   3.489  0.0829  0.5352  0.4749
 9300SOL    HW131302   2.721   3.959   3.394  0.7202  0.9874  0.4572
 9300SOL    HW231303   2.650   4.047   3.495  0.4734  0.8786  0.3793
 9301SOL     OW31304   2.192   9.678   9.446  0.2412  0.6725  0.0830
 9301SOL    HW131305   2.173   9.770   9.430 -1.1129  0.8930  2.4808
 9301SOL    HW231306   2.113   9.643   9.486 -0.1091 -2.1553 -2.6140
 9302SOL     OW31307   4.244   0.400   6.255 -0.5408 -0.2731  0.2061
 9302SOL    HW131308   4.258   0.313   6.293  1.0010 -0.1993 -0.1310
 9302SOL    HW231309   4.292   0.459   6.313 -0.9739  0.2673  0.0185
 9303SOL     OW31310   0.046   6.404   1.608 -0.4114  0.0217  0.3830
 9303SOL    HW131311  -0.010   6.479   1.587 -0.4533 -0.1875 -0.2741
 9303SOL    HW231312  -0.003   6.328   1.576 -0.4225 -0.3030  1.1485
 9304SOL     OW31313   7.091   3.710   0.409  0.2907  0.2017  0.0870
 9304SOL    HW131314   7.127   3.799   0.416 -1.1826  1.0039 -1.5751
 9304SOL    HW231315   7.066   3.702   0.316 -0.9756 -1.3954  0.5189
 9305SOL     OW31316   7.218   6.286   3.488 -0.3736 -0.5211 -0.0150
 9305SOL    HW131317   7.207   6.205   3.538 -2.0176  0.0655  0.6290
 9305SOL    HW231318   7.166   6.272   3.409  0.7036 -0.7221 -0.7052
 9306SOL     OW31319   6.128   5.446   9.662  0.2063 -0.5419 -0.0249
 9306SOL    HW131320   6.041   5.413   9.683  1.1336 -1.8072  2.0823
 9306SOL    HW231321   6.174   5.370   9.627  0.8079 -0.1749 -0.0320
 9307SOL     OW31322   2.756   5.139   1.316 -0.4811  0.2581 -0.2122
 9307SOL    HW131323   2.686   5.192   1.278 -0.1256  0.3527 -0.7569
 9307SOL    HW231324   2.825   5.202   1.339  0.1960 -0.0005 -1.4234
 9308SOL     OW31325   3.042   7.398   0.187  0.1541 -0.2279 -0.0186
 9308SOL    HW131326   3.056   7.485   0.152  0.2828 -0.9003 -1.7312
 9308SOL    HW231327   3.009   7.412   0.276  2.5661  1.5209  0.6854
 9309SOL     OW31328   9.673   6.885   7.175  0.3773 -0.3439  0.0373
 9309SOL    HW131329   9.729   6.917   7.105  1.2203 -0.2099  0.7518
 9309SOL    HW231330   9.654   6.794   7.151  1.4475 -0.6004  0.0978
 9310SOL     OW31331   9.903   2.137   9.551 -1.0476  0.5916 -0.1655
 9310SOL    HW131332   9.995   2.110   9.551 -1.1310  0.2481 -1.3542
 9310SOL    HW231333   9.902   2.217   9.603 -0.6998 -1.2880  3.0102
 9311SOL     OW31334   0.548   8.470   6.562  0.2611  0.1671 -0.0547
 9311SOL    HW131335   0.484   8.445   6.495 -2.0608  0.8886  1.7230
 9311SOL    HW231336   0.525   8.561   6.583  0.7972 -0.0983  1.8115
 9312SOL     OW31337   6.208   6.143   3.294 -0.3639  0.1574 -0.1651
 9312SOL    HW131338   6.193   6.079   3.364 -2.0717 -1.0142 -1.5421
 9312SOL    HW231339   6.135   6.131   3.233  1.0115  1.1881 -2.1339
 9313SOL     OW31340   6.415   0.778   5.487 -0.3697 -0.0226 -0.0180
 9313SOL    HW131341   6.379   0.754   5.572  0.6563  0.9215  0.7166
 9313SOL    HW231342   6.499   0.820   5.508 -0.5564  1.1265 -1.4330
 9314SOL     OW31343   6.054   0.535   1.946  0.2874 -0.4725 -0.4248
 9314SOL    HW131344   6.110   0.536   1.868 -0.2763 -1.3641 -0.8552
 9314SOL    HW231345   6.005   0.617   1.941 -0.2578 -0.8383 -1.4029
 9315SOL     OW31346   6.306   3.483   9.629 -0.3728  1.0208  0.1449
 9315SOL    HW131347   6.367   3.533   9.684  1.1712  0.3197 -0.8764
 9315SOL    HW231348   6.360   3.446   9.560 -2.0407  0.6738 -1.0354
 9316SOL     OW31349   1.125  10.344   5.406 -0.3305 -0.0148 -0.1738
 9316SOL    HW131350   1.175  10.303   5.336  0.3168  0.5035 -0.0226
 9316SOL    HW231351   1.176  10.327   5.485 -1.1616 -0.7885  0.2206
 9317SOL     OW31352   5.614   2.631   4.903 -0.0687 -0.0634  0.7333
 9317SOL    HW131353   5.613   2.631   4.999  0.9456  1.6532  0.7796
 9317SOL    HW231354   5.598   2.722   4.879 -4.3298 -1.0352 -0.8859
 9318SOL     OW31355   1.909   0.750   1.573  0.5012  0.0269  0.1598
 9318SOL    HW131356   1.974   0.755   1.502  0.3742  1.7234  0.1214
 9318SOL    HW231357   1.962   0.751   1.653  0.5499  2.0947  0.1445
 9319SOL     OW31358   7.339   3.278   9.580 -0.5595  0.1288 -0.4773
 9319SOL    HW131359   7.306   3.189   9.574 -0.4289  0.0105  0.3634
 9319SOL    HW231360   7.302   3.312   9.662 -0.2924  0.7107 -0.5878
 9320SOL     OW31361   8.520   5.454   3.013 -0.3758 -0.1431  0.5132
 9320SOL    HW131362   8.610   5.431   2.989 -0.6350 -1.3975  0.6823
 9320SOL    HW231363   8.506   5.540   2.974  0.5202 -0.4380 -0.5061
 9321SOL     OW31364   3.782  10.191   9.119  0.2876 -0.4072 -0.1430
 9321SOL    HW131365   3.846  10.140   9.168 -0.6835 -0.9713  0.5787
 9321SOL    HW231366   3.760  10.265   9.176 -1.1232 -1.2672  0.4865
 9322SOL     OW31367  10.646   0.183   3.798  0.4095  0.1714  0.4740
 9322SOL    HW131368  10.594   0.131   3.737 -0.3488  0.7964  0.5685
 9322SOL    HW231369  10.724   0.208   3.749  0.8727 -1.1873  0.4832
 9323SOL     OW31370   1.006  10.004   5.251 -0.2080  0.0225 -0.2744
 9323SOL    HW131371   0.913  10.008   5.226 -0.2972  2.1889  0.2374
 9323SOL    HW231372   1.011  10.051   5.334  1.4469  0.5694 -0.6372
 9324SOL     OW31373   2.758   9.122   0.619  0.4888 -0.4320 -0.0783
 9324SOL    HW131374   2.738   9.122   0.712 -0.0567 -0.8630 -0.1942
 9324SOL    HW231375   2.676   9.150   0.577  1.6442  3.3718 -0.2454
 9325SOL     OW31376   8.473   2.301   7.433  0.5891  0.4088 -0.3213
 9325SOL    HW131377   8.403   2.255   7.385  0.1777  0.2779  0.3912
 9325SOL    HW231378   8.492   2.245   7.508  2.4203 -0.2312 -1.1995
 9326SOL     OW31379   2.194   4.993   9.849  0.9939  0.5334 -0.0076
 9326SOL    HW131380   2.160   4.977   9.761 -1.2715 -1.1506  1.0766
 9326SOL    HW231381   2.273   4.939   9.855  0.1247 -0.8393 -0.4457
 9327SOL     OW31382   2.729   1.015   2.769  0.0402  0.4066  0.5121
 9327SOL    HW131383   2.661   0.949   2.780  1.1322 -1.2692 -1.8687
 9327SOL    HW231384   2.808   0.974   2.803  0.8405  0.1743 -1.4779
 9328SOL     OW31385   1.610   9.302   6.728  0.5463  0.4606 -0.4501
 9328SOL    HW131386   1.585   9.318   6.819  0.0581 -1.0767 -0.2744
 9328SOL    HW231387   1.596   9.385   6.683 -0.3871  0.9054  0.6265
 9329SOL     OW31388   0.937   7.456   8.851  0.1282  0.5883  0.3867
 9329SOL    HW131389   1.011   7.395   8.858  0.3142  0.9163  1.6014
 9329SOL    HW231390   0.910   7.470   8.942 -2.0538 -0.2675 -0.0523
 9330SOL     OW31391   3.009   6.903   0.251  0.0230  0.2044  0.5106
 9330SOL    HW131392   3.063   6.824   0.256  0.7357  0.7454  2.2370
 9330SOL    HW231393   2.944   6.892   0.321 -1.7552 -0.1374 -1.1177
 9331SOL     OW31394   5.595   7.292  10.766  0.0935  0.1261  0.0847
 9331SOL    HW131395   5.519   7.350  10.766  0.1072  0.1721 -1.2825
 9331SOL    HW231396   5.670   7.350  10.777  0.1616  0.4977 -1.9760
 9332SOL     OW31397   8.460   0.751   5.063 -0.5551  0.3683  0.1081
 9332SOL    HW131398   8.490   0.842   5.051 -0.3179  0.1622 -1.0205
 9332SOL    HW231399   8.511   0.719   5.137  1.1169  0.4494 -0.9333
 9333SOL     OW31400   8.990   1.491   6.090  0.1062  0.1808  0.0174
 9333SOL    HW131401   8.981   1.399   6.114 -1.7015  0.0034 -1.0874
 9333SOL    HW231402   8.947   1.539   6.160 -3.1383 -0.1904 -1.5348
 9334SOL     OW31403   2.879   1.936  10.787 -0.3327  0.2918  0.2481
 9334SOL    HW131404   2.933   1.866  10.823 -0.3912 -0.2841 -0.7597
 9334SOL    HW231405   2.936   1.981  10.725 -0.6164  0.5035  0.1413
 9335SOL     OW31406   4.554   8.334   6.576  0.1556 -0.1486  0.2373
 9335SOL    HW131407   4.480   8.279   6.549  0.1173  0.4218 -0.8628
 9335SOL    HW231408   4.513   8.407   6.622 -0.0808  0.6802 -1.2212
 9336SOL     OW31409  10.033   1.423   2.120 -0.4390 -0.3861 -0.7782
 9336SOL    HW131410  10.059   1.381   2.038  0.4956  1.0246 -1.2356
 9336SOL    HW231411  10.081   1.506   2.122 -1.6809  0.3646  0.4250
 9337SOL     OW31412   3.249   4.729   6.551 -0.5481  0.7429  0.0473
 9337SOL    HW131413   3.277   4.762   6.466 -1.9195  0.0353 -0.7165
 9337SOL    HW231414   3.240   4.807   6.605  1.3507  1.1104 -0.1161
 9338SOL     OW31415   8.890   2.445   8.703 -0.2228  0.1409  0.2901
 9338SOL    HW131416   8.842   2.522   8.673  0.8468  0.3363 -1.0136
 9338SOL    HW231417   8.884   2.383   8.630  3.3699  1.0304 -0.9600
 9339SOL     OW31418   3.529   6.910   9.849 -0.6003  0.4623  0.7969
 9339SOL    HW131419   3.560   6.856   9.777 -0.0009  0.0678  1.3427
 9339SOL    HW231420   3.551   7.000   9.822  1.6628  0.1455  1.4595
 9340SOL     OW31421   3.949   3.708   2.093  0.2699  0.5734  0.0851
 9340SOL    HW131422   3.891   3.735   2.164  3.2452 -0.0165  3.0268
 9340SOL    HW231423   4.023   3.769   2.099  1.8523 -1.1865 -0.6738
 9341SOL     OW31424   4.016   1.740   3.917 -0.1106 -0.4957  0.3437
 9341SOL    HW131425   4.068   1.659   3.917 -1.1807 -1.2107 -0.1296
 9341SOL    HW231426   4.006   1.761   3.824 -0.3244 -0.1417  0.4480
 9342SOL     OW31427   0.020  10.416   3.770  0.1074  0.5558  0.2706
 9342SOL    HW131428   0.081  10.378   3.706  1.5098 -0.0696  1.8958
 9342SOL    HW231429   0.075  10.470   3.826 -1.1616  1.4186  0.7114
 9343SOL     OW31430  10.187   9.809   8.690  0.0482 -0.0738 -0.5168
 9343SOL    HW131431  10.255   9.758   8.647 -0.0916  0.2643 -1.1606
 9343SOL    HW231432  10.200   9.898   8.658  0.4024  0.3477  0.7250
 9344SOL     OW31433   4.797   1.265   5.967 -0.3228  0.0654  0.1532
 9344SOL    HW131434   4.845   1.199   6.018 -1.0017  1.1655  2.3754
 9344SOL    HW231435   4.842   1.348   5.988 -2.2569  0.9183  1.1821
 9345SOL     OW31436   0.870   3.643   4.577  0.1846  0.0102  0.3545
 9345SOL    HW131437   0.935   3.577   4.554 -0.1530 -0.3384  0.3848
 9345SOL    HW231438   0.830   3.611   4.657  1.1676  1.0861  1.3150
 9346SOL     OW31439   7.759   3.606   7.142 -0.6979 -0.1433 -0.1050
 9346SOL    HW131440   7.738   3.680   7.086 -0.1520 -1.2042 -1.8126
 9346SOL    HW231441   7.854   3.610   7.153 -0.7186 -0.3320  0.1443
 9347SOL     OW31442   8.332   2.332   5.345 -0.3334  0.3931 -0.0543
 9347SOL    HW131443   8.352   2.244   5.311 -0.3783  0.4134 -0.1328
 9347SOL    HW231444   8.362   2.391   5.276 -1.7340  0.3860 -0.6983
 9348SOL     OW31445  10.498   1.208   1.765 -0.3507 -0.0030  0.0701
 9348SOL    HW131446  10.507   1.291   1.812 -0.6517  0.1074 -0.0607
 9348SOL    HW231447  10.570   1.154   1.797 -0.5647  0.0582  0.6915
 9349SOL     OW31448   6.842   0.535   8.857  0.0181  0.0023 -0.6099
 9349SOL    HW131449   6.766   0.528   8.800 -0.6642  1.8321 -0.0072
 9349SOL    HW231450   6.815   0.492   8.939  0.1331 -0.5268 -0.8463
 9350SOL     OW31451   2.193   0.640   5.002 -0.4950  0.0681  0.1315
 9350SOL    HW131452   2.274   0.589   4.991  0.7004  1.6613  0.9782
 9350SOL    HW231453   2.174   0.633   5.096 -0.7981  0.4664  0.0999
 9351SOL     OW31454   9.790   1.620   1.556  0.3653  0.5706 -0.3181
 9351SOL    HW131455   9.710   1.673   1.548 -0.4645 -0.9080 -3.5190
 9351SOL    HW231456   9.861   1.680   1.538 -0.1105  1.5914  1.0593
 9352SOL     OW31457   3.542   8.763   3.134  0.2619  0.4854 -0.4775
 9352SOL    HW131458   3.553   8.792   3.225  1.4880  0.1885 -0.5120
 9352SOL    HW231459   3.595   8.684   3.128 -0.4714  0.0368 -1.2425
 9353SOL     OW31460  10.541   4.979   9.999 -0.3857  0.4879 -0.8942
 9353SOL    HW131461  10.510   5.001   9.911 -1.8996  2.4120  0.0509
 9353SOL    HW231462  10.470   4.927  10.037 -0.6175  1.3054 -0.1691
 9354SOL     OW31463   0.761   0.507   4.900  0.1164  0.3434 -0.5688
 9354SOL    HW131464   0.759   0.449   4.824 -0.2634  0.6708 -0.8186
 9354SOL    HW231465   0.675   0.551   4.899  0.0594  0.2574  0.1248
 9355SOL     OW31466   0.087   2.794   5.923 -0.1111 -0.4840  0.2303
 9355SOL    HW131467   0.073   2.724   5.859 -1.6750 -0.5600  0.6210
 9355SOL    HW231468   0.110   2.870   5.869 -2.7206 -0.1961 -0.6151
 9356SOL     OW31469   7.494   4.098   0.901 -0.0386 -0.3961 -0.0732
 9356SOL    HW131470   7.567   4.160   0.905 -0.5322  0.2344 -0.6091
 9356SOL    HW231471   7.535   4.012   0.903  0.6192 -0.0882  1.6070
 9357SOL     OW31472   3.694   2.375  10.561  0.0377 -0.0695  0.0774
 9357SOL    HW131473   3.665   2.290  10.595 -2.2260  1.4916  2.4249
 9357SOL    HW231474   3.616   2.410  10.517  1.6002 -0.0546 -2.9566
 9358SOL     OW31475   0.659  10.096   7.397 -0.0268 -0.3855 -0.0816
 9358SOL    HW131476   0.584  10.038   7.383 -0.1800  0.1042 -1.5182
 9358SOL    HW231477   0.640  10.141   7.479 -0.2549 -1.8081  0.6876
 9359SOL     OW31478   2.555   1.600   7.022 -0.3986  0.0571  0.0088
 9359SOL    HW131479   2.481   1.584   6.964 -1.3070  1.6158  0.6839
 9359SOL    HW231480   2.615   1.654   6.970 -0.0435 -0.6466 -0.3143
 9360SOL     OW31481  10.288  10.527   3.380 -0.0119  0.1685  0.2198
 9360SOL    HW131482  10.368  10.490   3.419 -0.3500 -1.1525 -0.2913
 9360SOL    HW231483  10.299  10.621   3.389  1.4144  0.0006  0.5482
 9361SOL     OW31484   5.481   7.571   9.520 -0.4459 -0.0681  0.0581
 9361SOL    HW131485   5.449   7.493   9.566 -0.7554  0.3085  0.4903
 9361SOL    HW231486   5.465   7.552   9.427 -0.9118 -0.3442  0.1896
 9362SOL     OW31487   1.726   6.825   4.669  0.7306  0.8677  0.0026
 9362SOL    HW131488   1.723   6.866   4.756  0.7277  1.1353 -0.1209
 9362SOL    HW231489   1.706   6.897   4.609 -0.7701  0.3680 -0.1267
 9363SOL     OW31490   9.161   8.186   5.468 -0.2798 -0.3028 -0.0982
 9363SOL    HW131491   9.099   8.121   5.435  0.1050  0.1231 -1.7354
 9363SOL    HW231492   9.119   8.270   5.452  0.0143 -0.0764  0.3165
 9364SOL     OW31493   0.597   6.341   3.802  0.2384 -0.0195  0.2008
 9364SOL    HW131494   0.638   6.260   3.832 -0.6402 -1.0779 -1.3248
 9364SOL    HW231495   0.656   6.373   3.733  0.0385  0.0703  0.0719
 9365SOL     OW31496   1.092   8.653   0.487 -0.1715 -0.0091 -0.2444
 9365SOL    HW131497   1.087   8.561   0.514  1.0580  0.0823  0.3876
 9365SOL    HW231498   1.136   8.652   0.402 -1.0243 -0.0676 -0.6876
 9366SOL     OW31499   0.690   9.404   0.215 -0.2753 -0.5097 -0.2804
 9366SOL    HW131500   0.608   9.453   0.221 -0.7095 -1.3418  1.6709
 9366SOL    HW231501   0.758   9.471   0.218 -0.8718  0.0980  0.0115
 9367SOL     OW31502  10.685   2.192   3.405 -0.0908 -0.5640 -0.6406
 9367SOL    HW131503  10.631   2.116   3.426 -2.8706  1.2574 -0.7033
 9367SOL    HW231504  10.638   2.266   3.442  3.5032  1.0615  1.2624
 9368SOL     OW31505   4.974   3.844   2.050 -0.4089  0.1637  0.0335
 9368SOL    HW131506   4.944   3.787   1.979  1.5130 -2.3248  1.0554
 9368SOL    HW231507   4.894   3.887   2.081 -1.7531 -0.9180 -1.7046
 9369SOL     OW31508   7.549  10.281  10.875 -0.5154 -0.1516  0.2966
 9369SOL    HW131509   7.536  10.362  10.827  2.1569 -0.4957 -1.2640
 9369SOL    HW231510   7.575  10.308  10.963 -0.8285  0.6556  0.1409
 9370SOL     OW31511   1.481   6.954  10.631  0.0098  0.9824 -0.0659
 9370SOL    HW131512   1.481   6.871  10.680  2.4255  0.3358 -0.9860
 9370SOL    HW231513   1.407   6.946  10.571  0.4104 -0.7348 -0.3986
 9371SOL     OW31514   8.494   2.071   6.216  0.0215 -0.1549  0.0567
 9371SOL    HW131515   8.429   2.027   6.161 -0.0684  0.8041 -0.6229
 9371SOL    HW231516   8.517   2.006   6.283 -0.2226 -1.1781 -0.8296
 9372SOL     OW31517   4.755   7.878   5.622  0.1889 -0.7929  0.3623
 9372SOL    HW131518   4.728   7.883   5.530  0.9199 -1.3106  0.1066
 9372SOL    HW231519   4.835   7.930   5.626 -0.3062 -0.0655  0.8985
 9373SOL     OW31520   6.035  10.539   9.635  0.3759  0.0213  0.3157
 9373SOL    HW131521   6.116  10.498   9.666  0.3226 -0.9993 -0.8171
 9373SOL    HW231522   6.058  10.581   9.553 -0.6659 -2.2169 -1.2140
 9374SOL     OW31523   5.407   5.713   4.585  0.0187 -0.1339 -0.2524
 9374SOL    HW131524   5.490   5.698   4.631 -0.8460  0.6929  1.6863
 9374SOL    HW231525   5.353   5.760   4.648 -2.4089 -1.7864 -0.9676
 9375SOL     OW31526   7.451   4.309   1.472  0.2704 -0.0840  0.0490
 9375SOL    HW131527   7.505   4.300   1.393  0.2551 -0.8236  0.1149
 9375SOL    HW231528   7.362   4.290   1.442  0.0972  0.7441  0.0217
 9376SOL     OW31529   4.093   7.013   7.361  0.8767  0.2621  0.2840
 9376SOL    HW131530   4.082   7.004   7.266  1.0055 -1.3036  0.3853
 9376SOL    HW231531   4.006   7.035   7.393  0.7360  0.3418 -0.1437
 9377SOL     OW31532   2.238   1.871   4.421  0.6284  0.0823  0.3156
 9377SOL    HW131533   2.201   1.916   4.345  4.3804  3.4735  0.1240
 9377SOL    HW231534   2.171   1.878   4.489 -1.2354  0.6160 -1.4818
 9378SOL     OW31535   1.547   0.995   8.614  0.0101 -1.0750 -0.3195
 9378SOL    HW131536   1.558   1.089   8.631 -1.4572 -0.8976 -0.1595
 9378SOL    HW231537   1.634   0.958   8.628  0.2166 -0.0364  1.6313
 9379SOL     OW31538   3.694   6.947   7.006 -0.5540  0.5770  0.4564
 9379SOL    HW131539   3.690   6.976   6.915  0.5684 -0.1057  0.1780
 9379SOL    HW231540   3.631   7.003   7.052 -0.4793  1.5226 -0.5712
 9380SOL     OW31541   8.315   4.520   6.018  0.0494  0.1649  0.4793
 9380SOL    HW131542   8.356   4.594   5.973  0.7980  0.2156  1.2134
 9380SOL    HW231543   8.221   4.532   6.004  0.2515  0.3007 -0.8585
 9381SOL     OW31544   1.054   6.383   2.161 -0.3860 -0.1994  0.0717
 9381SOL    HW131545   1.121   6.447   2.141  0.3155 -0.7292  0.6812
 9381SOL    HW231546   1.068   6.313   2.096  0.7826 -1.1121  1.2550
 9382SOL     OW31547   2.374   5.663   5.763 -0.1259 -0.4049  0.5993
 9382SOL    HW131548   2.335   5.725   5.824  3.7244  3.2105 -0.1757
 9382SOL    HW231549   2.442   5.619   5.814 -0.1145 -0.9891  0.0937
 9383SOL     OW31550   8.386   1.255   4.543  0.1831  0.1278  0.1693
 9383SOL    HW131551   8.451   1.213   4.488 -1.2578  0.1144 -1.5997
 9383SOL    HW231552   8.411   1.347   4.544  0.3684  0.0843 -0.3130
 9384SOL     OW31553  10.842   6.873   6.652 -0.3899 -0.4679 -0.4122
 9384SOL    HW131554  10.820   6.937   6.721 -0.3561 -1.1403  0.2353
 9384SOL    HW231555  10.758   6.832   6.631 -0.5251  0.2277 -1.2937
 9385SOL     OW31556   7.116   6.006  10.506 -0.7224 -0.1877 -0.1424
 9385SOL    HW131557   7.092   6.097  10.487  1.0865  0.4959  0.5399
 9385SOL    HW231558   7.043   5.972  10.557 -1.3226  0.9830 -0.1822
 9386SOL     OW31559   2.745   4.886   8.495  0.2403  0.4127 -0.3144
 9386SOL    HW131560   2.704   4.855   8.414 -1.1845  1.5357 -0.0650
 9386SOL    HW231561   2.693   4.847   8.565  0.3938  0.8049  0.0248
 9387SOL     OW31562   8.100   9.692   8.235 -0.0958 -0.1911  0.6246
 9387SOL    HW131563   8.190   9.662   8.225 -0.6905 -2.1493  0.5488
 9387SOL    HW231564   8.065   9.638   8.306 -1.2775  0.3492  0.4739
 9388SOL     OW31565   6.969   2.472   0.078 -0.1276 -0.6999  0.0364
 9388SOL    HW131566   6.987   2.503   0.166 -1.5781 -1.0201  0.4696
 9388SOL    HW231567   7.000   2.542   0.021 -0.1617 -0.0143  0.8430
 9389SOL     OW31568   3.461   5.933   2.166 -0.3271 -0.0215 -0.4645
 9389SOL    HW131569   3.478   5.992   2.240 -1.5080 -0.4266  0.1427
 9389SOL    HW231570   3.535   5.872   2.167 -0.1435  0.2050  0.1621
 9390SOL     OW31571  10.416   8.848   2.998 -0.7628  0.5436  0.1167
 9390SOL    HW131572  10.436   8.821   3.088  2.6041  0.2171 -0.6105
 9390SOL    HW231573  10.399   8.942   3.004  0.2082  0.6832  1.0355
 9391SOL     OW31574   0.417   7.473  10.683  0.0313  0.2860  0.0248
 9391SOL    HW131575   0.463   7.403  10.728 -0.5310  0.2079  0.4896
 9391SOL    HW231576   0.486   7.533  10.655  0.3742  0.4912  1.2572
 9392SOL     OW31577  10.509   8.141   2.605 -0.1397 -0.2995  0.3531
 9392SOL    HW131578  10.568   8.213   2.584 -1.2026  0.1733 -1.2181
 9392SOL    HW231579  10.521   8.078   2.534 -1.4237 -0.2277  0.0456
 9393SOL     OW31580   5.800   2.917  10.296  0.6001 -0.2411 -0.1410
 9393SOL    HW131581   5.812   2.952  10.385  0.8786  0.9067 -0.6195
 9393SOL    HW231582   5.854   2.837  10.295 -0.2027 -0.8364  1.0262
 9394SOL     OW31583   3.226   7.379   4.743 -0.3920 -0.2235 -0.1391
 9394SOL    HW131584   3.243   7.324   4.819 -1.2736 -0.1649  0.1156
 9394SOL    HW231585   3.302   7.366   4.686  0.3397 -0.1596  0.8010
 9395SOL     OW31586   3.150   6.098   9.349 -0.0273  0.1984  0.5574
 9395SOL    HW131587   3.066   6.105   9.394 -1.6458  0.6547 -2.2594
 9395SOL    HW231588   3.135   6.140   9.264  1.8507 -3.1258 -1.6509
 9396SOL     OW31589   1.756   5.459  10.223 -0.0265  0.3899 -0.2840
 9396SOL    HW131590   1.833   5.471  10.167  0.5763  0.1745  0.4729
 9396SOL    HW231591   1.736   5.547  10.255  0.4569  0.3248  0.2129
 9397SOL     OW31592   6.187   4.209   2.442  0.1950  0.2429  0.2305
 9397SOL    HW131593   6.211   4.259   2.520  0.9896 -1.8579  1.3959
 9397SOL    HW231594   6.263   4.217   2.384  1.2342 -1.3024  1.3149
 9398SOL     OW31595   1.778   6.233   9.448 -0.6535  0.0990  0.0332
 9398SOL    HW131596   1.707   6.233   9.511 -1.7126 -0.2939 -1.1191
 9398SOL    HW231597   1.834   6.159   9.475  0.7465  1.8734  2.3991
 9399SOL     OW31598   3.152   7.326   7.048  0.6899  0.0805 -0.5176
 9399SOL    HW131599   3.191   7.248   7.086  0.0268 -0.3230 -0.6373
 9399SOL    HW231600   3.225   7.376   7.013  1.3052  0.3766  1.1056
 9400SOL     OW31601   1.664   9.983   2.400 -0.1374  0.1665  0.3148
 9400SOL    HW131602   1.683  10.036   2.322  0.1921 -0.1942  0.1425
 9400SOL    HW231603   1.687   9.893   2.374  0.9430  0.1814  1.1400
 9401SOL     OW31604   7.993   1.912   0.463 -0.4623  0.2267  0.1025
 9401SOL    HW131605   7.947   1.996   0.463 -1.2166 -0.1830  0.1744
 9401SOL    HW231606   7.926   1.847   0.441  0.0761 -0.3815  0.2169
 9402SOL     OW31607   5.874   1.470   5.150 -0.0173 -0.1359  0.0427
 9402SOL    HW131608   5.968   1.476   5.163  0.3446 -0.0342 -2.2484
 9402SOL    HW231609   5.844   1.411   5.219  1.3478  1.4709  2.1553
 9403SOL     OW31610   2.569   5.696   7.569 -0.0445 -0.2222  0.3550
 9403SOL    HW131611   2.520   5.776   7.586  1.4677  0.7235  0.3468
 9403SOL    HW231612   2.510   5.644   7.514 -0.3436  1.6898 -1.2648
 9404SOL     OW31613   0.409   2.317   9.494  0.5266  0.1400 -0.0019
 9404SOL    HW131614   0.473   2.378   9.458  0.5590  1.0020  1.4574
 9404SOL    HW231615   0.366   2.279   9.416  0.1600  2.3776 -0.9662
 9405SOL     OW31616   0.630   5.768   6.624 -0.4418  0.0877 -0.4358
 9405SOL    HW131617   0.681   5.698   6.663 -0.3487  0.5634  0.3150
 9405SOL    HW231618   0.602   5.734   6.539  0.9702 -0.2469 -0.7813
 9406SOL     OW31619   4.958   1.089   6.099  0.1062 -0.7335  0.0609
 9406SOL    HW131620   4.990   1.051   6.017  0.9033 -0.6126  0.3140
 9406SOL    HW231621   4.996   1.034   6.167  0.1288 -0.3205  0.3810
 9407SOL     OW31622   2.156   4.294   1.198  0.4278 -0.1600 -0.6492
 9407SOL    HW131623   2.136   4.217   1.144 -0.5634 -1.1223  1.0027
 9407SOL    HW231624   2.081   4.352   1.185 -0.5873 -1.0830  0.8414
 9408SOL     OW31625   0.007   8.181   7.605  0.0101  0.7336  0.2621
 9408SOL    HW131626   0.055   8.125   7.666 -0.8176 -0.5988 -0.2431
 9408SOL    HW231627   0.040   8.269   7.621  0.5371  0.2715  1.9057
 9409SOL     OW31628   0.014   9.254   3.923  0.3623  0.3031  0.1244
 9409SOL    HW131629   0.063   9.308   3.985 -0.3432  1.0812  0.0224
 9409SOL    HW231630  -0.014   9.316   3.855 -0.6874 -0.1376  0.1472
 9410SOL     OW31631   9.887   1.527   0.158  0.0328  0.3613  0.1718
 9410SOL    HW131632   9.812   1.541   0.100 -1.3041 -1.5377  1.3164
 9410SOL    HW231633   9.881   1.434   0.182  0.6616  0.9799  3.1053
 9411SOL     OW31634   0.356   4.881  10.015  0.3439 -0.0728 -0.0060
 9411SOL    HW131635   0.386   4.958   9.967 -2.2497  0.8602 -0.2747
 9411SOL    HW231636   0.429   4.858  10.072  1.7555  1.6262 -1.0462
 9412SOL     OW31637   4.345   4.928   4.706 -0.0458  0.7283  0.8134
 9412SOL    HW131638   4.323   4.835   4.720  0.1737  0.3780 -0.9782
 9412SOL    HW231639   4.260   4.970   4.694 -0.0714  0.4446 -0.0611
 9413SOL     OW31640   2.591   1.319   6.491  0.5452 -0.2662 -0.0080
 9413SOL    HW131641   2.584   1.305   6.585  2.1279  0.8146  0.3102
 9413SOL    HW231642   2.640   1.243   6.459  2.6876  0.7904  0.5663
 9414SOL     OW31643   5.746   0.054   0.380 -0.1876  0.5237  0.5931
 9414SOL    HW131644   5.755   0.003   0.299  1.9739  0.8558  0.5518
 9414SOL    HW231645   5.659   0.092   0.375 -0.3908 -0.0776 -1.2254
 9415SOL     OW31646   3.757   7.284   9.357  0.1809 -0.7786  0.3825
 9415SOL    HW131647   3.670   7.290   9.318  0.7201  0.5109 -0.6785
 9415SOL    HW231648   3.789   7.197   9.330 -0.7107 -1.2183  0.6942
 9416SOL     OW31649   6.214   4.765   9.674  0.7031 -0.5415 -0.3944
 9416SOL    HW131650   6.217   4.793   9.583 -0.2433 -1.7650 -0.8138
 9416SOL    HW231651   6.213   4.847   9.724  0.9941  0.1388 -1.4833
 9417SOL     OW31652   4.262   1.260   0.176 -0.1771  0.1259  0.0421
 9417SOL    HW131653   4.310   1.193   0.128 -0.2006  0.9942 -1.2543
 9417SOL    HW231654   4.170   1.238   0.163 -0.1758  0.1733 -0.0548
 9418SOL     OW31655   3.100   2.374   5.087  0.0298  0.5884  0.5834
 9418SOL    HW131656   3.012   2.411   5.097  0.0267  0.7271  0.0715
 9418SOL    HW231657   3.109   2.313   5.160 -0.4079  0.7402  0.7664
 9419SOL     OW31658   4.068   5.215   2.179 -0.4377  0.5393 -0.1232
 9419SOL    HW131659   4.058   5.201   2.273  1.0200 -1.0858 -0.1602
 9419SOL    HW231660   4.062   5.127   2.141  0.3702  1.0094 -1.3978
 9420SOL     OW31661   0.051   6.695   1.262 -0.3438  0.3545 -0.2852
 9420SOL    HW131662  -0.014   6.760   1.235 -1.0733 -0.7853 -1.4068
 9420SOL    HW231663   0.066   6.643   1.183 -0.7507 -1.6530  0.8973
 9421SOL     OW31664   2.946   6.974   5.880 -0.8393  0.0207  0.0711
 9421SOL    HW131665   2.984   6.892   5.911 -1.0711 -0.1681 -0.1372
 9421SOL    HW231666   2.856   6.951   5.855 -1.0831  0.4580  0.5386
 9422SOL     OW31667   4.697   8.584   8.816 -0.1801  0.2968 -0.5252
 9422SOL    HW131668   4.743   8.590   8.900 -0.8496 -1.1802 -0.0117
 9422SOL    HW231669   4.721   8.664   8.769 -0.4204  1.5286  1.3682
 9423SOL     OW31670   2.984   1.111   5.721  0.1015  0.1032 -0.7716
 9423SOL    HW131671   3.060   1.079   5.769 -0.1509  0.5117 -0.0828
 9423SOL    HW231672   2.924   1.036   5.719 -0.1140  0.2429  0.0436
 9424SOL     OW31673   4.145  10.465  10.601 -0.7661  0.8219 -0.1139
 9424SOL    HW131674   4.114  10.494  10.516  1.1546  1.6789 -0.5657
 9424SOL    HW231675   4.166  10.545  10.649 -0.1246  0.3178  0.4834
 9425SOL     OW31676   5.775   8.303   0.367 -0.0382 -0.4624 -0.2082
 9425SOL    HW131677   5.685   8.313   0.399  0.3715  0.3504  0.7401
 9425SOL    HW231678   5.773   8.343   0.280 -0.4697  0.1015  0.0477
 9426SOL     OW31679   9.968   9.727   0.225  0.7430 -0.0611  0.1299
 9426SOL    HW131680   9.931   9.695   0.307 -0.7865  0.8626 -0.1637
 9426SOL    HW231681   9.939   9.664   0.159 -0.1953  0.5748 -0.0757
 9427SOL     OW31682   1.907   2.403   5.258  0.3184 -0.2161  0.0571
 9427SOL    HW131683   1.928   2.309   5.253 -0.7411 -0.4569 -0.1127
 9427SOL    HW231684   1.973   2.445   5.203  1.4596 -0.7387  0.9793
 9428SOL     OW31685   8.981   9.045   5.315  0.1599  0.1930 -0.9785
 9428SOL    HW131686   9.059   9.095   5.339 -0.0145 -0.0500  0.1360
 9428SOL    HW231687   8.924   9.050   5.391 -0.4988 -0.4668 -1.4070
 9429SOL     OW31688   8.978   4.679   7.605  0.1104 -0.6431 -0.2717
 9429SOL    HW131689   9.004   4.666   7.514  0.4001 -0.4513 -0.2211
 9429SOL    HW231690   8.979   4.592   7.643  0.4713 -0.6661 -0.3302
 9430SOL     OW31691   3.401   4.631  10.832 -0.2049  0.1073  0.2503
 9430SOL    HW131692   3.346   4.607  10.757 -0.7588 -0.9426  0.9599
 9430SOL    HW231693   3.409   4.726  10.826  0.5546 -0.0364 -1.6635
 9431SOL     OW31694   3.244   6.256   6.598  0.4704  1.2878  0.0423
 9431SOL    HW131695   3.189   6.225   6.526  3.0530  1.8786 -2.3439
 9431SOL    HW231696   3.213   6.345   6.615 -0.8053  0.8027  0.3988
 9432SOL     OW31697   5.995   1.417   1.168 -0.4996  0.4171  0.1075
 9432SOL    HW131698   6.048   1.436   1.245 -0.9700  1.7337  0.1337
 9432SOL    HW231699   6.041   1.461   1.096 -0.3568 -0.3459 -0.2782
 9433SOL     OW31700  10.599   3.849   4.816  0.0529  0.3266 -0.0487
 9433SOL    HW131701  10.618   3.942   4.818  2.4125 -0.1036  0.6932
 9433SOL    HW231702  10.504   3.844   4.800 -0.2615  2.8322  0.6250
 9434SOL     OW31703   8.339  10.691   7.177 -0.4785  0.4837  0.2916
 9434SOL    HW131704   8.316  10.726   7.264 -0.4710 -0.9264  0.8913
 9434SOL    HW231705   8.399  10.755   7.140  0.3887  0.5703  1.7914
 9435SOL     OW31706   4.021   4.461   0.874 -0.1627 -0.1435 -0.1109
 9435SOL    HW131707   3.961   4.434   0.804 -3.4074  1.5920  1.7885
 9435SOL    HW231708   4.048   4.549   0.849  0.6189 -0.4349 -0.3205
 9436SOL     OW31709   8.765   8.478   0.406  0.1685 -0.4338 -0.1232
 9436SOL    HW131710   8.740   8.386   0.410  0.3170 -0.5856 -1.7342
 9436SOL    HW231711   8.713   8.521   0.473 -2.9341 -1.0744 -1.9272
 9437SOL     OW31712   7.544   8.868   9.396  0.1550 -0.0932 -0.0369
 9437SOL    HW131713   7.504   8.807   9.333  0.0606  1.0335 -1.1152
 9437SOL    HW231714   7.546   8.952   9.350  0.6670  0.6365  1.2563
 9438SOL     OW31715   3.066  10.806   8.061  0.0994  0.1790  0.1243
 9438SOL    HW131716   2.977  10.783   8.034  0.2655  0.6437 -0.8553
 9438SOL    HW231717   3.110  10.722   8.074 -0.0680 -0.0625 -0.8081
 9439SOL     OW31718   7.315   5.996   1.324  0.3520  0.2655 -0.5767
 9439SOL    HW131719   7.324   6.046   1.243  1.4411  1.6933  0.3618
 9439SOL    HW231720   7.226   6.014   1.354  1.0061  2.5158  0.2270
 9440SOL     OW31721   2.160   1.482   4.008 -0.3726 -0.1570 -0.3133
 9440SOL    HW131722   2.163   1.491   3.913 -0.3128 -0.9150 -0.3930
 9440SOL    HW231723   2.131   1.392   4.022  0.4816 -0.3309  0.3788
 9441SOL     OW31724   6.840  10.324   2.577  0.4375  0.1502  0.1741
 9441SOL    HW131725   6.770  10.389   2.575  0.1741 -0.1186  0.6027
 9441SOL    HW231726   6.798  10.244   2.606  0.3844 -0.6881 -2.0284
 9442SOL     OW31727   4.437   0.837   0.262  0.2283  0.0989 -0.5760
 9442SOL    HW131728   4.520   0.814   0.304  0.5386 -0.4279 -1.4544
 9442SOL    HW231729   4.385   0.757   0.265 -0.2289  0.4112 -0.0828
 9443SOL     OW31730   5.458   5.366   4.258 -0.0517 -0.1733 -0.2519
 9443SOL    HW131731   5.422   5.453   4.274 -0.1063 -0.3438  0.5749
 9443SOL    HW231732   5.403   5.307   4.309  0.3158 -0.6367 -0.3811
 9444SOL     OW31733   6.377   1.997   2.902 -0.0579  0.2860 -0.9435
 9444SOL    HW131734   6.426   1.944   2.965  0.4296  0.1731 -1.4150
 9444SOL    HW231735   6.444   2.046   2.854 -0.5252  2.4920  0.4762
 9445SOL     OW31736   1.155   8.274   2.937  0.5068  0.4064  0.3632
 9445SOL    HW131737   1.220   8.268   3.007 -0.3020 -0.7804  1.0521
 9445SOL    HW231738   1.150   8.185   2.902 -1.4462  0.2228  1.0044
 9446SOL     OW31739   4.059   2.317   0.427 -0.1519 -0.1815 -0.1878
 9446SOL    HW131740   3.974   2.307   0.468  0.3842  1.6723  1.5846
 9446SOL    HW231741   4.052   2.398   0.376  0.2587 -0.5237 -0.7983
 9447SOL     OW31742   1.831  10.915   4.083  0.5041 -0.0031  0.5835
 9447SOL    HW131743   1.904  10.938   4.141  1.0402  0.8404 -0.3758
 9447SOL    HW231744   1.781  10.996   4.074 -0.5210 -0.5564  1.1653
 9448SOL     OW31745   8.103   6.021   5.528 -0.3922 -0.2098 -0.4622
 9448SOL    HW131746   8.056   5.968   5.463 -0.8894  1.3777 -1.4395
 9448SOL    HW231747   8.055   6.104   5.531  2.1651  1.4189 -1.3702
 9449SOL     OW31748   9.293   5.764   7.094 -0.2610 -0.0143 -0.0191
 9449SOL    HW131749   9.245   5.846   7.103 -0.1804  0.4027 -2.5215
 9449SOL    HW231750   9.225   5.698   7.078 -0.1981  0.4232 -2.6290
 9450SOL     OW31751   9.450   9.192  10.419 -0.4098 -0.2301 -0.5045
 9450SOL    HW131752   9.452   9.244  10.499  2.2335  0.4267 -0.9030
 9450SOL    HW231753   9.542   9.178  10.397 -1.0538 -0.9004 -3.1027
 9451SOL     OW31754   8.425   1.962   6.995  0.0698  0.3762 -0.3495
 9451SOL    HW131755   8.430   1.881   6.945 -1.1664  0.9631 -1.5174
 9451SOL    HW231756   8.419   1.934   7.086 -3.4053 -1.0655 -0.8573
 9452SOL     OW31757   6.028   4.075   9.481  0.5519  0.5559 -0.0866
 9452SOL    HW131758   6.013   4.167   9.500 -2.4872 -0.2056  1.8482
 9452SOL    HW231759   5.951   4.047   9.432  0.7180 -1.2733  0.6263
 9453SOL     OW31760   1.206   4.408   9.788 -0.5483 -0.0718 -0.1603
 9453SOL    HW131761   1.268   4.415   9.861 -0.5031  0.6152 -0.2574
 9453SOL    HW231762   1.259   4.425   9.710 -0.4407 -1.5591 -0.4297
 9454SOL     OW31763   6.856   2.885   7.707  0.1770 -0.0921 -0.0391
 9454SOL    HW131764   6.888   2.818   7.646  0.8824  0.3008 -0.1110
 9454SOL    HW231765   6.917   2.957   7.697  1.1690 -0.5491  2.1860
 9455SOL     OW31766  10.060   2.883   8.276  0.2122  0.2058 -0.7767
 9455SOL    HW131767  10.072   2.792   8.303 -0.0577  0.5954  0.7569
 9455SOL    HW231768   9.978   2.882   8.226  0.8053 -0.5647 -1.7746
 9456SOL     OW31769   8.674   2.176   9.104  0.0700  0.6160 -0.0147
 9456SOL    HW131770   8.713   2.254   9.143 -0.7276  1.0555 -0.0700
 9456SOL    HW231771   8.718   2.166   9.020  1.3380  0.0400  0.6980
 9457SOL     OW31772   9.548   0.070   3.838 -0.1695 -0.3457  0.3863
 9457SOL    HW131773   9.627   0.070   3.783  0.7767 -2.1094  1.6706
 9457SOL    HW231774   9.510  -0.017   3.825 -1.4222  0.1687  0.4890
 9458SOL     OW31775   5.678   4.430  10.029 -0.5282  0.7701  0.0678
 9458SOL    HW131776   5.593   4.442   9.986 -0.2967 -0.6649 -0.8684
 9458SOL    HW231777   5.663   4.364  10.095 -0.5290  1.8596  1.1879
 9459SOL     OW31778   3.369   0.537   5.823  0.0098  0.4617 -0.4144
 9459SOL    HW131779   3.370   0.584   5.906  0.5624  1.8512 -1.1714
 9459SOL    HW231780   3.414   0.454   5.842 -0.4783  0.4562  0.8152
 9460SOL     OW31781   4.843   7.353   5.074  0.3933  0.3852  0.3847
 9460SOL    HW131782   4.800   7.371   5.158  2.6332 -0.0146  1.6956
 9460SOL    HW231783   4.798   7.275   5.040 -1.6278  1.5025  0.3588
 9461SOL     OW31784   0.741   3.529   6.150 -0.0340  0.1150  0.4148
 9461SOL    HW131785   0.812   3.497   6.206 -0.1227  0.3439  0.6591
 9461SOL    HW231786   0.780   3.537   6.064 -0.0586 -0.8475  0.3025
 9462SOL     OW31787   4.683   6.102   8.211 -1.1425 -0.2652 -0.4127
 9462SOL    HW131788   4.718   6.171   8.155 -0.9261  0.4607  0.6038
 9462SOL    HW231789   4.758   6.071   8.261 -1.1573 -1.5206 -1.1327
 9463SOL     OW31790   0.855   5.251  10.387 -0.6936  0.1701  0.2941
 9463SOL    HW131791   0.879   5.165  10.353 -0.3691  0.1459  0.5655
 9463SOL    HW231792   0.920   5.311  10.349  0.2039  0.0164  1.4969
 9464SOL     OW31793   0.482  10.156   9.571  0.2080  0.2286 -0.5821
 9464SOL    HW131794   0.422  10.191   9.506  0.8638 -0.7744 -1.7601
 9464SOL    HW231795   0.428  10.097   9.624 -0.3361  1.0908 -0.1331
 9465SOL     OW31796   5.208   2.508   9.136 -0.4187 -0.7309  0.0904
 9465SOL    HW131797   5.255   2.583   9.100 -0.7315 -0.2181  0.7339
 9465SOL    HW231798   5.277   2.453   9.175 -0.2014 -0.7353 -0.2981
 9466SOL     OW31799   6.970   7.192   4.773  0.2042  0.5888  0.4961
 9466SOL    HW131800   6.939   7.216   4.686  0.3292  0.7913  0.5075
 9466SOL    HW231801   6.995   7.099   4.764  0.2158  0.6087  0.3173
 9467SOL     OW31802   4.650   0.308  10.719  0.1966  0.4351 -0.0267
 9467SOL    HW131803   4.579   0.245  10.706  0.5539  0.0489 -0.1214
 9467SOL    HW231804   4.674   0.297  10.811  0.7163 -0.0563 -0.2156
 9468SOL     OW31805   9.901   1.165   6.941 -0.7950  0.9092  0.5647
 9468SOL    HW131806   9.909   1.071   6.954  0.6472  1.0108  0.4947
 9468SOL    HW231807   9.825   1.190   6.995 -0.1706 -0.0296  1.9448
 9469SOL     OW31808   4.962   3.663   6.153 -0.2415 -0.1120 -0.1152
 9469SOL    HW131809   4.879   3.627   6.186  0.2961 -0.5453  0.7912
 9469SOL    HW231810   4.994   3.596   6.093 -0.6876  0.1937 -0.7085
 9470SOL     OW31811   3.574  10.156   7.883  0.2562  0.1305  0.0320
 9470SOL    HW131812   3.488  10.165   7.843 -0.1042 -0.7017  0.5821
 9470SOL    HW231813   3.629  10.120   7.813  0.7745  2.7253 -1.0168
 9471SOL     OW31814   2.147   8.518  10.888  0.7410 -0.1488 -0.0625
 9471SOL    HW131815   2.140   8.450  10.820 -1.0503 -0.3332  0.2522
 9471SOL    HW231816   2.214   8.578  10.856 -0.7691  0.3329 -2.5092
 9472SOL     OW31817   1.215   6.092   4.098  0.7627 -0.2552 -0.0076
 9472SOL    HW131818   1.173   6.177   4.111 -0.3224 -0.9675  1.4361
 9472SOL    HW231819   1.186   6.064   4.012 -1.0836 -0.3348  0.6050
 9473SOL     OW31820  10.336   0.616   4.554  0.2449  0.2567 -0.3198
 9473SOL    HW131821  10.424   0.583   4.572 -0.4912 -1.1580  0.9233
 9473SOL    HW231822  10.281   0.538   4.551 -1.2814  1.2197  0.9019
 9474SOL     OW31823   4.708   0.669   9.350 -0.0790 -0.3489  0.8670
 9474SOL    HW131824   4.659   0.747   9.324  0.2936 -0.3474  0.1444
 9474SOL    HW231825   4.661   0.597   9.308  0.3733 -0.3735  0.3968
 9475SOL     OW31826   1.424   4.889   6.218  0.3565  0.4400 -0.0629
 9475SOL    HW131827   1.354   4.953   6.203  0.7119  1.5840  2.6453
 9475SOL    HW231828   1.482   4.931   6.281  1.6320 -1.8557  0.3904
 9476SOL     OW31829   1.928   7.277   9.031  0.2847 -0.0873 -0.3206
 9476SOL    HW131830   1.930   7.192   8.986 -1.6351  0.0003 -0.6874
 9476SOL    HW231831   1.995   7.270   9.098  0.6140 -1.6645 -0.7548
 9477SOL     OW31832   4.850   3.848   0.939  1.2092 -0.6342 -0.1236
 9477SOL    HW131833   4.865   3.837   0.846 -0.6557 -0.2481 -0.5183
 9477SOL    HW231834   4.853   3.942   0.954  1.9143 -0.7146  0.2992
 9478SOL     OW31835   9.727   6.580   8.456 -0.0412 -0.2626 -0.2042
 9478SOL    HW131836   9.704   6.498   8.499 -0.7974 -0.1604 -0.4004
 9478SOL    HW231837   9.682   6.576   8.372 -0.5152  0.5876  0.0053
 9479SOL     OW31838   7.257   2.267   2.212  0.4028 -0.4053  0.0279
 9479SOL    HW131839   7.324   2.200   2.224  1.2454  0.1877 -1.2231
 9479SOL    HW231840   7.209   2.239   2.134 -1.1646 -1.0903  1.1915
 9480SOL     OW31841   4.165   1.745   2.494  0.1440  0.0487 -0.0495
 9480SOL    HW131842   4.153   1.834   2.527 -1.1801 -0.3746  0.7156
 9480SOL    HW231843   4.169   1.691   2.573  1.6597 -0.5156 -0.4778
 9481SOL     OW31844   9.072   6.664   3.034 -0.2893  0.5597 -0.4579
 9481SOL    HW131845   9.058   6.729   2.965 -1.5735  1.4261  0.5557
 9481SOL    HW231846   9.031   6.584   3.001 -2.1746  1.3539 -0.1635
 9482SOL     OW31847   7.250   9.182   1.429 -0.2563  0.2147  0.0062
 9482SOL    HW131848   7.301   9.153   1.353 -1.6109 -1.1698 -0.4251
 9482SOL    HW231849   7.179   9.234   1.392 -0.2636  0.5277  0.4432
 9483SOL     OW31850   2.508  10.835   1.109  0.3104 -0.3252  0.3819
 9483SOL    HW131851   2.418  10.854   1.085  1.1577  2.6348 -0.8364
 9483SOL    HW231852   2.505  10.817   1.203 -1.2440  2.5581  0.9842
 9484SOL     OW31853   0.908  10.452   9.727 -0.3272  0.2786 -0.1542
 9484SOL    HW131854   0.870  10.537   9.746  0.8795  1.2640 -1.8901
 9484SOL    HW231855   0.834  10.398   9.699 -0.9940  0.9401  0.3015
 9485SOL     OW31856   7.035   1.408   5.647  0.0009 -0.8864  0.3598
 9485SOL    HW131857   7.126   1.381   5.631  0.4133  0.3933  0.4959
 9485SOL    HW231858   7.038   1.458   5.728 -0.5721  0.4281 -0.4047
 9486SOL     OW31859   1.045   1.247   8.069 -0.0659  0.4355  0.1231
 9486SOL    HW131860   1.122   1.191   8.080  0.4084  1.5409  3.3834
 9486SOL    HW231861   1.075   1.335   8.092 -2.2151  0.9446  1.2291
 9487SOL     OW31862   1.734   3.751   4.773  0.1480 -0.3426 -0.7769
 9487SOL    HW131863   1.793   3.818   4.807 -1.9435  0.6549  1.1908
 9487SOL    HW231864   1.687   3.719   4.851 -1.0994 -1.8768 -2.0813
 9488SOL     OW31865  10.539   2.332   6.131  0.5314  0.0361  0.3337
 9488SOL    HW131866  10.477   2.359   6.199  2.5065  0.0049  2.2526
 9488SOL    HW231867  10.489   2.271   6.076 -1.2912  0.4792  1.4110
 9489SOL     OW31868   4.856   5.589   7.787  0.3351 -0.4837 -0.1515
 9489SOL    HW131869   4.934   5.643   7.776  0.4313 -0.7498 -0.8236
 9489SOL    HW231870   4.867   5.517   7.725 -0.6347 -0.3082 -0.5519
 9490SOL     OW31871   4.400   0.052   1.143  0.2027  0.6338 -0.0994
 9490SOL    HW131872   4.313   0.020   1.120 -0.1943  2.0655 -0.6964
 9490SOL    HW231873   4.447   0.057   1.059  0.8101  0.0353  0.1943
 9491SOL     OW31874   6.177   8.837   9.769  0.1545  0.8072 -0.5437
 9491SOL    HW131875   6.262   8.858   9.731 -0.2047  1.1133 -1.1988
 9491SOL    HW231876   6.190   8.842   9.863  1.3137 -0.9144 -0.5701
 9492SOL     OW31877   0.542   5.732   0.734  0.0895  0.1436  0.2817
 9492SOL    HW131878   0.621   5.691   0.699 -0.3342 -1.2588  0.8839
 9492SOL    HW231879   0.574   5.792   0.802  0.6503 -0.2276  0.3535
 9493SOL     OW31880  10.000   5.768   8.195 -0.3396 -0.0093 -1.1474
 9493SOL    HW131881  10.076   5.779   8.137 -0.2330 -0.7366 -1.1541
 9493SOL    HW231882  10.008   5.678   8.227  0.1502  0.6683  0.7771
 9494SOL     OW31883   3.793   9.181   1.718  0.0452  0.1508  0.4628
 9494SOL    HW131884   3.832   9.135   1.644 -0.9852 -0.3143  0.1845
 9494SOL    HW231885   3.767   9.267   1.683  1.2845  0.6740  0.7890
 9495SOL     OW31886  10.711   3.935   9.273 -0.2958  0.2690 -0.2928
 9495SOL    HW131887  10.635   3.894   9.314 -0.6083  1.1531  0.0479
 9495SOL    HW231888  10.678   3.971   9.191 -0.2649  0.7225 -0.1083
 9496SOL     OW31889   0.950   7.049   2.122  0.8162  0.2642 -0.5291
 9496SOL    HW131890   0.941   6.997   2.202  1.4033  1.3630  0.2858
 9496SOL    HW231891   1.040   7.032   2.093  0.6421 -0.0408 -0.8980
 9497SOL     OW31892   9.909   8.373   3.156  0.4102 -0.4604 -0.5485
 9497SOL    HW131893   9.906   8.318   3.235  0.3021 -0.8213 -0.8009
 9497SOL    HW231894   9.859   8.451   3.179 -0.0167 -0.7715 -0.4140
 9498SOL     OW31895   8.863   0.013   5.411 -0.0295  0.2081 -0.5164
 9498SOL    HW131896   8.941   0.047   5.455 -0.4790  1.0648 -0.3499
 9498SOL    HW231897   8.890  -0.072   5.376  1.0975  0.6703 -0.8169
 9499SOL     OW31898   5.130   5.482   4.244 -0.1500 -0.3384 -0.9809
 9499SOL    HW131899   5.096   5.572   4.247  2.6149  0.8773 -2.4954
 9499SOL    HW231900   5.085   5.443   4.169 -0.2879  0.3143 -1.2535
 9500SOL     OW31901   3.006   8.890   6.807 -0.2367 -0.1357 -0.6897
 9500SOL    HW131902   3.023   8.842   6.888  0.2872  0.4082 -0.4652
 9500SOL    HW231903   3.070   8.961   6.808 -2.1591  1.6968 -0.0751
 9501SOL     OW31904   5.838   8.467  10.723 -0.0431  0.7145  0.2163
 9501SOL    HW131905   5.805   8.540  10.670  0.1363 -0.5222 -1.6761
 9501SOL    HW231906   5.930   8.460  10.701 -0.3269 -0.8569 -0.6020
 9502SOL     OW31907   0.027   4.208   3.783  0.8317 -0.0328  1.1139
 9502SOL    HW131908   0.077   4.263   3.722  1.9510 -2.2481 -0.0647
 9502SOL    HW231909  -0.060   4.201   3.744  1.1321 -0.3123  0.4878
 9503SOL     OW31910   3.206   3.693   8.930  0.6607  0.3446  0.1628
 9503SOL    HW131911   3.242   3.617   8.974 -0.8564 -0.4532  0.1070
 9503SOL    HW231912   3.116   3.699   8.962  0.0343  0.7350 -1.5528
 9504SOL     OW31913   8.768   8.521   5.674 -0.0380 -0.3159  0.2738
 9504SOL    HW131914   8.792   8.565   5.755 -0.5897  0.8547 -0.1652
 9504SOL    HW231915   8.683   8.560   5.650 -0.4450 -1.4825 -0.2493
 9505SOL     OW31916   0.840   1.371   7.135 -0.2466  0.5886 -0.0528
 9505SOL    HW131917   0.799   1.295   7.175 -1.6179  2.4709  2.4282
 9505SOL    HW231918   0.777   1.400   7.069 -1.0436  1.0847  0.8942
 9506SOL     OW31919   8.349  10.869   8.858 -0.4452  0.8346 -1.0120
 9506SOL    HW131920   8.324  10.955   8.888 -1.1243  1.0805 -2.2150
 9506SOL    HW231921   8.281  10.810   8.890  0.3326  0.6195  0.3252
 9507SOL     OW31922   1.446   4.157   4.761 -0.5041  0.1108 -0.3863
 9507SOL    HW131923   1.480   4.178   4.674 -3.4222  1.8139 -1.2643
 9507SOL    HW231924   1.454   4.062   4.768 -0.0666 -0.0519 -2.4621
 9508SOL     OW31925   2.096   4.301   7.302  0.3945  0.5068  0.2798
 9508SOL    HW131926   2.127   4.354   7.376  1.1669 -1.4045  1.4086
 9508SOL    HW231927   2.137   4.216   7.315 -0.6782 -0.3482 -1.5389
 9509SOL     OW31928   6.753   2.856   9.853 -0.1351  0.2825 -0.0767
 9509SOL    HW131929   6.682   2.907   9.891  0.4547 -0.3264  1.9742
 9509SOL    HW231930   6.812   2.921   9.816 -2.2094  0.7609 -2.8116
 9510SOL     OW31931   0.862   0.968   9.587  0.0042  0.1317 -0.0934
 9510SOL    HW131932   0.904   1.049   9.616 -0.9378  0.1554  1.3248
 9510SOL    HW231933   0.914   0.939   9.512  1.7383  0.8302  0.7843
 9511SOL     OW31934   7.342   3.784   8.880 -0.3755  0.0631 -0.7042
 9511SOL    HW131935   7.255   3.785   8.840 -0.2793  1.6628 -0.9391
 9511SOL    HW231936   7.366   3.876   8.886  0.4704 -0.2413  1.2070
 9512SOL     OW31937   5.178   9.942   1.313 -0.0313  0.3797 -0.2381
 9512SOL    HW131938   5.261   9.909   1.278 -0.3521  0.4857 -1.1215
 9512SOL    HW231939   5.156  10.017   1.258 -1.2611 -0.3084 -0.7180
 9513SOL     OW31940   5.343   7.656   3.569  1.0326 -0.4663 -0.2083
 9513SOL    HW131941   5.399   7.652   3.646  1.8142 -1.4410 -0.8121
 9513SOL    HW231942   5.401   7.638   3.495 -0.0750 -1.6467 -0.8453
 9514SOL     OW31943   9.804  10.758   6.101 -0.2638 -0.6302 -0.4812
 9514SOL    HW131944   9.785  10.799   6.186 -0.0231 -0.6617 -0.4120
 9514SOL    HW231945   9.721  10.717   6.075 -0.1669 -1.1720  0.0423
 9515SOL     OW31946   9.708   4.181  10.120  0.0908 -0.2742 -0.2565
 9515SOL    HW131947   9.700   4.269  10.154  0.8780 -0.2294 -0.1662
 9515SOL    HW231948   9.619   4.157  10.093 -0.1871  0.4057  0.0415
 9516SOL     OW31949   9.820   7.642   0.171  0.4087 -0.7150  0.6899
 9516SOL    HW131950   9.900   7.617   0.125  1.0172 -0.4271  1.5719
 9516SOL    HW231951   9.848   7.710   0.233 -0.3753 -1.1690  1.5623
 9517SOL     OW31952   8.346   0.049   3.300  0.1308 -0.0325  0.3897
 9517SOL    HW131953   8.373   0.018   3.387 -0.6028  0.7780  0.9281
 9517SOL    HW231954   8.269   0.104   3.317 -0.7894 -0.8562 -0.9160
 9518SOL     OW31955   0.258   2.087   8.578 -0.2757  0.1595  0.3179
 9518SOL    HW131956   0.221   2.063   8.663  0.8651  0.0399  0.7948
 9518SOL    HW231957   0.230   2.177   8.563  0.7785  0.7099  1.5417
 9519SOL     OW31958   4.874   6.843   8.130  0.2393 -0.6144  0.0331
 9519SOL    HW131959   4.921   6.759   8.127  0.9493 -0.2195 -0.1171
 9519SOL    HW231960   4.785   6.821   8.103  0.4233 -1.3187 -0.0341
 9520SOL     OW31961   6.040   3.200   4.039  0.4179 -0.1802  0.3734
 9520SOL    HW131962   6.063   3.248   3.960  2.0636 -1.2652  0.1535
 9520SOL    HW231963   6.058   3.262   4.110 -0.4522  0.5708 -0.0253
 9521SOL     OW31964  10.474   6.075   5.134  0.1272  0.0166  0.2132
 9521SOL    HW131965  10.414   6.146   5.110  1.0622  0.3658 -1.2496
 9521SOL    HW231966  10.520   6.055   5.052  1.4177 -0.7829  1.1080
 9522SOL     OW31967   3.786   7.966   0.088  0.1793 -0.6402 -0.1276
 9522SOL    HW131968   3.862   8.022   0.073 -0.3200  0.0927  0.0185
 9522SOL    HW231969   3.737   8.011   0.157 -1.3864 -0.0514 -1.5426
 9523SOL     OW31970   5.925   7.474   2.444 -0.0315  0.0543  0.4596
 9523SOL    HW131971   5.846   7.471   2.390 -1.0266 -2.0783  1.9070
 9523SOL    HW231972   5.983   7.410   2.404  1.3883  2.1037 -1.0227
 9524SOL     OW31973   5.369   0.696   9.920 -0.5232  0.0153 -0.9899
 9524SOL    HW131974   5.399   0.719  10.008 -0.9459 -1.3405 -0.4635
 9524SOL    HW231975   5.428   0.744   9.862 -0.1830  0.8771  0.0220
 9525SOL     OW31976   5.155   9.313   7.167  0.1479  0.5343  0.2431
 9525SOL    HW131977   5.191   9.399   7.185 -1.2017  0.7625  2.2845
 9525SOL    HW231978   5.061   9.328   7.158 -0.0930 -0.6842  0.5376
 9526SOL     OW31979   3.715   6.716   1.771  0.0820 -0.1798 -0.0005
 9526SOL    HW131980   3.734   6.728   1.864 -1.3743  0.0558  0.2967
 9526SOL    HW231981   3.750   6.630   1.750 -1.4116 -1.1736  1.3237
 9527SOL     OW31982   9.084   6.041   8.886 -0.2336  0.1406 -0.2388
 9527SOL    HW131983   9.063   6.101   8.958 -0.2362  0.1044 -0.2094
 9527SOL    HW231984   9.088   6.097   8.808  0.5704  0.3059 -0.0814
 9528SOL     OW31985   0.529   3.829   7.993 -0.0206  0.5666 -0.1524
 9528SOL    HW131986   0.622   3.808   7.982 -0.1772 -0.1621 -0.1106
 9528SOL    HW231987   0.528   3.923   8.012  0.8747  0.2376  1.8488
 9529SOL     OW31988   7.911   6.731   1.836 -0.5012  0.1457 -0.0413
 9529SOL    HW131989   7.827   6.731   1.881  0.2392 -0.1312  1.4086
 9529SOL    HW231990   7.892   6.765   1.749 -1.8739  1.3593  0.6899
 9530SOL     OW31991   7.474   3.682   5.206  0.2677  0.1755  0.0442
 9530SOL    HW131992   7.424   3.615   5.159  0.3963  0.0047  0.1494
 9530SOL    HW231993   7.429   3.690   5.290  0.0673  0.4448 -0.0879
 9531SOL     OW31994   8.590   0.256   4.228 -0.3430  0.0255 -0.1231
 9531SOL    HW131995   8.626   0.333   4.273 -0.8510  0.2212 -0.0539
 9531SOL    HW231996   8.507   0.286   4.191 -0.8933 -0.6803  0.5065
 9532SOL     OW31997   7.171  10.771   0.610 -0.1395 -0.8538 -0.7129
 9532SOL    HW131998   7.082  10.758   0.640 -0.2661  1.5492  0.1629
 9532SOL    HW231999   7.219  10.694   0.641 -1.1609 -0.4947  1.9452
 9533SOL     OW32000   4.503   6.183   2.317 -0.3054 -0.8006  0.3767
 9533SOL    HW132001   4.491   6.255   2.379 -0.3739 -0.2053 -0.3164
 9533SOL    HW232002   4.541   6.112   2.370 -0.2465 -0.2670  1.0677
 9534SOL     OW32003   4.352   1.557   2.121  0.2075  0.4210  0.2201
 9534SOL    HW132004   4.440   1.592   2.106  0.3836 -0.5210 -1.1074
 9534SOL    HW232005   4.301   1.590   2.047 -0.5588  0.9217  0.9595
 9535SOL     OW32006   5.906   3.662   9.236  0.0614 -0.4031 -0.6163
 9535SOL    HW132007   5.986   3.704   9.204  0.2682  0.0535  0.4463
 9535SOL    HW232008   5.910   3.573   9.201  0.4063 -0.0189 -1.5953
 9536SOL     OW32009   1.507   5.748   9.929  0.3406  0.1797  0.3817
 9536SOL    HW132010   1.482   5.666   9.971  0.7056 -0.1742 -0.0757
 9536SOL    HW232011   1.455   5.815   9.974  1.0108 -0.1284  1.6753
 9537SOL     OW32012   2.639   9.750   8.355 -0.2940  0.1771  0.6381
 9537SOL    HW132013   2.721   9.718   8.317 -1.2184 -0.2283 -1.1040
 9537SOL    HW232014   2.666   9.820   8.415  1.1905  1.5096 -1.4556
 9538SOL     OW32015   5.403   7.458   1.485 -0.3729 -0.2865  0.1966
 9538SOL    HW132016   5.366   7.539   1.451 -0.2244  0.5800  1.9616
 9538SOL    HW232017   5.457   7.424   1.414 -1.7627  0.2549 -1.1803
 9539SOL     OW32018   0.480   6.446   6.640  0.0001  0.3954  0.3659
 9539SOL    HW132019   0.538   6.517   6.670  1.4702 -0.6874  0.1929
 9539SOL    HW232020   0.480   6.454   6.545  1.3098 -0.6542  0.2504
 9540SOL     OW32021   8.757   0.429   5.602 -0.3290  0.3999 -0.4110
 9540SOL    HW132022   8.721   0.412   5.515  0.3163 -0.2404 -0.5623
 9540SOL    HW232023   8.741   0.348   5.651  0.3601  0.3247 -0.3005
 9541SOL     OW32024   4.518   2.864   1.770 -0.2651 -0.2142  0.1977
 9541SOL    HW132025   4.526   2.806   1.695  0.0209  0.1867 -0.0831
 9541SOL    HW232026   4.491   2.807   1.842 -0.0109 -0.6871 -0.0809
 9542SOL     OW32027   2.203   0.889   4.300  0.3607  0.3459  0.5331
 9542SOL    HW132028   2.164   0.877   4.214 -0.1053  1.0249  0.6441
 9542SOL    HW232029   2.289   0.846   4.293 -0.8399 -2.2827  0.6810
 9543SOL     OW32030   3.560   1.109   1.747  0.0910 -0.4060 -0.4820
 9543SOL    HW132031   3.633   1.151   1.701 -0.6259  0.4746 -0.8217
 9543SOL    HW232032   3.580   1.015   1.742  0.6840 -0.2429 -1.4594
 9544SOL     OW32033  10.548   0.903   6.205  0.1102  0.1872 -0.5111
 9544SOL    HW132034  10.541   0.966   6.277  0.9231  1.6646 -1.6930
 9544SOL    HW232035  10.628   0.854   6.224 -0.2902 -0.2249  0.1746
 9545SOL     OW32036   7.653   1.140   6.061  0.0242 -0.2874 -0.0710
 9545SOL    HW132037   7.706   1.107   5.989  1.1765 -1.0264  1.0751
 9545SOL    HW232038   7.716   1.163   6.130 -1.0861 -1.8678  1.6029
 9546SOL     OW32039   5.035   5.410   8.441 -0.0914  0.3865 -0.1147
 9546SOL    HW132040   5.043   5.505   8.429  3.5588  0.1773 -0.3468
 9546SOL    HW232041   5.044   5.374   8.353 -0.0497 -0.2355  0.1409
 9547SOL     OW32042   8.452   0.031   7.085 -0.0254 -0.1918 -0.1726
 9547SOL    HW132043   8.499   0.055   7.165  0.9380  0.7681 -0.9950
 9547SOL    HW232044   8.513   0.052   7.015 -0.9876 -0.7023 -1.1811
 9548SOL     OW32045   5.481   6.672   9.918  0.0362  0.5374  0.1594
 9548SOL    HW132046   5.574   6.648   9.916 -0.2309 -1.2022  3.0051
 9548SOL    HW232047   5.448   6.648   9.832  1.7592 -1.0422 -0.1322
 9549SOL     OW32048   3.324   5.265   1.641 -0.0703 -0.0612  0.5853
 9549SOL    HW132049   3.346   5.269   1.548  0.5411  0.8517  0.7558
 9549SOL    HW232050   3.398   5.307   1.685 -1.2711  1.3771  1.3381
 9550SOL     OW32051   3.465   6.589   9.681  0.0336  0.0989 -0.0321
 9550SOL    HW132052   3.543   6.563   9.633 -0.3091 -2.7048  0.7511
 9550SOL    HW232053   3.490   6.585   9.773 -0.4055  1.6107  0.1897
 9551SOL     OW32054   1.930   8.869   9.859 -0.4137 -0.2826  0.0939
 9551SOL    HW132055   1.981   8.793   9.831 -0.7022  0.3381 -2.3167
 9551SOL    HW232056   1.866   8.882   9.789 -0.1627  2.3647  0.2498
 9552SOL     OW32057   7.841  10.303   7.719  0.3025 -0.0743 -0.1364
 9552SOL    HW132058   7.787  10.357   7.661  1.3833 -0.6243 -1.7279
 9552SOL    HW232059   7.804  10.215   7.711 -0.8246  0.2006  1.6615
 9553SOL     OW32060   4.624   5.801   6.213 -0.2776 -0.1072  0.0137
 9553SOL    HW132061   4.663   5.715   6.227  2.9775  1.0279 -1.0970
 9553SOL    HW232062   4.530   5.788   6.226  0.3136 -3.2546  2.3358
 9554SOL     OW32063   8.960   9.062   2.963  0.7499 -0.2627 -0.2560
 9554SOL    HW132064   8.967   8.974   2.927  1.2009  0.1088 -1.1084
 9554SOL    HW232065   9.014   9.116   2.905 -0.2263  0.7300 -0.2786
 9555SOL     OW32066   8.145   1.149   6.452  0.7672 -0.2642  0.0264
 9555SOL    HW132067   8.082   1.209   6.493  0.7944  0.1102 -0.4637
 9555SOL    HW232068   8.197   1.205   6.394  0.1028 -0.9111 -1.2490
 9556SOL     OW32069   9.690   5.410   8.763 -0.8102 -0.2121 -0.1904
 9556SOL    HW132070   9.642   5.329   8.747  1.1164 -0.9515 -2.8478
 9556SOL    HW232071   9.775   5.381   8.798 -0.0281  0.6055 -1.3490
 9557SOL     OW32072   3.080   2.935   8.307  0.2206  0.5033  0.5496
 9557SOL    HW132073   3.042   2.849   8.322  0.2873  0.2709 -0.5512
 9557SOL    HW232074   3.170   2.926   8.338  1.2368 -0.8427 -2.3900
 9558SOL     OW32075   6.604   0.829   3.671 -0.1142  0.1174 -0.1511
 9558SOL    HW132076   6.631   0.920   3.687  2.1250 -0.6243  0.6442
 9558SOL    HW232077   6.599   0.822   3.576 -0.6690  1.1499 -0.2158
 9559SOL     OW32078   6.057   8.662   2.287 -0.0846  0.3531 -0.0305
 9559SOL    HW132079   6.023   8.676   2.199 -1.5827 -0.0657  0.4584
 9559SOL    HW232080   6.084   8.570   2.288  0.9257  0.6333 -0.3561
 9560SOL     OW32081   3.182   2.100   5.671  0.6152  0.2627  0.8495
 9560SOL    HW132082   3.244   2.155   5.624 -0.5337  1.6079  0.8621
 9560SOL    HW232083   3.197   2.012   5.636  0.6064  1.0214 -1.1973
 9561SOL     OW32084   2.092   8.535   8.289  0.3639 -0.1348 -0.0737
 9561SOL    HW132085   2.169   8.481   8.308 -0.2306 -2.3393 -3.2128
 9561SOL    HW232086   2.019   8.474   8.293 -0.5223  0.6832 -2.4781
 9562SOL     OW32087   4.215   9.398   9.600  0.8616 -0.0841 -0.3874
 9562SOL    HW132088   4.229   9.366   9.510  2.9794  0.6321 -0.3832
 9562SOL    HW232089   4.252   9.329   9.655  2.0568  0.6610 -0.2197
 9563SOL     OW32090   0.836   6.800   3.071  0.0790 -0.3726  0.7714
 9563SOL    HW132091   0.744   6.797   3.099  0.2641 -1.5297  1.2823
 9563SOL    HW232092   0.878   6.858   3.135 -0.7618  2.4398 -0.9960
 9564SOL     OW32093   2.872   1.773   9.623  0.3338  0.1301 -0.2017
 9564SOL    HW132094   2.904   1.792   9.535  0.6848  0.5553  0.0145
 9564SOL    HW232095   2.856   1.679   9.623  0.0468  0.1728 -0.8117
 9565SOL     OW32096   1.621   9.259   4.983  0.1758  0.8645  0.5572
 9565SOL    HW132097   1.679   9.185   4.967 -0.6632  0.2088  0.4781
 9565SOL    HW232098   1.533   9.224   4.971 -0.2310  1.9959  0.0195
 9566SOL     OW32099   7.542   8.306  10.873  0.3348  0.2410  0.0395
 9566SOL    HW132100   7.485   8.286  10.947  0.0888  0.9393  0.0451
 9566SOL    HW232101   7.496   8.375  10.825  0.7420  0.1677 -0.4713
 9567SOL     OW32102   1.236   5.302   3.386 -0.2253  0.6371 -0.0747
 9567SOL    HW132103   1.210   5.265   3.470  0.4607 -0.6775 -0.4151
 9567SOL    HW232104   1.196   5.246   3.320  0.4180  0.7848 -0.6140
 9568SOL     OW32105   8.310   5.621   5.824 -0.2832  0.3518  0.5056
 9568SOL    HW132106   8.382   5.572   5.862  0.2241  1.6259  1.2490
 9568SOL    HW232107   8.284   5.570   5.747 -0.3347 -1.4821  1.6734
 9569SOL     OW32108   1.252   0.204   4.550 -0.1480 -0.2667  0.3110
 9569SOL    HW132109   1.288   0.124   4.512 -1.4797 -0.6843 -0.1266
 9569SOL    HW232110   1.329   0.254   4.578  0.7326 -1.3652 -0.0715
 9570SOL     OW32111   1.566   2.451   2.399  0.4811  0.1519 -0.0199
 9570SOL    HW132112   1.508   2.527   2.397  1.1516  0.6575 -1.2106
 9570SOL    HW232113   1.632   2.473   2.466 -0.8215 -0.5624  1.5679
 9571SOL     OW32114   0.690   9.587   3.881  0.8532 -0.1392 -0.6621
 9571SOL    HW132115   0.734   9.526   3.823  0.0483 -0.0315 -1.4164
 9571SOL    HW232116   0.641   9.645   3.822  0.5555  0.3973  0.0955
 9572SOL     OW32117   0.016  10.787   5.095 -0.0077 -0.0480  0.1797
 9572SOL    HW132118  -0.050  10.756   5.032 -0.6807  0.7954  0.4507
 9572SOL    HW232119   0.070  10.710   5.112  0.4994 -0.1841 -1.7911
 9573SOL     OW32120   0.824   6.028   4.948  0.0025 -0.2403 -0.2980
 9573SOL    HW132121   0.818   6.026   4.853 -0.3116 -0.1378 -0.2808
 9573SOL    HW232122   0.745   5.983   4.978  0.1997 -0.4558 -0.0862
 9574SOL     OW32123  10.576  10.572   8.511 -0.6201 -0.3242  0.3454
 9574SOL    HW132124  10.590  10.538   8.423 -0.1678 -2.1435  1.0584
 9574SOL    HW232125  10.509  10.640   8.501  0.5130  0.5710 -1.5717
 9575SOL     OW32126   9.358   4.219   1.705 -0.3556 -0.0658 -0.1667
 9575SOL    HW132127   9.291   4.151   1.715 -0.2661 -0.2862 -1.0411
 9575SOL    HW232128   9.425   4.195   1.769  0.1825 -1.4408 -1.1874
 9576SOL     OW32129   4.547   2.050   3.829 -0.1597 -0.2233 -0.4777
 9576SOL    HW132130   4.544   1.956   3.817 -3.2226 -0.0598 -1.8111
 9576SOL    HW232131   4.607   2.081   3.761 -1.0554 -1.0568 -1.6786
 9577SOL     OW32132   5.447   5.799   9.259  0.2886 -0.0705  0.4480
 9577SOL    HW132133   5.471   5.876   9.312 -0.4674 -0.7336  1.8022
 9577SOL    HW232134   5.455   5.829   9.169  1.4481  1.1615  0.9195
 9578SOL     OW32135   4.717   8.714   1.458 -0.7507 -0.3535  0.0875
 9578SOL    HW132136   4.771   8.745   1.531 -1.7208 -0.2437  0.7848
 9578SOL    HW232137   4.652   8.657   1.499 -0.4373 -1.4553 -0.8843
 9579SOL     OW32138   9.958   5.390   9.404  0.2652  0.2980 -0.3908
 9579SOL    HW132139  10.050   5.380   9.431  0.5311  1.5723 -0.7320
 9579SOL    HW232140   9.959   5.468   9.348 -1.0909  0.5488 -0.0853
 9580SOL     OW32141   0.240  10.852   9.694 -0.5370 -0.3065  0.0484
 9580SOL    HW132142   0.168  10.826   9.637 -0.1252 -0.0090 -0.6209
 9580SOL    HW232143   0.242  10.948   9.687  0.1885 -0.3384 -0.2729
 9581SOL     OW32144   9.023   1.999   4.323  0.1546 -0.2442  0.6777
 9581SOL    HW132145   8.953   2.047   4.279  0.4481  0.3181  0.8086
 9581SOL    HW232146   9.053   2.058   4.392  0.8160 -0.4396  0.5665
 9582SOL     OW32147   2.510   3.234   1.335 -0.2331  0.1794  0.2630
 9582SOL    HW132148   2.486   3.168   1.400  0.0949  0.2330  0.4359
 9582SOL    HW232149   2.591   3.202   1.295  0.6614  1.1151  1.2679
 9583SOL     OW32150   2.608   3.513   2.729  0.0954  0.2223 -0.4804
 9583SOL    HW132151   2.682   3.573   2.715  0.0134  0.2921 -0.6184
 9583SOL    HW232152   2.629   3.436   2.676  0.8774 -0.4676  0.7746
 9584SOL     OW32153  10.545   1.442   2.396 -0.0053  0.2941  0.2827
 9584SOL    HW132154  10.496   1.382   2.340 -0.4096 -1.7472  2.6566
 9584SOL    HW232155  10.549   1.523   2.346 -2.3746 -0.6650 -1.6791
 9585SOL     OW32156   4.293   7.990   8.143 -0.0921  0.3443  0.3999
 9585SOL    HW132157   4.264   7.922   8.204 -0.0115  0.5324  0.6512
 9585SOL    HW232158   4.375   8.023   8.181  0.0410  0.3544  0.1072
 9586SOL     OW32159   0.435   4.756  10.302 -0.0100  0.1481  0.1382
 9586SOL    HW132160   0.462   4.680  10.249 -0.1448  1.1099 -1.3684
 9586SOL    HW232161   0.516   4.787  10.343  0.0489 -0.7763  0.7573
 9587SOL     OW32162   0.014   1.736   8.868 -0.1474 -0.2020  0.7773
 9587SOL    HW132163   0.033   1.701   8.781  0.1763 -0.2810  0.8776
 9587SOL    HW232164   0.073   1.688   8.926 -1.1503 -0.9575  1.1970
 9588SOL     OW32165   1.036   4.062   9.425  0.1052 -1.2158 -0.1936
 9588SOL    HW132166   1.116   4.113   9.414 -1.7276  1.8972 -0.5121
 9588SOL    HW232167   1.033   4.004   9.349  1.8748 -1.1593 -0.3298
 9589SOL     OW32168   8.974   0.423   2.161  0.4992  0.0220 -0.6939
 9589SOL    HW132169   9.059   0.413   2.117  1.7040  0.2115  1.4142
 9589SOL    HW232170   8.974   0.513   2.193  1.0574 -0.8604  2.1346
 9590SOL     OW32171   9.546   7.807   2.717 -0.3513 -0.6986  0.4807
 9590SOL    HW132172   9.638   7.825   2.695 -0.1568 -2.1406 -0.0095
 9590SOL    HW232173   9.499   7.884   2.686  0.6093 -0.2354  0.1031
 9591SOL     OW32174   9.096   5.986   0.313  0.6736  0.1026 -0.2392
 9591SOL    HW132175   9.056   5.934   0.244 -1.0882  1.1393 -0.0812
 9591SOL    HW232176   9.171   5.935   0.343 -0.6435 -2.0578 -0.4495
 9592SOL     OW32177   3.932   6.423   9.910 -0.7615  0.3495  0.5463
 9592SOL    HW132178   3.948   6.383   9.995 -0.6149  0.9091  0.7888
 9592SOL    HW232179   4.006   6.482   9.896 -2.1583  2.3969  1.3386
 9593SOL     OW32180   8.228   8.677   1.028  0.4515  0.3961  0.2259
 9593SOL    HW132181   8.198   8.612   1.093 -0.4424  0.1504 -0.4186
 9593SOL    HW232182   8.253   8.753   1.081 -0.1513  0.1579  0.8780
 9594SOL     OW32183   3.402  10.160   1.253 -0.5069  0.2497  0.1275
 9594SOL    HW132184   3.350  10.236   1.278 -1.0000 -0.1935  0.4726
 9594SOL    HW232185   3.369  10.089   1.308 -0.8130 -0.4784 -0.9710
 9595SOL     OW32186   7.936   0.800   0.468  0.1644  0.1923 -0.2714
 9595SOL    HW132187   7.986   0.757   0.538  0.3678  1.5434  0.4530
 9595SOL    HW232188   7.933   0.892   0.494 -1.0744  0.4675 -1.2816
 9596SOL     OW32189   7.921   0.993   5.483  0.3118 -0.1865 -0.2394
 9596SOL    HW132190   7.900   1.020   5.572 -0.8908 -1.5968 -0.0563
 9596SOL    HW232191   7.884   1.061   5.428  1.4935  0.9497  0.3296
 9597SOL     OW32192   4.895   8.318   7.491  0.7114  0.7045  0.3391
 9597SOL    HW132193   4.860   8.399   7.529  0.0258 -0.0535  1.3704
 9597SOL    HW232194   4.869   8.249   7.552  4.9812  0.1577  1.8930
 9598SOL     OW32195   3.871   9.796   3.116  0.0775 -0.4052  0.8436
 9598SOL    HW132196   3.931   9.869   3.135  0.6458 -0.8776  0.8893
 9598SOL    HW232197   3.924   9.717   3.131 -0.1124 -0.8186 -0.5883
 9599SOL     OW32198   2.582   6.652   0.875 -0.2691  0.3907 -0.1227
 9599SOL    HW132199   2.521   6.690   0.938  0.1540 -0.8100  1.0687
 9599SOL    HW232200   2.640   6.724   0.851 -1.5262  1.3028 -0.5261
 9600SOL     OW32201   8.751  10.352  10.460 -0.0846  0.1961 -0.3527
 9600SOL    HW132202   8.719  10.364  10.371 -1.1698 -2.5216 -0.4135
 9600SOL    HW232203   8.683  10.300  10.503  0.8713  0.6182  1.8017
 9601SOL     OW32204   0.565   7.734   2.491 -0.2500 -0.2772 -0.1402
 9601SOL    HW132205   0.588   7.820   2.529 -1.1674 -0.6890  1.4457
 9601SOL    HW232206   0.650   7.694   2.472  0.1902  1.2656 -1.6492
 9602SOL     OW32207   5.722   1.889   2.291 -0.1900 -0.9074  0.6525
 9602SOL    HW132208   5.721   1.896   2.195 -3.0231 -1.1970  0.5908
 9602SOL    HW232209   5.814   1.869   2.312  0.6136 -0.3616 -1.9287
 9603SOL     OW32210  10.870   1.207   4.856  0.0031  0.4869  0.0255
 9603SOL    HW132211  10.779   1.189   4.879  0.8504  0.3601  4.2735
 9603SOL    HW232212  10.869   1.296   4.822 -1.9803 -0.6943 -3.5512
 9604SOL     OW32213   0.846   3.421   0.040 -0.3905  0.2928  0.7487
 9604SOL    HW132214   0.782   3.370   0.090 -0.7181  0.6400  0.6862
 9604SOL    HW232215   0.795   3.462  -0.029  0.4960 -2.9287 -2.1036
 9605SOL     OW32216   3.388   0.887   9.842  0.1592  0.1487 -0.2027
 9605SOL    HW132217   3.406   0.957   9.906 -0.4315 -0.0949  0.2392
 9605SOL    HW232218   3.474   0.863   9.809  0.3271  1.4509 -0.7574
 9606SOL     OW32219   5.020   7.642   7.139 -0.0632 -0.0503 -0.0316
 9606SOL    HW132220   4.927   7.618   7.138 -0.0585 -0.2764  1.8346
 9606SOL    HW232221   5.058   7.593   7.065 -1.3351 -0.3016 -0.5424
 9607SOL     OW32222   6.602   1.898   5.203  0.4120 -0.0427  0.0137
 9607SOL    HW132223   6.603   1.962   5.132  1.9100  1.4130  1.2799
 9607SOL    HW232224   6.511   1.898   5.235  0.2580  0.9929 -0.4008
 9608SOL     OW32225  10.178   9.053   9.008  0.0029  0.0166  0.0074
 9608SOL    HW132226  10.252   9.056   8.947  0.9406  1.1869  1.1499
 9608SOL    HW232227  10.217   9.032   9.093 -1.0256  0.2580  0.5618
 9609SOL     OW32228   0.029   7.589  10.797  0.6925 -0.1992  0.0636
 9609SOL    HW132229  -0.006   7.513  10.751  0.0210  0.8090 -1.1488
 9609SOL    HW232230   0.079   7.635  10.730  1.1845  0.3732  0.8190
 9610SOL     OW32231   5.691   3.811  10.882  0.5509 -0.1809 -0.0288
 9610SOL    HW132232   5.638   3.745  10.837  1.6296 -0.9677 -0.1797
 9610SOL    HW232233   5.733   3.860  10.812  0.3068  0.2177  0.0987
 9611SOL     OW32234   4.194   3.761   9.885 -0.1994 -0.0447 -0.4172
 9611SOL    HW132235   4.273   3.713   9.910  0.3132  1.3032  0.6955
 9611SOL    HW232236   4.226   3.834   9.831 -0.9999 -1.1062 -2.4350
 9612SOL     OW32237   8.461   8.995   7.000 -0.6816 -0.2986  0.1072
 9612SOL    HW132238   8.495   8.909   6.975 -0.3277 -0.2750  0.4883
 9612SOL    HW232239   8.531   9.056   6.977 -0.3839 -0.2666  1.0215
 9613SOL     OW32240   0.929   2.314  10.690  0.4250 -0.3344 -0.0106
 9613SOL    HW132241   0.885   2.344  10.610 -2.3611 -1.5790  0.9352
 9613SOL    HW232242   0.900   2.375  10.757  2.1434  0.2439  0.2480
 9614SOL     OW32243   8.855  10.008   3.139 -0.1799 -0.2476  0.0177
 9614SOL    HW132244   8.793  10.078   3.118  0.3768 -0.2955 -1.9674
 9614SOL    HW232245   8.927  10.052   3.183  0.0765  0.4215 -1.0335
 9615SOL     OW32246   2.694   8.388   8.880 -0.2400 -0.0996 -0.3636
 9615SOL    HW132247   2.605   8.396   8.913 -0.7072  0.8502 -1.7436
 9615SOL    HW232248   2.726   8.305   8.914 -1.4208 -0.1506  0.6700
 9616SOL     OW32249   8.476   5.948   7.563 -0.6525 -0.0289 -0.1198
 9616SOL    HW132250   8.456   6.037   7.535  1.5319 -0.2732 -2.7958
 9616SOL    HW232251   8.554   5.923   7.514 -0.5384 -3.0677  1.3364
 9617SOL     OW32252   8.990   6.616   5.890  0.1652 -0.0976  0.3689
 9617SOL    HW132253   8.908   6.637   5.846  0.7513  1.7329  0.0356
 9617SOL    HW232254   9.037   6.559   5.829 -1.5456 -2.7150  1.3350
 9618SOL     OW32255   4.259  10.215   2.768  0.3771  0.0180 -0.4165
 9618SOL    HW132256   4.173  10.200   2.729  0.1401  1.3608 -0.4626
 9618SOL    HW232257   4.240  10.249   2.855  0.8698  0.0942 -0.3369
 9619SOL     OW32258   0.748  10.104   3.031  0.0100  0.1503 -0.4346
 9619SOL    HW132259   0.747  10.108   3.127 -1.9644  0.0320 -0.3976
 9619SOL    HW232260   0.677  10.044   3.009  0.4166  0.1958 -1.9825
 9620SOL     OW32261   6.959   4.053   0.627  0.6958 -0.0796  0.2208
 9620SOL    HW132262   6.900   4.124   0.648  0.6510  0.2150 -0.8456
 9620SOL    HW232263   6.933   3.982   0.685 -1.0183 -0.1187 -0.5245
 9621SOL     OW32264   9.347   7.009   7.341  0.5475 -0.4316  0.0260
 9621SOL    HW132265   9.390   7.027   7.257 -0.2004 -0.4190 -0.3599
 9621SOL    HW232266   9.361   7.089   7.391 -0.8135  0.4057 -0.8673
 9622SOL     OW32267   6.887   6.034   9.843 -0.2949  0.3464 -0.1407
 9622SOL    HW132268   6.928   6.072   9.921 -0.4950 -0.8215  0.5470
 9622SOL    HW232269   6.946   6.058   9.772  0.2507  0.8509  0.4555
 9623SOL     OW32270   3.749   0.272   4.315  0.2772 -0.2639 -0.2665
 9623SOL    HW132271   3.840   0.264   4.286  0.0672 -0.1331 -0.9773
 9623SOL    HW232272   3.744   0.358   4.356  0.6494 -0.5674  0.4317
 9624SOL     OW32273   0.149   1.033   9.150  0.1259  0.5155 -0.3206
 9624SOL    HW132274   0.117   1.022   9.060  0.5268  1.5825 -0.6182
 9624SOL    HW232275   0.186   0.948   9.173 -0.6580  0.0070 -0.8877
 9625SOL     OW32276   3.954   0.263   8.179  0.0973 -0.0396  0.0197
 9625SOL    HW132277   3.888   0.245   8.246 -0.5457 -0.2148 -0.6470
 9625SOL    HW232278   4.037   0.261   8.226 -0.3899  0.4867  0.9321
 9626SOL     OW32279   0.775   5.650   5.307  0.1735  0.4260 -0.1048
 9626SOL    HW132280   0.743   5.722   5.253  0.3211  0.6933  0.1618
 9626SOL    HW232281   0.816   5.692   5.382 -0.1941  0.0510  0.3100
 9627SOL     OW32282   4.981   9.417  10.021 -0.3683 -0.6427  0.4725
 9627SOL    HW132283   4.961   9.487  10.084  0.1136 -1.4864  1.5976
 9627SOL    HW232284   5.077   9.413  10.021 -0.2844  0.2191 -1.3365
 9628SOL     OW32285   6.330   5.606   4.046  0.1624 -0.0781  0.5605
 9628SOL    HW132286   6.344   5.699   4.061  1.1960  0.2821 -2.1553
 9628SOL    HW232287   6.235   5.594   4.055 -0.3138  1.7552 -1.3253
 9629SOL     OW32288   3.116   3.662   3.996 -0.1335 -0.4106  0.0570
 9629SOL    HW132289   3.112   3.621   4.082 -0.7195 -1.9463 -0.6647
 9629SOL    HW232290   3.080   3.750   4.009 -0.4460 -0.7152  1.3297
 9630SOL     OW32291   2.172   6.050   2.824  0.0023 -0.0266  0.1969
 9630SOL    HW132292   2.077   6.060   2.831  0.1165  1.4126 -0.0374
 9630SOL    HW232293   2.197   6.001   2.903 -0.6308  1.9009  1.6648
 9631SOL     OW32294   3.062   2.581   3.829  0.0260 -1.1811 -0.2648
 9631SOL    HW132295   3.060   2.672   3.857  0.2037 -1.7542  1.7294
 9631SOL    HW232296   3.141   2.575   3.775 -0.7194  0.1187 -1.5904
 9632SOL     OW32297   4.986   2.454   1.541 -0.2906 -0.6425  0.0464
 9632SOL    HW132298   5.072   2.415   1.556  0.1242  0.0489 -0.5247
 9632SOL    HW232299   4.929   2.408   1.603  0.4879 -1.0696  0.4690
 9633SOL     OW32300   8.941   4.935   9.857  0.1018 -0.0147  0.8914
 9633SOL    HW132301   8.947   4.869   9.926 -0.8485  0.0760  1.0726
 9633SOL    HW232302   8.902   5.011   9.900  1.7061  0.8962  0.8352
 9634SOL     OW32303   3.302  10.586   2.866  0.3156  0.2683 -0.0796
 9634SOL    HW132304   3.392  10.561   2.888  0.5388  0.3023 -0.9089
 9634SOL    HW232305   3.285  10.663   2.919  1.0941  0.7769 -0.5453
 9635SOL     OW32306   6.717   5.632   0.652  0.1587  0.1589 -0.6891
 9635SOL    HW132307   6.749   5.542   0.646 -1.1548 -0.3047 -1.1852
 9635SOL    HW232308   6.637   5.626   0.705  0.3863  1.1337 -0.2096
 9636SOL     OW32309   0.560   1.997   7.471  0.3250 -0.2796 -0.1875
 9636SOL    HW132310   0.541   2.025   7.561  1.5094  0.1568 -0.0477
 9636SOL    HW232311   0.615   1.919   7.481  0.6655 -0.0857 -0.5324
 9637SOL     OW32312  10.276   2.771   2.621 -0.4579  0.1600 -0.0181
 9637SOL    HW132313  10.360   2.728   2.605 -0.1459  0.7056  0.1504
 9637SOL    HW232314  10.211   2.704   2.598 -0.0071  0.1175 -1.2708
 9638SOL     OW32315   1.258   8.996   7.189 -0.4165  0.6051  0.0368
 9638SOL    HW132316   1.176   8.960   7.155 -0.7125 -0.1761  1.4592
 9638SOL    HW232317   1.265   8.959   7.278 -0.6241  3.8894  1.5599
 9639SOL     OW32318   3.821   2.645   1.496  0.1193 -0.4739  0.4250
 9639SOL    HW132319   3.820   2.554   1.525  1.1439 -0.1707  1.4980
 9639SOL    HW232320   3.842   2.641   1.403 -0.9651 -1.3722  0.1943
 9640SOL     OW32321   7.564   0.402   8.334 -0.2273 -0.1245 -0.4255
 9640SOL    HW132322   7.651   0.428   8.365  0.3909  0.9504 -2.8233
 9640SOL    HW232323   7.581   0.333   8.270 -1.3292 -1.2543  0.4516
 9641SOL     OW32324   8.360   6.086  10.622  0.1623 -0.1242  0.4198
 9641SOL    HW132325   8.353   6.152  10.553  2.6589  1.5452  1.5827
 9641SOL    HW232326   8.367   6.003  10.575  2.6807  1.0243 -1.5194
 9642SOL     OW32327   0.824  10.284  10.437 -0.4887  0.1347  0.1224
 9642SOL    HW132328   0.732  10.261  10.422  0.1131 -1.1655 -2.0615
 9642SOL    HW232329   0.842  10.351  10.372  0.6741 -1.3039 -1.1177
 9643SOL     OW32330   6.424   7.391   1.875 -0.2644  0.5253  0.9472
 9643SOL    HW132331   6.475   7.398   1.794  1.8377  2.3817  2.2849
 9643SOL    HW232332   6.456   7.311   1.917 -0.9892 -0.1653  0.2093
 9644SOL     OW32333   4.350   8.766   5.554  0.0601  0.5051  0.4154
 9644SOL    HW132334   4.418   8.756   5.621  0.0611  0.9588  0.4815
 9644SOL    HW232335   4.273   8.794   5.602  0.8403  3.9046 -0.0825
 9645SOL     OW32336   2.045   8.981   8.366  0.0257  0.0215 -0.1912
 9645SOL    HW132337   2.099   8.920   8.314  1.7773 -0.7906  2.3752
 9645SOL    HW232338   2.001   8.926   8.430 -2.2171  0.9729 -0.8305
 9646SOL     OW32339  10.678   4.803   8.291 -0.1996 -0.0585  0.5467
 9646SOL    HW132340  10.584   4.801   8.306 -0.3426 -1.4520 -0.4166
 9646SOL    HW232341  10.689   4.862   8.216 -0.2598  0.3393  0.8443
 9647SOL     OW32342   7.127   1.053   9.509 -0.0582 -0.7271  0.0941
 9647SOL    HW132343   7.106   0.965   9.540 -1.3307 -0.9388 -1.2619
 9647SOL    HW232344   7.128   1.045   9.413  2.2316  0.2183 -0.0194
 9648SOL     OW32345   7.923   2.136   2.174  0.3464  0.0803 -0.0342
 9648SOL    HW132346   7.958   2.223   2.154  0.5537 -0.0696 -0.3256
 9648SOL    HW232347   7.884   2.106   2.092 -2.4803  1.1531  0.7884
 9649SOL     OW32348   6.208   4.134   7.037 -0.4847 -0.0871 -0.2234
 9649SOL    HW132349   6.282   4.151   7.096  0.7311  1.1084 -1.9832
 9649SOL    HW232350   6.135   4.182   7.077  0.2682  0.5747  0.4066
 9650SOL     OW32351   2.559   4.386   8.597 -1.3155  0.6061 -0.8389
 9650SOL    HW132352   2.513   4.335   8.664 -1.7298  0.3156 -1.3390
 9650SOL    HW232353   2.627   4.433   8.645 -0.0744 -1.3768 -0.4947
 9651SOL     OW32354   9.591  10.363  10.678 -0.4781  0.3856  0.1648
 9651SOL    HW132355   9.669  10.343  10.627 -0.5114  0.5543  0.0488
 9651SOL    HW232356   9.621  10.361  10.769 -1.1887 -3.8149  0.5042
 9652SOL     OW32357   3.060   9.239   3.121 -0.8987 -0.2782  0.6832
 9652SOL    HW132358   3.070   9.332   3.140  0.6544 -0.0899 -0.7255
 9652SOL    HW232359   3.091   9.194   3.199  0.2258  0.4139  0.6512
 9653SOL     OW32360   3.368   5.365   7.218  0.0355 -0.2776 -0.8699
 9653SOL    HW132361   3.404   5.433   7.160 -0.6298  0.5278 -0.3692
 9653SOL    HW232362   3.430   5.293   7.213  0.3855  0.0903 -1.9811
 9654SOL     OW32363   9.947   7.004   8.414  0.2322  0.2342  0.2037
 9654SOL    HW132364   9.901   6.926   8.381 -1.4642  1.4274 -0.3760
 9654SOL    HW232365   9.947   6.994   8.509 -1.9542  0.5428  0.2745
 9655SOL     OW32366   2.180   4.613   4.499  0.2036 -0.6195  0.3317
 9655SOL    HW132367   2.261   4.625   4.450  1.3271 -1.8099  1.8292
 9655SOL    HW232368   2.159   4.701   4.532 -0.3739  0.1375 -1.8654
 9656SOL     OW32369  10.074   1.556   3.508 -0.0212  0.3126 -0.1053
 9656SOL    HW132370  10.119   1.554   3.593  1.2219 -0.2717 -0.7550
 9656SOL    HW232371  10.144   1.552   3.443 -0.9008  1.5852 -1.1989
 9657SOL     OW32372   4.848   7.641   9.565 -0.0521  0.3048 -0.3488
 9657SOL    HW132373   4.839   7.568   9.626 -1.6000  0.2578 -0.6040
 9657SOL    HW232374   4.886   7.712   9.618  1.8952 -0.7736 -0.2036
 9658SOL     OW32375  10.599   1.431   1.547  0.2347 -0.2367 -0.1212
 9658SOL    HW132376  10.666   1.438   1.614  1.0149 -0.5722 -0.8524
 9658SOL    HW232377  10.645   1.398   1.470 -0.3588  1.4094 -1.2401
 9659SOL     OW32378   2.633   2.730   3.343 -0.2190  0.0938  0.1823
 9659SOL    HW132379   2.716   2.765   3.374 -0.3236 -0.6302  1.3370
 9659SOL    HW232380   2.625   2.763   3.253  1.1787  0.3901  0.1410
 9660SOL     OW32381  10.816   5.527   4.710 -0.6261 -0.5965  0.0292
 9660SOL    HW132382  10.830   5.580   4.631  0.7981 -0.0777  0.6063
 9660SOL    HW232383  10.722   5.533   4.726 -0.6598  0.7929 -0.5829
 9661SOL     OW32384   9.915   1.786   5.065 -0.2231 -0.0346  0.4912
 9661SOL    HW132385   9.898   1.863   5.011  0.0814 -1.0676 -1.1452
 9661SOL    HW232386   9.983   1.815   5.126  2.1387  0.2262 -2.0751
 9662SOL     OW32387   8.393   7.463   7.026  0.4893  0.3786  0.1145
 9662SOL    HW132388   8.304   7.430   7.013 -0.4739  0.7247  4.3932
 9662SOL    HW232389   8.394   7.548   6.982 -0.8761 -0.1476 -0.9929
 9663SOL     OW32390   6.495   0.581   7.103  0.2079  0.1771 -0.0226
 9663SOL    HW132391   6.416   0.602   7.053  0.4228  0.7569 -0.1248
 9663SOL    HW232392   6.521   0.495   7.071 -0.9941 -0.5242  0.7841
 9664SOL     OW32393  10.209   6.173  10.318  0.2845 -0.6826 -0.5060
 9664SOL    HW132394  10.285   6.146  10.370  0.4108 -2.2975 -1.4487
 9664SOL    HW232395  10.224   6.134  10.232 -0.4414  1.0375 -1.4493
 9665SOL     OW32396   4.570   0.126   3.222 -0.1777 -0.0834  0.2733
 9665SOL    HW132397   4.585   0.199   3.281 -0.5075 -2.1185  3.0385
 9665SOL    HW232398   4.508   0.159   3.157  0.5604  2.3598  0.7415
 9666SOL     OW32399   7.809  10.593   0.991 -0.3273 -0.2879  0.8232
 9666SOL    HW132400   7.719  10.615   0.968 -0.1531  1.6386  1.8094
 9666SOL    HW232401   7.859  10.673   0.977  1.3656 -1.4449 -0.1643
 9667SOL     OW32402   9.810   3.396   2.209  0.3681 -0.5554 -0.4876
 9667SOL    HW132403   9.860   3.322   2.174  0.4902 -0.9946  0.5901
 9667SOL    HW232404   9.787   3.370   2.298  1.5832  1.2224  0.4150
 9668SOL     OW32405   7.730   0.264   3.096 -0.3325  0.2960 -0.1783
 9668SOL    HW132406   7.805   0.211   3.122  1.0236  1.6319 -1.2306
 9668SOL    HW232407   7.710   0.236   3.006 -1.0908 -0.0168  0.0746
 9669SOL     OW32408   8.650  10.210   3.147  0.1576 -0.8961 -0.6224
 9669SOL    HW132409   8.621  10.283   3.093  0.7178  0.8471  1.3203
 9669SOL    HW232410   8.570  10.179   3.190  0.1964 -0.1284  0.0257
 9670SOL     OW32411   8.541   5.520   5.871 -0.1575 -0.3704 -0.2288
 9670SOL    HW132412   8.621   5.510   5.923 -0.6803 -1.2328  0.4459
 9670SOL    HW232413   8.531   5.435   5.827  1.2656  0.8799 -3.2799
 9671SOL     OW32414   4.498   2.524   3.154  0.7537  0.7631 -0.1862
 9671SOL    HW132415   4.507   2.582   3.078  0.5331  1.6556  0.4391
 9671SOL    HW232416   4.549   2.447   3.133 -0.0660  0.5861 -1.6385
 9672SOL     OW32417   4.443   1.077   2.738 -0.1323 -0.0252 -0.2516
 9672SOL    HW132418   4.369   1.098   2.680 -2.0903  0.3963  2.1966
 9672SOL    HW232419   4.436   0.982   2.752  0.4464 -0.1557 -0.8170
 9673SOL     OW32420   3.325   1.936   1.518  0.2428 -0.7479 -0.1588
 9673SOL    HW132421   3.347   2.007   1.458 -2.3921  0.1006 -0.2316
 9673SOL    HW232422   3.293   1.980   1.597  1.6615 -1.8751  1.1122
 9674SOL     OW32423   3.084   2.586   3.320 -0.1696  0.3161 -0.1453
 9674SOL    HW132424   3.099   2.558   3.230 -0.6284 -0.0282 -0.1166
 9674SOL    HW232425   3.022   2.522   3.355  0.4063  0.1435  0.5790
 9675SOL     OW32426   8.959   4.482   9.519  0.2938 -0.1828  0.2243
 9675SOL    HW132427   9.006   4.551   9.566 -0.6810  1.0328 -0.5147
 9675SOL    HW232428   8.901   4.444   9.586  0.5393 -0.0049  0.5416
 9676SOL     OW32429  10.368   9.219  10.028 -0.3108  0.1120 -0.2538
 9676SOL    HW132430  10.370   9.260   9.942 -0.4748  1.1061  0.2076
 9676SOL    HW232431  10.459   9.194  10.045 -0.0683  1.0143 -0.1990
 9677SOL     OW32432   5.333   5.885   3.598  0.0143 -0.5664 -1.2266
 9677SOL    HW132433   5.314   5.862   3.689  0.1144 -0.8301 -1.2714
 9677SOL    HW232434   5.249   5.909   3.560 -0.0638 -0.6949 -1.1318
 9678SOL     OW32435   8.016   4.937   1.372  0.5178 -0.6076 -0.2291
 9678SOL    HW132436   8.017   4.915   1.465 -2.7578 -0.3114 -0.0010
 9678SOL    HW232437   7.946   5.002   1.364  0.9814 -0.3319 -2.8640
 9679SOL     OW32438   5.131   7.668   4.138  0.4573  0.3913  0.0872
 9679SOL    HW132439   5.075   7.663   4.215  2.3529 -1.7939  1.4676
 9679SOL    HW232440   5.163   7.758   4.137 -0.4143  0.7340  1.2512
 9680SOL     OW32441   9.165   4.096   5.094 -0.3540  1.1789  0.4156
 9680SOL    HW132442   9.252   4.097   5.135 -0.4393  1.5007  0.5908
 9680SOL    HW232443   9.172   4.159   5.022  0.5681 -1.1604 -1.6931
 9681SOL     OW32444  10.282   9.385   0.832  0.2967  0.2746 -0.1953
 9681SOL    HW132445  10.376   9.366   0.834 -0.1791 -2.3697  0.2813
 9681SOL    HW232446  10.252   9.366   0.921 -0.7084  1.0676 -0.3549
 9682SOL     OW32447  10.731   9.637   4.683 -0.3054 -0.1949 -0.0821
 9682SOL    HW132448  10.636   9.631   4.699 -0.2570  0.6227  0.5575
 9682SOL    HW232449  10.764   9.691   4.755  0.7975 -1.2661  0.2345
 9683SOL     OW32450   1.917   2.953   6.657 -0.5394 -0.3821  0.1160
 9683SOL    HW132451   1.870   3.022   6.704 -2.0055 -1.0316 -0.3452
 9683SOL    HW232452   1.990   2.999   6.614 -0.7530  0.6591  0.8182
 9684SOL     OW32453   9.975  10.287   6.045  0.1012 -0.2037  0.4607
 9684SOL    HW132454  10.037  10.262   6.113  0.1113  0.0708  0.5549
 9684SOL    HW232455   9.997  10.231   5.970 -1.3812 -2.1631  1.3972
 9685SOL     OW32456   5.976  10.420   1.792 -0.2660 -0.3521  0.2989
 9685SOL    HW132457   5.985  10.484   1.862 -0.6013 -1.1120  1.0549
 9685SOL    HW232458   5.882  10.408   1.782 -0.2361  0.0937 -0.6144
 9686SOL     OW32459   6.263   3.764   3.670  0.4124  0.3322 -0.1171
 9686SOL    HW132460   6.329   3.825   3.637  0.2011  1.0297  0.6918
 9686SOL    HW232461   6.180   3.803   3.642  0.1844  1.3631  1.8222
 9687SOL     OW32462   0.148   2.780   1.820  0.2661  0.5704  0.8238
 9687SOL    HW132463   0.235   2.741   1.825  0.8205  1.8858  1.7952
 9687SOL    HW232464   0.124   2.772   1.727  1.6262  0.6536  0.4494
 9688SOL     OW32465  10.069   8.134   1.560  0.3494 -0.4329 -0.0973
 9688SOL    HW132466   9.991   8.083   1.538 -0.6466  1.2557 -0.6842
 9688SOL    HW232467  10.130   8.118   1.488  0.8194 -2.1945  0.6346
 9689SOL     OW32468   7.469   9.450   3.876 -0.0749  0.3928 -0.3746
 9689SOL    HW132469   7.480   9.450   3.781  1.2655 -0.3679 -0.2466
 9689SOL    HW232470   7.453   9.359   3.898 -0.0365  0.5163  0.1679
 9690SOL     OW32471   9.948   7.214   9.052 -0.1766 -0.1080 -0.2226
 9690SOL    HW132472   9.865   7.193   9.008  0.1838  1.8956 -2.0167
 9690SOL    HW232473   9.921   7.256   9.134 -0.9000 -0.9498 -0.0152
 9691SOL     OW32474   4.147   3.895  10.128 -0.4193 -0.1533  0.4191
 9691SOL    HW132475   4.124   3.845  10.050 -1.0688 -0.8762  1.0480
 9691SOL    HW232476   4.239   3.916  10.118 -0.5108 -0.1866 -0.5635
 9692SOL     OW32477   5.289   2.696   8.540  0.2889  0.3470  0.6099
 9692SOL    HW132478   5.325   2.737   8.619  1.0082 -1.0517  1.0525
 9692SOL    HW232479   5.264   2.769   8.484 -0.7332  1.3955  2.3417
 9693SOL     OW32480   2.962   0.846  10.109 -0.1361 -0.8668  0.4315
 9693SOL    HW132481   3.026   0.777  10.125 -1.4920 -2.1427  0.5519
 9693SOL    HW232482   2.893   0.830  10.173 -0.6228  0.4329  0.2634
 9694SOL     OW32483   1.786   1.045   1.706 -0.0747  0.1568 -0.4869
 9694SOL    HW132484   1.865   0.991   1.714  0.4130  0.5168 -2.3450
 9694SOL    HW232485   1.803   1.121   1.763  0.4843 -0.2400 -0.1102
 9695SOL     OW32486   2.454   5.947   7.187  0.3178 -0.2521 -0.1379
 9695SOL    HW132487   2.521   5.963   7.121  1.2378 -1.2000  0.5427
 9695SOL    HW232488   2.463   6.020   7.248  0.8572 -0.4853  0.0593
 9696SOL     OW32489   1.423   1.937   6.304 -0.1565 -1.2709 -0.0416
 9696SOL    HW132490   1.502   1.946   6.357  0.1433  0.6182 -0.7088
 9696SOL    HW232491   1.353   1.970   6.360 -0.2789 -1.7851  0.1119
 9697SOL     OW32492   8.037   3.896   9.193 -0.5145  0.1144  0.1640
 9697SOL    HW132493   8.000   3.882   9.105 -3.3173  2.2859  0.8366
 9697SOL    HW232494   8.091   3.974   9.184 -0.3682  0.0205  0.2402
 9698SOL     OW32495  10.623   9.816   0.254 -0.5469  0.1341  0.1151
 9698SOL    HW132496  10.627   9.803   0.349 -0.4369 -1.3900 -0.0747
 9698SOL    HW232497  10.683   9.751   0.218 -0.6902  0.6003 -1.0071
 9699SOL     OW32498   9.554   2.503   9.159  0.6951 -0.1076 -0.3182
 9699SOL    HW132499   9.578   2.480   9.069  3.2260 -2.1271  0.7284
 9699SOL    HW232500   9.601   2.585   9.175 -0.9502  1.0695 -1.2193
 9700SOL     OW32501   5.485   1.580   7.847  0.4693  0.4852 -0.0791
 9700SOL    HW132502   5.518   1.505   7.897  1.1837  1.3762  0.8401
 9700SOL    HW232503   5.475   1.650   7.913  1.6525  1.7717 -1.2058
 9701SOL     OW32504   8.219   4.538  10.600  0.3122  0.1768 -0.0153
 9701SOL    HW132505   8.231   4.631  10.619  1.3083  0.5390 -2.1727
 9701SOL    HW232506   8.306   4.499  10.612  0.5012  0.0417 -1.5779
 9702SOL     OW32507   8.020   7.655   4.329  0.2541 -0.7248  0.0267
 9702SOL    HW132508   8.010   7.739   4.284 -1.6055 -0.1847  1.3198
 9702SOL    HW232509   8.047   7.594   4.260 -1.0661  0.3596 -1.5248
 9703SOL     OW32510   4.396   2.582   1.357 -0.1839 -0.4292 -0.0326
 9703SOL    HW132511   4.349   2.531   1.423 -0.4958  0.0064  0.0876
 9703SOL    HW232512   4.477   2.534   1.342 -0.2568 -0.7006  0.4385
 9704SOL     OW32513   8.321   5.555   4.917  0.1976  0.0325  0.2359
 9704SOL    HW132514   8.354   5.611   4.847  0.0038 -0.3629 -0.1735
 9704SOL    HW232515   8.272   5.615   4.974 -0.2252  0.2417 -0.3383
 9705SOL     OW32516   1.068  10.857   8.236  0.3159  0.5998 -0.0820
 9705SOL    HW132517   1.118  10.878   8.314  0.9229 -1.1530  0.0568
 9705SOL    HW232518   0.978  10.846   8.267  0.2817  1.3402  0.0974
 9706SOL     OW32519   0.553  10.370   8.691  0.1679  0.0037 -0.2979
 9706SOL    HW132520   0.640  10.360   8.653 -0.5552 -2.1441 -1.5948
 9706SOL    HW232521   0.500  10.408   8.621 -0.2222  0.1328  0.0593
 9707SOL     OW32522  10.599   7.721   7.156 -1.0559  0.3277  0.7108
 9707SOL    HW132523  10.511   7.698   7.126 -0.7813 -1.6180  1.2876
 9707SOL    HW232524  10.632   7.781   7.089 -1.5234 -1.6623 -1.4290
 9708SOL     OW32525   3.127   6.413   7.550 -0.2863  0.2867 -0.2419
 9708SOL    HW132526   3.104   6.475   7.480  0.7774  1.0052  0.0279
 9708SOL    HW232527   3.177   6.464   7.613  0.1277 -0.7228  0.2781
 9709SOL     OW32528   5.720   1.667   2.467  0.2422 -0.1351 -0.0259
 9709SOL    HW132529   5.681   1.679   2.381 -0.6159 -0.4590  0.3102
 9709SOL    HW232530   5.661   1.711   2.528  0.9151  0.2127  0.3857
 9710SOL     OW32531   8.892   5.339   4.784 -0.1538 -0.0794 -0.2856
 9710SOL    HW132532   8.821   5.354   4.721  0.4334  1.7740 -0.5576
 9710SOL    HW232533   8.959   5.403   4.761  0.8294 -0.5405  1.1424
 9711SOL     OW32534   2.210   3.394   5.449  0.1286 -0.7455 -0.0986
 9711SOL    HW132535   2.303   3.413   5.454  0.6411 -3.1397  1.5673
 9711SOL    HW232536   2.167   3.469   5.488  1.6728 -1.1383  2.5685
 9712SOL     OW32537   9.583   0.456   5.556  0.1065  0.1997 -0.5731
 9712SOL    HW132538   9.508   0.396   5.554 -0.6979  1.1089  0.3741
 9712SOL    HW232539   9.660   0.399   5.557 -0.5764 -0.7685 -1.2374
 9713SOL     OW32540   9.847   0.231   6.432 -0.1402 -0.0783 -0.3398
 9713SOL    HW132541   9.756   0.212   6.411 -0.2047  0.6891 -0.8101
 9713SOL    HW232542   9.842   0.305   6.494  0.1788  0.7673 -1.2972
 9714SOL     OW32543   1.040   9.051   6.880  0.3371  0.0602 -0.4864
 9714SOL    HW132544   1.026   8.959   6.900  0.1844 -0.1132 -1.3482
 9714SOL    HW232545   1.004   9.098   6.955  0.6237 -0.5842  0.0647
 9715SOL     OW32546  10.130   2.885   5.305 -0.2836  0.1771 -0.1700
 9715SOL    HW132547  10.097   2.817   5.247  2.4488 -0.4163 -1.1868
 9715SOL    HW232548  10.179   2.837   5.372  0.4082  1.0666 -0.0268
 9716SOL     OW32549   3.880   5.425   4.541  0.3064 -0.2061 -0.1029
 9716SOL    HW132550   3.873   5.402   4.634 -0.0527  3.7447  1.0304
 9716SOL    HW232551   3.961   5.384   4.512  0.2220 -1.8648  1.8127
 9717SOL     OW32552   6.627   9.418   8.008 -0.1247  0.4494  0.1098
 9717SOL    HW132553   6.555   9.355   7.999 -0.3282  0.7672 -0.6032
 9717SOL    HW232554   6.586   9.504   7.996 -0.2638  0.9411  3.3451
 9718SOL     OW32555   0.063   4.673   6.156 -0.3383 -0.4356  0.2147
 9718SOL    HW132556   0.148   4.707   6.129 -0.1322 -2.1658 -1.4845
 9718SOL    HW232557   0.024   4.745   6.206  2.2595  0.2691  1.4305
 9719SOL     OW32558   1.815   1.930   3.570 -0.6304  0.2741  0.7052
 9719SOL    HW132559   1.775   2.009   3.606 -0.9059 -0.0384  1.0935
 9719SOL    HW232560   1.868   1.895   3.642  0.5357  0.8040  0.1328
 9720SOL     OW32561   7.333   6.824  10.727  0.1701 -1.0579 -0.0254
 9720SOL    HW132562   7.394   6.828  10.801  0.5922 -3.8452 -0.1121
 9720SOL    HW232563   7.382   6.860  10.654  1.3732 -2.2699  0.1460
 9721SOL     OW32564  10.608   0.592  10.881  0.6068  0.2386  0.6120
 9721SOL    HW132565  10.568   0.593  10.968 -0.2361  1.7873  0.2249
 9721SOL    HW232566  10.679   0.656  10.886 -1.3422  2.6654 -0.6435
 9722SOL     OW32567   1.621   0.510   7.327 -0.2629  0.2322  0.9666
 9722SOL    HW132568   1.613   0.518   7.422 -1.0565  0.1253  0.9185
 9722SOL    HW232569   1.583   0.425   7.307 -2.1891  1.1684  0.3426
 9723SOL     OW32570  10.362   0.165   0.563  0.7306  0.5978 -0.7311
 9723SOL    HW132571  10.376   0.074   0.539 -0.2860 -0.5424  2.5184
 9723SOL    HW232572  10.433   0.185   0.625 -1.3659  0.4973  1.9226
 9724SOL     OW32573   7.708   1.317   0.098  0.2797  0.2218  0.0853
 9724SOL    HW132574   7.778   1.266   0.058 -0.0010  1.5824 -2.3319
 9724SOL    HW232575   7.651   1.342   0.025 -1.0111  1.7690  1.5284
 9725SOL     OW32576   3.447   0.220   2.899 -0.6078  0.3485 -0.2162
 9725SOL    HW132577   3.416   0.304   2.933  0.4248  0.4424  0.5374
 9725SOL    HW232578   3.402   0.154   2.952  0.0628  0.4758  0.5363
 9726SOL     OW32579   7.389   0.446   2.048  0.0621 -0.0243  0.3732
 9726SOL    HW132580   7.440   0.444   1.967  2.0406  1.6417  1.4921
 9726SOL    HW232581   7.451   0.422   2.116 -0.4260  2.6472  1.8725
 9727SOL     OW32582   9.960   2.848   2.381 -0.2688  0.0741  0.2670
 9727SOL    HW132583  10.011   2.792   2.323  0.0958  0.4324  0.2362
 9727SOL    HW232584   9.978   2.937   2.349  0.8950  0.3705  1.6737
 9728SOL     OW32585   1.948   7.181   2.412  0.3243  0.2281 -0.1287
 9728SOL    HW132586   2.002   7.104   2.395 -0.3488 -0.3496  0.2637
 9728SOL    HW232587   1.989   7.223   2.487 -0.0289 -0.4736  0.4717
 9729SOL     OW32588  10.062   2.031   4.395 -0.5001 -0.2896 -0.1480
 9729SOL    HW132589  10.011   1.978   4.456  0.5519 -1.3077 -0.1222
 9729SOL    HW232590  10.089   2.107   4.447  0.5613 -1.2427  0.7503
 9730SOL     OW32591   9.296   2.210   0.418 -0.0749 -0.0867 -0.3293
 9730SOL    HW132592   9.334   2.298   0.414 -0.7793  0.2102 -3.7825
 9730SOL    HW232593   9.359   2.155   0.372 -0.2756 -1.1527  0.6404
 9731SOL     OW32594   8.659   1.691   1.806  0.1305  0.0320  0.3382
 9731SOL    HW132595   8.664   1.782   1.777  2.8287 -0.3872 -0.8601
 9731SOL    HW232596   8.631   1.696   1.898  0.4268  2.0733  0.3636
 9732SOL     OW32597   2.907   2.201   0.944 -0.0899 -0.3587 -0.3046
 9732SOL    HW132598   2.979   2.141   0.923  0.2350  0.5859 -2.0019
 9732SOL    HW232599   2.842   2.185   0.876 -0.8163 -0.0899  0.3155
 9733SOL     OW32600   5.661   0.756   8.554 -0.1047  0.6411 -0.3022
 9733SOL    HW132601   5.623   0.750   8.642  2.3016 -0.8566  0.7273
 9733SOL    HW232602   5.687   0.667   8.532  1.5232  1.3468 -1.4824
 9734SOL     OW32603   7.236   8.543   0.201  0.2507  0.5481 -0.2565
 9734SOL    HW132604   7.283   8.474   0.247 -0.1326  0.7240  0.4111
 9734SOL    HW232605   7.279   8.624   0.228  0.9552  0.5636 -1.3423
 9735SOL     OW32606   3.686   5.613   6.752 -1.0270 -0.1797 -0.1017
 9735SOL    HW132607   3.666   5.524   6.725  0.2484 -0.0831 -1.4542
 9735SOL    HW232608   3.780   5.623   6.738 -1.1059  1.3173  0.2093
 9736SOL     OW32609   4.400   4.264  10.694 -0.0628 -0.6842 -0.2178
 9736SOL    HW132610   4.329   4.285  10.633 -1.0218 -1.8173  0.4724
 9736SOL    HW232611   4.479   4.297  10.651 -0.8540 -0.4838 -1.5731
 9737SOL     OW32612   8.902   2.866   2.782  0.3538 -0.1581 -0.0219
 9737SOL    HW132613   8.959   2.938   2.809  0.1320  0.4675 -1.1732
 9737SOL    HW232614   8.905   2.867   2.686 -0.8227 -0.7294 -0.0823
 9738SOL     OW32615   4.937   8.201   7.941 -0.8272  0.2506  0.2266
 9738SOL    HW132616   4.900   8.160   8.020  0.4152 -0.3218  0.5362
 9738SOL    HW232617   5.009   8.255   7.973 -2.7430  3.2182 -0.1130
 9739SOL     OW32618   4.254   9.283   1.230  0.3172 -0.0993  0.3951
 9739SOL    HW132619   4.197   9.344   1.183 -1.0679 -2.4213 -1.1255
 9739SOL    HW232620   4.341   9.298   1.193  0.2002  1.5305  0.7069
 9740SOL     OW32621   3.320   5.342   5.957 -0.1059  0.0713  0.2050
 9740SOL    HW132622   3.348   5.367   5.869  1.4185  0.5017  0.7823
 9740SOL    HW232623   3.401   5.324   6.004 -0.8456  0.4872  1.7147
 9741SOL     OW32624   6.803   8.396   4.720 -0.4542 -0.0078  0.3591
 9741SOL    HW132625   6.737   8.385   4.652  0.6220  1.1607 -0.9265
 9741SOL    HW232626   6.796   8.489   4.744  1.6906  0.5299 -0.8857
 9742SOL     OW32627   3.720  10.813   8.698 -0.1192  0.1961 -0.5051
 9742SOL    HW132628   3.745  10.720   8.693 -1.8754 -0.3269 -0.2367
 9742SOL    HW232629   3.798  10.857   8.730  0.3578 -1.3950  0.6574
 9743SOL     OW32630   8.038   1.472  10.314  1.1198  0.1597 -0.5324
 9743SOL    HW132631   7.998   1.541  10.261  2.4062  2.0663  0.8817
 9743SOL    HW232632   7.983   1.395  10.296 -0.8052  1.6726 -1.6307
 9744SOL     OW32633   2.215   5.917   3.644  0.6173  0.2797 -0.3030
 9744SOL    HW132634   2.254   6.002   3.665  0.4839 -0.0053  1.2494
 9744SOL    HW232635   2.234   5.862   3.721 -0.8892 -0.5269 -0.4663
 9745SOL     OW32636   5.946   3.208   6.964  0.3080  0.0324 -0.0249
 9745SOL    HW132637   5.943   3.119   6.927  1.5258  0.0962 -0.3223
 9745SOL    HW232638   5.906   3.199   7.050  0.8199 -0.9179  0.1345
 9746SOL     OW32639   5.905   7.907   5.180  0.4204 -0.1165  0.7064
 9746SOL    HW132640   5.949   7.991   5.193 -0.6087  0.3989  0.9953
 9746SOL    HW232641   5.814   7.930   5.161  0.4783 -1.0980 -1.0049
 9747SOL     OW32642   0.035   9.068   5.339  0.0568  0.3794  0.3670
 9747SOL    HW132643   0.030   9.066   5.435 -0.5288  1.3935  0.3640
 9747SOL    HW232644   0.066   8.980   5.316 -1.5004 -0.4877  1.3856
 9748SOL     OW32645   0.549   3.026   4.950 -0.2441  0.3483  0.0793
 9748SOL    HW132646   0.486   2.954   4.956  0.2597  0.0095  2.1265
 9748SOL    HW232647   0.625   2.988   4.907 -1.0800  0.5321 -1.6412
 9749SOL     OW32648   6.218  10.120   2.423  1.0393  0.4605 -0.0048
 9749SOL    HW132649   6.143  10.076   2.463  1.3080 -0.6718 -0.7138
 9749SOL    HW232650   6.189  10.211   2.412  0.3034  0.3706  1.0487
 9750SOL     OW32651  10.485   1.540   5.494 -0.2785  0.2874  0.2327
 9750SOL    HW132652  10.569   1.496   5.507  0.4311  0.7260 -2.2531
 9750SOL    HW232653  10.426   1.471   5.462 -0.1894  0.4145 -0.2174
 9751SOL     OW32654   9.982   6.560   2.981 -0.4266  0.0611  0.0395
 9751SOL    HW132655  10.054   6.554   2.917 -0.2864  1.6088 -0.0006
 9751SOL    HW232656   9.985   6.477   3.028  0.4816 -0.4816 -0.9152
 9752SOL     OW32657   7.309   6.295   0.802 -0.0306 -0.0413  0.6521
 9752SOL    HW132658   7.243   6.291   0.872  0.3308  0.5566  1.0335
 9752SOL    HW232659   7.372   6.359   0.833 -2.1431  3.7881 -2.2017
 9753SOL     OW32660   6.630  10.315   0.428  0.1973 -0.1855 -0.1128
 9753SOL    HW132661   6.710  10.367   0.421 -0.0039  0.0146 -1.0453
 9753SOL    HW232662   6.571  10.368   0.481  0.0407  0.4910 -0.9442
 9754SOL     OW32663   8.672   1.676   7.807  0.2277 -0.5313  0.4284
 9754SOL    HW132664   8.606   1.652   7.742  0.5182 -0.7503  0.2126
 9754SOL    HW232665   8.624   1.727   7.872 -0.0084 -0.0648 -0.1038
 9755SOL     OW32666   8.757   1.610   5.992 -0.0891  0.7492 -0.3987
 9755SOL    HW132667   8.678   1.572   6.032 -0.6180  1.6816 -0.5240
 9755SOL    HW232668   8.829   1.560   6.030 -0.6910  0.4505  0.3936
 9756SOL     OW32669   9.700   8.852   1.574  0.6429  0.1112 -0.2737
 9756SOL    HW132670   9.621   8.855   1.519  1.2004 -1.4937 -1.2512
 9756SOL    HW232671   9.724   8.759   1.576  2.6923  0.5895 -0.2817
 9757SOL     OW32672   6.821  10.261  10.146 -0.1007  0.1102  0.2103
 9757SOL    HW132673   6.747  10.243  10.087 -0.2962 -0.1721  0.5356
 9757SOL    HW232674   6.812  10.354  10.168 -0.1783  0.1529  0.0075
 9758SOL     OW32675   5.780  10.512   1.460  0.0257 -0.5375  0.7598
 9758SOL    HW132676   5.715  10.524   1.391  0.5539 -1.6004  0.0471
 9758SOL    HW232677   5.742  10.553   1.537 -0.5513  0.7409 -0.1793
 9759SOL     OW32678   8.594   2.777  10.655 -0.0722 -0.2041  0.4224
 9759SOL    HW132679   8.652   2.714  10.698 -1.3721 -1.0248  1.0194
 9759SOL    HW232680   8.582   2.742  10.567  1.3451  0.6696 -0.1730
 9760SOL     OW32681   0.556   3.227   9.273 -0.4351  0.2133  0.1409
 9760SOL    HW132682   0.517   3.156   9.324  0.2122 -0.3813 -0.1817
 9760SOL    HW232683   0.518   3.217   9.186  0.0005 -0.0131 -0.0226
 9761SOL     OW32684   7.324   2.808   4.436  0.2200  0.2638 -0.6307
 9761SOL    HW132685   7.393   2.801   4.502  1.2409  0.7020 -1.6209
 9761SOL    HW232686   7.299   2.717   4.418 -0.8013  0.1707  1.0697
 9762SOL     OW32687   2.894   0.961   7.132  0.1256  0.2808 -0.0106
 9762SOL    HW132688   2.968   0.954   7.072  1.0378 -1.1519  1.2076
 9762SOL    HW232689   2.911   0.895   7.199 -1.7750  0.5829  0.8427
 9763SOL     OW32690   7.588   8.154   8.724  0.5137 -0.0534 -0.4625
 9763SOL    HW132691   7.630   8.096   8.788  2.1082 -0.0422 -1.4396
 9763SOL    HW232692   7.516   8.194   8.772  0.5659 -1.3706  0.8013
 9764SOL     OW32693   6.702   2.237   7.646  0.3588  0.3046  0.5598
 9764SOL    HW132694   6.655   2.248   7.728  0.7153 -0.1943  0.8387
 9764SOL    HW232695   6.771   2.173   7.666  2.2529  2.2383  0.6511
 9765SOL     OW32696   0.770  10.585   2.625  0.1291 -0.2667 -0.1397
 9765SOL    HW132697   0.861  10.555   2.629  0.2056  0.0093  0.2600
 9765SOL    HW232698   0.754  10.625   2.711 -0.2967 -0.1029 -0.2923
 9766SOL     OW32699   8.697   0.681   6.072  0.4185 -0.3766  0.0454
 9766SOL    HW132700   8.792   0.677   6.085  0.3365  0.2781  0.9168
 9766SOL    HW232701   8.685   0.664   5.979  1.2605 -2.2497  0.2337
 9767SOL     OW32702  10.461   5.306   7.118  0.7575 -0.2203 -0.2015
 9767SOL    HW132703  10.503   5.225   7.089  0.5269 -0.4638  0.1345
 9767SOL    HW232704  10.387   5.277   7.172 -0.5204  0.1715 -1.6618
 9768SOL     OW32705   7.493   9.006   0.676  0.1895  0.3021 -0.1144
 9768SOL    HW132706   7.450   8.925   0.703 -2.1792  1.2551 -0.8166
 9768SOL    HW232707   7.540   8.982   0.596 -0.6132 -0.3639 -0.4019
 9769SOL     OW32708   3.188  10.027   0.449  0.0937  0.3154  0.4726
 9769SOL    HW132709   3.217  10.118   0.450  2.0438 -0.1544 -2.1465
 9769SOL    HW232710   3.236   9.986   0.521  1.1872  0.8800  0.0984
 9770SOL     OW32711   6.166   1.912   9.989  0.0728 -0.2753 -0.6132
 9770SOL    HW132712   6.203   1.886  10.073  0.2579  1.4042 -0.1354
 9770SOL    HW232713   6.072   1.897   9.999  0.0764  0.0612 -0.0424
 9771SOL     OW32714   9.607   9.145   4.692 -0.1211  0.1403 -0.1923
 9771SOL    HW132715   9.648   9.071   4.648  0.5699  1.2377 -1.4897
 9771SOL    HW232716   9.679   9.191   4.734 -0.5951 -0.1121  0.9282
 9772SOL     OW32717   6.491   1.489   0.939  0.7887 -0.0712 -0.0173
 9772SOL    HW132718   6.399   1.463   0.940  0.9103 -0.5176  0.7313
 9772SOL    HW232719   6.525   1.456   0.856  0.1478  0.5968 -0.5638
 9773SOL     OW32720   6.219   9.730   1.920 -0.0369 -0.2089 -0.2487
 9773SOL    HW132721   6.250   9.675   1.992 -1.7341 -0.5442  0.2730
 9773SOL    HW232722   6.138   9.769   1.953 -1.4473 -1.2077 -2.3161
 9774SOL     OW32723  10.608   5.523   0.826 -0.3448 -0.0335 -0.0660
 9774SOL    HW132724  10.530   5.479   0.860 -2.3986  2.2531 -1.5150
 9774SOL    HW232725  10.622   5.597   0.885  0.5780 -0.2283 -0.0168
 9775SOL     OW32726   2.263  10.097   8.428 -0.0734  0.4035  0.4660
 9775SOL    HW132727   2.248  10.185   8.395 -0.5164 -0.2352 -1.1064
 9775SOL    HW232728   2.201  10.088   8.500 -1.7047  0.5754 -0.8721
 9776SOL     OW32729   7.859  10.792   8.788  0.2214 -0.3449 -0.3035
 9776SOL    HW132730   7.805  10.714   8.796 -1.3053  0.7488  0.7273
 9776SOL    HW232731   7.894  10.807   8.876  0.4106  0.2014 -0.4639
 9777SOL     OW32732   6.581  10.606   6.688 -0.1920  0.2908  0.6860
 9777SOL    HW132733   6.491  10.627   6.711 -0.2523 -0.4997  1.2297
 9777SOL    HW232734   6.629  10.688   6.698 -0.6347  0.4561  1.5474
 9778SOL     OW32735   4.331   3.832   4.403 -0.1499  0.2907 -0.3891
 9778SOL    HW132736   4.273   3.821   4.327 -1.3880  0.2140  0.5426
 9778SOL    HW232737   4.344   3.927   4.409 -1.8916  0.5081  0.6060
 9779SOL     OW32738   4.020   3.094   4.173  0.2249 -0.2539  0.2868
 9779SOL    HW132739   3.961   3.113   4.101  0.2798 -2.4409 -0.3781
 9779SOL    HW232740   3.973   3.032   4.229  1.1926 -0.6498  0.7009
 9780SOL     OW32741  10.184   5.285   8.971 -0.2006 -0.3555 -0.6328
 9780SOL    HW132742  10.223   5.199   8.958 -3.1848 -2.5263  2.7586
 9780SOL    HW232743  10.221   5.316   9.053 -1.8390 -0.1989  0.0849
 9781SOL     OW32744   2.205   0.401   5.705  0.2173 -0.4657 -0.3631
 9781SOL    HW132745   2.248   0.325   5.667  2.4492  0.3236  0.4081
 9781SOL    HW232746   2.120   0.369   5.733  0.8481 -2.5177 -0.6110
 9782SOL     OW32747   6.373   1.283   8.814 -0.1490  0.2419  0.1219
 9782SOL    HW132748   6.467   1.270   8.818 -0.2800 -0.6528  0.3688
 9782SOL    HW232749   6.361   1.376   8.834  0.7871  0.7490 -1.5355
 9783SOL     OW32750   4.125   1.340   1.040  0.8218  0.5521  0.1268
 9783SOL    HW132751   4.163   1.256   1.013 -0.6430  0.1467 -0.7776
 9783SOL    HW232752   4.165   1.358   1.125  1.6637 -0.7314  0.0319
 9784SOL     OW32753   7.289   2.646   0.006  0.1046  0.5581  0.1666
 9784SOL    HW132754   7.227   2.623  -0.064  1.0619  1.2778 -0.9618
 9784SOL    HW232755   7.264   2.590   0.080 -1.4544  0.3652 -0.4764
 9785SOL     OW32756   2.146   3.830   8.241 -0.0195 -0.2986  0.1797
 9785SOL    HW132757   2.226   3.813   8.291  0.2017  0.0686 -0.0432
 9785SOL    HW232758   2.172   3.894   8.175 -1.0014  1.4970  1.4711
 9786SOL     OW32759   2.089   7.030  10.375 -0.1174  0.2915  0.0392
 9786SOL    HW132760   2.034   7.097  10.416 -1.7332 -1.0284  0.1140
 9786SOL    HW232761   2.160   7.016  10.438 -2.6377 -1.8356  2.6954
 9787SOL     OW32762   0.615   2.863   5.435  0.2405 -0.1046 -0.0408
 9787SOL    HW132763   0.654   2.905   5.512 -1.5577  0.0223  0.8668
 9787SOL    HW232764   0.520   2.875   5.447 -0.2304 -2.3807 -0.9338
 9788SOL     OW32765  10.829   9.534   5.083  0.8205 -0.1829  0.4551
 9788SOL    HW132766  10.735   9.516   5.077  0.6849  0.0563  1.7338
 9788SOL    HW232767  10.868   9.475   5.018 -0.2138 -0.1633 -0.2223
 9789SOL     OW32768   7.829   2.340  10.825 -0.5889 -0.5522  0.1530
 9789SOL    HW132769   7.903   2.400  10.836  0.3349 -1.7812  0.9510
 9789SOL    HW232770   7.844   2.299  10.740 -1.0643  0.1038 -0.2607
 9790SOL     OW32771   2.929   2.831   9.707 -0.6185 -0.3356 -0.0911
 9790SOL    HW132772   2.858   2.869   9.759 -1.9390 -1.1561 -1.2340
 9790SOL    HW232773   2.963   2.761   9.762 -0.3676  0.3520  0.6539
 9791SOL     OW32774   0.473   6.359   7.403  0.3750 -0.0210 -0.2671
 9791SOL    HW132775   0.511   6.293   7.461  0.2545  0.0655 -0.0871
 9791SOL    HW232776   0.548   6.405   7.366  0.4412  0.4510  0.4378
 9792SOL     OW32777   1.334   4.299   4.994 -0.1959 -0.0515 -0.6893
 9792SOL    HW132778   1.415   4.345   5.018 -0.1195 -1.1091  1.3231
 9792SOL    HW232779   1.358   4.245   4.919  1.0182 -0.4322 -0.0529
 9793SOL     OW32780   0.470   6.159   8.796  0.8460  0.6592  1.1463
 9793SOL    HW132781   0.534   6.124   8.734  0.0783  0.3172  0.5248
 9793SOL    HW232782   0.449   6.084   8.852  0.0930  0.4213  0.5704
 9794SOL     OW32783   5.525  10.635   3.963  0.2823 -0.0181  0.1265
 9794SOL    HW132784   5.440  10.672   3.938  0.2859  0.0452  0.2072
 9794SOL    HW232785   5.515  10.541   3.947 -0.1328 -0.1433  1.0422
 9795SOL     OW32786   4.883   8.671   3.985  0.0449  0.2609 -1.0536
 9795SOL    HW132787   4.810   8.624   3.945 -0.7633 -0.4006  1.0593
 9795SOL    HW232788   4.905   8.619   4.062 -0.2828  2.8267  0.9140
 9796SOL     OW32789   7.444   7.542   3.483  0.2375  0.2685 -0.0184
 9796SOL    HW132790   7.447   7.625   3.529  2.6499  0.3345 -0.1813
 9796SOL    HW232791   7.351   7.528   3.464 -0.6835  1.0586  3.2894
 9797SOL     OW32792  10.679   1.445   7.993 -0.6769  0.8429  0.1873
 9797SOL    HW132793  10.611   1.394   7.948 -1.2886  1.8545 -0.0712
 9797SOL    HW232794  10.745   1.463   7.926 -0.9579  1.2422  0.0104
 9798SOL     OW32795   7.595   0.294   7.937 -0.2946  0.2887  0.5042
 9798SOL    HW132796   7.527   0.344   7.890 -0.1995 -0.2310 -0.2101
 9798SOL    HW232797   7.671   0.352   7.938 -0.3033  0.3143  0.0187
 9799SOL     OW32798   7.689   0.034   3.666  0.3647  0.2947  0.4231
 9799SOL    HW132799   7.601   0.068   3.652  0.5535  0.5960 -0.0619
 9799SOL    HW232800   7.743   0.079   3.601  0.6297 -0.9442 -0.2367
 9800SOL     OW32801   0.739   4.890   6.340  0.3916 -0.2172 -0.2564
 9800SOL    HW132802   0.832   4.884   6.317  0.2487 -1.0507 -0.6575
 9800SOL    HW232803   0.731   4.839   6.421  0.2943 -0.0889 -0.1850
 9801SOL     OW32804  10.009   5.412   4.400  0.4117 -0.1354  0.3643
 9801SOL    HW132805  10.063   5.491   4.394  1.7030 -0.9051  1.3074
 9801SOL    HW232806   9.951   5.417   4.324  1.4258  1.0188 -0.3810
 9802SOL     OW32807   5.304   0.301   8.803  0.2146  0.4156 -0.3938
 9802SOL    HW132808   5.374   0.237   8.817  1.5114  2.0701  1.2908
 9802SOL    HW232809   5.277   0.326   8.892 -0.3892  2.0446 -1.0016
 9803SOL     OW32810   5.342   7.535   5.002 -0.1959 -0.0346 -0.0071
 9803SOL    HW132811   5.256   7.496   4.989 -0.1929 -0.1239  0.2409
 9803SOL    HW232812   5.393   7.467   5.047  0.0250 -0.0070 -0.2082
 9804SOL     OW32813   3.210  10.180   2.213  0.2824 -0.4350  0.5818
 9804SOL    HW132814   3.278  10.208   2.152  2.3086 -2.7696  1.5968
 9804SOL    HW232815   3.195  10.088   2.192  0.7084 -1.2043  3.1686
 9805SOL     OW32816   0.420   3.445   1.508  0.4561 -0.7380 -0.4335
 9805SOL    HW132817   0.476   3.370   1.489  0.8567 -0.7161  0.6205
 9805SOL    HW232818   0.395   3.434   1.600  1.5373  1.0405  0.1302
 9806SOL     OW32819   7.840   3.643   2.508 -0.1100  0.3025  1.0302
 9806SOL    HW132820   7.865   3.690   2.587 -0.3703  0.9195  0.7459
 9806SOL    HW232821   7.767   3.588   2.535 -0.8545  1.2556  0.9890
 9807SOL     OW32822   2.804  10.826   7.953  0.4882  0.1852 -0.0518
 9807SOL    HW132823   2.788  10.920   7.962 -0.5990 -0.1548  2.2133
 9807SOL    HW232824   2.823  10.814   7.860 -2.4140  2.1994 -1.0563
 9808SOL     OW32825   1.984   4.713   2.236  0.7131  0.1853 -0.0680
 9808SOL    HW132826   1.900   4.711   2.190  2.0743  1.3690 -2.8092
 9808SOL    HW232827   1.983   4.796   2.283 -0.3700 -0.6856  1.5606
 9809SOL     OW32828   1.955   9.975   2.515 -0.1687  0.3519  0.3836
 9809SOL    HW132829   1.893   9.995   2.585 -1.6596 -0.0092 -0.7760
 9809SOL    HW232830   1.942  10.044   2.450  1.2224  0.7126  0.4558
 9810SOL     OW32831   7.787   9.314   8.565  0.3156 -0.1529 -0.3220
 9810SOL    HW132832   7.712   9.373   8.558  0.0343 -0.4871 -0.1398
 9810SOL    HW232833   7.762   9.237   8.514  0.8418  0.0414 -0.8873
 9811SOL     OW32834   1.934   0.985   3.164 -0.0858 -0.1365 -0.0727
 9811SOL    HW132835   1.838   0.981   3.159 -0.1539  0.3682  0.5881
 9811SOL    HW232836   1.952   1.077   3.186  0.5431 -0.2616 -0.0681
 9812SOL     OW32837   3.467   0.930   5.759 -0.6699  0.3585 -0.1706
 9812SOL    HW132838   3.538   0.994   5.749  0.2651 -0.7086 -0.7207
 9812SOL    HW232839   3.500   0.852   5.714 -1.6798 -0.5841  0.6843
 9813SOL     OW32840   3.339   0.292   3.626 -0.2253  0.8528 -0.3314
 9813SOL    HW132841   3.366   0.349   3.554 -1.0231  2.3451  0.4935
 9813SOL    HW232842   3.397   0.317   3.698  0.5228 -0.5789 -0.4100
 9814SOL     OW32843  10.238  10.767   0.184 -0.6760 -0.2326  0.0525
 9814SOL    HW132844  10.271  10.827   0.117  1.7170  0.7092  1.9367
 9814SOL    HW232845  10.146  10.793   0.195 -0.8529  0.2529 -2.0702
 9815SOL     OW32846   1.360   1.710   9.887 -0.6849  0.1714 -0.3729
 9815SOL    HW132847   1.419   1.635   9.889 -0.2017  0.5560  0.9588
 9815SOL    HW232848   1.418   1.786   9.885 -1.1606  0.5377 -0.4758
 9816SOL     OW32849  10.462   4.233   1.904 -0.1496 -0.1619 -0.4580
 9816SOL    HW132850  10.552   4.258   1.925 -0.5129  0.3580  0.5469
 9816SOL    HW232851  10.458   4.237   1.808  0.9383 -0.3645 -0.5248
 9817SOL     OW32852   8.513   4.834   3.813 -0.5788  0.3129 -0.1614
 9817SOL    HW132853   8.608   4.819   3.815 -0.5182  0.8252  0.7906
 9817SOL    HW232854   8.489   4.815   3.722  0.6787  1.6750 -0.8299
 9818SOL     OW32855  10.561   9.252   2.200  0.3080  0.0521  0.0096
 9818SOL    HW132856  10.584   9.332   2.153  1.5397 -0.6321 -0.5946
 9818SOL    HW232857  10.631   9.240   2.264  0.6747 -1.0500 -0.5651
 9819SOL     OW32858   9.747   3.352   5.982 -0.1809 -0.1517 -0.3479
 9819SOL    HW132859   9.684   3.424   5.985  0.0231  0.0106  2.0644
 9819SOL    HW232860   9.700   3.277   6.017  0.5960 -0.3065  0.4160
 9820SOL     OW32861   2.349   8.002   6.473  0.1906 -0.5434  0.3181
 9820SOL    HW132862   2.280   8.001   6.407  0.1688 -1.4675  0.3429
 9820SOL    HW232863   2.303   8.018   6.556 -0.1944 -2.4183  0.5168
 9821SOL     OW32864   0.143   4.923   2.922  0.3924 -0.2507  0.0849
 9821SOL    HW132865   0.153   4.908   3.016  0.1536 -0.4111  0.0841
 9821SOL    HW232866   0.095   5.006   2.916 -1.3290 -1.2019  0.1369
 9822SOL     OW32867   4.187   0.533   4.090  0.1278  0.0458 -0.1868
 9822SOL    HW132868   4.245   0.459   4.108  1.9400  1.0979 -1.3627
 9822SOL    HW232869   4.185   0.540   3.995 -0.6598  1.0106 -0.1170
 9823SOL     OW32870   3.332   3.201   3.894  0.4084  0.6246  0.1454
 9823SOL    HW132871   3.374   3.198   3.980 -1.0834 -1.1425  0.8870
 9823SOL    HW232872   3.356   3.118   3.853 -1.8545 -0.2088  0.3936
 9824SOL     OW32873   8.696   3.786   9.070 -0.2004  0.0501 -0.9522
 9824SOL    HW132874   8.693   3.770   9.164 -1.6118  1.6709 -0.6807
 9824SOL    HW232875   8.608   3.766   9.039  0.4242 -1.0966 -2.0751
 9825SOL     OW32876   2.744   7.325   2.923 -0.0892 -0.6490  0.4408
 9825SOL    HW132877   2.653   7.345   2.947 -0.2522  1.0945 -1.3797
 9825SOL    HW232878   2.737   7.250   2.864 -0.3808 -0.3851  0.1349
 9826SOL     OW32879   2.134   1.337   5.318  0.2299 -0.0212 -0.1638
 9826SOL    HW132880   2.154   1.248   5.347 -1.4476 -0.7697 -1.1508
 9826SOL    HW232881   2.217   1.372   5.286  0.7292 -1.5906 -0.6450
 9827SOL     OW32882   2.005   8.039   3.409  0.6394 -0.1208 -0.5924
 9827SOL    HW132883   2.043   8.108   3.464  1.3173 -1.4149  0.6365
 9827SOL    HW232884   1.917   8.071   3.389 -0.4166 -0.3637  2.8811
 9828SOL     OW32885   0.022   5.939   6.640  0.0727 -0.5094  0.0544
 9828SOL    HW132886   0.085   6.009   6.654  1.4631 -1.6888 -0.1116
 9828SOL    HW232887  -0.062   5.984   6.629  1.0248  1.1629 -0.7603
 9829SOL     OW32888   2.709   8.584   2.518  0.4463  0.5122  0.3194
 9829SOL    HW132889   2.673   8.503   2.553 -1.3970  0.3216 -1.7973
 9829SOL    HW232890   2.729   8.564   2.427 -0.2029  2.4550 -0.3084
 9830SOL     OW32891   4.316   7.118   4.831  0.3022 -0.6715 -0.1837
 9830SOL    HW132892   4.306   7.099   4.924  0.1889  0.2691  0.0047
 9830SOL    HW232893   4.226   7.136   4.801  0.2709 -1.4413 -0.5921
 9831SOL     OW32894   1.016   6.915   9.349 -0.5380 -0.5440 -0.0645
 9831SOL    HW132895   0.941   6.967   9.322 -1.8033 -2.4043 -0.3495
 9831SOL    HW232896   1.092   6.966   9.321 -1.6771  1.1880 -0.1681
 9832SOL     OW32897  10.919   0.225   9.956 -0.1223 -0.4757 -0.1379
 9832SOL    HW132898  10.936   0.131   9.948  0.5860 -0.4430  0.7691
 9832SOL    HW232899  10.872   0.234  10.039  0.1169  0.0110 -0.0509
 9833SOL     OW32900   7.252   8.053  10.150 -0.2507  0.0536 -0.6104
 9833SOL    HW132901   7.307   8.051  10.072 -1.3706 -0.4137 -1.4085
 9833SOL    HW232902   7.284   7.980  10.203 -0.0812 -0.1911 -1.0441
 9834SOL     OW32903   6.096   7.220   8.582 -0.1926  0.4128  0.2849
 9834SOL    HW132904   6.074   7.133   8.549  0.0016 -0.1178  1.4942
 9834SOL    HW232905   6.135   7.204   8.668 -0.2641  1.7031  0.5798
 9835SOL     OW32906  10.875  10.023   0.893  0.0410  0.0078 -0.1027
 9835SOL    HW132907  10.796   9.984   0.931 -0.4694  1.8335  0.8377
 9835SOL    HW232908  10.845  10.064   0.811  0.4592 -1.0562 -0.8050
 9836SOL     OW32909  10.128   7.283   9.545 -0.2154 -0.3612  0.1006
 9836SOL    HW132910  10.128   7.289   9.449 -2.7505  0.1868  0.0695
 9836SOL    HW232911  10.131   7.374   9.575  1.4360 -0.5414  0.6323
 9837SOL     OW32912   5.917   5.412   3.426 -0.2081 -0.3064  0.1658
 9837SOL    HW132913   5.851   5.459   3.477 -0.4175 -0.7396  0.2972
 9837SOL    HW232914   5.914   5.322   3.459 -1.6246 -1.0495 -1.8289
 9838SOL     OW32915   5.373   8.576   6.685 -0.2000  0.5008 -0.0419
 9838SOL    HW132916   5.318   8.607   6.757  0.0463  1.6296 -0.3174
 9838SOL    HW232917   5.353   8.636   6.613  0.0934 -0.1651 -0.6868
 9839SOL     OW32918   0.669   8.669   3.171 -0.6386  0.3673  0.0118
 9839SOL    HW132919   0.616   8.599   3.208 -2.4054  2.0181  0.7594
 9839SOL    HW232920   0.674   8.649   3.077  0.4857 -1.7008  0.4568
 9840SOL     OW32921   4.662   7.720   7.826 -0.5387 -0.4217  0.4887
 9840SOL    HW132922   4.577   7.679   7.815 -0.4043 -0.6201  0.1782
 9840SOL    HW232923   4.724   7.659   7.786 -0.3866  0.2803 -0.3762
 9841SOL     OW32924   2.678   1.411   1.501  0.1789  0.0055 -0.2374
 9841SOL    HW132925   2.646   1.467   1.430 -1.1447 -0.6059 -0.1341
 9841SOL    HW232926   2.737   1.468   1.551 -0.0232  0.8736 -0.9598
 9842SOL     OW32927   5.573   9.787   9.417 -0.1857 -0.6532 -0.0408
 9842SOL    HW132928   5.497   9.838   9.387 -0.4088 -0.8623  0.1567
 9842SOL    HW232929   5.540   9.697   9.422 -0.2441 -0.5871  1.0764
 9843SOL     OW32930   8.663   2.109   5.861  0.1330  0.7022  0.2076
 9843SOL    HW132931   8.656   2.204   5.857 -1.3723  0.6160 -0.1397
 9843SOL    HW232932   8.736   2.091   5.920  0.7491  2.0663 -0.1213
 9844SOL     OW32933   2.857   3.297   8.501  0.4364  0.1519  0.8761
 9844SOL    HW132934   2.883   3.205   8.503 -1.0419 -0.3217  0.0063
 9844SOL    HW232935   2.911   3.336   8.433 -0.6237 -0.6679 -0.4785
 9845SOL     OW32936   4.116   2.948   0.357 -0.1651 -0.3227  0.0074
 9845SOL    HW132937   4.150   2.972   0.444 -0.8291 -0.5136  0.3285
 9845SOL    HW232938   4.179   2.885   0.323 -0.1097 -0.5554  0.5261
 9846SOL     OW32939   8.446   8.802   2.121  0.2900 -0.3848 -0.0261
 9846SOL    HW132940   8.538   8.776   2.133 -0.1914 -1.7753  0.9926
 9846SOL    HW232941   8.409   8.801   2.210  0.1876  4.1060  0.1970
 9847SOL     OW32942   3.870   1.381   4.785  0.1548 -0.1900  0.3153
 9847SOL    HW132943   3.883   1.351   4.875  0.1952 -0.8363  0.0939
 9847SOL    HW232944   3.820   1.463   4.795 -0.2883 -0.5207  0.9034
 9848SOL     OW32945   5.682   7.670   0.549 -0.2771  0.3593  0.1638
 9848SOL    HW132946   5.740   7.708   0.615 -3.6266  3.0028  1.9521
 9848SOL    HW232947   5.608   7.635   0.600 -1.6284 -0.1533 -2.0355
 9849SOL     OW32948   1.169   4.508   6.563 -0.2258  0.1187 -0.5967
 9849SOL    HW132949   1.237   4.485   6.499 -0.5371 -0.6290 -0.6562
 9849SOL    HW232950   1.146   4.598   6.540  1.3287  0.7022 -0.0573
 9850SOL     OW32951  10.243   6.609   6.574  0.3324  0.0625 -0.5295
 9850SOL    HW132952  10.210   6.620   6.485 -2.6747 -2.0232  0.1826
 9850SOL    HW232953  10.335   6.636   6.569 -0.2774  2.0096 -3.7341
 9851SOL     OW32954   1.863   5.607   1.821 -0.1959  0.4692  0.6219
 9851SOL    HW132955   1.912   5.608   1.738  1.1774 -1.1253  1.3680
 9851SOL    HW232956   1.909   5.670   1.876 -0.5942  0.8952  0.4775
 9852SOL     OW32957   0.910   7.753   0.876 -0.2006  0.5604  0.0059
 9852SOL    HW132958   0.911   7.803   0.957 -0.2712  0.6794 -0.0657
 9852SOL    HW232959   1.002   7.735   0.857 -0.1758  0.6619  0.0316
 9853SOL     OW32960   6.856   1.975   7.272 -0.4616 -0.3867 -0.0830
 9853SOL    HW132961   6.762   1.963   7.287 -0.5309 -1.2360 -1.0506
 9853SOL    HW232962   6.897   1.955   7.356 -1.0837 -0.9134  0.1049
 9854SOL     OW32963   4.252   7.287   5.219 -0.3434  0.2058 -0.4339
 9854SOL    HW132964   4.216   7.309   5.134 -1.9124 -1.0070 -0.1202
 9854SOL    HW232965   4.207   7.345   5.280 -1.5054 -1.0126 -0.0934
 9855SOL     OW32966   9.740   7.177   5.420 -0.0438 -0.1815  0.2107
 9855SOL    HW132967   9.833   7.171   5.443 -0.1401  1.0158  1.0217
 9855SOL    HW232968   9.696   7.195   5.503 -0.9466 -0.2352 -0.2424
 9856SOL     OW32969   5.016   4.689   6.480  0.3138 -0.1303 -0.1421
 9856SOL    HW132970   5.106   4.712   6.454  0.2388  1.2553  0.7288
 9856SOL    HW232971   4.961   4.729   6.413  0.2735  0.4687  0.2479
 9857SOL     OW32972   1.543   7.637   2.356 -0.1458  0.8919  0.4463
 9857SOL    HW132973   1.478   7.584   2.310 -0.8872  1.2829  1.0182
 9857SOL    HW232974   1.608   7.573   2.387 -0.5968  0.4179  0.4289
 9858SOL     OW32975   8.208   4.528   7.548  0.0075 -0.1059  0.3543
 9858SOL    HW132976   8.258   4.600   7.509 -0.9981  1.1655  1.3345
 9858SOL    HW232977   8.161   4.490   7.474 -0.2767  0.9433 -0.0305
 9859SOL     OW32978   8.716   3.646   2.026 -0.3963  0.5753 -0.4459
 9859SOL    HW132979   8.626   3.653   1.994 -0.3670 -2.5600 -1.5970
 9859SOL    HW232980   8.710   3.658   2.120 -1.4907  3.4407 -0.7852
 9860SOL     OW32981   1.317   9.010   9.695  0.3435  0.5587  0.2479
 9860SOL    HW132982   1.314   8.964   9.779  0.8324 -0.1566 -0.1074
 9860SOL    HW232983   1.327   9.102   9.718  1.9656  0.2427  0.9934
 9861SOL     OW32984   7.954  10.710   3.834  0.7164  0.2977 -0.3951
 9861SOL    HW132985   8.035  10.659   3.828  0.5137  0.0058 -0.6373
 9861SOL    HW232986   7.922  10.693   3.923  0.5225 -0.1919 -0.5563
 9862SOL     OW32987   4.102   7.118   6.206  0.6528 -0.5310  0.1158
 9862SOL    HW132988   4.156   7.081   6.136  2.1933  1.9975 -0.1466
 9862SOL    HW232989   4.018   7.138   6.164  1.1680 -0.1017 -0.7278
 9863SOL     OW32990   9.149   5.641  10.891  0.7985  0.7364  0.4253
 9863SOL    HW132991   9.097   5.575  10.846  1.0768  0.2791  0.7548
 9863SOL    HW232992   9.210   5.674  10.825  1.8967 -0.6595  0.6862
 9864SOL     OW32993  10.579   0.265   4.784 -0.2210 -0.0242  0.1706
 9864SOL    HW132994  10.491   0.234   4.763 -0.1359 -0.2989  0.2264
 9864SOL    HW232995  10.621   0.277   4.699 -0.0734 -0.5758  0.1648
 9865SOL     OW32996   5.491   0.458   8.351  0.1171 -0.0382 -0.2480
 9865SOL    HW132997   5.445   0.453   8.267  0.0430  2.4250 -0.4314
 9865SOL    HW232998   5.580   0.430   8.331  0.6902  2.5219 -1.7309
 9866SOL     OW32999   1.032   3.550   1.944 -0.0607 -0.1738  0.4125
 9866SOL    HW133000   1.127   3.538   1.935  0.1838  0.5390  1.7523
 9866SOL    HW233001   1.015   3.636   1.907 -0.0187  0.1153  1.0500
 9867SOL     OW33002   5.361   5.031   5.126  0.4649 -0.0710  0.3059
 9867SOL    HW133003   5.413   4.995   5.198  1.5620 -0.1500 -0.5033
 9867SOL    HW233004   5.322   4.953   5.084  2.4655 -0.3669 -1.1580
 9868SOL     OW33005   7.587   4.358   2.870  0.1007  0.0974 -0.1983
 9868SOL    HW133006   7.543   4.443   2.870 -0.7254 -0.3082  0.2356
 9868SOL    HW233007   7.555   4.315   2.790 -0.5293 -0.2985  0.2493
 9869SOL     OW33008   9.712   3.696   1.544 -0.6408 -0.2128 -0.1165
 9869SOL    HW133009   9.629   3.741   1.529 -1.0000 -1.1071 -0.8983
 9869SOL    HW233010   9.734   3.657   1.459  2.0202  2.3047 -0.7444
 9870SOL     OW33011   0.147   3.463   1.429 -0.0509 -0.1474 -0.6095
 9870SOL    HW133012   0.240   3.470   1.450 -0.6190  0.2690  2.0982
 9870SOL    HW233013   0.132   3.369   1.420  0.1156 -0.4570  1.8573
 9871SOL     OW33014   9.301   1.467   9.345 -0.1721  0.2797  0.3764
 9871SOL    HW133015   9.336   1.513   9.268  0.5347 -0.2276  0.3868
 9871SOL    HW233016   9.242   1.401   9.309 -1.6352  1.5247  0.3841
 9872SOL     OW33017  10.857   3.683   9.538 -0.4279 -0.3903  0.3147
 9872SOL    HW133018  10.848   3.689   9.633 -1.5235 -0.8987  0.2605
 9872SOL    HW233019  10.878   3.772   9.510 -4.2627  0.7771  0.6521
 9873SOL     OW33020   0.282   7.061  10.552  0.2094  0.0896  0.0933
 9873SOL    HW133021   0.222   7.004  10.503  0.4667 -0.7286  0.6943
 9873SOL    HW233022   0.346   7.090  10.488 -0.0517 -0.1360 -0.2741
 9874SOL     OW33023   9.126   1.827  10.003 -0.1560 -0.5859 -0.2566
 9874SOL    HW133024   9.188   1.861  10.068  0.4763 -2.7601  0.3718
 9874SOL    HW233025   9.152   1.869   9.921  1.3069 -0.4575  0.2428
 9875SOL     OW33026   7.566  10.293   3.105 -0.1375  0.0406  0.8855
 9875SOL    HW133027   7.629  10.341   3.158  2.1660 -0.5442 -1.1506
 9875SOL    HW233028   7.594  10.202   3.110 -0.4412 -0.1571 -0.5285
 9876SOL     OW33029   2.229   3.460   1.434  0.3561 -0.1933  0.4797
 9876SOL    HW133030   2.199   3.482   1.522 -1.3564  2.3466 -0.6189
 9876SOL    HW233031   2.161   3.402   1.399 -0.7764  1.5343 -0.2838
 9877SOL     OW33032   3.501   9.724   9.552  0.1966  0.1147 -0.4719
 9877SOL    HW133033   3.558   9.784   9.505  0.8234 -0.1721 -0.0923
 9877SOL    HW233034   3.463   9.668   9.485  1.1454 -0.3448 -0.6341
 9878SOL     OW33035   6.095   8.493  10.635  0.3366 -0.0886 -0.0154
 9878SOL    HW133036   6.074   8.562  10.572  0.5100  0.8735  0.9479
 9878SOL    HW233037   6.140   8.427  10.584 -0.4656  0.1765 -1.1044
 9879SOL     OW33038   7.126   8.155   4.030 -0.5647  0.3001 -0.1493
 9879SOL    HW133039   7.076   8.154   4.111 -2.9131 -0.2057 -1.5090
 9879SOL    HW233040   7.191   8.084   4.041  1.5490  2.4159  2.5283
 9880SOL     OW33041   9.404   9.309   4.299 -0.1541 -0.1010 -0.4749
 9880SOL    HW133042   9.494   9.340   4.306  0.0057 -0.3104 -1.5630
 9880SOL    HW233043   9.357   9.356   4.369  0.4289  1.3355 -1.0219
 9881SOL     OW33044   5.013   2.402   7.135 -0.5341 -0.0950  0.4539
 9881SOL    HW133045   4.951   2.474   7.126  1.5611  1.6189 -1.3773
 9881SOL    HW233046   4.984   2.337   7.071  0.0833  1.1421 -1.1326
 9882SOL     OW33047   0.957   0.281   7.364  0.5791 -0.1841  0.3156
 9882SOL    HW133048   0.921   0.331   7.291 -1.7211  0.0010  1.4998
 9882SOL    HW233049   1.018   0.342   7.406 -2.0118  1.7144  1.6194
 9883SOL     OW33050   4.095   6.184   5.309  0.0216  0.6020 -0.3477
 9883SOL    HW133051   4.172   6.138   5.274 -0.1155 -1.6425  1.9366
 9883SOL    HW233052   4.025   6.118   5.306 -1.0292  1.6625  0.2867
 9884SOL     OW33053   6.695   6.270   1.340  0.2295  0.8341 -0.2899
 9884SOL    HW133054   6.668   6.189   1.384  3.0166  0.6350  1.3201
 9884SOL    HW233055   6.698   6.247   1.247 -1.7290 -0.0022 -0.2012
 9885SOL     OW33056   4.546   7.818   9.692  0.2741 -0.0867  0.0355
 9885SOL    HW133057   4.459   7.853   9.675  0.9339  1.6537  0.0292
 9885SOL    HW233058   4.604   7.867   9.634  1.2457 -1.4877 -0.2534
 9886SOL     OW33059   1.639   1.189  10.493 -0.4470 -0.4267 -0.3545
 9886SOL    HW133060   1.714   1.236  10.456 -1.1687  1.2614  0.2545
 9886SOL    HW233061   1.676   1.106  10.524  1.2960  0.6191  0.5042
 9887SOL     OW33062   7.774   3.802   2.110 -0.3240  0.5836 -0.2647
 9887SOL    HW133063   7.812   3.754   2.037 -0.4726  1.3378 -0.8552
 9887SOL    HW233064   7.847   3.818   2.170 -0.0263  0.6662 -0.6442
 9888SOL     OW33065   8.350   9.580   8.159 -0.6328 -0.1757  0.1222
 9888SOL    HW133066   8.285   9.516   8.131  0.1339 -0.7597 -0.3530
 9888SOL    HW233067   8.419   9.528   8.200 -0.4383  0.4351  0.5869
 9889SOL     OW33068   4.448   2.371   5.333  0.2522 -0.0121  0.6317
 9889SOL    HW133069   4.367   2.418   5.354 -0.3787 -0.9521  0.3434
 9889SOL    HW233070   4.500   2.377   5.414 -0.2542  0.2794  0.9437
 9890SOL     OW33071   9.544   7.389   1.936  0.4453  0.5211  0.1771
 9890SOL    HW133072   9.591   7.411   2.016  0.6929 -0.1020  0.2105
 9890SOL    HW233073   9.452   7.381   1.963  0.7889 -1.8591  0.8883
 9891SOL     OW33074   1.041  10.650   5.969 -0.0190  0.0364  0.0861
 9891SOL    HW133075   0.989  10.667   5.891 -0.7047 -0.1398  0.4927
 9891SOL    HW233076   0.978  10.653   6.041  0.4511 -0.6690  0.5458
 9892SOL     OW33077   9.282  10.463   9.231  0.0422  0.2254 -0.4814
 9892SOL    HW133078   9.375  10.464   9.254  0.1622  0.7029 -0.9717
 9892SOL    HW233079   9.268  10.545   9.183 -0.8779  0.6986  0.5439
 9893SOL     OW33080  10.171   7.705   4.476 -0.1143 -0.0489 -0.0939
 9893SOL    HW133081  10.082   7.673   4.487  0.4229 -1.2128  1.3463
 9893SOL    HW233082  10.220   7.630   4.442  0.6210  0.0500  0.6893
 9894SOL     OW33083   0.568   3.884   5.559 -0.0886 -0.1425  0.0908
 9894SOL    HW133084   0.519   3.941   5.500 -0.4900  0.5178  1.0395
 9894SOL    HW233085   0.521   3.801   5.558 -2.4895  1.0297  2.4697
 9895SOL     OW33086   8.337   1.048   5.238 -0.7407 -0.3845 -0.3015
 9895SOL    HW133087   8.345   0.977   5.301  1.8656 -0.0813 -0.1569
 9895SOL    HW233088   8.310   1.124   5.290  1.4482 -0.1201  0.5836
 9896SOL     OW33089   1.250   1.547   6.769 -0.2261 -0.1486  0.2122
 9896SOL    HW133090   1.246   1.469   6.714  1.2203 -0.3595  0.3615
 9896SOL    HW233091   1.165   1.549   6.813 -0.1529 -1.9027  0.5437
 9897SOL     OW33092   8.855   0.016   6.350 -0.1808  0.0469  0.3354
 9897SOL    HW133093   8.845   0.103   6.311  0.5184 -0.3943 -0.8878
 9897SOL    HW233094   8.946   0.014   6.380  0.1070 -0.5962 -0.5465
 9898SOL     OW33095   9.885   0.412   7.703  0.6074  0.2740 -0.2855
 9898SOL    HW133096   9.963   0.357   7.698  0.3533 -0.0893 -0.3229
 9898SOL    HW233097   9.857   0.405   7.795  0.9260  0.8340 -0.1461
 9899SOL     OW33098   0.221   5.483   1.913  0.4271 -0.2108  0.2331
 9899SOL    HW133099   0.230   5.483   1.817 -0.8860 -0.5845  0.0898
 9899SOL    HW233100   0.200   5.574   1.934 -0.0649 -0.2758  0.0608
 9900SOL     OW33101   8.804   1.116   2.003  0.4169  0.2327 -0.0881
 9900SOL    HW133102   8.835   1.111   1.913  1.1490 -0.6582  0.2034
 9900SOL    HW233103   8.811   1.027   2.036 -0.3384  0.4500  0.6952
 9901SOL     OW33104   6.669   1.511   4.407  0.0150  0.0625 -0.3994
 9901SOL    HW133105   6.732   1.441   4.421 -1.0776 -0.7950  0.3844
 9901SOL    HW233106   6.709   1.567   4.341  2.5069  0.6466  1.4628
 9902SOL     OW33107   9.040  10.042  10.698 -0.5099 -0.1075 -0.2345
 9902SOL    HW133108   8.995  10.096  10.764 -1.4984  1.3525 -1.9977
 9902SOL    HW233109   9.131  10.039  10.727 -0.7917  1.0603  0.8427
 9903SOL     OW33110   7.509   8.910   3.309  0.4115 -0.0552  0.6072
 9903SOL    HW133111   7.584   8.930   3.253 -0.1600  0.9977  0.1956
 9903SOL    HW233112   7.497   8.988   3.362 -0.5340 -0.1274  0.5100
 9904SOL     OW33113   0.453   3.598  10.374  0.2663  0.1027  0.2618
 9904SOL    HW133114   0.413   3.602  10.287  2.1530 -0.1166 -0.6586
 9904SOL    HW233115   0.402   3.659  10.427 -1.7799 -0.7459 -0.5990
 9905SOL     OW33116   7.828  10.643  10.856  0.0710 -0.9092 -0.0022
 9905SOL    HW133117   7.872  10.725  10.876 -0.0144 -1.2281  1.6405
 9905SOL    HW233118   7.743  10.650  10.898 -0.2942 -1.4887 -0.6130
 9906SOL     OW33119   9.355   6.524   6.966 -0.2484 -0.3206  0.7644
 9906SOL    HW133120   9.394   6.553   7.048  0.1283  0.1483  0.4234
 9906SOL    HW233121   9.346   6.604   6.914  1.0336 -0.8163 -0.2854
 9907SOL     OW33122   8.215   4.366   8.947 -0.5138  0.1713 -0.1717
 9907SOL    HW133123   8.193   4.370   8.854  1.2301 -2.4499 -0.8085
 9907SOL    HW233124   8.140   4.405   8.991 -2.6927 -1.0621 -2.5423
 9908SOL     OW33125   1.913  10.002   8.056 -0.0733  0.1566  0.4351
 9908SOL    HW133126   1.903  10.025   8.148  2.2525 -0.0808  0.7818
 9908SOL    HW233127   1.888   9.910   8.052 -0.6041  0.2812  0.7296
 9909SOL     OW33128   5.191  10.759   5.350 -0.3773 -0.1129  0.7210
 9909SOL    HW133129   5.206  10.712   5.432 -2.1359 -0.5615  0.8375
 9909SOL    HW233130   5.127  10.705   5.303 -2.0439  1.8372  0.6041
 9910SOL     OW33131   2.818  10.426  10.392 -0.2636 -0.2635  0.2275
 9910SOL    HW133132   2.780  10.376  10.320 -0.2370 -0.6579  0.4778
 9910SOL    HW233133   2.746  10.476  10.428 -1.3144 -3.0598  2.4472
 9911SOL     OW33134   1.670   1.637   4.092 -0.3598  0.0564  0.3488
 9911SOL    HW133135   1.675   1.611   4.184 -0.2846  0.5833  0.4927
 9911SOL    HW233136   1.657   1.554   4.045 -0.8263 -0.1708  0.8645
 9912SOL     OW33137   8.010   1.350   5.764  0.2190  0.2189 -0.1969
 9912SOL    HW133138   7.979   1.366   5.675 -0.2972  0.9203  0.0995
 9912SOL    HW233139   8.036   1.258   5.764  0.4900  0.2872 -1.1475
 9913SOL     OW33140   9.708   3.828   9.419 -0.0756  0.2633 -0.0783
 9913SOL    HW133141   9.628   3.784   9.388  0.9560 -1.3437 -0.6054
 9913SOL    HW233142   9.676   3.897   9.476 -1.8351 -1.9009  1.7700
 9914SOL     OW33143   4.418   8.716   2.653  0.0713  0.3840  0.0158
 9914SOL    HW133144   4.359   8.754   2.717  1.1579 -0.0416  1.3145
 9914SOL    HW233145   4.442   8.789   2.596 -0.8759  0.7778  0.1194
 9915SOL     OW33146  10.168   4.789   4.298  0.1513  0.6136 -1.0088
 9915SOL    HW133147  10.073   4.789   4.290  0.1747 -1.8507 -2.2888
 9915SOL    HW233148  10.191   4.882   4.307 -2.2609  1.3984 -1.9344
 9916SOL     OW33149   9.552   7.409   9.334  0.5731  0.5776  0.0510
 9916SOL    HW133150   9.630   7.463   9.348 -0.6148  2.1197  1.0315
 9916SOL    HW233151   9.497   7.426   9.410 -0.7095 -0.5318 -0.5841
 9917SOL     OW33152   3.030   9.433  10.299  0.6818 -0.4758  0.4839
 9917SOL    HW133153   2.992   9.396  10.220  1.3142 -0.5503  0.2018
 9917SOL    HW233154   3.014   9.368  10.367  0.1481 -0.4175  0.4137
 9918SOL     OW33155   5.761   0.666   5.098  0.3508  0.7934  0.2104
 9918SOL    HW133156   5.819   0.592   5.114  1.0939  1.1552 -0.7139
 9918SOL    HW233157   5.810   0.743   5.126  0.3698  1.1096 -0.6423
 9919SOL     OW33158   8.307   6.600   2.052 -0.1056  0.2049  0.1722
 9919SOL    HW133159   8.248   6.567   2.120  0.0693  0.2953  0.3687
 9919SOL    HW233160   8.388   6.621   2.099  0.0783  0.0939 -0.0940
 9920SOL     OW33161   8.631   6.659   2.348 -0.2980  0.3801  0.3419
 9920SOL    HW133162   8.636   6.740   2.399  1.3728  2.1130 -2.3400
 9920SOL    HW233163   8.722   6.635   2.332 -0.7571 -0.4311 -1.2710
 9921SOL     OW33164   5.157   2.480   4.016 -0.0046 -0.0475 -0.2389
 9921SOL    HW133165   5.249   2.456   4.022 -0.2351 -0.9147 -0.0071
 9921SOL    HW233166   5.149   2.561   4.067  0.8532  0.7492 -1.3078
 9922SOL     OW33167   2.968   6.129   0.653 -0.6263 -0.0008 -0.0042
 9922SOL    HW133168   2.943   6.198   0.714 -1.1407 -0.5376  0.4066
 9922SOL    HW233169   2.995   6.175   0.574  0.2349  0.7135  0.6838
 9923SOL     OW33170   8.249   2.738   4.856 -0.6330 -0.1154 -0.3888
 9923SOL    HW133171   8.247   2.650   4.893  1.7549 -0.5707 -1.1313
 9923SOL    HW233172   8.229   2.796   4.929 -0.7910 -1.2192  0.4580
 9924SOL     OW33173   8.280   4.796   6.865  0.1026  0.3113 -0.1076
 9924SOL    HW133174   8.216   4.856   6.903 -1.5091 -0.3156 -1.6440
 9924SOL    HW233175   8.365   4.837   6.880 -0.5119  0.7181  2.8716
 9925SOL     OW33176   7.695   9.428   4.932  0.3518 -0.4198 -0.6798
 9925SOL    HW133177   7.643   9.418   5.012  1.0514 -0.1381 -0.1665
 9925SOL    HW233178   7.664   9.359   4.874  0.3931 -1.1725  0.1615
 9926SOL     OW33179   1.172   6.341  10.400  0.8021  0.1134  0.1760
 9926SOL    HW133180   1.115   6.391  10.341 -1.4262 -1.8910  0.4543
 9926SOL    HW233181   1.140   6.361  10.488 -0.3870 -1.8928  0.2813
 9927SOL     OW33182  10.051  10.196   0.230  0.1434 -0.2759  0.1399
 9927SOL    HW133183  10.066  10.102   0.244  0.1553 -0.3431 -0.3161
 9927SOL    HW233184   9.960  10.211   0.256  0.7469  0.0158  2.3477
 9928SOL     OW33185   6.976   1.810   4.845  0.0241 -0.1003  0.5077
 9928SOL    HW133186   7.043   1.802   4.777  0.2952  0.8260  0.6612
 9928SOL    HW233187   6.899   1.768   4.807  0.6353 -1.0665  0.2780
 9929SOL     OW33188   6.232   2.790  10.325  0.1925  0.1907 -0.2132
 9929SOL    HW133189   6.181   2.840  10.261  0.3163  0.8356  0.1782
 9929SOL    HW233190   6.296   2.854  10.359 -0.2522  0.0216  0.9743
 9930SOL     OW33191   3.969   5.640   9.463 -0.0561 -0.8719  0.3044
 9930SOL    HW133192   3.903   5.597   9.518 -0.2552 -0.8908  0.0546
 9930SOL    HW233193   4.017   5.697   9.523  0.9010 -2.2203  0.8457
 9931SOL     OW33194   6.419  10.579   8.781  0.0269  0.9030 -1.0397
 9931SOL    HW133195   6.378  10.618   8.704 -0.4348  0.1680 -1.1794
 9931SOL    HW233196   6.394  10.635   8.854 -0.2699  1.1009 -1.2954
 9932SOL     OW33197   2.100   1.084   3.746 -0.6939 -0.2803  0.6299
 9932SOL    HW133198   2.081   1.054   3.657  0.3046 -0.5640  0.5005
 9932SOL    HW233199   2.123   1.005   3.793 -1.5924 -0.1855  1.2638
 9933SOL     OW33200   5.946   6.750  10.352 -0.2411 -0.3004  0.0954
 9933SOL    HW133201   6.028   6.753  10.301  1.1246  0.1037  2.2101
 9933SOL    HW233202   5.974   6.744  10.443 -2.5668  1.5858  1.0255
 9934SOL     OW33203   7.281   0.135   7.731  0.2252  0.0003 -0.0460
 9934SOL    HW133204   7.327   0.051   7.730  1.1291  0.4897 -0.4343
 9934SOL    HW233205   7.237   0.139   7.646  0.1349 -0.1076 -0.0044
 9935SOL     OW33206   3.587  10.714   6.002 -0.3603 -0.3551  0.2884
 9935SOL    HW133207   3.642  10.762   5.940  0.3892 -1.5363 -0.0001
 9935SOL    HW233208   3.497  10.739   5.978  0.0043  1.3946  0.5954
 9936SOL     OW33209   8.939   7.639   5.718  0.3111 -0.5267 -0.0467
 9936SOL    HW133210   8.989   7.574   5.668  1.0540 -0.3866  0.5030
 9936SOL    HW233211   8.920   7.707   5.654 -1.9540 -2.0126 -1.0923
 9937SOL     OW33212   3.715   0.275   8.351 -0.4114 -0.2812  0.2611
 9937SOL    HW133213   3.677   0.220   8.419 -2.8236 -0.9662 -1.4700
 9937SOL    HW233214   3.725   0.361   8.392 -3.2814 -0.2482  1.1440
 9938SOL     OW33215   7.039   7.070   2.038 -0.1430 -0.4494 -0.2975
 9938SOL    HW133216   7.092   7.083   1.960  0.7388  0.4972  0.4209
 9938SOL    HW233217   6.949   7.082   2.009  0.2380  0.9367 -0.9733
 9939SOL     OW33218   9.698   8.169   2.703 -0.1044  0.1230  0.1516
 9939SOL    HW133219   9.732   8.113   2.773  0.5595  0.0942 -0.1834
 9939SOL    HW233220   9.654   8.108   2.643  1.5403 -0.2288 -0.7730
 9940SOL     OW33221   4.754   4.014   5.025  0.2779  0.4100 -0.7275
 9940SOL    HW133222   4.705   4.095   5.036 -0.3704  0.0126 -0.6183
 9940SOL    HW233223   4.691   3.945   5.044  1.5594 -0.1129  2.1923
 9941SOL     OW33224   9.424   6.573   2.217  0.0443 -0.4708  0.0260
 9941SOL    HW133225   9.516   6.594   2.201  0.2056 -0.6321  0.6821
 9941SOL    HW233226   9.413   6.589   2.311 -0.5175 -0.7495  0.0077
 9942SOL     OW33227   3.153   9.363  10.868  0.3405 -0.7860 -0.3088
 9942SOL    HW133228   3.097   9.418  10.922 -0.0112  1.1575 -2.4882
 9942SOL    HW233229   3.216   9.324  10.929 -1.2516 -0.3410  1.7157
 9943SOL     OW33230   9.771   1.224   7.197  0.1167 -0.5982 -0.1705
 9943SOL    HW133231   9.803   1.313   7.182 -0.2712 -0.7989 -2.4706
 9943SOL    HW233232   9.748   1.223   7.290  4.3669  0.2923  1.1185
 9944SOL     OW33233   0.780   1.301   5.785 -0.0520 -0.1249  0.6550
 9944SOL    HW133234   0.869   1.267   5.777  0.2918  0.6949  0.9375
 9944SOL    HW233235   0.733   1.233   5.832  0.2551 -0.8591 -0.0788
 9945SOL     OW33236   7.551   9.838   1.960  0.1365 -0.5505  0.7775
 9945SOL    HW133237   7.626   9.780   1.974  0.1259 -0.6228  0.5433
 9945SOL    HW233238   7.568   9.879   1.875  0.5301  0.3789  1.2782
 9946SOL     OW33239   3.655   7.056   2.064  0.3630  0.0991 -0.4860
 9946SOL    HW133240   3.741   7.067   2.105  0.5180  0.4976 -0.9132
 9946SOL    HW233241   3.675   7.019   1.978  0.1848  1.1912 -1.0095
 9947SOL     OW33242   3.490   8.915   3.394 -0.1084  0.3729 -0.1344
 9947SOL    HW133243   3.540   8.839   3.423  0.7463  0.8991 -0.1909
 9947SOL    HW233244   3.400   8.884   3.387  0.5529 -1.2557 -2.3890
 9948SOL     OW33245   9.601   5.825   1.916  0.2575  0.3249 -0.0543
 9948SOL    HW133246   9.681   5.853   1.960 -0.5053  0.2794  1.4170
 9948SOL    HW233247   9.564   5.905   1.879  1.1760  0.2812 -1.0942
 9949SOL     OW33248   7.040   0.577   0.007  0.0016 -0.5181  0.1526
 9949SOL    HW133249   7.022   0.569   0.101 -0.0679  1.5159  0.3660
 9949SOL    HW233250   7.129   0.546  -0.003 -1.0996 -4.1360  0.2422
 9950SOL     OW33251   4.605   0.220   8.786 -0.0850 -0.2641 -0.1911
 9950SOL    HW133252   4.574   0.310   8.779 -0.3065 -0.4296 -1.5654
 9950SOL    HW233253   4.526   0.167   8.795 -0.0426 -0.4489 -0.8913
 9951SOL     OW33254   5.233   9.325   3.592 -0.0326 -0.1394  0.4895
 9951SOL    HW133255   5.163   9.285   3.539 -0.4802 -0.4990  1.3249
 9951SOL    HW233256   5.312   9.312   3.540 -0.6132  0.5329 -0.6125
 9952SOL     OW33257   6.366   9.023   4.587 -0.3647  0.4967 -0.5267
 9952SOL    HW133258   6.379   8.933   4.558  2.0923  0.8230 -0.6173
 9952SOL    HW233259   6.423   9.075   4.531 -0.0676  1.8495  0.9545
 9953SOL     OW33260   5.259  10.033   6.280 -0.0936 -0.1598 -0.0811
 9953SOL    HW133261   5.225  10.035   6.191  0.8602 -0.5951 -0.4613
 9953SOL    HW233262   5.315   9.956   6.283  0.1986  0.0750  0.7787
 9954SOL     OW33263   9.116   4.591   3.979  0.2557 -0.2310  0.6264
 9954SOL    HW133264   9.133   4.569   3.887  0.1639  0.0562  0.5399
 9954SOL    HW233265   9.168   4.669   3.996  1.0990 -0.8849  1.1276
 9955SOL     OW33266   5.273   9.551   5.773 -0.1616  0.4347  0.0497
 9955SOL    HW133267   5.300   9.635   5.736  0.3678  0.3201  0.1680
 9955SOL    HW233268   5.227   9.507   5.701  0.2979  0.4801 -0.2771
 9956SOL     OW33269   5.402   3.347   2.700 -0.0899 -0.0543  0.0017
 9956SOL    HW133270   5.452   3.370   2.779 -1.8878  0.6934  0.9969
 9956SOL    HW233271   5.315   3.323   2.733 -0.9436  0.4126 -1.7617
 9957SOL     OW33272   4.539   7.735   7.006 -0.3787 -0.2277  0.0365
 9957SOL    HW133273   4.444   7.729   7.001 -0.6633  0.2154  2.9571
 9957SOL    HW233274   4.557   7.826   7.029  0.6798 -0.5027  0.3855
 9958SOL     OW33275   2.419   8.363  10.874 -0.1094  0.1808  0.5127
 9958SOL    HW133276   2.443   8.347  10.783 -0.4426 -1.0435  0.6203
 9958SOL    HW233277   2.499   8.394  10.916 -0.2000  1.7964 -0.4032
 9959SOL     OW33278   5.581   2.490   7.385 -0.0771 -0.0501 -0.0809
 9959SOL    HW133279   5.571   2.529   7.471  0.3815  1.4502 -0.6785
 9959SOL    HW233280   5.496   2.503   7.342  0.0200  0.1402 -0.2177
 9960SOL     OW33281   8.414   2.201   3.669 -0.4349  0.4873 -0.0227
 9960SOL    HW133282   8.395   2.290   3.700  0.0006  0.1271  1.3497
 9960SOL    HW233283   8.500   2.181   3.706 -0.6251 -0.5883 -0.1414
 9961SOL     OW33284   9.881   1.896   6.259 -0.6821 -0.0081 -0.0586
 9961SOL    HW133285   9.926   1.957   6.316  1.3501 -0.3808 -1.1628
 9961SOL    HW233286   9.794   1.886   6.297 -0.1048  1.3690  1.7199
 9962SOL     OW33287   3.118   0.589  10.115 -0.5670  0.4640  0.6454
 9962SOL    HW133288   3.165   0.508  10.137 -3.0558 -1.5153 -0.7590
 9962SOL    HW233289   3.165   0.624  10.039 -0.9001 -1.1245 -0.3449
 9963SOL     OW33290   2.596   1.466   7.979  0.2943 -0.1199  0.2526
 9963SOL    HW133291   2.654   1.528   7.936 -1.8611  0.7718 -1.5276
 9963SOL    HW233292   2.606   1.385   7.929  0.0597  0.0149 -0.0146
 9964SOL     OW33293   6.213   0.716   0.506  0.3546 -0.5773  0.7626
 9964SOL    HW133294   6.189   0.776   0.435  1.2155  0.2016  1.1106
 9964SOL    HW233295   6.272   0.653   0.465 -0.5142 -1.1757  0.4069
 9965SOL     OW33296   6.055   5.877   9.228  0.2278 -0.4035 -0.4734
 9965SOL    HW133297   6.142   5.869   9.265  1.4931 -0.9328 -3.3209
 9965SOL    HW233298   6.051   5.968   9.197 -0.7241 -0.0272  0.6823
 9966SOL     OW33299   2.099   7.079   4.772  0.1253 -0.1238  0.1019
 9966SOL    HW133300   2.155   7.140   4.821 -0.9311  0.5355  0.5085
 9966SOL    HW233301   2.051   7.134   4.711  0.5597 -0.8023 -0.8848
 9967SOL     OW33302   3.827   7.677   2.223 -0.3055 -0.4857  0.4080
 9967SOL    HW133303   3.760   7.741   2.199  1.9043  1.5780 -0.6590
 9967SOL    HW233304   3.857   7.641   2.140 -0.4318 -1.8103  0.9147
 9968SOL     OW33305   9.224   9.651  10.421  0.3375 -0.6034  0.1159
 9968SOL    HW133306   9.255   9.720  10.362 -0.4964 -1.4223 -1.3391
 9968SOL    HW233307   9.228   9.691  10.508  1.0908  0.8344 -0.5343
 9969SOL     OW33308   5.897   0.741   1.300 -0.0165 -0.5874  0.3044
 9969SOL    HW133309   5.852   0.808   1.350  2.2934  0.0698  1.6351
 9969SOL    HW233310   5.827   0.695   1.253 -1.8593  1.3684  0.9798
 9970SOL     OW33311   2.626   6.064  10.896 -0.0242 -0.2461 -0.4147
 9970SOL    HW133312   2.549   6.008  10.883 -0.5223  0.1489  0.7246
 9970SOL    HW233313   2.593   6.139  10.946  1.3326 -0.6553  1.1575
 9971SOL     OW33314   2.284   9.922   5.188 -0.3904 -0.1187 -0.0144
 9971SOL    HW133315   2.350   9.986   5.162 -0.9477  0.1812 -0.7266
 9971SOL    HW233316   2.277   9.931   5.283 -0.6521  1.0742 -0.1367
 9972SOL     OW33317   7.052   2.494   2.889  0.4011  0.1991 -0.2146
 9972SOL    HW133318   7.012   2.558   2.948  0.8672  1.7467 -1.4957
 9972SOL    HW233319   7.145   2.516   2.890  0.6607 -0.8370 -0.2584
 9973SOL     OW33320   0.306   8.029   5.514  0.1432  0.2592 -0.1056
 9973SOL    HW133321   0.218   8.025   5.551  0.6564  0.9565  1.2684
 9973SOL    HW233322   0.296   8.078   5.432 -1.2753 -2.6157 -1.8053
 9974SOL     OW33323   6.677   9.868   2.469 -0.1178 -0.5078 -0.6561
 9974SOL    HW133324   6.645   9.790   2.422 -1.1929 -0.8771  0.6445
 9974SOL    HW233325   6.607   9.890   2.530  0.8057  0.6050  0.0390
 9975SOL     OW33326   5.308   9.310   9.426  0.3821  0.2653  0.3357
 9975SOL    HW133327   5.352   9.226   9.437  3.4050  1.6644 -0.1013
 9975SOL    HW233328   5.260   9.302   9.344  1.2021 -0.8390 -0.0517
 9976SOL     OW33329  10.418   6.645  10.799 -0.3106  0.0161 -0.2212
 9976SOL    HW133330  10.399   6.711  10.866  2.5642 -0.0705  0.7867
 9976SOL    HW233331  10.428   6.563  10.847  0.9376 -0.2148 -0.8326
 9977SOL     OW33332   3.780   9.544   4.370 -0.0909 -0.0158  0.5365
 9977SOL    HW133333   3.838   9.468   4.373  0.1046  0.1174  0.1824
 9977SOL    HW233334   3.833   9.616   4.405  0.6341  0.5326 -1.5514
 9978SOL     OW33335   7.392   2.987   1.109 -1.2578 -0.1063 -0.4355
 9978SOL    HW133336   7.356   2.912   1.154 -1.7564 -0.4478 -1.3706
 9978SOL    HW233337   7.408   3.052   1.177 -1.4148 -0.8273  0.2917
 9979SOL     OW33338   4.711   3.134   2.283  0.0731  0.1748 -0.4947
 9979SOL    HW133339   4.686   3.223   2.306 -0.4390 -0.2968  0.9016
 9979SOL    HW233340   4.630   3.094   2.252  0.3288  0.2176 -1.2372
 9980SOL     OW33341  10.876   2.176   9.781  0.1928  0.1954  0.2189
 9980SOL    HW133342  10.846   2.127   9.704 -0.6656 -1.2905  1.4650
 9980SOL    HW233343  10.877   2.112   9.852  3.4483  0.8964  0.9638
 9981SOL     OW33344   2.653   6.311   4.257 -0.3987 -0.0361  0.5667
 9981SOL    HW133345   2.732   6.365   4.260  2.0339 -3.2854  1.6052
 9981SOL    HW233346   2.641   6.292   4.164 -0.4709  1.0876  0.3283
 9982SOL     OW33347   3.002   3.706   0.483 -0.0270  0.0732  0.4754
 9982SOL    HW133348   3.028   3.784   0.532  2.4731 -0.9213  0.9047
 9982SOL    HW233349   2.941   3.661   0.541  0.2480  0.5996  1.1972
 9983SOL     OW33350   0.259   9.027   4.180 -0.3038  0.1448  0.5199
 9983SOL    HW133351   0.210   8.945   4.190 -0.5292  0.3782  1.5111
 9983SOL    HW233352   0.322   9.010   4.110  0.3684 -1.2264  1.4254
 9984SOL     OW33353  10.692   2.115   7.969  0.0051  0.2065 -0.3378
 9984SOL    HW133354  10.651   2.185   8.019  0.8933 -0.2662  1.1126
 9984SOL    HW233355  10.653   2.035   8.003  0.2007 -0.1007 -0.8238
 9985SOL     OW33356   2.163   8.184   9.349 -0.0799 -0.1339 -0.2212
 9985SOL    HW133357   2.071   8.159   9.359 -0.4110  1.3398  0.8029
 9985SOL    HW233358   2.212   8.108   9.379 -0.9821 -0.6149  0.0648
 9986SOL     OW33359   3.070   4.917   7.363 -0.0739 -0.4254 -0.4343
 9986SOL    HW133360   3.038   5.004   7.340  1.7912 -0.0329 -1.7865
 9986SOL    HW233361   3.050   4.908   7.456  0.9764  2.0458  0.0994
 9987SOL     OW33362   8.971   4.812   2.583  0.4422 -0.0648 -0.1428
 9987SOL    HW133363   8.983   4.757   2.660  3.2184 -2.9561 -2.3650
 9987SOL    HW233364   9.037   4.882   2.593  0.0912  0.1780  0.5338
 9988SOL     OW33365   9.538   4.406   7.229  0.1060 -0.4947 -0.7508
 9988SOL    HW133366   9.462   4.356   7.261  0.3188 -0.2937  0.0869
 9988SOL    HW233367   9.606   4.340   7.218  0.4494 -0.3665  0.5552
 9989SOL     OW33368   6.826   6.609   0.402 -0.1109 -0.8194 -0.1267
 9989SOL    HW133369   6.738   6.593   0.438 -0.0364  1.2504  1.0869
 9989SOL    HW233370   6.831   6.704   0.392  1.5109 -1.0159 -1.5169
 9990SOL     OW33371   8.647  10.841   6.492 -0.2493 -0.4488 -0.1209
 9990SOL    HW133372   8.628  10.916   6.549  0.5798 -0.9176  0.8001
 9990SOL    HW233373   8.723  10.868   6.442  0.3910 -0.8549  0.6048
 9991SOL     OW33374   5.720   6.687   6.326  0.3235  0.1260  0.2157
 9991SOL    HW133375   5.789   6.621   6.316  0.2134  0.1137 -0.5071
 9991SOL    HW233376   5.664   6.652   6.395  0.1553 -0.6383 -0.2906
 9992SOL     OW33377   1.120   3.708   7.423 -0.0982 -0.3511 -0.2128
 9992SOL    HW133378   1.145   3.753   7.342 -0.5049  0.2425 -0.0114
 9992SOL    HW233379   1.202   3.672   7.456 -0.0787 -1.5173 -1.4333
 9993SOL     OW33380   2.403   5.587   5.085 -0.5485 -0.0410  0.4847
 9993SOL    HW133381   2.445   5.599   5.000 -2.1247 -0.0073 -0.3388
 9993SOL    HW233382   2.474   5.594   5.149  1.1949 -2.9268 -0.9385
 9994SOL     OW33383   7.379   8.998  10.791  0.0243  0.2928 -0.5694
 9994SOL    HW133384   7.414   8.912  10.814  2.0987  0.5516 -2.4085
 9994SOL    HW233385   7.456   9.049  10.765 -1.3972  1.9634 -1.7537
 9995SOL     OW33386   8.772   7.919   8.341 -0.2538  0.0074  0.1392
 9995SOL    HW133387   8.799   7.945   8.429 -0.4215 -0.7640  0.4299
 9995SOL    HW233388   8.793   7.826   8.337  0.8437  0.2816 -1.0564
 9996SOL     OW33389   6.199   0.805   8.427  0.4427  0.0593  0.1325
 9996SOL    HW133390   6.122   0.816   8.482 -0.8957 -1.4461 -1.3348
 9996SOL    HW233391   6.198   0.880   8.368 -0.0277 -0.0685 -0.0220
 9997SOL     OW33392   8.965   2.401   3.006 -0.4431  0.2372  0.6139
 9997SOL    HW133393   8.919   2.367   3.083 -0.5404  0.9387  0.8742
 9997SOL    HW233394   8.971   2.495   3.022 -0.2829  0.3572 -0.1478
 9998SOL     OW33395   6.619   2.944   4.331  0.1824 -0.4339 -0.2920
 9998SOL    HW133396   6.603   2.887   4.406 -0.2164  1.6692  1.3316
 9998SOL    HW233397   6.532   2.958   4.293  0.1402 -0.2012 -0.1153
 9999SOL     OW33398   3.439   7.185  10.193  0.3058 -0.7139  0.2880
 9999SOL    HW133399   3.467   7.138  10.272  1.3939 -0.1692  0.2390
 9999SOL    HW233400   3.376   7.125  10.151  2.0033 -2.3784 -0.0330
10000SOL     OW33401   0.940   8.489   3.129  0.3713 -0.3598 -0.0011
10000SOL    HW133402   0.993   8.569   3.131  1.2216 -0.9189  0.4774
10000SOL    HW233403   0.849   8.520   3.129  0.5319  0.6444  3.9541
10001SOL     OW33404   8.566   5.550   9.423  0.4601 -0.2378  0.3740
10001SOL    HW133405   8.527   5.467   9.450  0.0951  0.0839  0.8413
10001SOL    HW233406   8.605   5.530   9.338  2.3791 -1.4860  1.4680
10002SOL     OW33407   2.891   2.227   5.919  0.0880 -0.0261 -0.1208
10002SOL    HW133408   2.899   2.315   5.954  0.9468 -0.3324  0.4759
10002SOL    HW233409   2.876   2.171   5.995  2.6127 -0.7762 -0.0934
10003SOL     OW33410   7.626   2.786   5.612  0.5663 -0.3193  0.5514
10003SOL    HW133411   7.608   2.879   5.621  0.6550 -0.2881  0.4151
10003SOL    HW233412   7.592   2.747   5.693 -2.7054 -0.6730 -0.8285
10004SOL     OW33413   4.999   3.290   3.652  0.3706 -0.2968 -0.2192
10004SOL    HW133414   5.045   3.319   3.574  1.4892 -1.4896 -0.0348
10004SOL    HW233415   5.004   3.365   3.712  1.3303 -0.1031 -0.5284
10005SOL     OW33416   5.021   7.577   6.031 -0.0872 -0.4817  0.1241
10005SOL    HW133417   4.986   7.518   5.964 -0.5539  0.9708 -0.9790
10005SOL    HW233418   5.055   7.652   5.982 -0.4672  0.6459  1.4979
10006SOL     OW33419  10.608   2.225   5.592  0.6585 -0.3710 -0.1881
10006SOL    HW133420  10.647   2.142   5.620  2.0599  0.2343 -0.2706
10006SOL    HW233421  10.535   2.239   5.653  1.7142 -0.6262  1.1818
10007SOL     OW33422   0.587   3.417   5.568 -0.4316  0.2786 -0.7296
10007SOL    HW133423   0.610   3.377   5.484 -0.3002  1.1994 -1.1509
10007SOL    HW233424   0.659   3.396   5.626  0.4781  1.3239 -1.4312
10008SOL     OW33425   2.159   2.363   3.043  0.1576  0.0199 -0.2949
10008SOL    HW133426   2.151   2.278   3.000 -1.7581 -0.0798  0.1766
10008SOL    HW233427   2.070   2.385   3.070  0.8262  1.5568  0.8006
10009SOL     OW33428   4.992   6.221   2.093 -0.6178 -0.0312 -0.3882
10009SOL    HW133429   5.007   6.130   2.066 -0.1501 -0.7636  2.0107
10009SOL    HW233430   5.030   6.225   2.181 -1.7521  2.1482  0.0593
10010SOL     OW33431   9.076   6.055  10.359 -0.3728  0.1376 -0.9167
10010SOL    HW133432   9.052   6.062  10.452  0.2251 -1.9270 -0.5491
10010SOL    HW233433   9.169   6.078  10.357 -0.0973 -0.9070 -0.7877
10011SOL     OW33434   9.251   4.945   2.656 -0.2429 -0.1346  0.3994
10011SOL    HW133435   9.213   4.893   2.728 -0.3738 -1.9774 -0.9279
10011SOL    HW233436   9.268   4.881   2.587  1.5449  1.3014 -0.5669
10012SOL     OW33437   2.126   3.141   2.300 -0.8605 -0.0897  0.0314
10012SOL    HW133438   2.081   3.059   2.322 -0.3259  0.1917  2.5430
10012SOL    HW233439   2.215   3.128   2.334 -0.5233  1.2252 -0.2940
10013SOL     OW33440   6.755   4.241   1.847 -0.1626  0.8441  0.0481
10013SOL    HW133441   6.821   4.180   1.879  0.7934  1.4819 -0.6312
10013SOL    HW233442   6.674   4.215   1.891 -0.3116 -2.2531 -1.7687
10014SOL     OW33443   8.417   0.881   9.211  0.0101 -0.1681  0.0718
10014SOL    HW133444   8.444   0.791   9.229  0.3879 -0.4725 -1.7694
10014SOL    HW233445   8.363   0.874   9.132 -0.9276  1.1051  0.5646
10015SOL     OW33446   1.971   1.402   4.768 -0.1968  0.1590 -0.1741
10015SOL    HW133447   1.917   1.351   4.707 -0.7464  1.6815 -1.0064
10015SOL    HW233448   2.058   1.400   4.729 -0.6766  1.6778 -1.4409
10016SOL     OW33449   3.939   8.328   2.749 -0.1803 -0.0435 -0.0605
10016SOL    HW133450   3.846   8.310   2.759 -0.2480  0.2746 -0.0873
10016SOL    HW233451   3.963   8.375   2.829  0.1167 -0.7324  0.2648
10017SOL     OW33452   1.284   8.282   9.953  0.1358  0.0869 -0.5871
10017SOL    HW133453   1.281   8.248  10.043  0.4621 -0.6259 -0.8369
10017SOL    HW233454   1.370   8.322   9.945  1.2847 -2.3124 -1.4132
10018SOL     OW33455   2.363  10.801   6.028  0.2202  0.1451  0.3143
10018SOL    HW133456   2.300  10.833   6.092 -1.4546 -1.3370 -0.5422
10018SOL    HW233457   2.329  10.717   5.999  0.6002  0.9888 -2.9408
10019SOL     OW33458  10.711   6.247  10.749  0.1199  0.2977 -0.2141
10019SOL    HW133459  10.721   6.288  10.663  2.1558 -0.3268 -0.3263
10019SOL    HW233460  10.645   6.300  10.793 -0.2961  1.1860 -1.8159
10020SOL     OW33461   6.386  10.181   4.367  0.7722 -0.2939 -0.6469
10020SOL    HW133462   6.320  10.150   4.429 -1.4746 -0.7683 -3.0667
10020SOL    HW233463   6.457  10.214   4.422 -1.0287 -0.6697  2.1347
10021SOL     OW33464   0.922   2.131   7.990  0.3613  0.5562  0.4778
10021SOL    HW133465   0.887   2.211   8.026  1.3617  0.7930  0.9672
10021SOL    HW233466   1.000   2.159   7.941  0.4592 -0.0598  0.2694
10022SOL     OW33467   8.634   1.046   3.460 -0.0466  0.3045  0.2489
10022SOL    HW133468   8.571   1.041   3.532  1.8651 -3.1837  1.9080
10022SOL    HW233469   8.586   1.091   3.390 -3.4844  0.0957  2.2345
10023SOL     OW33470   6.994   4.253   9.715 -0.4671 -0.1800 -0.2267
10023SOL    HW133471   7.003   4.159   9.734 -2.0442 -0.4359 -0.5877
10023SOL    HW233472   6.902   4.264   9.693 -0.2840  1.4532 -0.3020
10024SOL     OW33473   0.783   7.669   6.212 -0.2086  0.2205  0.0475
10024SOL    HW133474   0.729   7.664   6.291 -1.1749  1.0802 -0.5368
10024SOL    HW233475   0.724   7.645   6.141  0.9965 -1.9330 -0.3150
10025SOL     OW33476   5.252   1.276   7.464  0.5182 -0.6247 -0.5020
10025SOL    HW133477   5.199   1.212   7.417 -0.7477  0.0887 -0.0901
10025SOL    HW233478   5.227   1.360   7.426  0.4107 -0.1607  0.5732
10026SOL     OW33479   4.137  10.781   4.786 -0.3662  0.0577  0.2081
10026SOL    HW133480   4.099  10.716   4.846  1.9893 -2.3451 -0.6867
10026SOL    HW233481   4.082  10.776   4.708 -0.4010 -0.6488  0.2663
10027SOL     OW33482   3.784  10.725   2.460  0.1973 -0.7987 -0.4351
10027SOL    HW133483   3.852  10.792   2.461  0.7753 -1.3794 -0.4091
10027SOL    HW233484   3.715  10.761   2.404  0.5539 -0.2380 -0.5126
10028SOL     OW33485   8.684   0.377   9.643  0.1378  0.2512 -0.1648
10028SOL    HW133486   8.627   0.316   9.596  1.1253  0.4597 -1.7162
10028SOL    HW233487   8.746   0.321   9.690 -0.2957  0.0467  0.1673
10029SOL     OW33488   2.375   9.827  10.831 -0.1633  0.4454  0.7154
10029SOL    HW133489   2.321   9.790  10.761  2.1694 -1.5479 -0.1560
10029SOL    HW233490   2.378   9.921  10.812  0.8395 -0.0813 -2.2589
10030SOL     OW33491  10.406  10.823   8.824 -0.6441 -0.0864  0.0376
10030SOL    HW133492  10.501  10.832   8.816 -0.5973 -0.8093 -0.3663
10030SOL    HW233493  10.393  10.769   8.901 -0.7101 -0.2343 -0.0757
10031SOL     OW33494   6.789   3.397   7.454 -0.3233 -0.0156 -0.4918
10031SOL    HW133495   6.807   3.358   7.368 -0.0285 -0.3786 -0.2687
10031SOL    HW233496   6.863   3.456   7.469 -0.5773  0.3454 -0.6634
10032SOL     OW33497   7.595   5.298   8.156  0.0390  0.0347  0.1222
10032SOL    HW133498   7.515   5.245   8.163 -0.9890  1.2037 -1.8302
10032SOL    HW233499   7.659   5.240   8.116 -0.7470 -0.1022 -0.9883
10033SOL     OW33500   7.066   4.726   8.163  0.0343 -0.4570 -0.1438
10033SOL    HW133501   7.013   4.666   8.109 -1.9784  1.2332 -0.1951
10033SOL    HW233502   7.106   4.785   8.099  0.7808 -0.8098 -0.0040
10034SOL     OW33503  10.913   2.374   3.721 -0.1097  0.1553 -0.0081
10034SOL    HW133504  11.003   2.403   3.734  0.0291 -0.5714  0.7851
10034SOL    HW233505  10.859   2.449   3.745  0.2827  0.6730 -0.7201
10035SOL     OW33506   4.590   6.760   3.692 -0.0526 -0.0596  0.2748
10035SOL    HW133507   4.651   6.757   3.766 -0.5210 -2.5501  0.6630
10035SOL    HW233508   4.646   6.771   3.616  0.6399  0.3414  0.8285
10036SOL     OW33509   0.450   4.039   9.783  0.7894  0.0476 -0.2317
10036SOL    HW133510   0.524   4.019   9.726  1.9174 -0.3507  1.3352
10036SOL    HW233511   0.382   3.976   9.756  1.7971 -1.0873 -0.1914
10037SOL     OW33512   4.387   0.784   8.346  0.7643 -0.3847  0.7130
10037SOL    HW133513   4.452   0.854   8.353  1.2008 -0.7345  0.2042
10037SOL    HW233514   4.421   0.715   8.403 -0.3212  0.2883  2.2644
10038SOL     OW33515   4.145   9.859   1.193  0.5610  0.4034  0.2777
10038SOL    HW133516   4.067   9.823   1.149  0.6260  0.2574  0.2823
10038SOL    HW233517   4.120   9.949   1.215  0.6533  0.5989 -0.3766
10039SOL     OW33518   1.696   4.415   5.527 -0.2119  0.3494 -0.1990
10039SOL    HW133519   1.618   4.422   5.582 -1.3463  0.0195 -1.7060
10039SOL    HW233520   1.760   4.370   5.582 -0.8417  1.1823  1.2891
10040SOL     OW33521   0.760   0.621   7.923 -0.0873  0.9353 -0.4374
10040SOL    HW133522   0.851   0.632   7.948 -0.5166 -0.7830  2.3087
10040SOL    HW233523   0.759   0.539   7.874 -0.3997 -0.3557  1.6156
10041SOL     OW33524   7.852   6.250   6.877  0.7438  0.2143 -0.2141
10041SOL    HW133525   7.825   6.199   6.954 -2.0261  0.1463 -1.1091
10041SOL    HW233526   7.897   6.187   6.821  0.4254 -0.3969  0.2072
10042SOL     OW33527   9.379   2.000   7.498 -0.1252  0.5955  0.6086
10042SOL    HW133528   9.420   2.059   7.435  0.9606  0.3988  1.0986
10042SOL    HW233529   9.393   2.042   7.583 -0.9044  0.4900  0.7940
10043SOL     OW33530   3.863   2.904   7.812 -0.1325 -0.5260 -0.3508
10043SOL    HW133531   3.928   2.893   7.881 -0.5037 -1.7004 -0.1563
10043SOL    HW233532   3.800   2.834   7.827 -0.7151 -0.2391 -1.3359
10044SOL     OW33533   3.617   8.857  10.809 -0.1911 -0.1987  0.4370
10044SOL    HW133534   3.565   8.929  10.846 -1.8217 -0.0779 -1.8924
10044SOL    HW233535   3.693   8.900  10.771 -1.7839  0.6063 -2.1021
10045SOL     OW33536   1.194   3.241   3.043  0.2046 -0.2856  0.0206
10045SOL    HW133537   1.222   3.149   3.050 -2.0422 -1.1575 -1.4270
10045SOL    HW233538   1.176   3.267   3.134 -0.0882 -1.6262  0.3813
10046SOL     OW33539   9.610   8.930   4.905  0.3615 -0.0480  0.5383
10046SOL    HW133540   9.558   8.985   4.846  0.3140 -1.5992 -0.9515
10046SOL    HW233541   9.684   8.986   4.930 -1.2565  1.7146  1.5886
10047SOL     OW33542   3.941   5.735   3.522 -0.4742  0.7481  0.1825
10047SOL    HW133543   3.875   5.737   3.452  0.9995 -1.8674 -1.4742
10047SOL    HW233544   3.929   5.649   3.562  2.0294  0.0823 -0.3589
10048SOL     OW33545   5.339   2.158   7.220 -0.1850 -0.0267  0.2077
10048SOL    HW133546   5.428   2.138   7.189  0.4989 -0.5063  2.2921
10048SOL    HW233547   5.295   2.196   7.144  2.2794  1.7128 -0.4892
10049SOL     OW33548   7.507   0.940   4.775  0.0809 -0.8524 -0.2969
10049SOL    HW133549   7.482   0.859   4.730 -1.6901  0.5359 -1.9802
10049SOL    HW233550   7.600   0.951   4.756  0.0260 -1.8045 -1.1624
10050SOL     OW33551   6.295   2.842   9.879  0.5226  0.0410 -0.3363
10050SOL    HW133552   6.299   2.783   9.803 -0.1059  0.9081 -1.0654
10050SOL    HW233553   6.256   2.922   9.845 -1.3427 -0.1105  1.2559
10051SOL     OW33554  10.893   5.520   4.015  0.4737 -0.5144  0.2274
10051SOL    HW133555  10.818   5.460   4.019  0.3394 -0.3312  0.4610
10051SOL    HW233556  10.961   5.477   4.065  0.6582 -0.8702 -0.3228
10052SOL     OW33557   6.788   5.361   0.696  0.9725  0.0378  0.1670
10052SOL    HW133558   6.858   5.322   0.747  0.2413 -0.1641  1.0507
10052SOL    HW233559   6.710   5.311   0.721  0.5111  0.2597 -0.7867
10053SOL     OW33560   2.753   0.093   1.115 -0.5747 -0.6137 -0.7194
10053SOL    HW133561   2.661   0.066   1.110 -0.4741 -0.7014 -2.7209
10053SOL    HW233562   2.790   0.069   1.030  1.4515 -1.0450  0.2293
10054SOL     OW33563   0.534   6.771   6.926  0.0555 -0.0640  0.0312
10054SOL    HW133564   0.589   6.693   6.929 -1.0393 -0.8725 -0.3106
10054SOL    HW233565   0.515   6.790   7.018  0.1786 -0.3061  0.1064
10055SOL     OW33566   8.178   7.465   6.247  0.2808 -0.0991  0.4687
10055SOL    HW133567   8.257   7.458   6.301 -0.0544  0.1644  0.9983
10055SOL    HW233568   8.107   7.442   6.306 -0.2160  1.3942  0.4966
10056SOL     OW33569   5.463   2.157   4.151  0.0211 -0.1265 -0.3526
10056SOL    HW133570   5.382   2.122   4.114  0.1801  0.8213 -1.6867
10056SOL    HW233571   5.530   2.133   4.087  0.7346 -0.5412  0.5353
10057SOL     OW33572   0.304   1.044   0.288 -0.1662 -0.5187 -0.1156
10057SOL    HW133573   0.240   1.063   0.219 -0.0295 -2.4887 -0.8462
10057SOL    HW233574   0.253   1.001   0.357  0.4180 -3.1466 -1.1741
10058SOL     OW33575   2.319   1.325   0.682 -0.1141 -0.4627 -0.4744
10058SOL    HW133576   2.346   1.415   0.667 -0.9736 -0.2773 -1.0083
10058SOL    HW233577   2.227   1.331   0.707 -0.4819 -1.2448 -1.5266
10059SOL     OW33578  10.770   1.027   0.281 -0.0180  0.0795  0.1334
10059SOL    HW133579  10.828   0.961   0.321  0.3445 -0.6702 -1.5593
10059SOL    HW233580  10.743   1.082   0.355  2.4854  0.1960  1.0872
10060SOL     OW33581   3.599   4.328   7.939  0.1422  0.1204 -0.6267
10060SOL    HW133582   3.579   4.234   7.949 -0.1063  0.3237  1.0485
10060SOL    HW233583   3.608   4.360   8.028  1.2015  1.5106 -1.1984
10061SOL     OW33584   6.263   7.204  10.330 -0.3464  0.4696  0.2785
10061SOL    HW133585   6.175   7.223  10.362 -0.9558  0.2755 -1.1990
10061SOL    HW233586   6.275   7.111  10.350 -0.9400  0.2112 -0.5337
10062SOL     OW33587   9.993   0.159   6.168  0.4318 -0.4658 -0.1694
10062SOL    HW133588  10.012   0.245   6.129  1.7488  0.3946  2.1600
10062SOL    HW233589   9.967   0.179   6.258  1.7106 -2.5518  0.7270
10063SOL     OW33590   4.559   4.629   9.325  0.3433  0.0119  0.6307
10063SOL    HW133591   4.589   4.557   9.269 -0.3496 -0.2363  0.5626
10063SOL    HW233592   4.607   4.618   9.407  1.8604  0.7586 -0.1093
10064SOL     OW33593   7.845   3.155   9.567  0.0081  0.1727 -0.3162
10064SOL    HW133594   7.927   3.169   9.520  0.6764  1.6532  1.2010
10064SOL    HW233595   7.785   3.220   9.528 -0.8786 -1.6915 -2.2484
10065SOL     OW33596   0.748   0.364   6.929 -0.4584 -0.5154  0.3094
10065SOL    HW133597   0.804   0.360   7.007 -0.3596  0.2009  0.2823
10065SOL    HW233598   0.697   0.444   6.940 -2.8171 -2.0233  1.2167
10066SOL     OW33599   0.981   0.115   5.603  0.0846 -0.2942 -0.4604
10066SOL    HW133600   0.965   0.069   5.685  0.3310 -1.6581 -1.1330
10066SOL    HW233601   1.076   0.121   5.597  0.0423  1.6274  0.2871
10067SOL     OW33602   6.253  10.783   4.684 -0.1198  0.9411 -0.2807
10067SOL    HW133603   6.307  10.828   4.749 -1.9710  0.1024  1.9685
10067SOL    HW233604   6.264  10.835   4.604  3.1390  1.3656  0.3073
10068SOL     OW33605   0.316   5.825  10.612 -0.0694  0.1216 -0.0428
10068SOL    HW133606   0.385   5.760  10.603 -0.2240  0.2105 -2.4554
10068SOL    HW233607   0.257   5.808  10.539 -0.1557  2.9146 -0.7453
10069SOL     OW33608   6.293   3.129   9.069  0.2585  0.8623  0.0830
10069SOL    HW133609   6.317   3.158   8.982 -0.4478 -0.1968 -0.4885
10069SOL    HW233610   6.279   3.210   9.119  2.0559  1.4915 -0.3530
10070SOL     OW33611   4.175  10.895   8.607  0.2160  0.5616  0.2293
10070SOL    HW133612   4.150  10.901   8.515  1.1640 -0.2656 -0.0996
10070SOL    HW233613   4.242  10.827   8.609  2.0899  2.3312  1.1231
10071SOL     OW33614   6.393   9.383  10.751  0.7062  0.0160  0.2343
10071SOL    HW133615   6.428   9.428  10.674  0.0835  1.7790  0.9355
10071SOL    HW233616   6.298   9.393  10.743  0.6707  1.1754  1.7520
10072SOL     OW33617   4.861   4.952   4.548  0.1713  0.4566 -0.1938
10072SOL    HW133618   4.863   4.982   4.639 -0.6336 -1.6011  0.5542
10072SOL    HW233619   4.816   4.868   4.551 -0.3946  0.5975 -2.5972
10073SOL     OW33620  10.031   5.203   0.757 -0.5666 -0.2256 -0.3046
10073SOL    HW133621  10.073   5.207   0.671 -0.3194 -0.6819 -0.2075
10073SOL    HW233622   9.964   5.135   0.748 -1.1711  0.3730 -0.4062
10074SOL     OW33623   9.640   9.449   9.040 -0.2919 -0.0587  0.1370
10074SOL    HW133624   9.661   9.375   8.983  1.1019 -0.1223  0.6974
10074SOL    HW233625   9.705   9.515   9.018 -1.6697  1.1414 -0.5324
10075SOL     OW33626   8.009   8.780   2.689  0.1731  0.8410 -0.0854
10075SOL    HW133627   7.958   8.720   2.743 -0.9582  0.9947 -0.9423
10075SOL    HW233628   8.039   8.847   2.751  1.7699 -0.7444  0.9510
10076SOL     OW33629   4.828   3.289   1.962 -0.3404  0.6733 -1.0195
10076SOL    HW133630   4.898   3.311   2.023 -0.2688 -0.2293 -0.7500
10076SOL    HW233631   4.751   3.332   1.997  0.0461  1.5577 -1.2399
10077SOL     OW33632   3.040   3.682   9.958 -0.3007  0.1679 -0.1620
10077SOL    HW133633   2.964   3.649   9.910  0.2483  0.9136 -1.6279
10077SOL    HW233634   3.015   3.678  10.050 -1.5291 -1.0201 -0.5192
10078SOL     OW33635   1.526   3.213   8.096  0.1851  0.3443  0.0616
10078SOL    HW133636   1.616   3.223   8.064  0.7226  0.0452  1.3868
10078SOL    HW233637   1.489   3.301   8.090  1.5831  1.1828  2.2390
10079SOL     OW33638   4.877   9.360   7.046  0.4595 -0.0752 -0.3192
10079SOL    HW133639   4.907   9.314   6.968 -1.6025 -1.0482 -0.6042
10079SOL    HW233640   4.789   9.325   7.063  0.7526  0.2565  2.3259
10080SOL     OW33641   3.229   5.142   0.115 -0.1556 -0.0354  0.3776
10080SOL    HW133642   3.215   5.079   0.186  1.1875 -0.0176  0.6847
10080SOL    HW233643   3.254   5.223   0.159  0.9211 -0.0870 -0.1178
10081SOL     OW33644   1.634   0.662   6.007  0.0040 -0.3122  0.3105
10081SOL    HW133645   1.680   0.594   6.057  1.2031  1.2152  1.3665
10081SOL    HW233646   1.633   0.629   5.917  0.6190 -1.6755  0.7760
10082SOL     OW33647   6.250   9.928  10.862 -0.1059  0.2670 -0.0732
10082SOL    HW133648   6.246   9.847  10.812  0.3657  0.4998 -0.5013
10082SOL    HW233649   6.313   9.911  10.932  0.3965  0.4262 -0.4789
10083SOL     OW33650   9.222   4.840   2.097 -0.2816 -0.3564 -0.1066
10083SOL    HW133651   9.200   4.841   2.004  1.8707 -0.4579 -0.6712
10083SOL    HW233652   9.255   4.751   2.113  0.0147 -0.1312  0.5631
10084SOL     OW33653   9.830   3.606   9.684 -0.3356 -0.0684  0.1731
10084SOL    HW133654   9.853   3.688   9.728 -1.6358  0.2552  0.2865
10084SOL    HW233655   9.813   3.631   9.593  0.2722 -0.3874 -0.0317
10085SOL     OW33656   6.656   6.588   3.274  0.4582  0.3343  0.2180
10085SOL    HW133657   6.610   6.532   3.336  1.5061  0.0438  0.7692
10085SOL    HW233658   6.639   6.548   3.189  1.8672 -1.4019  0.6678
10086SOL     OW33659   9.734   7.715   2.450 -0.9773 -0.2081  0.0289
10086SOL    HW133660   9.794   7.788   2.463  0.6640 -1.3453 -0.7570
10086SOL    HW233661   9.786   7.637   2.469 -2.3150 -1.2346 -0.3217
10087SOL     OW33662   3.743   6.517   0.142 -0.4070  0.1783  0.4873
10087SOL    HW133663   3.760   6.594   0.197 -0.5549 -0.6377  1.7347
10087SOL    HW233664   3.718   6.552   0.057 -0.4241  1.5068  1.0225
10088SOL     OW33665   0.581   5.278   3.321 -0.0332  0.1713  0.0338
10088SOL    HW133666   0.642   5.351   3.308 -0.1002  0.3221  0.5390
10088SOL    HW233667   0.500   5.318   3.351 -0.7145  0.0592 -1.5215
10089SOL     OW33668   7.109   6.653  10.224  0.0023 -0.1188  0.0336
10089SOL    HW133669   7.186   6.695  10.263  0.1831  0.1832 -0.6314
10089SOL    HW233670   7.126   6.559  10.233  0.7289 -0.0589 -0.6231
10090SOL     OW33671   5.537   0.962   5.283  0.2303  0.1780  0.1528
10090SOL    HW133672   5.596   0.994   5.215 -0.5646  0.1923 -0.5409
10090SOL    HW233673   5.461   1.021   5.279 -0.7290 -1.0357 -0.3401
10091SOL     OW33674   2.437   6.579   8.072  0.6322  0.1534  0.0421
10091SOL    HW133675   2.525   6.597   8.038  0.6915  0.8587  0.5603
10091SOL    HW233676   2.385   6.561   7.994  0.9427  1.0039 -0.3723
10092SOL     OW33677   1.387   8.711   2.095  0.2125  0.4747  0.0329
10092SOL    HW133678   1.307   8.678   2.135 -0.5840  0.1983 -1.6872
10092SOL    HW233679   1.363   8.797   2.061  0.3030 -0.0353 -1.3954
10093SOL     OW33680  10.149   5.079   2.187  0.7082  0.4261  0.3996
10093SOL    HW133681  10.139   5.096   2.280 -0.4150  2.7318 -0.0766
10093SOL    HW233682  10.239   5.105   2.167  1.0295 -0.3000  0.8484
10094SOL     OW33683   9.560   5.427   1.312  0.5935 -0.0037 -0.1042
10094SOL    HW133684   9.622   5.354   1.322  0.6512 -0.0122 -0.5049
10094SOL    HW233685   9.487   5.403   1.369 -0.0668 -1.1243 -1.3661
10095SOL     OW33686   5.452   2.770   5.282 -0.2122 -0.5050 -0.0301
10095SOL    HW133687   5.427   2.709   5.213  0.5669  0.1028 -0.8612
10095SOL    HW233688   5.411   2.853   5.256  1.7720  0.2538 -0.8823
10096SOL     OW33689   5.190   8.054   0.021  0.1917 -0.2754  0.1309
10096SOL    HW133690   5.154   8.086  -0.062  0.8134 -1.2029 -0.5262
10096SOL    HW233691   5.217   8.133   0.067  0.7707  0.2144 -1.0004
10097SOL     OW33692   4.607   8.809   1.885 -0.2083 -0.3737  0.3847
10097SOL    HW133693   4.594   8.722   1.847 -0.9344 -0.2377  0.3018
10097SOL    HW233694   4.676   8.848   1.832  1.8737 -1.7717  1.9211
10098SOL     OW33695   0.740   3.270   7.590 -0.2217  0.4665 -0.0895
10098SOL    HW133696   0.668   3.219   7.626  0.4721  0.5641  1.5517
10098SOL    HW233697   0.796   3.206   7.546 -0.3914  0.1063  0.2157
10099SOL     OW33698   8.198   7.409   4.634 -0.0925 -0.1011  0.2165
10099SOL    HW133699   8.159   7.325   4.658  0.0038 -0.1493  0.2041
10099SOL    HW233700   8.286   7.406   4.672  0.7580 -0.9459 -1.6812
10100SOL     OW33701   2.619   9.171   5.286 -0.1195  0.4086  0.4398
10100SOL    HW133702   2.609   9.076   5.280  0.7194  0.3613 -0.5720
10100SOL    HW233703   2.544   9.200   5.338  0.8223 -1.0409  2.7730
10101SOL     OW33704   1.101   8.048   9.383 -0.0409  0.1976 -0.4059
10101SOL    HW133705   1.118   8.102   9.305  0.1566  1.1555  0.2926
10101SOL    HW233706   1.006   8.037   9.383  0.0006 -0.2799 -1.0803
10102SOL     OW33707   0.162   7.113  10.126 -0.0723 -0.0452 -0.6240
10102SOL    HW133708   0.101   7.110  10.200  2.2502 -0.7887  1.3952
10102SOL    HW233709   0.110   7.151  10.055 -2.9699 -0.9648  0.8018
10103SOL     OW33710   1.466  10.690   5.339  0.2028 -0.2762 -0.8388
10103SOL    HW133711   1.475  10.766   5.396  1.0263  1.0272 -2.6315
10103SOL    HW233712   1.546  10.639   5.353 -0.1811 -0.6584  0.0793
10104SOL     OW33713   0.062   9.349   0.126 -0.3553  0.1834 -0.0794
10104SOL    HW133714   0.112   9.364   0.206 -1.5438  0.8924  0.5633
10104SOL    HW233715   0.114   9.388   0.056  0.7739 -0.5883  0.3145
10105SOL     OW33716   0.786   6.721   9.646 -0.2331  0.0293 -0.2748
10105SOL    HW133717   0.695   6.696   9.629  0.3273 -3.7395  1.2425
10105SOL    HW233718   0.836   6.681   9.575  0.4349  0.0160  0.1853
10106SOL     OW33719   6.087   2.368   9.650 -0.3219  0.1774  0.3158
10106SOL    HW133720   6.182   2.374   9.659 -0.2621 -1.8720  1.5230
10106SOL    HW233721   6.053   2.420   9.723 -0.1199 -0.1509  0.6408
10107SOL     OW33722   7.862   0.037   2.746  0.6983 -0.3429  0.3266
10107SOL    HW133723   7.899  -0.009   2.670  2.3178  2.1246 -0.4910
10107SOL    HW233724   7.778   0.070   2.716  0.5848 -0.7708  0.1647
10108SOL     OW33725  10.350   8.450   6.947 -0.2514  0.0651 -0.0305
10108SOL    HW133726  10.429   8.497   6.974 -0.0342  0.1995 -0.8607
10108SOL    HW233727  10.352   8.368   6.996 -0.1285  0.5120  0.7127
10109SOL     OW33728   1.230   6.267   6.158  0.1820  0.0139  0.4603
10109SOL    HW133729   1.135   6.253   6.157  0.1587 -0.0664  2.1084
10109SOL    HW233730   1.259   6.234   6.243  1.7965 -0.5375 -0.2666
10110SOL     OW33731   6.060   6.254   9.660 -0.6994  0.2591  0.4513
10110SOL    HW133732   6.078   6.163   9.686 -1.2283 -0.0049 -0.0620
10110SOL    HW233733   6.002   6.245   9.584 -0.5999  1.0284  0.2822
10111SOL     OW33734   7.652   6.209   9.184  0.3006 -0.2654 -0.6032
10111SOL    HW133735   7.568   6.228   9.142  0.1613 -0.2425 -0.3201
10111SOL    HW233736   7.628   6.183   9.273  0.5027 -1.5582 -0.9107
10112SOL     OW33737   8.527   6.851   0.670  0.3042  0.3245  0.5922
10112SOL    HW133738   8.474   6.837   0.749  3.1827  0.9557  2.7905
10112SOL    HW233739   8.487   6.794   0.605 -0.8520 -2.0608  3.1695
10113SOL     OW33740   8.946   4.545   7.898 -0.2754 -0.1736 -0.1352
10113SOL    HW133741   9.025   4.582   7.938 -0.6332  2.3399 -1.5712
10113SOL    HW233742   8.972   4.457   7.871  1.0582 -0.5595  2.1821
10114SOL     OW33743   3.782   8.684  10.206 -0.5480  0.2287 -0.4131
10114SOL    HW133744   3.799   8.627  10.131  1.1215  0.9423 -0.6242
10114SOL    HW233745   3.726   8.753  10.171  0.8054  0.9582 -1.2437
10115SOL     OW33746   6.998   1.723   1.164 -0.2830  0.2389  0.0746
10115SOL    HW133747   7.080   1.700   1.121 -1.5487  0.1034 -2.4835
10115SOL    HW233748   7.023   1.746   1.253  2.3064 -1.3203 -0.1458
10116SOL     OW33749   4.376   4.844   5.044  0.1957 -0.0608  0.2334
10116SOL    HW133750   4.333   4.809   4.966  1.7009 -0.1869 -0.5692
10116SOL    HW233751   4.458   4.795   5.050  0.4877  0.5495  1.4038
10117SOL     OW33752   3.153   5.694   7.849 -0.3404  0.0632 -0.0047
10117SOL    HW133753   3.095   5.767   7.828  0.7441  0.6230 -1.1305
10117SOL    HW233754   3.106   5.616   7.819 -0.7602  0.4540 -0.3594
10118SOL     OW33755   9.967   2.331   6.069 -0.0470 -0.1990  0.0642
10118SOL    HW133756   9.895   2.388   6.042 -0.2708 -0.1200  0.7903
10118SOL    HW233757   9.941   2.300   6.156  0.7690 -0.2146  0.3083
10119SOL     OW33758   0.415   4.401   4.485  0.2607  0.2868  0.1087
10119SOL    HW133759   0.327   4.415   4.451  0.6605  1.0467 -0.6723
10119SOL    HW233760   0.454   4.338   4.425  0.7075  1.0352 -0.4104
10120SOL     OW33761   8.767   3.345   5.716  0.1610 -0.0071 -0.7505
10120SOL    HW133762   8.855   3.374   5.739 -0.5295  0.6486  1.3240
10120SOL    HW233763   8.753   3.377   5.627  1.4164  1.3241 -0.5011
10121SOL     OW33764   7.751   8.138  10.836 -0.3933 -0.2137  0.2164
10121SOL    HW133765   7.677   8.184  10.876 -0.9489 -0.8586 -0.0581
10121SOL    HW233766   7.822   8.149  10.899 -0.6593  0.5774  0.3931
10122SOL     OW33767   7.800  10.758   4.319  0.0397 -0.2185 -0.3038
10122SOL    HW133768   7.832  10.694   4.255 -0.4278  0.4072 -1.1980
10122SOL    HW233769   7.831  10.842   4.286 -2.0027  0.3614 -0.9304
10123SOL     OW33770   2.201  10.217   7.297 -0.2576  0.8951 -0.0003
10123SOL    HW133771   2.261  10.175   7.235  4.2165  1.9357  3.1312
10123SOL    HW233772   2.167  10.144   7.349 -0.1792  0.4278 -0.5842
10124SOL     OW33773   7.790   6.075   9.479 -0.0266  0.1110 -0.2882
10124SOL    HW133774   7.704   6.036   9.492  0.0345  0.7293  2.4779
10124SOL    HW233775   7.837   6.060   9.561  1.7742  1.5844 -0.9541
10125SOL     OW33776   0.780   7.455   8.547 -0.2214  0.0144  0.8725
10125SOL    HW133777   0.822   7.443   8.632 -0.0608  1.7814  1.0877
10125SOL    HW233778   0.851   7.447   8.484 -0.4315 -1.8711  0.8074
10126SOL     OW33779   9.554   6.134   1.468  0.0428 -0.0515  0.4347
10126SOL    HW133780   9.623   6.200   1.468 -0.2858  0.3803  2.8366
10126SOL    HW233781   9.474   6.182   1.452 -0.0526 -0.0247  0.9554
10127SOL     OW33782   9.781   1.714   4.403  0.1375 -0.3846  0.6792
10127SOL    HW133783   9.800   1.637   4.456  0.5592 -0.3732  0.5458
10127SOL    HW233784   9.743   1.680   4.322 -0.8959 -0.3841  1.1400
10128SOL     OW33785   4.327   1.042   3.949 -0.2789 -0.3022 -0.6711
10128SOL    HW133786   4.399   0.994   3.909 -0.1334  0.8360 -1.8145
10128SOL    HW233787   4.340   1.133   3.923 -2.4213 -0.1496 -1.3680
10129SOL     OW33788   0.760   9.224   2.341 -0.8445 -0.1507  0.0147
10129SOL    HW133789   0.780   9.302   2.288  0.1908  0.0923  0.7428
10129SOL    HW233790   0.757   9.256   2.431 -0.9138 -0.8646  0.2722
10130SOL     OW33791   5.663   9.983   6.364 -0.0341  0.5438 -0.6726
10130SOL    HW133792   5.694   9.897   6.393  2.3510  1.1124 -1.3373
10130SOL    HW233793   5.584   9.999   6.416  0.7566 -1.0395  1.1307
10131SOL     OW33794   1.772   8.273   3.663  0.0099  0.5093  0.1759
10131SOL    HW133795   1.713   8.320   3.722 -0.7562  0.7651 -0.7872
10131SOL    HW233796   1.850   8.257   3.717 -0.6285  0.8143  1.2347
10132SOL     OW33797   5.924   2.584   2.119  0.2070 -0.8817 -0.4608
10132SOL    HW133798   5.843   2.536   2.138 -0.2771  0.4324  1.0050
10132SOL    HW233799   5.901   2.676   2.132  1.3306 -0.2619 -2.3728
10133SOL     OW33800  10.907   2.543   0.286 -0.2566  0.4398  0.9555
10133SOL    HW133801  10.813   2.529   0.292 -0.3997 -0.3828 -1.6798
10133SOL    HW233802  10.945   2.455   0.285  0.3845  0.7071  0.6222
10134SOL     OW33803   9.719   6.436   4.241  0.3294  0.0508 -0.4677
10134SOL    HW133804   9.657   6.370   4.272  1.7880 -2.0065 -1.6388
10134SOL    HW233805   9.729   6.417   4.148  0.8979  1.8925 -0.8136
10135SOL     OW33806   4.859   8.635   6.135  0.5445 -0.4530  0.0424
10135SOL    HW133807   4.904   8.551   6.133  2.5291  0.4809  1.5221
10135SOL    HW233808   4.929   8.699   6.149 -1.0760  1.2824  0.6372
10136SOL     OW33809   9.822   8.899   1.299  0.2716 -0.2119 -0.2129
10136SOL    HW133810   9.773   8.891   1.380 -0.1658  0.2538 -0.4250
10136SOL    HW233811   9.860   8.986   1.302  1.8055 -0.8601  0.3319
10137SOL     OW33812   4.746   9.061   0.328  0.1361 -0.5781  0.6800
10137SOL    HW133813   4.783   9.141   0.363 -1.6753 -0.0555  1.5129
10137SOL    HW233814   4.792   8.991   0.373  1.2077 -0.0038  0.4973
10138SOL     OW33815   0.573   7.010   0.465 -0.5340 -0.0019  0.0076
10138SOL    HW133816   0.654   7.055   0.489 -0.5791  0.1295 -0.0863
10138SOL    HW233817   0.504   7.076   0.478 -0.5679  0.0443 -0.3965
10139SOL     OW33818   5.928   3.650   2.108  0.0504  0.1589  0.3550
10139SOL    HW133819   5.927   3.632   2.202  1.9454 -1.0606  0.1838
10139SOL    HW233820   5.894   3.739   2.100  0.9457  0.7175  2.2993
10140SOL     OW33821   0.421   4.265   3.889  0.3619 -0.0370 -0.2656
10140SOL    HW133822   0.514   4.241   3.895  0.4771 -0.4420 -2.6522
10140SOL    HW233823   0.395   4.237   3.801 -2.0503  0.0554  0.3493
10141SOL     OW33824  10.666   6.483   4.434 -0.3465 -0.8352  0.9430
10141SOL    HW133825  10.668   6.579   4.437  2.0193 -0.8567  3.0211
10141SOL    HW233826  10.737   6.460   4.373 -0.3481 -1.2801  1.1085
10142SOL     OW33827   9.165   0.785   9.187  0.0411  0.1918 -0.1206
10142SOL    HW133828   9.117   0.774   9.270  1.3234 -0.3861  0.5642
10142SOL    HW233829   9.139   0.710   9.134  2.3401 -1.7981  1.3631
10143SOL     OW33830   7.497   4.513   2.521 -0.7644 -0.5473 -0.1035
10143SOL    HW133831   7.459   4.471   2.444 -0.0594  0.0825 -0.8221
10143SOL    HW233832   7.443   4.592   2.533 -0.4331 -0.2680 -0.4079
10144SOL     OW33833   6.600   3.765   1.055 -0.0616  0.3386 -0.4822
10144SOL    HW133834   6.515   3.720   1.053  0.3987 -0.5686 -0.2168
10144SOL    HW233835   6.648   3.730   0.980  0.5847 -0.2124  0.1704
10145SOL     OW33836   4.634   8.434   3.344 -0.2926 -0.5083 -0.0036
10145SOL    HW133837   4.552   8.484   3.343  1.0277  1.8396 -1.1785
10145SOL    HW233838   4.607   8.342   3.346 -3.0132  0.1009 -2.3246
10146SOL     OW33839   3.110   7.674   3.701 -0.5193  0.1750  0.4062
10146SOL    HW133840   3.124   7.761   3.739 -1.3520  1.2017 -1.5079
10146SOL    HW233841   3.195   7.649   3.665 -0.6041  0.8513 -0.2831
10147SOL     OW33842   9.922   3.540   0.057 -0.1882  0.5920  0.2945
10147SOL    HW133843  10.005   3.569   0.096 -0.2864 -0.0294  0.9898
10147SOL    HW233844   9.949   3.487  -0.019  0.0009  1.9275 -0.6147
10148SOL     OW33845   3.203   5.848   2.442  0.1112  0.0757  0.0382
10148SOL    HW133846   3.276   5.910   2.435  0.8527 -0.8122 -0.2356
10148SOL    HW233847   3.193   5.834   2.536  0.4218  0.0535  0.0695
10149SOL     OW33848   4.943   4.239   4.443 -0.4864 -0.3140 -0.1926
10149SOL    HW133849   4.881   4.167   4.460  0.8272 -1.0799  1.7113
10149SOL    HW233850   5.009   4.200   4.387 -1.1061  0.1908 -1.3072
10150SOL     OW33851   8.910   1.493   0.136  0.1199  0.3012 -0.2610
10150SOL    HW133852   8.818   1.509   0.117  0.1863  0.2984 -0.5816
10150SOL    HW233853   8.936   1.423   0.076  0.7628  1.4432 -1.3651
10151SOL     OW33854   1.266   7.850   7.211  0.4216 -0.3629  0.1910
10151SOL    HW133855   1.313   7.933   7.211  0.2708 -0.2736 -0.4212
10151SOL    HW233856   1.269   7.821   7.120 -0.5673 -0.4369  0.1729
10152SOL     OW33857  10.714   8.628   5.523 -0.2865  0.1859  0.5091
10152SOL    HW133858  10.624   8.627   5.488  0.5355 -0.6115 -1.7861
10152SOL    HW233859  10.718   8.551   5.580 -0.7531 -0.4785 -0.3172
10153SOL     OW33860   4.198   8.306   1.531  0.3446  0.2691 -0.5175
10153SOL    HW133861   4.231   8.396   1.530 -2.9746  1.5990 -1.3707
10153SOL    HW233862   4.165   8.293   1.620  0.5492 -0.0147 -0.4803
10154SOL     OW33863  10.870   7.606   5.972 -0.1807 -0.2463  0.0110
10154SOL    HW133864  10.839   7.544   6.039 -1.5173 -2.2581 -2.2898
10154SOL    HW233865  10.961   7.622   5.995  0.0026 -2.4873  1.1819
10155SOL     OW33866   9.429  10.059   5.599 -0.3669  0.1969  0.2939
10155SOL    HW133867   9.479  10.065   5.680  0.1743 -0.2358 -0.0020
10155SOL    HW233868   9.495  10.052   5.530 -0.8254 -1.3070 -0.0311
10156SOL     OW33869   1.577   8.370   1.497 -0.1671  0.0688  0.3225
10156SOL    HW133870   1.651   8.368   1.558  1.2145  0.8899 -1.2564
10156SOL    HW233871   1.552   8.462   1.493 -1.0590 -0.1521  0.5493
10157SOL     OW33872   1.544   0.815   4.986  0.2907 -0.0524 -0.0630
10157SOL    HW133873   1.454   0.847   4.998  0.4330  0.0756  0.7342
10157SOL    HW233874   1.574   0.857   4.905  0.0244  0.8050  0.2737
10158SOL     OW33875   3.405   3.234   5.995  0.5542  0.3801  0.0644
10158SOL    HW133876   3.330   3.176   5.981 -0.5533  1.8738 -0.5043
10158SOL    HW233877   3.481   3.177   5.991 -0.3694 -0.8271 -1.9905
10159SOL     OW33878   9.307   5.560   8.967 -0.2655 -0.0238  0.1422
10159SOL    HW133879   9.400   5.560   8.943 -0.3769  0.0220 -0.2881
10159SOL    HW233880   9.287   5.652   8.982  0.2210 -0.1877  2.0628
10160SOL     OW33881   2.825   2.583   4.299  0.0633  0.2811 -0.1146
10160SOL    HW133882   2.893   2.597   4.233 -0.3680 -1.3164 -0.9265
10160SOL    HW233883   2.750   2.633   4.267 -1.0242 -2.4977 -2.3043
10161SOL     OW33884  10.170  10.895   5.062  0.4278 -0.5165  1.2254
10161SOL    HW133885  10.254  10.864   5.097  1.0367 -1.2467 -0.7633
10161SOL    HW233886  10.113  10.818   5.065  0.8058 -0.8937 -0.2574
10162SOL     OW33887   7.949   8.247   2.469  0.1349  0.3464  0.2485
10162SOL    HW133888   7.925   8.338   2.484  0.9803  0.8903 -1.4138
10162SOL    HW233889   8.004   8.249   2.390  0.3873 -1.5670  0.3174
10163SOL     OW33890   1.198   2.338   2.612  0.4920  0.3278  0.5953
10163SOL    HW133891   1.123   2.308   2.663 -0.5170  0.5163 -0.7439
10163SOL    HW233892   1.225   2.261   2.561 -0.5637  0.9619 -0.9995
10164SOL     OW33893   9.437   6.798  10.636 -0.0578  0.3603 -0.4250
10164SOL    HW133894   9.356   6.749  10.624  0.4249 -0.0503 -2.3066
10164SOL    HW233895   9.409   6.890  10.641 -0.7663  0.0911  0.7623
10165SOL     OW33896   6.410  10.121  10.266  0.0086 -0.2041  0.0743
10165SOL    HW133897   6.371  10.036  10.243  1.6810 -0.6515 -1.3302
10165SOL    HW233898   6.458  10.104  10.347 -0.0409 -0.4705  0.0487
10166SOL     OW33899   3.966   7.372   1.097  0.6341 -0.6242 -0.0321
10166SOL    HW133900   3.962   7.341   1.187  1.3135 -0.5363  0.0342
10166SOL    HW233901   3.906   7.447   1.095  0.1510 -0.9994  0.1860
10167SOL     OW33902   1.229   6.579   4.046  0.2442  0.6511  0.7616
10167SOL    HW133903   1.182   6.626   3.977 -0.1721 -2.2618 -1.1495
10167SOL    HW233904   1.230   6.639   4.120 -0.2377  3.5696 -1.4126
10168SOL     OW33905  10.266   1.178   8.802  0.3150 -0.1970 -0.3467
10168SOL    HW133906  10.220   1.177   8.886  0.5149 -2.3195 -0.2247
10168SOL    HW233907  10.349   1.223   8.820  0.3671 -0.6643  0.5943
10169SOL     OW33908   0.343  10.650   0.425 -0.0450 -0.1175  0.0204
10169SOL    HW133909   0.348  10.586   0.354  1.6055 -0.5857  0.5226
10169SOL    HW233910   0.325  10.597   0.503  1.1717  0.0199  0.4126
10170SOL     OW33911   7.657   4.238   3.162  0.3501  0.3755 -0.2669
10170SOL    HW133912   7.699   4.305   3.216 -0.4730  0.5530  0.1730
10170SOL    HW233913   7.706   4.239   3.080  0.5115  1.3375 -0.1712
10171SOL     OW33914   4.114   9.985   9.079  0.1171 -0.7888 -0.3404
10171SOL    HW133915   4.116  10.035   8.997 -0.1142 -0.3314 -0.0739
10171SOL    HW233916   4.045  10.027   9.131 -0.3951 -1.6735 -0.2849
10172SOL     OW33917   6.334   2.510   8.646  0.0989 -0.3217 -0.1076
10172SOL    HW133918   6.419   2.506   8.602 -0.5803  1.4483 -1.6941
10172SOL    HW233919   6.355   2.535   8.736  1.3287 -1.2411 -0.1047
10173SOL     OW33920   2.947   0.440   4.597  0.0318  0.2413  0.1576
10173SOL    HW133921   2.859   0.444   4.635 -1.0596 -1.3827 -1.9492
10173SOL    HW233922   2.947   0.507   4.529  0.6284  0.6058  0.5129
10174SOL     OW33923   9.753   0.670   9.048  0.9301 -0.1139  0.4986
10174SOL    HW133924   9.839   0.691   9.084  0.9229  0.4738  0.1724
10174SOL    HW233925   9.730   0.586   9.089  1.1445  0.2836  1.4630
10175SOL     OW33926  10.318   6.968  10.846 -0.0876  0.1677 -0.1837
10175SOL    HW133927  10.319   6.938  10.937  0.5787  0.5410 -0.0551
10175SOL    HW233928  10.403   6.941  10.811 -0.5943 -0.5286 -0.8883
10176SOL     OW33929   5.354   2.576   0.329 -0.0674 -0.1255  0.0933
10176SOL    HW133930   5.389   2.658   0.294  1.3222 -0.7246  0.0192
10176SOL    HW233931   5.370   2.583   0.424 -0.3830 -0.1052  0.1439
10177SOL     OW33932   9.342   3.053   3.462  0.2215  0.2293 -0.1507
10177SOL    HW133933   9.432   3.034   3.489  0.1749  1.0861  0.6172
10177SOL    HW233934   9.324   3.141   3.495 -0.3849  0.6873 -1.6104
10178SOL     OW33935   4.196   2.795   7.379 -0.5024  0.3485 -0.1390
10178SOL    HW133936   4.260   2.866   7.383 -0.0115 -0.0378 -1.0016
10178SOL    HW233937   4.158   2.792   7.467  0.2990  0.9156  0.2328
10179SOL     OW33938   0.858  10.263   3.810  0.4122 -0.1586 -0.1876
10179SOL    HW133939   0.886  10.352   3.789 -1.6405  0.8127  0.8668
10179SOL    HW233940   0.778  10.275   3.862  0.7892 -2.5812  1.1106
10180SOL     OW33941   0.278  10.686  10.669  0.3756 -0.0298  0.3708
10180SOL    HW133942   0.294  10.594  10.647  1.7113 -0.1205  1.5584
10180SOL    HW233943   0.322  10.736  10.600  0.9012 -0.2842  0.5230
10181SOL     OW33944  10.014   8.355   9.999  0.2273  0.1775  0.0101
10181SOL    HW133945  10.045   8.439   9.963 -2.3783  1.4439  0.4749
10181SOL    HW233946  10.004   8.372  10.093  2.4139 -1.6398  0.6618
10182SOL     OW33947   4.959   9.253   1.689 -0.7275  0.0280 -0.0304
10182SOL    HW133948   4.918   9.219   1.610  0.4621  0.9619 -1.1032
10182SOL    HW233949   5.052   9.232   1.679 -0.3287  1.4550  0.3954
10183SOL     OW33950   6.511   5.368   3.961  0.0086 -0.1781 -0.1031
10183SOL    HW133951   6.441   5.423   3.996 -1.3590 -1.3732 -0.8184
10183SOL    HW233952   6.531   5.407   3.876 -0.2124 -0.1549 -0.1472
10184SOL     OW33953  10.714   7.234   3.076 -0.0964 -0.0174 -0.1973
10184SOL    HW133954  10.628   7.194   3.087 -0.8620  1.4930 -0.3667
10184SOL    HW233955  10.753   7.187   3.002 -0.9419 -0.4767 -0.3668
10185SOL     OW33956   2.640   7.121  10.682 -0.1489 -0.0691 -0.4800
10185SOL    HW133957   2.680   7.034  10.676 -0.2244 -0.2926  1.6242
10185SOL    HW233958   2.588   7.128  10.602 -1.7480 -2.8169  0.1469
10186SOL     OW33959   6.997   1.592   1.451  0.3050  0.4163  0.2111
10186SOL    HW133960   7.013   1.565   1.542 -0.8555  1.5992  0.8083
10186SOL    HW233961   7.027   1.683   1.447  0.4265  0.3481 -0.6160
10187SOL     OW33962   2.837   7.658   3.685 -0.2695  0.1221 -0.3471
10187SOL    HW133963   2.834   7.700   3.772  0.1700  0.2462 -0.3885
10187SOL    HW233964   2.931   7.646   3.668 -0.3764 -2.7447  0.5556
10188SOL     OW33965   4.808   8.039   1.012  0.6336 -0.5447 -0.3330
10188SOL    HW133966   4.714   8.054   1.016  0.3484 -2.0844 -0.6077
10188SOL    HW233967   4.841   8.107   0.954 -0.4496 -0.5540 -0.9855
10189SOL     OW33968   6.030   7.090   5.352  0.2097  0.1340  0.0380
10189SOL    HW133969   5.996   7.096   5.262  1.5623  0.8723 -0.4623
10189SOL    HW233970   6.076   7.006   5.355 -0.2431 -0.1090  0.1930
10190SOL     OW33971   7.787   8.127   1.009  0.4898  0.0300 -0.5645
10190SOL    HW133972   7.850   8.065   1.045 -0.6024 -0.7349  0.0781
10190SOL    HW233973   7.703   8.100   1.046 -0.2819  0.7764 -1.7250
10191SOL     OW33974   1.929   8.469   4.060  0.1011  0.0196  0.4920
10191SOL    HW133975   1.934   8.519   3.978 -0.8162  0.1615  0.5014
10191SOL    HW233976   1.841   8.487   4.093 -0.5029 -2.0583  0.1933
10192SOL     OW33977   0.171   7.477   6.044 -0.2591 -0.1951 -0.4533
10192SOL    HW133978   0.106   7.472   6.114  0.4640 -1.3192  0.1655
10192SOL    HW233979   0.189   7.386   6.021  1.3337  0.0652 -0.3651
10193SOL     OW33980  10.091   2.960   0.791 -0.4566  0.0055 -0.0804
10193SOL    HW133981  10.003   2.926   0.772 -0.7209  0.5999  0.0227
10193SOL    HW233982  10.135   2.890   0.838 -1.4071  0.2533  1.2246
10194SOL     OW33983   8.149  10.872   9.503 -0.3802 -0.2165 -0.5917
10194SOL    HW133984   8.088  10.799   9.506 -1.1024  0.2801 -1.9903
10194SOL    HW233985   8.148  10.909   9.591 -0.6591 -1.3573 -0.1027
10195SOL     OW33986   9.084   9.816   7.839 -0.4922  0.4542 -0.5201
10195SOL    HW133987   9.021   9.752   7.808  0.1019 -0.0130 -0.7764
10195SOL    HW233988   9.037   9.865   7.907 -0.4451 -1.3486  0.8938
10196SOL     OW33989   8.156   2.354   7.469  0.6297  0.3035  0.1213
10196SOL    HW133990   8.220   2.354   7.398  0.9075 -0.5705  0.3563
10196SOL    HW233991   8.071   2.365   7.426  0.9631  2.1960 -0.1412
10197SOL     OW33992   0.246   9.241   7.443  0.3658 -0.1813  0.1454
10197SOL    HW133993   0.319   9.214   7.387 -0.1329 -0.5069 -0.3479
10197SOL    HW233994   0.170   9.240   7.386 -0.0389  0.1186  0.6735
10198SOL     OW33995   8.625   8.253  10.330 -0.3966  0.1187  0.0490
10198SOL    HW133996   8.658   8.341  10.309 -1.1587  0.1469 -1.1181
10198SOL    HW233997   8.693   8.216  10.387 -0.4210  1.7268  1.2103
10199SOL     OW33998   0.578   9.686   6.616  0.1221  0.3131  0.0857
10199SOL    HW133999   0.541   9.604   6.647  2.6478 -1.1598 -0.5385
10199SOL    HW234000   0.643   9.710   6.682 -1.2453  2.4303  0.7892
10200SOL     OW34001   7.176   7.576   0.107 -0.1725 -0.8937 -0.1640
10200SOL    HW134002   7.088   7.579   0.070  0.0625 -1.0369 -0.7431
10200SOL    HW234003   7.168   7.519   0.184 -0.0170 -3.2383 -1.7843
10201SOL     OW34004   2.070   8.818   4.566 -0.2320  0.6204 -0.3857
10201SOL    HW134005   2.153   8.796   4.522  1.1372  1.5073  1.5871
10201SOL    HW234006   2.056   8.746   4.627  2.0698  2.8313  3.1218
10202SOL     OW34007   8.855   7.453   1.857  0.1684  0.0001  0.1078
10202SOL    HW134008   8.929   7.482   1.804  0.2632 -0.5033 -0.0462
10202SOL    HW234009   8.787   7.433   1.792  0.9693 -2.6677 -0.0572
10203SOL     OW34010   1.766   2.182   2.678 -0.3165 -0.3219 -0.2629
10203SOL    HW134011   1.677   2.208   2.702  0.1940  0.5195  0.8177
10203SOL    HW234012   1.767   2.087   2.690 -0.7864 -0.2152  0.7541
10204SOL     OW34013   7.894   4.595   9.843  0.4428  0.4897  0.0571
10204SOL    HW134014   7.945   4.675   9.854 -2.2073  2.0886  1.9167
10204SOL    HW234015   7.895   4.554   9.930 -0.7976  0.1990 -0.0488
10205SOL     OW34016   7.108   9.113  10.829 -0.4286 -0.2045  0.4311
10205SOL    HW134017   7.143   9.152  10.909 -1.0651 -1.3539  1.2852
10205SOL    HW234018   7.185   9.077  10.784 -0.0476  0.6175  0.4129
10206SOL     OW34019   6.849   4.369   7.081 -0.7405  0.3251  0.6082
10206SOL    HW134020   6.821   4.307   7.014  0.4749  0.6495 -0.2224
10206SOL    HW234021   6.768   4.414   7.106 -1.0838  0.9688 -1.4508
10207SOL     OW34022   9.050   7.555   7.596 -0.0053  0.7221  0.0012
10207SOL    HW134023   9.096   7.561   7.512 -0.9184  0.5280 -0.5276
10207SOL    HW234024   9.039   7.646   7.623 -0.6077  0.8392 -0.6051
10208SOL     OW34025   9.102   8.137   9.748  0.1959 -1.0189 -0.0836
10208SOL    HW134026   9.015   8.152   9.785 -0.2415  1.3178 -1.8181
10208SOL    HW234027   9.093   8.159   9.655  2.6213 -0.8028 -0.3322
10209SOL     OW34028   2.364   5.129   5.582  0.1480 -0.5643 -0.1591
10209SOL    HW134029   2.392   5.219   5.572  0.0080 -0.5386 -0.3223
10209SOL    HW234030   2.394   5.104   5.670 -1.6393  0.3085  0.7466
10210SOL     OW34031   3.786   8.791   1.265 -0.7565 -0.5341  0.3754
10210SOL    HW134032   3.818   8.880   1.279 -0.8723 -0.5512  0.7331
10210SOL    HW234033   3.804   8.774   1.172 -2.2038  0.4472 -0.1128
10211SOL     OW34034   2.473   2.774   4.511 -0.7676 -0.5009 -0.5308
10211SOL    HW134035   2.393   2.826   4.517 -0.8358 -0.3188 -2.5417
10211SOL    HW234036   2.490   2.746   4.601 -1.5739  1.6948  0.3626
10212SOL     OW34037   2.843   4.543   0.974 -0.0226  0.0564 -0.2212
10212SOL    HW134038   2.839   4.616   1.035  0.1142  1.0584 -1.3602
10212SOL    HW234039   2.931   4.506   0.986 -0.3506 -0.3985  0.8638
10213SOL     OW34040   0.037   5.493   2.279 -0.0844 -0.2951  0.5526
10213SOL    HW134041  -0.034   5.534   2.327  0.3514 -1.1500  1.9680
10213SOL    HW234042  -0.004   5.418   2.236 -0.2030 -0.3155  0.7005
10214SOL     OW34043   0.859   4.226   9.894 -0.1657  0.2178 -0.3988
10214SOL    HW134044   0.841   4.134   9.875  1.9613  0.1848 -2.9094
10214SOL    HW234045   0.917   4.224   9.971  0.2771 -0.6038 -0.7452
10215SOL     OW34046   2.925   0.665   8.710 -0.1503 -0.0305  0.4629
10215SOL    HW134047   2.869   0.742   8.709  0.0020  0.0752 -0.7145
10215SOL    HW234048   2.868   0.595   8.744 -1.5226 -0.2670 -2.0501
10216SOL     OW34049   2.163   6.927   1.751 -0.1033 -0.6898 -0.1248
10216SOL    HW134050   2.256   6.906   1.739  0.1978  0.4628  0.0384
10216SOL    HW234051   2.136   6.966   1.668  0.4890  2.0738  0.8583
10217SOL     OW34052   4.436   7.503   7.295  0.8840 -0.0887 -0.0413
10217SOL    HW134053   4.376   7.563   7.251  0.8800  0.5522  0.8147
10217SOL    HW234054   4.453   7.435   7.230  2.5807  1.9203 -1.8688
10218SOL     OW34055   9.423   8.682   4.389 -0.2505  0.0284  0.2459
10218SOL    HW134056   9.424   8.691   4.294  0.0934 -0.7839  0.1596
10218SOL    HW234057   9.372   8.757   4.420 -2.3679 -0.9080 -0.7152
10219SOL     OW34058   1.456   0.723   8.056  0.3731 -0.1311  0.5444
10219SOL    HW134059   1.521   0.667   8.014  0.6933 -2.0204  3.2686
10219SOL    HW234060   1.495   0.810   8.056  1.8808 -0.7713  0.1308
10220SOL     OW34061   4.937   4.523   7.125 -0.0554  0.4448 -0.3580
10220SOL    HW134062   4.857   4.560   7.161  1.0023  3.2972 -0.6410
10220SOL    HW234063   4.913   4.494   7.037 -0.9893  0.3412 -0.0789
10221SOL     OW34064   8.773   7.152   8.630 -0.0997 -0.4435  0.2935
10221SOL    HW134065   8.853   7.121   8.587  0.7050 -1.0775  2.1557
10221SOL    HW234066   8.776   7.247   8.619  0.0479 -0.5784 -1.0584
10222SOL     OW34067   6.115   2.142   0.455 -0.6831 -0.4181  0.2748
10222SOL    HW134068   6.039   2.142   0.397 -0.9387  0.4009  0.5928
10222SOL    HW234069   6.128   2.234   0.478  1.3217 -0.3454 -0.9290
10223SOL     OW34070   3.965   6.530   6.787 -0.2031 -0.2873  0.2689
10223SOL    HW134071   3.902   6.499   6.721 -1.1105 -0.4951  1.2086
10223SOL    HW234072   3.950   6.624   6.792 -3.5390 -0.7456  3.4688
10224SOL     OW34073   0.887   3.149   3.706  0.1746 -0.3538 -0.7368
10224SOL    HW134074   0.827   3.143   3.781 -0.8341 -1.4898 -1.5905
10224SOL    HW234075   0.906   3.058   3.683  3.5066 -0.0663  0.4321
10225SOL     OW34076   0.762   2.235   0.879  0.4498 -0.0398  0.2314
10225SOL    HW134077   0.850   2.245   0.843 -0.9460 -0.5011 -3.8015
10225SOL    HW234078   0.719   2.318   0.864 -0.4849 -0.5390  0.0541
10226SOL     OW34079   8.617   3.585   6.120 -0.0423  0.0508  0.8400
10226SOL    HW134080   8.629   3.511   6.060 -1.0433  0.0937  0.5706
10226SOL    HW234081   8.567   3.649   6.070  1.0557  1.0500  0.9825
10227SOL     OW34082   9.047  10.552   7.554 -0.1462 -0.2048  0.0994
10227SOL    HW134083   8.953  10.565   7.567 -0.0913 -0.3607  0.6654
10227SOL    HW234084   9.087  10.593   7.630  0.1079 -2.5442  1.3043
10228SOL     OW34085   1.892   6.304   2.632  0.3392 -0.2089  0.1054
10228SOL    HW134086   1.902   6.391   2.595  1.2102  0.2999  1.4567
10228SOL    HW234087   1.979   6.266   2.631  0.1412 -0.6879  0.3963
10229SOL     OW34088   6.886   8.525   1.915  0.1921  0.5889 -0.5042
10229SOL    HW134089   6.909   8.478   1.835 -0.5235  1.7008 -1.3863
10229SOL    HW234090   6.863   8.613   1.886  1.9814  1.6878  1.1357
10230SOL     OW34091   5.574   1.871   2.919 -0.0950 -0.1409 -0.3858
10230SOL    HW134092   5.530   1.844   3.000 -0.7752  1.4974 -0.1768
10230SOL    HW234093   5.666   1.850   2.934 -0.1214  0.6378  1.0687
10231SOL     OW34094   4.664   1.909   2.236  0.4633 -0.3327 -0.1007
10231SOL    HW134095   4.586   1.949   2.197 -0.8053 -1.7919  0.8096
10231SOL    HW234096   4.726   1.981   2.245 -0.5699  0.7669 -1.3489
10232SOL     OW34097   9.079   0.462  10.502 -0.0008  0.5692 -0.1586
10232SOL    HW134098   9.081   0.367  10.513  0.4537  0.6679  0.6620
10232SOL    HW234099   8.996   0.489  10.541  0.0945  0.5642  0.0465
10233SOL     OW34100   8.804   5.882  10.008 -0.6713  0.3018 -0.0300
10233SOL    HW134101   8.848   5.810  10.054 -0.5317  0.4140  0.0125
10233SOL    HW234102   8.875   5.933   9.970 -0.7368  0.7867  0.4898
10234SOL     OW34103   3.648   7.361   9.698  0.3694  0.4290  0.4565
10234SOL    HW134104   3.565   7.318   9.677  0.5704  0.6009 -0.7482
10234SOL    HW234105   3.627   7.419   9.771 -0.7005  0.8787 -0.1795
10235SOL     OW34106   9.919   9.228   4.670  0.0744  0.7571  0.4178
10235SOL    HW134107   9.977   9.240   4.745  1.8387 -0.7418 -0.6123
10235SOL    HW234108   9.954   9.151   4.625 -3.2011 -0.7093  0.1339
10236SOL     OW34109   8.670  10.107   4.078 -0.6865 -0.7101 -0.1380
10236SOL    HW134110   8.723  10.150   4.146  1.9944  0.8075 -2.9501
10236SOL    HW234111   8.704  10.017   4.076 -1.6181 -1.1261  1.2401
10237SOL     OW34112   0.657   9.605   2.663  0.0387 -0.4544 -0.1596
10237SOL    HW134113   0.663   9.654   2.581 -1.3197  1.0254  0.5586
10237SOL    HW234114   0.708   9.658   2.725  1.6154 -1.9031 -0.1634
10238SOL     OW34115   9.531   8.517   5.005 -0.1042  0.0968 -0.5899
10238SOL    HW134116   9.587   8.478   4.938 -0.1954 -1.4005  0.1655
10238SOL    HW234117   9.446   8.526   4.963  0.2726  0.8831 -1.2299
10239SOL     OW34118   0.464   3.109   7.076 -0.5615 -0.4579 -0.2378
10239SOL    HW134119   0.463   3.126   7.171  0.3541 -0.2992 -0.2484
10239SOL    HW234120   0.506   3.186   7.039 -0.2865 -0.8395 -0.7118
10240SOL     OW34121   2.908   0.571   5.002 -0.1471  0.0615  0.0074
10240SOL    HW134122   2.955   0.652   4.982 -1.8305  0.6614 -1.8937
10240SOL    HW234123   2.976   0.507   5.021  1.2928  1.5079 -0.1166
10241SOL     OW34124  10.312   4.754   0.876  0.6179  0.0122  0.3264
10241SOL    HW134125  10.235   4.751   0.819  0.5507 -0.0574  0.4191
10241SOL    HW234126  10.281   4.794   0.957  0.8735  0.7419  0.0723
10242SOL     OW34127   3.985   3.268  10.817  0.1109 -0.1190  0.1496
10242SOL    HW134128   3.906   3.213  10.822 -1.3597  1.7036 -1.3068
10242SOL    HW234129   3.965   3.343  10.872  0.5827  0.6368 -0.6862
10243SOL     OW34130   4.952   2.988   2.898  0.2582  0.2626  0.2093
10243SOL    HW134131   5.039   2.950   2.912 -0.2687 -0.8396  0.6253
10243SOL    HW234132   4.908   2.978   2.982 -0.3281  0.6707 -0.0429
10244SOL     OW34133   4.065   9.960   1.574 -0.2178  0.1265 -0.0932
10244SOL    HW134134   4.047   9.868   1.590 -3.6790  0.5833 -0.6475
10244SOL    HW234135   4.053   9.971   1.479  1.2485  0.9952 -0.2214
10245SOL     OW34136   7.046   7.678   0.658  0.0733 -0.1304 -0.1460
10245SOL    HW134137   6.954   7.703   0.646  0.3077  0.7590 -0.2194
10245SOL    HW234138   7.049   7.641   0.746 -0.3844 -0.3003 -0.1980
10246SOL     OW34139  10.389   0.180   1.627  0.0253  0.0424  0.1005
10246SOL    HW134140  10.345   0.174   1.542  0.7733  1.6182 -0.4405
10246SOL    HW234141  10.414   0.090   1.648 -0.9117 -0.4819 -0.9373
10247SOL     OW34142   7.334   3.573   5.540 -0.0740 -0.5865 -0.2978
10247SOL    HW134143   7.335   3.479   5.520 -0.8923 -0.8447  0.7465
10247SOL    HW234144   7.284   3.612   5.469  0.6329 -0.8723 -0.9670
10248SOL     OW34145   1.841   9.145   0.857 -0.0677 -0.5441  0.0892
10248SOL    HW134146   1.934   9.168   0.856 -0.0571 -0.5806  0.2462
10248SOL    HW234147   1.836   9.061   0.811  0.0704 -0.8944  0.7044
10249SOL     OW34148   8.485   1.029   3.736  0.6819 -0.6249 -0.2188
10249SOL    HW134149   8.548   1.080   3.787  2.2915 -1.3990 -1.3531
10249SOL    HW234150   8.449   1.091   3.673 -2.0276  0.5967  2.2614
10250SOL     OW34151   9.530   1.470   3.684 -0.5546  0.4454  0.2201
10250SOL    HW134152   9.443   1.507   3.669 -1.6168 -1.4262  1.2749
10250SOL    HW234153   9.551   1.425   3.603 -0.9873  0.1663  0.2575
10251SOL     OW34154   6.904   9.086   0.544 -0.8668  0.1160  0.4083
10251SOL    HW134155   6.946   9.013   0.589 -0.6074 -0.2022 -0.3273
10251SOL    HW234156   6.955   9.163   0.569  0.5474 -0.3418 -0.9189
10252SOL     OW34157   9.168   3.013   3.244 -0.7072 -0.0139 -0.0883
10252SOL    HW134158   9.089   2.961   3.261  0.4280 -2.2746 -1.2318
10252SOL    HW234159   9.216   3.011   3.327 -0.3636 -1.5005 -0.2763
10253SOL     OW34160   5.597   4.587   7.286 -0.1567  0.1107 -0.0561
10253SOL    HW134161   5.577   4.553   7.199 -0.9778  1.8463 -0.5776
10253SOL    HW234162   5.543   4.533   7.345  0.2084 -0.9026 -0.6294
10254SOL     OW34163  10.099   2.706   1.858  0.1527  0.0141  0.1044
10254SOL    HW134164  10.184   2.749   1.867  0.6268 -1.0891  1.1646
10254SOL    HW234165  10.118   2.613   1.865 -0.8125 -0.4437 -2.3660
10255SOL     OW34166  10.644   8.285   9.990 -0.4399 -0.0201 -0.1437
10255SOL    HW134167  10.667   8.273   9.898  1.5438 -0.2068  0.3288
10255SOL    HW234168  10.549   8.281   9.992 -0.5764  0.9480 -2.3164
10256SOL     OW34169   0.668   3.976   2.258  0.4199  0.1560 -0.2040
10256SOL    HW134170   0.583   4.016   2.277 -0.0836 -1.1481  0.3798
10256SOL    HW234171   0.658   3.940   2.169 -0.2304 -1.4456  0.4863
10257SOL     OW34172   8.078   9.352   5.105 -0.3269  0.6239 -0.4193
10257SOL    HW134173   8.058   9.440   5.138  1.9745  0.8832  0.4778
10257SOL    HW234174   8.165   9.333   5.139 -0.2624 -1.5350 -1.6136
10258SOL     OW34175  10.000   4.032   9.910  0.0586  0.2405 -0.0568
10258SOL    HW134176   9.941   4.105   9.892  1.1104  1.1790  0.1446
10258SOL    HW234177  10.081   4.056   9.865 -0.0202 -1.5342 -1.2573
10259SOL     OW34178   9.263   2.162  10.765  0.3630  0.3578  0.3637
10259SOL    HW134179   9.219   2.176  10.681 -1.3108 -0.1421  1.0978
10259SOL    HW234180   9.269   2.250  10.804  0.3764  0.4835  0.0788
10260SOL     OW34181   4.324   1.995   9.862 -0.4410 -0.7436 -0.0950
10260SOL    HW134182   4.316   1.915   9.810 -1.6909 -0.4012 -0.4754
10260SOL    HW234183   4.252   1.990   9.925  0.3685 -0.6045  0.8648
10261SOL     OW34184  10.203  10.821  10.264 -0.1716 -0.4588 -0.0140
10261SOL    HW134185  10.291  10.859  10.272 -0.1902 -0.5067  0.4219
10261SOL    HW234186  10.203  10.745  10.322 -0.3658 -0.7151 -0.3400
10262SOL     OW34187   0.406   5.404   3.652 -0.1598  0.1410 -0.0334
10262SOL    HW134188   0.361   5.402   3.736 -3.1676  0.4670 -1.4955
10262SOL    HW234189   0.414   5.497   3.631  0.8967  0.0726  0.0100
10263SOL     OW34190   2.957   0.551   0.787  0.0643 -0.3840  0.0159
10263SOL    HW134191   2.983   0.461   0.809  0.2883 -0.2358  0.3717
10263SOL    HW234192   2.950   0.595   0.872 -1.2662 -0.3875 -0.0631
10264SOL     OW34193   2.120   4.555   2.750  0.1150 -0.5592  0.2356
10264SOL    HW134194   2.069   4.500   2.690 -2.1656 -2.7077  3.7942
10264SOL    HW234195   2.207   4.514   2.753 -0.2913 -1.4820 -0.2622
10265SOL     OW34196   7.935   3.449   3.091 -0.4238 -0.0897 -0.1868
10265SOL    HW134197   7.914   3.428   3.000 -0.3893 -1.0464  0.0147
10265SOL    HW234198   7.853   3.435   3.138 -0.1372 -0.8460  0.1153
10266SOL     OW34199   3.884   7.695   7.421 -0.5001 -0.4413  0.1877
10266SOL    HW134200   3.803   7.656   7.454  0.5667 -1.4702  1.7516
10266SOL    HW234201   3.921   7.741   7.497  1.3242 -1.6447  0.0979
10267SOL     OW34202   2.006   7.930   8.995 -0.1763 -0.0118  0.3117
10267SOL    HW134203   2.017   7.836   9.011  0.6704  0.0199 -0.0437
10267SOL    HW234204   1.911   7.942   8.988 -0.2489 -1.0410 -0.7644
10268SOL     OW34205   9.196   0.740   2.058 -0.2128  0.3610 -0.0504
10268SOL    HW134206   9.149   0.809   2.012 -0.0828 -0.8230 -2.0631
10268SOL    HW234207   9.288   0.753   2.033  0.3784  1.5630  2.4160
10269SOL     OW34208   9.190   6.259   5.966  0.6191  0.7241 -0.4107
10269SOL    HW134209   9.275   6.215   5.961 -0.3408 -1.3267  0.2563
10269SOL    HW234210   9.140   6.222   5.893 -0.1759  0.8053  0.0871
10270SOL     OW34211   5.582   6.357   1.350 -1.0947 -0.0055 -0.3769
10270SOL    HW134212   5.614   6.334   1.263 -2.0488 -1.2645 -0.4211
10270SOL    HW234213   5.544   6.445   1.340  1.0260  0.9394 -0.6266
10271SOL     OW34214   9.114   7.300   5.842 -0.2528 -0.3911  0.1643
10271SOL    HW134215   9.073   7.328   5.923 -0.0750  1.4172 -0.3173
10271SOL    HW234216   9.042   7.286   5.781 -0.3003  0.1745  0.0850
10272SOL     OW34217   5.880   0.467   2.631 -0.2417 -0.1742 -0.5781
10272SOL    HW134218   5.859   0.412   2.707  2.3493 -1.8118 -0.9295
10272SOL    HW234219   5.867   0.409   2.556 -3.4284  1.6122 -1.6142
10273SOL     OW34220   1.064   4.144   4.544 -0.4334 -0.1929  0.2511
10273SOL    HW134221   1.013   4.166   4.622 -0.1075  0.5829  0.2473
10273SOL    HW234222   1.043   4.052   4.527  0.4207 -0.7408  1.9579
10274SOL     OW34223   2.531   7.324   2.615 -0.7446  0.3844  0.0650
10274SOL    HW134224   2.512   7.343   2.523 -0.7460 -0.7741 -0.1957
10274SOL    HW234225   2.602   7.259   2.612  0.9084  2.0615  0.9472
10275SOL     OW34226   8.522   2.790  10.039  0.2349  0.0283  0.1944
10275SOL    HW134227   8.519   2.830   9.952 -0.3634  0.4631  0.4065
10275SOL    HW234228   8.506   2.863  10.099  1.9977 -0.0007  0.7598
10276SOL     OW34229   4.996   2.350   8.093 -0.1803 -0.3718  0.0474
10276SOL    HW134230   5.037   2.266   8.073 -1.7252 -0.4073 -3.8552
10276SOL    HW234231   5.069   2.406   8.120  1.1253 -2.4685  1.1795
10277SOL     OW34232   8.563   5.862   0.102 -0.0365  0.6094 -0.0890
10277SOL    HW134233   8.545   5.822   0.017  1.2639  1.0981 -0.6233
10277SOL    HW234234   8.631   5.927   0.084  1.0579 -0.0404  1.4842
10278SOL     OW34235   9.511   1.363   1.660  0.0075  0.4020 -0.0720
10278SOL    HW134236   9.525   1.359   1.754  0.2231 -0.7587 -0.1348
10278SOL    HW234237   9.463   1.444   1.646 -0.4768  0.3364  1.0970
10279SOL     OW34238   7.636   7.542   9.933 -0.1007 -0.0780  0.0142
10279SOL    HW134239   7.579   7.572   9.862 -1.7091 -1.1899  0.7564
10279SOL    HW234240   7.724   7.546   9.896 -0.6922  1.2115 -1.3768
10280SOL     OW34241   5.007   3.602   6.642 -0.3684  0.1730  0.0167
10280SOL    HW134242   4.968   3.530   6.592 -0.3067  0.0179  0.1884
10280SOL    HW234243   5.052   3.656   6.577  1.0702 -0.8903  0.0707
10281SOL     OW34244   7.596   7.834   9.194 -0.2549 -0.1623  0.1338
10281SOL    HW134245   7.563   7.882   9.269  0.6811 -0.4143  0.7202
10281SOL    HW234246   7.526   7.772   9.173 -0.4967 -0.1408  0.8436
10282SOL     OW34247   4.631   3.425   2.050 -0.4745 -0.1432 -0.4883
10282SOL    HW134248   4.592   3.398   2.133 -1.6389  1.0184 -0.6339
10282SOL    HW234249   4.684   3.501   2.072 -0.5070 -0.0460 -0.7460
10283SOL     OW34250   6.356   4.125  10.405 -0.7094  0.8206  0.0366
10283SOL    HW134251   6.321   4.056  10.349 -1.1844  0.3777  0.8597
10283SOL    HW234252   6.288   4.139  10.471 -0.6488  2.1383 -0.1679
10284SOL     OW34253   2.949   8.981   2.140  0.3460 -0.2339  0.5608
10284SOL    HW134254   2.975   8.902   2.093  2.3509  0.6060  0.1697
10284SOL    HW234255   3.025   9.003   2.195 -0.8373  0.4501  2.0029
10285SOL     OW34256   5.930   6.218   8.351  0.4173 -0.2461 -0.2511
10285SOL    HW134257   5.928   6.122   8.356  3.2578 -0.3697 -0.0895
10285SOL    HW234258   5.916   6.247   8.442 -0.4180 -0.4966 -0.2952
10286SOL     OW34259   8.471   5.067   5.535  0.0588  0.3237  0.1537
10286SOL    HW134260   8.506   4.984   5.568  0.7190  1.9648  4.1651
10286SOL    HW234261   8.549   5.121   5.520 -0.4307  0.7812 -0.8308
10287SOL     OW34262   8.829   8.223   4.160  0.2055 -0.1669  0.4695
10287SOL    HW134263   8.836   8.292   4.094 -1.1987 -0.0699  0.3931
10287SOL    HW234264   8.783   8.264   4.233  1.1445 -0.4716  1.2554
10288SOL     OW34265   9.130   1.751   1.186  0.4600  0.1214  0.7328
10288SOL    HW134266   9.058   1.729   1.245  0.3511 -1.4001  0.0818
10288SOL    HW234267   9.089   1.767   1.101  0.8903 -1.0073  0.2963
10289SOL     OW34268   3.808   2.711   2.406  0.5570 -0.1872 -0.1028
10289SOL    HW134269   3.744   2.715   2.335  1.8652 -2.2971 -1.5153
10289SOL    HW234270   3.867   2.785   2.389 -0.1014  0.3381 -0.1772
10290SOL     OW34271   2.828   0.460  10.107  0.4830 -0.0695  0.8839
10290SOL    HW134272   2.911   0.494  10.141  0.4649  3.6623 -2.1178
10290SOL    HW234273   2.849   0.430  10.019 -1.4881  2.5077 -0.5829
10291SOL     OW34274   7.623   4.374   7.617 -0.2548 -0.1297 -0.2797
10291SOL    HW134275   7.607   4.466   7.641  1.0985  0.1121 -0.2624
10291SOL    HW234276   7.595   4.368   7.526 -0.2062  0.3369 -0.3292
10292SOL     OW34277   6.771   3.949  10.313 -0.0711  0.0621 -0.9548
10292SOL    HW134278   6.702   4.001  10.271  0.5315  1.1923 -0.5881
10292SOL    HW234279   6.847   4.007  10.315  0.7473 -0.9715 -0.8578
10293SOL     OW34280   0.077   3.313   7.917  0.0570  0.3196  0.5993
10293SOL    HW134281   0.046   3.224   7.902  0.1161  0.3442  0.3334
10293SOL    HW234282   0.099   3.346   7.830  1.6151  0.0252  0.8604
10294SOL     OW34283   4.310   2.928   8.783  0.0080 -0.3752  0.3601
10294SOL    HW134284   4.361   2.858   8.825  0.1461 -0.3119  0.2984
10294SOL    HW234285   4.376   2.986   8.745 -0.1304 -0.8456 -0.6204
10295SOL     OW34286   8.249   1.981   6.113  0.4434 -0.0193  0.0665
10295SOL    HW134287   8.303   2.012   6.040  0.9472 -0.9965  0.0047
10295SOL    HW234288   8.159   1.993   6.084  0.5905 -2.4158 -1.6691
10296SOL     OW34289   7.579   0.552  10.375 -0.4190  0.0659  0.2009
10296SOL    HW134290   7.590   0.589  10.288  2.9874 -0.1266  0.4314
10296SOL    HW234291   7.563   0.627  10.432  0.9867  0.6109 -0.1030
10297SOL     OW34292   6.141   1.550   6.883  0.2744 -0.0815 -0.3966
10297SOL    HW134293   6.178   1.633   6.853  1.1585 -0.0458  0.7040
10297SOL    HW234294   6.177   1.485   6.823  0.7156  0.1743 -0.4174
10298SOL     OW34295   9.847   2.025   3.627 -0.6263  0.0767  0.3805
10298SOL    HW134296   9.839   1.941   3.582  0.2714  0.7185 -1.0631
10298SOL    HW234297   9.758   2.047   3.654 -0.9767 -0.9939  0.1160
10299SOL     OW34298   8.387   5.098   9.086 -0.4151 -0.2090  0.4852
10299SOL    HW134299   8.385   5.014   9.041 -0.8026 -0.0668  0.2376
10299SOL    HW234300   8.460   5.090   9.148  0.2644 -0.3117 -0.3257
10300SOL     OW34301   8.900   9.758   2.656  0.2570 -0.2986  0.1808
10300SOL    HW134302   8.988   9.727   2.638  0.3831 -0.5020  1.0985
10300SOL    HW234303   8.845   9.679   2.653  0.0697 -0.1471 -0.5674
10301SOL     OW34304   6.229   4.532   4.756  0.3852  0.1181 -0.1965
10301SOL    HW134305   6.269   4.464   4.701  0.6117  0.8242 -0.9401
10301SOL    HW234306   6.298   4.558   4.816  0.3093 -0.2858  0.0649
10302SOL     OW34307   6.112   4.744   1.520 -0.0403  0.8186  0.6495
10302SOL    HW134308   6.017   4.731   1.519  0.0366  0.2100 -0.0163
10302SOL    HW234309   6.147   4.659   1.544  0.4051  0.3146 -1.5188
10303SOL     OW34310   0.219   0.281  10.638  0.2667 -0.0902 -0.5411
10303SOL    HW134311   0.166   0.211  10.600  0.0461 -0.4922  0.4784
10303SOL    HW234312   0.296   0.237  10.673  0.1499  0.1699  0.0623
10304SOL     OW34313   0.786   8.856   6.190 -0.1431  0.4307  0.2152
10304SOL    HW134314   0.737   8.900   6.260  0.1394  0.1845  0.5720
10304SOL    HW234315   0.720   8.831   6.126 -0.3975  0.7125  0.3658
10305SOL     OW34316   5.323   3.863   1.283 -0.0190  0.5876  0.3219
10305SOL    HW134317   5.372   3.941   1.307  1.1898  0.2069 -0.7806
10305SOL    HW234318   5.390   3.796   1.267 -1.0151 -0.6064  0.9829
10306SOL     OW34319   7.399   9.343   4.505  0.7306 -0.7949 -0.2117
10306SOL    HW134320   7.356   9.261   4.481 -1.3881  0.2815 -0.3848
10306SOL    HW234321   7.363   9.408   4.445  3.3957  0.0883 -1.0023
10307SOL     OW34322   4.469   7.554   9.207 -0.0730 -0.5129  0.1506
10307SOL    HW134323   4.478   7.480   9.147  1.6940 -0.2049 -0.0173
10307SOL    HW234324   4.552   7.556   9.254 -0.6037  0.5878  1.0712
10308SOL     OW34325   4.468   2.637   5.092 -0.1333 -0.3669 -0.0774
10308SOL    HW134326   4.408   2.565   5.075  0.3256 -0.8094  0.1738
10308SOL    HW234327   4.555   2.597   5.092  0.2246  0.3739 -1.0969
10309SOL     OW34328   8.325   3.507   6.493  0.2782  0.2233 -0.1446
10309SOL    HW134329   8.418   3.521   6.507  0.3674  0.1485 -0.6372
10309SOL    HW234330   8.316   3.501   6.398 -0.4242  1.6697 -0.1898
10310SOL     OW34331   6.947   5.216   4.362 -0.0970  0.1549 -0.2090
10310SOL    HW134332   6.859   5.253   4.370  0.5540  1.6952  0.1139
10310SOL    HW234333   6.985   5.225   4.450  0.7585  0.5030 -0.6057
10311SOL     OW34334   1.258   7.027   8.080 -0.0943  0.8111  0.2167
10311SOL    HW134335   1.217   7.088   8.142  0.3002  1.1558  0.1386
10311SOL    HW234336   1.226   7.055   7.994  0.3341  1.1054  0.1524
10312SOL     OW34337   7.994   2.696  10.124 -0.5995 -0.1544  0.2229
10312SOL    HW134338   7.956   2.784  10.126  1.4312  0.7903  2.4291
10312SOL    HW234339   7.940   2.644  10.182 -0.3744  0.3375  0.8824
10313SOL     OW34340   0.039   8.440   7.702 -0.3654 -0.5263 -0.0456
10313SOL    HW134341  -0.016   8.428   7.779  0.5964  0.2882  0.7994
10313SOL    HW234342   0.079   8.526   7.714  0.5653 -0.8094 -0.9648
10314SOL     OW34343   2.369   8.670   4.674 -0.0010 -0.5121  0.0928
10314SOL    HW134344   2.449   8.622   4.691 -0.9543 -2.2651 -0.1282
10314SOL    HW234345   2.305   8.632   4.734 -1.0511 -0.2524 -0.8211
10315SOL     OW34346   1.231   6.130   4.828  0.1752 -0.0832 -0.2395
10315SOL    HW134347   1.244   6.164   4.740  1.5979  1.0485  0.3782
10315SOL    HW234348   1.174   6.194   4.871  0.7223  0.1713  0.1192
10316SOL     OW34349   4.691  10.715   8.642 -0.1264 -0.1989  0.0296
10316SOL    HW134350   4.655  10.803   8.650 -2.0344 -0.9828  0.5573
10316SOL    HW234351   4.754  10.707   8.714  2.2391  1.6517 -1.6903
10317SOL     OW34352   2.557   9.787   2.203 -0.1435 -0.1613 -0.2469
10317SOL    HW134353   2.509   9.705   2.217 -0.3901  0.1507  0.8572
10317SOL    HW234354   2.511   9.851   2.257  0.0285  0.7212 -1.1175
10318SOL     OW34355   9.059   7.463   6.788  0.3396  0.1415 -0.2756
10318SOL    HW134356   9.122   7.534   6.781 -0.2413  0.6458 -0.5254
10318SOL    HW234357   9.026   7.469   6.878  0.4252  0.0668 -0.2387
10319SOL     OW34358   3.244   8.547   3.027  0.4185 -0.3264  0.1680
10319SOL    HW134359   3.255   8.510   2.940  1.0517  0.6589 -0.1988
10319SOL    HW234360   3.160   8.593   3.024  0.1638 -0.7798  0.2704
10320SOL     OW34361   8.497   9.391   9.425 -0.1071  0.0730  0.5094
10320SOL    HW134362   8.521   9.474   9.465 -2.6571  1.3423 -0.3914
10320SOL    HW234363   8.547   9.325   9.474  1.6540  2.0525  1.5186
10321SOL     OW34364   2.645   5.173   2.968 -0.5769 -0.5317 -0.0103
10321SOL    HW134365   2.692   5.163   2.885 -0.8165 -0.6276 -0.1390
10321SOL    HW234366   2.656   5.265   2.991 -2.0588 -0.0215 -1.1158
10322SOL     OW34367   8.725   2.844   4.315 -0.5280 -0.2914 -0.9814
10322SOL    HW134368   8.761   2.931   4.331 -0.3443 -0.6021  0.3764
10322SOL    HW234369   8.641   2.843   4.361 -0.4693 -0.8795 -0.8781
10323SOL     OW34370   0.892  10.316   4.183 -0.1218  0.5318  0.4558
10323SOL    HW134371   0.892  10.235   4.133  0.3629  0.6282  0.2943
10323SOL    HW234372   0.882  10.385   4.117 -2.3567  0.5456  0.7204
10324SOL     OW34373   5.402   8.598   8.799  0.2739  0.7335 -0.0476
10324SOL    HW134374   5.474   8.565   8.853 -0.5358 -0.2571  0.4563
10324SOL    HW234375   5.408   8.693   8.806  0.6911  0.6341  1.1054
10325SOL     OW34376   9.553   9.762   2.124 -0.5557 -0.1140  0.0499
10325SOL    HW134377   9.543   9.857   2.121  1.7660  0.2583  1.5615
10325SOL    HW234378   9.535   9.739   2.215  0.2107 -0.9259  0.0060
10326SOL     OW34379   1.069   3.981   9.160 -0.3318 -0.0987  0.2829
10326SOL    HW134380   1.163   3.967   9.151 -0.2446 -0.2101  1.3134
10326SOL    HW234381   1.033   3.958   9.074  0.5123 -0.5994  0.0589
10327SOL     OW34382  10.134   1.258   6.496  0.6197 -0.1068 -0.7514
10327SOL    HW134383  10.118   1.244   6.589  0.0661 -0.4823 -0.8936
10327SOL    HW234384  10.123   1.352   6.484  1.7262  0.0987 -0.2571
10328SOL     OW34385  10.336   8.969   9.803 -0.0491  0.2370 -0.1405
10328SOL    HW134386  10.296   9.051   9.774  0.0230  0.7084  1.0523
10328SOL    HW234387  10.428   8.991   9.820 -0.0293 -0.0787  0.1845
10329SOL     OW34388   2.577   0.005   3.111 -0.7059 -0.5142  0.2798
10329SOL    HW134389   2.516   0.010   3.038 -0.1667 -1.0413 -0.2142
10329SOL    HW234390   2.555   0.080   3.166  0.3763  1.3095 -1.6152
10330SOL     OW34391   9.456   9.311   0.170  0.2970  0.0512 -0.5218
10330SOL    HW134392   9.516   9.237   0.168  0.7669  0.4344 -1.0052
10330SOL    HW234393   9.370   9.272   0.182  0.3943 -0.6781 -1.9224
10331SOL     OW34394   1.781   9.499   0.276 -0.1200 -0.0949 -0.2003
10331SOL    HW134395   1.823   9.574   0.233  1.1123 -0.8418 -0.3511
10331SOL    HW234396   1.766   9.436   0.206 -0.2115 -0.4034  0.0920
10332SOL     OW34397   2.256   3.645   3.157  0.4399  0.1407 -0.3268
10332SOL    HW134398   2.277   3.614   3.069  0.3734  0.1450 -0.3435
10332SOL    HW234399   2.331   3.700   3.181 -0.0417  1.0360 -0.8129
10333SOL     OW34400   1.710   2.065   4.291  0.4186  0.2759 -0.2799
10333SOL    HW134401   1.763   1.999   4.246  1.7783 -0.8782  2.7025
10333SOL    HW234402   1.764   2.144   4.289 -0.5357  0.9600 -2.4964
10334SOL     OW34403   1.052   9.675   8.298 -0.9791 -0.2564 -0.3127
10334SOL    HW134404   1.065   9.653   8.391  0.4994  0.6772 -0.2572
10334SOL    HW234405   1.081   9.597   8.251  2.4207  0.6709 -0.0624
10335SOL     OW34406   4.083   8.373   0.187 -0.2762  0.6204  0.4972
10335SOL    HW134407   4.156   8.353   0.245 -0.6085  2.5765  1.7091
10335SOL    HW234408   4.122   8.426   0.118 -0.2146 -0.0802 -0.0142
10336SOL     OW34409   4.303   4.461   8.048 -0.1872  0.3917  1.0058
10336SOL    HW134410   4.366   4.528   8.073  0.3998 -0.4007  1.7107
10336SOL    HW234411   4.343   4.379   8.074 -1.3532 -0.1646  1.1366
10337SOL     OW34412   0.135   7.260   1.541  0.5902 -1.1239  0.0500
10337SOL    HW134413   0.089   7.231   1.619  0.6722 -1.4789 -0.0320
10337SOL    HW234414   0.218   7.294   1.573  0.6083 -1.2357  0.1215
10338SOL     OW34415   7.128   3.833   8.738  0.2825 -0.5289  0.2030
10338SOL    HW134416   7.043   3.801   8.767 -0.1157 -0.0953 -0.4395
10338SOL    HW234417   7.134   3.805   8.646  0.1347  0.7574 -0.2281
10339SOL     OW34418   2.768   7.947   6.042  0.4252  0.5715  0.1317
10339SOL    HW134419   2.739   7.857   6.030 -0.8165  0.8844  0.6511
10339SOL    HW234420   2.859   7.947   6.011  0.1631 -0.6448 -0.7323
10340SOL     OW34421   6.964   4.949   0.639  1.0106  0.1102  0.2082
10340SOL    HW134422   7.019   5.020   0.673  0.4587 -0.2619  2.0096
10340SOL    HW234423   7.020   4.871   0.642  1.2811  0.2600 -0.7489
10341SOL     OW34424   9.432   4.785   6.904 -0.4445 -0.5179  0.0809
10341SOL    HW134425   9.449   4.786   6.810  1.6922  1.2318  0.3886
10341SOL    HW234426   9.429   4.693   6.928 -0.3472 -0.9799 -1.5818
10342SOL     OW34427   7.118   9.939   9.969 -0.2058  0.1030  0.4824
10342SOL    HW134428   7.088   9.989  10.045 -1.2863 -0.3461  0.3710
10342SOL    HW234429   7.043   9.883   9.945  0.7728 -1.1745  0.2750
10343SOL     OW34430   3.761   5.601   5.720 -0.1274 -0.0479 -0.0915
10343SOL    HW134431   3.854   5.611   5.699 -0.5068  2.9741 -0.8108
10343SOL    HW234432   3.757   5.609   5.815  0.1918  2.6330 -0.2308
10344SOL     OW34433   4.142   4.383   3.557 -0.1550  0.7749  0.0377
10344SOL    HW134434   4.161   4.342   3.472  0.8392  2.5647 -0.6776
10344SOL    HW234435   4.095   4.317   3.606  2.7573 -1.8725 -0.3960
10345SOL     OW34436  10.089   3.415   9.809 -0.2376 -0.2005 -0.4008
10345SOL    HW134437   9.995   3.396   9.807  0.0051 -1.4181 -1.1978
10345SOL    HW234438  10.095   3.505   9.840 -1.8169  0.7930 -2.7110
10346SOL     OW34439   1.447   7.370   3.178  0.2203 -0.1400  0.1607
10346SOL    HW134440   1.485   7.282   3.178 -0.9351 -0.6836 -1.4059
10346SOL    HW234441   1.469   7.406   3.264  2.4442 -1.1723  0.0725
10347SOL     OW34442   3.759   3.114   7.528  0.3232 -0.0124 -0.5733
10347SOL    HW134443   3.678   3.062   7.526  1.6846 -2.3273  0.1993
10347SOL    HW234444   3.756   3.159   7.612  0.7436 -1.7173  0.3877
10348SOL     OW34445   3.524   7.553   3.070  0.3188  0.1613  0.1642
10348SOL    HW134446   3.437   7.594   3.068  1.1476  1.9818 -0.2141
10348SOL    HW234447   3.517   7.488   3.141 -1.6341 -0.4874 -0.5298
10349SOL     OW34448  10.387   8.426   8.292  0.4136 -0.2093 -0.3443
10349SOL    HW134449  10.338   8.348   8.266  1.2341 -1.1995  0.9465
10349SOL    HW234450  10.477   8.408   8.266  1.0931 -0.8413  2.1437
10350SOL     OW34451   8.270   3.187   4.897 -0.0619 -0.2435 -0.0591
10350SOL    HW134452   8.307   3.199   4.984  1.6275  0.0740 -0.7871
10350SOL    HW234453   8.252   3.275   4.865  2.0373 -0.1481 -1.1205
10351SOL     OW34454   7.689   3.131   4.746 -0.0791  0.2055 -0.5612
10351SOL    HW134455   7.761   3.135   4.683  0.1384 -1.1850 -0.4385
10351SOL    HW234456   7.717   3.185   4.819  0.1013  1.0242 -1.2156
10352SOL     OW34457   9.903  10.908   8.344  0.2220 -0.3267  0.2965
10352SOL    HW134458   9.896  10.857   8.263 -0.2152  0.1511  0.0283
10352SOL    HW234459   9.855  10.857   8.409  0.1154 -0.4441  0.1251
10353SOL     OW34460   8.350   3.553   2.974 -0.0210 -0.5616 -0.5057
10353SOL    HW134461   8.423   3.544   2.913 -1.3854 -0.9690 -2.1595
10353SOL    HW234462   8.332   3.464   3.005  0.6265 -0.3655  0.4839
10354SOL     OW34463   5.836   4.516   8.753 -0.0424 -0.1568 -0.3335
10354SOL    HW134464   5.752   4.471   8.760  0.1953 -0.4026  1.4330
10354SOL    HW234465   5.836   4.553   8.665 -1.7523 -0.6298 -0.5739
10355SOL     OW34466   1.515   6.699   9.479  0.4919 -0.4897  0.2547
10355SOL    HW134467   1.536   6.671   9.390 -0.0385  0.9731 -0.3632
10355SOL    HW234468   1.420   6.690   9.485  0.4060  0.3721  0.3088
10356SOL     OW34469   7.509   5.714  10.037 -0.8537 -0.5389 -0.5259
10356SOL    HW134470   7.577   5.674  10.092  0.0431  0.6071 -0.7467
10356SOL    HW234471   7.427   5.691  10.080 -0.1879  0.2804  1.3097
10357SOL     OW34472   8.159   1.414   8.241 -0.3514  0.2129 -0.5455
10357SOL    HW134473   8.105   1.472   8.294  0.1343 -0.5996  0.9128
10357SOL    HW234474   8.239   1.464   8.225  1.2538 -0.8633  3.0419
10358SOL     OW34475   1.692   7.810   7.147 -0.1591  0.3579  0.2092
10358SOL    HW134476   1.750   7.883   7.168 -0.9747  1.3484 -0.8822
10358SOL    HW234477   1.635   7.802   7.223  0.8265 -0.0627  0.9226
10359SOL     OW34478   0.128   2.337   4.840 -0.3631  0.3809 -0.0825
10359SOL    HW134479   0.168   2.362   4.924  0.7528  1.0780 -0.8043
10359SOL    HW234480   0.080   2.257   4.861  3.1883 -1.8544  0.4450
10360SOL     OW34481   9.185   3.732   3.500  0.5136 -0.4515  0.9086
10360SOL    HW134482   9.101   3.769   3.476  0.5234 -0.3443  1.0392
10360SOL    HW234483   9.179   3.717   3.595  0.9396  0.3372  1.0716
10361SOL     OW34484   3.861   9.623   8.258 -0.0240 -0.0325 -0.0527
10361SOL    HW134485   3.800   9.664   8.320 -1.3151 -1.9646  0.0116
10361SOL    HW234486   3.889   9.543   8.302 -0.5249 -1.1588 -1.7178
10362SOL     OW34487   5.301   6.616  10.393 -0.1365  0.0793  0.1820
10362SOL    HW134488   5.225   6.559  10.381  0.5744 -1.0930  1.0190
10362SOL    HW234489   5.344   6.618  10.308 -0.4924 -0.1634 -0.0032
10363SOL     OW34490   4.699  10.311   0.711  0.4946  0.2141  0.2236
10363SOL    HW134491   4.626  10.253   0.692  0.6736  0.0254  0.0956
10363SOL    HW234492   4.726  10.344   0.625  1.1862 -0.4883  0.1589
10364SOL     OW34493   6.726   1.545   3.494 -0.1929  0.7500  0.0425
10364SOL    HW134494   6.640   1.571   3.462 -0.3263  1.3868  0.8709
10364SOL    HW234495   6.735   1.453   3.468 -0.6714  0.9720 -0.9645
10365SOL     OW34496   2.027   1.769   5.975 -0.3301  0.0305 -0.5179
10365SOL    HW134497   2.087   1.778   5.901  0.2655  2.2785  0.1313
10365SOL    HW234498   2.078   1.726   6.043 -0.7790 -1.7496 -1.2719
10366SOL     OW34499   0.933   4.506   6.433 -0.3313 -0.0569 -0.3064
10366SOL    HW134500   0.980   4.424   6.450  0.1318  0.2695 -0.0197
10366SOL    HW234501   0.923   4.508   6.338  0.7839  0.1701 -0.4299
10367SOL     OW34502   2.721   8.513   9.565  0.1932 -0.0665 -0.1530
10367SOL    HW134503   2.673   8.580   9.516  1.5355  0.7500 -0.3909
10367SOL    HW234504   2.749   8.557   9.645  1.9543 -0.0071 -0.7678
10368SOL     OW34505   1.471   7.755   8.627  0.1646 -0.0546  0.5016
10368SOL    HW134506   1.445   7.665   8.643  0.1391  0.1160  1.5022
10368SOL    HW234507   1.512   7.783   8.709  0.1474  0.8443  0.2166
10369SOL     OW34508   5.984   7.399   2.791  0.5879 -0.9823 -0.0208
10369SOL    HW134509   5.899   7.395   2.747 -0.0457 -1.0145  1.1522
10369SOL    HW234510   5.972   7.465   2.859  2.3184  0.8981 -1.4469
10370SOL     OW34511   6.626   0.619   9.527 -0.7137  0.0436 -0.8092
10370SOL    HW134512   6.592   0.703   9.496 -2.8446 -0.0058  1.1247
10370SOL    HW234513   6.705   0.643   9.576 -1.3563  0.9847 -0.1810
10371SOL     OW34514  10.893  10.605   4.066  0.2323 -0.1896 -0.0758
10371SOL    HW134515  10.817  10.646   4.025 -0.2095 -0.3136  0.5963
10371SOL    HW234516  10.955  10.676   4.079  0.4406 -0.1755 -1.0851
10372SOL     OW34517  10.689   2.742   9.140  0.2995  0.2715  0.3570
10372SOL    HW134518  10.677   2.814   9.077 -0.1385  0.9706  1.2259
10372SOL    HW234519  10.602   2.706   9.152  0.3385  0.3201  0.7771
10373SOL     OW34520   4.110   1.135   3.763  0.3976 -0.1730  0.2779
10373SOL    HW134521   4.191   1.147   3.715  0.0573  0.9830 -0.0493
10373SOL    HW234522   4.101   1.040   3.774  2.0788 -0.2878  0.8479
10374SOL     OW34523   9.195   2.907   1.885  0.2659  0.3719 -0.4452
10374SOL    HW134524   9.189   2.952   1.969 -0.3869  1.0540 -0.8481
10374SOL    HW234525   9.278   2.860   1.889  0.0359  0.0362  0.7577
10375SOL     OW34526   0.457   2.782   2.665  0.2574 -0.0942  0.2633
10375SOL    HW134527   0.435   2.689   2.656  0.0562  0.0732 -1.2301
10375SOL    HW234528   0.381   2.820   2.709 -0.3999 -0.3571 -0.6094
10376SOL     OW34529   8.952   2.134  10.772  0.4925  0.5435 -0.4392
10376SOL    HW134530   8.982   2.106  10.685 -0.1697  0.5605 -0.6781
10376SOL    HW234531   8.888   2.067  10.797 -0.9958  1.7245 -0.9459
10377SOL     OW34532   1.092   7.559   5.893 -0.0044  0.0386  0.6083
10377SOL    HW134533   1.008   7.515   5.877  0.2090 -0.0614 -0.3177
10377SOL    HW234534   1.143   7.542   5.814 -0.1404  2.4473 -0.1055
10378SOL     OW34535   2.413   9.836   4.370  0.3111  0.5260  0.4838
10378SOL    HW134536   2.498   9.871   4.343 -0.0348  1.5656  0.6992
10378SOL    HW234537   2.407   9.858   4.463 -0.1632  0.3949  0.4852
10379SOL     OW34538  10.040   6.863   7.635  0.1971 -0.2604 -0.4968
10379SOL    HW134539  10.063   6.955   7.621 -0.9252  0.2098  0.5193
10379SOL    HW234540   9.996   6.836   7.554  0.1254  0.2446 -0.6286
10380SOL     OW34541   2.406  10.058   8.988 -0.6039 -0.1357  0.0617
10380SOL    HW134542   2.469  10.117   8.947 -2.1358  0.6715 -1.2401
10380SOL    HW234543   2.460   9.992   9.031  1.1227  0.7987 -0.5666
10381SOL     OW34544   1.558   4.824   1.677  0.0814 -0.4504 -0.1327
10381SOL    HW134545   1.577   4.824   1.583  0.7988  1.9849 -0.0410
10381SOL    HW234546   1.604   4.747   1.710  0.7654 -0.7090 -1.6071
10382SOL     OW34547   9.218  10.875   4.654 -0.4607  0.0537  0.2019
10382SOL    HW134548   9.308  10.862   4.625 -0.9224 -1.0945 -0.7700
10382SOL    HW234549   9.223  10.952   4.712  1.3225 -0.7074  1.1335
10383SOL     OW34550   1.933   3.223   5.533  0.2492 -0.2729 -0.1784
10383SOL    HW134551   1.958   3.165   5.460 -0.5555  0.3443 -0.9722
10383SOL    HW234552   1.999   3.292   5.532 -0.6231  0.5979 -1.3778
10384SOL     OW34553   0.362  10.697   2.614 -0.1822  0.2629  0.4932
10384SOL    HW134554   0.350  10.603   2.622 -0.7340  0.0881 -1.7620
10384SOL    HW234555   0.418  10.720   2.688  0.6091 -1.9503  0.6658
10385SOL     OW34556   7.354   0.449   4.565  0.6848  0.1421  0.3909
10385SOL    HW134557   7.369   0.541   4.541  3.9682 -0.3613  0.0282
10385SOL    HW234558   7.385   0.399   4.489  2.1690 -1.2902  1.8622
10386SOL     OW34559   9.317   0.496   1.223  0.2594  0.1294  0.0663
10386SOL    HW134560   9.404   0.517   1.190 -0.3237 -0.3765 -1.9288
10386SOL    HW234561   9.328   0.412   1.268  0.7995  0.0475 -0.2057
10387SOL     OW34562   6.027   6.297   0.824 -0.2889  0.0428  0.3424
10387SOL    HW134563   5.987   6.279   0.738 -1.5836  1.5345  0.5863
10387SOL    HW234564   6.004   6.221   0.877 -1.2582  0.0234 -0.0675
10388SOL     OW34565   3.447   1.915   8.323 -0.0670  0.2666 -0.1828
10388SOL    HW134566   3.531   1.916   8.368  0.5598 -1.0488 -1.2473
10388SOL    HW234567   3.432   1.822   8.302 -0.4337  0.7585 -2.3889
10389SOL     OW34568   8.248   6.089   2.509 -0.0363  0.4038 -0.5682
10389SOL    HW134569   8.215   6.161   2.562  0.5841  2.3899 -2.7090
10389SOL    HW234570   8.182   6.077   2.440  0.1216 -0.7403 -0.5429
10390SOL     OW34571   9.954   3.286   7.667  0.2540 -0.5731  0.3888
10390SOL    HW134572   9.901   3.239   7.602  0.8690 -1.9863  0.8738
10390SOL    HW234573   9.932   3.245   7.750  0.0742  0.6940  1.0004
10391SOL     OW34574   0.638   6.972   5.563 -0.1050 -0.3631  0.3855
10391SOL    HW134575   0.561   6.950   5.615  0.3509 -1.0188  0.7914
10391SOL    HW234576   0.604   6.994   5.476 -0.5992 -2.4957  0.0010
10392SOL     OW34577   7.236   9.454   9.081  0.1658 -0.3931 -0.0967
10392SOL    HW134578   7.328   9.441   9.059 -0.4579 -1.9205 -2.1635
10392SOL    HW234579   7.200   9.365   9.086 -2.0608  0.1341 -3.7033
10393SOL     OW34580   6.890   5.447   5.365 -0.4811  0.4678 -0.9122
10393SOL    HW134581   6.897   5.445   5.270  1.0098 -1.6235 -0.8207
10393SOL    HW234582   6.980   5.449   5.397 -0.7553 -2.4358  0.4052
10394SOL     OW34583   1.101   3.770   8.473 -0.4222  0.0792 -0.1156
10394SOL    HW134584   1.071   3.820   8.398 -0.3577  0.1568 -0.0898
10394SOL    HW234585   1.192   3.748   8.451 -1.0141 -1.6651 -0.9897
10395SOL     OW34586   5.697   8.636   5.761 -0.1267  0.6661 -0.0305
10395SOL    HW134587   5.658   8.720   5.737 -0.5196  0.4860 -0.0358
10395SOL    HW234588   5.690   8.632   5.856 -1.5231 -0.0268 -0.1381
10396SOL     OW34589   6.400   5.944   3.022 -0.0700  0.4167  0.0034
10396SOL    HW134590   6.420   6.002   3.096 -0.6301  1.5722 -0.7200
10396SOL    HW234591   6.397   6.002   2.946  0.7832 -0.7914 -0.9941
10397SOL     OW34592   2.752   3.716   4.112  0.5233  0.3281 -0.1847
10397SOL    HW134593   2.804   3.663   4.172  0.8338  0.0996 -0.6540
10397SOL    HW234594   2.676   3.742   4.164 -0.3202 -1.6857 -0.3465
10398SOL     OW34595   3.390   2.338   0.352  0.4725  0.2429  0.4553
10398SOL    HW134596   3.428   2.406   0.297  0.1592  0.4087  0.4419
10398SOL    HW234597   3.423   2.256   0.314 -1.0135  0.2544 -1.0129
10399SOL     OW34598  10.401   9.320   1.446 -0.8707  0.0171  0.0347
10399SOL    HW134599  10.484   9.281   1.473 -0.4635  0.3495 -0.6979
10399SOL    HW234600  10.383   9.386   1.512  0.8163  1.7865 -1.1544
10400SOL     OW34601   9.737  10.506   1.763 -0.0149  0.3127 -0.3123
10400SOL    HW134602   9.706  10.592   1.788 -1.1538 -0.1991  0.1186
10400SOL    HW234603   9.690  10.446   1.821 -2.3193 -0.8986 -3.1820
10401SOL     OW34604   7.187   0.303   5.183 -0.2436 -0.0305  0.0430
10401SOL    HW134605   7.206   0.395   5.164 -0.3903 -0.1517 -0.7200
10401SOL    HW234606   7.093   0.300   5.199  0.1637  0.4702  3.2554
10402SOL     OW34607  10.568   1.026   8.823 -0.7500  0.0838 -0.0448
10402SOL    HW134608  10.601   1.098   8.769 -1.1619  0.6738  0.4806
10402SOL    HW234609  10.533   1.068   8.901  1.5312 -0.8798  1.6046
10403SOL     OW34610   3.661   5.151   4.685 -0.5068  0.6450 -0.1789
10403SOL    HW134611   3.602   5.123   4.615  0.5430 -1.5549 -0.2604
10403SOL    HW234612   3.715   5.075   4.703 -0.9098  1.0041  3.2703
10404SOL     OW34613   4.448   3.208   5.867 -0.3003 -0.0740  0.0064
10404SOL    HW134614   4.494   3.284   5.829 -2.5593  0.6083 -1.6243
10404SOL    HW234615   4.465   3.213   5.960 -0.4896  2.5934 -0.0307
10405SOL     OW34616   4.315   6.884   1.973 -0.1078 -0.3312  0.2831
10405SOL    HW134617   4.377   6.890   1.901  1.8564 -0.9872  1.8259
10405SOL    HW234618   4.288   6.974   1.990 -0.4667 -0.1595 -1.1208
10406SOL     OW34619   0.833   7.809   5.623 -0.4091  0.1058  0.2006
10406SOL    HW134620   0.865   7.882   5.570 -3.2845  1.4989  0.1799
10406SOL    HW234621   0.789   7.851   5.697 -2.1945 -1.5713  0.1774
10407SOL     OW34622   4.585   1.674   4.750 -0.6365  0.0904 -0.3181
10407SOL    HW134623   4.675   1.696   4.775 -0.7811 -0.1713  0.4942
10407SOL    HW234624   4.533   1.750   4.778 -0.7184  0.0793 -0.4397
10408SOL     OW34625   7.078   0.734   7.192 -0.0581  0.0618  0.8720
10408SOL    HW134626   7.084   0.663   7.128  0.7823  0.4849  0.4683
10408SOL    HW234627   7.048   0.691   7.272 -0.8778 -0.5168  0.2770
10409SOL     OW34628   4.662   8.673   6.755 -0.0650 -0.8451  0.3787
10409SOL    HW134629   4.731   8.698   6.693 -1.4988 -0.6600 -1.2190
10409SOL    HW234630   4.693   8.706   6.839  0.2108  2.5090 -0.8612
10410SOL     OW34631   9.191   3.477   8.747  0.4840 -0.1731 -0.2825
10410SOL    HW134632   9.151   3.526   8.818  2.1282 -0.6403  1.0375
10410SOL    HW234633   9.160   3.388   8.758  0.3604 -0.1503 -0.4444
10411SOL     OW34634   1.743   5.657   6.701  0.1064 -0.3287 -0.4040
10411SOL    HW134635   1.654   5.645   6.666 -0.2291 -1.1933  0.6685
10411SOL    HW234636   1.798   5.599   6.649 -0.2224 -0.9026 -0.1169
10412SOL     OW34637   6.839   8.647  10.222 -0.3019 -0.0974  0.2732
10412SOL    HW134638   6.925   8.655  10.181 -0.1055 -2.6883 -0.0223
10412SOL    HW234639   6.779   8.691  10.161  0.6671  0.6647 -0.1386
10413SOL     OW34640   4.420   2.377   7.350 -0.4101  0.0718  0.5902
10413SOL    HW134641   4.512   2.405   7.352 -0.8382  1.5774  0.4825
10413SOL    HW234642   4.405   2.338   7.435 -0.4371  2.5584  1.8233
10414SOL     OW34643   7.716   5.129   7.093 -0.5059 -0.3350  0.0231
10414SOL    HW134644   7.780   5.138   7.022 -1.1769 -0.7622 -0.6482
10414SOL    HW234645   7.741   5.047   7.136  1.9793  1.5177  2.4493
10415SOL     OW34646   3.295   7.499   9.066 -0.1553 -0.4400 -0.5674
10415SOL    HW134647   3.308   7.591   9.092 -1.0572 -0.1784 -1.0033
10415SOL    HW234648   3.360   7.484   8.998  0.0580 -0.1511 -0.4330
10416SOL     OW34649   7.638   9.779   1.679 -0.5564 -0.4097 -0.0287
10416SOL    HW134650   7.572   9.710   1.690 -0.4878 -0.6411 -1.0350
10416SOL    HW234651   7.721   9.732   1.673 -0.1362 -0.0800  2.1433
10417SOL     OW34652   6.916   6.010   2.511  0.2469 -0.0667 -0.1820
10417SOL    HW134653   6.989   6.064   2.542 -0.7363  0.8996  0.4878
10417SOL    HW234654   6.949   5.920   2.518  1.5344  0.3763 -0.3372
10418SOL     OW34655   8.991   0.993   0.075 -0.1322 -0.4299  0.4702
10418SOL    HW134656   8.948   0.950   0.001 -0.2962  1.4102 -0.5691
10418SOL    HW234657   9.068   1.035   0.036 -0.5104  1.0028  1.2143
10419SOL     OW34658   3.827   0.851   0.348 -0.4492 -0.4595 -0.0529
10419SOL    HW134659   3.850   0.936   0.385  0.5449 -0.9069  0.4042
10419SOL    HW234660   3.816   0.868   0.254 -5.3305  1.1529  0.5686
10420SOL     OW34661   9.028   7.117  10.013  0.2681 -0.0706  0.0237
10420SOL    HW134662   8.965   7.148  10.079  1.6998  2.4123  0.3556
10420SOL    HW234663   9.101   7.081  10.064  0.6610  0.3397 -0.2410
10421SOL     OW34664   2.915   6.437   6.881  0.3804  0.3082 -0.1330
10421SOL    HW134665   2.986   6.374   6.864 -0.4327 -0.0538 -2.5823
10421SOL    HW234666   2.880   6.411   6.966  1.9471 -0.6946  0.2508
10422SOL     OW34667   0.343   1.716   0.928 -0.0605  0.4927 -0.3760
10422SOL    HW134668   0.342   1.714   0.833  0.5886  0.6403 -0.3938
10422SOL    HW234669   0.287   1.790   0.951 -0.2523  0.4296 -0.6449
10423SOL     OW34670   9.284   4.760   9.320  0.1393  0.4690  0.2997
10423SOL    HW134671   9.362   4.792   9.274  0.0082 -0.3544 -0.5254
10423SOL    HW234672   9.212   4.779   9.261 -0.3539  1.6044  1.2434
10424SOL     OW34673   2.332   4.220   3.234 -0.3886  0.0029  0.5308
10424SOL    HW134674   2.266   4.159   3.267 -0.2395 -0.0673  0.7020
10424SOL    HW234675   2.345   4.195   3.143 -1.7019  0.9769  0.0452
10425SOL     OW34676   7.285   1.087   2.550  0.0688 -0.4868 -0.0944
10425SOL    HW134677   7.267   1.125   2.464  0.4500 -1.1120 -0.4532
10425SOL    HW234678   7.256   0.996   2.544  0.4659 -0.6462  0.3104
10426SOL     OW34679  10.674   3.891   3.073 -0.2363  0.7419 -0.3043
10426SOL    HW134680  10.687   3.871   2.980 -0.8940 -1.8354  0.0866
10426SOL    HW234681  10.598   3.839   3.098 -0.8881  2.4145  1.4027
10427SOL     OW34682   7.254   3.956   0.479  0.1772 -0.4409  0.1564
10427SOL    HW134683   7.293   4.041   0.500 -1.4127  0.5399 -0.7115
10427SOL    HW234684   7.243   3.914   0.565  1.8776 -0.2332  0.5253
10428SOL     OW34685   5.680   9.164   6.504  0.2512 -0.4960  0.0644
10428SOL    HW134686   5.607   9.107   6.525 -0.0849  0.9338  3.3757
10428SOL    HW234687   5.753   9.130   6.556  0.8319  0.3932 -0.1459
10429SOL     OW34688   2.880  10.552   1.241 -0.3440 -0.4730  0.2037
10429SOL    HW134689   2.850  10.641   1.256 -0.5195 -0.1164 -1.8983
10429SOL    HW234690   2.800  10.501   1.232 -0.3030 -0.3953 -0.7742
10430SOL     OW34691   3.391   0.393   0.101  0.1143  0.2349 -0.0652
10430SOL    HW134692   3.429   0.371   0.186  1.5678 -0.4181 -0.8563
10430SOL    HW234693   3.366   0.308   0.064  1.6932  0.2586 -1.2740
10431SOL     OW34694   2.883   1.330   8.714 -0.2071  0.3980 -0.6178
10431SOL    HW134695   2.795   1.339   8.749 -1.0340  0.4058 -2.5646
10431SOL    HW234696   2.880   1.251   8.660  0.9966  0.3773 -0.6924
10432SOL     OW34697   6.982  10.505   5.508  0.0121  0.3839 -0.0331
10432SOL    HW134698   6.998  10.555   5.428  0.3255 -0.4497 -0.5033
10432SOL    HW234699   7.049  10.536   5.570  1.9875 -1.3413 -1.1934
10433SOL     OW34700   9.290   2.526   4.731  0.2356  0.2197 -0.3964
10433SOL    HW134701   9.329   2.477   4.803 -0.0088  1.8095  0.8728
10433SOL    HW234702   9.360   2.532   4.666  0.0697 -2.3218 -0.9228
10434SOL     OW34703   7.571   6.656   3.088  0.3395 -0.4685  0.2205
10434SOL    HW134704   7.543   6.665   3.179 -0.3915  0.3260 -0.0748
10434SOL    HW234705   7.667   6.666   3.092  0.1401  1.8368  0.6593
10435SOL     OW34706   0.970   1.690   7.111  0.4989  0.3232  0.3752
10435SOL    HW134707   1.028   1.652   7.177  0.5893  0.6632  0.4898
10435SOL    HW234708   0.968   1.624   7.041 -0.0902 -0.3151  0.9797
10436SOL     OW34709   3.361  10.180   7.665 -0.1961  0.3845 -0.4727
10436SOL    HW134710   3.355  10.097   7.711  1.4595  0.1494 -0.5977
10436SOL    HW234711   3.326  10.162   7.578  2.4506 -0.9786 -1.3839
10437SOL     OW34712   5.864   1.845   2.866 -0.0748  0.1814  0.0395
10437SOL    HW134713   5.890   1.869   2.777 -2.2827  0.6472 -0.5535
10437SOL    HW234714   5.894   1.919   2.920  1.6009 -0.2748 -0.2295
10438SOL     OW34715   6.868   9.972   0.241 -0.4338  0.0306 -0.2602
10438SOL    HW134716   6.941   9.961   0.180  1.0342  1.1808  1.2075
10438SOL    HW234717   6.904  10.026   0.311 -3.4708  3.0070 -0.7809
10439SOL     OW34718   7.087   7.105   9.462  0.3884  0.7193 -0.0661
10439SOL    HW134719   7.121   7.037   9.521  1.1696  1.4626  0.3510
10439SOL    HW234720   7.152   7.174   9.464  0.1295  1.0304 -1.3491
10440SOL     OW34721   0.070   0.216   5.742  0.1422  0.1629  0.2946
10440SOL    HW134722  -0.011   0.202   5.791  1.4981 -0.2652  2.6107
10440SOL    HW234723   0.063   0.304   5.707 -1.4812 -0.0287  0.0813
10441SOL     OW34724   0.422   7.752   1.115 -0.0746  0.3091  0.6094
10441SOL    HW134725   0.359   7.819   1.144 -3.2056 -2.2805  0.3913
10441SOL    HW234726   0.423   7.759   1.020 -1.9158 -1.0778  0.4415
10442SOL     OW34727   3.034   0.657   5.442 -0.2157  0.6226 -0.4022
10442SOL    HW134728   2.955   0.664   5.496  0.0438  2.5333 -0.1931
10442SOL    HW234729   3.088   0.731   5.469  3.2652 -2.4132  1.9161
10443SOL     OW34730   4.824  10.390   1.735  1.3104 -0.3964  1.0679
10443SOL    HW134731   4.780  10.337   1.669 -1.6357 -0.3593  2.8054
10443SOL    HW234732   4.868  10.327   1.791 -0.9593 -1.0251  2.2774
10444SOL     OW34733   8.893   3.364   5.114 -0.0282 -0.1416  0.0013
10444SOL    HW134734   8.936   3.440   5.154  0.0561 -0.1606 -0.0554
10444SOL    HW234735   8.800   3.388   5.111 -0.0579 -0.2061  0.3602
10445SOL     OW34736  10.835   0.930   4.832  0.3959  0.3875 -0.5720
10445SOL    HW134737  10.745   0.937   4.866 -0.0683 -0.7401 -1.4867
10445SOL    HW234738  10.875   1.014   4.854 -0.4376  0.4073  1.1101
10446SOL     OW34739   3.181   7.703   6.242 -0.4856 -0.3729  0.3949
10446SOL    HW134740   3.260   7.710   6.294 -0.0278  0.7581 -0.4199
10446SOL    HW234741   3.179   7.612   6.213  1.2007 -0.1344 -0.5963
10447SOL     OW34742   4.005   2.809   3.160  0.6375  0.5325  0.2914
10447SOL    HW134743   3.955   2.833   3.082  0.2683 -1.8379 -0.2618
10447SOL    HW234744   3.939   2.785   3.225  0.9901 -0.5027  0.2836
10448SOL     OW34745  10.257   0.879   5.333 -0.1983  0.2575  0.8553
10448SOL    HW134746  10.221   0.820   5.266  2.6412 -2.4105  1.4398
10448SOL    HW234747  10.193   0.876   5.404 -1.9187  0.9418 -0.5820
10449SOL     OW34748   2.205   2.310   5.630 -0.3405 -0.5967  0.6607
10449SOL    HW134749   2.115   2.279   5.619 -0.9366  1.2226  0.1476
10449SOL    HW234750   2.256   2.253   5.572 -1.6540  0.4550 -1.7031
10450SOL     OW34751   0.858   3.150   7.909 -0.2436 -0.6837 -0.0872
10450SOL    HW134752   0.767   3.180   7.914  0.4228  1.3803  1.0704
10450SOL    HW234753   0.907   3.229   7.886  1.6880 -0.7020  3.3719
10451SOL     OW34754   1.016   6.426   0.081  0.1766 -0.1729 -0.1978
10451SOL    HW134755   1.076   6.421   0.155 -0.1978 -0.9826  0.0520
10451SOL    HW234756   0.929   6.408   0.118  0.1087 -1.5690 -0.9795
10452SOL     OW34757   1.733   3.220   8.512  0.2975  0.3808  0.4326
10452SOL    HW134758   1.671   3.184   8.575  0.8993  0.5210  1.1136
10452SOL    HW234759   1.788   3.146   8.486 -1.0034 -0.0505 -1.2156
10453SOL     OW34760   1.166   0.380  10.523 -0.6642 -0.7865 -0.0521
10453SOL    HW134761   1.150   0.474  10.522  0.7125 -0.5229  0.1042
10453SOL    HW234762   1.253   0.371  10.562 -0.8341 -2.1368  0.0628
10454SOL     OW34763   6.073   0.404   9.558  0.2478  0.3557  0.0945
10454SOL    HW134764   6.099   0.474   9.617 -0.4982  1.1492 -0.4835
10454SOL    HW234765   6.155   0.362   9.533  0.8732  1.8910 -0.5995
10455SOL     OW34766   1.179   3.480   9.623  0.3584 -0.5257 -0.0256
10455SOL    HW134767   1.247   3.415   9.641  0.1829 -1.6221 -2.6941
10455SOL    HW234768   1.219   3.564   9.645  0.9442 -1.4115  2.6046
10456SOL     OW34769   2.123   0.835   2.492  0.1614 -0.1738 -0.0092
10456SOL    HW134770   2.144   0.861   2.402  0.0218  1.7217  0.4706
10456SOL    HW234771   2.053   0.895   2.518 -1.1400 -1.9213  0.7566
10457SOL     OW34772   9.108   4.193   2.044  0.0471  0.1885 -0.4407
10457SOL    HW134773   9.032   4.204   2.101 -0.6813  1.1093 -1.5638
10457SOL    HW234774   9.142   4.106   2.066 -0.5777  0.2679  0.9449
10458SOL     OW34775   2.499   3.346   9.637  0.4844 -0.0963  0.0646
10458SOL    HW134776   2.534   3.287   9.570 -0.2135  0.7026 -1.0387
10458SOL    HW234777   2.409   3.361   9.610 -0.2293 -0.8171  1.9523
10459SOL     OW34778   5.170   0.653   2.545  0.3506  0.1972  0.0317
10459SOL    HW134779   5.239   0.646   2.479 -0.1163  0.2619 -0.4714
10459SOL    HW234780   5.173   0.570   2.592 -0.2508 -0.4364 -1.0142
10460SOL     OW34781   3.023   9.754  10.622 -0.5558  0.3845  0.2916
10460SOL    HW134782   3.083   9.760  10.697  1.0684  0.5562 -0.9724
10460SOL    HW234783   3.040   9.833  10.571 -2.5003  0.8530  0.3206
10461SOL     OW34784   0.385   9.975   6.013 -0.3096  0.0276 -0.7226
10461SOL    HW134785   0.323  10.021   6.069  0.3231 -0.3954  0.3687
10461SOL    HW234786   0.347   9.979   5.925 -2.5960 -1.4053  0.1115
10462SOL     OW34787   9.985   0.117   7.329 -0.3029  0.4964  0.4212
10462SOL    HW134788  10.081   0.119   7.333 -0.2891  0.7852 -0.0131
10462SOL    HW234789   9.963   0.166   7.250 -0.7407 -0.9667 -0.4109
10463SOL     OW34790   5.930   6.382   3.129 -0.2974 -0.3346  0.6369
10463SOL    HW134791   5.940   6.458   3.071  1.0070 -0.4958  0.6090
10463SOL    HW234792   6.016   6.373   3.171 -0.7954 -1.0798  1.5290
10464SOL     OW34793   0.941   2.363   5.487  0.0278  0.2897  0.3785
10464SOL    HW134794   0.949   2.402   5.574 -0.7261  1.0733  0.1166
10464SOL    HW234795   1.019   2.391   5.440 -0.3134  1.1580  0.3234
10465SOL     OW34796   8.535   4.142   3.582  0.0589  0.2088 -0.1793
10465SOL    HW134797   8.503   4.072   3.524 -1.2167  1.7898 -1.4628
10465SOL    HW234798   8.576   4.205   3.523  0.7244  0.8085  0.9006
10466SOL     OW34799   5.824   6.724   4.783  0.1207 -0.7223 -0.0321
10466SOL    HW134800   5.763   6.739   4.855 -1.9130 -0.7857 -1.6705
10466SOL    HW234801   5.896   6.786   4.799 -0.1019 -0.9707  2.1867
10467SOL     OW34802   0.348   5.946   9.452  0.0099 -0.7511  0.0963
10467SOL    HW134803   0.442   5.960   9.445 -0.1686 -0.3464 -1.9968
10467SOL    HW234804   0.310   5.996   9.380 -1.5420 -3.4208 -1.0758
10468SOL     OW34805   9.870   8.649   2.046 -0.2604  0.9751 -0.0440
10468SOL    HW134806   9.845   8.559   2.024  2.3017  0.4568 -1.1851
10468SOL    HW234807   9.861   8.698   1.965  1.1857  1.0140 -0.2144
10469SOL     OW34808   5.851   1.315   2.788 -0.0321  0.0636  0.2677
10469SOL    HW134809   5.893   1.382   2.842 -0.7764  0.4130  0.4212
10469SOL    HW234810   5.838   1.241   2.847  0.5647 -0.1331  0.1612
10470SOL     OW34811   1.516   4.178   2.556 -0.1061  0.1132 -0.0133
10470SOL    HW134812   1.473   4.165   2.641  2.2646 -0.5968  1.1406
10470SOL    HW234813   1.535   4.272   2.553  1.0765 -0.0710  0.9366
10471SOL     OW34814   5.117  10.122   0.401 -0.1132 -0.5374  0.2735
10471SOL    HW134815   5.073  10.129   0.486 -0.0425 -1.7072  0.4248
10471SOL    HW234816   5.045  10.114   0.337 -0.1464 -1.8930  0.4631
10472SOL     OW34817   8.822   8.119   3.805  0.1624  0.3433  0.3510
10472SOL    HW134818   8.796   8.162   3.724 -1.2510  0.4776  0.8554
10472SOL    HW234819   8.880   8.048   3.777 -0.6316  0.1337 -0.8141
10473SOL     OW34820   3.743   5.352   7.610  0.5822  0.0739 -0.0692
10473SOL    HW134821   3.679   5.287   7.582  0.6269 -0.3424  0.7710
10473SOL    HW234822   3.818   5.300   7.641  1.2453  0.5488 -0.8267
10474SOL     OW34823   7.790  10.000   4.929  0.4021  0.9108 -0.2918
10474SOL    HW134824   7.838   9.961   5.001 -1.9331 -2.8717 -0.5273
10474SOL    HW234825   7.851   9.996   4.855  1.4835  1.2362  0.5522
10475SOL     OW34826   6.533   6.086   3.618  0.1907 -0.4283  0.2181
10475SOL    HW134827   6.460   6.125   3.666 -0.6328 -1.8129  0.1474
10475SOL    HW234828   6.610   6.134   3.649 -0.5903  0.2357  1.2186
10476SOL     OW34829   8.329   9.987   2.939 -0.0945 -0.3515  0.2041
10476SOL    HW134830   8.309  10.057   3.001  2.3478 -1.4646  2.3994
10476SOL    HW234831   8.415  10.008   2.904  0.8870 -2.3936  1.2202
10477SOL     OW34832   2.316   7.112   3.857 -0.0913 -0.3999  0.2331
10477SOL    HW134833   2.232   7.085   3.894  0.9650 -1.6774  1.8817
10477SOL    HW234834   2.302   7.114   3.762 -1.9822 -0.4781  0.4808
10478SOL     OW34835   6.514   9.351   8.894  0.0884 -0.3071  0.0760
10478SOL    HW134836   6.454   9.415   8.932  1.8387  0.7123  1.2656
10478SOL    HW234837   6.588   9.403   8.863  0.4861 -1.5470 -1.1474
10479SOL     OW34838   5.359   5.724   1.331 -0.1021 -0.0890 -0.0535
10479SOL    HW134839   5.354   5.639   1.376 -0.2892  0.2576  0.6029
10479SOL    HW234840   5.357   5.702   1.238  0.8187 -0.8688  0.0885
10480SOL     OW34841   8.910   5.806  10.646 -0.4598 -0.6828 -0.2910
10480SOL    HW134842   8.948   5.890  10.619  2.8366 -1.4696  1.3811
10480SOL    HW234843   8.979   5.742  10.628 -1.3161 -2.3988  2.1376
10481SOL     OW34844   5.931   0.843   8.556 -0.4240 -0.3799 -0.2702
10481SOL    HW134845   5.848   0.808   8.588 -0.0340  0.0148  1.2283
10481SOL    HW234846   5.907   0.917   8.501 -1.0755 -0.4680 -0.1089
10482SOL     OW34847   6.183   5.613   4.379 -0.7190  0.1013  0.4916
10482SOL    HW134848   6.151   5.612   4.288 -0.7265 -0.4317  0.4931
10482SOL    HW234849   6.139   5.538   4.420 -0.7019  0.3290  0.9331
10483SOL     OW34850   9.739   2.367   6.925  0.1836  0.3385 -0.1051
10483SOL    HW134851   9.808   2.398   6.867 -0.0508  0.8775 -0.1048
10483SOL    HW234852   9.709   2.285   6.885  0.9076  0.0312 -0.0285
10484SOL     OW34853   8.693  10.100   5.286  0.0760  0.1798  0.0391
10484SOL    HW134854   8.680  10.074   5.377 -0.8298 -2.3795 -0.7198
10484SOL    HW234855   8.785  10.124   5.280  0.3004 -0.2227  1.5084
10485SOL     OW34856   7.576   9.517   2.313  0.2012 -0.3503 -0.5454
10485SOL    HW134857   7.535   9.490   2.230  0.4419  0.9395 -1.1053
10485SOL    HW234858   7.653   9.461   2.320 -1.1034 -2.1693  0.0639
10486SOL     OW34859   1.269  10.351   3.654  0.2456  0.6440  0.3322
10486SOL    HW134860   1.353  10.390   3.679  0.8265 -0.3058 -0.0879
10486SOL    HW234861   1.276  10.339   3.559  0.3455 -1.0261  0.5222
10487SOL     OW34862   9.607   3.938   7.325 -0.3379  0.0763  0.0215
10487SOL    HW134863   9.593   3.935   7.419 -0.4489  3.1096  0.1907
10487SOL    HW234864   9.520   3.931   7.287 -0.3412 -0.5711  0.1246
10488SOL     OW34865   4.080   7.554   8.681 -0.3030 -0.4003  0.7565
10488SOL    HW134866   4.117   7.544   8.768 -0.5153  0.3122  0.9324
10488SOL    HW234867   3.985   7.554   8.695 -0.3365 -0.1422  0.5464
10489SOL     OW34868   4.902   8.101   4.896 -0.2222 -0.3366  0.0732
10489SOL    HW134869   4.891   8.193   4.919 -0.1879 -0.1770 -0.5473
10489SOL    HW234870   4.879   8.096   4.804  0.1120 -0.8874  0.0149
10490SOL     OW34871   8.300   2.105   2.159 -0.6609  0.4153 -0.2591
10490SOL    HW134872   8.236   2.141   2.097 -1.9575  2.1349  1.9358
10490SOL    HW234873   8.313   2.175   2.223 -0.2010 -1.6244  1.9929
10491SOL     OW34874   5.831   0.716   0.619  0.1795  0.1412  0.0195
10491SOL    HW134875   5.782   0.647   0.664 -1.0175  0.0564 -1.3316
10491SOL    HW234876   5.893   0.669   0.563 -0.4049  0.1321 -0.6456
10492SOL     OW34877   1.345   4.559   2.921 -0.1461 -0.3669 -0.2559
10492SOL    HW134878   1.423   4.511   2.950 -1.1766 -2.1235 -0.2662
10492SOL    HW234879   1.305   4.593   3.001 -0.2782 -0.9127 -0.0889
10493SOL     OW34880   3.890   4.403   2.087 -0.3259  0.8233 -0.1757
10493SOL    HW134881   3.805   4.418   2.129 -1.1003  0.6919 -1.6070
10493SOL    HW234882   3.874   4.328   2.029  0.7934  0.7458 -0.3957
10494SOL     OW34883   1.098   3.305   3.617 -0.1208  0.2857  0.6428
10494SOL    HW134884   1.065   3.395   3.627 -1.5763 -0.0970 -0.4918
10494SOL    HW234885   1.034   3.251   3.663 -0.1754 -0.3243 -0.1394
10495SOL     OW34886   2.685  10.679   4.192 -0.5298 -0.0216 -0.0871
10495SOL    HW134887   2.711  10.729   4.115  1.1414 -0.2773  0.2649
10495SOL    HW234888   2.767  10.645   4.227 -1.3369 -0.5983  1.3355
10496SOL     OW34889  10.471   3.258   4.844  0.0385 -0.2737  0.4092
10496SOL    HW134890  10.444   3.291   4.930 -0.4067  0.0371  0.1546
10496SOL    HW234891  10.394   3.216   4.809 -0.6023  1.8278 -0.9133
10497SOL     OW34892   2.659   1.046   3.741  0.0440  0.2890  0.2639
10497SOL    HW134893   2.690   1.136   3.735 -0.4368  0.5527  1.4464
10497SOL    HW234894   2.609   1.043   3.822 -0.0484 -1.0208  0.1837
10498SOL     OW34895   7.673   2.830   5.141 -0.5364  0.4483  0.1588
10498SOL    HW134896   7.670   2.916   5.182  1.5684  0.2287  0.8780
10498SOL    HW234897   7.726   2.841   5.062 -0.5290 -0.1240  0.0729
10499SOL     OW34898   3.260   4.170   5.250 -0.0767  0.6359  0.2669
10499SOL    HW134899   3.178   4.164   5.199  0.0351  0.7503  0.0706
10499SOL    HW234900   3.244   4.116   5.327 -0.6848  1.4184  0.7097
10500SOL     OW34901   6.106   9.668   1.481  0.5146  0.4461  0.5825
10500SOL    HW134902   6.011   9.658   1.483  0.4980 -0.4036 -1.5732
10500SOL    HW234903   6.124   9.715   1.400  1.9533  0.0703  0.6443
10501SOL     OW34904   3.863   1.533  10.065  0.0674  0.2106 -0.4406
10501SOL    HW134905   3.919   1.511  10.140 -1.2683 -1.3608  0.1786
10501SOL    HW234906   3.868   1.628  10.058  0.7733  0.3313  1.2326
10502SOL     OW34907   7.745   4.826   4.554  0.3395 -0.3709 -0.6591
10502SOL    HW134908   7.833   4.844   4.521  0.7894 -0.7598  0.2885
10502SOL    HW234909   7.758   4.765   4.627 -0.7188 -0.4598 -0.5188
10503SOL     OW34910   0.743   2.099   9.513 -0.2736 -0.6667 -0.0363
10503SOL    HW134911   0.828   2.057   9.497  0.1302 -0.7427  1.9745
10503SOL    HW234912   0.763   2.193   9.516 -0.0566 -0.7310  1.2858
10504SOL     OW34913   6.596   2.544   1.102 -0.1339  0.1635 -0.2775
10504SOL    HW134914   6.679   2.564   1.058  0.2441 -1.6421 -0.4624
10504SOL    HW234915   6.622   2.511   1.188 -0.7056  0.4913  0.0219
10505SOL     OW34916   7.406   0.257   9.955  0.4677 -0.8271 -0.2394
10505SOL    HW134917   7.484   0.232  10.003  0.0936  0.5143  1.1358
10505SOL    HW234918   7.335   0.254  10.019 -0.0202  1.1759 -0.6165
10506SOL     OW34919  10.846   1.249   1.681  0.5248 -0.2497 -0.3365
10506SOL    HW134920  10.902   1.192   1.733  1.0069  1.3315  0.9929
10506SOL    HW234921  10.762   1.250   1.729  1.4207  2.3810  1.4306
10507SOL     OW34922   2.679   2.059   7.805  0.4644  0.1197  0.1720
10507SOL    HW134923   2.660   1.990   7.868  0.8643 -0.3585 -0.2255
10507SOL    HW234924   2.764   2.094   7.834  1.0598 -0.6708 -0.5868
10508SOL     OW34925   4.125   0.613   8.325  0.1408 -0.2199  0.3427
10508SOL    HW134926   4.067   0.632   8.399  0.1519 -1.9639  0.8450
10508SOL    HW234927   4.201   0.668   8.340 -0.7224  0.9957  0.4766
10509SOL     OW34928   0.664  10.710   4.834  0.6229  0.7722 -0.2139
10509SOL    HW134929   0.665  10.663   4.750  1.0818  0.3704  0.0119
10509SOL    HW234930   0.607  10.658   4.890 -1.9471  2.4962 -1.0767
10510SOL     OW34931  10.849   3.818   1.512 -0.2163 -0.1880 -0.6116
10510SOL    HW134932  10.807   3.733   1.529  0.6736 -0.7004 -0.8733
10510SOL    HW234933  10.887   3.809   1.425  0.8262  0.0803 -0.1976
10511SOL     OW34934   1.109   2.577   2.177  0.5017 -0.6319 -0.0915
10511SOL    HW134935   1.107   2.570   2.273  0.5116  0.5548  0.0065
10511SOL    HW234936   1.136   2.489   2.148  4.5136 -0.0591  1.1927
10512SOL     OW34937   6.938   7.163   3.338 -0.2536  0.2868 -0.1542
10512SOL    HW134938   6.885   7.105   3.283 -2.1342  0.3264  1.4982
10512SOL    HW234939   7.008   7.108   3.372 -1.3110 -0.7385  0.4243
10513SOL     OW34940   3.728   4.873   8.535  0.0795 -0.6860  0.0194
10513SOL    HW134941   3.810   4.826   8.550  0.4050 -0.1736 -0.1196
10513SOL    HW234942   3.733   4.901   8.444 -0.8420 -1.7744 -0.3910
10514SOL     OW34943   6.165   6.758   1.491  0.2825 -0.0559  0.5762
10514SOL    HW134944   6.110   6.815   1.545 -0.5476 -0.6481  0.3694
10514SOL    HW234945   6.251   6.763   1.533 -0.3346 -0.4996  1.9709
10515SOL     OW34946   7.314  10.279   1.751 -0.1653  0.0633 -0.3658
10515SOL    HW134947   7.274  10.276   1.838 -1.0423 -0.3782 -0.7795
10515SOL    HW234948   7.342  10.189   1.734 -3.0750 -0.6417 -1.9371
10516SOL     OW34949  10.690   7.956   2.989 -0.0879 -0.2465  0.1042
10516SOL    HW134950  10.680   7.873   2.942  0.3175 -1.7884  2.5829
10516SOL    HW234951  10.600   7.988   3.000 -0.2013  0.1082 -1.5430
10517SOL     OW34952   1.776   1.861   6.031 -0.2934 -0.2945 -0.1369
10517SOL    HW134953   1.724   1.793   5.987  0.8819 -2.3672  1.4635
10517SOL    HW234954   1.867   1.835   6.016  0.1763  0.4788  1.1449
10518SOL     OW34955  10.294  10.139   7.894  0.3877 -0.3019  0.1702
10518SOL    HW134956  10.353  10.075   7.856 -0.5303 -2.1229  1.6577
10518SOL    HW234957  10.316  10.140   7.987 -0.9214  0.0756  0.5004
10519SOL     OW34958   1.649   3.018   0.171  0.0393  0.1025 -0.5002
10519SOL    HW134959   1.607   3.087   0.222 -1.9882 -1.2926 -0.1603
10519SOL    HW234960   1.628   3.038   0.080  1.5676  1.2366 -0.6446
10520SOL     OW34961   5.634   2.989   1.679  0.2123 -0.0732  0.1676
10520SOL    HW134962   5.695   3.042   1.627 -2.1573  0.5151 -2.2081
10520SOL    HW234963   5.622   2.909   1.629 -0.0684 -0.7208  1.2256
10521SOL     OW34964   2.607   9.831   9.461 -0.0558 -0.4082  0.0390
10521SOL    HW134965   2.690   9.812   9.418 -0.0696 -0.5327  0.0652
10521SOL    HW234966   2.613   9.922   9.488 -0.3509 -0.0916 -0.9114
10522SOL     OW34967   8.762   5.071   4.693  0.3407  0.1605  0.3071
10522SOL    HW134968   8.717   5.146   4.654  0.5848 -0.4332 -1.1814
10522SOL    HW234969   8.855   5.094   4.689  0.4516 -0.4117 -0.6120
10523SOL     OW34970   9.811   2.617  10.140 -0.3329 -0.3121  0.2812
10523SOL    HW134971   9.850   2.688  10.090  0.8832 -1.3128 -0.2386
10523SOL    HW234972   9.807   2.650  10.230 -2.2192  1.3678 -0.3358
10524SOL     OW34973   8.945   9.540   4.227 -0.0734  0.2503  0.4399
10524SOL    HW134974   8.894   9.566   4.151 -0.1845 -0.6133  0.2042
10524SOL    HW234975   8.948   9.444   4.222 -0.4664  0.1573  1.7678
10525SOL     OW34976   6.933   5.946   8.230 -0.0452 -0.4357 -0.5047
10525SOL    HW134977   6.865   5.971   8.292  0.3485  0.8084 -0.5474
10525SOL    HW234978   6.898   5.868   8.186 -0.4883 -1.1220  0.9902
10526SOL     OW34979   4.062   8.445   5.002 -0.0108 -0.0699 -0.0129
10526SOL    HW134980   4.048   8.500   4.925  0.3229  1.0039  0.6780
10526SOL    HW234981   4.130   8.383   4.975  1.7781  1.7665  0.1207
10527SOL     OW34982   3.908   2.948   6.532  0.1445 -0.3289  0.3095
10527SOL    HW134983   3.880   2.876   6.589  1.7439 -0.3934  1.0655
10527SOL    HW234984   3.852   2.940   6.455  0.0091 -2.1560  0.5445
10528SOL     OW34985   7.894   2.361   8.151  0.0108  0.1561  0.5574
10528SOL    HW134986   7.850   2.278   8.169  2.1641 -1.0409  0.7523
10528SOL    HW234987   7.923   2.353   8.060  0.0864  0.7614  0.5268
10529SOL     OW34988   3.776   8.718   2.289  0.1155  0.4988  0.2215
10529SOL    HW134989   3.744   8.740   2.201 -1.1971  2.0457  1.0285
10529SOL    HW234990   3.749   8.627   2.303  1.6798 -0.2909 -1.5185
10530SOL     OW34991   9.836   6.309   3.408 -0.5381  0.2475 -0.6742
10530SOL    HW134992   9.867   6.329   3.496 -1.1476  1.7875 -0.7778
10530SOL    HW234993   9.871   6.222   3.389  1.2280  0.6886  0.3343
10531SOL     OW34994   7.116   0.556   7.878 -0.1265  0.2586  0.6637
10531SOL    HW134995   7.056   0.500   7.928  1.4239 -3.4183 -1.1914
10531SOL    HW234996   7.191   0.500   7.859  0.6139  2.2336 -3.3668
10532SOL     OW34997   0.773   8.270   7.641 -0.0064 -0.6380  0.2434
10532SOL    HW134998   0.689   8.225   7.656 -0.2659 -0.5291 -0.7974
10532SOL    HW234999   0.769   8.296   7.549 -0.4132  2.6122  1.0654
10533SOL     OW35000   5.904   6.335   3.604 -0.0342  0.0462  0.3581
10533SOL    HW135001   5.928   6.418   3.645  1.4554  0.3647 -1.0225
10533SOL    HW235002   5.831   6.357   3.546 -0.7735  0.0222  1.2722
10534SOL     OW35003   1.049   4.232   7.097 -0.0016 -0.5246  0.2652
10534SOL    HW135004   1.135   4.272   7.082 -0.5655  0.4291 -0.5689
10534SOL    HW235005   0.991   4.306   7.117 -0.9564 -0.9511 -0.7976
10535SOL     OW35006   2.030   4.808   0.849 -0.1265  0.4374  0.2039
10535SOL    HW135007   2.098   4.849   0.796  0.5291 -0.6114  0.2077
10535SOL    HW235008   1.993   4.880   0.899  1.2027  0.9857  0.4469
10536SOL     OW35009   8.385  10.544   5.000  0.0725 -0.1677  0.3218
10536SOL    HW135010   8.375  10.479   4.930  0.1466  1.1957 -1.0083
10536SOL    HW235011   8.460  10.514   5.051  0.3695 -0.8963 -0.5243
10537SOL     OW35012   7.128  10.411   5.930 -0.1546 -0.2306  0.4045
10537SOL    HW135013   7.184  10.337   5.909  1.8444  1.1198  0.7498
10537SOL    HW235014   7.124  10.413   6.025  0.7010  0.6963  0.4422
10538SOL     OW35015   2.879   5.532   1.233 -0.7623  0.3448  0.4141
10538SOL    HW135016   2.943   5.494   1.173 -1.0847  0.9554 -0.3208
10538SOL    HW235017   2.881   5.474   1.310  0.2724  0.0514  0.1763
10539SOL     OW35018   2.944   6.440   7.859  0.5783 -0.1216  0.0991
10539SOL    HW135019   2.962   6.456   7.952  2.2436 -0.1106 -0.2005
10539SOL    HW235020   2.914   6.350   7.856 -0.7800  0.2819  0.7917
10540SOL     OW35021   9.224   6.559   7.840  0.1889 -0.1187  0.5437
10540SOL    HW135022   9.137   6.599   7.830  0.0470 -0.3293  0.9315
10540SOL    HW235023   9.283   6.620   7.797 -0.2026 -0.1762 -0.0972
10541SOL     OW35024   0.688   8.613  10.694 -0.1896  0.3774  0.4865
10541SOL    HW135025   0.654   8.528  10.666  3.0349 -0.7972 -0.3595
10541SOL    HW235026   0.690   8.666  10.615  0.2340  0.3218  0.4583
10542SOL     OW35027   8.801  10.916   8.765  0.4958 -0.4603 -0.2187
10542SOL    HW135028   8.827  10.959   8.683 -0.4334  0.7744  0.1179
10542SOL    HW235029   8.715  10.878   8.746  0.2929 -0.1988  0.1719
10543SOL     OW35030   2.406   1.341   5.182  0.1398 -0.2005 -0.3240
10543SOL    HW135031   2.461   1.318   5.107  0.8873  0.5719 -0.0295
10543SOL    HW235032   2.379   1.257   5.219  2.9065 -0.6762  0.8248
10544SOL     OW35033   1.781   6.697   5.175 -0.1255  0.3740 -0.4129
10544SOL    HW135034   1.821   6.661   5.096 -0.9530  0.7596 -1.0197
10544SOL    HW235035   1.781   6.791   5.162 -1.6703  0.3686 -0.6690
10545SOL     OW35036   0.734   7.740   4.302  0.6118  0.2245 -0.3844
10545SOL    HW135037   0.638   7.735   4.302  0.5931  0.2964  0.9465
10545SOL    HW235038   0.762   7.662   4.350  1.1854  0.6499 -0.0208
10546SOL     OW35039   5.466   0.030  10.596 -0.4215  0.0254  0.2822
10546SOL    HW135040   5.516  -0.007  10.668  0.6992 -0.1665 -0.5780
10546SOL    HW235041   5.426   0.109  10.633  0.1769 -0.0389  1.0919
10547SOL     OW35042   1.276   2.319   0.364 -0.3385 -0.0278 -0.2070
10547SOL    HW135043   1.264   2.308   0.458 -1.0544 -0.7740 -0.3683
10547SOL    HW235044   1.269   2.413   0.349 -1.0577  0.0181  0.3774
10548SOL     OW35045   8.195   7.525   7.683  0.0393 -0.2644 -0.5095
10548SOL    HW135046   8.272   7.539   7.627  1.0577 -0.6420  0.7525
10548SOL    HW235047   8.187   7.604   7.735 -0.4043 -0.2459 -0.6009
10549SOL     OW35048   4.390   8.644   9.638  0.4739  0.3359  0.1816
10549SOL    HW135049   4.318   8.606   9.688 -0.4951  1.8257 -0.0233
10549SOL    HW235050   4.468   8.627   9.691  0.0550 -1.5432  0.2776
10550SOL     OW35051   5.386   2.875   8.737  0.4977 -0.0612  0.5501
10550SOL    HW135052   5.352   2.957   8.702 -0.3027 -0.6765 -0.1381
10550SOL    HW235053   5.336   2.862   8.818 -1.0121 -0.9685 -0.4622
10551SOL     OW35054   0.486   9.750   5.414  0.1508 -0.1695 -0.2495
10551SOL    HW135055   0.484   9.736   5.508  0.5374 -1.4545 -0.4116
10551SOL    HW235056   0.423   9.820   5.398 -0.5994 -0.5751  0.8655
10552SOL     OW35057   2.939   4.628   8.259 -0.5228  0.0407  0.3437
10552SOL    HW135058   3.019   4.587   8.291 -0.2136 -0.7842 -1.3445
10552SOL    HW235059   2.869   4.568   8.284 -0.3610 -0.2784  0.0410
10553SOL     OW35060   3.416   9.361   3.618  0.0658 -0.1016 -0.5018
10553SOL    HW135061   3.322   9.343   3.617 -0.0967  0.6678 -0.1669
10553SOL    HW235062   3.437   9.369   3.711  0.6337 -1.0763 -0.5323
10554SOL     OW35063   0.244   2.434   6.067  0.1472 -0.4990 -0.1728
10554SOL    HW135064   0.185   2.358   6.067  0.3758 -0.6799  0.1667
10554SOL    HW235065   0.327   2.400   6.100  0.1726 -0.0418  0.2511
10555SOL     OW35066  10.121  10.059   7.251 -0.1540 -0.4081  0.5289
10555SOL    HW135067  10.108  10.135   7.308 -2.0858  1.2470 -1.9305
10555SOL    HW235068  10.111   9.983   7.309 -0.0361  1.1528  2.7159
10556SOL     OW35069   7.716   3.806   1.357  0.2941  0.4045  0.0198
10556SOL    HW135070   7.630   3.822   1.317  0.8705 -0.2613 -1.5848
10556SOL    HW235071   7.719   3.864   1.433 -1.4420  0.6738 -0.0879
10557SOL     OW35072   2.799   0.931   6.846 -0.1279 -0.1861 -0.3632
10557SOL    HW135073   2.827   0.872   6.916  0.4171  0.4725 -0.0136
10557SOL    HW235074   2.873   0.990   6.832 -1.0342  1.1177  0.0511
10558SOL     OW35075   9.954  10.557   1.284  0.1462  0.2035  0.2591
10558SOL    HW135076  10.008  10.510   1.348  0.5521 -2.4142 -1.8217
10558SOL    HW235077   9.864  10.534   1.308  0.1808  0.6826  0.8882
10559SOL     OW35078   0.611   9.012   5.474  0.2737  0.0406 -0.1564
10559SOL    HW135079   0.557   8.972   5.407  0.9055  0.4051 -0.8924
10559SOL    HW235080   0.700   8.984   5.454  0.5476  0.6650  0.1498
10560SOL     OW35081   6.753   4.958   9.753 -0.4130  0.4866 -0.0354
10560SOL    HW135082   6.660   4.936   9.758 -0.1252 -1.2490 -1.2946
10560SOL    HW235083   6.757   5.052   9.768 -2.1604  0.3198  1.9116
10561SOL     OW35084   3.313   0.675   6.067 -0.9400 -0.7560 -0.0410
10561SOL    HW135085   3.334   0.633   6.151 -0.9986 -1.4662 -0.3722
10561SOL    HW235086   3.230   0.720   6.082 -1.4666 -1.7236  0.0031
10562SOL     OW35087   4.810   8.316   5.702  0.2559 -0.2031 -0.3158
10562SOL    HW135088   4.906   8.314   5.701  0.2739  0.0862  0.2966
10562SOL    HW235089   4.788   8.364   5.781 -0.4204 -1.9015  0.5806
10563SOL     OW35090   2.377   6.987   0.115 -0.7275  0.0882 -0.0093
10563SOL    HW135091   2.463   6.960   0.084 -0.9633  2.2080 -2.9354
10563SOL    HW235092   2.316   6.928   0.071 -0.9037 -1.7616  2.4679
10564SOL     OW35093  10.365   8.283   3.824 -0.1307  0.1976 -0.0270
10564SOL    HW135094  10.403   8.371   3.826  0.5524 -0.0984  0.6689
10564SOL    HW235095  10.296   8.288   3.758 -1.1875  1.6989  1.1211
10565SOL     OW35096   3.407   0.949   9.024  0.1716  0.2578 -0.3709
10565SOL    HW135097   3.399   0.855   9.008 -2.1144 -0.3035  3.0154
10565SOL    HW235098   3.482   0.957   9.082  1.5844  0.8718 -2.1846
10566SOL     OW35099   0.715   1.053   6.282 -0.3566  0.6152  0.0007
10566SOL    HW135100   0.656   1.128   6.274  0.7990  1.5231 -0.2128
10566SOL    HW235101   0.682   0.990   6.218 -0.2064  1.7338 -1.2172
10567SOL     OW35102   3.968   6.962   3.314  0.0059  0.0671  0.0860
10567SOL    HW135103   3.969   6.896   3.245 -0.7522  0.4453 -0.3015
10567SOL    HW235104   3.913   7.033   3.279  0.4221  0.6998  0.6787
10568SOL     OW35105   5.463   9.559   2.085  0.1937 -0.4007 -0.1056
10568SOL    HW135106   5.370   9.581   2.096  0.2943 -0.5452  1.1332
10568SOL    HW235107   5.499   9.631   2.034 -0.2018  0.6494  1.0534
10569SOL     OW35108   4.924   9.604   6.345 -0.1519  0.0685 -0.1631
10569SOL    HW135109   4.989   9.621   6.412  0.8890 -0.9384 -0.8845
10569SOL    HW235110   4.844   9.585   6.393  0.8495 -1.8275  0.8757
10570SOL     OW35111   1.555   2.854   3.613 -0.2515  0.4144 -0.1789
10570SOL    HW135112   1.604   2.936   3.620  0.2568  0.1674 -0.8014
10570SOL    HW235113   1.485   2.872   3.551 -0.3118  0.4606 -0.0973
10571SOL     OW35114   9.663   7.227   4.030  0.9733 -0.1749  0.6410
10571SOL    HW135115   9.743   7.274   4.007  1.8548 -2.5309 -1.6079
10571SOL    HW235116   9.690   7.165   4.097  0.8193 -0.4186  0.4762
10572SOL     OW35117   1.621   5.033   6.657  0.2644 -0.5287 -0.1048
10572SOL    HW135118   1.715   5.028   6.676  0.1619  0.9922  0.9560
10572SOL    HW235119   1.602   5.127   6.653 -1.4600 -0.7952  0.9830
10573SOL     OW35120   6.529   8.759   1.810  0.8587 -0.8190 -0.1200
10573SOL    HW135121   6.486   8.712   1.881  0.7671 -0.3532  0.1423
10573SOL    HW235122   6.553   8.844   1.848  0.5860 -0.4639 -0.7104
10574SOL     OW35123   3.230   8.732   8.908  0.1658  0.6140  0.3242
10574SOL    HW135124   3.256   8.687   8.989  0.3034  0.5473  0.2429
10574SOL    HW235125   3.277   8.815   8.911 -0.4515  0.9566  0.7011
10575SOL     OW35126   2.110   6.968   2.326 -0.1244 -0.6197  0.1186
10575SOL    HW135127   2.138   7.017   2.249  0.3644  1.1982  1.4024
10575SOL    HW235128   2.129   6.876   2.304  1.0172 -0.0391 -1.4940
10576SOL     OW35129   8.218   3.401   6.860 -0.3356  0.4425 -0.2868
10576SOL    HW135130   8.132   3.392   6.901 -0.8926  0.9066 -1.3122
10576SOL    HW235131   8.213   3.345   6.783  1.2018 -1.6022  0.9814
10577SOL     OW35132   8.045   1.542   5.431 -0.1530  0.1771  0.2393
10577SOL    HW135133   8.065   1.450   5.446 -1.0319  0.4055  3.7970
10577SOL    HW235134   7.952   1.550   5.453  0.3951  2.2131  2.1665
10578SOL     OW35135   1.688   8.729   6.350  0.6262 -0.2407 -0.1300
10578SOL    HW135136   1.631   8.805   6.339  1.3021  0.2285 -0.4842
10578SOL    HW235137   1.681   8.682   6.267  1.6583  0.4635 -0.6419
10579SOL     OW35138   4.190   3.390   7.755 -0.1362 -0.3223 -0.3105
10579SOL    HW135139   4.243   3.443   7.696  0.5320  0.3439  0.8378
10579SOL    HW235140   4.185   3.304   7.713  1.1048 -0.1420 -0.8816
10580SOL     OW35141   0.048   1.316  10.467 -0.3226  0.1507 -0.0324
10580SOL    HW135142   0.085   1.228  10.476 -0.4983 -0.2961 -2.8474
10580SOL    HW235143   0.104   1.359  10.403 -3.2390  0.2337 -2.7297
10581SOL     OW35144   9.251   1.916   3.424 -0.5128 -0.0141 -0.1134
10581SOL    HW135145   9.316   1.915   3.494  0.4113 -0.5536 -0.9362
10581SOL    HW235146   9.271   1.838   3.372 -1.4925  0.1018 -0.6917
10582SOL     OW35147   8.872   5.328  10.457 -0.0301 -0.0459 -0.2422
10582SOL    HW135148   8.840   5.405  10.505  0.2520 -0.1151  0.0629
10582SOL    HW235149   8.911   5.273  10.525  1.3641  0.3543 -0.6841
10583SOL     OW35150   5.280   8.331   2.874  0.0358  0.2252  0.2061
10583SOL    HW135151   5.226   8.269   2.826 -1.0816  0.0257  1.6583
10583SOL    HW235152   5.364   8.287   2.885  0.6923  0.6636 -2.3590
10584SOL     OW35153  10.478   3.524   4.110 -0.2468 -0.0748 -0.2019
10584SOL    HW135154  10.542   3.497   4.176  0.8218 -0.0767 -1.1976
10584SOL    HW235155  10.438   3.603   4.146  0.8719  0.3578  0.1310
10585SOL     OW35156   6.433   8.376   3.472 -0.2232  0.8373  0.2724
10585SOL    HW135157   6.472   8.320   3.540 -0.3375  1.0683  0.5298
10585SOL    HW235158   6.346   8.338   3.457  0.2054  0.1366 -0.5226
10586SOL     OW35159   5.833   7.345   3.988 -0.6698  0.1152  0.1304
10586SOL    HW135160   5.771   7.388   3.929 -1.2535 -1.1271 -0.2047
10586SOL    HW235161   5.902   7.311   3.931  0.6299  1.9135  0.5479
10587SOL     OW35162   3.330   0.099   8.280 -0.1772  0.0823 -0.2185
10587SOL    HW135163   3.389   0.164   8.320 -0.1720 -0.0310 -0.0429
10587SOL    HW235164   3.295   0.050   8.353 -2.4866  1.7864 -0.0809
10588SOL     OW35165   8.906   6.218   4.463 -0.1040 -0.6341  0.2214
10588SOL    HW135166   8.935   6.308   4.473  2.0579 -1.1961 -0.4696
10588SOL    HW235167   8.901   6.204   4.369 -3.7188 -0.3204  0.2481
10589SOL     OW35168   0.297   8.296   1.604  0.0485  0.1258  0.4386
10589SOL    HW135169   0.378   8.301   1.654  0.5006 -2.8045  0.1301
10589SOL    HW235170   0.324   8.276   1.515 -0.9796  0.7995 -0.0554
10590SOL     OW35171   9.347   8.557   2.373  0.2451 -0.2361  0.7715
10590SOL    HW135172   9.306   8.567   2.458  1.2445 -2.7046  1.6399
10590SOL    HW235173   9.280   8.515   2.318  1.0047 -2.9148  1.7609
10591SOL     OW35174   9.312   1.242   7.400  0.5384 -0.5975 -0.1413
10591SOL    HW135175   9.292   1.158   7.357  1.8751  0.1550 -2.4090
10591SOL    HW235176   9.349   1.217   7.485 -2.6504 -2.1471  0.9598
10592SOL     OW35177   8.677  10.191   4.359  0.1177 -0.3840 -0.1211
10592SOL    HW135178   8.590  10.216   4.388  0.9593 -0.0531  2.4128
10592SOL    HW235179   8.714  10.142   4.433  2.2722 -0.0045 -0.8693
10593SOL     OW35180   2.055   5.052   1.480  0.6481 -0.8655  0.0742
10593SOL    HW135181   2.095   5.078   1.563  0.9436  2.0956 -0.8759
10593SOL    HW235182   1.966   5.025   1.504  0.6050  0.2790  1.3389
10594SOL     OW35183   9.593   5.575   8.953 -0.0454 -0.2341  0.1431
10594SOL    HW135184   9.607   5.503   8.891  0.7607  0.2693 -0.2782
10594SOL    HW235185   9.634   5.545   9.034  2.4441  0.6599 -0.6933
10595SOL     OW35186   5.210   4.090   2.279  0.2123 -0.1001  0.0871
10595SOL    HW135187   5.195   3.996   2.273 -0.3039  0.0521 -1.6571
10595SOL    HW235188   5.128   4.125   2.315  1.2218 -0.4738  3.0346
10596SOL     OW35189  10.151  10.820   5.746  0.4791 -0.1412  0.1709
10596SOL    HW135190  10.095  10.771   5.686 -0.2221 -0.6900  1.2311
10596SOL    HW235191  10.091  10.852   5.813  1.2272  0.5301  0.5289
10597SOL     OW35192  10.187   0.494   5.549 -1.0567 -0.9245  0.1926
10597SOL    HW135193  10.275   0.482   5.584 -1.0387 -0.0428  0.4746
10597SOL    HW235194  10.141   0.413   5.571 -0.6635 -0.9077  1.1004
10598SOL     OW35195  10.701   9.835   0.522 -0.4423 -0.1042  0.2943
10598SOL    HW135196  10.655   9.919   0.517 -1.6909 -0.7760 -0.1070
10598SOL    HW235197  10.676   9.800   0.608 -0.2197 -0.2240  0.3098
10599SOL     OW35198   2.909   0.028   0.382  0.9092  0.5730 -0.2976
10599SOL    HW135199   2.994   0.071   0.390  1.5087 -0.6201 -0.0490
10599SOL    HW235200   2.911  -0.041   0.448  0.4394 -0.5618 -1.4328
10600SOL     OW35201   7.399   9.869   5.354  0.1455 -0.0374  0.0152
10600SOL    HW135202   7.324   9.893   5.408  0.6735 -1.8179  1.6697
10600SOL    HW235203   7.371   9.886   5.264 -2.3152 -0.7919  0.5507
10601SOL     OW35204   6.696   0.820   6.212 -0.4939 -0.5707 -0.0317
10601SOL    HW135205   6.755   0.889   6.183 -2.1032  0.8328 -0.1525
10601SOL    HW235206   6.696   0.827   6.307 -1.9513  0.8521 -0.0707
10602SOL     OW35207   8.523   1.235   0.755  0.0738 -0.0120 -0.0928
10602SOL    HW135208   8.573   1.167   0.800 -1.5821 -0.5426  1.0765
10602SOL    HW235209   8.562   1.318   0.784  0.7318 -0.4156  0.1897
10603SOL     OW35210   7.495  10.484   5.601 -0.0807  0.7338 -0.1678
10603SOL    HW135211   7.420  10.449   5.553  0.1075  0.5421 -0.3222
10603SOL    HW235212   7.561  10.502   5.533  0.0109  0.9043 -0.0337
10604SOL     OW35213  10.661   4.712   6.518 -0.2802  0.3675 -0.3674
10604SOL    HW135214  10.631   4.684   6.605 -1.0544  0.7465 -0.5057
10604SOL    HW235215  10.717   4.787   6.535  0.6894 -0.3964 -0.0990
10605SOL     OW35216   9.117   1.715   7.365 -0.0380  0.2154 -0.1659
10605SOL    HW135217   9.188   1.735   7.426 -0.5558  0.0445  0.5072
10605SOL    HW235218   9.047   1.679   7.420 -1.4578  2.2967 -0.5039
10606SOL     OW35219   6.346   3.036   3.720  1.0604 -0.3845 -0.1335
10606SOL    HW135220   6.355   3.116   3.668  0.1664  0.4143  0.8793
10606SOL    HW235221   6.261   3.001   3.695  1.4745 -1.0693 -0.6163
10607SOL     OW35222   2.878   0.079   5.476  0.8672  0.6256  0.2136
10607SOL    HW135223   2.831   0.046   5.553 -0.2993  0.8189 -0.3898
10607SOL    HW235224   2.926   0.155   5.508  0.1798  0.8619  0.6951
10608SOL     OW35225   6.933   3.914   4.221  0.0503 -0.1224 -0.0348
10608SOL    HW135226   6.922   3.839   4.280  2.6431 -0.4013  0.2214
10608SOL    HW235227   6.876   3.894   4.147  0.0581 -1.9543  0.3988
10609SOL     OW35228   3.720   4.181   9.928 -0.9701  0.2279 -0.5332
10609SOL    HW135229   3.728   4.270   9.895 -0.8955 -0.1455 -1.5497
10609SOL    HW235230   3.656   4.187   9.999 -2.1453  0.8381 -1.6074
10610SOL     OW35231   0.533   6.819   4.709 -0.7862  0.2009  0.0720
10610SOL    HW135232   0.458   6.865   4.671  0.6508  1.1382 -1.8104
10610SOL    HW235233   0.504   6.729   4.719 -3.3771  1.1807  2.9872
10611SOL     OW35234   7.543   4.927   1.613  0.0696  0.3239  0.2531
10611SOL    HW135235   7.621   4.872   1.601  0.8433  1.6159 -1.0024
10611SOL    HW235236   7.472   4.864   1.627  0.9565 -1.0057 -0.8992
10612SOL     OW35237   7.386   9.730   9.611 -0.3101 -0.1811 -0.0342
10612SOL    HW135238   7.429   9.731   9.525 -1.4140  1.5722 -0.6188
10612SOL    HW235239   7.456   9.750   9.672  0.7140 -2.4849 -0.3546
10613SOL     OW35240   0.124   3.244   3.507  0.2132 -0.0465  0.1184
10613SOL    HW135241   0.123   3.245   3.411  0.1193 -0.9781  0.1002
10613SOL    HW235242   0.084   3.327   3.533  1.3606  0.7644 -0.6483
10614SOL     OW35243   3.626   2.127  10.884 -0.3145  0.2674 -0.7302
10614SOL    HW135244   3.685   2.052  10.882 -1.5086 -0.6934 -1.4736
10614SOL    HW235245   3.604   2.143  10.792 -0.3141  1.3320 -0.5522
10615SOL     OW35246   1.328   4.384   0.524  0.6631  0.1560  0.2144
10615SOL    HW135247   1.347   4.304   0.572  0.0432 -1.1731 -1.6253
10615SOL    HW235248   1.258   4.427   0.574  0.3294 -0.9466  0.7213
10616SOL     OW35249   2.792   4.642   7.952  0.6134 -0.2871 -0.0045
10616SOL    HW135250   2.777   4.714   8.013  0.4300 -0.9732  0.7771
10616SOL    HW235251   2.706   4.600   7.943  0.8394 -0.7616  0.0155
10617SOL     OW35252   2.401   6.430   3.274 -0.5752  0.0406  0.2716
10617SOL    HW135253   2.357   6.510   3.247  1.8402  1.5385  0.4308
10617SOL    HW235254   2.491   6.440   3.243 -0.4649 -3.2874 -0.9542
10618SOL     OW35255   0.617   8.332   8.529  0.3498 -0.0220  0.1129
10618SOL    HW135256   0.587   8.345   8.619  0.2730  0.3364  0.0351
10618SOL    HW235257   0.682   8.262   8.536  0.0606 -0.2660  0.3903
10619SOL     OW35258   7.966   0.157   9.140 -0.1210 -0.4051 -0.1697
10619SOL    HW135259   7.928   0.185   9.056  1.6031  0.5810 -0.6933
10619SOL    HW235260   7.963   0.062   9.137  1.6350 -0.5040 -2.3169
10620SOL     OW35261   8.472   8.691   4.591  0.8550  0.5095 -0.2679
10620SOL    HW135262   8.437   8.605   4.617  2.2910 -0.4590 -1.3830
10620SOL    HW235263   8.439   8.751   4.658  0.0400 -0.9517  0.7092
10621SOL     OW35264   2.239   7.827   5.694 -0.3338 -0.6106  0.2883
10621SOL    HW135265   2.211   7.867   5.612 -0.5657 -0.0980  0.6177
10621SOL    HW235266   2.159   7.817   5.745 -0.3151 -1.6520  0.1541
10622SOL     OW35267  10.899   7.046   2.883  0.4516 -0.4393 -0.0643
10622SOL    HW135268  10.909   7.135   2.849  1.3934 -0.2771  0.5744
10622SOL    HW235269  10.942   7.048   2.968 -0.1365 -1.3334  0.2769
10623SOL     OW35270   5.961   3.211   1.088  0.2539 -0.5406  0.0910
10623SOL    HW135271   5.892   3.204   1.154  0.3950 -1.0018  0.1941
10623SOL    HW235272   6.002   3.296   1.104 -1.2174  0.3913 -0.8769
10624SOL     OW35273   8.020   0.115   3.923 -0.1038 -0.1345  0.1586
10624SOL    HW135274   8.105   0.077   3.945  1.4085  1.6292 -2.1260
10624SOL    HW235275   7.958   0.073   3.983  2.4214 -1.1342  2.2534
10625SOL     OW35276   0.790   8.043   9.019  0.1439  0.2651 -0.5545
10625SOL    HW135277   0.849   8.117   9.033  0.6960  0.1316 -2.0043
10625SOL    HW235278   0.775   8.041   8.924 -0.5731 -0.9381 -0.4466
10626SOL     OW35279   5.436   2.048   1.690 -0.5252 -0.3112  0.3896
10626SOL    HW135280   5.472   2.126   1.732  2.9368 -0.4757 -1.7985
10626SOL    HW235281   5.430   1.983   1.760 -1.6821  1.3274  1.8699
10627SOL     OW35282   3.870   9.048   1.508 -0.7184  0.2666 -0.5981
10627SOL    HW135283   3.918   9.114   1.457  1.3218 -1.7048 -1.3969
10627SOL    HW235284   3.937   8.985   1.534 -2.4285 -0.9861  0.9742
10628SOL     OW35285   2.220   9.939   9.340  0.0511  0.3839  0.1522
10628SOL    HW135286   2.128   9.964   9.339  0.2551  1.2163 -1.6312
10628SOL    HW235287   2.261  10.002   9.400  0.0873  2.7605 -2.2001
10629SOL     OW35288   3.195   5.691   2.823 -0.4249 -0.2689  0.1274
10629SOL    HW135289   3.216   5.777   2.786 -0.3307  0.1058  1.0245
10629SOL    HW235290   3.237   5.691   2.909  0.8541 -1.7985 -0.4391
10630SOL     OW35291   7.620   0.421   0.700  0.5050 -0.0581  0.7201
10630SOL    HW135292   7.699   0.434   0.647  0.6738 -0.7193  0.7980
10630SOL    HW235293   7.612   0.501   0.752  0.8492  0.2166  0.3536
10631SOL     OW35294   9.480   2.029   9.876 -0.2229 -0.1219  0.5311
10631SOL    HW135295   9.573   2.047   9.859  0.1452  0.5042  2.9248
10631SOL    HW235296   9.436   2.055   9.795  1.5516  0.8051 -0.1927
10632SOL     OW35297   0.904   6.932   3.937  0.1729  0.2282  0.3138
10632SOL    HW135298   0.809   6.939   3.923  0.1040  1.2374  1.1968
10632SOL    HW235299   0.934   6.874   3.867 -1.3222 -1.3742  0.9298
10633SOL     OW35300   7.016   2.752   8.708 -0.1754  0.2499 -0.1069
10633SOL    HW135301   6.941   2.808   8.690 -0.8178 -0.1978  1.0268
10633SOL    HW235302   7.085   2.782   8.649 -1.4422  0.2522 -1.6158
10634SOL     OW35303   7.206  10.359  10.407 -0.5680 -0.1460  0.6461
10634SOL    HW135304   7.194  10.453  10.419 -0.3569  0.1422 -1.0722
10634SOL    HW235305   7.120  10.321  10.428 -1.9709  0.9023 -2.5006
10635SOL     OW35306   7.169   3.871   7.943  0.0139 -0.2151 -0.3673
10635SOL    HW135307   7.182   3.892   7.851  1.3396 -0.2970 -0.2143
10635SOL    HW235308   7.219   3.937   7.991  0.2035 -0.7926  0.2556
10636SOL     OW35309   1.388   9.900   5.077 -0.2490  0.0693  0.6031
10636SOL    HW135310   1.433   9.833   5.128  0.7935 -0.8807 -1.4331
10636SOL    HW235311   1.443   9.978   5.086  0.4380 -0.3607  0.2011
10637SOL     OW35312   3.903   5.383   5.430 -0.6804  0.0493 -0.7804
10637SOL    HW135313   3.924   5.366   5.522  0.1006  0.1527 -0.9352
10637SOL    HW235314   3.966   5.331   5.380 -0.5044  0.6914 -1.2499
10638SOL     OW35315   4.604   2.262   3.116  0.1523  0.6978  0.2723
10638SOL    HW135316   4.523   2.244   3.067 -0.2092  1.5891  0.5175
10638SOL    HW235317   4.666   2.196   3.084 -0.5602  0.2204 -0.1796
10639SOL     OW35318  10.875   0.617   6.476  0.2713  0.0947  0.4753
10639SOL    HW135319  10.829   0.568   6.408  0.0433  1.4439 -0.3739
10639SOL    HW235320  10.945   0.664   6.430  0.7063  0.2882  1.3121
10640SOL     OW35321   3.596   5.949   5.243 -0.8175 -0.1758 -0.3085
10640SOL    HW135322   3.631   5.889   5.176  0.5408  0.7600 -0.4805
10640SOL    HW235323   3.611   6.036   5.207 -0.8443  0.3202  0.8476
10641SOL     OW35324   5.043  10.276   9.872  0.0466 -0.0691  0.3474
10641SOL    HW135325   5.026  10.364   9.905  0.9494 -0.2682  1.3695
10641SOL    HW235326   5.134  10.278   9.843  0.1292 -0.7214  0.5440
10642SOL     OW35327   0.818   8.557   4.888  0.4560 -0.3648 -0.3514
10642SOL    HW135328   0.834   8.645   4.854  0.4193  0.6734  2.1116
10642SOL    HW235329   0.730   8.535   4.858 -0.1260  1.0800  0.2014
10643SOL     OW35330   2.828   8.532   2.932 -0.3793  0.1059 -0.1563
10643SOL    HW135331   2.844   8.626   2.921  1.4684 -0.1995 -0.4354
10643SOL    HW235332   2.891   8.490   2.872 -0.2191 -1.3247  0.9660
10644SOL     OW35333   9.937   4.525   4.045 -0.3965 -0.7461  0.1611
10644SOL    HW135334   9.999   4.541   4.116  2.7364 -2.3815 -1.9883
10644SOL    HW235335   9.891   4.445   4.071 -0.1438 -0.6757  0.8400
10645SOL     OW35336   6.829   4.288   2.719  0.2661 -0.3428 -0.2031
10645SOL    HW135337   6.886   4.271   2.794  0.5901  2.0186  0.1525
10645SOL    HW235338   6.743   4.256   2.747  0.5611 -0.2342  0.8724
10646SOL     OW35339   2.413   4.637   3.858 -0.1609  0.6280 -0.2618
10646SOL    HW135340   2.376   4.608   3.941 -0.0253  2.3641  0.4483
10646SOL    HW235341   2.371   4.721   3.841  1.4111  1.3323 -0.8361
10647SOL     OW35342  10.502   0.880   7.136 -0.3664 -0.0298  0.4485
10647SOL    HW135343  10.594   0.902   7.146 -0.5382  0.6675  0.5076
10647SOL    HW235344  10.455   0.962   7.149 -0.8712  0.1217 -1.8512
10648SOL     OW35345   4.375   8.807   6.611 -0.1323  0.1203 -0.1605
10648SOL    HW135346   4.448   8.860   6.644 -0.8871  0.3002  1.3353
10648SOL    HW235347   4.397   8.717   6.636 -0.3490  0.1566  0.1698
10649SOL     OW35348   6.759   6.242   2.515 -0.5342 -0.0933 -0.6828
10649SOL    HW135349   6.818   6.251   2.439  0.7588  1.3623  0.4267
10649SOL    HW235350   6.794   6.168   2.564  2.3061  2.4256  1.4642
10650SOL     OW35351   1.245  10.897   1.598  0.2497  0.0675 -0.0211
10650SOL    HW135352   1.261  10.904   1.504  1.4748 -0.1858  0.1523
10650SOL    HW235353   1.163  10.848   1.605  0.3355 -0.2248 -0.9462
10651SOL     OW35354  10.599   1.990   4.175  0.0730  0.2728  0.1447
10651SOL    HW135355  10.661   2.044   4.225  1.4993 -0.9759 -0.2121
10651SOL    HW235356  10.629   1.999   4.084 -0.2480 -0.3686 -0.0267
10652SOL     OW35357   3.971   8.642   1.966  0.4486 -0.8150  0.6179
10652SOL    HW135358   4.017   8.662   2.047 -0.0634  0.0304  0.7048
10652SOL    HW235359   3.890   8.693   1.971  0.5185 -0.5774 -0.5277
10653SOL     OW35360   4.279   6.724   3.289 -0.6113  0.0867  0.0614
10653SOL    HW135361   4.330   6.769   3.357 -1.5213  0.1034  0.7579
10653SOL    HW235362   4.191   6.717   3.327 -0.5977 -1.9399 -0.1891
10654SOL     OW35363   6.457   8.748   0.982 -0.7588  0.4088 -0.0333
10654SOL    HW135364   6.443   8.654   0.968  0.3358 -0.1695  2.3220
10654SOL    HW235365   6.470   8.784   0.894  1.1384 -2.0757 -0.8834
10655SOL     OW35366   4.259   3.024   3.317 -0.0441 -0.4498 -0.1282
10655SOL    HW135367   4.167   3.020   3.342  0.0583  0.2323  0.3833
10655SOL    HW235368   4.284   2.933   3.305 -1.1110 -0.5886 -1.5082
10656SOL     OW35369   1.313   9.352   1.856  0.3649  0.0688  0.8115
10656SOL    HW135370   1.368   9.365   1.933  2.3395  3.3493 -0.9023
10656SOL    HW235371   1.320   9.434   1.808 -1.5172 -1.4667 -2.4231
10657SOL     OW35372   1.284   6.526  10.865 -0.2379  0.4492 -0.4249
10657SOL    HW135373   1.223   6.599  10.871  0.5720  1.0075  2.8162
10657SOL    HW235374   1.235   6.451  10.899  0.7522  0.9158  2.2654
10658SOL     OW35375   9.430   8.555   7.066 -0.0222  0.1723  0.5364
10658SOL    HW135376   9.491   8.554   7.140  1.6078  0.9821 -0.7116
10658SOL    HW235377   9.388   8.469   7.067 -0.1020  0.2060  2.4261
10659SOL     OW35378  10.632   8.755   3.590 -0.1385  0.6002  0.7271
10659SOL    HW135379  10.551   8.781   3.633 -0.3483 -0.4317  1.0032
10659SOL    HW235380  10.604   8.695   3.521  0.3954 -0.0391  1.0482
10660SOL     OW35381   7.746   8.222   8.093 -0.3261 -0.0623 -0.2457
10660SOL    HW135382   7.814   8.216   8.160  0.3751  1.9909 -0.7131
10660SOL    HW235383   7.792   8.212   8.010 -0.6975  0.5436 -0.5337
10661SOL     OW35384   8.605   6.976   7.447 -0.1157 -0.8809 -0.2460
10661SOL    HW135385   8.531   7.026   7.412 -0.4292 -1.0771  0.1314
10661SOL    HW235386   8.641   6.930   7.371 -1.5668 -2.2892 -0.1341
10662SOL     OW35387   2.655   6.262   8.976  0.4296 -0.1640 -0.1537
10662SOL    HW135388   2.570   6.256   9.019 -0.6916  1.3446 -1.9673
10662SOL    HW235389   2.697   6.178   8.993 -1.7139 -1.2330  0.2173
10663SOL     OW35390   1.541   9.087   7.676  0.1042 -0.2035  0.0056
10663SOL    HW135391   1.632   9.060   7.686  0.4760  1.2745  0.8340
10663SOL    HW235392   1.533   9.167   7.728 -1.6805 -0.3192 -0.0089
10664SOL     OW35393  10.608   7.797   4.429 -0.0200 -0.5461 -0.6142
10664SOL    HW135394  10.655   7.874   4.398 -1.1632 -0.3346 -1.9377
10664SOL    HW235395  10.645   7.725   4.378  1.1129 -0.9098  0.6888
10665SOL     OW35396   7.945   9.882   9.043  0.1946 -0.1834 -0.3350
10665SOL    HW135397   8.024   9.829   9.029  1.8903  2.2982 -0.7704
10665SOL    HW235398   7.948   9.905   9.136 -1.8144 -2.6213  0.4505
10666SOL     OW35399   8.367   0.252   9.943 -0.4984  0.2345 -0.0197
10666SOL    HW135400   8.462   0.235   9.940 -0.3382  1.1653 -2.3578
10666SOL    HW235401   8.334   0.212   9.863 -1.2414  4.2085 -1.9014
10667SOL     OW35402   0.580  10.671   3.203 -0.1809  0.0754  0.5244
10667SOL    HW135403   0.591  10.576   3.198 -0.7136 -0.0942  1.9529
10667SOL    HW235404   0.670  10.706   3.202 -0.0019 -0.1959 -2.6714
10668SOL     OW35405   0.254   3.810   7.954 -0.1379  0.4455  0.2601
10668SOL    HW135406   0.221   3.762   8.029 -0.4221 -0.4416 -0.4154
10668SOL    HW235407   0.349   3.810   7.965 -0.0319 -1.3146 -0.3145
10669SOL     OW35408   0.962   0.433   6.441  0.3747 -1.3319  0.0185
10669SOL    HW135409   0.930   0.448   6.530 -0.1293 -3.2089  0.1993
10669SOL    HW235410   1.037   0.375   6.452  2.1093  0.6391 -0.6315
10670SOL     OW35411   5.467   6.872   0.002  0.3293 -0.2362  0.1010
10670SOL    HW135412   5.560   6.862   0.023  0.1446 -0.7087  0.7213
10670SOL    HW235413   5.457   6.832  -0.084  0.8048  0.3212 -0.2172
10671SOL     OW35414  10.829   5.412   0.761 -0.0938 -0.2205  0.1819
10671SOL    HW135415  10.737   5.433   0.777 -0.3417 -0.1492 -1.2203
10671SOL    HW235416  10.865   5.492   0.721 -0.1305 -1.1301 -1.8077
10672SOL     OW35417   1.506   0.910   3.555 -0.6130  0.0658 -0.4187
10672SOL    HW135418   1.421   0.949   3.534 -0.4237 -0.6457 -2.8791
10672SOL    HW235419   1.487   0.817   3.569 -0.1607 -0.3029 -2.0360
10673SOL     OW35420   6.731   0.111   2.376  0.4390  0.6888 -0.1924
10673SOL    HW135421   6.785   0.170   2.430  0.2023 -0.6213  1.5598
10673SOL    HW235422   6.706   0.164   2.300  1.0761  2.5186  0.8162
10674SOL     OW35423   9.023   0.669   1.448  0.2974 -0.0101  0.0085
10674SOL    HW135424   8.984   0.661   1.360  1.0561  0.5086 -0.3878
10674SOL    HW235425   8.970   0.736   1.491 -0.0604 -0.2429 -0.0649
10675SOL     OW35426   6.310   9.090   9.270 -0.0299 -0.2619  0.0022
10675SOL    HW135427   6.248   9.027   9.306  0.6092 -1.1472 -0.4235
10675SOL    HW235428   6.266   9.126   9.193 -0.8899  0.7279  0.9182
10676SOL     OW35429   6.664   0.557   4.672 -0.0294 -0.7204 -0.1293
10676SOL    HW135430   6.583   0.554   4.620  1.5262 -0.1613 -2.7758
10676SOL    HW235431   6.695   0.467   4.673 -0.2423 -0.7928  0.1693
10677SOL     OW35432   0.833   1.914   9.121  0.0883  0.0627 -0.3370
10677SOL    HW135433   0.850   1.899   9.214 -1.4716 -0.0813 -0.0448
10677SOL    HW235434   0.785   1.997   9.119 -0.0804 -0.0488 -0.9794
10678SOL     OW35435   7.281   2.028   2.740 -0.1887  0.6489  0.1578
10678SOL    HW135436   7.352   2.010   2.802 -1.3625 -1.3449  1.0278
10678SOL    HW235437   7.321   2.014   2.654  0.6990  0.4196  0.5938
10679SOL     OW35438   6.030   6.870   6.446  0.1033  0.2847 -0.4846
10679SOL    HW135439   6.078   6.795   6.412  0.6704  0.5336 -0.2348
10679SOL    HW235440   6.071   6.889   6.531 -0.8573  0.0862  0.0398
10680SOL     OW35441   7.744   8.757   3.507 -0.3979 -0.5221 -0.2632
10680SOL    HW135442   7.794   8.828   3.468 -1.9285  0.5943 -0.3000
10680SOL    HW235443   7.671   8.801   3.552 -0.0441 -1.9221  1.7970
10681SOL     OW35444   8.741   3.749   8.750 -0.2442 -0.0978  0.4764
10681SOL    HW135445   8.777   3.672   8.795 -0.2160  0.6904  1.8520
10681SOL    HW235446   8.652   3.757   8.784  0.0360  0.9665  1.0063
10682SOL     OW35447   9.811   0.362   9.727 -0.8607 -0.4260  0.7866
10682SOL    HW135448   9.877   0.304   9.764  1.1173  1.0383 -0.3019
10682SOL    HW235449   9.784   0.417   9.801 -1.9974 -1.9477  1.5771
10683SOL     OW35450   5.673   9.477  10.021 -0.0678 -0.0167  0.1784
10683SOL    HW135451   5.699   9.479  10.113 -0.2810 -1.2742  0.2885
10683SOL    HW235452   5.608   9.547  10.013  1.1149  1.1655  0.5903
10684SOL     OW35453   3.054   4.449   6.080  0.4116  0.0248 -0.3028
10684SOL    HW135454   2.982   4.388   6.098 -1.8269  2.5217  0.0053
10684SOL    HW235455   3.039   4.521   6.142  0.0111  3.0592 -3.5755
10685SOL     OW35456   0.895   3.411   5.048 -0.1670  0.0758 -0.0927
10685SOL    HW135457   0.931   3.480   5.103  0.3756  0.6254 -1.1100
10685SOL    HW235458   0.920   3.330   5.092  0.6648  0.4907  0.2161
10686SOL     OW35459   5.171  10.099   9.395  0.1587  0.5259 -0.2562
10686SOL    HW135460   5.192  10.066   9.482  0.6898  2.0325  0.2331
10686SOL    HW235461   5.084  10.065   9.376  0.0306  0.1871  0.8834
10687SOL     OW35462   9.062   3.035   6.852 -0.7913 -0.2534  0.0566
10687SOL    HW135463   9.022   3.117   6.824 -1.5629  0.1433  2.1609
10687SOL    HW235464   9.157   3.050   6.845 -0.9504  0.3720 -0.7443
10688SOL     OW35465   9.492  10.828   4.643 -0.1417  0.8137 -0.3087
10688SOL    HW135466   9.579  10.868   4.641  0.2373  0.0044 -1.5128
10688SOL    HW235467   9.508  10.739   4.676 -0.6575  0.9685  0.3640
10689SOL     OW35468   1.360   6.032   2.752 -0.1509 -0.4356 -0.0617
10689SOL    HW135469   1.433   6.042   2.812  0.8999  0.2660 -1.3903
10689SOL    HW235470   1.369   6.105   2.691 -2.2167 -0.0937 -0.0194
10690SOL     OW35471   3.689   9.145   8.473 -0.4685  0.0498  0.4029
10690SOL    HW135472   3.641   9.063   8.478  0.8545 -0.7028  1.5883
10690SOL    HW235473   3.647   9.202   8.538  0.9315 -1.0346  2.3591
10691SOL     OW35474   0.564  10.216  10.636 -0.4244  0.1724 -0.3132
10691SOL    HW135475   0.581  10.191  10.545  1.9784  1.4557 -0.2936
10691SOL    HW235476   0.613  10.153  10.688 -0.2973  0.5352  0.0143
10692SOL     OW35477   5.728   1.651   1.648 -0.4327  0.1540 -0.2703
10692SOL    HW135478   5.787   1.600   1.593 -0.8954 -2.0007  1.0947
10692SOL    HW235479   5.703   1.590   1.718 -0.8374  2.3540  1.6167
10693SOL     OW35480   2.536   4.588   1.702 -0.5432  0.2459 -0.6286
10693SOL    HW135481   2.544   4.520   1.635 -0.7411 -1.0927  0.6753
10693SOL    HW235482   2.455   4.634   1.680 -0.3496  0.1519 -1.5786
10694SOL     OW35483   1.144   0.128  10.060 -0.1596  0.4732  0.4063
10694SOL    HW135484   1.168   0.164  10.145  1.4396 -0.1737  0.2688
10694SOL    HW235485   1.183   0.040  10.059 -0.8469  0.1542 -0.6746
10695SOL     OW35486   7.403   1.175   6.433 -0.0980  0.1626 -0.3365
10695SOL    HW135487   7.370   1.250   6.483 -1.8183 -1.3674  0.9661
10695SOL    HW235488   7.331   1.111   6.435  0.2118 -0.5268 -3.7145
10696SOL     OW35489   2.652   9.394   2.740 -0.1962 -0.1493 -0.4901
10696SOL    HW135490   2.680   9.446   2.814 -0.9636  1.1607 -1.0853
10696SOL    HW235491   2.731   9.350   2.710 -0.1815 -2.2371  2.2098
10697SOL     OW35492   2.702   5.487   5.593 -0.1052  0.0827  0.5077
10697SOL    HW135493   2.712   5.579   5.619  0.2650 -0.4697  2.4641
10697SOL    HW235494   2.780   5.443   5.627 -0.5892 -1.0853  0.1648
10698SOL     OW35495   7.373   7.094   8.332  0.1390  0.0594  0.2537
10698SOL    HW135496   7.353   7.045   8.411 -1.6498 -1.5517 -1.0842
10698SOL    HW235497   7.357   7.185   8.354  0.5842 -0.2577  1.9771
10699SOL     OW35498   0.813   1.680   1.521 -0.1804 -0.1956  0.4134
10699SOL    HW135499   0.732   1.631   1.540 -0.7260  0.7189  0.5200
10699SOL    HW235500   0.805   1.706   1.430 -1.5475  2.5724  1.1899
10700SOL     OW35501   5.690   0.520   0.066 -0.3648 -0.3172  0.0380
10700SOL    HW135502   5.606   0.474   0.076 -0.8410  0.2833 -1.0646
10700SOL    HW235503   5.739   0.466   0.004 -0.4901  0.0669 -0.3989
10701SOL     OW35504   9.770   8.201   6.388  0.3034  0.3001 -0.3105
10701SOL    HW135505   9.866   8.197   6.383  0.5200  1.4489  1.7273
10701SOL    HW235506   9.752   8.214   6.481 -1.7293  2.2863 -0.9070
10702SOL     OW35507   4.543   5.006   0.681  0.4055 -0.2331  0.8818
10702SOL    HW135508   4.598   5.065   0.733 -1.3490  0.7136  1.7614
10702SOL    HW235509   4.455   5.020   0.715 -0.7183 -0.2453 -1.7905
10703SOL     OW35510   4.489   9.950   3.010 -0.2638 -0.1798  0.0693
10703SOL    HW135511   4.539  10.022   2.973 -0.8518  0.4863  0.5421
10703SOL    HW235512   4.458   9.900   2.935 -0.7006  0.6484 -0.3123
10704SOL     OW35513   5.650   1.820   8.442  0.5705  0.2120  0.4044
10704SOL    HW135514   5.711   1.758   8.402 -0.7724 -1.9505  1.5191
10704SOL    HW235515   5.672   1.818   8.535  0.3139  1.2275  0.5004
10705SOL     OW35516   7.451  10.301   9.834  0.2465  0.4613 -0.0260
10705SOL    HW135517   7.489  10.253   9.761  0.6345  0.9773 -0.1643
10705SOL    HW235518   7.361  10.267   9.841 -0.0127  0.8767 -1.1706
10706SOL     OW35519   6.600   9.507   1.371 -0.6924 -0.8300 -0.8181
10706SOL    HW135520   6.521   9.476   1.328 -0.8351 -1.8455  0.1395
10706SOL    HW235521   6.571   9.532   1.459 -0.3821  1.0767 -1.1961
10707SOL     OW35522   6.435   2.851   1.023 -0.2125 -0.3763  0.2326
10707SOL    HW135523   6.440   2.758   1.002 -2.1164 -0.3241 -0.5889
10707SOL    HW235524   6.491   2.893   0.957 -0.9406 -0.7893 -0.6793
10708SOL     OW35525   4.189   0.664   1.309 -0.0582 -0.2951  0.2376
10708SOL    HW135526   4.261   0.724   1.324 -0.5174 -0.1522  2.0508
10708SOL    HW235527   4.221   0.604   1.241  1.2737  0.5321  0.1125
10709SOL     OW35528   1.365   7.503   7.160 -0.6130 -0.5858  0.3983
10709SOL    HW135529   1.348   7.531   7.070 -0.4416  1.7805  1.0205
10709SOL    HW235530   1.461   7.500   7.166 -0.6223 -0.6416  0.5126
10710SOL     OW35531   4.020   9.573   5.870 -0.0934 -0.1360  0.0751
10710SOL    HW135532   4.107   9.604   5.895 -0.1292 -0.9110  1.2136
10710SOL    HW235533   4.028   9.552   5.777  0.3998  1.5934 -0.3002
10711SOL     OW35534   4.039   6.779  10.535  0.0388  0.0070 -0.0533
10711SOL    HW135535   3.950   6.757  10.507  1.2173 -5.5505 -0.4254
10711SOL    HW235536   4.093   6.766  10.457  1.6474 -1.2995  1.2116
10712SOL     OW35537   8.580   7.026   3.699  0.7610 -0.1097 -0.6113
10712SOL    HW135538   8.659   7.047   3.649  1.9288 -2.7446 -0.0110
10712SOL    HW235539   8.508   7.040   3.637  1.8479  0.4159 -1.7998
10713SOL     OW35540   6.392   0.224   5.796 -0.1467  0.3062  0.3559
10713SOL    HW135541   6.460   0.160   5.776  0.7589  1.2007  0.4868
10713SOL    HW235542   6.421   0.266   5.877 -0.1499  1.6294 -0.3028
10714SOL     OW35543   4.881   6.995   1.437  0.1003 -0.3579  0.0313
10714SOL    HW135544   4.832   6.931   1.490 -0.8470  1.3047  1.2682
10714SOL    HW235545   4.866   7.079   1.481  1.3647  0.7272 -1.4898
10715SOL     OW35546   7.942   6.252   5.530  0.1774 -0.0806 -0.8775
10715SOL    HW135547   7.958   6.251   5.625 -1.1585 -1.6458 -0.6208
10715SOL    HW235548   7.906   6.338   5.513 -1.2626 -0.3722  0.3960
10716SOL     OW35549   3.643   3.682   0.641 -0.1134 -0.0518 -0.3024
10716SOL    HW135550   3.599   3.749   0.589  3.1469  1.9575 -0.7288
10716SOL    HW235551   3.643   3.716   0.730  1.6846  0.6917 -0.5451
10717SOL     OW35552   9.007   1.952   8.760 -0.2590 -0.1951  0.5691
10717SOL    HW135553   9.033   2.006   8.835 -1.5277  1.5007 -0.1348
10717SOL    HW235554   9.089   1.919   8.725  0.4254 -0.2855  2.1684
10718SOL     OW35555  10.189   4.272   4.882 -0.2110  0.1627  0.4783
10718SOL    HW135556  10.167   4.214   4.809 -1.3094  1.7100 -0.4741
10718SOL    HW235557  10.244   4.339   4.843  0.0073  0.4620  1.2930
10719SOL     OW35558   8.086   0.386   0.234 -0.1682  0.3157  0.0037
10719SOL    HW135559   8.017   0.347   0.287  0.1929  1.8077  1.6621
10719SOL    HW235560   8.039   0.431   0.163 -0.7316 -0.6057 -0.2238
10720SOL     OW35561  10.782   7.473  10.417  0.0134  0.3524  0.4778
10720SOL    HW135562  10.813   7.527  10.345 -0.9442 -0.4175 -0.5371
10720SOL    HW235563  10.860   7.428  10.449  0.2535 -0.2175 -0.8689
10721SOL     OW35564   5.961   7.752   8.942  0.6227  0.4290  0.2665
10721SOL    HW135565   6.042   7.715   8.976  0.4878 -2.0094 -1.7901
10721SOL    HW235566   5.894   7.724   9.004  0.7497 -1.6175 -0.4593
10722SOL     OW35567   6.618   1.535   2.879 -0.3547 -0.3587  0.0178
10722SOL    HW135568   6.695   1.500   2.836 -0.7343  1.8348 -2.7328
10722SOL    HW235569   6.617   1.628   2.855 -3.2602 -0.0793  0.8065
10723SOL     OW35570   4.896   2.696   3.299 -0.0366 -0.7415  0.4672
10723SOL    HW135571   4.975   2.725   3.345  0.2420  0.3225 -0.6395
10723SOL    HW235572   4.831   2.764   3.315  0.2015 -0.1257 -1.0416
10724SOL     OW35573   9.684  10.384   7.579  0.0015  0.4995 -0.0386
10724SOL    HW135574   9.595  10.360   7.605 -0.1723  2.8679  1.9108
10724SOL    HW235575   9.673  10.425   7.493 -0.2391 -2.2656 -1.4187
10725SOL     OW35576   5.877   4.355   3.996  0.1970 -0.0452  0.0121
10725SOL    HW135577   5.897   4.272   4.040  0.9419  0.8931  1.5099
10725SOL    HW235578   5.907   4.342   3.905 -1.0478 -1.8972 -0.1878
10726SOL     OW35579   5.207   9.283   9.164  0.7028 -0.0582  0.3513
10726SOL    HW135580   5.172   9.195   9.148  1.4294 -0.7236  2.1418
10726SOL    HW235581   5.287   9.286   9.112  0.6217 -0.4332  0.2002
10727SOL     OW35582   9.717   1.698   4.812  0.9771  0.7572 -0.3204
10727SOL    HW135583   9.788   1.679   4.873  0.9300  1.1256 -0.1559
10727SOL    HW235584   9.637   1.681   4.862  0.9318 -0.7186 -0.8186
10728SOL     OW35585   8.842   5.406   0.229 -0.0298 -0.8686  0.2163
10728SOL    HW135586   8.913   5.385   0.169 -0.1636 -1.4871  0.2666
10728SOL    HW235587   8.865   5.492   0.265  0.1152 -0.5529 -0.6111
10729SOL     OW35588   8.711   5.560  10.857 -0.2725  0.4228 -0.7040
10729SOL    HW135589   8.688   5.648  10.825 -1.0994  1.1059  1.5673
10729SOL    HW235590   8.663   5.551  10.939  1.1938 -1.4637  0.0235
10730SOL     OW35591   0.422   3.413  10.567 -0.3493 -0.0200 -0.1649
10730SOL    HW135592   0.396   3.337  10.516  2.6619 -1.8256  0.6998
10730SOL    HW235593   0.439   3.482  10.503 -0.5473 -0.9308 -1.2111
10731SOL     OW35594   5.054   4.549   7.993 -0.0197 -0.0162  0.2335
10731SOL    HW135595   5.127   4.495   8.023 -0.7010 -0.9586  0.2343
10731SOL    HW235596   4.979   4.518   8.043 -0.7345 -0.1264 -0.8595
10732SOL     OW35597   7.652   7.248   2.779 -0.4213  0.2096  0.0700
10732SOL    HW135598   7.677   7.179   2.718 -1.8924 -1.3056  1.0824
10732SOL    HW235599   7.584   7.208   2.833 -0.4129  2.0617  1.5439
10733SOL     OW35600   1.713   8.161   3.396 -0.7242 -0.4499  0.5025
10733SOL    HW135601   1.724   8.228   3.328  2.1629 -1.0696  0.2591
10733SOL    HW235602   1.711   8.209   3.478  0.5843  0.0079  0.2774
10734SOL     OW35603   0.365   7.920   2.728  0.5555  0.0612 -0.0370
10734SOL    HW135604   0.372   8.013   2.747  2.3349 -0.0423  0.0646
10734SOL    HW235605   0.447   7.899   2.682 -1.3093 -0.7084 -3.4257
10735SOL     OW35606   0.095   0.263   9.379  0.7964 -0.2759  0.2188
10735SOL    HW135607   0.128   0.222   9.458 -0.1865 -0.1619  0.6935
10735SOL    HW235608   0.173   0.273   9.323  1.9282  1.5948  2.0069
10736SOL     OW35609   9.758   6.073   6.519 -0.2328 -0.0568  0.2205
10736SOL    HW135610   9.846   6.084   6.555 -0.3845 -0.4144  0.7183
10736SOL    HW235611   9.713   6.019   6.584 -0.1860 -1.6706 -1.0084
10737SOL     OW35612   2.961   5.025   0.445  0.1816 -0.1610 -0.0317
10737SOL    HW135613   3.050   5.057   0.456 -0.1278  0.1391  1.8220
10737SOL    HW235614   2.917   5.045   0.527 -2.0973  1.2309 -1.4814
10738SOL     OW35615   4.072   9.794   6.846  0.2594  0.6354 -0.1183
10738SOL    HW135616   4.006   9.817   6.912  0.3289  0.5535 -0.0195
10738SOL    HW235617   4.038   9.830   6.764 -0.9255 -1.1348 -0.4754
10739SOL     OW35618  10.843   5.353   3.517 -0.2645  0.5335  0.0220
10739SOL    HW135619  10.925   5.321   3.555 -0.0057  0.0524 -0.9091
10739SOL    HW235620  10.866   5.434   3.473 -0.1339  0.0687 -0.7944
10740SOL     OW35621   6.359   5.279   2.652 -0.7737 -0.1819  0.0396
10740SOL    HW135622   6.403   5.347   2.601  0.7527 -0.8491  0.4200
10740SOL    HW235623   6.399   5.197   2.623 -0.1049 -0.6134  1.9882
10741SOL     OW35624   3.909   1.156   0.593  0.0989 -0.4359  1.1451
10741SOL    HW135625   3.859   1.167   0.674 -0.1114  3.4570  0.6560
10741SOL    HW235626   3.854   1.194   0.525  1.7031 -0.4994 -0.2588
10742SOL     OW35627   9.614   2.702   0.834 -0.6346  0.2940  0.1346
10742SOL    HW135628   9.539   2.742   0.790 -1.2095 -1.1006 -0.2042
10742SOL    HW235629   9.588   2.611   0.847  1.8165 -0.8410 -1.9830
10743SOL     OW35630  10.659  10.014   9.331  0.7657  0.3150 -0.3550
10743SOL    HW135631  10.586   9.976   9.282  1.1565  1.3118 -1.8004
10743SOL    HW235632  10.653   9.975   9.418  0.0691 -1.6061 -1.2013
10744SOL     OW35633   7.685   4.350   0.983  0.1939  0.2755 -0.5009
10744SOL    HW135634   7.680   4.383   0.894  0.6333  1.4206 -0.1244
10744SOL    HW235635   7.778   4.333   0.998  0.5609  2.7349  0.5982
10745SOL     OW35636   3.661   4.616   5.723  0.2314 -0.2167 -0.0619
10745SOL    HW135637   3.744   4.609   5.771 -0.1586 -0.8642  0.5415
10745SOL    HW235638   3.631   4.526   5.714 -1.4406  0.1048  1.5889
10746SOL     OW35639   0.297   5.430   7.986  0.0014 -0.0763  0.1892
10746SOL    HW135640   0.251   5.392   8.061 -0.1326  1.9021  1.2000
10746SOL    HW235641   0.370   5.371   7.970 -0.2588 -0.8301  1.5799
10747SOL     OW35642   3.907   1.170   4.331  0.1197  0.5322  0.1137
10747SOL    HW135643   3.904   1.203   4.420  1.9046  0.6364  0.1674
10747SOL    HW235644   3.984   1.114   4.329 -0.3902 -0.1623 -1.1417
10748SOL     OW35645   5.467   0.435   0.382  0.4237 -0.3157  0.0081
10748SOL    HW135646   5.546   0.481   0.411  1.0289  0.6031 -2.7552
10748SOL    HW235647   5.395   0.494   0.404  0.7934  0.1115  0.0862
10749SOL     OW35648   7.437   5.359   9.578 -0.2337  1.1632 -0.5982
10749SOL    HW135649   7.393   5.436   9.613 -0.3930  0.9576 -0.3414
10749SOL    HW235650   7.495   5.330   9.649 -2.0785 -0.4914  0.3413
10750SOL     OW35651   9.140   7.713  10.086  0.5821  0.3223  0.6356
10750SOL    HW135652   9.133   7.801  10.050 -1.2745  0.1207  0.4133
10750SOL    HW235653   9.222   7.679  10.051  0.4692  1.3352 -0.6775
10751SOL     OW35654   1.778   2.354   2.250 -0.5314 -0.5050  0.0904
10751SOL    HW135655   1.802   2.368   2.342 -1.5787  0.0567  0.2945
10751SOL    HW235656   1.712   2.421   2.232  0.5435  0.1928 -1.4508
10752SOL     OW35657   1.293   8.183   7.743 -0.5043 -0.2541  0.4185
10752SOL    HW135658   1.322   8.272   7.722  1.0298 -1.0312 -0.9811
10752SOL    HW235659   1.215   8.169   7.690 -1.2295  0.5165  1.2576
10753SOL     OW35660   6.359   2.624   1.686 -0.2294 -0.0266 -0.0802
10753SOL    HW135661   6.343   2.630   1.780 -2.6710 -0.4148 -0.3875
10753SOL    HW235662   6.408   2.704   1.665 -2.6295  1.9083  1.0650
10754SOL     OW35663   5.267   3.206   3.299 -0.0190  0.0293  0.0141
10754SOL    HW135664   5.320   3.254   3.236 -0.9029  1.6459  0.4285
10754SOL    HW235665   5.207   3.272   3.335  0.8366 -0.6403  2.9694
10755SOL     OW35666   0.761   5.973   9.008 -0.2436 -0.8909  0.0076
10755SOL    HW135667   0.802   5.887   8.999 -0.8380 -1.1197 -0.6847
10755SOL    HW235668   0.667   5.954   9.015 -0.4999 -0.2725 -1.2796
10756SOL     OW35669   0.627   9.225   0.800 -0.2131 -1.0905 -0.0670
10756SOL    HW135670   0.562   9.211   0.869  0.4305  0.9951  1.0229
10756SOL    HW235671   0.701   9.264   0.845  0.7033 -0.8066 -1.7735
10757SOL     OW35672   2.206   0.472   3.430 -0.6427 -0.4829  0.3393
10757SOL    HW135673   2.226   0.446   3.520  0.9043  1.1938  0.5178
10757SOL    HW235674   2.250   0.406   3.376  1.5685  0.5285  0.8062
10758SOL     OW35675   0.935   8.469   4.446  0.3257  0.0709 -0.2709
10758SOL    HW135676   0.945   8.404   4.377  1.1294 -1.5756  1.3026
10758SOL    HW235677   1.020   8.513   4.451  0.1088  0.5430 -0.6452
10759SOL     OW35678   0.328   4.433   0.531 -0.4567  0.6035 -0.0806
10759SOL    HW135679   0.373   4.381   0.598 -0.3677 -0.5458 -1.0028
10759SOL    HW235680   0.383   4.511   0.521  2.0135 -1.2003 -1.9100
10760SOL     OW35681   8.229  10.510  10.042 -0.6176  0.0377 -0.1370
10760SOL    HW135682   8.142  10.477  10.063 -0.7136 -1.6658 -2.7264
10760SOL    HW235683   8.222  10.605  10.051 -2.6664 -0.0779 -0.0295
10761SOL     OW35684   4.521   8.384   8.742 -0.3214 -0.4030 -0.9465
10761SOL    HW135685   4.460   8.443   8.696  0.4842  2.6850  1.5924
10761SOL    HW235686   4.598   8.438   8.760  1.0261 -2.6297  0.5216
10762SOL     OW35687   6.630   8.553   3.722  0.1549  0.3824  0.2754
10762SOL    HW135688   6.722   8.536   3.705  0.3616  0.8320  0.8879
10762SOL    HW235689   6.606   8.620   3.658 -0.1178 -0.7082 -0.7820
10763SOL     OW35690   0.257   9.774   0.928  0.1374 -0.3773 -0.1106
10763SOL    HW135691   0.347   9.742   0.933  0.3978  0.4195  0.5432
10763SOL    HW235692   0.204   9.704   0.967  0.6532 -0.2135  0.9350
10764SOL     OW35693   1.595  10.001   5.432 -0.9646 -0.1017  0.2323
10764SOL    HW135694   1.512  10.038   5.462 -1.7830 -1.3617 -0.3729
10764SOL    HW235695   1.598   9.914   5.472  0.3271  0.0945  0.6398
10765SOL     OW35696  10.362   5.826   0.791  0.1943 -0.0151 -0.2456
10765SOL    HW135697  10.345   5.764   0.862 -0.9605 -0.2036 -0.6674
10765SOL    HW235698  10.307   5.902   0.812 -0.5643 -0.2822 -1.1995
10766SOL     OW35699   7.483  10.092   6.916  0.4855 -0.0013 -0.0093
10766SOL    HW135700   7.575  10.097   6.893  0.5061  0.6418  0.2038
10766SOL    HW235701   7.437  10.088   6.831  0.6315  1.1038 -0.1575
10767SOL     OW35702   4.754   9.557   4.334 -0.3052  0.6960  0.0820
10767SOL    HW135703   4.780   9.619   4.402  1.7454 -0.1748  0.1756
10767SOL    HW235704   4.837   9.525   4.298 -1.2455 -2.0457  0.1275
10768SOL     OW35705  10.655   7.768  10.764 -0.0918 -0.0169  0.1762
10768SOL    HW135706  10.598   7.838  10.796 -0.2868 -0.3279  0.5113
10768SOL    HW235707  10.597   7.692  10.755  0.0083 -0.0066 -0.6778
10769SOL     OW35708   2.427   7.994   1.581  0.3501  0.4119 -0.2352
10769SOL    HW135709   2.410   8.030   1.494 -0.5610  1.2607  0.2862
10769SOL    HW235710   2.387   8.055   1.641  0.8479 -0.2462  0.7937
10770SOL     OW35711   8.302  10.611   8.645  0.8150 -0.5464 -0.3035
10770SOL    HW135712   8.230  10.633   8.586  0.7145  1.4220  0.4772
10770SOL    HW235713   8.325  10.694   8.686  0.5990 -1.8713  2.7453
10771SOL     OW35714   2.513   3.655  10.448 -0.3775 -0.3256  0.1688
10771SOL    HW135715   2.581   3.715  10.477 -1.2771  0.6975  0.2441
10771SOL    HW235716   2.431   3.702  10.464 -1.0459 -0.9324 -1.2239
10772SOL     OW35717   2.430   6.119   2.668 -0.0846 -0.4110  0.1753
10772SOL    HW135718   2.460   6.186   2.607  1.7554 -0.2510  1.1793
10772SOL    HW235719   2.438   6.160   2.755 -1.0246 -1.1892  0.6463
10773SOL     OW35720   1.970  10.259   8.699  0.0601  0.0860 -0.3984
10773SOL    HW135721   2.043  10.273   8.639  0.2203 -0.1243 -0.2500
10773SOL    HW235722   1.895  10.300   8.655  0.5654  1.6586  0.1251
10774SOL     OW35723   4.210   6.888   5.589 -0.2669  0.1751 -0.0791
10774SOL    HW135724   4.148   6.861   5.657  0.6744  2.0165  1.6144
10774SOL    HW235725   4.188   6.980   5.572  0.2405  0.0604 -1.4887
10775SOL     OW35726   9.863   1.827   8.995  0.1756  0.1751 -0.0275
10775SOL    HW135727   9.912   1.900   9.034  1.5842 -1.1068  0.7272
10775SOL    HW235728   9.799   1.803   9.062  0.9295 -0.4182  0.5038
10776SOL     OW35729   6.624   2.073   4.970 -0.0990  0.2460 -0.2543
10776SOL    HW135730   6.552   2.136   4.978 -0.8836 -0.7880  1.2961
10776SOL    HW235731   6.697   2.124   4.936  0.5411  3.0677  4.4651
10777SOL     OW35732   0.324   9.038   5.589  0.2207 -0.0479 -0.0887
10777SOL    HW135733   0.360   8.976   5.525  0.7147  0.4457 -0.2981
10777SOL    HW235734   0.358   9.008   5.673  0.6791  0.0971 -0.2225
10778SOL     OW35735   3.394   2.499   8.419  0.2259  0.2821 -0.1067
10778SOL    HW135736   3.319   2.443   8.440  1.9579 -2.3073 -0.3240
10778SOL    HW235737   3.377   2.531   8.331 -1.4516  1.2915  0.5417
10779SOL     OW35738   3.436   5.444   8.034  0.4098 -0.3522  0.2116
10779SOL    HW135739   3.520   5.467   8.073  0.1423  1.1841 -0.0474
10779SOL    HW235740   3.457   5.388   7.960  1.3234  0.9988 -0.5927
10780SOL     OW35741   1.812   3.276  10.760 -0.0891  0.1943 -0.4192
10780SOL    HW135742   1.859   3.335  10.819 -0.2663  0.0391 -0.1202
10780SOL    HW235743   1.720   3.297  10.775 -0.1155  0.4998 -1.0034
10781SOL     OW35744   9.762   2.780   1.622  0.0337  0.0510 -0.0909
10781SOL    HW135745   9.721   2.852   1.573 -0.0484  1.0782  1.4264
10781SOL    HW235746   9.759   2.808   1.713 -0.2240 -2.0086  0.5837
10782SOL     OW35747   6.911   9.162   9.673 -0.0571 -0.4914 -0.1222
10782SOL    HW135748   6.915   9.098   9.601 -2.1190 -0.2815 -0.4844
10782SOL    HW235749   7.003   9.179   9.695  0.6452 -0.6459 -2.6201
10783SOL     OW35750  10.901  10.768   1.694 -0.1693  0.0814 -0.0461
10783SOL    HW135751  10.924  10.779   1.787 -1.0221  0.7319  0.0967
10783SOL    HW235752  10.985  10.767   1.649  0.2419  0.1417  0.6968
10784SOL     OW35753   7.760  10.852   8.193 -0.6592 -0.7269 -0.0663
10784SOL    HW135754   7.780  10.852   8.286  0.6422  0.2255 -0.3201
10784SOL    HW235755   7.684  10.909   8.185 -1.7394 -2.0288  0.5692
10785SOL     OW35756   1.930   6.035   6.510 -0.4021  0.3040  0.4736
10785SOL    HW135757   1.875   6.113   6.509  1.4112  1.6588  0.8098
10785SOL    HW235758   1.966   6.030   6.422  2.2703  2.0349  1.3371
10786SOL     OW35759   8.721  10.091   9.039  0.4039  0.5359  0.0607
10786SOL    HW135760   8.760  10.128   8.960  1.3828  2.2585  1.2838
10786SOL    HW235761   8.676  10.012   9.008  1.6268  0.5597 -2.0399
10787SOL     OW35762   4.112   6.920   5.145 -0.0334  0.1423 -0.4539
10787SOL    HW135763   4.148   6.882   5.225 -0.8207 -1.5810 -0.8690
10787SOL    HW235764   4.180   6.981   5.115  1.0701 -0.5509  0.5332
10788SOL     OW35765   2.626   0.976   4.420 -0.2851  0.3072 -0.4733
10788SOL    HW135766   2.671   1.054   4.386  2.5849 -0.7062  0.7116
10788SOL    HW235767   2.675   0.903   4.384 -1.4433 -0.9187  0.3655
10789SOL     OW35768   5.271   7.255   9.337 -0.5442  0.3572 -0.5457
10789SOL    HW135769   5.310   7.286   9.419  1.4378  1.7510 -1.9096
10789SOL    HW235770   5.279   7.160   9.341 -0.3578  0.4076  0.7988
10790SOL     OW35771   6.523   0.290   1.386 -0.3180 -0.2037 -0.0133
10790SOL    HW135772   6.465   0.218   1.412 -0.0907 -0.4699 -0.2247
10790SOL    HW235773   6.464   0.361   1.362 -0.5345  0.2605  1.7564
10791SOL     OW35774   9.848  10.630   7.602  0.2467  0.2148  0.1050
10791SOL    HW135775   9.882  10.687   7.532  0.3097  0.5584  0.4090
10791SOL    HW235776   9.887  10.545   7.584  0.5683  0.3926 -0.0576
10792SOL     OW35777   5.118   8.014   7.828 -0.0740  0.3176  0.2929
10792SOL    HW135778   5.054   8.084   7.841  1.2078  2.1447 -2.2299
10792SOL    HW235779   5.065   7.938   7.805 -1.4369  1.5270 -0.8231
10793SOL     OW35780   0.083   4.938  10.067  0.1515  0.0077 -0.2251
10793SOL    HW135781   0.174   4.946  10.039  0.6612 -1.1865  0.9515
10793SOL    HW235782   0.071   5.010  10.129  0.8823 -0.8342  0.9560
10794SOL     OW35783   2.558   2.708   7.481 -0.2552 -0.1805  0.0091
10794SOL    HW135784   2.647   2.675   7.494 -0.6001 -0.7874  0.9494
10794SOL    HW235785   2.570   2.791   7.434  0.8575  0.1519  0.8299
10795SOL     OW35786   1.365   7.027   3.153  0.4698  0.2041  0.2666
10795SOL    HW135787   1.452   7.040   3.192  0.2099  0.1673  0.8541
10795SOL    HW235788   1.306   7.080   3.206  0.2949  1.1726 -0.8472
10796SOL     OW35789   1.242   7.771   7.694 -0.3586  0.0060 -0.7097
10796SOL    HW135790   1.291   7.690   7.711  0.0501  0.2875 -0.5273
10796SOL    HW235791   1.289   7.813   7.622 -0.2063  0.3783 -0.3955
10797SOL     OW35792   7.931   2.097   4.219  0.4793  0.0496 -0.3129
10797SOL    HW135793   7.971   2.142   4.294 -1.6192 -3.8553  3.6014
10797SOL    HW235794   7.842   2.133   4.214 -0.5109 -1.9607  1.4735
10798SOL     OW35795   6.735  10.129   5.880  0.6223 -0.2710  0.0005
10798SOL    HW135796   6.741  10.221   5.908  1.8300  0.1900 -1.5753
10798SOL    HW235797   6.733  10.079   5.961  1.6552  1.0751  0.9041
10799SOL     OW35798   4.209   6.130   6.803 -0.1463  0.2154  0.2845
10799SOL    HW135799   4.291   6.088   6.828 -0.2949 -0.0277  0.3620
10799SOL    HW235800   4.150   6.116   6.877 -0.6527 -0.6903 -0.2776
10800SOL     OW35801   6.597   0.516   8.735  0.2134  0.6199 -0.1828
10800SOL    HW135802   6.506   0.516   8.764 -0.0488  1.0813 -1.0055
10800SOL    HW235803   6.615   0.425   8.714  0.4206  0.2499  1.4139
10801SOL     OW35804   2.123   3.505   5.100  0.1353 -0.1245 -0.2589
10801SOL    HW135805   2.099   3.432   5.158 -0.5857 -1.3892 -2.0729
10801SOL    HW235806   2.141   3.464   5.016 -1.0346  1.8517 -1.5605
10802SOL     OW35807   9.950   8.337   5.401  0.2457  0.0635  0.2363
10802SOL    HW135808  10.002   8.417   5.400  0.0280  0.2073 -0.5233
10802SOL    HW235809  10.014   8.267   5.384  0.4610  0.0475  1.0560
10803SOL     OW35810   2.898   9.918   5.155  0.4605  0.0904 -0.4345
10803SOL    HW135811   2.845   9.877   5.086  0.8154  0.2884 -0.8246
10803SOL    HW235812   2.988   9.911   5.123  0.4690  1.8560 -0.8623
10804SOL     OW35813   3.012   4.627   1.707  0.0110 -0.2807 -0.3355
10804SOL    HW135814   3.051   4.707   1.743 -1.7954 -0.6388  2.6972
10804SOL    HW235815   2.937   4.657   1.656  0.6622  0.0473 -1.1209
10805SOL     OW35816   7.598   5.128   4.140 -0.4834 -1.0040  0.5951
10805SOL    HW135817   7.628   5.038   4.150 -1.6780 -1.3541  1.1864
10805SOL    HW235818   7.518   5.133   4.193 -0.3363  0.4513  0.7198
10806SOL     OW35819   7.850   3.549   5.201 -0.2969  0.1365 -0.1734
10806SOL    HW135820   7.943   3.538   5.179 -0.4551  1.0718 -1.4112
10806SOL    HW235821   7.848   3.628   5.255 -0.7278  2.4162 -3.2838
10807SOL     OW35822  10.073   1.258   4.281 -0.0787  0.0524 -0.5504
10807SOL    HW135823  10.065   1.182   4.224 -0.5614  0.6212 -1.2465
10807SOL    HW235824  10.168   1.271   4.290  0.0030 -0.3750 -0.7568
10808SOL     OW35825   8.740   5.476   9.663 -0.2552  0.3081 -0.9443
10808SOL    HW135826   8.682   5.458   9.588 -0.7522 -0.1837 -0.4571
10808SOL    HW235827   8.814   5.417   9.651 -1.1296 -1.0001 -0.1880
10809SOL     OW35828   7.377   2.748   6.217 -0.1000  0.6289  0.4411
10809SOL    HW135829   7.369   2.782   6.128  0.5869 -2.3053 -0.8395
10809SOL    HW235830   7.471   2.741   6.232 -0.2110  0.9046  1.3625
10810SOL     OW35831   3.848   6.153   8.479 -0.6681 -0.6375 -0.3415
10810SOL    HW135832   3.905   6.079   8.500  0.3242  0.2234  0.1609
10810SOL    HW235833   3.892   6.228   8.521 -1.4776  0.2727 -1.0883
10811SOL     OW35834   0.564  10.183  10.366 -0.2077  0.0670 -0.2722
10811SOL    HW135835   0.529  10.094  10.361 -0.3052  0.0992 -0.1515
10811SOL    HW235836   0.497  10.238  10.326 -0.7705  0.2635  0.8942
10812SOL     OW35837   6.668   1.840  10.696  0.1994 -0.5659  0.5441
10812SOL    HW135838   6.651   1.880  10.611 -0.9745 -2.5581 -0.2387
10812SOL    HW235839   6.589   1.789  10.715  0.4303 -0.2062  2.8488
10813SOL     OW35840   8.639   0.042  10.681  0.2157  0.1380 -0.6069
10813SOL    HW135841   8.684   0.118  10.645  1.8149 -0.7450 -0.5691
10813SOL    HW235842   8.584   0.078  10.751  2.3853  1.0929  0.7106
10814SOL     OW35843   9.355   7.734   7.450 -0.1024 -0.3057 -0.0660
10814SOL    HW135844   9.331   7.703   7.538  0.2624  0.3199  0.2594
10814SOL    HW235845   9.300   7.683   7.391 -0.0349 -1.0616  0.5028
10815SOL     OW35846   4.444   9.330   4.668 -0.4600  0.2814  0.0667
10815SOL    HW135847   4.475   9.399   4.609  0.6837 -0.8062 -0.6707
10815SOL    HW235848   4.514   9.322   4.734 -0.1477 -0.7442 -0.3657
10816SOL     OW35849   9.056   4.207   8.653  0.8229 -0.1113 -1.1977
10816SOL    HW135850   9.008   4.144   8.707 -1.5652  1.7588 -0.9580
10816SOL    HW235851   9.014   4.200   8.567  2.1760 -0.5150 -1.8521
10817SOL     OW35852   1.448   3.216   1.429  0.2223 -0.2054  0.2648
10817SOL    HW135853   1.421   3.307   1.418  0.1299 -0.3871 -1.2046
10817SOL    HW235854   1.413   3.190   1.514  0.4955  1.2051  0.8298
10818SOL     OW35855   1.767   0.851   3.470  0.6395  0.1576 -0.2740
10818SOL    HW135856   1.772   0.887   3.382 -0.2095 -0.4682 -0.5894
10818SOL    HW235857   1.677   0.868   3.498  0.6318 -0.4663  0.1084
10819SOL     OW35858   3.824  10.632  10.602 -0.0193 -0.2499 -0.2467
10819SOL    HW135859   3.773  10.713  10.607 -0.0472  0.1076 -4.0466
10819SOL    HW235860   3.915  10.661  10.606 -0.0375 -0.0705 -1.0484
10820SOL     OW35861   4.558   1.787   3.731  0.1039 -0.0211 -0.2534
10820SOL    HW135862   4.569   1.714   3.670 -1.4828 -0.6057  0.1171
10820SOL    HW235863   4.550   1.746   3.817  1.9756  0.7780  0.3650
10821SOL     OW35864   5.729  10.843   3.244 -0.3870 -0.4186  0.4638
10821SOL    HW135865   5.732  10.883   3.331  0.3851 -0.7734  0.6110
10821SOL    HW235866   5.728  10.749   3.261  0.0229 -0.4923  0.0863
10822SOL     OW35867   9.209   0.249   4.058 -0.4555 -0.1166  0.2194
10822SOL    HW135868   9.116   0.229   4.049 -0.1114 -0.8961 -2.8965
10822SOL    HW235869   9.222   0.327   4.004  0.7723 -0.3220  0.1828
10823SOL     OW35870   2.013   3.915   3.744  0.2293  0.6065  0.0063
10823SOL    HW135871   1.974   3.959   3.669  0.0192 -1.1721 -1.0065
10823SOL    HW235872   2.064   3.843   3.705  0.7726  0.1256  1.5386
10824SOL     OW35873   3.308  10.094   0.763 -0.3629  0.0634 -0.2631
10824SOL    HW135874   3.362  10.100   0.843  0.9986  1.0924 -1.2033
10824SOL    HW235875   3.252  10.172   0.766 -0.1415  0.2302 -0.4174
10825SOL     OW35876   3.448   4.276   9.809  0.1106 -0.1639  0.1245
10825SOL    HW135877   3.543   4.278   9.793 -0.0478  0.9198 -0.7657
10825SOL    HW235878   3.422   4.368   9.808 -1.0485 -0.4877 -0.2182
10826SOL     OW35879   3.464   4.157   9.078 -0.3425 -0.3552 -0.0253
10826SOL    HW135880   3.516   4.149   8.998  1.3041  0.0050  0.9638
10826SOL    HW235881   3.377   4.186   9.048  0.4098  0.3336 -1.6207
10827SOL     OW35882   0.582   1.251   6.655  0.0671  0.1648  0.2819
10827SOL    HW135883   0.656   1.208   6.696  0.9478  2.2814  1.0696
10827SOL    HW235884   0.512   1.246   6.719  0.1520 -0.0986  0.3542
10828SOL     OW35885   1.542   2.215   0.228  0.5966  0.0936 -0.4197
10828SOL    HW135886   1.566   2.126   0.202 -0.2823  0.0215 -1.0349
10828SOL    HW235887   1.514   2.206   0.320 -0.2949 -0.4315 -0.7308
10829SOL     OW35888   9.748   1.850   7.533 -0.2677 -0.1627  0.0679
10829SOL    HW135889   9.684   1.787   7.501 -0.5814  0.7912 -1.2911
10829SOL    HW235890   9.826   1.798   7.552 -0.7460 -1.0454 -0.3474
10830SOL     OW35891   1.059   1.616  10.087  0.1645  0.4020  0.1880
10830SOL    HW135892   1.114   1.539  10.100 -1.1041 -0.1799  2.7814
10830SOL    HW235893   1.090   1.680  10.152 -1.2583  0.5696  0.7577
10831SOL     OW35894   5.099   2.701   8.925 -0.2538  0.1416 -0.2937
10831SOL    HW135895   5.085   2.701   8.830 -1.3107 -1.6107 -0.1798
10831SOL    HW235896   5.191   2.677   8.936 -0.2132  0.0279 -0.8704
10832SOL     OW35897   2.120  10.723   9.724  0.4356 -0.5439 -0.1206
10832SOL    HW135898   2.123  10.800   9.780 -2.6125 -1.7484  1.9875
10832SOL    HW235899   2.055  10.745   9.658  0.7651 -0.7385 -0.5113
10833SOL     OW35900   8.848   1.799   2.115 -0.1840 -0.3867  0.0373
10833SOL    HW135901   8.788   1.734   2.152 -1.0447  0.2553 -0.1890
10833SOL    HW235902   8.790   1.866   2.077  0.6610  0.8215  0.8008
10834SOL     OW35903   9.252   8.669   3.549 -0.1133 -0.1915 -0.1637
10834SOL    HW135904   9.160   8.649   3.533 -0.2119  0.7298 -0.8350
10834SOL    HW235905   9.265   8.754   3.508  1.6281 -1.3605 -2.2419
10835SOL     OW35906   2.643   8.333   1.081  0.0815 -0.3133  0.1621
10835SOL    HW135907   2.632   8.266   1.148 -0.0472 -0.8759 -0.4143
10835SOL    HW235908   2.583   8.308   1.012  1.3176 -0.6162 -0.8426
10836SOL     OW35909   4.725   7.840  10.571  0.3062  0.2044  0.2133
10836SOL    HW135910   4.654   7.893  10.536 -0.4020 -0.0651  1.1873
10836SOL    HW235911   4.750   7.782  10.499 -0.3114  0.4595 -0.2111
10837SOL     OW35912   2.815   0.021   0.820  0.3654  0.2353  0.3509
10837SOL    HW135913   2.738   0.056   0.776 -0.0038 -1.1187 -0.1324
10837SOL    HW235914   2.888   0.074   0.788 -0.4372  2.1416  1.5064
10838SOL     OW35915   5.499   8.144   5.306  1.2381  0.4882  0.5056
10838SOL    HW135916   5.571   8.154   5.368 -0.0878  0.9895  2.0400
10838SOL    HW235917   5.425   8.186   5.349  0.1142  0.3317 -1.1942
10839SOL     OW35918   3.184   2.357   6.637 -0.2646 -0.0910  0.6150
10839SOL    HW135919   3.276   2.382   6.629 -0.7369  1.6990  0.2968
10839SOL    HW235920   3.155   2.343   6.547 -0.4370 -0.1468  0.6781
10840SOL     OW35921   5.690   6.231   8.946 -0.3132 -0.0038  0.9595
10840SOL    HW135922   5.626   6.193   9.007  0.6859 -2.0011  0.8416
10840SOL    HW235923   5.648   6.229   8.861 -0.4827 -0.3065  1.0529
10841SOL     OW35924   0.797   6.639   4.937  1.0739  0.3251  0.6792
10841SOL    HW135925   0.780   6.561   4.885 -0.7833  0.6396  0.7648
10841SOL    HW235926   0.855   6.692   4.882  0.3303 -0.0077 -0.4509
10842SOL     OW35927   4.552   0.070   8.243  0.9040  0.2313 -0.2797
10842SOL    HW135928   4.491   0.108   8.180 -0.2639  0.4874  0.9484
10842SOL    HW235929   4.524  -0.021   8.251  0.8960  0.2623  0.0449
10843SOL     OW35930   5.779   0.370   5.348  0.1805  0.0599 -0.7545
10843SOL    HW135931   5.868   0.395   5.325  0.2513  0.3502 -0.1813
10843SOL    HW235932   5.734   0.362   5.264  0.5196  0.7429 -1.0082
10844SOL     OW35933   3.414   4.998   5.161 -0.4719 -0.1357 -0.5350
10844SOL    HW135934   3.387   5.083   5.194  0.0739  0.2227 -0.9828
10844SOL    HW235935   3.354   4.936   5.202 -1.7052  0.5836 -1.1893
10845SOL     OW35936   3.579  10.515   6.200 -0.3794  0.7027 -0.8337
10845SOL    HW135937   3.655  10.460   6.182  0.6633  1.6590  0.4270
10845SOL    HW235938   3.585  10.586   6.137 -1.2877 -0.1570 -1.9400
10846SOL     OW35939   1.639   0.275   6.693  0.3486 -0.0962 -0.0824
10846SOL    HW135940   1.587   0.196   6.676  0.6825 -0.3091 -0.1350
10846SOL    HW235941   1.682   0.294   6.610 -1.2266  1.2771 -0.6113
10847SOL     OW35942   7.952   0.687   3.184 -0.2406  0.1616  0.1125
10847SOL    HW135943   8.021   0.741   3.223  0.1025 -0.3806  0.2724
10847SOL    HW235944   7.920   0.633   3.256  1.1428 -1.6289 -0.5394
10848SOL     OW35945   9.178   2.059   3.015 -0.2075  0.5063  0.1347
10848SOL    HW135946   9.178   2.148   2.980  0.8483  0.2585 -0.5286
10848SOL    HW235947   9.256   2.054   3.069 -1.0738  0.4373  1.4184
10849SOL     OW35948   1.193   4.392   2.544 -0.1535  0.3450  0.3068
10849SOL    HW135949   1.180   4.398   2.638  3.2453 -2.4618  1.1129
10849SOL    HW235950   1.131   4.325   2.515 -0.7552  0.7541  0.6318
10850SOL     OW35951   0.635   9.044   0.612  0.1807  0.2553 -0.9055
10850SOL    HW135952   0.631   9.111   0.679  0.3000 -1.1468  0.5710
10850SOL    HW235953   0.692   9.081   0.544  3.0663  0.4158  1.3781
10851SOL     OW35954   4.968   5.356   4.104  0.4111  0.7084  0.0652
10851SOL    HW135955   4.920   5.330   4.025 -0.0711  1.4354  0.1150
10851SOL    HW235956   4.901   5.391   4.163  0.4400 -1.5749  1.5898
10852SOL     OW35957   8.104   4.372   3.685  0.0324 -0.0043 -0.2712
10852SOL    HW135958   8.076   4.281   3.695  1.4354 -0.3702  0.7446
10852SOL    HW235959   8.156   4.372   3.604  0.5933 -0.2775  0.0801
10853SOL     OW35960   0.938   2.626   2.976 -0.3128  0.4338  1.0843
10853SOL    HW135961   0.843   2.621   2.966 -0.3053 -1.3199  1.5589
10853SOL    HW235962   0.952   2.696   3.039 -1.2967  0.5566  1.1887
10854SOL     OW35963   5.467   3.517   0.392 -0.1519  0.0323  0.3093
10854SOL    HW135964   5.423   3.545   0.312  0.0153  0.3886  0.3383
10854SOL    HW235965   5.399   3.515   0.459 -0.9945 -3.2522 -0.4608
10855SOL     OW35966   6.641   2.405   5.510  0.7162 -0.1034  0.7725
10855SOL    HW135967   6.728   2.398   5.551 -0.0369  0.0955  2.5146
10855SOL    HW235968   6.644   2.486   5.459  1.9771 -0.8077 -0.3232
10856SOL     OW35969   4.362   0.801   0.991  0.5415  0.2757 -0.3065
10856SOL    HW135970   4.314   0.718   0.995  2.4684 -0.9537 -1.5803
10856SOL    HW235971   4.402   0.809   1.078  1.6361 -0.9665 -0.6703
10857SOL     OW35972   8.456   2.586  10.221  0.5332  0.3787  0.1458
10857SOL    HW135973   8.458   2.510  10.163 -3.2628  1.0113 -1.0824
10857SOL    HW235974   8.473   2.661  10.163  1.1907  0.6941  0.7376
10858SOL     OW35975   5.686   2.618   0.384 -0.3032 -0.5588  0.4620
10858SOL    HW135976   5.691   2.623   0.288 -0.2414  0.5203  0.5084
10858SOL    HW235977   5.718   2.703   0.413  0.0028 -1.0092  1.4575
10859SOL     OW35978   2.625   1.414   4.089  0.5232 -0.7151 -0.1021
10859SOL    HW135979   2.531   1.395   4.096  0.5006 -0.7522 -0.5262
10859SOL    HW235980   2.630   1.486   4.027  0.7050 -0.0889  0.6238
10860SOL     OW35981   9.076   2.268   2.092 -0.4083 -0.5465 -0.1125
10860SOL    HW135982   9.132   2.333   2.048  0.9465 -1.0363  0.8065
10860SOL    HW235983   9.132   2.232   2.162 -2.4740  0.2851  2.1073
10861SOL     OW35984   8.353  10.260   5.899 -0.3135 -0.3185 -0.2756
10861SOL    HW135985   8.376  10.250   5.991  1.4174  0.1208 -0.6179
10861SOL    HW235986   8.323  10.351   5.892  0.3686 -0.0888 -0.2870
10862SOL     OW35987   3.155   1.922   9.671  0.4392 -0.0970  0.0060
10862SOL    HW135988   3.206   1.897   9.747  1.4997  0.8697 -0.3610
10862SOL    HW235989   3.102   1.845   9.651 -1.2014  0.1971  2.7555
10863SOL     OW35990   6.681   7.794   1.345 -0.4788  0.2798 -0.4211
10863SOL    HW135991   6.604   7.737   1.341 -1.3523  1.4388 -4.1905
10863SOL    HW235992   6.656   7.864   1.404 -2.0342  0.1821 -0.9218
10864SOL     OW35993   3.060   0.182   2.331 -0.2862 -0.1290 -0.2317
10864SOL    HW135994   3.085   0.216   2.417 -1.8289  0.8881 -0.1472
10864SOL    HW235995   3.020   0.257   2.287  0.7795 -0.5360 -1.9900
10865SOL     OW35996   1.075   0.114   0.412  0.6293 -0.5439 -0.2682
10865SOL    HW135997   1.145   0.167   0.375 -1.6420  0.8889 -2.9620
10865SOL    HW235998   1.071   0.037   0.355 -1.3210  0.4920 -1.6696
10866SOL     OW35999  10.281  10.155   5.040  0.0543  0.4478 -0.3319
10866SOL    HW136000  10.331  10.201   4.972 -0.9809  0.1714 -1.3107
10866SOL    HW236001  10.274  10.219   5.111  0.0450  1.2180 -1.0101
10867SOL     OW36002   5.500   8.475   5.453 -0.2580 -0.7764 -0.0616
10867SOL    HW136003   5.530   8.520   5.375 -1.7151 -0.5748 -0.5299
10867SOL    HW236004   5.579   8.433   5.488  0.5516 -0.2728 -1.2180
10868SOL     OW36005   1.844   7.305   6.009  0.0375 -0.1709  0.3280
10868SOL    HW136006   1.874   7.225   5.966 -0.8004  0.3717 -1.3372
10868SOL    HW236007   1.763   7.279   6.054  0.3004 -0.4690  0.6411
10869SOL     OW36008   6.577   0.303   7.005 -0.0976 -0.3591  0.2734
10869SOL    HW136009   6.626   0.255   7.071  1.1835 -1.7533 -1.5950
10869SOL    HW236010   6.500   0.249   6.988  0.7901 -1.2681 -1.0411
10870SOL     OW36011   8.194   5.675   6.616 -0.3592 -0.3083  0.0177
10870SOL    HW136012   8.222   5.722   6.538 -0.5393 -0.8015 -0.3445
10870SOL    HW236013   8.239   5.720   6.688  0.1664 -0.1449 -0.4084
10871SOL     OW36014   4.707   0.628   5.056 -0.0731  0.5636  0.2378
10871SOL    HW136015   4.764   0.555   5.031  0.1767  1.1419 -0.9140
10871SOL    HW236016   4.618   0.592   5.046  0.0351  0.5500 -0.8191
10872SOL     OW36017   7.684   6.916   2.908  0.3769  0.4497 -0.0980
10872SOL    HW136018   7.596   6.954   2.917 -0.7395 -2.2236  1.4369
10872SOL    HW236019   7.693   6.901   2.814 -0.3707  1.7131 -0.3950
10873SOL     OW36020   0.912   7.111   0.364 -0.4203 -0.3315  0.1056
10873SOL    HW136021   0.877   7.068   0.286  1.3304 -1.3764 -0.1678
10873SOL    HW236022   0.933   7.039   0.423  0.9978  0.2401  0.3334
10874SOL     OW36023   7.883   3.308   4.019  0.1896 -0.3817 -0.6187
10874SOL    HW136024   7.956   3.324   3.960  0.9057  3.1321  0.9898
10874SOL    HW236025   7.815   3.370   3.993  0.8502  1.9224  2.5644
10875SOL     OW36026   5.127   3.589   3.212 -0.4449 -0.4518 -0.6000
10875SOL    HW136027   5.208   3.638   3.221 -1.6839  1.5250  0.4926
10875SOL    HW236028   5.114   3.582   3.117 -0.1500  1.2807 -0.8062
10876SOL     OW36029   5.813   0.513   3.105 -0.0058  0.1568 -0.2329
10876SOL    HW136030   5.770   0.597   3.120  1.1034  0.8529 -0.8123
10876SOL    HW236031   5.782   0.457   3.177  0.3638  1.4938  1.0107
10877SOL     OW36032   4.458   6.449   1.638  0.6226  0.2094 -0.2197
10877SOL    HW136033   4.486   6.379   1.578  3.4220 -0.6711  1.9391
10877SOL    HW236034   4.496   6.528   1.601 -0.4198  0.2486 -1.2924
10878SOL     OW36035   4.027   2.881   2.360 -0.5731  0.1915  0.0578
10878SOL    HW136036   4.080   2.823   2.416 -3.0029 -2.2633  0.0439
10878SOL    HW236037   4.063   2.968   2.375  3.6099 -1.2437 -0.2059
10879SOL     OW36038   9.899   3.121   6.733  0.2678 -0.5482  0.2629
10879SOL    HW136039   9.920   3.207   6.770 -0.2356 -0.3734  0.1597
10879SOL    HW236040   9.805   3.127   6.712  0.2747 -1.0581  0.0799
10880SOL     OW36041   6.022  10.027   8.351  0.1089 -0.4761 -0.6291
10880SOL    HW136042   5.963  10.091   8.310 -1.3534 -1.5229 -0.2754
10880SOL    HW236043   6.024  10.052   8.443 -1.3578 -1.5073 -0.2685
10881SOL     OW36044   9.823   9.022   9.112  0.3439  0.1818  0.0118
10881SOL    HW136045   9.878   8.947   9.090 -1.1899 -0.7447 -0.8858
10881SOL    HW236046   9.811   9.016   9.206  1.1547 -0.0296  0.1106
10882SOL     OW36047   8.009   5.661   8.185  0.4805  0.0892  0.5194
10882SOL    HW136048   7.968   5.575   8.198  0.5289  0.0609  0.4872
10882SOL    HW236049   8.096   5.651   8.223  0.5112  0.1031  0.4506
10883SOL     OW36050   6.517   2.091   1.993  0.1495  0.0836  0.0246
10883SOL    HW136051   6.437   2.050   2.026  0.3994 -0.3799  0.0604
10883SOL    HW236052   6.495   2.118   1.904 -0.0510 -0.0345  0.0374
10884SOL     OW36053   8.303  10.833   0.269  0.4722 -0.2143  0.0961
10884SOL    HW136054   8.373  10.804   0.211 -0.4533 -2.3475 -0.0580
10884SOL    HW236055   8.312  10.779   0.347 -1.0801 -0.6725 -0.0058
10885SOL     OW36056   1.348   3.003   3.067 -0.4132 -0.4297 -0.1558
10885SOL    HW136057   1.390   2.987   3.151  1.0552  0.3763 -0.6994
10885SOL    HW236058   1.307   2.920   3.044  2.1533 -1.7767 -0.2565
10886SOL     OW36059   2.728   8.227   0.431  0.2873 -0.4888 -0.1118
10886SOL    HW136060   2.775   8.163   0.378  1.2114  1.1886 -1.4333
10886SOL    HW236061   2.640   8.229   0.394  0.7102  0.1192 -1.1273
10887SOL     OW36062   3.822   4.916   3.416 -0.0032 -0.1159 -0.1360
10887SOL    HW136063   3.754   4.972   3.453  0.2099  0.5541 -0.7264
10887SOL    HW236064   3.897   4.927   3.476 -0.3770 -0.7860  0.4643
10888SOL     OW36065   5.595   0.304   6.212 -0.2893 -0.3042 -0.1830
10888SOL    HW136066   5.561   0.254   6.138  0.1505  0.4210 -0.8911
10888SOL    HW236067   5.518   0.341   6.254 -0.4236  1.6897 -2.0287
10889SOL     OW36068   1.987  10.456   8.963  0.6819  0.6198 -0.0182
10889SOL    HW136069   1.990  10.430   9.055  2.2073 -0.1337 -0.2611
10889SOL    HW236070   1.923  10.397   8.923 -0.1408  1.0863  0.5773
10890SOL     OW36071  10.413   5.257   2.766  0.5034 -0.2006 -0.1992
10890SOL    HW136072  10.357   5.204   2.710 -0.7449  1.4152 -0.5548
10890SOL    HW236073  10.413   5.343   2.726  1.5845  0.3755  0.9559
10891SOL     OW36074  10.896   3.405   8.793  0.3231  0.4745 -0.2760
10891SOL    HW136075  10.836   3.459   8.742  0.2952  2.2646  1.5759
10891SOL    HW236076  10.973   3.395   8.736 -0.0199  1.7387 -0.9898
10892SOL     OW36077   5.290   9.941   1.569  0.2016  0.2159 -0.4151
10892SOL    HW136078   5.243   9.933   1.486  1.1433 -0.0705 -0.9318
10892SOL    HW236079   5.257   9.869   1.623 -0.4881  0.4684 -0.4916
10893SOL     OW36080   5.496   2.886   9.597  0.0811 -0.0444 -0.5199
10893SOL    HW136081   5.505   2.908   9.504 -2.0142 -0.6916 -0.9438
10893SOL    HW236082   5.420   2.827   9.600  0.4713 -0.5172  1.5426
10894SOL     OW36083   7.805   5.552   4.110 -0.1081 -0.4002 -0.6286
10894SOL    HW136084   7.776   5.481   4.168  2.7175 -1.3325 -0.2322
10894SOL    HW236085   7.726   5.604   4.095 -1.3339 -1.0434  2.7316
10895SOL     OW36086   1.974   3.703   4.027  0.6874  0.0196  0.3243
10895SOL    HW136087   2.036   3.761   3.984  1.4305  0.2078  1.5795
10895SOL    HW236088   2.001   3.704   4.119 -0.4554 -0.8315  0.6906
10896SOL     OW36089   0.191   4.688   9.911 -1.0683  0.5354  0.0495
10896SOL    HW136090   0.101   4.721   9.912 -0.9790  0.7871 -0.0181
10896SOL    HW236091   0.241   4.754   9.959 -0.8663  0.5546 -0.1861
10897SOL     OW36092  10.108   1.298   1.856 -0.2552 -0.0014 -0.2656
10897SOL    HW136093  10.156   1.221   1.826 -0.1469  0.6150 -1.7427
10897SOL    HW236094  10.038   1.310   1.792  0.1510  1.5279 -0.4780
10898SOL     OW36095   2.265  10.066   6.112 -0.1840 -0.4626  0.4854
10898SOL    HW136096   2.181  10.107   6.134 -0.5432 -2.2461  2.7960
10898SOL    HW236097   2.310  10.056   6.195  2.6737  0.9826 -0.7689
10899SOL     OW36098   2.373   8.648   3.248 -0.7411  0.2619  0.5797
10899SOL    HW136099   2.443   8.680   3.304  1.5544 -0.9068 -1.4070
10899SOL    HW236100   2.354   8.560   3.281 -0.4923  0.1660  0.4683
10900SOL     OW36101  10.705   2.761   0.568 -0.7291 -0.2005 -0.3790
10900SOL    HW136102  10.659   2.834   0.527  0.2681  0.7409  0.1002
10900SOL    HW236103  10.730   2.795   0.655  0.8144 -0.6449 -0.6092
10901SOL     OW36104   4.720   5.081   4.129 -0.0705  0.0200  0.4980
10901SOL    HW136105   4.757   5.111   4.046 -1.5484  2.5110  0.6281
10901SOL    HW236106   4.792   5.088   4.191 -0.1988  3.4937  0.4772
10902SOL     OW36107   6.251   5.668   9.691 -0.2396 -0.4207 -0.5416
10902SOL    HW136108   6.229   5.594   9.633  1.1217 -1.2977  0.0032
10902SOL    HW236109   6.339   5.647   9.724 -0.3009  0.8878  0.5324
10903SOL     OW36110   0.860  10.625   6.161 -0.5481 -0.5125 -0.7903
10903SOL    HW136111   0.862  10.530   6.166 -1.8444 -0.5026  0.3382
10903SOL    HW236112   0.811  10.653   6.238  2.4249  1.2637  0.6762
10904SOL     OW36113   4.939   4.953   5.451  0.3010 -0.4801 -0.2542
10904SOL    HW136114   5.034   4.945   5.456  0.3892  0.4914 -0.1758
10904SOL    HW236115   4.907   4.899   5.523  0.7746 -1.0576 -0.4662
10905SOL     OW36116   1.173  10.810   7.698 -0.2163  0.2724  0.5486
10905SOL    HW136117   1.201  10.733   7.748 -0.4482  0.4255  0.9181
10905SOL    HW236118   1.249  10.831   7.643 -0.5151 -0.8550 -0.3437
10906SOL     OW36119   4.933   8.412   2.177 -0.2495 -0.7376 -0.3086
10906SOL    HW136120   4.839   8.406   2.165 -0.3593  1.8559 -1.1719
10906SOL    HW236121   4.966   8.326   2.148 -2.1938 -1.1824 -1.3763
10907SOL     OW36122   3.054   0.919   8.595 -0.0692  0.6337  0.2469
10907SOL    HW136123   3.054   0.827   8.618  0.4066  0.7315  0.6458
10907SOL    HW236124   3.099   0.923   8.511 -0.0182  0.5133  0.2687
10908SOL     OW36125   9.928   0.894   5.459  0.5170  0.3351 -0.3276
10908SOL    HW136126   9.936   0.963   5.393  0.9903  0.6678  0.0693
10908SOL    HW236127   9.906   0.815   5.410  1.7011  0.3965 -0.9683
10909SOL     OW36128   1.393  10.148   6.275 -0.0153  0.1403  0.2254
10909SOL    HW136129   1.424  10.057   6.266  3.1348  1.0850  0.2693
10909SOL    HW236130   1.420  10.190   6.193  0.3399  1.4805  1.0135
10910SOL     OW36131   5.900   7.012   5.105 -0.4405  0.0731  0.0163
10910SOL    HW136132   5.813   6.978   5.084 -1.0235  1.5616 -0.1015
10910SOL    HW236133   5.894   7.106   5.088  1.7786 -0.0420 -1.8690
10911SOL     OW36134   5.194   5.106  10.781 -0.2044  0.2403 -0.6177
10911SOL    HW136135   5.106   5.105  10.819 -0.1380 -1.5357 -0.4367
10911SOL    HW236136   5.252   5.106  10.857 -0.0280  1.1898 -0.7401
10912SOL     OW36137   9.944   4.345   8.410  0.5988 -0.1295  0.6594
10912SOL    HW136138   9.896   4.370   8.489  1.0959  1.5099  0.4772
10912SOL    HW236139  10.030   4.315   8.443  0.5874 -0.0396  0.7696
10913SOL     OW36140  10.713  10.517   7.983 -0.1013 -0.1409  0.0130
10913SOL    HW136141  10.691  10.467   7.904  0.4317 -0.9524  0.3543
10913SOL    HW236142  10.804  10.543   7.970 -0.3038  0.5482 -0.0527
10914SOL     OW36143   2.206   8.188   0.826 -0.2421  0.0832  0.1432
10914SOL    HW136144   2.156   8.262   0.792  0.6392  0.5732 -0.1137
10914SOL    HW236145   2.205   8.200   0.921 -0.0211  0.4846  0.0977
10915SOL     OW36146   3.128   0.954   9.687  0.0441  0.4800  0.8050
10915SOL    HW136147   3.057   0.940   9.750 -0.7898 -0.6881 -0.3369
10915SOL    HW236148   3.208   0.940   9.738 -0.6381 -2.5731  1.2403
10916SOL     OW36149   6.836  10.483   9.030 -0.1936 -0.1956  0.5757
10916SOL    HW136150   6.785  10.474   8.950 -0.4293 -0.0709  0.7092
10916SOL    HW236151   6.887  10.563   9.018  0.0880 -0.4040  0.3784
10917SOL     OW36152   2.725  10.282   4.789  0.1892  0.0020 -0.3640
10917SOL    HW136153   2.783  10.270   4.864 -0.0089 -1.8279 -0.4677
10917SOL    HW236154   2.782  10.315   4.719  0.6709  0.2504  0.1425
10918SOL     OW36155   1.378   7.170  10.766  0.8991 -0.0660  0.3798
10918SOL    HW136156   1.425   7.109  10.709 -0.6579  0.6145 -1.8158
10918SOL    HW236157   1.393   7.256  10.726 -0.1729  0.4581  1.0449
10919SOL     OW36158   3.957   4.682  10.844 -0.1941 -0.7306  0.0442
10919SOL    HW136159   3.912   4.765  10.828  0.7532 -0.4332 -1.2321
10919SOL    HW236160   3.905   4.617  10.796 -0.8460 -0.8674  0.9147
10920SOL     OW36161   6.737   0.528  10.037  0.1693  0.1620  0.2356
10920SOL    HW136162   6.801   0.576  10.089  2.1104  0.3672 -2.1940
10920SOL    HW236163   6.707   0.457  10.095  1.9827  0.5492  1.7162
10921SOL     OW36164   8.989   7.766   0.026  0.5554 -0.3675  0.0781
10921SOL    HW136165   9.055   7.795  -0.038  0.0852 -0.9496 -0.6916
10921SOL    HW236166   8.961   7.847   0.069  1.7486 -0.1091  0.4044
10922SOL     OW36167   2.723   4.529   9.447  0.5195  0.8791 -0.2750
10922SOL    HW136168   2.764   4.527   9.533  0.0704  1.2993 -0.0474
10922SOL    HW236169   2.796   4.539   9.386  0.8561  0.3753  0.0395
10923SOL     OW36170   2.417   2.119   5.627  0.5015 -0.7069 -0.2985
10923SOL    HW136171   2.506   2.089   5.610  1.0556  0.6996 -0.0290
10923SOL    HW236172   2.404   2.103   5.721  0.1291 -1.7337 -0.5157
10924SOL     OW36173   2.995   5.291   0.833 -0.6602  0.1635 -0.6701
10924SOL    HW136174   3.004   5.360   0.767 -1.3319  0.5587 -0.3568
10924SOL    HW236175   2.944   5.223   0.789  1.0460 -0.7222 -1.4063
10925SOL     OW36176   9.001   2.681   3.024 -0.5279  0.3138 -0.6673
10925SOL    HW136177   9.034   2.735   2.952 -0.6859 -0.9809 -1.7347
10925SOL    HW236178   9.059   2.701   3.098  0.2446  0.9351 -1.4235
10926SOL     OW36179   4.029   2.804   6.334  0.2688  0.2617 -0.4594
10926SOL    HW136180   4.121   2.779   6.339  0.2174  0.2601  0.6179
10926SOL    HW236181   4.007   2.834   6.422 -1.5403 -2.4864  0.1232
10927SOL     OW36182   7.126   9.044  10.200  0.0529  0.0518 -0.3189
10927SOL    HW136183   7.198   8.990  10.232  0.3707 -0.1244 -1.2885
10927SOL    HW236184   7.048   9.004  10.237  0.3230 -0.8056 -0.6527
10928SOL     OW36185   2.821   1.308   4.936 -0.3242 -0.1864 -0.0696
10928SOL    HW136186   2.821   1.303   4.841  1.4346 -1.9069 -0.0444
10928SOL    HW236187   2.752   1.248   4.963 -0.9152  0.4044 -0.2346
10929SOL     OW36188   6.994   4.241   2.934 -0.2236  0.3825 -0.0698
10929SOL    HW136189   7.086   4.222   2.919 -0.3352 -1.1414  0.8906
10929SOL    HW236190   6.954   4.155   2.947 -1.1104  1.1304  3.0323
10930SOL     OW36191   0.013   4.638   7.754 -0.2809 -0.0574  0.7299
10930SOL    HW136192  -0.006   4.554   7.794  1.6592 -0.6490  0.5054
10930SOL    HW236193  -0.037   4.701   7.805 -0.5809 -1.1753  1.8563
10931SOL     OW36194  10.244   1.434   4.522 -0.4817 -0.4325 -0.3938
10931SOL    HW136195  10.291   1.367   4.473 -0.0764 -0.8819  0.5814
10931SOL    HW236196  10.284   1.433   4.609 -1.5114 -0.0013  0.1040
10932SOL     OW36197   9.689   6.856   8.121 -0.3939  0.1466 -0.1533
10932SOL    HW136198   9.767   6.802   8.139 -0.8167 -0.2010  0.6737
10932SOL    HW236199   9.724   6.933   8.077  0.2349 -0.7794 -1.3383
10933SOL     OW36200   4.991   4.315   2.136 -0.3833  0.5575 -0.0627
10933SOL    HW136201   4.999   4.229   2.096  3.6396  1.4101 -1.5021
10933SOL    HW236202   4.997   4.298   2.230 -0.0145 -0.7800 -0.3106
10934SOL     OW36203   8.273   8.119  10.336 -0.7842 -0.8195 -0.8533
10934SOL    HW136204   8.257   8.168  10.417  0.1438 -0.3379 -0.9472
10934SOL    HW236205   8.223   8.038  10.346 -0.5726 -0.8269  0.2553
10935SOL     OW36206   9.054  10.051   6.943  0.9059 -0.0341 -0.5007
10935SOL    HW136207   9.021  10.134   6.975  0.4163  0.4000 -2.0471
10935SOL    HW236208   9.142  10.044   6.980  0.8633  1.0539 -0.1666
10936SOL     OW36209   2.447   6.491   4.399 -0.3997 -0.2141 -0.1394
10936SOL    HW136210   2.488   6.572   4.370 -0.4203  0.4698  1.6204
10936SOL    HW236211   2.496   6.422   4.354  0.9415  0.6929 -0.1352
10937SOL     OW36212   5.517   8.851   9.954  0.1434 -0.7228 -0.4893
10937SOL    HW136213   5.532   8.893   9.869  2.0772  1.7287  0.9395
10937SOL    HW236214   5.440   8.896   9.989  0.3867 -0.4875 -0.2471
10938SOL     OW36215   0.177   2.991   5.763  0.1285  0.0970 -0.3292
10938SOL    HW136216   0.247   3.028   5.816  0.9902 -1.3559 -0.4097
10938SOL    HW236217   0.171   3.049   5.687  1.7793 -0.1690 -0.7019
10939SOL     OW36218   5.228   3.986   0.284  0.2161  0.1310 -0.4527
10939SOL    HW136219   5.159   3.935   0.328  0.6824  2.2295  3.1455
10939SOL    HW236220   5.298   3.923   0.268 -1.1256 -1.3203 -0.8405
10940SOL     OW36221   2.284   1.728   8.149 -0.5604 -0.2867  0.2821
10940SOL    HW136222   2.316   1.703   8.062 -0.2963  1.2005 -0.0774
10940SOL    HW236223   2.194   1.697   8.152 -1.7227  2.4019 -1.8481
10941SOL     OW36224   2.621   8.639   4.995 -0.4104 -0.3047 -1.2657
10941SOL    HW136225   2.551   8.669   5.051 -1.0752  2.1166 -3.2099
10941SOL    HW236226   2.700   8.682   5.028  0.0473 -2.1433  0.2260
10942SOL     OW36227   1.356   4.194   3.823 -0.0152 -0.5025 -0.0857
10942SOL    HW136228   1.402   4.124   3.869  0.1937  0.1202  0.6574
10942SOL    HW236229   1.312   4.245   3.892  1.5073  1.3293 -0.3904
10943SOL     OW36230   4.157   1.973   0.742 -0.4748 -0.3762  0.1396
10943SOL    HW136231   4.193   2.052   0.782 -0.7597 -0.3904  0.4272
10943SOL    HW236232   4.195   1.971   0.654  0.5484 -0.6012  0.5668
10944SOL     OW36233   3.585   1.457   2.634 -0.4636 -0.0183  0.5527
10944SOL    HW136234   3.608   1.364   2.626 -1.5895 -0.4831  2.2099
10944SOL    HW236235   3.670   1.502   2.633  0.2051 -1.2012  1.1823
10945SOL     OW36236   8.289   5.059   9.456  0.1955 -0.2648 -0.2040
10945SOL    HW136237   8.231   5.029   9.526 -0.1333 -2.6847 -1.4031
10945SOL    HW236238   8.279   4.993   9.387  2.1054  0.8806 -1.6637
10946SOL     OW36239   5.282   2.189  10.186  0.3680  0.2791  0.0719
10946SOL    HW136240   5.319   2.110  10.227 -1.2807 -0.3059  0.4931
10946SOL    HW236241   5.342   2.259  10.211  0.6959 -0.4799  1.5047
10947SOL     OW36242   0.551   0.781   4.449  0.1931  0.5341 -0.0598
10947SOL    HW136243   0.603   0.764   4.371 -1.2868  1.3513 -1.2820
10947SOL    HW236244   0.514   0.696   4.472  0.9648  0.2084  0.0242
10948SOL     OW36245  10.727  10.547   1.667  0.0895  0.6897 -0.0127
10948SOL    HW136246  10.764  10.634   1.659 -2.7796  1.9516 -1.1691
10948SOL    HW236247  10.713  10.534   1.761  1.2242  1.1143  0.2259
10949SOL     OW36248  10.745   3.156   1.477  0.2420 -0.1235  0.4419
10949SOL    HW136249  10.707   3.208   1.549 -1.4151  0.5647 -0.8485
10949SOL    HW236250  10.765   3.221   1.409  3.1494 -0.5633  0.7473
10950SOL     OW36251   5.358   4.503   4.209 -0.0027 -0.0653 -0.6250
10950SOL    HW136252   5.350   4.592   4.241  0.5159  0.4319 -1.8218
10950SOL    HW236253   5.330   4.448   4.283 -0.7438  1.0862 -0.0260
10951SOL     OW36254   4.399   8.676   8.904  0.5321 -0.4034  0.1703
10951SOL    HW136255   4.320   8.623   8.891  0.8406 -0.2689 -2.9584
10951SOL    HW236256   4.471   8.618   8.878  1.1136  0.6520 -0.6463
10952SOL     OW36257   5.044   6.579   4.737  0.7902  0.1976  0.5156
10952SOL    HW136258   5.093   6.501   4.761 -0.3109 -0.9846 -0.8593
10952SOL    HW236259   4.988   6.551   4.665 -0.9624  1.8116  1.1559
10953SOL     OW36260   6.468   8.404   2.240 -0.1081  0.0893 -0.4312
10953SOL    HW136261   6.490   8.496   2.251 -1.5196  0.4067 -0.1663
10953SOL    HW236262   6.553   8.360   2.233  0.8084  0.8755  3.4228
10954SOL     OW36263   2.925   2.193   6.772 -0.3580 -0.4926  0.2395
10954SOL    HW136264   3.010   2.168   6.737 -0.6255 -0.3945 -0.4946
10954SOL    HW236265   2.945   2.255   6.842  0.1696 -0.3690 -0.0164
10955SOL     OW36266  10.133   1.704   0.009  0.3484  0.6592  0.1532
10955SOL    HW136267  10.094   1.777  -0.039  1.2740  1.8030  1.1022
10955SOL    HW236268  10.059   1.660   0.050 -0.5653 -0.6488 -2.5987
10956SOL     OW36269   3.970   2.773   1.680 -0.1488  0.4725  0.4993
10956SOL    HW136270   3.906   2.757   1.611  0.8197  0.7534 -0.5021
10956SOL    HW236271   4.008   2.687   1.697 -2.0603 -0.0643  2.4584
10957SOL     OW36272   2.806   0.178  10.525  0.4751  0.3507  0.3673
10957SOL    HW136273   2.725   0.129  10.543  1.8398 -2.5014 -0.6722
10957SOL    HW236274   2.798   0.207  10.434  0.1908  1.0297  0.6024
10958SOL     OW36275   4.384   0.088   6.110 -0.0393 -0.5198  0.3862
10958SOL    HW136276   4.339   0.142   6.175  0.9969  0.2014  0.5368
10958SOL    HW236277   4.388   0.001   6.150 -2.3670 -0.9492 -0.1606
10959SOL     OW36278   6.414  10.478   8.123  0.0519 -0.1926  0.0491
10959SOL    HW136279   6.351  10.427   8.072 -0.7789  0.2843  0.5627
10959SOL    HW236280   6.492  10.482   8.069 -0.5367 -0.3654 -0.8362
10960SOL     OW36281   4.000   8.175   7.881  0.5827 -0.1301  0.3009
10960SOL    HW136282   3.912   8.211   7.869  0.6451 -0.0411  0.1069
10960SOL    HW236283   4.005   8.156   7.974  0.6412  0.6110  0.4589
10961SOL     OW36284   2.854   1.099   9.725 -0.3974  0.0265 -0.0957
10961SOL    HW136285   2.914   1.101   9.800 -0.9659  1.5252  0.3561
10961SOL    HW236286   2.795   1.172   9.740 -2.4005 -1.4134 -0.5022
10962SOL     OW36287   9.640   4.028   2.215 -0.2445  0.2503 -0.1620
10962SOL    HW136288   9.731   4.043   2.190  0.4427 -1.7879  0.8715
10962SOL    HW236289   9.637   4.052   2.308 -0.1063 -1.8809  0.4448
10963SOL     OW36290   7.638   1.040   0.304 -0.6279 -0.2912  0.0591
10963SOL    HW136291   7.628   1.049   0.209 -0.5454  0.9388  0.1629
10963SOL    HW236292   7.724   1.000   0.315 -0.7918 -0.7855 -0.3895
10964SOL     OW36293   0.354   1.303   0.862 -0.1365 -0.8220  0.0743
10964SOL    HW136294   0.391   1.257   0.787  0.9115 -2.0392  1.2611
10964SOL    HW236295   0.425   1.302   0.927 -1.1930 -0.3174  1.2706
10965SOL     OW36296   9.440   7.408   9.574  0.4254 -0.2291  0.2480
10965SOL    HW136297   9.484   7.327   9.599  0.7460 -0.6065 -1.4046
10965SOL    HW236298   9.426   7.454   9.656  2.3803 -0.8852  1.0161
10966SOL     OW36299   1.772   5.657   1.359  0.0172  0.3050 -0.0782
10966SOL    HW136300   1.862   5.650   1.392 -0.1293  0.1665  0.2880
10966SOL    HW236301   1.774   5.611   1.275  0.4678  0.9489 -0.4343
10967SOL     OW36302   7.654   1.045   7.749 -0.4288 -0.1133  0.0763
10967SOL    HW136303   7.622   1.115   7.692 -0.6505 -0.8369 -0.7066
10967SOL    HW236304   7.646   1.080   7.837 -1.4801  0.4749 -0.2407
10968SOL     OW36305   2.970   2.846   3.691  0.3586 -0.2881  0.2956
10968SOL    HW136306   3.011   2.836   3.605  0.1927  2.1426 -0.1410
10968SOL    HW236307   3.042   2.838   3.753  0.7758 -0.3667 -0.1934
10969SOL     OW36308   6.203   0.568  10.132  0.4404 -0.6821 -0.2750
10969SOL    HW136309   6.199   0.545  10.039  0.4891 -0.9248 -0.2196
10969SOL    HW236310   6.289   0.608  10.143 -0.5340  1.7096 -0.8508
10970SOL     OW36311   4.455   7.166   3.442  0.4188  0.0423  0.5762
10970SOL    HW136312   4.433   7.186   3.533  0.4334  1.1930  0.3425
10970SOL    HW236313   4.434   7.247   3.394 -0.8698 -0.9825 -0.6633
10971SOL     OW36314   1.774   0.040   6.526 -0.5281 -0.0661 -0.1810
10971SOL    HW136315   1.836  -0.016   6.480 -0.0102  0.2725  0.1063
10971SOL    HW236316   1.823   0.077   6.599 -0.2321  2.4239 -1.5356
10972SOL     OW36317   8.532   2.171   2.703  0.1106 -0.1491  0.1637
10972SOL    HW136318   8.463   2.179   2.769  2.1386 -0.6100  2.4737
10972SOL    HW236319   8.513   2.089   2.657  0.3635 -1.5386  2.3875
10973SOL     OW36320   1.130   5.156   2.929 -0.2706  0.3419  0.1639
10973SOL    HW136321   1.076   5.077   2.933  0.7028 -0.3481 -0.0278
10973SOL    HW236322   1.217   5.126   2.956 -0.0976  1.5459  0.9966
10974SOL     OW36323   6.869   0.703  10.758  0.2777 -0.4615 -0.5146
10974SOL    HW136324   6.932   0.671  10.822 -1.1989  0.5127  1.5667
10974SOL    HW236325   6.849   0.793  10.787  0.8536  0.7168 -3.4184
10975SOL     OW36326   1.133   3.475   2.913 -0.3525  0.3631 -0.4150
10975SOL    HW136327   1.106   3.545   2.973 -2.2430 -0.1583 -0.5910
10975SOL    HW236328   1.163   3.404   2.971 -0.0875  0.6721 -0.1727
10976SOL     OW36329   9.744   6.362   3.132 -0.4238 -0.2148 -0.6690
10976SOL    HW136330   9.733   6.289   3.072 -0.6727 -0.7940  0.0678
10976SOL    HW236331   9.799   6.327   3.202  0.7434  0.7545 -1.0589
10977SOL     OW36332   8.105   4.312   8.259  0.4982 -0.7730 -0.1741
10977SOL    HW136333   8.188   4.340   8.298  0.4677  0.2961 -0.8258
10977SOL    HW236334   8.119   4.319   8.164 -0.1273 -1.2133 -0.3065
10978SOL     OW36335   0.860   8.906   0.067 -0.0773  0.5292  0.1998
10978SOL    HW136336   0.884   8.999   0.066  0.8489  0.3504  2.1615
10978SOL    HW236337   0.791   8.900   0.133  2.2801 -0.6331  2.7596
10979SOL     OW36338   8.031   8.208   9.635 -0.0714  0.2865  0.0332
10979SOL    HW136339   8.055   8.176   9.549 -1.3810  0.5601 -0.4496
10979SOL    HW236340   8.095   8.277   9.654 -1.8192  2.7201 -2.2830
10980SOL     OW36341   0.186   5.399   5.284 -0.5699 -0.2273 -0.1611
10980SOL    HW136342   0.248   5.330   5.309 -2.6437 -1.1452  2.9294
10980SOL    HW236343   0.140   5.362   5.208 -0.6881 -1.7221  0.5896
10981SOL     OW36344   5.270   6.734   4.249 -0.8965  0.2904 -0.3185
10981SOL    HW136345   5.327   6.773   4.316 -0.1120 -1.6035  0.1822
10981SOL    HW236346   5.237   6.809   4.199 -1.4217  1.7899  2.0897
10982SOL     OW36347   5.246   0.237   9.862 -0.5873  0.3286  0.0668
10982SOL    HW136348   5.242   0.146   9.892 -0.6993  0.2507 -0.1816
10982SOL    HW236349   5.171   0.280   9.904 -0.0535  0.5126  0.8551
10983SOL     OW36350   4.071   7.804   9.981  0.1742 -0.4871  0.2459
10983SOL    HW136351   4.124   7.726   9.961 -0.0162 -0.8640  1.1572
10983SOL    HW236352   4.132   7.865  10.021  0.5100  0.1886 -1.2024
10984SOL     OW36353   1.434   9.282   9.679  0.0923 -0.0393  0.0647
10984SOL    HW136354   1.421   9.332   9.598 -0.0205 -1.0919 -0.5762
10984SOL    HW236355   1.375   9.324   9.742  1.9593  2.3853  0.3718
10985SOL     OW36356   0.496   7.800   3.056 -0.1841 -0.2282  0.1646
10985SOL    HW136357   0.490   7.728   3.119 -2.4555 -0.4200 -0.2125
10985SOL    HW236358   0.471   7.877   3.107  1.0827  0.1444  0.2612
10986SOL     OW36359   0.200   7.022   7.471 -0.2603  0.1521 -0.2106
10986SOL    HW136360   0.238   7.021   7.384  1.3577 -1.7448  0.4431
10986SOL    HW236361   0.259   7.077   7.523 -0.9044  0.8144 -0.1648
10987SOL     OW36362   8.180   4.636   7.094 -0.1294 -0.3408 -0.2903
10987SOL    HW136363   8.249   4.573   7.117 -1.1465 -1.6036 -0.5732
10987SOL    HW236364   8.220   4.691   7.026  0.3251 -1.6332 -1.1112
10988SOL     OW36365   5.118   1.918  10.068 -0.1836  0.0018  0.1572
10988SOL    HW136366   5.169   1.880  10.139 -0.0895 -2.3189 -1.0721
10988SOL    HW236367   5.183   1.959  10.011  0.0283 -0.5490 -0.0003
10989SOL     OW36368   5.782   1.743   4.824  0.4551  0.1991 -0.1033
10989SOL    HW136369   5.735   1.720   4.743 -0.1752  2.2369 -0.3899
10989SOL    HW236370   5.852   1.802   4.795  0.2875  0.8735  0.8187
10990SOL     OW36371   6.760   2.438   2.358 -0.1857  0.8793  0.2045
10990SOL    HW136372   6.706   2.420   2.282 -0.0618 -0.4130  0.4001
10990SOL    HW236373   6.849   2.413   2.331 -0.1111  0.5806  0.7034
10991SOL     OW36374   8.886   2.859   5.547 -0.0805 -0.7117  0.2502
10991SOL    HW136375   8.857   2.914   5.620 -0.7363 -2.1601  1.1458
10991SOL    HW236376   8.841   2.775   5.561  0.9863 -1.5334 -0.9528
10992SOL     OW36377   8.233   5.349   8.377 -0.1351  0.4786 -0.1401
10992SOL    HW136378   8.287   5.294   8.435 -0.4716 -0.3560 -0.6035
10992SOL    HW236379   8.250   5.315   8.290 -2.3008 -0.5908 -0.2007
10993SOL     OW36380   3.860   4.800   3.810  0.0440  0.2633  0.5526
10993SOL    HW136381   3.850   4.747   3.731 -2.0959  0.8379  0.3657
10993SOL    HW236382   3.931   4.759   3.858  1.1409 -0.3337 -1.4782
10994SOL     OW36383   1.939   5.579   6.549  0.7178 -0.3815 -0.1442
10994SOL    HW136384   1.900   5.531   6.476  0.2441 -1.1958  0.6305
10994SOL    HW236385   2.016   5.528   6.573  2.3544  1.2263 -1.6750
10995SOL     OW36386   0.989   4.383   0.412  0.1665  0.2839 -0.4720
10995SOL    HW136387   0.936   4.341   0.344  1.2238  0.2268 -1.2844
10995SOL    HW236388   1.072   4.405   0.369  0.9913 -0.0413  0.8734
10996SOL     OW36389   6.530   3.838   6.324 -0.2906 -0.1037 -0.1913
10996SOL    HW136390   6.558   3.746   6.322 -1.8466 -0.6260 -2.3573
10996SOL    HW236391   6.509   3.855   6.416 -1.2558 -2.3658  0.0707
10997SOL     OW36392   3.624   1.531   8.376  0.3257  0.4383 -0.3046
10997SOL    HW136393   3.674   1.612   8.370 -1.2636  1.4163 -1.2830
10997SOL    HW236394   3.537   1.558   8.405 -0.6295 -0.7087 -1.9119
10998SOL     OW36395   8.108   3.376   5.746  0.2927  0.2087 -0.4080
10998SOL    HW136396   8.150   3.424   5.675  1.7060  1.4736  1.1957
10998SOL    HW236397   8.146   3.288   5.742 -0.0947  0.0785 -1.5552
10999SOL     OW36398   7.008   1.630   0.642  0.2772 -0.2056  0.0444
10999SOL    HW136399   6.919   1.629   0.609  0.1447 -3.4727  0.1302
10999SOL    HW236400   6.999   1.636   0.737  0.1297 -0.4774  0.0491
11000SOL     OW36401   2.035   8.153   5.174 -0.6278 -0.4222 -0.2457
11000SOL    HW136402   2.111   8.103   5.144  0.9123  0.4374  1.9447
11000SOL    HW236403   2.052   8.169   5.267 -1.8147  2.7867 -0.4659
11001SOL     OW36404   3.011   1.439   6.841 -0.1255  0.1632 -0.0975
11001SOL    HW136405   2.954   1.381   6.892  2.0885 -0.8622  1.3940
11001SOL    HW236406   3.015   1.399   6.755 -1.0486 -0.1512 -0.0092
11002SOL     OW36407   6.629   7.389  10.455 -0.2405  0.7008 -0.1685
11002SOL    HW136408   6.670   7.318  10.406  0.5965  0.6155  0.6189
11002SOL    HW236409   6.544   7.353  10.483  0.0099  0.1418 -0.1059
11003SOL     OW36410   4.698  10.255   2.329 -0.0998 -0.5008 -0.3443
11003SOL    HW136411   4.627  10.200   2.295 -0.4779 -1.0230  1.2029
11003SOL    HW236412   4.673  10.344   2.304 -1.6059 -0.6141  0.6086
11004SOL     OW36413   1.809   4.237   9.910  0.6066  0.9827 -1.1285
11004SOL    HW136414   1.874   4.262   9.976  0.3260  0.4836 -0.6565
11004SOL    HW236415   1.755   4.315   9.900 -0.3021  0.5931  0.3774
11005SOL     OW36416   9.123   4.459  10.661 -0.1433  0.0825  0.1237
11005SOL    HW136417   9.070   4.489  10.734 -0.3641 -0.6796  0.2841
11005SOL    HW236418   9.113   4.364  10.661 -1.3879  0.1657 -1.8487
11006SOL     OW36419   9.475   6.587   2.533 -0.0868 -0.6859 -0.4835
11006SOL    HW136420   9.491   6.675   2.501  0.3153 -1.2090 -1.7893
11006SOL    HW236421   9.561   6.544   2.533 -0.3607 -1.2542 -0.4406
11007SOL     OW36422   4.910   1.228   8.222  0.4493  0.7752 -0.0663
11007SOL    HW136423   4.981   1.267   8.172  0.8997 -1.4790 -1.2825
11007SOL    HW236424   4.952   1.195   8.302  0.7948 -0.4476 -0.7298
11008SOL     OW36425   6.911   1.297   0.528 -0.8273  0.0264 -0.0291
11008SOL    HW136426   6.862   1.240   0.469 -0.6922  0.9448 -1.0538
11008SOL    HW236427   6.961   1.355   0.470  1.7128 -1.0300  0.9615
11009SOL     OW36428  10.311  10.165   1.745 -0.3471  0.2147  0.0603
11009SOL    HW136429  10.251  10.096   1.772 -0.8862 -0.1630 -1.9088
11009SOL    HW236430  10.255  10.242   1.732 -0.3380  0.0561 -1.0715
11010SOL     OW36431   3.012   6.686   6.813 -0.0792 -0.0413  0.1331
11010SOL    HW136432   2.965   6.609   6.842 -0.1099 -0.2577 -0.4918
11010SOL    HW236433   2.971   6.759   6.861 -2.8437  0.1608 -2.2886
11011SOL     OW36434   6.843   3.278   9.927  0.0849 -0.5618 -0.3868
11011SOL    HW136435   6.892   3.360   9.933  1.4352 -1.4617  3.1374
11011SOL    HW236436   6.758   3.297   9.968 -0.6005 -0.3596 -1.8223
11012SOL     OW36437   4.588   5.310   4.328  0.2713  0.3672  0.2450
11012SOL    HW136438   4.651   5.239   4.314  1.1063  1.3703 -1.3525
11012SOL    HW236439   4.547   5.323   4.243 -2.3842 -0.4406  1.3021
11013SOL     OW36440   1.024   9.391  10.824 -0.5166 -0.1020 -0.3569
11013SOL    HW136441   1.086   9.409  10.894 -0.0870 -1.4527 -0.3690
11013SOL    HW236442   1.058   9.439  10.748  1.1642 -1.7137 -0.6754
11014SOL     OW36443   4.067   1.695   0.648 -0.1223  0.3639 -0.3354
11014SOL    HW136444   4.134   1.650   0.699 -2.2424 -0.3699  1.9930
11014SOL    HW236445   4.067   1.784   0.682  0.3111  0.6355 -1.0300
11015SOL     OW36446   3.159   0.014   9.961 -0.1670 -0.5469 -0.5530
11015SOL    HW136447   3.110   0.077  10.014  1.2684  2.5964 -2.6213
11015SOL    HW236448   3.249   0.020   9.995  0.1340 -0.9147 -1.2611
11016SOL     OW36449   6.835   2.835   1.801 -0.1800  0.0533  0.3631
11016SOL    HW136450   6.924   2.802   1.788 -0.7737 -1.5711  0.2520
11016SOL    HW236451   6.805   2.859   1.713 -0.4439 -0.9951  0.1613
11017SOL     OW36452   4.491   2.529   7.029  0.1118 -0.4705  0.5451
11017SOL    HW136453   4.450   2.539   7.115 -1.4476 -0.6154 -0.1619
11017SOL    HW236454   4.486   2.435   7.011  1.7017 -0.6527  0.8749
11018SOL     OW36455   3.324   4.098   0.612  0.3024 -0.0884  0.6746
11018SOL    HW136456   3.414   4.067   0.608  0.8516  1.4111  0.9848
11018SOL    HW236457   3.312   4.126   0.703 -0.5925 -0.5904  0.7250
11019SOL     OW36458   1.475   6.004   5.777  0.2889 -0.4166 -0.0189
11019SOL    HW136459   1.402   6.040   5.826  0.9459 -0.1518  0.7827
11019SOL    HW236460   1.465   5.909   5.784 -0.1332 -0.3850 -0.1626
11020SOL     OW36461   8.368   6.121   6.730 -0.3213 -0.2111  0.1460
11020SOL    HW136462   8.300   6.086   6.672 -0.2105  0.5850 -0.4859
11020SOL    HW236463   8.358   6.072   6.811 -1.3065 -0.4781 -0.1239
11021SOL     OW36464   5.902   1.110   9.160 -0.0261 -0.1490  0.3987
11021SOL    HW136465   5.845   1.084   9.231 -1.8134  1.9415 -0.1338
11021SOL    HW236466   5.843   1.146   9.094  1.2614 -3.8320 -3.1935
11022SOL     OW36467   8.162   0.062  10.729  0.1959  0.2159 -0.5052
11022SOL    HW136468   8.099   0.084  10.797  0.4693  0.9881 -0.4967
11022SOL    HW236469   8.141  -0.028  10.705 -1.2582  0.6299 -0.8895
11023SOL     OW36470   5.266   5.424   6.423  0.6974  0.2537 -0.2595
11023SOL    HW136471   5.331   5.392   6.361  2.1856  0.8202  0.9466
11023SOL    HW236472   5.214   5.347   6.446  1.3125 -0.3301 -0.7905
11024SOL     OW36473   2.457   2.467   6.390  0.2479 -0.2259  0.2022
11024SOL    HW136474   2.426   2.394   6.337  1.1651 -0.1279 -0.5053
11024SOL    HW236475   2.452   2.543   6.331  1.9061 -0.2345  0.0010
11025SOL     OW36476   3.339   4.305   2.845  0.3014  0.2041  0.1338
11025SOL    HW136477   3.385   4.389   2.849  1.7853 -0.5547 -0.3284
11025SOL    HW236478   3.333   4.277   2.936  1.8007 -0.2092  0.1310
11026SOL     OW36479   0.681   7.339   0.758 -0.0020 -0.4802  0.2101
11026SOL    HW136480   0.602   7.379   0.720  2.0170  1.5454 -2.2277
11026SOL    HW236481   0.690   7.381   0.844 -0.4930  0.7955 -0.3346
11027SOL     OW36482   0.359   2.300   4.278 -0.5019 -0.2461  0.4338
11027SOL    HW136483   0.372   2.209   4.252 -1.3235 -0.6259  1.3154
11027SOL    HW236484   0.368   2.300   4.373  1.2732  0.9183  0.3236
11028SOL     OW36485   3.954   0.400   2.950 -0.7224 -0.1740 -0.4173
11028SOL    HW136486   3.947   0.420   3.043 -1.6851 -1.8129 -0.0910
11028SOL    HW236487   3.864   0.408   2.917 -0.4750 -0.1084 -1.0823
11029SOL     OW36488   2.350   1.159   7.592 -0.1514 -0.3924 -0.0978
11029SOL    HW136489   2.347   1.183   7.499  0.6929  0.4316  0.0799
11029SOL    HW236490   2.375   1.239   7.637 -3.0110 -0.0681  1.1431
11030SOL     OW36491   6.760   9.641   5.149  0.0572  0.1308  0.4606
11030SOL    HW136492   6.737   9.564   5.097  1.2650 -0.1340  0.2943
11030SOL    HW236493   6.747   9.614   5.239 -1.0030  0.2448  0.3579
11031SOL     OW36494   6.264   4.365   4.053  0.4682 -0.7242 -0.0442
11031SOL    HW136495   6.256   4.327   4.140  1.6712 -0.8139  0.0466
11031SOL    HW236496   6.191   4.327   4.003 -0.9246  0.2104  1.2099
11032SOL     OW36497   9.162   5.327   1.096 -0.5935 -0.2372  0.1744
11032SOL    HW136498   9.117   5.398   1.051 -1.9658 -1.6518 -0.8107
11032SOL    HW236499   9.091   5.274   1.133 -0.0494 -3.4955 -2.8458
11033SOL     OW36500   5.996   8.615   4.409 -0.0036 -0.2555 -0.0089
11033SOL    HW136501   5.917   8.631   4.460  1.1065  0.2880  1.5984
11033SOL    HW236502   5.990   8.523   4.382 -1.7540  0.1105 -1.0066
11034SOL     OW36503   0.515   5.293   7.855  0.1310 -0.0520 -0.0591
11034SOL    HW136504   0.570   5.272   7.930 -0.5416 -0.6468  0.2830
11034SOL    HW236505   0.542   5.230   7.788  0.8594  0.5989 -0.3914
11035SOL     OW36506   0.249   3.632   6.779  0.3141 -0.2917  0.1419
11035SOL    HW136507   0.196   3.564   6.821 -0.2969  0.5296  0.7232
11035SOL    HW236508   0.192   3.667   6.710 -1.1067  2.5133  2.5102
11036SOL     OW36509   6.760  10.409  10.670  0.2717 -0.0832  0.3833
11036SOL    HW136510   6.755  10.451  10.585 -0.7300 -1.3536 -0.2249
11036SOL    HW236511   6.685  10.444  10.719  0.8866  0.6986  0.7849
11037SOL     OW36512   0.343   9.998   4.081  0.1952 -0.6288  0.4746
11037SOL    HW136513   0.430   9.998   4.122  0.8064 -3.3637 -0.6089
11037SOL    HW236514   0.308   9.911   4.099 -1.1232 -0.5654 -1.4938
11038SOL     OW36515   3.877   0.422   4.916  0.3374 -0.3342  0.0235
11038SOL    HW136516   3.952   0.477   4.894 -1.1106  1.5099 -0.6653
11038SOL    HW236517   3.911   0.356   4.976  2.2789  1.0469  0.5241
11039SOL     OW36518   0.923  10.088   5.496  0.1538 -0.7253 -0.2995
11039SOL    HW136519   0.989  10.131   5.551  0.1609 -0.6645 -0.3539
11039SOL    HW236520   0.847  10.078   5.553  0.0944 -0.4864 -0.3323
11040SOL     OW36521   3.922   7.034   2.189  0.1603 -0.2928 -0.0047
11040SOL    HW136522   3.874   6.959   2.225 -0.2428 -0.4228 -0.7678
11040SOL    HW236523   3.987   7.056   2.256  0.4657 -1.4946  0.1323
11041SOL     OW36524   2.661   9.407   0.653  0.2160 -0.2198 -0.3087
11041SOL    HW136525   2.578   9.412   0.606  0.2707 -0.6387 -0.4539
11041SOL    HW236526   2.727   9.395   0.584  0.1631 -2.3133 -0.0726
11042SOL     OW36527   7.209   3.662  10.059  0.5059 -0.1797 -0.6548
11042SOL    HW136528   7.282   3.651  10.119 -0.6371 -0.2134  0.7744
11042SOL    HW236529   7.138   3.698  10.113 -0.2790  0.6775 -2.1796
11043SOL     OW36530   9.678   8.453   9.399 -0.0098 -0.1739 -0.3506
11043SOL    HW136531   9.720   8.519   9.454 -0.6107  0.6165 -0.8121
11043SOL    HW236532   9.640   8.391   9.460  2.7896 -1.5927  0.0974
11044SOL     OW36533   5.913   1.787   1.831  0.2781 -0.3716 -0.0508
11044SOL    HW136534   5.947   1.834   1.755  1.0743 -1.5057 -0.4237
11044SOL    HW236535   5.833   1.745   1.800 -1.3486  1.9372  0.7087
11045SOL     OW36536   8.020   6.049   0.565 -0.1964 -0.4684  0.2030
11045SOL    HW136537   7.939   6.000   0.583 -0.0231 -0.5004  0.9257
11045SOL    HW236538   8.071   5.990   0.509 -1.0173 -0.1063 -0.9806
11046SOL     OW36539   7.670   6.286   5.777  0.2770 -0.7989  0.3020
11046SOL    HW136540   7.647   6.312   5.688  0.6002 -1.4317  0.0311
11046SOL    HW236541   7.702   6.367   5.818 -2.0568  0.0503  0.6012
11047SOL     OW36542   0.195   7.681   4.783  0.6983 -0.1258 -0.3849
11047SOL    HW136543   0.154   7.617   4.841 -2.0775  1.0651 -0.8535
11047SOL    HW236544   0.239   7.742   4.842 -0.6209  0.1105  0.4021
11048SOL     OW36545   9.657   8.950   0.634 -0.5614 -0.2944  0.4498
11048SOL    HW136546   9.631   9.012   0.565 -0.5224 -0.4757  0.2711
11048SOL    HW236547   9.626   8.865   0.602 -0.2313 -0.4295  0.4953
11049SOL     OW36548   4.718   5.196   1.853 -0.4488 -0.2543 -0.0107
11049SOL    HW136549   4.810   5.199   1.828 -0.6638  0.5216 -0.7525
11049SOL    HW236550   4.710   5.116   1.905  0.5097 -0.6508 -0.4464
11050SOL     OW36551   9.156   5.286   3.740 -0.9660  0.1037 -0.0051
11050SOL    HW136552   9.134   5.214   3.799 -0.2565 -0.2156 -0.1286
11050SOL    HW236553   9.211   5.344   3.792 -0.0851 -0.3324 -0.4355
11051SOL     OW36554   2.832  10.696   8.887  0.4411 -0.3842 -0.2997
11051SOL    HW136555   2.761  10.646   8.847  1.0850 -0.7472 -1.0180
11051SOL    HW236556   2.893  10.713   8.815  0.7327  0.5519  0.1564
11052SOL     OW36557   6.005   5.452  10.102  0.3100 -0.6156 -0.4880
11052SOL    HW136558   5.963   5.421  10.183  1.4002  0.9867  0.7409
11052SOL    HW236559   5.950   5.524  10.072 -0.3937 -1.5393 -1.5394
11053SOL     OW36560   2.284   5.547  10.728 -0.6548  0.0808  0.3499
11053SOL    HW136561   2.227   5.479  10.690 -0.5082  0.7380 -1.0995
11053SOL    HW236562   2.358   5.498  10.764 -0.6234 -0.5560 -0.5342
11054SOL     OW36563   4.857   3.387   0.615 -0.0637 -0.4799  0.1877
11054SOL    HW136564   4.847   3.293   0.600  1.0975 -0.4533 -0.9693
11054SOL    HW236565   4.768   3.419   0.626 -0.3873 -2.0172  2.8320
11055SOL     OW36566   2.463   3.470   5.420 -0.1026 -0.5346  0.3620
11055SOL    HW136567   2.555   3.454   5.401  0.4162 -0.1002  2.2487
11055SOL    HW236568   2.449   3.562   5.396 -0.3368 -0.8649 -0.8394
11056SOL     OW36569   9.046   6.539   7.062  0.5385 -0.4155  0.3812
11056SOL    HW136570   9.112   6.489   7.014  1.4799  0.8461  0.3250
11056SOL    HW236571   9.084   6.626   7.074 -0.6208 -0.0063  1.4070
11057SOL     OW36572   7.895   5.296   5.744 -0.0771 -0.2185 -0.1301
11057SOL    HW136573   7.827   5.251   5.795  0.5765 -0.7876  0.2572
11057SOL    HW236574   7.922   5.232   5.678  0.4253 -0.1728  0.0311
11058SOL     OW36575  10.800  10.603   2.854 -0.4942  0.1699  0.1087
11058SOL    HW136576  10.762  10.690   2.865 -1.4822  0.1126 -2.2563
11058SOL    HW236577  10.884  10.618   2.811 -0.4503 -0.0084  0.1314
11059SOL     OW36578   1.065   6.305   4.181  0.4478 -0.5472  0.3699
11059SOL    HW136579   1.054   6.327   4.273 -0.8336 -0.0148  0.1018
11059SOL    HW236580   1.076   6.389   4.137  2.1000 -0.8491  0.1367
11060SOL     OW36581   6.602   1.839   1.860 -0.1669 -0.4001  0.8155
11060SOL    HW136582   6.602   1.853   1.765  0.0583 -3.4351  0.2399
11060SOL    HW236583   6.592   1.926   1.898 -0.0881  0.9353 -1.9822
11061SOL     OW36584   9.904   5.101   4.147  0.5723  0.3567 -0.3037
11061SOL    HW136585   9.882   5.026   4.201 -0.0576  0.3309 -0.5827
11061SOL    HW236586   9.999   5.105   4.147  0.5860  0.0192  0.3384
11062SOL     OW36587   0.058   5.805   3.600 -0.5190 -0.2155  0.2266
11062SOL    HW136588   0.035   5.728   3.651 -0.3910  0.2064  0.9344
11062SOL    HW236589   0.016   5.878   3.645 -0.1265  0.2081 -0.0753
11063SOL     OW36590   1.041   8.074   5.443  0.2997 -0.2820 -0.0648
11063SOL    HW136591   0.948   8.096   5.457  0.8301  2.0414  0.2634
11063SOL    HW236592   1.074   8.052   5.530  0.3427  0.2070  0.0471
11064SOL     OW36593   7.934   5.972   4.695 -0.0252  0.6845 -0.1351
11064SOL    HW136594   7.949   6.023   4.616  1.7036 -0.2182 -0.4248
11064SOL    HW236595   7.851   6.005   4.729 -1.4573  0.3145 -2.9511
11065SOL     OW36596   0.039   3.396   7.000  0.1753  0.1326 -0.2891
11065SOL    HW136597   0.000   3.397   6.913  0.3671  1.3102 -0.3820
11065SOL    HW236598   0.074   3.308   7.010  2.3333  0.6464 -2.3842
11066SOL     OW36599   9.262  10.413  10.614 -0.2064 -0.4281  0.0993
11066SOL    HW136600   9.295  10.467  10.541  0.4461 -0.8320  0.0915
11066SOL    HW236601   9.172  10.391  10.588 -0.4152  0.4839  0.0102
11067SOL     OW36602   3.300   6.953   3.820  0.3590 -0.8847  0.0679
11067SOL    HW136603   3.353   7.032   3.830 -0.1324 -0.6165  0.5634
11067SOL    HW236604   3.320   6.922   3.732 -2.2346  1.8327 -1.6717
11068SOL     OW36605   1.907   9.585   9.112 -0.0184  0.7033 -0.0409
11068SOL    HW136606   1.901   9.489   9.117  1.7393  0.5599 -0.0365
11068SOL    HW236607   1.938   9.612   9.198 -0.3842  1.2835 -0.0838
11069SOL     OW36608   5.984   6.962   3.011  0.1513  0.1000 -0.7932
11069SOL    HW136609   6.056   7.025   3.020 -0.5607  1.0253 -1.3254
11069SOL    HW236610   5.988   6.908   3.090  2.1625 -0.6636 -1.3700
11070SOL     OW36611   7.471   7.581   4.705 -0.1707  0.2319  0.0090
11070SOL    HW136612   7.533   7.635   4.657 -0.0853 -1.6673 -2.2254
11070SOL    HW236613   7.388   7.629   4.699  0.4223  1.3334  0.3718
11071SOL     OW36614   2.205   8.333   2.533  0.0672  0.1138  0.3629
11071SOL    HW136615   2.216   8.356   2.441  1.7700 -2.2248 -0.1030
11071SOL    HW236616   2.293   8.312   2.564 -0.7118 -1.0943  1.9660
11072SOL     OW36617   9.620   6.881   9.079 -0.5810 -0.0948  0.2286
11072SOL    HW136618   9.585   6.897   8.991 -1.2509 -0.4723  0.4202
11072SOL    HW236619   9.578   6.800   9.107  0.9164 -0.8943  0.2436
11073SOL     OW36620   8.086   5.682   7.715 -0.2281  0.0230 -0.3424
11073SOL    HW136621   8.151   5.717   7.654  0.0915  0.9822  0.5217
11073SOL    HW236622   8.134   5.671   7.797 -0.9025 -0.2542  0.0197
11074SOL     OW36623   8.561   8.230   1.732  0.1356 -0.3001  0.3218
11074SOL    HW136624   8.565   8.161   1.666 -2.2502 -0.3842  0.1615
11074SOL    HW236625   8.520   8.188   1.808 -1.0424  0.8037  0.3362
11075SOL     OW36626   7.563   4.936   1.069  0.1599  0.3591 -0.3984
11075SOL    HW136627   7.559   4.880   1.146  1.2982  0.8986  0.0796
11075SOL    HW236628   7.557   5.025   1.105  3.5743  0.7851 -0.5611
11076SOL     OW36629   7.179   8.188   2.529  0.5876 -0.3602  0.3704
11076SOL    HW136630   7.110   8.192   2.463  0.3822  1.0480  0.6442
11076SOL    HW236631   7.177   8.097   2.560  1.0261 -1.2126 -1.8832
11077SOL     OW36632   8.895   3.852   9.517  0.0434 -0.1437 -0.2061
11077SOL    HW136633   8.864   3.833   9.605  0.4776 -1.9611 -0.4030
11077SOL    HW236634   8.971   3.908   9.530 -0.3680  0.2586  0.5208
11078SOL     OW36635   0.826   5.986   7.567 -0.0042 -0.1185 -0.1323
11078SOL    HW136636   0.909   5.971   7.521  0.7733 -1.6895  1.6557
11078SOL    HW236637   0.775   5.907   7.549  0.9805 -1.6253  2.8858
11079SOL     OW36638   3.214   9.842   0.738  0.0113  0.2958  0.1268
11079SOL    HW136639   3.119   9.854   0.737  0.0679  0.8076  0.4727
11079SOL    HW236640   3.249   9.930   0.753  0.5765  0.2876 -1.0099
11080SOL     OW36641   5.087   8.262  10.132 -0.1080 -0.6761  0.1731
11080SOL    HW136642   4.993   8.246  10.137 -0.2115  0.2903  2.9306
11080SOL    HW236643   5.127   8.176  10.149 -0.5130 -0.8035  0.4904
11081SOL     OW36644   2.765   1.526   9.646  0.1339  0.4348  0.0631
11081SOL    HW136645   2.685   1.568   9.616 -0.4967 -0.4513  0.4729
11081SOL    HW236646   2.760   1.530   9.742 -0.2500 -1.0906  0.1379
11082SOL     OW36647   4.014   6.805   3.105  0.3618  0.4819  0.1437
11082SOL    HW136648   3.977   6.848   3.028  1.2589 -0.3272 -0.7750
11082SOL    HW236649   4.105   6.788   3.081 -0.1266 -2.6069  0.1305
11083SOL     OW36650   6.357   5.861   8.422 -0.5305  0.1942  0.3715
11083SOL    HW136651   6.266   5.892   8.425 -0.0106  1.9224 -0.4436
11083SOL    HW236652   6.407   5.932   8.463  0.7070  0.4643 -1.5064
11084SOL     OW36653   8.301   3.744   9.776  0.4568 -0.1643  0.5076
11084SOL    HW136654   8.329   3.743   9.684  0.6205 -1.4164  0.5634
11084SOL    HW236655   8.239   3.672   9.784  1.5800 -1.0501  1.7170
11085SOL     OW36656   7.649   9.594   2.985 -0.1184  0.2655  0.0675
11085SOL    HW136657   7.587   9.631   3.048  1.2885  1.4393  0.8318
11085SOL    HW236658   7.735   9.618   3.019  0.8268 -1.8766 -0.5866
11086SOL     OW36659   8.853   0.257   8.119  0.5594 -0.5006 -0.0007
11086SOL    HW136660   8.771   0.213   8.141  0.3008  1.0213  2.3258
11086SOL    HW236661   8.865   0.239   8.025 -3.1208  0.3738 -0.7793
11087SOL     OW36662   0.813   6.076   7.841  0.0555 -0.2872  0.5464
11087SOL    HW136663   0.799   6.023   7.763 -1.6990 -0.2055  0.7640
11087SOL    HW236664   0.859   6.154   7.810 -2.0303  0.5132 -0.7233
11088SOL     OW36665  10.473   6.341   0.869  0.5296 -0.0046  0.0445
11088SOL    HW136666  10.535   6.269   0.873  1.2761  0.5016 -1.4590
11088SOL    HW236667  10.388   6.299   0.857  0.8091 -0.6573  0.2982
11089SOL     OW36668   7.657   9.491   7.613  0.2624 -0.0937 -0.1528
11089SOL    HW136669   7.696   9.413   7.655 -1.9383 -0.8791  0.5922
11089SOL    HW236670   7.644   9.552   7.685  0.6025  0.3819 -0.4908
11090SOL     OW36671   2.798   4.688   2.161  0.0958  0.4194 -0.3653
11090SOL    HW136672   2.879   4.663   2.117  1.4084  1.8886  1.0877
11090SOL    HW236673   2.784   4.779   2.135 -1.8907 -0.1931 -1.6764
11091SOL     OW36674   8.058   7.103  10.530  0.0806 -0.3941  0.1641
11091SOL    HW136675   7.994   7.171  10.549  0.3232 -0.3925  1.0019
11091SOL    HW236676   8.012   7.021  10.547  0.5298 -0.3810  1.6013
11092SOL     OW36677   0.538   5.077   5.709 -0.3675  0.3404 -0.1079
11092SOL    HW136678   0.471   5.145   5.712 -1.0056 -0.2612 -0.2880
11092SOL    HW236679   0.527   5.029   5.791  0.5516  0.8821  0.3435
11093SOL     OW36680  10.590   7.275   0.348 -0.4786 -0.1885 -0.1992
11093SOL    HW136681  10.589   7.366   0.379 -2.8308  0.3149 -1.4740
11093SOL    HW236682  10.510   7.237   0.383 -0.2781 -1.3158 -0.9121
11094SOL     OW36683   3.328   4.669   1.326  0.1434  0.0736  0.0102
11094SOL    HW136684   3.387   4.610   1.373 -1.0358 -0.3336  1.0581
11094SOL    HW236685   3.297   4.730   1.393  1.8441  2.3876 -1.1855
11095SOL     OW36686   1.944   6.057   4.096  0.1309  0.3504 -0.1002
11095SOL    HW136687   2.002   6.048   4.172 -1.3223 -0.5730  0.9538
11095SOL    HW236688   1.974   6.136   4.052  3.0417 -0.7966 -0.3875
11096SOL     OW36689   9.463   9.908   0.138 -0.3774 -0.3072  0.1566
11096SOL    HW136690   9.486   9.911   0.045  0.5409 -0.8054  0.3537
11096SOL    HW236691   9.370   9.887   0.139 -0.3506 -0.5060 -0.6567
11097SOL     OW36692   9.924   6.517  10.684 -0.1368 -0.0684  0.2348
11097SOL    HW136693   9.992   6.526  10.618  0.1411  0.8842  0.6263
11097SOL    HW236694   9.946   6.583  10.750 -1.1009 -0.1552  0.6609
11098SOL     OW36695   5.050   1.271   7.980  0.0349  0.2567 -0.3000
11098SOL    HW136696   5.064   1.282   7.886 -0.8613 -0.3668 -0.5191
11098SOL    HW236697   5.019   1.181   7.989  0.9190  0.0393  0.6951
11099SOL     OW36698   2.195   8.762  10.547  0.0807 -0.5826 -0.0818
11099SOL    HW136699   2.185   8.843  10.598  0.3301 -1.0921  0.7973
11099SOL    HW236700   2.125   8.705  10.578  0.3204 -0.9459 -0.1984
11100SOL     OW36701   5.165   3.148   7.454 -0.1625  0.2078  0.2781
11100SOL    HW136702   5.216   3.161   7.534 -2.4867  1.4557  1.6505
11100SOL    HW236703   5.158   3.236   7.416 -2.6412  0.4324  1.0663
11101SOL     OW36704   5.105   4.931   7.680 -0.0260  0.4154 -0.1081
11101SOL    HW136705   5.071   4.851   7.720  1.2962 -0.4008 -0.5228
11101SOL    HW236706   5.122   4.906   7.589 -2.1657  1.9832 -1.0186
11102SOL     OW36707   0.298   8.532   5.971 -0.3063  0.5337  0.3025
11102SOL    HW136708   0.357   8.579   6.030  1.4053 -1.8169  0.5973
11102SOL    HW236709   0.343   8.531   5.887 -0.2622 -0.6336  0.3301
11103SOL     OW36710   8.254   3.234   0.989 -0.0209 -0.1195  0.1397
11103SOL    HW136711   8.226   3.290   1.061 -2.2343 -1.5143  0.4720
11103SOL    HW236712   8.317   3.174   1.029  0.0383  0.1788  0.5018
11104SOL     OW36713   2.323   1.841   9.244  0.1031  0.5588  0.1885
11104SOL    HW136714   2.282   1.787   9.177 -0.0549  0.6510  0.2094
11104SOL    HW236715   2.249   1.876   9.294  0.2218  0.4256  0.4589
11105SOL     OW36716   8.389  10.769  10.569 -0.7596  0.3410 -0.1974
11105SOL    HW136717   8.465  10.808  10.526  0.2403 -0.0663  1.1573
11105SOL    HW236718   8.365  10.831  10.637 -1.3554  0.2384 -0.3081
11106SOL     OW36719   4.082   9.108   8.318  0.2760 -0.8260 -0.6175
11106SOL    HW136720   4.061   9.119   8.410 -1.4014 -0.2668 -1.0295
11106SOL    HW236721   4.177   9.124   8.313 -0.0785  2.5139  0.5604
11107SOL     OW36722   5.943   6.091   3.524  0.0133 -0.1310 -0.8035
11107SOL    HW136723   5.932   6.181   3.553  0.5581 -0.7414  1.4272
11107SOL    HW236724   5.872   6.077   3.461 -0.0039  1.8632 -1.2668
11108SOL     OW36725   0.965   8.211   8.846  0.1442  0.4147  0.3266
11108SOL    HW136726   0.991   8.198   8.937  0.7415 -2.4053 -0.1644
11108SOL    HW236727   1.047   8.225   8.799 -0.0563  0.6385  0.0345
11109SOL     OW36728   8.555   6.504   1.265  0.1029  0.3341  0.4370
11109SOL    HW136729   8.487   6.571   1.265 -0.4047 -0.1478 -0.8563
11109SOL    HW236730   8.508   6.422   1.250  1.0193  0.0999 -1.5180
11110SOL     OW36731   0.003   1.457   9.833  0.0923 -0.6295 -0.2030
11110SOL    HW136732   0.022   1.539   9.878  0.2816 -0.3512 -0.7775
11110SOL    HW236733   0.031   1.389   9.894 -1.2359 -0.3081  0.8161
11111SOL     OW36734   5.695   1.895   1.560  0.2977 -0.1492 -0.5298
11111SOL    HW136735   5.606   1.912   1.591  0.6132  2.1556 -0.7344
11111SOL    HW236736   5.714   1.806   1.590 -1.7839 -0.4170  0.1620
11112SOL     OW36737   3.960   3.698  10.827 -0.1401  0.2800 -0.0949
11112SOL    HW136738   3.869   3.674  10.817 -0.0865  0.5127 -1.2173
11112SOL    HW236739   3.977   3.761  10.757  1.1434 -0.5021 -0.5168
11113SOL     OW36740   1.499   8.467   9.536  0.1696 -0.1048  0.2141
11113SOL    HW136741   1.593   8.465   9.550 -0.1777 -0.1849  3.1584
11113SOL    HW236742   1.468   8.538   9.593 -1.7295 -1.5273  1.0715
11114SOL     OW36743   2.005   7.296  10.415  0.1072  0.8269  0.4160
11114SOL    HW136744   1.981   7.310  10.323 -0.4214  0.8611  0.5587
11114SOL    HW236745   1.937   7.341  10.465  0.9854  1.7391  0.8170
11115SOL     OW36746   0.224   2.116   5.792  0.1953 -0.0550 -0.2541
11115SOL    HW136747   0.225   2.022   5.774  0.4925 -0.3847  1.3265
11115SOL    HW236748   0.315   2.143   5.780  0.7441 -0.6057  2.1270
11116SOL     OW36749   4.280   6.699   6.459  0.3303  0.0202 -0.0972
11116SOL    HW136750   4.199   6.745   6.437 -0.1159 -1.0942 -0.9050
11116SOL    HW236751   4.275   6.684   6.553 -1.0530 -1.1953 -0.3320
11117SOL     OW36752  10.652   5.153   3.555 -0.2291 -0.1659  0.6998
11117SOL    HW136753  10.719   5.221   3.555  0.2350 -0.4783 -2.0769
11117SOL    HW236754  10.620   5.149   3.645  2.5722  0.8817  1.8355
11118SOL     OW36755   5.960   3.570   4.937 -0.3570 -0.5960  0.3423
11118SOL    HW136756   5.945   3.662   4.957 -3.6182 -1.2790  1.6870
11118SOL    HW236757   6.054   3.557   4.952  0.1516  2.4092  0.3309
11119SOL     OW36758   5.152   3.351  10.785 -0.1857 -0.0581 -0.0316
11119SOL    HW136759   5.133   3.431  10.737  0.3799  0.5932  0.8136
11119SOL    HW236760   5.080   3.343  10.848  0.0129  0.0457  0.2090
11120SOL     OW36761   1.617   4.700   7.681 -1.0532 -0.3402  0.7014
11120SOL    HW136762   1.580   4.785   7.657 -0.6259 -0.3821 -0.1564
11120SOL    HW236763   1.644   4.661   7.598 -0.3546 -0.8996  1.1726
11121SOL     OW36764   5.599   8.267   3.047 -0.1255  0.6940  0.3476
11121SOL    HW136765   5.616   8.196   3.109  1.0282  0.3215 -0.3558
11121SOL    HW236766   5.545   8.227   2.979 -1.5416  1.1479  1.1611
11122SOL     OW36767   1.446   3.620   4.179 -0.1175  0.2950 -0.5846
11122SOL    HW136768   1.372   3.561   4.191 -0.9242  1.5134  0.8213
11122SOL    HW236769   1.516   3.565   4.144 -0.8719 -1.4502  0.5263
11123SOL     OW36770   8.419   6.461   3.997  0.0709  0.1242  0.0959
11123SOL    HW136771   8.433   6.447   4.091  0.7134  1.4715  0.2257
11123SOL    HW236772   8.329   6.494   3.991 -0.2373 -0.6828  0.1449
11124SOL     OW36773   0.870   5.747   5.546  0.4394 -0.0162  0.1115
11124SOL    HW136774   0.825   5.737   5.630 -0.3825  1.2132 -0.1517
11124SOL    HW236775   0.958   5.777   5.569  0.5132 -0.5676  0.5656
11125SOL     OW36776  10.566   1.315   7.793  0.0181 -0.5874  0.4566
11125SOL    HW136777  10.560   1.220   7.805  1.6118 -0.8525 -0.5690
11125SOL    HW236778  10.591   1.326   7.701 -1.2816  0.9004  0.2352
11126SOL     OW36779  10.688  10.091  10.803 -0.1753  0.1699 -0.5132
11126SOL    HW136780  10.604  10.047  10.819  0.4472 -1.2757 -1.0812
11126SOL    HW236781  10.664  10.180  10.779 -1.4846  0.1510  0.6298
11127SOL     OW36782   9.972   1.080   2.647 -0.1638  0.0496 -0.5524
11127SOL    HW136783   9.942   0.992   2.674 -0.7111 -0.0389 -1.4246
11127SOL    HW236784   9.892   1.126   2.623 -0.0813  1.3798  1.4913
11128SOL     OW36785   9.813   0.319   8.920  0.2578  0.1704  0.0745
11128SOL    HW136786   9.857   0.294   8.838  0.7270 -0.2184  0.4350
11128SOL    HW236787   9.853   0.403   8.942 -1.1159  1.1489 -0.9918
11129SOL     OW36788   5.024   4.763   5.892  0.3243  0.5284  0.3814
11129SOL    HW136789   5.112   4.760   5.929  1.2501 -0.9735 -1.7208
11129SOL    HW236790   4.995   4.853   5.904  1.2634  0.5580  2.9786
11130SOL     OW36791   0.154   2.050   0.259 -0.5198  0.0951 -0.2785
11130SOL    HW136792   0.066   2.086   0.248 -0.9651 -1.2406 -1.3550
11130SOL    HW236793   0.212   2.114   0.219 -1.0205  0.8781  0.2365
11131SOL     OW36794   7.556   1.275   5.171  0.1024  0.5414  0.3147
11131SOL    HW136795   7.521   1.190   5.142 -1.6839  0.7145  1.7863
11131SOL    HW236796   7.489   1.338   5.146  0.0624  1.1114  1.7649
11132SOL     OW36797   4.284   7.384   0.347 -0.3222  1.1460  0.1959
11132SOL    HW136798   4.366   7.363   0.392 -0.9147  1.5506  1.5136
11132SOL    HW236799   4.244   7.298   0.330  0.4722  0.9340 -0.6821
11133SOL     OW36800   4.753   9.643   6.068  0.1590 -0.0460 -0.4571
11133SOL    HW136801   4.776   9.735   6.061  1.4208 -0.2691  0.2713
11133SOL    HW236802   4.834   9.601   6.097 -0.2556 -1.4593 -1.2632
11134SOL     OW36803   0.435   9.814   1.865  0.4946 -0.2097 -0.2609
11134SOL    HW136804   0.495   9.770   1.926  0.3995 -1.8997 -1.3179
11134SOL    HW236805   0.470   9.903   1.857  1.5198 -0.4714  0.8797
11135SOL     OW36806  10.838   0.188   6.740 -1.1268  0.5871  0.2399
11135SOL    HW136807  10.919   0.147   6.711 -0.8864  1.5959 -0.5861
11135SOL    HW236808  10.836   0.174   6.835  0.3445  1.1018  0.3671
11136SOL     OW36809   7.807   2.742   7.697  0.1530 -0.1054 -0.0696
11136SOL    HW136810   7.778   2.794   7.622 -2.2115 -0.1143  0.7556
11136SOL    HW236811   7.856   2.804   7.752  0.7570  0.2221 -0.9533
11137SOL     OW36812   9.720   7.488   4.358 -0.0834 -0.3462  0.3399
11137SOL    HW136813   9.730   7.558   4.294 -0.1965 -1.5583 -1.0506
11137SOL    HW236814   9.625   7.474   4.363 -0.5148  2.2597  3.6848
11138SOL     OW36815  10.248   8.833  10.021 -0.4748 -0.1490  0.3183
11138SOL    HW136816  10.284   8.895   9.958  1.4295  0.0614  1.5384
11138SOL    HW236817  10.317   8.769  10.035 -0.2830  0.5149  3.0936
11139SOL     OW36818   4.029   5.639   4.135 -0.0789 -0.0147 -0.4034
11139SOL    HW136819   3.961   5.572   4.137  0.5983 -0.7354 -0.6639
11139SOL    HW236820   4.065   5.635   4.046  0.5961  0.0343 -0.1436
11140SOL     OW36821   8.518   5.469   7.182  0.1418 -0.3476  0.1177
11140SOL    HW136822   8.509   5.388   7.231 -0.8588  0.3260  1.0887
11140SOL    HW236823   8.601   5.459   7.134  0.7712 -1.3309  1.3483
11141SOL     OW36824   4.523   5.683   9.405 -0.3783 -0.2000 -0.5011
11141SOL    HW136825   4.590   5.694   9.473 -1.3246 -0.5574  0.5303
11141SOL    HW236826   4.513   5.588   9.396 -1.3681 -0.1657  0.0216
11142SOL     OW36827   1.991   4.942   0.036 -0.0011 -0.0254  0.0060
11142SOL    HW136828   2.048   4.898  -0.027 -0.0097  0.7969 -0.5917
11142SOL    HW236829   1.904   4.939  -0.004  0.1542  1.3061 -0.4654
11143SOL     OW36830   6.118   3.253   4.672 -0.1343 -0.2344  0.0563
11143SOL    HW136831   6.033   3.294   4.684 -0.5214 -0.7051 -0.9089
11143SOL    HW236832   6.174   3.293   4.738 -1.3801 -0.7517  1.4707
11144SOL     OW36833   7.491   0.914   6.452  0.0291 -0.4464  0.0235
11144SOL    HW136834   7.483   1.003   6.486  2.7676 -0.4388  0.9310
11144SOL    HW236835   7.495   0.924   6.357 -0.0235  0.3586  0.1006
11145SOL     OW36836   8.932   9.178  10.405  0.2688 -0.4190  0.1614
11145SOL    HW136837   8.877   9.253  10.383  1.6605  0.4474 -0.4794
11145SOL    HW236838   8.886   9.136  10.478 -2.6430 -1.3278 -1.9767
11146SOL     OW36839   3.185   4.553   5.842 -0.1703  0.3813 -0.0695
11146SOL    HW136840   3.236   4.486   5.798  0.0980  0.5657 -0.0428
11146SOL    HW236841   3.136   4.506   5.910  0.4999  0.3004  0.3654
11147SOL     OW36842   7.563   9.278   3.201 -0.5256 -0.9361  0.9484
11147SOL    HW136843   7.516   9.343   3.254 -0.3400 -0.7900  0.9369
11147SOL    HW236844   7.654   9.285   3.231 -0.3803 -0.7017  0.4561
11148SOL     OW36845   9.186   3.150   0.407 -0.0594  0.4853  0.1222
11148SOL    HW136846   9.219   3.145   0.497  0.4752  0.9818 -0.0424
11148SOL    HW236847   9.142   3.066   0.393 -1.2356  0.8812  1.2541
11149SOL     OW36848   1.624   8.243   5.014 -0.4305  0.0395 -0.2757
11149SOL    HW136849   1.682   8.317   4.995  1.2699 -0.9884  0.6143
11149SOL    HW236850   1.680   8.180   5.060 -1.4817 -2.2908 -1.9653
11150SOL     OW36851   2.851   1.237   1.986  0.5149  0.6085  0.0838
11150SOL    HW136852   2.902   1.280   1.918  0.1539  1.1925  0.1796
11150SOL    HW236853   2.762   1.230   1.950  0.3182  0.9299  0.4848
11151SOL     OW36854   6.543   1.191  10.904  0.3719 -0.4246  0.6681
11151SOL    HW136855   6.637   1.201  10.915  0.3837  0.9679 -0.4570
11151SOL    HW236856   6.505   1.252  10.967  0.2750  0.4968 -0.2624
11152SOL     OW36857   3.978   3.396   4.237  0.0838 -0.2072 -0.0809
11152SOL    HW136858   3.919   3.419   4.309  0.1400 -0.4550  0.0459
11152SOL    HW236859   3.985   3.301   4.242 -2.3081 -0.5984 -2.2638
11153SOL     OW36860   2.659   7.026   8.357  0.2388 -0.9815  0.5936
11153SOL    HW136861   2.726   7.067   8.302  0.2980  0.3467  1.5942
11153SOL    HW236862   2.576   7.057   8.321  0.1641 -2.0018 -0.1632
11154SOL     OW36863   0.209   0.650   9.576  0.7639 -0.0114 -0.1754
11154SOL    HW136864   0.250   0.567   9.597  0.0937 -0.2795  0.1251
11154SOL    HW236865   0.148   0.630   9.504 -0.8156 -0.2160  1.1516
11155SOL     OW36866   3.791   6.796   2.032 -0.2592 -1.0543 -0.3415
11155SOL    HW136867   3.750   6.735   2.092 -0.0956 -1.5987 -0.7806
11155SOL    HW236868   3.867   6.829   2.081 -0.5292 -0.9489  0.0157
11156SOL     OW36869   2.672   7.248   5.242  0.4274 -0.2826  0.3796
11156SOL    HW136870   2.687   7.165   5.288 -1.4166 -1.1974 -0.5449
11156SOL    HW236871   2.612   7.225   5.171  0.3397  1.7569 -0.2694
11157SOL     OW36872   6.159   4.448   7.326  0.5643  0.0378  0.0936
11157SOL    HW136873   6.158   4.524   7.269 -1.3620  0.9348  1.2277
11157SOL    HW236874   6.119   4.378   7.274  1.2411  0.0879 -0.5228
11158SOL     OW36875   2.933   3.052   8.480 -0.0717 -0.1072  0.0891
11158SOL    HW136876   3.003   3.020   8.423 -1.4673  0.8178 -2.2888
11158SOL    HW236877   2.913   2.977   8.536  1.9700 -0.7727  0.0410
11159SOL     OW36878   3.275   2.552   7.022  0.0457 -0.4549 -0.5131
11159SOL    HW136879   3.363   2.515   7.035 -0.4125 -1.3036  0.3041
11159SOL    HW236880   3.291   2.639   6.985  1.4200  1.0391  3.1449
11160SOL     OW36881   2.832   7.065   7.700  0.0384  0.1127  0.1879
11160SOL    HW136882   2.836   7.038   7.608 -0.9244  1.4977 -0.3074
11160SOL    HW236883   2.923   7.067   7.729  0.6005  1.8177 -1.4505
11161SOL     OW36884   4.251   9.395   5.224  0.3624 -0.1769 -0.4834
11161SOL    HW136885   4.288   9.337   5.157  0.5634  0.5623 -1.0237
11161SOL    HW236886   4.171   9.430   5.185 -1.2919 -2.2061  0.8980
11162SOL     OW36887   2.825   2.077  10.132 -0.0184  0.2130 -0.0695
11162SOL    HW136888   2.885   2.033  10.073 -0.2264  0.4393 -0.4534
11162SOL    HW236889   2.851   2.047  10.220  0.7080  0.3748 -0.2205
11163SOL     OW36890   0.859   6.953   9.800  0.2006 -0.0521 -0.7129
11163SOL    HW136891   0.779   6.946   9.852 -1.0528  0.0634 -2.5381
11163SOL    HW236892   0.853   6.881   9.737  2.1000 -0.7185 -0.2152
11164SOL     OW36893   5.234   9.090   3.756 -0.3769  0.5088 -0.3916
11164SOL    HW136894   5.145   9.082   3.792 -0.5454  0.5325 -0.7991
11164SOL    HW236895   5.233   9.174   3.710 -0.0248  0.6901 -0.0749
11165SOL     OW36896   7.773   6.247   2.143 -0.3797  0.6757 -0.2402
11165SOL    HW136897   7.697   6.199   2.176 -1.4998  1.9917 -0.8608
11165SOL    HW236898   7.737   6.322   2.096  1.2614  0.6257 -1.6964
11166SOL     OW36899   4.488   2.367   9.935 -0.1869 -0.8823 -0.2028
11166SOL    HW136900   4.517   2.308  10.005 -1.9495 -2.6109 -0.8339
11166SOL    HW236901   4.397   2.387   9.957  0.4847  2.1287  0.2656
11167SOL     OW36902   2.569   2.011   4.217 -0.0290  0.1078 -0.0946
11167SOL    HW136903   2.632   1.990   4.149  1.1461 -0.4498  1.1132
11167SOL    HW236904   2.503   1.941   4.211  1.8271 -1.9097  1.4159
11168SOL     OW36905   0.209   2.694   5.575  0.5194  0.0335 -0.1767
11168SOL    HW136906   0.268   2.676   5.649  0.1666  2.6241  0.8481
11168SOL    HW236907   0.132   2.640   5.593  1.0522 -0.5137  0.5400
11169SOL     OW36908   0.243   9.330   5.182  0.0639 -0.1169  0.2621
11169SOL    HW136909   0.171   9.272   5.156  0.7928 -1.0864  0.3272
11169SOL    HW236910   0.276   9.291   5.263  1.8111 -0.7660 -0.7122
11170SOL     OW36911   5.341   8.121   9.227 -0.3140 -0.0053 -0.0219
11170SOL    HW136912   5.370   8.033   9.251 -2.9383 -1.2555 -1.0103
11170SOL    HW236913   5.264   8.136   9.282 -1.1059  0.8020 -1.3210
11171SOL     OW36914   7.144   7.052   8.748  0.2332 -0.1615 -0.3330
11171SOL    HW136915   7.162   7.066   8.840 -0.7318  0.6543 -0.2591
11171SOL    HW236916   7.080   6.981   8.747 -0.6123  0.5898 -0.3049
11172SOL     OW36917   5.194   1.767   5.593 -0.1806 -0.5053  0.3490
11172SOL    HW136918   5.223   1.689   5.640 -0.4379 -0.2577  0.9354
11172SOL    HW236919   5.100   1.755   5.580 -0.4650  0.2251  1.5160
11173SOL     OW36920   8.303   0.172   7.834 -0.2255 -0.3991  0.2604
11173SOL    HW136921   8.219   0.126   7.841 -0.8879  0.9678  2.8429
11173SOL    HW236922   8.345   0.157   7.919 -0.2732  3.1882  1.0800
11174SOL     OW36923   1.042   6.129   9.328  0.0575 -0.0054 -0.1140
11174SOL    HW136924   1.101   6.152   9.256  0.5234  0.5311  0.4323
11174SOL    HW236925   1.024   6.212   9.372 -0.2316 -0.3289  0.3876
11175SOL     OW36926   7.416   4.136   1.926 -0.0188 -0.2102  0.0459
11175SOL    HW136927   7.487   4.119   1.987  0.1383  2.9555  0.9534
11175SOL    HW236928   7.454   4.197   1.862 -1.8617  1.6485  0.6207
11176SOL     OW36929   1.857   0.970   2.517 -0.0339 -0.3692  0.1972
11176SOL    HW136930   1.842   0.899   2.455  0.1718  0.5095 -0.9028
11176SOL    HW236931   1.825   1.048   2.471 -0.5140  0.2158  1.4797
11177SOL     OW36932   5.226   1.557   1.231 -0.5422  0.2409  0.1795
11177SOL    HW136933   5.178   1.477   1.252  2.8133 -1.9118  0.4232
11177SOL    HW236934   5.226   1.560   1.135 -0.0012 -0.5640  0.1418
11178SOL     OW36935   5.588   2.886  10.105  0.4012  0.3634 -0.8046
11178SOL    HW136936   5.599   2.800  10.065  0.1777  0.1548 -0.4229
11178SOL    HW236937   5.671   2.903  10.150  0.3340  0.2046 -0.6162
11179SOL     OW36938   7.994   0.721   0.748 -0.1286  0.3720  0.2193
11179SOL    HW136939   8.041   0.722   0.832 -0.0546  1.1163  0.1780
11179SOL    HW236940   7.915   0.773   0.764  1.2018  2.8955 -0.8877
11180SOL     OW36941   7.491   7.164  10.790  0.7364  0.0124  0.1795
11180SOL    HW136942   7.467   7.230  10.725  1.4183 -0.3208 -0.4261
11180SOL    HW236943   7.467   7.081  10.748 -2.6373 -0.0840  1.9761
11181SOL     OW36944   2.321   2.103   5.120 -0.3763 -0.3215 -0.9127
11181SOL    HW136945   2.413   2.104   5.095 -0.5874  0.1500 -1.6991
11181SOL    HW236946   2.275   2.080   5.039 -1.0031  0.2001 -0.7057
11182SOL     OW36947   9.594   9.195   7.059  0.1616 -0.1305 -0.2029
11182SOL    HW136948   9.665   9.252   7.086  1.6999 -2.8313  2.0075
11182SOL    HW236949   9.626   9.151   6.981 -1.1622  2.1155 -2.1125
11183SOL     OW36950   4.967   2.722   1.612 -1.1321  0.1517  0.3047
11183SOL    HW136951   4.985   2.629   1.627 -0.8534  0.0627 -0.5304
11183SOL    HW236952   5.051   2.766   1.625 -1.3891  0.3819  1.3088
11184SOL     OW36953   2.319   3.518   4.298  0.1371  0.4754 -0.2980
11184SOL    HW136954   2.301   3.560   4.382 -1.0854  0.8125 -0.7047
11184SOL    HW236955   2.238   3.471   4.277  1.0807 -1.1746 -0.3954
11185SOL     OW36956   7.898   8.448   3.395  0.1787 -0.6285  0.1611
11185SOL    HW136957   7.964   8.506   3.433  0.9471 -0.8670 -0.7562
11185SOL    HW236958   7.883   8.482   3.307  2.2043 -2.9210 -1.2242
11186SOL     OW36959   4.583   5.369   7.636 -0.0188 -0.0828  0.4966
11186SOL    HW136960   4.598   5.283   7.676  0.4985  0.4655  1.5133
11186SOL    HW236961   4.630   5.365   7.552 -2.5889 -1.8886 -1.0093
11187SOL     OW36962   5.289   9.593   3.591  0.0929 -0.8395  0.6336
11187SOL    HW136963   5.274   9.598   3.497 -0.6667  0.3997  0.7977
11187SOL    HW236964   5.372   9.546   3.600 -0.4692 -2.0950 -0.5824
11188SOL     OW36965   5.669   5.185   2.861  0.0895  0.6324 -0.5354
11188SOL    HW136966   5.574   5.199   2.854  0.2686  1.4704 -1.6023
11188SOL    HW236967   5.682   5.152   2.950 -1.2023  0.4896 -0.3776
11189SOL     OW36968   5.392   4.724   7.055  0.0374  0.6739 -0.0590
11189SOL    HW136969   5.451   4.671   7.002 -0.6806  1.1789 -1.4049
11189SOL    HW236970   5.333   4.661   7.096 -0.0455  0.3411 -0.6800
11190SOL     OW36971   3.658   3.371  10.886 -0.4191 -0.5865 -0.2805
11190SOL    HW136972   3.710   3.308  10.934  0.7255  1.2628  1.0543
11190SOL    HW236973   3.568   3.341  10.896 -0.2557 -0.3811  3.0334
11191SOL     OW36974   4.992   9.175   0.022 -0.5298  0.7157  0.2712
11191SOL    HW136975   5.049   9.137   0.089 -0.9386 -0.2248  0.1021
11191SOL    HW236976   4.940   9.240   0.069  0.9828  1.9571  0.3386
11192SOL     OW36977   5.420   2.824   8.000  0.7323  0.1468  0.7571
11192SOL    HW136978   5.465   2.840   7.917 -0.1454  1.4642  0.5182
11192SOL    HW236979   5.460   2.743   8.033  2.4400  0.6346 -0.0047
11193SOL     OW36980   4.125   1.502   5.957  0.0348  0.0904 -0.3076
11193SOL    HW136981   4.081   1.474   5.877 -1.0058 -0.0024  0.2888
11193SOL    HW236982   4.218   1.506   5.932 -0.2688  0.0831 -1.5182
11194SOL     OW36983   6.661   9.408   5.935  0.1254 -0.7510  0.1843
11194SOL    HW136984   6.745   9.431   5.975 -0.7052  0.3785  1.3628
11194SOL    HW236985   6.611   9.490   5.935 -0.2624 -0.9289 -2.3803
11195SOL     OW36986   8.279   1.118   0.727  0.1916 -0.9424 -0.0445
11195SOL    HW136987   8.344   1.182   0.756 -0.6673 -0.4574  0.8949
11195SOL    HW236988   8.329   1.039   0.709  0.9525 -0.8317  1.4454
11196SOL     OW36989   9.182   4.820   3.295  0.4058 -0.4039 -0.5972
11196SOL    HW136990   9.226   4.856   3.372  1.6457  2.4192 -2.4344
11196SOL    HW236991   9.179   4.726   3.310  1.4339 -0.0444  2.4326
11197SOL     OW36992  10.863   1.365   3.138  0.0874  0.0939  0.3083
11197SOL    HW136993  10.877   1.407   3.223  2.0715 -0.9996  0.5922
11197SOL    HW236994  10.818   1.431   3.086 -0.0152  1.2666  1.8031
11198SOL     OW36995   8.393  10.770   6.435 -0.3706  0.6599 -0.0064
11198SOL    HW136996   8.481  10.795   6.462 -0.6882  0.9350  0.8123
11198SOL    HW236997   8.356  10.725   6.512  0.1538 -2.3911 -1.3746
11199SOL     OW36998   1.863   4.353  10.177 -0.3286  0.1340  0.1171
11199SOL    HW136999   1.782   4.312  10.208  0.4107 -1.1642  0.3914
11199SOL    HW237000   1.834   4.437  10.140 -2.2367 -1.5401 -2.5743
11200SOL     OW37001   6.666   9.501   6.310  0.1460  0.3758  0.4450
11200SOL    HW137002   6.579   9.467   6.290 -0.1686  1.2410  0.2817
11200SOL    HW237003   6.725   9.426   6.300 -0.6714 -0.4164  1.3136
11201SOL     OW37004   5.884   0.045   4.647  0.2764 -0.3993 -0.1079
11201SOL    HW137005   5.872  -0.001   4.730 -0.3331  2.0934  1.2874
11201SOL    HW237006   5.796   0.057   4.612  0.4145 -0.1672 -0.3861
11202SOL     OW37007   3.068   2.265   7.430 -0.3915  0.4934 -0.2040
11202SOL    HW137008   3.160   2.291   7.426 -0.5476  0.9386 -1.0866
11202SOL    HW237009   3.021   2.347   7.446 -0.7520  0.5129 -1.3219
11203SOL     OW37010   1.262   5.232   5.779  0.2052 -0.3358  0.2825
11203SOL    HW137011   1.243   5.283   5.701 -0.5736  0.4731  0.9922
11203SOL    HW237012   1.239   5.142   5.755 -2.4326  0.2578  0.3628
11204SOL     OW37013  10.394   3.921   0.991  0.4704 -0.5001  0.5500
11204SOL    HW137014  10.336   3.885   1.057 -1.0374  0.7842 -0.0223
11204SOL    HW237015  10.409   4.012   1.019 -1.3413  0.5249 -1.5385
11205SOL     OW37016   8.840   3.703   7.965  0.6216 -0.2647 -0.8752
11205SOL    HW137017   8.853   3.760   8.041  0.2692 -0.1363 -0.9090
11205SOL    HW237018   8.746   3.683   7.966  0.6321 -0.3395 -1.2218
11206SOL     OW37019   3.259   6.282   1.345 -0.0926 -0.0087 -0.3175
11206SOL    HW137020   3.206   6.208   1.316  2.1040 -1.5634 -0.6311
11206SOL    HW237021   3.277   6.264   1.437  0.0007  0.4168 -0.2504
11207SOL     OW37022   5.098   0.582   6.012 -0.2130 -0.1988  0.0410
11207SOL    HW137023   5.004   0.594   6.029  0.0818  0.0024  1.7360
11207SOL    HW237024   5.141   0.628   6.084  1.1446 -2.7394  0.9683
11208SOL     OW37025   1.268  10.215   1.073  0.1838 -0.3467  0.0775
11208SOL    HW137026   1.321  10.257   1.141  1.1728 -1.6614  0.1594
11208SOL    HW237027   1.220  10.287   1.032  1.2832  0.7552  0.6670
11209SOL     OW37028   4.120   0.869  10.903 -0.4903  0.1740  0.5652
11209SOL    HW137029   4.135   0.807  10.974 -2.1879  0.6072  1.3615
11209SOL    HW237030   4.025   0.869  10.891 -0.2712  0.1874 -1.6598
11210SOL     OW37031   6.557   3.784   1.522 -0.1973  0.2071 -0.4676
11210SOL    HW137032   6.503   3.743   1.453  0.1905  1.1358 -1.3474
11210SOL    HW237033   6.566   3.875   1.494  0.8127  0.3571  0.3029
11211SOL     OW37034   5.767   7.485   6.133  0.7712  0.0339 -0.5354
11211SOL    HW137035   5.830   7.495   6.061  0.0618  1.4678 -1.0042
11211SOL    HW237036   5.700   7.551   6.115  0.6087  0.4868  1.4997
11212SOL     OW37037   1.407   5.155   2.575  0.1945 -0.4171  0.0826
11212SOL    HW137038   1.358   5.216   2.520  0.4709 -0.8157 -0.6169
11212SOL    HW237039   1.399   5.071   2.531  0.3280 -0.7723  0.7145
11213SOL     OW37040   0.354   7.982   9.122  0.2529 -0.0576  0.1189
11213SOL    HW137041   0.396   8.046   9.180  1.8386  0.1458 -1.1718
11213SOL    HW237042   0.261   8.006   9.123  0.1033 -0.4378  2.9831
11214SOL     OW37043   9.045   6.702   4.248 -0.0806 -0.3457 -0.2480
11214SOL    HW137044   9.132   6.681   4.215 -0.1401 -0.1514 -0.5241
11214SOL    HW237045   9.055   6.786   4.292 -0.6942  1.0354 -2.6176
11215SOL     OW37046   5.295   7.468  10.330 -0.5372 -0.0339  0.1997
11215SOL    HW137047   5.299   7.389  10.384  0.1324  0.8407  1.4783
11215SOL    HW237048   5.378   7.512  10.346 -1.5675  1.7816  0.8700
11216SOL     OW37049   2.717   5.228   7.761  0.3965 -0.0354 -0.2706
11216SOL    HW137050   2.658   5.273   7.822  0.1703 -0.2579 -0.3209
11216SOL    HW237051   2.659   5.170   7.711  0.3628  1.1410 -1.6579
11217SOL     OW37052   2.887   7.324   1.355 -0.0948 -0.3308 -0.3265
11217SOL    HW137053   2.862   7.403   1.403  0.3700  1.0557 -2.2694
11217SOL    HW237054   2.952   7.281   1.411 -0.2494  0.7226  0.6916
11218SOL     OW37055  10.327   8.612   7.798  0.0369  0.1239  0.3528
11218SOL    HW137056  10.298   8.613   7.707 -0.4380 -0.1162  0.4992
11218SOL    HW237057  10.390   8.684   7.804  0.6672 -0.3514 -0.3565
11219SOL     OW37058   6.571   1.691   6.021 -0.2425  0.3333 -0.0984
11219SOL    HW137059   6.525   1.731   5.947  1.9267 -1.7342 -2.7774
11219SOL    HW237060   6.514   1.619   6.049 -0.1763 -0.1530 -1.1742
11220SOL     OW37061   5.218   9.788   9.914 -0.4452 -0.2168 -0.2899
11220SOL    HW137062   5.243   9.843   9.988 -1.2521 -0.1345 -0.0690
11220SOL    HW237063   5.257   9.703   9.933 -0.2612 -0.0689 -0.0012
11221SOL     OW37064   0.522   8.370  10.726  0.7155  0.4424 -0.3536
11221SOL    HW137065   0.534   8.294  10.784 -0.6143 -0.4120 -1.1477
11221SOL    HW237066   0.469   8.430  10.777 -0.6181 -0.3912 -0.6970
11222SOL     OW37067   1.064   2.680   7.472 -0.1223 -0.1574  0.1960
11222SOL    HW137068   1.134   2.728   7.427  0.3023 -1.2677 -0.3752
11222SOL    HW237069   0.983   2.713   7.435  0.2351 -1.7661 -2.2432
11223SOL     OW37070   9.066   7.047   4.271 -0.3067  0.1742  0.2288
11223SOL    HW137071   9.095   7.091   4.351  0.1010 -0.3099  0.3560
11223SOL    HW237072   8.972   7.035   4.282 -0.3202  0.4873  0.4527
11224SOL     OW37073   3.028   4.686   8.836 -0.3132 -0.3258  0.4221
11224SOL    HW137074   3.120   4.659   8.834 -0.6566 -1.6066  0.6080
11224SOL    HW237075   3.005   4.701   8.744 -0.0841 -0.6265  0.3153
11225SOL     OW37076   1.963   5.532   7.438 -0.1314 -0.2434  0.1276
11225SOL    HW137077   1.893   5.473   7.410 -0.7162  0.3974  0.2084
11225SOL    HW237078   1.973   5.593   7.366  0.8701 -0.7719 -0.1989
11226SOL     OW37079   5.307   4.826   8.724 -0.2757 -0.7378 -0.4334
11226SOL    HW137080   5.219   4.831   8.687 -0.6421  1.6294  0.5217
11226SOL    HW237081   5.293   4.822   8.819  0.5955  0.3785 -0.2309
11227SOL     OW37082   0.102   7.079   2.209 -0.3043  0.0335 -0.0219
11227SOL    HW137083   0.191   7.062   2.179 -1.2006 -0.1102 -2.9131
11227SOL    HW237084   0.067   7.142   2.147 -2.2023  0.1966  1.1124
11228SOL     OW37085   6.275   4.202   1.673  0.0591 -0.3482  0.3159
11228SOL    HW137086   6.360   4.234   1.645 -0.6680  0.8789 -0.5523
11228SOL    HW237087   6.286   4.107   1.679  1.7774 -0.1368  1.2852
11229SOL     OW37088   1.657   1.888   3.360  0.0113  0.0277 -0.1270
11229SOL    HW137089   1.706   1.878   3.442  0.1099  0.6856 -0.0954
11229SOL    HW237090   1.722   1.876   3.291  0.1463  0.4943 -0.0891
11230SOL     OW37091   3.704   0.443   6.661  0.5286 -0.4451  0.1454
11230SOL    HW137092   3.765   0.382   6.702  0.2889  0.5683  2.1305
11230SOL    HW237093   3.707   0.521   6.717 -0.3957  0.7370 -1.3827
11231SOL     OW37094   7.346   8.196  10.493  0.1122  0.1110  0.1140
11231SOL    HW137095   7.319   8.162  10.578 -0.4710  0.8645  0.2415
11231SOL    HW237096   7.428   8.151  10.474  0.4612  0.2318  1.2635
11232SOL     OW37097   5.674   4.971   9.067  0.3443  0.0044  0.0692
11232SOL    HW137098   5.609   4.904   9.044  0.4262  1.1519 -4.6113
11232SOL    HW237099   5.758   4.928   9.056  0.3801 -0.0463  0.5554
11233SOL     OW37100   8.006   8.120   0.034 -0.4843  0.2245 -0.2439
11233SOL    HW137101   8.015   8.031  -0.001 -0.5774  0.6617 -1.3970
11233SOL    HW237102   8.095   8.147   0.053 -0.4480 -0.0747  0.0274
11234SOL     OW37103   5.563  10.108   1.599 -0.1697 -0.0195  0.5208
11234SOL    HW137104   5.649  10.143   1.575 -1.5704  2.3178 -1.6268
11234SOL    HW237105   5.550  10.033   1.541  0.1289  0.0750  0.3315
11235SOL     OW37106   9.650   7.915  10.769 -0.3315 -0.3260  0.3716
11235SOL    HW137107   9.702   7.895  10.691 -0.4430  1.5975 -0.2432
11235SOL    HW237108   9.710   7.962  10.827 -1.0244  0.8193  0.1866
11236SOL     OW37109   2.777   4.113   4.222 -0.1529  0.8823  0.7507
11236SOL    HW137110   2.844   4.166   4.178 -0.2348  0.0782 -0.3874
11236SOL    HW237111   2.697   4.131   4.173  0.2942 -2.1750 -1.3848
11237SOL     OW37112   1.013   7.182   9.543  0.3399 -0.1524  0.4190
11237SOL    HW137113   1.067   7.217   9.472 -0.8184 -0.1392 -0.4891
11237SOL    HW237114   1.056   7.101   9.569  1.5177  0.5304  0.6405
11238SOL     OW37115   4.843   7.378   0.188 -0.0398  0.1597  0.1986
11238SOL    HW137116   4.780   7.310   0.165 -0.5403  0.5141  0.4979
11238SOL    HW237117   4.929   7.340   0.168 -0.3388 -0.4070 -0.0051
11239SOL     OW37118   2.096   2.783   4.956 -0.4382  0.3923 -0.6333
11239SOL    HW137119   2.036   2.805   5.027  2.3907 -1.0293  2.5199
11239SOL    HW237120   2.117   2.690   4.971  1.5789  0.5117 -2.2613
11240SOL     OW37121   3.356   3.710   0.275  0.2904 -0.3459 -0.0062
11240SOL    HW137122   3.375   3.756   0.193 -1.7668  1.1972  0.3255
11240SOL    HW237123   3.270   3.670   0.261  0.4998 -1.1811  0.9590
11241SOL     OW37124   3.470   7.155   5.420  0.2809 -0.3290  0.2490
11241SOL    HW137125   3.464   7.060   5.413 -0.1972 -0.5469  2.7984
11241SOL    HW237126   3.380   7.186   5.410  0.1058 -0.3610  1.5976
11242SOL     OW37127   9.314   6.580   1.835 -0.0992  0.1038  0.4291
11242SOL    HW137128   9.362   6.500   1.817 -2.1392 -1.1358  0.2218
11242SOL    HW237129   9.370   6.650   1.801  1.0586 -1.3361 -0.7383
11243SOL     OW37130   1.807   5.954   3.894 -0.7194  0.0521 -0.5944
11243SOL    HW137131   1.796   5.861   3.910  0.2436  0.2801  1.6782
11243SOL    HW237132   1.841   5.990   3.976 -2.5954  2.6932 -0.8332
11244SOL     OW37133   5.462   8.117  10.150 -0.1852 -0.2467  0.6059
11244SOL    HW137134   5.527   8.129  10.219 -0.0003 -4.3842  1.4276
11244SOL    HW237135   5.377   8.121  10.195 -0.0934 -2.2198  1.0319
11245SOL     OW37136   4.578  10.456   6.061 -0.4242  0.0998 -0.1925
11245SOL    HW137137   4.511  10.519   6.036 -1.0567 -1.3704 -2.4477
11245SOL    HW237138   4.541  10.412   6.138 -1.2517  0.5113 -0.3410
11246SOL     OW37139   4.908   5.904   0.587  0.0812  0.0102 -0.1135
11246SOL    HW137140   4.938   5.815   0.603 -0.8242 -0.3622 -0.4281
11246SOL    HW237141   4.930   5.952   0.667  3.1353  0.2265 -0.9673
11247SOL     OW37142  10.884   1.448   4.758  0.1861  0.4161 -0.1605
11247SOL    HW137143  10.928   1.506   4.820  0.3425 -0.9270  1.0453
11247SOL    HW237144  10.939   1.451   4.680  0.2737  1.7410 -0.0782
11248SOL     OW37145   8.640   2.733   7.920 -0.0021 -0.1732  0.3065
11248SOL    HW137146   8.683   2.748   7.836  2.1386  0.2823  1.4259
11248SOL    HW237147   8.675   2.648   7.949 -3.7499 -2.4134 -0.9766
11249SOL     OW37148   3.137   2.646   5.932 -0.0346  0.3972  0.6904
11249SOL    HW137149   3.075   2.687   5.873 -0.1661 -0.4905  0.1854
11249SOL    HW237150   3.222   2.652   5.887 -0.2361 -0.8198  0.0965
11250SOL     OW37151   6.737   3.815   4.051  0.3326 -0.1685  0.4030
11250SOL    HW137152   6.757   3.721   4.050  0.2506 -0.2400  2.0596
11250SOL    HW237153   6.685   3.829   3.972  0.6472 -1.4422 -0.0596
11251SOL     OW37154   3.937   6.030   9.083 -0.4003 -0.5269 -0.3205
11251SOL    HW137155   3.846   6.011   9.062 -0.5515  0.8769 -1.0872
11251SOL    HW237156   3.943   6.126   9.079  1.2236 -0.6199 -0.8374
11252SOL     OW37157   6.186   3.115   5.289  0.5886  0.3267  0.4238
11252SOL    HW137158   6.146   3.058   5.354  1.5609  0.9976  1.6492
11252SOL    HW237159   6.276   3.083   5.281  0.1363 -0.6106 -1.6469
11253SOL     OW37160   7.428   7.295   4.843 -0.1565  0.4480  0.1853
11253SOL    HW137161   7.482   7.374   4.854  0.0825  0.4192 -0.7241
11253SOL    HW237162   7.345   7.328   4.808  0.0576  0.2732 -0.5043
11254SOL     OW37163   3.396   8.202   2.657  0.1019  0.1055 -0.1795
11254SOL    HW137164   3.424   8.175   2.570  1.0365  1.1454 -0.2322
11254SOL    HW237165   3.301   8.193   2.656  0.0410  0.6504 -1.5161
11255SOL     OW37166   0.361   2.226   0.134  0.7342  0.7375  0.3345
11255SOL    HW137167   0.412   2.237   0.055 -0.6176  0.0032 -0.6854
11255SOL    HW237168   0.426   2.226   0.205  1.9947  1.0523 -0.7837
11256SOL     OW37169   0.355   0.654   2.008 -0.3764 -0.4003 -0.0974
11256SOL    HW137170   0.390   0.590   1.946  0.2597 -1.0582  0.9171
11256SOL    HW237171   0.391   0.629   2.093 -0.5352  1.0046  0.4197
11257SOL     OW37172  10.433   0.082   2.879  0.5211 -0.0300 -0.5756
11257SOL    HW137173  10.519   0.040   2.881  1.0259  1.0105  0.1565
11257SOL    HW237174  10.394   0.052   2.796  0.7950 -2.0100 -0.0420
11258SOL     OW37175   1.294   7.805  10.101  0.0911 -0.1448  0.6064
11258SOL    HW137176   1.259   7.716  10.088 -0.5231 -0.1519  2.0943
11258SOL    HW237177   1.379   7.791  10.144  0.8185 -0.0409 -0.7366
11259SOL     OW37178   8.917   6.855   3.632  0.6183  0.3379 -0.3708
11259SOL    HW137179   8.874   6.770   3.647  0.9201  0.4658  1.5190
11259SOL    HW237180   9.010   6.835   3.633  0.7612  0.8432  1.7079
11260SOL     OW37181   0.829   8.502   9.635  0.1749  0.6106 -0.6992
11260SOL    HW137182   0.892   8.574   9.635  0.1964  0.6068  0.4670
11260SOL    HW237183   0.880   8.425   9.659 -0.1939  0.5355 -0.1446
11261SOL     OW37184  10.295   2.518   6.567  0.0934 -0.8865 -0.2729
11261SOL    HW137185  10.212   2.479   6.539  0.7615 -1.7510 -1.1159
11261SOL    HW237186  10.351   2.443   6.586  1.8818 -0.4400 -3.2633
11262SOL     OW37187   8.663   8.467   9.609 -0.2522 -0.1286  0.0177
11262SOL    HW137188   8.606   8.494   9.537  0.6797  0.1426 -0.6384
11262SOL    HW237189   8.751   8.483   9.577  0.1715  0.8693  1.5703
11263SOL     OW37190   7.768   2.603  10.503  0.5377  0.1286 -0.3087
11263SOL    HW137191   7.728   2.624  10.588 -0.2462 -0.0714 -0.6203
11263SOL    HW237192   7.860   2.623  10.515  0.2799  1.0372  0.2892
11264SOL     OW37193   9.933   2.033  10.451  0.2393 -0.4980 -0.4229
11264SOL    HW137194   9.899   1.944  10.455  0.6229 -0.6489 -0.4508
11264SOL    HW237195   9.870   2.081  10.396  0.6890 -1.0588 -1.4589
11265SOL     OW37196   8.228   1.379   9.087 -0.6169  0.3429 -0.6913
11265SOL    HW137197   8.274   1.297   9.104 -2.0644 -0.5420 -0.7975
11265SOL    HW237198   8.237   1.429   9.168  0.8349  0.3877 -0.8527
11266SOL     OW37199   0.699   1.434   5.575 -0.1313  0.1749 -0.0309
11266SOL    HW137200   0.611   1.424   5.538  1.3415 -1.2396 -3.5439
11266SOL    HW237201   0.702   1.372   5.648 -1.4191 -1.2693 -1.1579
11267SOL     OW37202   8.699   3.346   2.629  0.8054 -0.5484  0.6182
11267SOL    HW137203   8.728   3.370   2.541 -0.7441 -0.1245  0.1878
11267SOL    HW237204   8.662   3.258   2.619 -1.5557  0.3987  0.2673
11268SOL     OW37205   8.882   5.597   4.124  0.8336  0.2167 -0.0099
11268SOL    HW137206   8.865   5.556   4.039  0.8480  0.0416  0.0712
11268SOL    HW237207   8.959   5.551   4.158  0.5945  0.0208  0.2712
11269SOL     OW37208   6.721   2.628   4.761  0.4736 -0.4148  0.0758
11269SOL    HW137209   6.704   2.698   4.824  1.1429 -0.0906 -0.0957
11269SOL    HW237210   6.805   2.651   4.723  0.7135 -1.3407  0.0457
11270SOL     OW37211   9.716   4.881   9.376  0.2222  0.3201  0.2864
11270SOL    HW137212   9.692   4.944   9.309 -0.1620  0.1896  0.3015
11270SOL    HW237213   9.793   4.919   9.418  1.0787 -0.0681 -0.8803
11271SOL     OW37214   7.750   3.261   8.611  0.1023 -0.5545  0.5776
11271SOL    HW137215   7.845   3.263   8.623  0.2926  2.0687 -0.6649
11271SOL    HW237216   7.717   3.328   8.670 -0.6881  0.2204 -0.6987
11272SOL     OW37217   4.417   0.096   4.458  0.6404 -0.2627 -0.0623
11272SOL    HW137218   4.462   0.060   4.381  0.6488 -0.9364  0.2524
11272SOL    HW237219   4.382   0.019   4.503  1.8278 -0.0170  1.3712
11273SOL     OW37220   4.643   7.133   9.467  0.2552 -0.3109 -0.0352
11273SOL    HW137221   4.703   7.191   9.421 -0.2296  1.0906  1.0179
11273SOL    HW237222   4.558   7.148   9.425  0.1811 -0.4564  0.0605
11274SOL     OW37223   9.764   2.145   8.118 -0.5862  0.2423 -0.2988
11274SOL    HW137224   9.723   2.120   8.035 -1.2743 -0.2722  0.1766
11274SOL    HW237225   9.836   2.083   8.128 -0.4278  0.3818 -0.5684
11275SOL     OW37226   9.296   3.287   7.718 -0.4007 -0.5576  0.0561
11275SOL    HW137227   9.375   3.340   7.709  0.5497 -1.8334  0.4588
11275SOL    HW237228   9.303   3.249   7.805 -2.8257  1.3590  1.1966
11276SOL     OW37229  10.226   2.091   2.388 -0.0963 -0.4025  0.4025
11276SOL    HW137230  10.193   2.001   2.387  0.0283 -0.4464 -1.0180
11276SOL    HW237231  10.147   2.145   2.392 -0.3415 -0.5385 -1.6742
11277SOL     OW37232  10.362   2.525   1.851  0.0778 -0.1214  0.2878
11277SOL    HW137233  10.430   2.464   1.880  0.2035  0.3389  1.0146
11277SOL    HW237234  10.304   2.473   1.796 -0.3504 -1.1384  1.6432
11278SOL     OW37235   7.394   0.565   1.321  0.5628 -0.3419  0.2900
11278SOL    HW137236   7.397   0.517   1.403  0.5687 -3.3865 -1.3443
11278SOL    HW237237   7.380   0.498   1.254  2.4971  1.7148 -2.4329
11279SOL     OW37238   6.070  10.805   3.341 -0.3416 -0.0984 -0.5221
11279SOL    HW137239   6.047  10.715   3.322  2.0142 -0.6737 -1.0569
11279SOL    HW237240   6.020  10.827   3.420 -0.5449 -2.0632 -0.0479
11280SOL     OW37241   7.230   5.823   9.505 -0.0327  0.1055  0.3742
11280SOL    HW137242   7.200   5.788   9.421  0.6394  1.4718 -0.4683
11280SOL    HW237243   7.278   5.751   9.544 -1.1389 -0.8610  0.0238
11281SOL     OW37244   0.698   1.995   6.987 -0.0650  0.3083 -0.3277
11281SOL    HW137245   0.792   1.983   6.997 -0.3479 -1.6939  0.4957
11281SOL    HW237246   0.687   2.032   6.900  1.5038  1.0354 -0.2367
11282SOL     OW37247   2.689   8.618   8.254  0.4349  0.1656 -0.1778
11282SOL    HW137248   2.603   8.655   8.276  0.3267  0.0905 -0.4720
11282SOL    HW237249   2.685   8.528   8.286 -0.3058 -0.4490 -1.8856
11283SOL     OW37250   1.156   6.740   6.117 -0.0073 -0.0546 -0.5293
11283SOL    HW137251   1.071   6.781   6.100  0.6213  1.4742 -0.1231
11283SOL    HW237252   1.214   6.813   6.138  1.4252 -1.0699 -0.8323
11284SOL     OW37253   3.839   8.417   8.731  0.0243 -0.5379 -0.0851
11284SOL    HW137254   3.909   8.352   8.730  0.3551 -0.1837 -0.9052
11284SOL    HW237255   3.847   8.460   8.816  0.9096 -0.3897 -0.2376
11285SOL     OW37256   1.112   1.629   5.781 -0.2847 -0.1221 -0.8016
11285SOL    HW137257   1.088   1.601   5.869  2.9137 -1.4215 -0.1673
11285SOL    HW237258   1.068   1.567   5.723 -0.6940 -0.6374  0.0421
11286SOL     OW37259   2.819   2.536   8.826  0.8404  0.1360  0.6085
11286SOL    HW137260   2.753   2.493   8.881  0.3112  1.0691  0.7284
11286SOL    HW237261   2.855   2.605   8.881 -0.0014  1.3619 -0.3091
11287SOL     OW37262   3.953   2.393  10.504 -0.4753  0.6892  0.4001
11287SOL    HW137263   3.861   2.388  10.529 -0.3059  1.3579  1.1935
11287SOL    HW237264   3.952   2.425  10.414 -0.9759  2.2509  0.9370
11288SOL     OW37265   2.288   8.295   4.889  0.2593  0.7976  0.1485
11288SOL    HW137266   2.265   8.221   4.946  0.5865  0.9103  0.4274
11288SOL    HW237267   2.364   8.263   4.839  0.7509  1.1374  0.6663
11289SOL     OW37268   0.066   6.178   7.709 -0.5888  0.0597 -1.0119
11289SOL    HW137269   0.145   6.222   7.740  0.3356 -1.5246 -1.0188
11289SOL    HW237270   0.061   6.201   7.616 -0.4950  0.6438 -0.8802
11290SOL     OW37271   1.492  10.911   5.832 -0.5154 -0.0165 -0.0829
11290SOL    HW137272   1.499  10.996   5.877 -0.2976 -0.5204  0.8711
11290SOL    HW237273   1.582  10.883   5.821 -0.5233  0.4706 -1.6182
11291SOL     OW37274  10.030  10.542   1.909 -0.0392  0.0673 -0.3552
11291SOL    HW137275  10.074  10.605   1.851 -0.2950 -1.4003 -2.2465
11291SOL    HW237276   9.947  10.524   1.865  0.5841 -2.5700 -0.6187
11292SOL     OW37277   1.288   6.646   0.296 -0.2979  0.2396  0.2243
11292SOL    HW137278   1.299   6.740   0.283 -0.3191  0.1944 -0.1456
11292SOL    HW237279   1.378   6.613   0.304 -0.2903  0.2913  0.3519
11293SOL     OW37280   9.694   0.447   7.171  0.6500 -0.2132  0.4961
11293SOL    HW137281   9.727   0.450   7.261  1.4017  0.7240  0.2051
11293SOL    HW237282   9.623   0.511   7.169  1.3803  0.6236  0.1637
11294SOL     OW37283   1.087   9.042   4.615 -0.1717  0.3744 -0.0438
11294SOL    HW137284   1.064   8.951   4.598  0.0585  0.5360 -1.2650
11294SOL    HW237285   1.183   9.043   4.618 -0.1490  0.6749 -0.6610
11295SOL     OW37286   0.786   2.413   3.915  0.1265 -0.2824 -0.1636
11295SOL    HW137287   0.712   2.389   3.971  0.9552 -2.7600 -0.0190
11295SOL    HW237288   0.858   2.431   3.975 -0.1509  1.5435 -0.3280
11296SOL     OW37289  10.768   3.822   5.257  0.4544  0.0737  0.7554
11296SOL    HW137290  10.806   3.910   5.258  2.5842 -0.7712 -0.1683
11296SOL    HW237291  10.814   3.776   5.187 -0.6059 -1.7813  1.1974
11297SOL     OW37292   0.847   2.053   6.606  0.3308  0.3288 -0.2625
11297SOL    HW137293   0.840   2.025   6.515 -0.2678  0.2034 -0.1819
11297SOL    HW237294   0.757   2.052   6.639  0.6268 -0.5016  0.5841
11298SOL     OW37295   4.254   1.237   3.474 -0.1666 -0.0523 -0.3983
11298SOL    HW137296   4.210   1.296   3.535  0.4353 -0.4146  0.3975
11298SOL    HW237297   4.224   1.266   3.387 -0.4030  0.9805  0.0146
11299SOL     OW37298   9.937   1.961   0.290  0.4367  0.3633 -0.7549
11299SOL    HW137299   9.915   1.894   0.355  0.6581  0.4582 -0.5807
11299SOL    HW237300  10.031   1.953   0.279  0.7902  1.9927  0.7702
11300SOL     OW37301   4.361   1.622  10.692  0.1759 -0.4942  0.3139
11300SOL    HW137302   4.444   1.670  10.695 -0.7571  1.2083  0.1276
11300SOL    HW237303   4.344   1.599  10.784  1.6538 -2.4095  0.1796
11301SOL     OW37304   6.220   1.972   1.624 -0.5063 -0.0135 -0.6864
11301SOL    HW137305   6.224   1.954   1.530 -1.2678 -1.1489 -0.5202
11301SOL    HW237306   6.134   2.013   1.637 -0.6890 -0.4697 -0.4054
11302SOL     OW37307   4.849   9.853   8.989 -0.3583  0.4157 -0.0805
11302SOL    HW137308   4.909   9.787   9.023 -1.3102 -0.5129 -0.1679
11302SOL    HW237309   4.778   9.857   9.053 -0.6449  0.8618 -0.4212
11303SOL     OW37310  10.371   0.024   3.786 -0.4090 -0.2620 -0.3511
11303SOL    HW137311  10.378   0.050   3.694  0.9297 -1.8855 -0.7693
11303SOL    HW237312  10.370  -0.071   3.784  1.0228 -0.3755  1.3578
11304SOL     OW37313   6.580   8.100   9.021  0.1965  0.0018  0.5569
11304SOL    HW137314   6.515   8.167   8.998 -0.4613 -1.0065 -0.6129
11304SOL    HW237315   6.546   8.059   9.100  0.0052  0.2407  0.6021
11305SOL     OW37316   5.197   3.458   2.493  0.2697  0.1484 -0.0039
11305SOL    HW137317   5.198   3.380   2.548 -0.3626  0.3937  0.3645
11305SOL    HW237318   5.212   3.531   2.553  0.3176  0.3557 -0.2650
11306SOL     OW37319   3.828   7.227   2.661  0.1320 -0.1242 -0.3890
11306SOL    HW137320   3.806   7.320   2.659  0.4183 -0.0278  0.6006
11306SOL    HW237321   3.898   7.218   2.597 -0.1655  0.2698 -0.7772
11307SOL     OW37322   8.332   4.178   7.085 -0.4739  0.0818  0.5283
11307SOL    HW137323   8.327   4.084   7.063 -1.7515  0.2203  0.1708
11307SOL    HW237324   8.269   4.220   7.026 -0.0393  1.1492  0.8081
11308SOL     OW37325   8.482  10.323   6.203  0.0373  0.2763  0.0939
11308SOL    HW137326   8.475  10.413   6.170 -0.7032  0.1727 -0.0432
11308SOL    HW237327   8.452  10.329   6.294 -0.9190  0.0130 -0.1894
11309SOL     OW37328  10.798   3.147   9.015  0.4325 -0.5356 -0.4111
11309SOL    HW137329  10.887   3.161   8.983  0.7410  0.4657  0.7750
11309SOL    HW237330  10.772   3.232   9.051 -1.0704 -0.7716 -0.8798
11310SOL     OW37331   7.098   1.848   7.212 -0.0450  0.0187  0.2689
11310SOL    HW137332   7.019   1.900   7.196  0.6414  1.1811  0.5167
11310SOL    HW237333   7.103   1.788   7.138 -0.3248  0.9887 -0.5580
11311SOL     OW37334  10.289   2.098   8.599  0.2051  0.1264  0.1347
11311SOL    HW137335  10.276   2.031   8.666  1.3857 -1.5276 -1.2050
11311SOL    HW237336  10.200   2.120   8.571 -0.2414 -0.2923  1.1441
11312SOL     OW37337   2.561  10.881   5.824  0.3200  0.1044 -0.1104
11312SOL    HW137338   2.518  10.864   5.908 -1.4238 -0.8236 -1.1411
11312SOL    HW237339   2.497  10.930   5.774  1.1362  0.1655 -1.1276
11313SOL     OW37340   0.981  10.821   8.743  0.2270  0.1601 -0.4522
11313SOL    HW137341   0.967  10.731   8.773 -0.8710  1.0104  1.7351
11313SOL    HW237342   1.076  10.827   8.729  0.6669 -0.6280  1.8675
11314SOL     OW37343   1.886   5.623   8.574 -0.1941  0.4073 -0.1225
11314SOL    HW137344   1.927   5.605   8.659 -2.2594  0.3084  0.9178
11314SOL    HW237345   1.898   5.717   8.562  1.7768  0.1406 -0.7034
11315SOL     OW37346   2.508   3.016   6.227  0.3558 -0.2438 -0.2460
11315SOL    HW137347   2.516   2.960   6.149  0.8332 -1.1068  0.4061
11315SOL    HW237348   2.558   2.971   6.294 -1.9181 -0.7365  1.2530
11316SOL     OW37349   1.104   3.414   0.072 -0.3321  0.4819 -1.1339
11316SOL    HW137350   1.014   3.406   0.040 -0.8917  1.1070  0.2377
11316SOL    HW237351   1.115   3.507   0.090  1.2758  0.7323 -3.1447
11317SOL     OW37352   4.404   6.604   0.902  0.2642  0.1490  0.5400
11317SOL    HW137353   4.472   6.655   0.946 -0.0128 -0.7736  2.1021
11317SOL    HW237354   4.329   6.663   0.899  0.4245  0.3780  0.8879
11318SOL     OW37355   2.637   0.026   6.087  0.0999  0.8955 -0.3432
11318SOL    HW137356   2.591   0.018   6.170 -0.2187 -0.7933 -0.6480
11318SOL    HW237357   2.591   0.095   6.040  0.3996  1.9995  0.9298
11319SOL     OW37358   0.767   9.057  10.319  0.5767 -0.5932 -0.3047
11319SOL    HW137359   0.685   9.107  10.311 -1.1245 -2.3191  3.5138
11319SOL    HW237360   0.826   9.115  10.367  1.1585  0.1387 -1.8466
11320SOL     OW37361  10.693   4.541   1.910  0.1881  0.1359  0.0752
11320SOL    HW137362  10.632   4.528   1.837  1.2884 -0.2617 -0.8007
11320SOL    HW237363  10.701   4.636   1.918 -3.4063  0.3894  2.6895
11321SOL     OW37364  10.751   5.214   4.234 -0.0469  0.3738 -0.0002
11321SOL    HW137365  10.792   5.275   4.296 -2.3422  0.5264  1.5064
11321SOL    HW237366  10.708   5.270   4.170 -0.8345  0.3302  0.4771
11322SOL     OW37367   9.028   1.901   8.010 -0.1560 -0.2038  0.1791
11322SOL    HW137368   9.047   1.938   8.096  0.4203  1.0256 -0.4536
11322SOL    HW237369   9.053   1.970   7.948  1.4395 -1.8153 -1.0807
11323SOL     OW37370   8.997   4.024   6.094 -0.0504 -0.0884  0.0976
11323SOL    HW137371   8.986   4.119   6.092 -1.6414 -0.2319  0.3826
11323SOL    HW237372   9.005   4.004   6.187 -1.8899 -0.4023  0.2259
11324SOL     OW37373   5.727   4.675   5.310  0.0905 -0.3971  0.4866
11324SOL    HW137374   5.813   4.694   5.273  0.2964 -2.1772 -0.0563
11324SOL    HW237375   5.734   4.584   5.340 -1.9160 -0.9303 -0.5221
11325SOL     OW37376   8.094   3.983   8.723  0.0232  0.2465  0.0656
11325SOL    HW137377   8.127   3.916   8.662  0.7356  1.0231 -0.4288
11325SOL    HW237378   8.087   4.062   8.669  0.8105  0.9931  1.0131
11326SOL     OW37379   5.311   1.090   6.702  0.2394  0.2862 -0.4550
11326SOL    HW137380   5.376   1.057   6.764  0.0646 -0.6454 -0.7520
11326SOL    HW237381   5.363   1.127   6.631  0.4672 -0.4779 -0.7042
11327SOL     OW37382   7.049   8.965   9.918 -0.1886  0.3678  0.2060
11327SOL    HW137383   7.056   9.048   9.871  2.0289  1.1793  1.7691
11327SOL    HW237384   7.082   8.984  10.006  0.5746 -2.1961  0.5710
11328SOL     OW37385   1.578   6.394   2.255  0.3486 -0.0313  0.3186
11328SOL    HW137386   1.629   6.462   2.210  1.4934 -0.7853  0.4217
11328SOL    HW237387   1.645   6.336   2.292 -0.6102 -1.0881  0.4225
11329SOL     OW37388  10.664   6.988   4.007 -0.1930 -0.0289  0.2732
11329SOL    HW137389  10.591   7.002   3.947  0.4750 -1.1923 -0.8707
11329SOL    HW237390  10.625   6.992   4.094 -1.6880 -0.9193 -0.3112
11330SOL     OW37391   4.131   0.969   4.131 -0.0763  0.3694 -0.6068
11330SOL    HW137392   4.053   0.933   4.090 -0.3696 -1.4937  1.3857
11330SOL    HW237393   4.191   0.988   4.059 -1.8419  0.5850 -2.0683
11331SOL     OW37394   0.501   8.580   8.104 -0.4688 -0.1549 -0.3204
11331SOL    HW137395   0.595   8.578   8.085 -0.5492 -0.0876 -0.7382
11331SOL    HW237396   0.490   8.514   8.173  0.2788  1.6609  1.6498
11332SOL     OW37397   0.945   5.400   0.360  0.1638 -0.6745 -0.4145
11332SOL    HW137398   0.911   5.342   0.291  2.0212 -2.5317  0.1440
11332SOL    HW237399   1.029   5.430   0.326  0.3156 -0.2303  0.3381
11333SOL     OW37400   0.094   9.942   8.147  0.7205  0.1408 -0.0723
11333SOL    HW137401   0.074  10.034   8.163 -0.2284  0.0128 -0.4794
11333SOL    HW237402   0.078   9.900   8.232  2.8154  0.5790  0.6143
11334SOL     OW37403   4.649   9.170   0.058 -0.1088  0.0920 -0.3476
11334SOL    HW137404   4.626   9.141   0.146  0.3559 -0.0949 -0.2886
11334SOL    HW237405   4.646   9.266   0.063 -0.3388  0.0764 -0.1974
11335SOL     OW37406   5.625   2.986   6.386 -0.4956 -0.1515  0.0361
11335SOL    HW137407   5.718   3.000   6.404 -0.2656 -3.0533  1.6762
11335SOL    HW237408   5.597   2.921   6.451 -3.1508 -0.9584 -1.7335
11336SOL     OW37409   6.850   9.275   1.622  0.0190  0.4246 -0.3897
11336SOL    HW137410   6.828   9.356   1.668 -0.5800  0.5739 -0.9235
11336SOL    HW237411   6.928   9.243   1.666 -0.7503  0.3607  0.9789
11337SOL     OW37412   3.239   9.688   8.170  0.1686 -0.2426 -0.1085
11337SOL    HW137413   3.329   9.687   8.137  1.2944  0.1064  2.6904
11337SOL    HW237414   3.219   9.597   8.188  0.0178 -0.2999 -0.5546
11338SOL     OW37415   1.965  10.452   6.201 -0.3910  0.0120 -0.3617
11338SOL    HW137416   1.902  10.383   6.180 -0.1215 -0.0043 -1.1595
11338SOL    HW237417   2.008  10.422   6.281 -0.1971 -0.7984 -0.7606
11339SOL     OW37418   7.060   6.327   8.609  0.4156  0.3121 -0.0978
11339SOL    HW137419   7.054   6.355   8.518 -1.5037  0.1184 -0.0619
11339SOL    HW237420   6.996   6.257   8.617  0.6606  0.2265  1.3825
11340SOL     OW37421   4.273  10.718   5.803 -0.0249 -0.2467 -0.3321
11340SOL    HW137422   4.201  10.780   5.793  0.4033  0.1050 -1.2396
11340SOL    HW237423   4.346  10.756   5.755  0.6851 -0.7607  0.2983
11341SOL     OW37424   3.029   6.040   2.331 -0.8687  0.0548  0.2666
11341SOL    HW137425   3.102   5.989   2.368  0.3420  0.4236 -1.4841
11341SOL    HW237426   2.961   5.975   2.313 -0.6424 -0.4315  1.0787
11342SOL     OW37427   5.836   9.540   1.849 -0.2860 -0.7744 -0.0217
11342SOL    HW137428   5.901   9.482   1.808  1.8262  2.4296 -1.6357
11342SOL    HW237429   5.765   9.545   1.784  0.7462  0.3997 -1.1120
11343SOL     OW37430   5.286   2.709   9.583 -0.6052  0.2520  0.3328
11343SOL    HW137431   5.270   2.631   9.636  0.9173 -0.8520 -0.7550
11343SOL    HW237432   5.214   2.711   9.520 -0.5324 -0.3887  0.2286
11344SOL     OW37433   1.403   6.840   4.815  0.0572  0.4713 -0.0822
11344SOL    HW137434   1.454   6.808   4.889  0.6190  0.2546 -0.5561
11344SOL    HW237435   1.433   6.930   4.802  1.2634 -0.0559 -1.1581
11345SOL     OW37436   2.316   5.511   7.705 -0.1366  0.5112  0.2946
11345SOL    HW137437   2.382   5.464   7.756 -1.5796 -0.7780  1.0635
11345SOL    HW237438   2.290   5.450   7.636 -0.7613  0.8635  0.2081
11346SOL     OW37439   5.112   6.301   9.814  0.1055 -0.5377  0.1243
11346SOL    HW137440   5.053   6.338   9.880  0.6720  1.5631 -0.4724
11346SOL    HW237441   5.060   6.234   9.770 -1.6803  0.8698 -0.0238
11347SOL     OW37442   0.955   6.948   5.334  0.3819 -0.0316  0.8434
11347SOL    HW137443   0.932   7.030   5.290 -1.2038 -1.2086 -0.6947
11347SOL    HW237444   1.028   6.913   5.284  0.1759 -0.1918  0.6510
11348SOL     OW37445   7.296   4.943   5.196 -0.0805  0.1682 -0.3178
11348SOL    HW137446   7.242   4.866   5.185 -0.9017  0.1360  2.8327
11348SOL    HW237447   7.236   5.012   5.224  1.0104  1.1421 -0.2483
11349SOL     OW37448   3.767   4.264   6.934 -0.0321 -0.1880 -0.0769
11349SOL    HW137449   3.733   4.257   7.023 -0.0880 -0.5951 -0.1290
11349SOL    HW237450   3.848   4.314   6.943 -0.6580  0.8280  0.0409
11350SOL     OW37451   0.821   9.910   6.886 -0.2079 -0.3026 -0.1476
11350SOL    HW137452   0.743   9.937   6.935 -0.5260 -0.9561 -0.2881
11350SOL    HW237453   0.890   9.969   6.916  0.2332 -2.1633  2.8717
11351SOL     OW37454   8.082   1.663   4.568 -0.4859  0.6078 -0.0712
11351SOL    HW137455   8.147   1.633   4.631 -0.2700  1.9494  0.3846
11351SOL    HW237456   8.031   1.729   4.615 -0.4502  1.4980 -1.2089
11352SOL     OW37457   2.298   9.189   1.874  0.0041 -0.2838 -0.3627
11352SOL    HW137458   2.345   9.272   1.888 -0.1736 -0.0994 -0.8235
11352SOL    HW237459   2.325   9.134   1.947 -2.8931  1.5023  2.3319
11353SOL     OW37460   9.237   2.786   2.840 -0.2907 -0.1742  0.2384
11353SOL    HW137461   9.291   2.711   2.813  0.5926 -0.1041  1.7314
11353SOL    HW237462   9.293   2.862   2.826 -0.1969 -0.0463  1.2361
11354SOL     OW37463   4.048   3.887   1.059  0.1176  0.3815  0.5366
11354SOL    HW137464   4.078   3.911   0.971 -0.7745  1.0564  0.4013
11354SOL    HW237465   3.954   3.874   1.050  0.1929 -0.7005  1.1608
11355SOL     OW37466   7.191   4.619   9.680 -0.0070  0.2285 -0.4475
11355SOL    HW137467   7.188   4.668   9.762 -1.5238  0.4234 -0.5967
11355SOL    HW237468   7.125   4.661   9.624 -1.7623 -2.2284 -0.4006
11356SOL     OW37469   2.513   7.876   9.925 -0.0854  0.3615  0.1209
11356SOL    HW137470   2.536   7.968   9.936  2.0346 -0.3567  2.5726
11356SOL    HW237471   2.451   7.858   9.996  0.7887 -0.4564  0.6999
11357SOL     OW37472   4.457   8.719   9.202 -0.1915  0.3606 -0.1060
11357SOL    HW137473   4.457   8.660   9.277 -0.4109 -0.7556 -0.9512
11357SOL    HW237474   4.455   8.660   9.126  0.0865  1.4570 -0.9833
11358SOL     OW37475  10.846   1.230   5.865 -0.1335 -0.4919  0.0837
11358SOL    HW137476  10.769   1.235   5.923 -0.0789  2.0628  0.0687
11358SOL    HW237477  10.918   1.261   5.919  0.2931  0.0356 -0.7682
11359SOL     OW37478   8.822   7.410   2.270  0.4496  0.0972 -0.1747
11359SOL    HW137479   8.746   7.449   2.228 -0.8533 -0.7573  1.3036
11359SOL    HW237480   8.852   7.343   2.209  0.0854  0.4918 -0.7979
11360SOL     OW37481   9.170   2.597   7.468  0.0510  0.6693 -0.2482
11360SOL    HW137482   9.172   2.692   7.466 -0.3091  0.6700 -0.6503
11360SOL    HW237483   9.252   2.572   7.511  1.1580  1.1186 -1.9880
11361SOL     OW37484   0.134   9.393   2.585  0.2042 -0.4436 -0.3938
11361SOL    HW137485   0.125   9.431   2.672  0.4662 -1.1419 -0.0507
11361SOL    HW237486   0.048   9.405   2.545  0.4636  1.0545 -0.5378
11362SOL     OW37487   0.638   2.962   2.245  0.2345 -0.9178  0.5702
11362SOL    HW137488   0.642   3.036   2.306  2.1543  0.8273 -1.5217
11362SOL    HW237489   0.717   2.911   2.263  1.6286  0.4432 -1.3309
11363SOL     OW37490   4.728   6.883   9.589  0.1037  0.0860  0.6926
11363SOL    HW137491   4.701   6.961   9.540  1.6432  0.0868 -0.2090
11363SOL    HW237492   4.791   6.916   9.653  1.3265 -0.4795 -0.1764
11364SOL     OW37493   1.087  10.237   9.733  0.5694  0.2687 -0.0022
11364SOL    HW137494   1.168  10.271   9.770  0.8271 -1.5358  1.1996
11364SOL    HW237495   1.023  10.308   9.745  1.6468  1.2447  0.1460
11365SOL     OW37496  10.251   0.947   6.997  0.2958 -0.3388 -0.3715
11365SOL    HW137497  10.279   0.856   6.988 -0.2334 -0.5231 -0.1848
11365SOL    HW237498  10.156   0.944   6.987 -0.1736 -0.2948  2.7861
11366SOL     OW37499  10.540   0.045   4.398 -0.0591  0.0492 -0.5024
11366SOL    HW137500  10.450   0.014   4.388  0.1905 -1.3328  1.0137
11366SOL    HW237501  10.577   0.040   4.310 -1.2340 -0.1042 -1.0116
11367SOL     OW37502   5.048   4.753   1.196  0.0962 -0.7933 -0.9744
11367SOL    HW137503   4.998   4.788   1.269  0.6112 -0.1432 -0.9161
11367SOL    HW237504   5.080   4.668   1.227 -0.1463 -0.7700 -0.6539
11368SOL     OW37505   3.065   5.498   0.355 -0.0298  0.9704  0.0908
11368SOL    HW137506   3.010   5.555   0.301  0.5382 -0.7836 -2.5754
11368SOL    HW237507   3.025   5.411   0.345  0.7802  0.3945  1.6126
11369SOL     OW37508   0.436   9.376   4.062  0.0922 -0.0530  0.5269
11369SOL    HW137509   0.422   9.378   4.156 -1.3006  1.4873  0.3269
11369SOL    HW237510   0.356   9.337   4.027  0.6698 -0.7727 -0.0299
11370SOL     OW37511  10.667   1.213   3.043  0.2681  0.7179  0.0551
11370SOL    HW137512  10.739   1.260   3.087  0.2996 -0.5361  1.4102
11370SOL    HW237513  10.703   1.190   2.957  0.4747  2.5500 -0.4083
11371SOL     OW37514   1.911   0.776   0.846  0.6434  0.5834 -0.3363
11371SOL    HW137515   1.915   0.800   0.939  0.3951  0.7142 -0.3577
11371SOL    HW237516   1.929   0.857   0.799  2.6319  0.1474 -0.4076
11372SOL     OW37517   3.304   7.596   9.408  0.6604  0.0012 -0.2353
11372SOL    HW137518   3.218   7.637   9.413  0.6974 -0.0320  2.3875
11372SOL    HW237519   3.286   7.503   9.400  0.4572  0.0438 -0.2713
11373SOL     OW37520   1.723   6.432   1.173  0.1015  0.3167  0.1056
11373SOL    HW137521   1.780   6.443   1.249  2.5193 -0.9629 -1.3588
11373SOL    HW237522   1.756   6.496   1.109 -0.6184  0.0643 -0.5388
11374SOL     OW37523   1.233   8.107   9.770 -0.0188 -0.2218  0.2632
11374SOL    HW137524   1.256   8.172   9.837 -0.9658  0.7488 -0.3247
11374SOL    HW237525   1.277   8.138   9.691  1.5625 -1.6732  0.5287
11375SOL     OW37526   7.830   2.815  10.862 -0.1682 -0.5424 -0.2267
11375SOL    HW137527   7.756   2.795  10.804 -1.8402 -0.5852  1.8137
11375SOL    HW237528   7.806   2.896  10.906  0.6988 -0.8864  0.9417
11376SOL     OW37529  10.438  10.002   5.382  0.4274 -0.1882 -0.3461
11376SOL    HW137530  10.397   9.935   5.437 -0.1625 -0.0543 -0.6088
11376SOL    HW237531  10.439  10.080   5.437  0.5936 -0.2691 -0.2360
11377SOL     OW37532   6.812   0.846   2.718 -0.2521  0.4434 -0.0155
11377SOL    HW137533   6.857   0.822   2.636 -2.3535 -1.3633 -0.7278
11377SOL    HW237534   6.768   0.928   2.698 -2.6646 -1.1037 -1.6107
11378SOL     OW37535   1.185   2.167   0.158  0.4472 -0.3049 -0.7832
11378SOL    HW137536   1.233   2.217   0.224 -1.2138 -1.6780  1.6627
11378SOL    HW237537   1.240   2.091   0.140  0.2880 -0.6823  0.2285
11379SOL     OW37538   0.753   5.243   6.251  0.8013  0.1290 -0.5316
11379SOL    HW137539   0.844   5.217   6.268  0.8828  0.8351  0.1650
11379SOL    HW237540   0.747   5.242   6.155  1.8888  1.1437 -0.6449
11380SOL     OW37541   7.664   8.715   1.634  0.1313  0.1165 -0.7711
11380SOL    HW137542   7.680   8.626   1.603 -0.5893 -1.2358  2.3083
11380SOL    HW237543   7.738   8.732   1.693 -0.0303  1.3672 -0.9193
11381SOL     OW37544   3.869   7.025   3.793  0.3238  0.3869  0.0263
11381SOL    HW137545   3.917   7.106   3.778  0.7923  0.0851 -0.1132
11381SOL    HW237546   3.855   6.990   3.705  0.9215 -0.1438  0.1378
11382SOL     OW37547  10.615   9.887   6.673 -0.3223 -0.4801 -0.0797
11382SOL    HW137548  10.576   9.876   6.586 -0.4736  0.3303 -0.1270
11382SOL    HW237549  10.699   9.843   6.667  0.7282  1.5210 -1.4144
11383SOL     OW37550   4.031  10.045  10.481  0.3616  0.0759  0.4006
11383SOL    HW137551   3.969  10.090  10.539  0.4864 -0.8082  1.2492
11383SOL    HW237552   4.109  10.033  10.535  0.4349 -0.8949  0.0993
11384SOL     OW37553   1.687   5.093   3.311 -0.1130  0.0008  0.1274
11384SOL    HW137554   1.657   5.037   3.240  0.6463 -0.9368  0.5325
11384SOL    HW237555   1.657   5.049   3.391  2.1005 -0.8668  0.5444
11385SOL     OW37556   7.135   8.987   8.274 -0.2831  0.0408 -0.3785
11385SOL    HW137557   7.090   8.965   8.193 -0.5331  0.7626 -0.4500
11385SOL    HW237558   7.205   9.047   8.248  0.3104 -0.5654 -0.1878
11386SOL     OW37559   9.959  10.556   8.690  0.2640 -0.2549  0.5489
11386SOL    HW137560   9.973  10.504   8.770  0.3792 -0.2307  0.5441
11386SOL    HW237561  10.046  10.564   8.652  0.1559 -0.5687  0.2329
11387SOL     OW37562   8.547   2.958   3.310  0.2303  0.0218  0.1782
11387SOL    HW137563   8.491   2.890   3.348  1.3452 -0.2725  1.3700
11387SOL    HW237564   8.539   3.032   3.370 -1.3123  1.1601 -1.3361
11388SOL     OW37565   3.291   1.003   0.338  0.0707  0.3901 -0.2212
11388SOL    HW137566   3.239   0.974   0.413  0.5394  0.9437  0.3325
11388SOL    HW237567   3.350   0.930   0.320  0.3929  0.4910  0.3707
11389SOL     OW37568   0.041   4.482   9.724  0.3765  0.1185 -0.0342
11389SOL    HW137569  -0.004   4.554   9.680  0.1199  0.4149  0.6977
11389SOL    HW237570   0.078   4.522   9.803  1.0504 -0.3458 -0.1099
11390SOL     OW37571   5.887   1.595   6.497  0.4674  0.1959 -0.4126
11390SOL    HW137572   5.811   1.602   6.439  0.5672 -0.1976 -0.6007
11390SOL    HW237573   5.957   1.642   6.450 -0.1876  2.4461  0.7466
11391SOL     OW37574   8.151   4.699   0.142  0.2284 -0.5190 -0.1508
11391SOL    HW137575   8.106   4.663   0.218 -0.6904 -3.1195 -1.7864
11391SOL    HW237576   8.090   4.685   0.069  0.8061  2.3994 -1.3565
11392SOL     OW37577   2.190   4.567  10.415  0.0218  0.4952 -0.1725
11392SOL    HW137578   2.235   4.651  10.411 -0.0363  0.5600  0.5220
11392SOL    HW237579   2.136   4.565  10.335  1.4467  0.2897 -1.1763
11393SOL     OW37580  10.562   4.954   3.070  0.7416  0.4042 -0.1105
11393SOL    HW137581  10.642   5.005   3.080 -0.5205  2.9229 -1.8326
11393SOL    HW237582  10.492   5.019   3.068 -1.3118 -1.6534  0.5098
11394SOL     OW37583   5.097  10.086  10.077 -0.3197 -0.1076 -0.4646
11394SOL    HW137584   5.037  10.012  10.070  1.1239 -1.2613 -1.0641
11394SOL    HW237585   5.089  10.131   9.993 -2.8892  1.8439  0.6947
11395SOL     OW37586   4.587   9.442   6.055 -0.1867 -0.2242  0.6400
11395SOL    HW137587   4.501   9.472   6.082  0.0388 -0.4458  1.6443
11395SOL    HW237588   4.643   9.519   6.062 -0.3828  0.0412 -0.4735
11396SOL     OW37589   1.732   4.101   9.274 -0.2047 -0.4694 -0.6850
11396SOL    HW137590   1.810   4.068   9.229  1.0300  0.6646  0.5053
11396SOL    HW237591   1.736   4.060   9.360 -0.2786  0.4701 -0.2241
11397SOL     OW37592   5.081   8.244   9.318  0.2623  0.3742 -0.2105
11397SOL    HW137593   5.015   8.182   9.286  0.6999  0.8725 -2.1827
11397SOL    HW237594   5.123   8.198   9.391  0.2113 -1.4629 -1.2660
11398SOL     OW37595   1.746   8.651   0.892 -0.1476  0.0837 -0.2790
11398SOL    HW137596   1.675   8.715   0.897 -0.3317  0.0490 -1.8198
11398SOL    HW237597   1.703   8.568   0.876  0.1932 -0.0284 -0.6464
11399SOL     OW37598   6.378   3.088   1.842  0.1400 -0.9899 -0.5720
11399SOL    HW137599   6.331   3.089   1.759  3.5475 -1.3524 -2.7338
11399SOL    HW237600   6.447   3.153   1.830  0.3024 -0.5319  2.3210
11400SOL     OW37601   4.467   6.980   6.216  0.2176 -0.1969 -0.2176
11400SOL    HW137602   4.420   7.029   6.283  1.1783  1.4322 -0.7039
11400SOL    HW237603   4.540   6.940   6.262  0.1156 -0.1916 -0.0506
11401SOL     OW37604   6.777   8.733   1.040 -0.4393 -0.0805  0.2341
11401SOL    HW137605   6.790   8.815   0.992  0.9916 -0.9732 -0.9928
11401SOL    HW237606   6.865   8.704   1.061 -1.0065 -0.2291  2.6238
11402SOL     OW37607   5.406   1.564   0.866 -0.4215 -0.1137 -0.3402
11402SOL    HW137608   5.347   1.639   0.877  0.5219  0.6503 -0.2637
11402SOL    HW237609   5.460   1.587   0.791  1.0194  0.0870  0.7053
11403SOL     OW37610   0.301   2.732   9.042  0.6044  0.0233 -0.0820
11403SOL    HW137611   0.391   2.757   9.061  1.0307 -1.5589  0.1553
11403SOL    HW237612   0.292   2.743   8.947 -0.0747  3.4669  0.2661
11404SOL     OW37613   7.182   6.986   9.020  0.2225  0.0683 -0.5377
11404SOL    HW137614   7.277   6.976   9.032  0.3282  0.4790 -0.9957
11404SOL    HW237615   7.147   6.897   9.026  0.5290  0.0062  0.5326
11405SOL     OW37616   9.561   1.559   6.820 -0.0744  0.7883 -0.0047
11405SOL    HW137617   9.578   1.646   6.857  1.2723  0.8138 -0.6193
11405SOL    HW237618   9.633   1.505   6.853 -1.4840 -0.3802  1.2318
11406SOL     OW37619   8.907   6.738   6.497  0.3187 -0.1089 -0.9722
11406SOL    HW137620   8.984   6.739   6.441  0.3297 -1.6963 -1.0208
11406SOL    HW237621   8.935   6.693   6.577 -0.6558 -1.1129 -1.1727
11407SOL     OW37622   2.817   5.182   4.873  0.3738 -0.1969  0.2466
11407SOL    HW137623   2.848   5.270   4.896 -0.8974  0.1707  0.6436
11407SOL    HW237624   2.816   5.182   4.777 -0.5371  0.5794  0.2369
11408SOL     OW37625   7.476   8.847   2.941  0.1485 -0.0506 -0.2498
11408SOL    HW137626   7.451   8.934   2.912 -0.1313 -0.1743 -0.3835
11408SOL    HW237627   7.495   8.799   2.860 -0.5479 -0.3704 -0.2379
11409SOL     OW37628   7.206   0.917   6.024  0.8860  0.1438  0.3811
11409SOL    HW137629   7.258   0.994   5.998  1.8816 -0.4260  0.6349
11409SOL    HW237630   7.265   0.843   6.011 -0.1580 -0.6169 -0.1274
11410SOL     OW37631   9.105   6.325   9.725  0.3942 -0.0004  0.0421
11410SOL    HW137632   9.094   6.267   9.800 -0.9520 -0.8437 -0.7606
11410SOL    HW237633   9.017   6.331   9.687  0.8063  1.4003 -0.7463
11411SOL     OW37634   3.628   3.568  10.530 -0.0892  0.3865  0.5772
11411SOL    HW137635   3.636   3.561  10.435  0.6805 -0.9552  0.7130
11411SOL    HW237636   3.534   3.556  10.547 -0.0443 -0.8568  0.0627
11412SOL     OW37637   3.633   9.773   0.760 -0.5139 -0.2417  0.0928
11412SOL    HW137638   3.606   9.803   0.847 -0.8715 -0.5465  0.0890
11412SOL    HW237639   3.559   9.721   0.729 -0.9324  0.8966 -0.9143
11413SOL     OW37640   4.503  10.085   7.573 -0.7684 -0.7659  0.0226
11413SOL    HW137641   4.493  10.036   7.655  0.5132 -1.0339  0.0373
11413SOL    HW237642   4.414  10.110   7.549 -1.0432  1.3774  2.7432
11414SOL     OW37643   1.786   9.179   0.438 -0.5950  0.2973 -0.0466
11414SOL    HW137644   1.787   9.247   0.506  1.6294  0.9901 -0.6564
11414SOL    HW237645   1.705   9.194   0.390 -0.2266  2.4961 -0.0857
11415SOL     OW37646   3.224   1.528   9.354  0.6457 -0.5061 -0.1208
11415SOL    HW137647   3.231   1.500   9.445 -0.5150 -1.3322 -0.2608
11415SOL    HW237648   3.157   1.596   9.356  0.4527 -0.6871 -0.3796
11416SOL     OW37649   4.013   8.119  10.099  0.4618 -0.5118  0.7778
11416SOL    HW137650   4.102   8.092  10.122  0.9120 -0.8822 -1.2719
11416SOL    HW237651   3.962   8.039  10.101 -0.3280 -0.0571  3.7677
11417SOL     OW37652   2.652   8.022   4.142 -0.6417 -0.1071 -0.0822
11417SOL    HW137653   2.630   7.929   4.151 -1.2537  0.1341  1.1516
11417SOL    HW237654   2.624   8.044   4.053  0.5551 -1.3494 -0.8163
11418SOL     OW37655   0.892   5.594  10.610 -0.1416 -0.3155 -0.6884
11418SOL    HW137656   0.957   5.656  10.579 -0.4655  0.3424 -0.0746
11418SOL    HW237657   0.893   5.603  10.705 -1.2313 -0.1826 -0.6764
11419SOL     OW37658   6.418   2.560   6.349  0.0497 -0.1054  0.1045
11419SOL    HW137659   6.476   2.553   6.425  0.9970 -2.3367 -0.7206
11419SOL    HW237660   6.390   2.470   6.334 -1.3460  0.5334 -1.2768
11420SOL     OW37661   7.797   1.820   5.442  0.0161  0.4790  0.3984
11420SOL    HW137662   7.772   1.903   5.482 -0.5507  0.0714  0.9079
11420SOL    HW237663   7.885   1.803   5.476 -0.1819  0.4872  0.9331
11421SOL     OW37664   3.237   9.414   1.141  0.0205  0.0235 -0.4521
11421SOL    HW137665   3.230   9.492   1.196 -1.0365 -0.3648 -0.0177
11421SOL    HW237666   3.147   9.392   1.119  0.3357 -0.8310 -0.9383
11422SOL     OW37667   8.230  10.060   4.720  0.6904 -0.0402 -0.7751
11422SOL    HW137668   8.231  10.138   4.776 -0.5101 -0.0666 -0.6969
11422SOL    HW237669   8.260   9.989   4.777 -0.2680 -0.0196 -0.2309
11423SOL     OW37670   7.298   8.105   9.668  0.2604 -0.2527  0.0079
11423SOL    HW137671   7.284   8.110   9.573  0.1546  1.2208  0.0778
11423SOL    HW237672   7.211   8.085   9.703  0.5673 -2.3384 -0.2609
11424SOL     OW37673   9.922   8.431   8.686  0.8255 -0.2627  0.2574
11424SOL    HW137674   9.942   8.427   8.593  1.4339  4.4793 -0.0778
11424SOL    HW237675   9.996   8.479   8.725 -0.5622  0.0962  2.6884
11425SOL     OW37676   0.270   8.931   7.840  0.2747 -0.3092  0.3202
11425SOL    HW137677   0.326   8.903   7.913  0.9642 -1.0850 -0.4870
11425SOL    HW237678   0.318   8.904   7.761 -0.7902 -0.1209 -0.4110
11426SOL     OW37679   1.825   0.907   8.126  0.1399 -0.2701  0.0767
11426SOL    HW137680   1.765   0.960   8.073 -0.2968 -0.0924  0.7340
11426SOL    HW237681   1.829   0.952   8.210  1.0853 -0.3723  0.0925
11427SOL     OW37682   8.954   7.468   1.107 -0.1957  0.5053  0.1716
11427SOL    HW137683   9.023   7.402   1.105 -0.0371  0.6751 -0.0285
11427SOL    HW237684   8.875   7.421   1.080  0.0424  0.5388 -0.6401
11428SOL     OW37685   9.463   7.960   8.208  0.9069  0.2244  0.5413
11428SOL    HW137686   9.514   7.888   8.245 -0.7647 -0.2787  2.0044
11428SOL    HW237687   9.403   7.985   8.278 -1.3934  0.2400 -1.3158
11429SOL     OW37688   3.150   6.650   0.527 -0.0064  0.6291  0.0596
11429SOL    HW137689   3.118   6.639   0.616  0.3193  2.4558  0.4584
11429SOL    HW237690   3.151   6.745   0.514  0.5579  0.4238 -1.6669
11430SOL     OW37691   1.571   7.690  10.146  0.2227 -0.0135  0.1636
11430SOL    HW137692   1.571   7.642  10.228  0.6656 -0.2764  0.0190
11430SOL    HW237693   1.559   7.623  10.079 -0.2761  0.2148  0.0214
11431SOL     OW37694   2.408   3.582   7.163  0.1373  0.2519  0.1931
11431SOL    HW137695   2.347   3.593   7.089  1.7511 -0.1339 -1.2697
11431SOL    HW237696   2.402   3.665   7.211  0.9119  1.5890 -1.8787
11432SOL     OW37697  10.749   6.572   7.515 -0.0167  0.1565  0.5355
11432SOL    HW137698  10.709   6.610   7.593  0.8908  0.0006  1.0979
11432SOL    HW237699  10.679   6.523   7.473 -0.7651  1.0239  0.7392
11433SOL     OW37700   9.331   6.517   0.757  0.2763 -0.1913  0.3473
11433SOL    HW137701   9.294   6.504   0.845  0.5152  1.8105  0.7907
11433SOL    HW237702   9.326   6.430   0.716 -2.8184 -0.5427  1.1679
11434SOL     OW37703   9.377   7.403   7.092  0.5153 -0.3279 -0.2696
11434SOL    HW137704   9.339   7.491   7.081 -1.5765 -1.2691 -1.2218
11434SOL    HW237705   9.400   7.376   7.003  1.2666 -0.7081  0.0338
11435SOL     OW37706   0.297  10.509   3.866  0.6476  0.8459  0.1687
11435SOL    HW137707   0.373  10.568   3.868  0.1576  1.4776  0.4769
11435SOL    HW237708   0.335  10.421   3.872  1.3435  1.1661  0.6864
11436SOL     OW37709   6.726   6.062   0.188  0.3803 -0.1729  0.6777
11436SOL    HW137710   6.691   6.148   0.210 -1.6457 -0.1994 -1.9344
11436SOL    HW237711   6.762   6.072   0.100  1.2744 -1.7183  0.8241
11437SOL     OW37712   7.544   2.096  10.752 -0.9715 -0.5274 -0.1332
11437SOL    HW137713   7.568   2.186  10.731  0.2320 -0.8784 -0.3611
11437SOL    HW237714   7.450   2.100  10.772 -0.8987  0.8042  0.0659
11438SOL     OW37715  10.370   2.869   3.067 -0.2354 -0.6280 -0.3232
11438SOL    HW137716  10.327   2.851   3.151  2.2726 -1.8240  0.8105
11438SOL    HW237717  10.420   2.950   3.083 -0.5226 -0.3170 -0.9816
11439SOL     OW37718  10.625   9.465  10.222  0.3415 -0.3469  0.2565
11439SOL    HW137719  10.646   9.491  10.312  1.2595 -1.1472  0.2948
11439SOL    HW237720  10.529   9.467  10.218  0.3066  3.0744  0.2087
11440SOL     OW37721   6.179   9.974   2.992 -0.0856  0.2077 -0.4042
11440SOL    HW137722   6.242   9.960   3.062 -0.0989 -0.8412 -0.5829
11440SOL    HW237723   6.094   9.952   3.031 -0.6773  3.3651  0.4082
11441SOL     OW37724   1.696   9.262   4.034 -0.6253 -0.0321 -0.4149
11441SOL    HW137725   1.700   9.252   3.939 -1.9968  2.2846 -0.8016
11441SOL    HW237726   1.748   9.190   4.068  1.4774  0.1180 -2.9753
11442SOL     OW37727   3.275   9.901   3.220  0.3778  0.0430  0.2299
11442SOL    HW137728   3.244   9.854   3.297  1.8113 -3.5728 -1.1938
11442SOL    HW237729   3.365   9.927   3.241  1.2429 -2.1159 -0.5803
11443SOL     OW37730   1.476   7.607   1.562 -0.3990  0.0886  0.3496
11443SOL    HW137731   1.550   7.568   1.515 -0.6546 -0.4247  0.3667
11443SOL    HW237732   1.450   7.682   1.508 -1.3199 -1.0619 -0.8706
11444SOL     OW37733   7.743   1.005   8.725 -0.4446  0.2909  0.1057
11444SOL    HW137734   7.705   1.088   8.755 -2.9338  0.0325 -1.9965
11444SOL    HW237735   7.813   1.033   8.665  0.6548  0.7798  1.5340
11445SOL     OW37736   7.182   0.817   7.821 -0.3604 -0.2560 -0.6325
11445SOL    HW137737   7.170   0.722   7.828  0.7203 -0.4068 -0.5899
11445SOL    HW237738   7.244   0.828   7.750 -0.1892  0.3933 -0.3884
11446SOL     OW37739   0.045   6.269   7.444  0.7218 -0.3942 -0.1109
11446SOL    HW137740   0.128   6.263   7.396  1.4434  1.4338  0.7886
11446SOL    HW237741  -0.022   6.275   7.376  1.3221 -1.6846 -0.8518
11447SOL     OW37742   1.705   4.305   4.885  0.3690 -0.4617  0.1582
11447SOL    HW137743   1.651   4.250   4.828  0.2861 -0.3728  0.1510
11447SOL    HW237744   1.765   4.350   4.825  0.5341 -0.6532  0.1779
11448SOL     OW37745   1.928   8.037   6.940 -0.2388 -0.2497 -0.5113
11448SOL    HW137746   1.870   8.005   6.871 -1.2309 -0.1777  0.2671
11448SOL    HW237747   1.878   8.106   6.983  0.0593 -0.7910  0.7436
11449SOL     OW37748  10.626   3.561   5.826  0.5484 -0.5475 -0.3631
11449SOL    HW137749  10.673   3.636   5.789  1.6118 -0.8947  0.2247
11449SOL    HW237750  10.556   3.599   5.879  2.4525  0.1773  1.7958
11450SOL     OW37751   8.915   2.607   3.709 -0.3431  0.3107 -0.3742
11450SOL    HW137752   8.887   2.698   3.722 -1.2975  0.2261 -1.6507
11450SOL    HW237753   8.990   2.614   3.649 -0.1602  0.2848 -0.1481
11451SOL     OW37754   1.423   3.471   3.863 -0.1875 -0.5286  0.1188
11451SOL    HW137755   1.494   3.450   3.924  0.2564  2.1116  0.6216
11451SOL    HW237756   1.468   3.500   3.784 -0.6099  1.7994  0.6625
11452SOL     OW37757   9.283   6.984   8.057 -0.2596  0.1101 -0.4118
11452SOL    HW137758   9.188   6.982   8.065 -0.2638 -0.0491 -0.4731
11452SOL    HW237759   9.307   6.892   8.042  0.0870 -0.1786  1.6339
11453SOL     OW37760   2.690   8.151   9.171 -0.1929 -0.0040  0.5389
11453SOL    HW137761   2.676   8.147   9.076 -1.0873  1.2631  0.6031
11453SOL    HW237762   2.661   8.238   9.197 -2.3294 -1.1389  2.3384
11454SOL     OW37763   9.313   8.911   4.409  0.3212 -0.4394  0.3226
11454SOL    HW137764   9.385   8.950   4.360 -1.3043  1.6929 -0.5430
11454SOL    HW237765   9.236   8.927   4.354 -0.7613 -3.3980  0.7781
11455SOL     OW37766   4.346   7.575   4.583  0.2458  0.8789 -0.1576
11455SOL    HW137767   4.325   7.496   4.534  1.1338 -0.2684  1.2242
11455SOL    HW237768   4.262   7.619   4.596 -0.5050 -0.6375  0.3449
11456SOL     OW37769  10.549   5.395   2.482  0.0479 -0.5093  0.1026
11456SOL    HW137770  10.515   5.416   2.569 -1.3519  1.2100 -0.8193
11456SOL    HW237771  10.473   5.396   2.425  1.0923 -0.5579 -1.3483
11457SOL     OW37772   6.595   9.424   2.311  0.0991  0.2201  0.1932
11457SOL    HW137773   6.569   9.332   2.307  1.0202 -0.0234 -2.6794
11457SOL    HW237774   6.626   9.443   2.223  1.1235  2.9625  1.0607
11458SOL     OW37775   6.732   5.230   9.756  0.1481 -0.0200  0.5221
11458SOL    HW137776   6.729   5.249   9.662  0.7507 -2.2236 -0.0098
11458SOL    HW237777   6.647   5.260   9.789  0.2094  1.4804 -0.5458
11459SOL     OW37778   5.365   2.328   7.716  0.1080  0.1955 -0.0605
11459SOL    HW137779   5.354   2.330   7.621 -0.6596  0.5179  0.0318
11459SOL    HW237780   5.276   2.320   7.751  0.3725  0.2096  0.6344
11460SOL     OW37781  10.141   7.095   8.234  0.1525  0.3656  0.1223
11460SOL    HW137782  10.151   7.180   8.278  1.4086  0.0157  0.5618
11460SOL    HW237783  10.070   7.051   8.282  0.7645  0.4261  1.1227
11461SOL     OW37784  10.548   7.736   3.932  0.0747  0.4147 -0.2035
11461SOL    HW137785  10.626   7.766   3.885  0.5597 -0.0027  0.3271
11461SOL    HW237786  10.512   7.667   3.876  0.4563  0.1550 -0.1293
11462SOL     OW37787   9.640   2.505   5.389 -0.2558  0.1819  0.5707
11462SOL    HW137788   9.694   2.433   5.422  0.3804  0.4776  0.1883
11462SOL    HW237789   9.665   2.580   5.443 -0.0010  0.4074  0.1511
11463SOL     OW37790   5.441   3.811   8.083  0.2868 -0.0438  0.0130
11463SOL    HW137791   5.369   3.866   8.115 -0.2748 -1.4170  1.2415
11463SOL    HW237792   5.508   3.817   8.152  1.1004  0.7141 -0.8206
11464SOL     OW37793   7.347   5.673   9.005 -0.0858 -0.4651  0.2881
11464SOL    HW137794   7.436   5.686   9.038 -0.3207 -0.4055  0.9143
11464SOL    HW237795   7.309   5.760   9.005  0.0086 -0.4175 -0.4497
11465SOL     OW37796   1.547   7.223   1.952 -0.3031 -0.1809  0.5480
11465SOL    HW137797   1.526   7.254   2.040 -1.8520 -1.9725  0.8744
11465SOL    HW237798   1.472   7.248   1.899  0.0819 -0.1634  0.0087
11466SOL     OW37799   3.018   1.400   1.544 -0.2016  0.2446 -0.1363
11466SOL    HW137800   2.951   1.370   1.484 -0.0004  2.3127 -1.5188
11466SOL    HW237801   3.096   1.413   1.489 -0.1297  2.6009  0.3841
11467SOL     OW37802   5.913   6.839   0.197 -0.1222  0.2284 -0.4506
11467SOL    HW137803   5.903   6.858   0.290  1.2526  0.5151 -0.3413
11467SOL    HW237804   5.907   6.743   0.191 -3.5045  0.3169 -0.5457
11468SOL     OW37805   9.300   4.840  10.422  0.0755  0.0536 -0.1831
11468SOL    HW137806   9.346   4.835  10.506  0.6432 -0.9486 -0.5375
11468SOL    HW237807   9.209   4.858  10.445  0.2395 -0.1520  0.6464
11469SOL     OW37808   7.142   0.528   8.527 -0.2271 -0.6369  0.2721
11469SOL    HW137809   7.122   0.463   8.594  0.6119 -1.8270 -0.5837
11469SOL    HW237810   7.188   0.598   8.574  1.0478 -1.8060  0.8504
11470SOL     OW37811   7.545   8.939   3.631  0.2524 -0.1108 -0.0373
11470SOL    HW137812   7.581   8.899   3.711 -1.5752 -0.9639  0.4249
11470SOL    HW237813   7.601   9.014   3.614  1.8470 -1.0179  0.9523
11471SOL     OW37814   4.719   4.749  10.610 -0.4482  0.0154 -0.4691
11471SOL    HW137815   4.721   4.806  10.533 -1.4278 -1.4991 -1.6719
11471SOL    HW237816   4.668   4.798  10.675 -0.6947  0.7886 -1.2246
11472SOL     OW37817   0.673   0.620   3.542 -0.1994  0.3470 -0.7065
11472SOL    HW137818   0.732   0.613   3.618 -0.2170 -0.7544 -0.7790
11472SOL    HW237819   0.640   0.709   3.546  1.6745  1.0915 -0.8160
11473SOL     OW37820   2.168   3.718  10.890  0.2266 -0.2248 -0.5909
11473SOL    HW137821   2.202   3.631  10.870  0.1420  0.0748 -2.1158
11473SOL    HW237822   2.214   3.776  10.830 -1.4708  0.4580 -1.2885
11474SOL     OW37823   4.932   8.777  10.866 -0.1731 -0.3820  0.3486
11474SOL    HW137824   4.862   8.712  10.862 -0.0192 -0.5377  0.2086
11474SOL    HW237825   4.908   8.834  10.940 -1.2183  0.4334 -0.5837
11475SOL     OW37826   0.883   9.591   6.621 -0.4296 -0.2174  0.6024
11475SOL    HW137827   0.824   9.595   6.696 -1.5597 -1.4501 -0.1523
11475SOL    HW237828   0.934   9.511   6.634 -2.3595 -1.8433 -1.0498
11476SOL     OW37829   5.436   0.093   1.267 -0.8836  0.2033 -0.4082
11476SOL    HW137830   5.521   0.091   1.223 -0.8469 -0.1911 -0.3230
11476SOL    HW237831   5.457   0.120   1.357 -0.7054 -0.9902 -0.0800
11477SOL     OW37832   5.427   1.828   7.969  0.4794 -0.6117  0.1100
11477SOL    HW137833   5.417   1.854   7.877  1.3052  2.9690  0.9009
11477SOL    HW237834   5.509   1.868   7.997  0.1995 -1.5192  2.4750
11478SOL     OW37835   6.797   4.778   3.049  0.1048 -0.2396  0.2067
11478SOL    HW137836   6.830   4.828   2.974 -2.1119  1.5404  0.3362
11478SOL    HW237837   6.786   4.689   3.015 -0.4646  0.4395 -1.4848
11479SOL     OW37838   5.675   0.728   2.286  0.7513  0.0607  0.4417
11479SOL    HW137839   5.599   0.779   2.314 -1.4552 -2.3717 -0.7016
11479SOL    HW237840   5.713   0.696   2.368  0.3953  1.0535  1.0221
11480SOL     OW37841   1.916   1.313   6.622  0.4281 -0.3620  0.5969
11480SOL    HW137842   1.980   1.256   6.664 -0.5112 -2.1747 -0.3126
11480SOL    HW237843   1.845   1.254   6.597 -0.9517  1.3562  0.2995
11481SOL     OW37844   2.841   0.623   2.493 -0.5272  0.0961  0.0072
11481SOL    HW137845   2.934   0.623   2.512 -0.5817 -1.2674  0.4163
11481SOL    HW237846   2.831   0.561   2.420 -1.1474  0.0012  0.1638
11482SOL     OW37847   7.143   5.092  10.514  0.0699 -0.1121 -0.1725
11482SOL    HW137848   7.167   5.091  10.422  1.8208 -1.0691  0.2383
11482SOL    HW237849   7.150   5.184  10.541 -1.3143  0.3144 -1.1513
11483SOL     OW37850   1.766   3.393   4.384  0.7332  0.5460 -0.0884
11483SOL    HW137851   1.750   3.465   4.445  1.3115  0.3394  0.3267
11483SOL    HW237852   1.714   3.320   4.418  0.0968  0.7827 -0.5456
11484SOL     OW37853   5.226   7.573   1.960 -0.0386  0.0646  0.4622
11484SOL    HW137854   5.251   7.548   1.871 -1.3026 -1.2612  0.4289
11484SOL    HW237855   5.134   7.599   1.952  0.3886  1.8507  1.0597
11485SOL     OW37856   9.783   0.339   4.239  0.0448  0.0856  0.1836
11485SOL    HW137857   9.719   0.279   4.278  0.5582 -0.7156 -0.1705
11485SOL    HW237858   9.744   0.426   4.248 -0.3841 -0.2084  1.3931
11486SOL     OW37859   7.953   0.374   6.458 -0.0280 -0.1124 -0.2758
11486SOL    HW137860   7.964   0.344   6.368  1.8044 -0.6737  0.0992
11486SOL    HW237861   7.969   0.296   6.512 -0.6049  0.3260  0.5642
11487SOL     OW37862   2.675   8.399   0.659  0.3200  0.1720 -0.2280
11487SOL    HW137863   2.673   8.327   0.596 -1.3759  0.6224 -0.7529
11487SOL    HW237864   2.754   8.448   0.637  1.3870 -1.3898  0.0109
11488SOL     OW37865   7.812   3.375   1.845 -0.4853 -0.5868  0.1863
11488SOL    HW137866   7.867   3.438   1.891 -1.8462  0.0297  1.0232
11488SOL    HW237867   7.722   3.399   1.869 -1.1843 -1.0648 -1.7447
11489SOL     OW37868   4.340   5.069   0.896  0.5386  0.4795 -0.3711
11489SOL    HW137869   4.258   5.118   0.896  1.0310  1.3480  0.3928
11489SOL    HW237870   4.407   5.136   0.914  1.3542 -0.2925 -0.4909
11490SOL     OW37871   6.427   2.273   4.954  0.1034 -0.4460 -0.1665
11490SOL    HW137872   6.367   2.202   4.929 -0.6741 -0.0207  0.4217
11490SOL    HW237873   6.373   2.331   5.009  0.0095  1.8700 -2.5124
11491SOL     OW37874   4.507   4.097   8.509  0.2589 -0.0333  0.1158
11491SOL    HW137875   4.574   4.100   8.442 -0.2795  1.0312 -0.4041
11491SOL    HW237876   4.541   4.151   8.580  0.0720  0.3037 -0.0465
11492SOL     OW37877   5.959   7.322   5.420 -0.4675  0.1158  0.0316
11492SOL    HW137878   6.046   7.357   5.404 -0.4783 -0.1072 -0.5204
11492SOL    HW237879   5.969   7.227   5.411 -0.9080  0.1330 -0.7238
11493SOL     OW37880   5.292   4.750   2.435  0.6259 -0.0565 -0.1590
11493SOL    HW137881   5.271   4.706   2.518 -1.4986  0.0177 -0.5978
11493SOL    HW237882   5.349   4.688   2.390  1.5181 -0.2642  1.1723
11494SOL     OW37883   7.768   7.768   9.696  0.5396  0.1182  0.6425
11494SOL    HW137884   7.835   7.700   9.709  0.5812 -0.1051 -0.6034
11494SOL    HW237885   7.736   7.752   9.607  1.0264  2.1505  0.0588
11495SOL     OW37886   0.678   5.530   8.437 -0.9198  0.2783  0.2430
11495SOL    HW137887   0.618   5.512   8.509  0.8417  2.2444  2.3790
11495SOL    HW237888   0.756   5.479   8.457 -0.8411 -0.1099 -0.9814
11496SOL     OW37889   4.987   8.696  10.160  0.0249 -0.6502 -0.2649
11496SOL    HW137890   5.005   8.648  10.079  0.8696  0.6796 -0.9041
11496SOL    HW237891   5.029   8.644  10.228 -1.5496 -2.3318 -0.4917
11497SOL     OW37892  10.239   6.673   1.561 -0.1933  0.3734 -0.0080
11497SOL    HW137893  10.320   6.680   1.613 -0.5838  0.7403  0.5579
11497SOL    HW237894  10.263   6.614   1.489 -0.0146 -1.2927  1.3401
11498SOL     OW37895   3.671   7.936   4.378  0.7094 -0.7692 -0.2769
11498SOL    HW137896   3.665   8.004   4.311  0.1119  1.5020  1.9333
11498SOL    HW237897   3.597   7.878   4.359  0.5175 -0.1627 -1.5287
11499SOL     OW37898   2.206   6.213   8.344 -0.4758 -0.6832  0.3119
11499SOL    HW137899   2.241   6.128   8.371 -0.1666 -0.2115  1.4872
11499SOL    HW237900   2.168   6.198   8.258  3.3394 -1.0830 -1.5279
11500SOL     OW37901   7.305   7.596  10.633  0.4137 -0.4544 -0.2515
11500SOL    HW137902   7.351   7.660  10.578  0.1800 -0.4823 -0.4779
11500SOL    HW237903   7.355   7.596  10.715 -0.1175  0.6817  0.0859
11501SOL     OW37904   0.517   6.604   8.794 -0.1790  0.3008 -0.5269
11501SOL    HW137905   0.511   6.572   8.704 -0.9390 -1.1632  0.0067
11501SOL    HW237906   0.486   6.530   8.847  0.0164  1.2291  0.9152
11502SOL     OW37907   2.031  10.456   2.773 -0.3033  0.2742  0.1899
11502SOL    HW137908   2.036  10.440   2.678  1.9641  2.6028 -0.2015
11502SOL    HW237909   2.120  10.437   2.805 -0.7649  0.4868  1.6689
11503SOL     OW37910   6.467   1.911   6.221 -0.1088  0.2575 -0.3130
11503SOL    HW137911   6.376   1.889   6.200 -0.0219  0.5310 -0.9910
11503SOL    HW237912   6.506   1.827   6.245 -0.5947  0.1735  0.2150
11504SOL     OW37913   8.438   9.711   6.386 -0.0986 -0.3062 -0.5894
11504SOL    HW137914   8.387   9.714   6.466  2.3380 -2.1117  1.1768
11504SOL    HW237915   8.383   9.663   6.324 -2.6576  2.4133 -0.6660
11505SOL     OW37916   0.418   3.820   4.237  0.3303 -0.2179 -0.3283
11505SOL    HW137917   0.482   3.762   4.277 -0.8711 -0.2537  1.6820
11505SOL    HW237918   0.364   3.763   4.183 -1.1517 -1.1691  2.0206
11506SOL     OW37919   0.837   5.190  10.672  0.2961 -0.1248  0.0012
11506SOL    HW137920   0.850   5.192  10.578 -0.2864  0.4961 -0.0731
11506SOL    HW237921   0.920   5.156  10.707  1.4813  1.9571 -0.5596
11507SOL     OW37922   8.014   9.039   8.231  0.0255  0.5418  0.0068
11507SOL    HW137923   8.022   9.067   8.140  1.0351 -2.0488 -0.7911
11507SOL    HW237924   8.073   9.098   8.279  2.8952 -0.6649 -1.7327
11508SOL     OW37925  10.085   9.235   4.897  0.2298  0.0472  1.2587
11508SOL    HW137926  10.165   9.219   4.846 -0.4555  0.7128 -0.0754
11508SOL    HW237927  10.107   9.311   4.952  1.2500 -1.1893  2.6309
11509SOL     OW37928  10.741   4.470   0.139  0.0488  0.4988 -0.1109
11509SOL    HW137929  10.802   4.438   0.072  0.3513  0.9880 -0.0719
11509SOL    HW237930  10.788   4.541   0.183 -1.2738  2.2492 -1.3837
11510SOL     OW37931   1.903   6.008   9.532  0.2666 -0.1379 -0.0699
11510SOL    HW137932   1.849   5.975   9.604  0.6152 -1.6847 -0.4686
11510SOL    HW237933   1.937   5.929   9.490  1.0226  0.7599 -1.2103
11511SOL     OW37934   9.496   9.514   4.782 -0.3294 -0.1588  0.0115
11511SOL    HW137935   9.404   9.496   4.802 -0.2191 -0.5849  0.1574
11511SOL    HW237936   9.545   9.466   4.849 -0.0369  2.0076  1.4058
11512SOL     OW37937   9.049   9.500   6.953  0.6378 -0.6070  0.4930
11512SOL    HW137938   8.964   9.508   6.995  0.1314 -0.3067 -0.5849
11512SOL    HW237939   9.034   9.519   6.861  1.2845 -3.4800 -0.3172
11513SOL     OW37940   7.490   8.546   8.389 -0.3489  0.3103 -0.2548
11513SOL    HW137941   7.520   8.480   8.451  0.2806  2.0100  1.3787
11513SOL    HW237942   7.531   8.522   8.306  0.6074 -0.8206  0.5125
11514SOL     OW37943   0.999   2.834   4.797  0.3952  0.0376 -0.0395
11514SOL    HW137944   1.079   2.794   4.765  0.8485  0.6668  0.2820
11514SOL    HW237945   0.967   2.885   4.723  0.6882  0.3681  0.0585
11515SOL     OW37946   7.138   0.154   7.468  0.3916 -0.0458  0.0474
11515SOL    HW137947   7.115   0.247   7.456 -1.6680 -0.6545 -1.2275
11515SOL    HW237948   7.058   0.114   7.502  1.4864 -1.2617  1.3368
11516SOL     OW37949  10.719   0.931   2.357 -0.0552  0.5125 -0.1682
11516SOL    HW137950  10.698   1.024   2.367  0.2443  0.4729  0.9871
11516SOL    HW237951  10.795   0.917   2.413 -0.4178 -0.5506  0.0860
11517SOL     OW37952   5.447   7.270   5.910 -0.8195 -0.1929 -0.3589
11517SOL    HW137953   5.367   7.217   5.908 -0.1381 -1.5008  2.5076
11517SOL    HW237954   5.511   7.219   5.862 -1.4512  0.5071 -2.0155
11518SOL     OW37955  10.640   5.269   4.934 -0.3983 -0.3496 -0.3320
11518SOL    HW137956  10.593   5.232   4.860 -0.7399 -3.1384  1.1042
11518SOL    HW237957  10.714   5.210   4.947 -0.0595  0.3581  1.2176
11519SOL     OW37958   1.120  10.021   6.178  0.0767  0.0411 -0.0500
11519SOL    HW137959   1.045  10.028   6.237 -1.0141  1.8965 -1.5665
11519SOL    HW237960   1.196  10.021   6.236 -0.8489  3.4740  1.3926
11520SOL     OW37961   7.427   8.100   3.684 -0.3374 -0.1873 -0.1750
11520SOL    HW137962   7.438   8.107   3.589 -0.0511 -0.5444 -0.1702
11520SOL    HW237963   7.514   8.078   3.717 -0.1115  1.3974  0.3279
11521SOL     OW37964   8.840   7.801   5.499 -0.1265  0.7308 -0.3114
11521SOL    HW137965   8.851   7.801   5.404  0.1900  2.1327 -0.2949
11521SOL    HW237966   8.751   7.768   5.513 -0.3791  1.0510 -1.1247
11522SOL     OW37967   2.970   3.104   6.930  0.4971  0.1895  0.8248
11522SOL    HW137968   2.989   3.082   7.021  0.9027  1.0556  0.9573
11522SOL    HW237969   3.013   3.035   6.880  1.1567  0.2746  1.2528
11523SOL     OW37970   0.059  10.619   7.922  0.5907  0.0474  0.1053
11523SOL    HW137971   0.140  10.670   7.922 -0.3871  1.6690 -0.2163
11523SOL    HW237972   0.034  10.615   7.830  0.2741 -0.4002  0.2105
11524SOL     OW37973   2.257   7.033   1.118 -0.0100  0.0416 -0.0352
11524SOL    HW137974   2.283   7.117   1.082  0.4360 -0.2307 -0.3709
11524SOL    HW237975   2.164   7.042   1.137  0.5334  1.4496  2.3353
11525SOL     OW37976  10.229   9.830   2.260  0.2201 -0.4033  0.1844
11525SOL    HW137977  10.208   9.834   2.354 -0.7614  0.8378 -0.0533
11525SOL    HW237978  10.144   9.832   2.217  0.6806  1.0501 -0.7578
11526SOL     OW37979   7.257   5.207   3.780 -0.6110 -0.9297  0.2680
11526SOL    HW137980   7.325   5.200   3.713  0.9553 -0.6848  1.7807
11526SOL    HW237981   7.177   5.226   3.730  0.4039 -1.1649 -1.5526
11527SOL     OW37982   3.159   7.892   8.900  0.3313  0.1753 -0.2714
11527SOL    HW137983   3.128   7.835   8.829 -0.5838  0.3538 -0.0249
11527SOL    HW237984   3.169   7.833   8.975  0.0069  0.2257 -0.1889
11528SOL     OW37985   2.937   5.061   6.048  0.4372  0.0346  0.1081
11528SOL    HW137986   2.997   5.108   6.106 -0.1923 -0.2632  1.0075
11528SOL    HW237987   2.995   5.015   5.987  1.0704  1.7218 -0.6136
11529SOL     OW37988   0.252   6.106   3.417  0.4635 -0.4617  0.0104
11529SOL    HW137989   0.210   6.041   3.361 -1.7536 -0.7854  1.9049
11529SOL    HW237990   0.226   6.190   3.380 -1.6885 -0.6605  0.9052
11530SOL     OW37991  10.729   4.817   4.653  0.6781  0.0777 -0.0464
11530SOL    HW137992  10.820   4.828   4.678  0.8082 -0.7578 -0.1143
11530SOL    HW237993  10.679   4.848   4.729  0.9638  1.9443 -0.5659
11531SOL     OW37994   1.574   3.017   1.704 -0.8264 -0.2496  0.5346
11531SOL    HW137995   1.617   3.089   1.750  0.5725 -0.2649 -0.6729
11531SOL    HW237996   1.519   2.975   1.771  2.5661 -1.4997  2.7902
11532SOL     OW37997   3.444   4.257   4.343  0.0602  0.0254 -0.4869
11532SOL    HW137998   3.463   4.341   4.384  0.6964 -0.9847  1.4278
11532SOL    HW237999   3.353   4.239   4.365  0.7356 -1.0837  1.7253
11533SOL     OW38000   7.932   9.713   7.359 -0.2537 -0.4134  0.0585
11533SOL    HW138001   7.968   9.625   7.355  2.1192  0.0380  5.0712
11533SOL    HW238002   8.006   9.771   7.342 -1.1847  0.6592 -0.5312
11534SOL     OW38003   3.189   0.269   5.245 -0.0165  0.3972  0.7812
11534SOL    HW138004   3.210   0.265   5.151 -0.7572 -0.7989  0.6523
11534SOL    HW238005   3.257   0.215   5.287 -0.9384 -0.8710  0.6890
11535SOL     OW38006   1.912   7.323   3.863 -0.3842  0.7459  0.4294
11535SOL    HW138007   1.927   7.407   3.906  0.9734  1.3641 -1.1291
11535SOL    HW238008   2.000   7.292   3.840 -0.9992  0.3919 -1.6804
11536SOL     OW38009   1.354   8.342   6.175  0.1074  0.6429 -0.0994
11536SOL    HW138010   1.322   8.407   6.112  1.2718  0.3284 -1.0511
11536SOL    HW238011   1.275   8.308   6.217 -0.8167  0.1127 -2.1352
11537SOL     OW38012   4.440   2.812   1.189 -0.8179 -0.1896 -0.7574
11537SOL    HW138013   4.534   2.798   1.177 -0.7764 -0.2873 -0.3336
11537SOL    HW238014   4.412   2.738   1.244 -0.8867  0.5560  0.2456
11538SOL     OW38015   1.279   6.076   5.095  0.1987 -0.5527  0.8055
11538SOL    HW138016   1.244   6.104   5.011  0.8190  0.1546  0.7693
11538SOL    HW238017   1.203   6.041   5.142 -0.2361 -0.5381  0.1248
11539SOL     OW38018  10.762   4.806   7.898  0.0628 -0.1330 -0.4683
11539SOL    HW138019  10.794   4.855   7.975 -1.0158 -0.4299  0.1954
11539SOL    HW238020  10.686   4.758   7.931 -1.9145  1.5785 -2.2560
11540SOL     OW38021   7.920   6.529   5.466 -0.1383  0.1405 -0.3111
11540SOL    HW138022   7.915   6.615   5.426  1.4757  0.3455 -0.1545
11540SOL    HW238023   7.966   6.544   5.549  0.1287 -0.8538 -0.2688
11541SOL     OW38024   6.826  10.698   0.364  0.3980 -0.1390 -0.3190
11541SOL    HW138025   6.868  10.782   0.386 -0.8839  0.2942  0.5730
11541SOL    HW238026   6.777  10.716   0.284 -0.3876  0.1709  0.2116
11542SOL     OW38027  10.374  10.861   7.517  0.4434 -0.0519  0.2141
11542SOL    HW138028  10.453  10.812   7.541 -0.8470 -2.8256 -0.6956
11542SOL    HW238029  10.312  10.793   7.490 -1.6453  2.1412 -0.8476
11543SOL     OW38030   1.783   0.421  10.031  0.1285  0.0347  0.4898
11543SOL    HW138031   1.789   0.335  10.071  0.5035 -0.1319  0.0769
11543SOL    HW238032   1.832   0.478  10.090  1.9238 -0.4698 -0.4443
11544SOL     OW38033   1.830   6.296   6.385 -0.0955 -0.4034  0.0569
11544SOL    HW138034   1.830   6.381   6.429  1.6061 -1.1522  1.6213
11544SOL    HW238035   1.911   6.296   6.334 -0.1825 -1.0289 -0.0845
11545SOL     OW38036   1.607   2.284   5.146  0.2785  0.0444  0.2143
11545SOL    HW138037   1.520   2.264   5.181 -0.6440  0.2082 -1.8225
11545SOL    HW238038   1.622   2.375   5.169 -0.6894  0.4055 -0.5180
11546SOL     OW38039   9.952   2.445   2.250 -0.0709 -0.3230 -0.2339
11546SOL    HW138040   9.884   2.403   2.304  0.5787 -0.7814  0.2382
11546SOL    HW238041  10.029   2.447   2.306  0.2676  0.3343 -0.7205
11547SOL     OW38042   8.221   9.306  10.385  0.1692 -0.3438 -0.3566
11547SOL    HW138043   8.291   9.241  10.373  1.1154  0.2442  1.6176
11547SOL    HW238044   8.174   9.276  10.463 -0.4549  0.4152 -0.4321
11548SOL     OW38045  10.577   9.250   4.872 -0.6794  0.2499 -0.9416
11548SOL    HW138046  10.502   9.229   4.927 -1.1738 -0.7521 -1.9739
11548SOL    HW238047  10.614   9.329   4.912 -0.8831 -0.5641  0.9474
11549SOL     OW38048   5.868   4.383   1.151  0.0887 -0.0483  0.3650
11549SOL    HW138049   5.926   4.313   1.180 -0.1910 -0.2971  0.3351
11549SOL    HW238050   5.806   4.340   1.092  0.7990  0.5016 -0.7977
11550SOL     OW38051   6.320   2.009   7.073 -0.1081  0.0412  0.5928
11550SOL    HW138052   6.390   1.994   7.009 -0.5174  0.1907  0.0934
11550SOL    HW238053   6.272   2.084   7.037 -0.5373 -0.0795  0.9129
11551SOL     OW38054   6.702   4.376   9.076 -0.4486  0.0094  0.2218
11551SOL    HW138055   6.721   4.321   9.000 -2.3203 -0.9358  0.3836
11551SOL    HW238056   6.731   4.323   9.151  0.5211  0.5422  0.2392
11552SOL     OW38057   1.845   9.751   4.823 -0.0320  0.3605 -0.4670
11552SOL    HW138058   1.806   9.672   4.862  0.8139 -0.8072 -1.9068
11552SOL    HW238059   1.869   9.805   4.899 -0.8839 -0.6280  0.5443
11553SOL     OW38060   5.959   2.212   4.491 -0.1140  0.1182  0.0933
11553SOL    HW138061   6.036   2.165   4.458  0.2760  0.4153  0.5661
11553SOL    HW238062   5.964   2.298   4.450 -1.3011 -0.5103 -1.4529
11554SOL     OW38063   9.289   7.638   7.042 -0.0351 -0.3914  0.2305
11554SOL    HW138064   9.216   7.664   7.098  0.7204  1.4705  0.4353
11554SOL    HW238065   9.265   7.672   6.955  0.4826  0.0541  0.2570
11555SOL     OW38066   0.251   6.798   0.529 -0.2235 -0.4078  0.0324
11555SOL    HW138067   0.174   6.819   0.476  0.1389  0.7154 -0.0624
11555SOL    HW238068   0.250   6.862   0.600  0.6130 -0.3925  0.0399
11556SOL     OW38069   8.174   6.168   3.463 -0.0661 -0.1221 -0.0405
11556SOL    HW138070   8.171   6.074   3.442  1.2597 -0.0127 -0.8644
11556SOL    HW238071   8.125   6.209   3.392 -1.0663 -0.2174  0.5854
11557SOL     OW38072   7.348   1.521   5.177 -0.7241 -0.4010 -0.3673
11557SOL    HW138073   7.283   1.492   5.114 -0.5617  0.5522 -0.9921
11557SOL    HW238074   7.298   1.573   5.241 -0.6356  0.0218 -0.6409
11558SOL     OW38075  10.596   9.252   2.560  0.0708 -0.7905 -0.8784
11558SOL    HW138076  10.657   9.222   2.628  1.2173  0.8160 -1.1425
11558SOL    HW238077  10.638   9.330   2.523 -1.1265 -0.8928 -2.5710
11559SOL     OW38078   3.084  10.048   3.581 -0.4391 -0.6478  0.0674
11559SOL    HW138079   3.083  10.142   3.595 -0.3869 -0.4305 -1.3192
11559SOL    HW238080   3.088  10.011   3.670 -0.8856  0.6295  0.6428
11560SOL     OW38081   1.601  10.318   5.248  0.4184 -0.4128 -0.6207
11560SOL    HW138082   1.568  10.343   5.162  0.3227 -1.2228 -0.8238
11560SOL    HW238083   1.671  10.255   5.229  1.5108  0.6353 -0.1659
11561SOL     OW38084   1.333   4.071   5.611 -0.2833  0.3405  0.0666
11561SOL    HW138085   1.306   4.076   5.519  0.2268 -1.1041 -0.1931
11561SOL    HW238086   1.364   3.981   5.621  2.1185  1.1870  0.9620
11562SOL     OW38087  10.677   7.085   9.921 -0.0834  0.1102 -0.5101
11562SOL    HW138088  10.672   6.989   9.913  2.3660 -0.1611  0.4214
11562SOL    HW238089  10.717   7.113   9.839  0.4740  0.1839 -0.2139
11563SOL     OW38090   4.355   5.309   4.461  0.5456  0.1374 -0.0533
11563SOL    HW138091   4.448   5.299   4.441  0.4199 -0.0228 -0.5890
11563SOL    HW238092   4.322   5.366   4.391  0.7371  2.2674  1.5124
11564SOL     OW38093   7.802   5.060   8.871 -0.1926  0.2958  0.1815
11564SOL    HW138094   7.879   5.085   8.819 -0.4570 -0.7562 -0.7493
11564SOL    HW238095   7.730   5.109   8.832 -0.4664 -0.8114 -0.7526
11565SOL     OW38096  10.061  10.884   4.203 -0.1185  0.0506 -0.3095
11565SOL    HW138097   9.973  10.906   4.172 -0.6534 -2.0102 -0.4248
11565SOL    HW238098  10.120  10.928   4.141 -1.0738  0.5938 -0.8553
11566SOL     OW38099   0.384   9.503  10.616  0.0936  0.9158  0.0548
11566SOL    HW138100   0.374   9.432  10.553 -1.6281  1.2668 -0.1154
11566SOL    HW238101   0.354   9.581  10.570 -3.9868  0.7709  2.0125
11567SOL     OW38102   9.628   7.774   4.724 -0.3430  0.6338 -0.1178
11567SOL    HW138103   9.715   7.734   4.715  0.4595  1.4983  2.6633
11567SOL    HW238104   9.620   7.830   4.647  1.2840  0.0244 -0.7883
11568SOL     OW38105   6.191   3.758   6.329  0.0396 -0.2742  0.4943
11568SOL    HW138106   6.207   3.689   6.392  0.3870  0.0495  0.7623
11568SOL    HW238107   6.197   3.840   6.379  1.9686  0.0841 -0.2499
11569SOL     OW38108   7.165   5.230   5.280 -0.0021  0.1767  0.0584
11569SOL    HW138109   7.158   5.282   5.361  0.2766  1.2686 -0.5936
11569SOL    HW238110   7.109   5.276   5.218  1.4245  0.5898 -0.9766
11570SOL     OW38111   9.082   3.844   0.740  0.0247  0.1305  0.1316
11570SOL    HW138112   9.090   3.766   0.685  1.5272 -0.1554  0.7274
11570SOL    HW238113   9.062   3.810   0.828  1.7694  0.3241  0.6279
11571SOL     OW38114   7.895   6.636   1.384  0.3786 -0.5864  0.0389
11571SOL    HW138115   7.910   6.561   1.441  1.0379 -0.3580  0.1822
11571SOL    HW238116   7.894   6.599   1.296 -0.5560 -0.9266  0.1929
11572SOL     OW38117   5.516   2.217   6.620 -0.5579 -0.0145  0.2907
11572SOL    HW138118   5.447   2.244   6.680  0.1765 -0.9702  1.6182
11572SOL    HW238119   5.590   2.274   6.640  0.1158 -1.1861  1.2331
11573SOL     OW38120   1.690   1.090   2.085  0.0634  0.0339  0.4881
11573SOL    HW138121   1.735   1.008   2.064 -1.0067 -0.2744 -0.6858
11573SOL    HW238122   1.740   1.125   2.159  0.2745 -1.9076  1.3444
11574SOL     OW38123   2.038   3.423   4.530  0.1073 -0.0453 -0.2741
11574SOL    HW138124   1.979   3.393   4.460 -0.5709  0.5523  0.0271
11574SOL    HW238125   2.082   3.500   4.493 -1.1792  1.0414  0.3631
11575SOL     OW38126   3.537   3.781   5.739  0.1075 -0.0965 -0.2585
11575SOL    HW138127   3.576   3.720   5.677  1.0767 -0.2579  0.4908
11575SOL    HW238128   3.466   3.731   5.780 -0.1589 -0.1754 -0.7950
11576SOL     OW38129   5.604   4.118   7.127  0.4739  0.0786 -0.2750
11576SOL    HW138130   5.629   4.189   7.069  0.1087  1.0708  0.7463
11576SOL    HW238131   5.627   4.149   7.215 -0.1438 -0.8542  0.2324
11577SOL     OW38132   7.623   7.870   2.073  0.1719 -0.2019  0.0951
11577SOL    HW138133   7.542   7.827   2.101  0.9118 -1.1923  0.8010
11577SOL    HW238134   7.642   7.933   2.142  0.5917 -0.7721  0.5095
11578SOL     OW38135   4.743   0.479   1.997  0.1286  0.4123  0.1970
11578SOL    HW138136   4.828   0.444   1.970  1.5083  3.0195  0.8017
11578SOL    HW238137   4.714   0.531   1.922 -0.2844  0.5892  0.4772
11579SOL     OW38138   2.633   3.093   9.445  0.3732  0.5332  0.2295
11579SOL    HW138139   2.717   3.127   9.475  0.0225  0.7477  1.0198
11579SOL    HW238140   2.619   3.015   9.498  0.1814  0.3761 -0.0540
11580SOL     OW38141   9.457   6.410  10.707 -0.2691  0.2591 -0.4750
11580SOL    HW138142   9.418   6.323  10.716  2.5166 -1.3196 -2.0731
11580SOL    HW238143   9.387   6.463  10.669 -1.4599 -1.8760 -1.5175
11581SOL     OW38144   3.700   1.805   8.664 -0.2903  0.5125 -0.1506
11581SOL    HW138145   3.608   1.805   8.692  0.7541 -0.4040  4.0476
11581SOL    HW238146   3.726   1.897   8.669 -0.5233  0.5475  0.5517
11582SOL     OW38147   4.546   3.580   8.088 -0.1715 -0.8494 -0.2187
11582SOL    HW138148   4.455   3.598   8.062 -0.5193 -0.0222  1.4399
11582SOL    HW238149   4.537   3.526   8.167  0.6957  1.1286  1.3063
11583SOL     OW38150   3.633   1.812   9.702 -0.1990  0.0542  0.0924
11583SOL    HW138151   3.574   1.851   9.636 -1.7370 -2.2734 -0.0037
11583SOL    HW238152   3.717   1.807   9.657 -0.4245  1.3760 -0.5692
11584SOL     OW38153   0.678   9.729   1.964  0.6512 -0.3270  0.2306
11584SOL    HW138154   0.769   9.702   1.959  0.4956 -0.8426  0.1387
11584SOL    HW238155   0.678   9.803   2.025  1.0087 -0.8623  0.8987
11585SOL     OW38156   9.285   6.891   5.547  0.4538 -0.2829 -0.1501
11585SOL    HW138157   9.223   6.859   5.613  0.3230 -2.0474 -1.0576
11585SOL    HW238158   9.370   6.888   5.590  0.3491 -1.2618  0.0099
11586SOL     OW38159  10.746   1.078   8.024  0.2354 -0.9674 -0.0000
11586SOL    HW138160  10.701   1.069   7.940  0.8495  0.7977 -0.5597
11586SOL    HW238161  10.837   1.098   8.000  0.3911 -0.3077  1.0791
11587SOL     OW38162   2.053  10.029   7.088  0.2511 -0.3224 -0.1673
11587SOL    HW138163   2.040  10.124   7.094  0.4886 -0.2958 -0.0724
11587SOL    HW238164   1.992  10.001   7.020  0.6477 -0.0057 -0.6677
11588SOL     OW38165   1.348   9.468   7.734 -0.3983 -0.3258  0.2485
11588SOL    HW138166   1.273   9.522   7.711 -0.3713 -0.9500 -1.4678
11588SOL    HW238167   1.326   9.380   7.701  1.0072 -0.5505 -0.1779
11589SOL     OW38168   0.197   9.607   7.937 -0.0066  0.6274  0.1308
11589SOL    HW138169   0.281   9.566   7.959  0.3740  2.2632  2.0856
11589SOL    HW238170   0.155   9.620   8.022 -1.4361  1.5042 -0.6777
11590SOL     OW38171   6.685   8.261   5.598  0.1380 -1.0564 -0.1296
11590SOL    HW138172   6.712   8.178   5.560  3.6651 -0.1552  0.0371
11590SOL    HW238173   6.672   8.319   5.524 -0.9964 -1.3457 -0.1832
11591SOL     OW38174   2.559  10.600   0.940  0.8150 -0.1370 -0.4029
11591SOL    HW138175   2.584  10.675   0.994  0.3812 -0.3725  0.1285
11591SOL    HW238176   2.538  10.531   1.002  0.7000 -0.5393 -0.8811
11592SOL     OW38177   6.170   3.188  10.707 -0.6081 -0.0648  0.0553
11592SOL    HW138178   6.185   3.186  10.613 -0.9477  0.1269 -0.0062
11592SOL    HW238179   6.191   3.278  10.732  2.2366 -0.7986  0.6505
11593SOL     OW38180   6.272   0.989   4.766  0.0044  0.4002 -0.2086
11593SOL    HW138181   6.202   1.052   4.783 -0.4993  0.6742 -2.8474
11593SOL    HW238182   6.249   0.912   4.818 -1.2401  1.1570  0.3939
11594SOL     OW38183   4.774   9.920   5.589 -0.5892  0.0883 -0.6892
11594SOL    HW138184   4.792   9.826   5.588  1.7621  0.4849 -0.4199
11594SOL    HW238185   4.822   9.955   5.514  0.5733  1.3648  0.5919
11595SOL     OW38186   2.549   6.202   9.293  0.2325 -0.0993 -0.3425
11595SOL    HW138187   2.543   6.159   9.379 -2.2575 -1.8518 -1.2688
11595SOL    HW238188   2.537   6.131   9.230  2.0861  1.1243 -2.2127
11596SOL     OW38189   1.392   9.579   8.550  0.1190  0.0647 -0.0506
11596SOL    HW138190   1.371   9.650   8.490  1.5638  0.5209 -0.0511
11596SOL    HW238191   1.388   9.500   8.496 -1.7677  0.0732  0.0138
11597SOL     OW38192   5.217   2.824   1.677 -0.9273 -0.0793 -0.7235
11597SOL    HW138193   5.241   2.802   1.767  0.8599  1.1756 -0.8339
11597SOL    HW238194   5.267   2.762   1.623 -1.8568 -0.7133 -0.8823
11598SOL     OW38195   7.956  10.207   6.439 -0.3015 -0.1346  0.6031
11598SOL    HW138196   7.943  10.251   6.355 -2.2810 -3.3987 -1.0385
11598SOL    HW238197   7.882  10.235   6.492  0.1609  0.8392  0.7479
11599SOL     OW38198   1.368   4.633   8.565  0.0619  0.2042  0.0847
11599SOL    HW138199   1.449   4.681   8.547 -0.0502  0.8161  1.1436
11599SOL    HW238200   1.359   4.572   8.491  2.3791 -1.0776  0.7550
11600SOL     OW38201   2.684   7.485   0.988  0.0624 -0.6200  0.2994
11600SOL    HW138202   2.751   7.503   0.923 -0.2984 -2.7406 -0.7422
11600SOL    HW238203   2.718   7.411   1.038 -1.2428 -1.3802  0.1047
11601SOL     OW38204   0.357   0.501   5.287 -0.2986 -0.8273 -0.9874
11601SOL    HW138205   0.273   0.455   5.283 -0.3270 -1.1450  1.5024
11601SOL    HW238206   0.415   0.449   5.232 -1.1805 -1.9230 -0.9304
11602SOL     OW38207   1.215   8.924   2.311  0.1006  0.0327 -0.7275
11602SOL    HW138208   1.149   8.986   2.343  0.5076  0.7389 -1.2178
11602SOL    HW238209   1.280   8.919   2.381  0.4505  0.7619 -0.9836
11603SOL     OW38210   5.503   8.820   0.887 -0.2713 -0.4181  0.2369
11603SOL    HW138211   5.532   8.763   0.816 -2.8007 -0.0435 -1.1979
11603SOL    HW238212   5.579   8.875   0.907  0.5255 -0.5634 -2.1500
11604SOL     OW38213   1.281   0.984   5.762  0.5396 -0.4990  0.2460
11604SOL    HW138214   1.372   0.971   5.789  0.6694  2.4274  1.5845
11604SOL    HW238215   1.232   0.986   5.844 -0.4989 -0.4889 -0.3619
11605SOL     OW38216  10.655   3.443   2.228 -0.3163 -0.1274  0.7035
11605SOL    HW138217  10.641   3.487   2.144  0.5418  1.1743  1.2021
11605SOL    HW238218  10.721   3.377   2.210  0.4588  0.6783  0.4857
11606SOL     OW38219   0.168   4.914   6.677  0.0269 -0.0409  0.6475
11606SOL    HW138220   0.220   4.932   6.599 -1.9580 -0.3517 -0.8249
11606SOL    HW238221   0.175   4.819   6.688 -0.8604 -0.1987 -0.0527
11607SOL     OW38222   0.178   6.515   8.628  0.4077 -0.8100 -0.5872
11607SOL    HW138223   0.254   6.459   8.644  0.9814 -0.1010 -0.7879
11607SOL    HW238224   0.199   6.562   8.547  1.1313  1.6514  0.9266
11608SOL     OW38225   0.821   1.083   6.697 -0.1056  0.1592 -0.1428
11608SOL    HW138226   0.820   1.068   6.792  0.3267  0.0220 -0.1583
11608SOL    HW238227   0.853   1.000   6.660 -1.7078 -0.3369 -0.5191
11609SOL     OW38228   9.963   7.544   8.890 -0.0264 -0.0422 -0.3952
11609SOL    HW138229   9.971   7.636   8.862 -0.9947 -0.5226 -2.4454
11609SOL    HW238230   9.870   7.532   8.909  0.2664 -0.3447  0.9576
11610SOL     OW38231   4.486   7.962   1.178 -0.2252  0.0208  0.6483
11610SOL    HW138232   4.480   8.057   1.165  1.2957  0.1274  0.5491
11610SOL    HW238233   4.477   7.950   1.272  0.1477  0.3310  0.7291
11611SOL     OW38234   2.445   7.661   1.004 -0.9009  0.0483 -0.3433
11611SOL    HW138235   2.359   7.620   0.994 -0.5310 -0.8069 -0.1269
11611SOL    HW238236   2.507   7.591   0.983 -0.2539  0.5732 -0.1987
11612SOL     OW38237   0.090   7.858   8.121 -0.2553  0.2038 -0.0179
11612SOL    HW138238   0.020   7.920   8.099  0.3095  0.6604 -0.5365
11612SOL    HW238239   0.132   7.838   8.037 -0.0825 -0.4592  0.2234
11613SOL     OW38240   1.089  10.719   3.314 -0.1949  0.9167 -0.6236
11613SOL    HW138241   1.163  10.668   3.279  0.2099  2.0319 -1.4568
11613SOL    HW238242   1.126  10.768   3.387 -0.8806 -0.8772  1.0343
11614SOL     OW38243   0.320   9.739   0.652 -0.2433  0.6327  0.0909
11614SOL    HW138244   0.301   9.773   0.740  0.3251  0.0773  0.4386
11614SOL    HW238245   0.415   9.742   0.645 -0.2301 -0.1219 -0.1700
11615SOL     OW38246   9.663   4.332   4.628 -0.2237 -0.0949 -0.1520
11615SOL    HW138247   9.630   4.360   4.542 -0.6489 -0.1492 -0.0084
11615SOL    HW238248   9.634   4.401   4.688 -0.1642 -0.1973 -0.0065
11616SOL     OW38249   0.934   0.491   6.745 -0.4920 -0.1397  0.2727
11616SOL    HW138250   0.889   0.453   6.820 -0.4366  0.9844  0.8966
11616SOL    HW238251   1.007   0.540   6.783 -1.4448  1.8658 -0.3501
11617SOL     OW38252   1.094  10.605  10.772 -0.2113 -0.1850  0.4486
11617SOL    HW138253   1.021  10.584  10.714 -0.0201 -0.3734  0.2772
11617SOL    HW238254   1.071  10.691  10.809 -0.9315 -0.6263  1.0520
11618SOL     OW38255   0.134   8.034   4.114  0.5969 -0.6901  0.1968
11618SOL    HW138256   0.147   8.072   4.201  1.7290  1.8817 -1.0125
11618SOL    HW238257   0.039   8.030   4.105  0.3239  2.5779  0.2263
11619SOL     OW38258   1.656   5.883   1.508 -0.5963  0.4847  0.0192
11619SOL    HW138259   1.698   5.873   1.423 -0.1121  1.0228  0.1869
11619SOL    HW238260   1.653   5.978   1.522 -0.2718  0.3860  0.7990
11620SOL     OW38261   8.810   4.235   4.085 -0.0473  0.5571  0.3856
11620SOL    HW138262   8.905   4.226   4.084 -0.1749 -1.1562 -0.2541
11620SOL    HW238263   8.780   4.172   4.151 -0.8475 -1.0822 -1.4231
11621SOL     OW38264   4.989   4.804   0.585 -0.1624  0.2970  0.1692
11621SOL    HW138265   4.995   4.741   0.658 -0.3810  1.1353  0.9292
11621SOL    HW238266   5.063   4.782   0.529  0.0724 -0.3063  0.6965
11622SOL     OW38267   3.277   9.259   0.172 -0.7244 -0.1330 -0.3304
11622SOL    HW138268   3.200   9.259   0.229 -1.0442 -1.1118 -0.7353
11622SOL    HW238269   3.344   9.305   0.223 -1.2187 -0.3390  0.5385
11623SOL     OW38270   2.763   3.834   6.089 -0.5992  0.7438  0.3467
11623SOL    HW138271   2.683   3.828   6.037 -0.0072 -0.4249 -0.4665
11623SOL    HW238272   2.756   3.763   6.153 -0.1736  0.5717  0.2078
11624SOL     OW38273   3.645   8.490   0.716 -0.4680  0.4166  0.3947
11624SOL    HW138274   3.569   8.548   0.723 -2.5193 -2.0917  0.2410
11624SOL    HW238275   3.620   8.426   0.649  1.6553 -0.7231  0.6204
11625SOL     OW38276   7.254   0.702   8.716 -0.2246 -0.1226  0.1777
11625SOL    HW138277   7.346   0.726   8.730 -0.2970  1.2170 -1.3007
11625SOL    HW238278   7.206   0.759   8.776 -0.1078 -0.6418  0.7681
11626SOL     OW38279   2.183   2.701   8.461  0.1492 -0.0770  0.0897
11626SOL    HW138280   2.177   2.743   8.375  0.2077 -0.0156  0.1154
11626SOL    HW238281   2.152   2.768   8.523  0.7681  0.1277  0.1864
11627SOL     OW38282   9.543   5.267   3.464  0.0410  0.1250 -0.3065
11627SOL    HW138283   9.513   5.343   3.415 -0.4798  1.6148  2.1755
11627SOL    HW238284   9.466   5.209   3.468  0.3489 -0.4498 -1.9255
11628SOL     OW38285   8.918   3.324   9.024 -0.1327 -0.7216 -0.5282
11628SOL    HW138286   8.894   3.234   9.046  0.1301 -0.2670  1.8266
11628SOL    HW238287   8.982   3.349   9.090  0.6558  0.8597 -1.7983
11629SOL     OW38288   7.171   5.437   9.463 -0.5847 -0.0150 -0.0395
11629SOL    HW138289   7.082   5.471   9.462 -0.9176 -0.8666 -0.4044
11629SOL    HW238290   7.223   5.506   9.422 -1.1991  0.1895 -0.5032
11630SOL     OW38291   3.345   2.859   8.355 -0.4363 -0.0925  0.2074
11630SOL    HW138292   3.333   2.853   8.450  1.3573 -0.0619  0.4610
11630SOL    HW238293   3.434   2.893   8.343 -1.5640  2.7189 -1.4628
11631SOL     OW38294   3.327   2.287   2.148 -0.2142  0.2484  0.3987
11631SOL    HW138295   3.302   2.372   2.184 -0.9172 -0.5129  1.7903
11631SOL    HW238296   3.329   2.229   2.223  3.3222 -0.3448 -0.0093
11632SOL     OW38297   3.423   6.597   4.566  0.2747 -0.6402  0.6315
11632SOL    HW138298   3.463   6.628   4.647  1.0700  0.9502 -0.3090
11632SOL    HW238299   3.348   6.655   4.552  0.8179 -0.1333 -0.3237
11633SOL     OW38300   3.874   1.020   6.985  0.0008  0.5943  0.4382
11633SOL    HW138301   3.783   1.045   6.969 -1.4920 -2.6943  2.5550
11633SOL    HW238302   3.920   1.041   6.904 -3.3078 -0.4081 -1.9085
11634SOL     OW38303   8.824   6.113   6.048  0.0469 -0.0899 -0.5445
11634SOL    HW138304   8.776   6.106   5.966  1.6200 -1.8276 -1.4053
11634SOL    HW238305   8.915   6.097   6.023  0.6260 -0.1708  1.4838
11635SOL     OW38306   2.262   9.243   2.341  0.0081 -0.4878  0.1615
11635SOL    HW138307   2.314   9.201   2.411  0.2551  0.6322  0.6683
11635SOL    HW238308   2.185   9.278   2.386  0.3490  0.5627 -0.0490
11636SOL     OW38309   9.131   0.365   7.286 -0.5545  0.3000  0.4878
11636SOL    HW138310   9.064   0.305   7.318 -0.2389  0.0012  0.6027
11636SOL    HW238311   9.176   0.396   7.365  0.3737 -0.6169  0.3387
11637SOL     OW38312   2.582   9.142   6.674  0.0645  0.8121 -0.5017
11637SOL    HW138313   2.638   9.066   6.667  0.5482  1.2397 -1.5389
11637SOL    HW238314   2.493   9.106   6.683  0.4862  0.1405  1.2085
11638SOL     OW38315   1.488   6.672   3.816 -0.0474 -0.0542 -0.1162
11638SOL    HW138316   1.552   6.612   3.853  0.9244  2.2993  2.3269
11638SOL    HW238317   1.405   6.626   3.822  0.2151 -0.3282  4.1891
11639SOL     OW38318   1.747   4.886   3.819  0.1256  0.1764  1.0467
11639SOL    HW138319   1.730   4.977   3.795  0.4221 -0.1512 -0.5476
11639SOL    HW238320   1.661   4.844   3.814  0.5719 -0.7463 -3.6850
11640SOL     OW38321   3.608   9.330   5.981 -0.0525 -0.4579 -0.5674
11640SOL    HW138322   3.633   9.276   6.056  0.9614 -1.0851 -1.3404
11640SOL    HW238323   3.681   9.390   5.968 -0.7964  0.5405 -0.2562
11641SOL     OW38324   1.966   5.470   0.385  0.0064 -0.7069 -0.1063
11641SOL    HW138325   2.061   5.478   0.393 -0.0459  0.6415 -0.5860
11641SOL    HW238326   1.932   5.539   0.441 -0.7600 -2.0754  1.1933
11642SOL     OW38327   3.243   8.796   7.162 -0.0082 -0.2172  0.1795
11642SOL    HW138328   3.331   8.758   7.166  0.8711  0.7665 -4.3427
11642SOL    HW238329   3.248   8.874   7.217  2.3217  0.2876 -0.6427
11643SOL     OW38330   1.512   2.052   4.463 -0.1272 -0.6814 -0.4935
11643SOL    HW138331   1.589   2.059   4.406 -1.4361  1.3437 -2.1620
11643SOL    HW238332   1.495   2.142   4.491  0.0940 -1.5138  2.7299
11644SOL     OW38333   9.301   5.723   0.773 -0.1540  0.1120 -0.1243
11644SOL    HW138334   9.388   5.690   0.796  0.0971 -0.4314 -1.7393
11644SOL    HW238335   9.312   5.818   0.771  0.2540  0.0784  0.2325
11645SOL     OW38336   8.039   9.636   6.354 -0.0474 -0.4280 -0.2094
11645SOL    HW138337   7.951   9.608   6.328 -0.0377 -0.6860  0.0320
11645SOL    HW238338   8.036   9.731   6.349  0.2985 -0.4657 -2.2845
11646SOL     OW38339   5.607   2.096   6.396 -0.4743  0.0236  0.0320
11646SOL    HW138340   5.564   2.113   6.479 -2.4909  1.1947 -1.1798
11646SOL    HW238341   5.695   2.132   6.407 -0.9504  0.8576  1.3905
11647SOL     OW38342   0.328   9.863   7.792 -0.3460 -0.3309 -0.3557
11647SOL    HW138343   0.348   9.816   7.873  1.3662  1.5150  0.3833
11647SOL    HW238344   0.402   9.922   7.781 -1.8538  1.3639 -1.8361
11648SOL     OW38345   3.607   8.323   8.594  0.0533 -0.1849  0.4548
11648SOL    HW138346   3.518   8.336   8.626  0.1676  1.7399  0.1317
11648SOL    HW238347   3.663   8.345   8.668  0.2942 -1.8640  0.8112
11649SOL     OW38348   2.579   5.462  10.152 -0.1173  0.4127 -0.0557
11649SOL    HW138349   2.573   5.558  10.159 -0.4706  0.4016 -0.1679
11649SOL    HW238350   2.545   5.430  10.236  0.0298  0.3860 -0.0056
11650SOL     OW38351   0.865  10.427   8.489 -0.4198  0.0485  0.5163
11650SOL    HW138352   0.917  10.356   8.526 -2.2470 -1.4817  0.3107
11650SOL    HW238353   0.800  10.383   8.435 -0.2182  2.0220 -1.4721
11651SOL     OW38354   0.910   4.931   0.136  0.1872  0.0209  0.1574
11651SOL    HW138355   0.968   4.888   0.074  0.1550  0.2113 -0.0041
11651SOL    HW238356   0.908   4.871   0.211 -2.3473 -1.8769 -1.2693
11652SOL     OW38357   4.437   8.537   9.368  0.0491 -0.4804 -0.4992
11652SOL    HW138358   4.407   8.574   9.452 -1.3752  0.1208 -1.2291
11652SOL    HW238359   4.362   8.487   9.336  0.8395 -1.3205 -1.0790
11653SOL     OW38360   5.025   0.902   8.409  0.4312 -0.1676 -0.4822
11653SOL    HW138361   5.083   0.977   8.394  0.1943 -0.2701 -2.1804
11653SOL    HW238362   5.018   0.895   8.504  2.1839  0.6185 -0.2646
11654SOL     OW38363   0.368   0.996   4.390  0.6084 -0.3380 -0.2687
11654SOL    HW138364   0.364   0.958   4.302 -0.3896 -1.8905  0.4011
11654SOL    HW238365   0.426   0.937   4.439 -1.3544 -1.3758  0.9233
11655SOL     OW38366   0.045   2.426   2.244  0.1556  0.1582 -0.7881
11655SOL    HW138367   0.086   2.399   2.162 -3.0458 -0.1985 -2.4048
11655SOL    HW238368  -0.010   2.352   2.270  0.5290  0.5470  1.3291
11656SOL     OW38369   2.940  10.582   7.173  0.3263 -0.2985 -0.8742
11656SOL    HW138370   2.946  10.487   7.175  0.6255 -0.2735 -0.0918
11656SOL    HW238371   2.914  10.606   7.262  1.6519  0.4320 -0.6540
11657SOL     OW38372   7.456   5.076   0.854  0.3664  0.2586 -0.6852
11657SOL    HW138373   7.383   5.050   0.911 -0.2926  2.7141 -0.2703
11657SOL    HW238374   7.530   5.024   0.885 -0.7823 -0.9586  0.1270
11658SOL     OW38375   1.799   7.969   8.692  0.4621 -0.1435  0.4638
11658SOL    HW138376   1.794   7.991   8.599 -3.4011 -1.1330  0.2348
11658SOL    HW238377   1.856   7.893   8.697 -0.2742 -0.8571 -1.3482
11659SOL     OW38378   7.444   9.572  10.503 -0.2836 -0.2714 -0.0547
11659SOL    HW138379   7.383   9.542  10.436 -0.0677  1.8314 -1.2720
11659SOL    HW238380   7.397   9.642  10.549  0.1450 -0.6435  0.9934
11660SOL     OW38381   8.301   1.213   2.366 -0.0110  0.0926 -0.3645
11660SOL    HW138382   8.291   1.309   2.369 -1.9932  0.0074 -1.9946
11660SOL    HW238383   8.345   1.191   2.449  1.4692  2.4808 -0.4143
11661SOL     OW38384   6.097   2.755   2.917  1.0603 -0.6416  0.3325
11661SOL    HW138385   6.140   2.733   2.999  0.9071 -0.6277  0.4163
11661SOL    HW238386   6.025   2.692   2.909  0.0958  0.3434  0.9876
11662SOL     OW38387   0.506   1.253   4.354  0.4008 -0.7340 -0.2381
11662SOL    HW138388   0.457   1.291   4.281 -0.7623  2.3948  1.9158
11662SOL    HW238389   0.452   1.179   4.382 -0.7217 -0.1552 -0.7675
11663SOL     OW38390  10.875   6.635   8.696 -0.0944  0.5531 -0.4569
11663SOL    HW138391  10.855   6.692   8.622  0.5626  1.0664 -0.2533
11663SOL    HW238392  10.960   6.596   8.673 -1.0443 -1.2288 -1.1132
11664SOL     OW38393   1.549   0.022   1.591 -0.2536  0.0815  0.3790
11664SOL    HW138394   1.469   0.004   1.639  0.2355 -1.5722  0.6377
11664SOL    HW238395   1.557   0.118   1.592 -3.1089  0.4263 -1.1660
11665SOL     OW38396   8.497   0.999   1.054 -0.2729 -0.7328  0.0657
11665SOL    HW138397   8.528   0.943   1.125  0.0445  0.5554  0.9768
11665SOL    HW238398   8.554   1.076   1.057 -0.7762 -0.2844 -1.0644
11666SOL     OW38399   4.042   8.318   5.469 -0.4399 -0.8145 -0.4031
11666SOL    HW138400   3.984   8.365   5.408  0.8074  0.5756 -0.5803
11666SOL    HW238401   3.988   8.304   5.547 -1.1864  0.0040 -0.7484
11667SOL     OW38402   5.326   8.006   3.914  0.2049  0.1461 -0.3317
11667SOL    HW138403   5.289   8.051   3.990  0.7728  1.2771 -0.7115
11667SOL    HW238404   5.308   8.064   3.840 -0.2873 -0.9139 -1.0654
11668SOL     OW38405   8.594   2.925   5.301  0.0740 -0.2022  0.3157
11668SOL    HW138406   8.606   3.016   5.327  3.7618  0.0342 -1.5455
11668SOL    HW238407   8.543   2.929   5.220  0.8122  0.3154 -0.1384
11669SOL     OW38408   0.181   6.310   5.790  0.3394 -0.0155  0.4797
11669SOL    HW138409   0.171   6.314   5.885  0.2537  3.0951  0.4497
11669SOL    HW238410   0.270   6.278   5.777 -0.0005 -1.4846  1.5359
11670SOL     OW38411   8.103   6.997   7.445 -0.3848 -0.1275  0.3922
11670SOL    HW138412   8.102   6.914   7.493  1.3838 -0.8961 -0.7836
11670SOL    HW238413   8.168   7.051   7.492  0.7641 -0.5916 -0.6001
11671SOL     OW38414  10.518   8.787   4.195 -0.2157  0.1908  0.2980
11671SOL    HW138415  10.450   8.854   4.197 -0.5589 -0.1571  0.5090
11671SOL    HW238416  10.533   8.765   4.287 -0.1140 -0.0270  0.2298
11672SOL     OW38417   6.513   3.152   4.070  0.4294  0.3852 -0.4632
11672SOL    HW138418   6.547   3.069   4.038 -1.0855  0.3139 -2.0669
11672SOL    HW238419   6.430   3.129   4.113  0.3964  0.9670 -0.2023
11673SOL     OW38420   0.160   5.134   9.712  0.2442 -0.4422 -0.4782
11673SOL    HW138421   0.206   5.050   9.711 -1.0108 -1.1560 -1.8175
11673SOL    HW238422   0.170   5.166   9.801  0.1243 -2.3720  0.2708
11674SOL     OW38423   0.217   9.273   0.748 -0.5656  0.3090 -0.1602
11674SOL    HW138424   0.275   9.211   0.704 -0.3858  1.0638 -1.0068
11674SOL    HW238425   0.216   9.350   0.691 -3.3284 -0.1047 -0.8305
11675SOL     OW38426   9.081   7.234   0.606 -0.2326 -0.1494 -0.6725
11675SOL    HW138427   8.989   7.211   0.617 -0.8723  1.2538 -2.4738
11675SOL    HW238428   9.109   7.266   0.692 -1.6469  0.0622 -0.2755
11676SOL     OW38429   6.117   3.096   5.785  0.1975 -0.2886 -0.1028
11676SOL    HW138430   6.135   3.172   5.841  0.1761 -0.7285  0.5069
11676SOL    HW238431   6.022   3.098   5.772 -0.1208 -1.4098  1.6866
11677SOL     OW38432   9.772   0.419   0.288 -0.3123 -0.4012  0.1557
11677SOL    HW138433   9.802   0.488   0.348 -0.1476 -1.1479  0.9388
11677SOL    HW238434   9.830   0.427   0.212  0.5881 -0.5491  0.8203
11678SOL     OW38435   4.443  10.166   0.691 -0.1290 -0.9760  0.5831
11678SOL    HW138436   4.414  10.194   0.778  1.2361  0.7405  0.5217
11678SOL    HW238437   4.373  10.108   0.661 -1.0455 -0.9313  2.4566
11679SOL     OW38438   2.997   1.072   9.943  0.7660 -0.1073 -0.0206
11679SOL    HW138439   3.059   1.141   9.969 -0.3144  0.8382  0.1467
11679SOL    HW238440   2.993   1.014  10.019  0.9962  0.1665  0.2032
11680SOL     OW38441   5.454   3.463   8.763  0.2845 -0.3765 -0.1439
11680SOL    HW138442   5.449   3.468   8.858 -1.1594  3.4941 -0.2512
11680SOL    HW238443   5.384   3.402   8.739  0.6146 -1.3376  1.2147
11681SOL     OW38444   9.237   0.677   8.450 -0.3326 -0.2225  0.2518
11681SOL    HW138445   9.294   0.753   8.443  0.5075 -0.9378 -1.3808
11681SOL    HW238446   9.155   0.704   8.410 -0.1000 -0.1230 -0.1577
11682SOL     OW38447   7.534   0.861   4.199  0.4225 -0.3723 -0.6927
11682SOL    HW138448   7.616   0.900   4.170  0.3359  0.4047  0.0667
11682SOL    HW238449   7.557   0.812   4.278  0.2244 -0.4754 -0.6984
11683SOL     OW38450   2.656   2.430   3.591  0.0847 -0.1252  0.1566
11683SOL    HW138451   2.575   2.469   3.623  0.0185 -0.8506  0.9018
11683SOL    HW238452   2.722   2.454   3.656  0.2298 -0.4897  0.1458
11684SOL     OW38453   3.835   5.334   0.659 -1.0825 -0.0567  0.0262
11684SOL    HW138454   3.815   5.418   0.617 -0.1991  1.4502  2.3809
11684SOL    HW238455   3.761   5.318   0.717 -0.7438 -0.3419  0.3870
11685SOL     OW38456   6.051   8.152   4.782 -0.1773 -0.5519  0.1345
11685SOL    HW138457   6.147   8.161   4.783 -0.1830 -0.5422  0.6516
11685SOL    HW238458   6.030   8.115   4.867 -0.7809  0.9579  0.6679
11686SOL     OW38459   9.686   8.963   4.130 -0.1353  0.4127 -0.1961
11686SOL    HW138460   9.754   8.908   4.169  0.2237  1.1537  0.2470
11686SOL    HW238461   9.624   8.979   4.201 -0.2113  0.6160 -0.3077
11687SOL     OW38462   4.902   9.285  10.664  0.1443 -0.2396  0.2923
11687SOL    HW138463   4.967   9.348  10.696  1.9892 -2.3071  0.8616
11687SOL    HW238464   4.868   9.244  10.743  1.6526 -2.4317 -0.0973
11688SOL     OW38465   6.944   2.656   6.592  0.4812  0.5016 -0.3790
11688SOL    HW138466   6.885   2.723   6.557 -1.7141 -0.8309  0.6121
11688SOL    HW238467   6.947   2.673   6.686  1.0924  0.0641 -0.3126
11689SOL     OW38468   3.551   3.193   4.679  0.2188  0.3044 -0.4391
11689SOL    HW138469   3.470   3.199   4.730 -0.7029 -0.6039 -1.7163
11689SOL    HW238470   3.590   3.280   4.685 -1.7115  1.2854 -1.1259
11690SOL     OW38471   8.026   9.185   4.584  0.2156 -0.0062  0.3625
11690SOL    HW138472   7.965   9.112   4.600  2.3714 -2.0134 -0.0324
11690SOL    HW238473   8.063   9.205   4.669  1.0671 -0.7471  0.1752
11691SOL     OW38474   8.730   2.569  10.738  0.0441  0.2175  0.0218
11691SOL    HW138475   8.693   2.495  10.787 -2.4458  2.1473  1.2577
11691SOL    HW238476   8.734   2.537  10.648  1.3343 -2.1873  0.8172
11692SOL     OW38477   7.399   5.798   1.596  0.2748  0.1643  0.4886
11692SOL    HW138478   7.419   5.830   1.508 -0.1511 -0.1340  0.2771
11692SOL    HW238479   7.466   5.731   1.612  1.1701  1.1447  0.9372
11693SOL     OW38480   0.727   5.751   6.155  0.0486 -0.0286  0.1808
11693SOL    HW138481   0.666   5.688   6.117  0.3070  0.2337 -0.6866
11693SOL    HW238482   0.772   5.702   6.224 -0.4725 -0.4921  0.2022
11694SOL     OW38483  10.418   0.431   5.713  0.1700 -0.5507 -0.3137
11694SOL    HW138484  10.385   0.341   5.705 -0.4383 -0.5475  1.6637
11694SOL    HW238485  10.491   0.424   5.775  1.1193  0.1355 -1.2964
11695SOL     OW38486   3.434   8.737   7.551  0.4102  0.1686 -0.1802
11695SOL    HW138487   3.347   8.740   7.510  0.5362  0.6907 -0.4096
11695SOL    HW238488   3.429   8.801   7.622 -0.7256 -2.6388  2.4895
11696SOL     OW38489   1.043   1.616   0.628  0.2845  0.2073 -0.0211
11696SOL    HW138490   1.041   1.708   0.655 -0.6050  0.2821 -0.3130
11696SOL    HW238491   1.013   1.617   0.537 -0.2515 -0.4160  0.1412
11697SOL     OW38492  10.191   8.233   3.584 -0.5083 -0.0957  0.4369
11697SOL    HW138493  10.210   8.155   3.533 -1.6927  0.9989 -1.8133
11697SOL    HW238494  10.095   8.240   3.583 -0.4460  1.1914  0.8866
11698SOL     OW38495   5.945   7.600   3.405 -0.2807  0.4074 -0.1688
11698SOL    HW138496   5.893   7.674   3.375 -1.2934  0.0231  0.5806
11698SOL    HW238497   5.882   7.527   3.411  0.4906 -0.2598  0.0473
11699SOL     OW38498   4.611   4.181   9.623 -0.1896 -0.0056  0.2998
11699SOL    HW138499   4.619   4.203   9.530 -0.7105 -0.0708  0.2383
11699SOL    HW238500   4.640   4.259   9.669  1.3757 -0.4329  0.0961
11700SOL     OW38501   6.552   7.239   0.129  0.0897 -0.2680  0.0221
11700SOL    HW138502   6.536   7.321   0.177 -0.2534 -0.2757 -0.0773
11700SOL    HW238503   6.592   7.268   0.046 -1.3065 -0.0905 -0.6113
11701SOL     OW38504   1.119   7.865  10.551 -0.1087 -0.3659 -0.2941
11701SOL    HW138505   1.149   7.775  10.558  2.6643  0.4475 -0.5439
11701SOL    HW238506   1.055   7.864  10.480 -1.2916 -2.3271  0.7024
11702SOL     OW38507   7.350   8.057   4.389 -0.0882  0.3769  0.3485
11702SOL    HW138508   7.412   7.991   4.419 -0.4520 -1.1215 -1.8817
11702SOL    HW238509   7.403   8.135   4.372  0.6495  0.1079  1.3383
11703SOL     OW38510   1.142   3.056   1.344  0.6554  0.1330 -0.0832
11703SOL    HW138511   1.067   2.997   1.335  0.7529  0.0846 -0.6222
11703SOL    HW238512   1.199   3.012   1.407  1.1294 -0.7878 -1.1084
11704SOL     OW38513   0.516   7.990   4.133  0.2695 -0.2443  0.1141
11704SOL    HW138514   0.476   7.967   4.217  0.6968 -1.8847 -0.0969
11704SOL    HW238515   0.608   8.004   4.153  0.3560 -0.5541 -0.0561
11705SOL     OW38516   7.279   5.619   2.054  0.5162  0.0867 -0.6605
11705SOL    HW138517   7.192   5.651   2.078  0.9312  0.7715 -0.0556
11705SOL    HW238518   7.339   5.663   2.114  1.3566  0.1650 -1.5332
11706SOL     OW38519   7.128   4.320   0.837 -0.0496 -0.3228 -0.1668
11706SOL    HW138520   7.215   4.355   0.815  1.1268 -1.1504  2.6874
11706SOL    HW238521   7.139   4.225   0.830 -0.0523 -0.5362  2.1607
11707SOL     OW38522   0.963   7.630   3.139  0.4244 -0.1544  0.3104
11707SOL    HW138523   1.014   7.549   3.138 -0.4075 -0.7341  1.4688
11707SOL    HW238524   1.027   7.700   3.125  1.0335 -1.0472 -1.6824
11708SOL     OW38525   2.587   0.547   6.328  0.0500 -0.1683  0.3050
11708SOL    HW138526   2.559   0.579   6.414  0.1282 -1.6465  0.9113
11708SOL    HW238527   2.526   0.476   6.308 -0.0706  0.2570 -0.9581
11709SOL     OW38528   0.428   6.699   3.659 -1.0785  0.0948  0.2040
11709SOL    HW138529   0.387   6.703   3.572 -0.6640 -0.9466 -0.0525
11709SOL    HW238530   0.367   6.646   3.711 -0.5567 -0.6329  0.0903
11710SOL     OW38531   1.096  10.172   3.780  0.0458  0.5647 -0.6448
11710SOL    HW138532   1.003  10.195   3.780  0.3365  1.7881 -0.2775
11710SOL    HW238533   1.137  10.237   3.723  0.5418 -0.6200 -1.6876
11711SOL     OW38534   7.109   6.561   1.782 -0.2293 -0.4695 -0.3306
11711SOL    HW138535   7.144   6.525   1.701  1.8151  0.6605 -0.0164
11711SOL    HW238536   7.100   6.485   1.840 -1.1259 -1.1950 -1.3859
11712SOL     OW38537   4.815   0.933   3.313 -0.2584 -0.2019 -0.3909
11712SOL    HW138538   4.853   1.018   3.336 -1.3025  0.7367 -1.9593
11712SOL    HW238539   4.882   0.889   3.261  0.8733 -1.0227  1.6411
11713SOL     OW38540   2.227  10.844   4.447  0.2492 -0.0940  0.7019
11713SOL    HW138541   2.245  10.795   4.527  2.5545  2.9038  2.2481
11713SOL    HW238542   2.308  10.836   4.396 -0.3567 -0.1321 -0.2681
11714SOL     OW38543   4.071   8.393   0.748 -0.8769  0.2446 -0.2955
11714SOL    HW138544   4.048   8.412   0.657 -0.6503 -1.1163 -0.6588
11714SOL    HW238545   4.162   8.422   0.755 -1.0000  0.6689 -0.3974
11715SOL     OW38546   1.774   7.154   9.237 -0.5137  0.1564  0.2384
11715SOL    HW138547   1.828   7.168   9.159 -2.0372 -1.1198 -1.1290
11715SOL    HW238548   1.790   7.063   9.261 -1.6033 -0.0727  0.1497
11716SOL     OW38549   2.549  10.763   2.758 -0.4188 -1.0445 -0.5801
11716SOL    HW138550   2.621  10.719   2.802 -0.7924 -0.2333  0.8847
11716SOL    HW238551   2.574  10.856   2.757 -1.4421 -0.7538 -0.0361
11717SOL     OW38552   8.024   2.887   0.484 -0.1029 -0.1611  0.0570
11717SOL    HW138553   7.971   2.914   0.409  0.4338  0.7754  0.0081
11717SOL    HW238554   7.984   2.932   0.558  0.9798  1.0468 -0.0697
11718SOL     OW38555   8.888   5.024   6.194  0.2910 -0.2710  0.0460
11718SOL    HW138556   8.801   4.990   6.213 -1.2197  1.8309 -2.5047
11718SOL    HW238557   8.893   5.106   6.243 -0.2545  0.8799 -1.7257
11719SOL     OW38558   5.716   3.678   0.194  0.5009 -0.6096 -0.4917
11719SOL    HW138559   5.703   3.748   0.130  0.7909 -0.2995 -0.2145
11719SOL    HW238560   5.679   3.600   0.151 -2.0079  0.1397  0.1125
11720SOL     OW38561  10.256   6.989   0.634 -0.3024 -0.0803 -0.2108
11720SOL    HW138562  10.199   7.011   0.561 -0.8144 -0.3733  0.0932
11720SOL    HW238563  10.262   6.893   0.632  0.6807 -0.0209 -0.6086
11721SOL     OW38564   6.037   2.581  10.648  0.0852  0.1908  0.2937
11721SOL    HW138565   6.127   2.568  10.678  0.3384  0.6802 -0.2270
11721SOL    HW238566   6.023   2.513  10.583  0.0686  0.0892  0.4041
11722SOL     OW38567   0.088   4.282   7.983  0.1510 -0.3153 -0.3790
11722SOL    HW138568   0.147   4.335   7.929 -1.4575  2.1954  0.1610
11722SOL    HW238569   0.002   4.324   7.972 -0.8982 -1.8523  1.3952
11723SOL     OW38570   3.154   9.276   3.555  0.4324  0.0696 -0.1779
11723SOL    HW138571   3.210   9.268   3.478  2.1912  2.4682  0.7157
11723SOL    HW238572   3.091   9.345   3.532 -0.0317 -0.2846  0.0093
11724SOL     OW38573   7.351   9.830   0.545  0.2003  0.3040  0.2305
11724SOL    HW138574   7.394   9.759   0.592  0.8201 -0.4847 -1.4173
11724SOL    HW238575   7.381   9.820   0.454 -2.0755  0.8118 -0.6500
11725SOL     OW38576   4.441   6.887   8.201 -0.7308  0.0246 -0.1226
11725SOL    HW138577   4.447   6.912   8.293  0.9613 -0.7194  0.0070
11725SOL    HW238578   4.407   6.965   8.157 -1.9895  0.2430  1.1775
11726SOL     OW38579   1.733   3.205   6.050 -0.9835 -0.1990 -0.2761
11726SOL    HW138580   1.789   3.207   6.128 -0.5838 -0.3433 -0.5623
11726SOL    HW238581   1.781   3.152   5.987 -1.1268  0.2438 -0.7621
11727SOL     OW38582   4.373   2.475   1.810 -0.1848 -0.3738 -0.6042
11727SOL    HW138583   4.457   2.494   1.769  0.8741 -1.4626  0.9581
11727SOL    HW238584   4.391   2.477   1.904 -1.7787 -1.1820 -0.2489
11728SOL     OW38585   5.411   4.614   5.911 -0.0705 -0.4860 -0.2967
11728SOL    HW138586   5.342   4.635   5.974 -0.8299 -0.0256 -1.2478
11728SOL    HW238587   5.465   4.548   5.955  1.0965  1.7979  1.9242
11729SOL     OW38588   0.821   3.578   2.115 -0.5440 -0.7087 -0.0200
11729SOL    HW138589   0.892   3.571   2.051  0.7752 -0.1835  1.3262
11729SOL    HW238590   0.756   3.634   2.072  0.8565  0.6696 -0.4572
11730SOL     OW38591   5.563   4.868   5.976 -0.3165  0.7459  0.1353
11730SOL    HW138592   5.539   4.781   5.944 -1.5495  1.3839 -0.7369
11730SOL    HW238593   5.541   4.866   6.069  1.0590 -0.3402  0.4715
11731SOL     OW38594   1.025   4.919   6.384  0.3220  0.6065 -0.3274
11731SOL    HW138595   1.028   5.011   6.361 -0.0474  0.5604 -0.5529
11731SOL    HW238596   1.087   4.911   6.457  0.6562  0.9532 -0.5675
11732SOL     OW38597   9.758   7.471   6.295  0.0991 -0.2009 -0.2522
11732SOL    HW138598   9.720   7.528   6.228 -0.0181 -0.6668 -0.5851
11732SOL    HW238599   9.814   7.529   6.346 -0.4728  0.3362 -0.2201
11733SOL     OW38600   5.621   8.932   0.391 -0.3899 -0.5484  0.1526
11733SOL    HW138601   5.625   8.970   0.480  1.7885  0.2381 -0.2059
11733SOL    HW238602   5.713   8.918   0.368 -0.9989 -2.8845 -1.1307
11734SOL     OW38603   8.446   3.610   0.302 -0.2058 -0.2666  0.5042
11734SOL    HW138604   8.389   3.555   0.357  0.3051  0.7483  2.1299
11734SOL    HW238605   8.510   3.645   0.363  0.6444  0.6107 -0.8568
11735SOL     OW38606   7.301   1.117   8.695  0.4142 -0.3226 -0.4640
11735SOL    HW138607   7.209   1.090   8.692  0.5716 -0.8057 -1.0560
11735SOL    HW238608   7.347   1.050   8.645  1.2506 -0.7507  0.8226
11736SOL     OW38609   5.422   6.580   1.311 -0.2130 -0.4430 -0.6549
11736SOL    HW138610   5.433   6.654   1.252  0.7168 -0.0816 -0.0505
11736SOL    HW238611   5.341   6.538   1.283 -0.8017  0.8574 -0.9461
11737SOL     OW38612   9.691   6.246   9.496 -0.3203 -0.4076  0.0181
11737SOL    HW138613   9.766   6.199   9.460 -0.6663  0.3404 -1.7934
11737SOL    HW238614   9.728   6.299   9.567  0.7892 -0.4206 -0.5220
11738SOL     OW38615   0.333   8.901   0.246  0.0967  0.0895  0.4069
11738SOL    HW138616   0.301   8.984   0.213  0.4793  0.1476  0.1807
11738SOL    HW238617   0.344   8.846   0.168  1.0759  0.2537  0.4159
11739SOL     OW38618   2.643  10.348   0.778  0.3774 -0.4506  0.7877
11739SOL    HW138619   2.599  10.423   0.818 -0.5080 -1.1183  1.1112
11739SOL    HW238620   2.699  10.313   0.848  0.7174 -0.1557  0.6661
11740SOL     OW38621   3.673   8.275   9.887 -0.6946  0.6088 -0.3014
11740SOL    HW138622   3.726   8.346   9.924 -2.4053  1.6029  0.3791
11740SOL    HW238623   3.679   8.204   9.952 -0.1169  0.6616 -0.2920
11741SOL     OW38624   7.115   8.537   3.375  0.2839 -0.2045  0.1577
11741SOL    HW138625   7.027   8.555   3.408  0.1482  3.5467 -1.7099
11741SOL    HW238626   7.173   8.580   3.438  0.5927 -0.2577 -0.0882
11742SOL     OW38627   0.387   8.184   8.798  0.3064  0.0999  0.5420
11742SOL    HW138628   0.410   8.096   8.828  0.0817  0.3372  1.4397
11742SOL    HW238629   0.306   8.172   8.749  0.3648 -0.2152  0.5167
11743SOL     OW38630   8.398   1.569   8.173  0.1353 -0.0110  0.1472
11743SOL    HW138631   8.480   1.521   8.180  0.4540  0.6947  1.4527
11743SOL    HW238632   8.418   1.641   8.112  0.2522 -0.2985 -0.1575
11744SOL     OW38633  10.193   8.216   8.273 -0.1069  0.3695  0.3419
11744SOL    HW138634  10.112   8.249   8.312  0.8041  0.0741  2.6319
11744SOL    HW238635  10.220   8.145   8.331  1.2359 -0.2651 -1.0049
11745SOL     OW38636   6.956   9.455   6.317 -0.0579 -0.1012  0.7988
11745SOL    HW138637   6.925   9.380   6.368  0.3121 -0.1563  0.9440
11745SOL    HW238638   7.052   9.448   6.319  0.0053  0.7979  1.4459
11746SOL     OW38639   3.922   1.207   1.929 -0.4557 -0.0809 -0.0726
11746SOL    HW138640   3.951   1.295   1.951  0.7925 -0.4044 -0.3668
11746SOL    HW238641   3.954   1.192   1.840 -0.2662 -0.9922  0.1355
11747SOL     OW38642   6.456   3.802  10.653  0.4689 -0.0293 -0.1709
11747SOL    HW138643   6.514   3.772  10.723 -0.5089 -0.1076  0.6330
11747SOL    HW238644   6.419   3.884  10.687  0.1666  0.0523 -0.6935
11748SOL     OW38645   6.293   3.499   0.075  0.0268  0.1894 -0.2146
11748SOL    HW138646   6.383   3.525   0.096  0.0907 -0.7579  0.7248
11748SOL    HW238647   6.287   3.512  -0.020  1.1364  0.3070 -0.2852
11749SOL     OW38648   9.046   9.233   4.339 -0.0283  0.7688  0.0136
11749SOL    HW138649   9.070   9.145   4.309  0.2249  1.1312 -0.8795
11749SOL    HW238650   8.950   9.231   4.342 -0.0003  0.2431  0.7003
11750SOL     OW38651   6.111   6.883   1.245 -0.0127 -0.4545  0.3301
11750SOL    HW138652   6.022   6.893   1.212  0.0675  0.0815  0.2699
11750SOL    HW238653   6.101   6.827   1.322 -0.3364 -0.8024  0.0388
11751SOL     OW38654   1.715   3.734   8.812 -0.1293 -1.0182  0.1653
11751SOL    HW138655   1.645   3.799   8.822 -0.9970 -1.6703 -1.3541
11751SOL    HW238656   1.711   3.682   8.893  1.2835  1.3627  1.9237
11752SOL     OW38657   6.551   5.490   4.731  0.2296  0.0101  0.1777
11752SOL    HW138658   6.510   5.544   4.663 -0.9355 -2.3370 -1.0927
11752SOL    HW238659   6.477   5.452   4.778  1.0061  1.5425  2.8463
11753SOL     OW38660   1.424   1.662   3.056  0.3009 -0.0073 -0.5556
11753SOL    HW138661   1.334   1.651   3.084  0.6335 -1.2517  0.0802
11753SOL    HW238662   1.420   1.726   2.984 -0.9968  0.3820 -0.1502
11754SOL     OW38663   9.960   7.818   6.275  0.2392  0.2409  0.0876
11754SOL    HW138664  10.039   7.802   6.224  0.6117  0.9970  0.4092
11754SOL    HW238665   9.942   7.911   6.261 -0.7908  0.0095 -0.2566
11755SOL     OW38666   3.934   6.040   5.942 -0.3104 -0.3175  0.0509
11755SOL    HW138667   3.932   5.997   5.857 -1.2002 -2.2344  0.9666
11755SOL    HW238668   4.010   6.098   5.938 -0.7470  0.1956 -2.2646
11756SOL     OW38669   7.822   0.907   8.087 -0.6344 -0.3976  0.3189
11756SOL    HW138670   7.775   0.987   8.063  1.5426  0.8861 -0.0361
11756SOL    HW238671   7.842   0.918   8.180  1.9359  0.8305 -0.2951
11757SOL     OW38672   1.584   9.741   0.279 -0.2572  0.3712  0.2098
11757SOL    HW138673   1.572   9.816   0.221 -2.9040  1.1746  1.6331
11757SOL    HW238674   1.658   9.765   0.335  0.0571  1.1121 -0.5048
11758SOL     OW38675   0.860   8.894   2.916 -0.0367 -0.3041 -0.2130
11758SOL    HW138676   0.797   8.831   2.952 -0.1047 -0.6712 -0.9429
11758SOL    HW238677   0.908   8.843   2.850  1.9212 -0.3963  1.2145
11759SOL     OW38678   9.461   2.522   4.511  0.1815  0.0453 -0.1404
11759SOL    HW138679   9.453   2.602   4.459  0.6726  0.2696  0.1274
11759SOL    HW238680   9.462   2.452   4.447 -1.0798  0.1870 -0.3458
11760SOL     OW38681   1.469   7.756   0.540  0.8253  0.1121  0.0084
11760SOL    HW138682   1.456   7.668   0.576 -0.4033  0.4043  0.3257
11760SOL    HW238683   1.452   7.815   0.614 -1.0107  0.6943 -0.8288
11761SOL     OW38684   4.396   2.275   4.952 -0.4473 -0.3575 -0.5457
11761SOL    HW138685   4.465   2.271   4.886  0.3528  0.4771  0.1985
11761SOL    HW238686   4.412   2.200   5.009 -1.1923 -1.1304 -1.3170
11762SOL     OW38687   4.335   0.385   9.977 -0.0864 -0.2217  0.5774
11762SOL    HW138688   4.391   0.437   9.919 -0.4211  0.7553  1.1045
11762SOL    HW238689   4.385   0.306   9.994 -0.0187 -0.5949 -1.1410
11763SOL     OW38690   7.230   5.030   1.449  0.2011  0.0641 -0.5163
11763SOL    HW138691   7.204   4.991   1.533 -1.0330 -0.2490 -1.0295
11763SOL    HW238692   7.189   5.116   1.449  0.4413  0.1798 -0.6787
11764SOL     OW38693   9.395   4.133   0.356  0.2838 -0.3289 -0.5815
11764SOL    HW138694   9.311   4.089   0.369  1.1712 -1.3977  2.2249
11764SOL    HW238695   9.458   4.062   0.340  1.3559 -0.0011  1.7995
11765SOL     OW38696   0.152  10.709  10.280  0.2240  0.0166  0.5927
11765SOL    HW138697   0.097  10.631  10.281  0.7269 -0.4143 -1.2910
11765SOL    HW238698   0.091  10.782  10.292 -0.4465 -0.5736  0.7998
11766SOL     OW38699  10.137   6.216   8.859 -0.0770 -0.0320  0.2230
11766SOL    HW138700  10.127   6.126   8.891 -0.4229  0.2999  1.0897
11766SOL    HW238701  10.230   6.225   8.841 -0.0308 -0.5450  0.1710
11767SOL     OW38702   0.202   1.477   9.642  0.1234 -0.3533 -0.0448
11767SOL    HW138703   0.133   1.462   9.706  0.4107 -2.3082 -0.1296
11767SOL    HW238704   0.283   1.457   9.690  0.4437 -0.3784 -0.5901
11768SOL     OW38705   7.158  10.580   2.466  0.0149 -1.0169 -0.8820
11768SOL    HW138706   7.130  10.666   2.434 -1.3874 -0.8499  0.6437
11768SOL    HW238707   7.243  10.596   2.508 -1.5905  0.3668  2.1621
11769SOL     OW38708   1.844   1.404   7.528  0.3029  0.4928  0.0628
11769SOL    HW138709   1.859   1.312   7.506 -2.4012 -0.0368  0.1837
11769SOL    HW238710   1.909   1.452   7.475  3.7819 -1.5259  2.1452
11770SOL     OW38711   4.808   0.608   2.903 -0.1993 -0.4118  0.2905
11770SOL    HW138712   4.760   0.621   2.985 -0.3300  1.4208 -0.0240
11770SOL    HW238713   4.883   0.667   2.910  0.0226 -0.5511 -0.7390
11771SOL     OW38714   4.166   1.041   3.132 -0.3543  0.1362  0.4628
11771SOL    HW138715   4.113   1.120   3.137 -1.0834 -0.4293  3.0142
11771SOL    HW238716   4.108   0.975   3.094  0.2014  0.6999 -1.5052
11772SOL     OW38717   6.263   2.294   7.266  0.4326  0.4270  0.0259
11772SOL    HW138718   6.229   2.206   7.287  1.0093 -0.3549 -2.0895
11772SOL    HW238719   6.331   2.309   7.332  0.2243 -0.6674  0.5143
11773SOL     OW38720   7.716   1.722   7.077 -0.5819  0.2711 -0.7964
11773SOL    HW138721   7.731   1.668   6.999  0.2261  0.1012 -0.5306
11773SOL    HW238722   7.733   1.811   7.048  0.2617  0.1547 -0.6886
11774SOL     OW38723   9.887   4.721   0.052  0.3042 -0.1764  0.2338
11774SOL    HW138724   9.933   4.641   0.076  1.2233  0.1900 -0.2521
11774SOL    HW238725   9.930   4.790   0.103  0.5371  0.2212 -0.4785
11775SOL     OW38726  10.298   5.071  10.563 -0.0544 -0.1524  0.4233
11775SOL    HW138727  10.336   5.031  10.641 -1.3034  0.0529  1.1820
11775SOL    HW238728  10.249   5.147  10.597  0.4139  0.6820 -0.7154
11776SOL     OW38729   1.810   5.005   1.552  0.5082 -1.2324 -0.2555
11776SOL    HW138730   1.783   4.914   1.541  0.2427 -1.0386 -1.3062
11776SOL    HW238731   1.739   5.057   1.513  0.2167 -0.5243  1.1484
11777SOL     OW38732   7.516   9.444   9.478 -0.1088 -0.2490  0.4990
11777SOL    HW138733   7.539   9.520   9.425  0.5626 -1.2779 -0.7346
11777SOL    HW238734   7.559   9.459   9.562 -1.0032  1.3024  0.7294
11778SOL     OW38735   2.087  10.396   2.478  0.7264  0.2878 -0.3499
11778SOL    HW138736   2.130  10.311   2.483  0.0983  0.0486  1.6844
11778SOL    HW238737   2.109  10.428   2.390  2.2431 -1.2717 -0.6033
11779SOL     OW38738   7.517   8.116   0.760 -0.1694  0.2338  0.0648
11779SOL    HW138739   7.532   8.085   0.849 -0.2600  0.5458  0.1918
11779SOL    HW238740   7.519   8.037   0.706  0.9886  0.1644  0.1941
11780SOL     OW38741   8.265   3.530   9.228  0.0929 -0.8972  0.0315
11780SOL    HW138742   8.265   3.487   9.142  1.1226  2.9237 -2.1224
11780SOL    HW238743   8.176   3.564   9.238  0.6546  0.9937 -0.9454
11781SOL     OW38744   1.331  10.303   3.386 -0.3615 -0.0635  0.0791
11781SOL    HW138745   1.424  10.288   3.401 -0.2555  1.4926  1.2154
11781SOL    HW238746   1.301  10.225   3.339  1.2487 -1.1338  0.7611
11782SOL     OW38747   5.697   4.148   0.533  0.0489 -0.2613  0.3539
11782SOL    HW138748   5.752   4.200   0.592 -1.4985  0.6458  1.0687
11782SOL    HW238749   5.638   4.212   0.493 -0.4703 -1.1871 -0.4024
11783SOL     OW38750  10.030   2.669   8.831  0.4293  0.2022  0.2645
11783SOL    HW138751  10.016   2.621   8.912 -0.8809  1.9488  1.1297
11783SOL    HW238752   9.968   2.632   8.769 -1.2483  1.3395  1.2039
11784SOL     OW38753  10.658  10.080   7.450  0.2281  0.5159 -0.1801
11784SOL    HW138754  10.564  10.074   7.468  0.6215 -0.4103  1.8764
11784SOL    HW238755  10.686  10.160   7.494  0.1028  2.0632 -2.6811
11785SOL     OW38756   1.354   3.608   0.539 -0.3595 -0.0197 -0.0153
11785SOL    HW138757   1.437   3.634   0.579  1.5010 -3.6400 -1.0919
11785SOL    HW238758   1.351   3.657   0.457  1.0667 -0.2564 -0.2457
11786SOL     OW38759   6.400   0.105   2.473  0.0312  0.5171 -0.6247
11786SOL    HW138760   6.426   0.188   2.434  0.7306  0.0748 -1.1060
11786SOL    HW238761   6.433   0.038   2.413 -0.1894 -0.1238 -0.0466
11787SOL     OW38762   7.519   1.256   4.821 -0.0500 -0.1875  0.2401
11787SOL    HW138763   7.483   1.171   4.845  0.2271 -0.7543 -1.2152
11787SOL    HW238764   7.614   1.245   4.830 -0.0720  0.5067  1.6199
11788SOL     OW38765   6.527   8.757   8.907 -0.1644 -0.0405  0.1782
11788SOL    HW138766   6.439   8.796   8.908 -1.0358 -1.8795  0.9942
11788SOL    HW238767   6.554   8.758   8.998  2.3911  3.8828 -0.3707
11789SOL     OW38768   8.752   8.436   0.925 -0.1765 -0.1643 -0.3928
11789SOL    HW138769   8.753   8.451   1.019  1.7485 -3.5452  0.3031
11789SOL    HW238770   8.837   8.466   0.895 -0.4807  0.1759 -0.9327
11790SOL     OW38771   5.287   2.267   4.880  0.1513 -0.0880  0.2752
11790SOL    HW138772   5.203   2.312   4.868  1.0467  1.5637 -0.0227
11790SOL    HW238773   5.353   2.334   4.864  1.5422 -1.1786  1.2318
11791SOL     OW38774   6.945   0.603  10.508 -0.1955  0.1986 -0.4984
11791SOL    HW138775   6.854   0.576  10.490 -0.0004 -0.4566 -0.5346
11791SOL    HW238776   6.942   0.641  10.595 -0.7452  1.3768 -1.0091
11792SOL     OW38777   4.429   8.839   0.434 -0.0930 -0.7380 -0.2097
11792SOL    HW138778   4.345   8.794   0.423 -0.6213  0.2777 -0.5219
11792SOL    HW238779   4.455   8.861   0.344 -0.2098  0.1997 -0.0210
11793SOL     OW38780   3.238   6.568   5.737 -0.8638  0.3726 -0.3557
11793SOL    HW138781   3.248   6.480   5.775 -0.3563  0.6744  0.2345
11793SOL    HW238782   3.149   6.594   5.761 -0.3530  0.8075  1.2253
11794SOL     OW38783  10.804   2.040  10.033  0.0880  0.1443  0.2374
11794SOL    HW138784  10.717   2.081  10.031  0.6691  1.4001 -1.4313
11794SOL    HW238785  10.786   1.946  10.036 -1.3151  0.4076  1.0389
11795SOL     OW38786   7.453   4.588   0.997 -0.2359 -0.3493 -0.1807
11795SOL    HW138787   7.493   4.503   0.979 -1.7686 -0.8611 -1.3860
11795SOL    HW238788   7.465   4.601   1.092  0.4429 -1.6819 -0.0740
11796SOL     OW38789   2.259   7.730  10.557  0.5375  0.1011 -0.0243
11796SOL    HW138790   2.308   7.701  10.480 -0.5587 -1.5760 -0.1391
11796SOL    HW238791   2.247   7.650  10.609 -0.6141  0.7931  0.8195
11797SOL     OW38792   9.025   8.090  10.264 -0.3665  0.0482 -0.4620
11797SOL    HW138793   9.111   8.097  10.305 -0.2275  0.9223 -0.8872
11797SOL    HW238794   9.044   8.085  10.170 -0.8385  2.2976 -0.7207
11798SOL     OW38795   9.596   2.540   9.527  0.5064  0.5168  0.3071
11798SOL    HW138796   9.561   2.628   9.511 -1.2357 -0.1246  0.3108
11798SOL    HW238797   9.641   2.546   9.611 -1.9330  0.8371  1.6863
11799SOL     OW38798   3.701   5.617   6.381  0.4825  0.5970  0.1892
11799SOL    HW138799   3.615   5.635   6.418 -0.2576 -0.3257 -1.0019
11799SOL    HW238800   3.743   5.703   6.375 -1.4370  1.4974 -1.7528
11800SOL     OW38801   8.750   7.020   4.623  0.3053 -0.2259 -0.3592
11800SOL    HW138802   8.710   7.006   4.709  1.6783  2.4038  0.8210
11800SOL    HW238803   8.822   6.958   4.620  0.1525 -0.4393  0.3282
11801SOL     OW38804  10.431   5.137   4.761  0.0096 -0.2063 -0.3843
11801SOL    HW138805  10.433   5.041   4.769  0.4885 -0.1304  0.4936
11801SOL    HW238806  10.338   5.158   4.749 -0.3250 -0.6581  1.1866
11802SOL     OW38807   5.680   6.647  10.655  0.0989 -0.1913 -0.1372
11802SOL    HW138808   5.657   6.590  10.582  0.7580 -0.2715 -0.2856
11802SOL    HW238809   5.599   6.696  10.674 -0.3660 -0.9010 -0.2454
11803SOL     OW38810   6.266   2.728   3.401 -0.4115 -0.0151 -0.1803
11803SOL    HW138811   6.240   2.785   3.473 -1.0638  0.0498 -0.4632
11803SOL    HW238812   6.330   2.668   3.440 -0.0081  0.6615  0.2058
11804SOL     OW38813   8.805  10.732   7.268 -0.1399  0.3010 -0.2535
11804SOL    HW138814   8.753  10.652   7.256 -0.1045  0.4617 -1.6181
11804SOL    HW238815   8.893  10.700   7.286 -0.4443  0.0423  0.9270
11805SOL     OW38816   0.998   9.092   4.874  0.8607  0.2613 -0.2571
11805SOL    HW138817   1.043   9.083   4.790 -0.1209  0.7357 -0.8520
11805SOL    HW238818   0.966   9.004   4.894  1.3749  0.0825 -0.2140
11806SOL     OW38819  10.077  10.392   6.471 -0.7083 -0.1667  0.3138
11806SOL    HW138820  10.061  10.318   6.412  0.0175 -0.5842  0.6253
11806SOL    HW238821  10.171  10.390   6.488 -0.8699  0.0636  1.3208
11807SOL     OW38822   3.074   6.934   0.861  0.0375  0.0853  0.1629
11807SOL    HW138823   2.981   6.955   0.853  0.1343  0.6123  0.3367
11807SOL    HW238824   3.119   7.006   0.816  0.3779  0.1281  0.5580
11808SOL     OW38825   0.443   3.755   9.020  0.4210  0.4414 -0.3235
11808SOL    HW138826   0.469   3.729   8.932 -0.0740 -0.5212 -0.2027
11808SOL    HW238827   0.370   3.697   9.042 -0.2135  1.4269  0.2862
11809SOL     OW38828   2.716   2.551   1.575 -0.1608 -0.1941  0.3313
11809SOL    HW138829   2.780   2.506   1.630 -0.2272 -1.0383 -0.2559
11809SOL    HW238830   2.631   2.525   1.610 -0.2899 -2.6811 -1.5406
11810SOL     OW38831  10.699   9.550   5.470 -0.0434  0.6625 -0.3071
11810SOL    HW138832  10.661   9.551   5.558  1.4410  0.1195  0.3662
11810SOL    HW238833  10.698   9.642   5.443  0.9889  1.0862  0.9722
11811SOL     OW38834   1.275  10.339   1.977 -0.2678 -1.0292  0.3371
11811SOL    HW138835   1.268  10.249   1.945 -0.3353 -0.6019 -0.8636
11811SOL    HW238836   1.214  10.389   1.924  0.3044 -0.1353  0.4987
11812SOL     OW38837   1.394   5.355   4.606 -0.6908 -0.5067 -0.4685
11812SOL    HW138838   1.344   5.435   4.626  0.4213 -0.1814  1.2780
11812SOL    HW238839   1.399   5.309   4.690  0.7134 -1.2389 -0.9330
11813SOL     OW38840   9.339   1.306   3.456  0.1878 -0.1819  0.1422
11813SOL    HW138841   9.368   1.259   3.378 -0.1830 -0.3183  0.0832
11813SOL    HW238842   9.280   1.374   3.423  0.2741 -0.0398  0.2764
11814SOL     OW38843   7.695   4.384   9.475  0.1258 -1.0296  0.6470
11814SOL    HW138844   7.762   4.330   9.516  0.5694 -1.1492 -0.2190
11814SOL    HW238845   7.642   4.416   9.549  3.0662  1.7735  1.7859
11815SOL     OW38846   6.124   8.970   0.137 -0.4401 -0.0502 -0.1010
11815SOL    HW138847   6.202   8.925   0.104  0.9391 -0.0028  2.8470
11815SOL    HW238848   6.151   9.060   0.150 -1.1880  0.1252  0.3236
11816SOL     OW38849   7.558  10.895   2.916  0.4625 -0.0795 -0.0708
11816SOL    HW138850   7.561  10.924   2.825  0.9716 -0.1991 -0.0939
11816SOL    HW238851   7.496  10.955   2.958 -0.4134 -0.5381 -0.6753
11817SOL     OW38852   9.527   1.815   0.245  0.1175  0.9076  0.0453
11817SOL    HW138853   9.584   1.797   0.171  2.0041  1.8419  1.1993
11817SOL    HW238854   9.533   1.910   0.258  0.9498  0.6146  2.2020
11818SOL     OW38855  10.478   1.159   2.161  0.1758  0.3283 -0.2852
11818SOL    HW138856  10.451   1.173   2.070 -0.2713 -0.9273 -0.3623
11818SOL    HW238857  10.419   1.215   2.212  2.0944  3.0746 -0.8657
11819SOL     OW38858   7.335   9.404   7.947  0.0918 -0.1569 -0.1373
11819SOL    HW138859   7.288   9.448   7.876  1.9013  0.0259 -1.2513
11819SOL    HW238860   7.389   9.473   7.986 -0.9147 -0.2328  1.5117
11820SOL     OW38861   4.232   5.820   7.626 -0.5403 -0.1319  0.0127
11820SOL    HW138862   4.278   5.737   7.637 -1.3909 -0.7636 -1.0066
11820SOL    HW238863   4.293   5.876   7.579 -0.7136 -0.9087 -1.1919
11821SOL     OW38864   6.636   0.747   8.980 -0.3630 -0.6472  0.1347
11821SOL    HW138865   6.677   0.693   8.912  2.4565 -0.2206  1.3982
11821SOL    HW238866   6.608   0.826   8.934  1.0035 -0.5938 -0.6502
11822SOL     OW38867   9.630   8.927   2.526  0.0608 -0.0867 -0.1821
11822SOL    HW138868   9.601   8.860   2.464  0.2143 -0.6342  0.3291
11822SOL    HW238869   9.678   8.879   2.594 -0.8265  0.3870  0.8152
11823SOL     OW38870   8.552   5.956   9.946 -0.2813  0.9513  0.1114
11823SOL    HW138871   8.633   5.905   9.945 -1.2659 -0.6852  0.3476
11823SOL    HW238872   8.483   5.891   9.956 -1.6361  2.3152 -0.0324
11824SOL     OW38873   6.920  10.592   3.290 -0.1109 -0.3008  0.2931
11824SOL    HW138874   6.961  10.515   3.251 -0.3039 -0.6326  0.7345
11824SOL    HW238875   6.968  10.666   3.253  0.7563 -0.6732  0.6340
11825SOL     OW38876   4.567  10.073   5.495  0.3275 -0.0681 -0.2420
11825SOL    HW138877   4.563  10.139   5.564 -1.6315 -1.9562  1.6299
11825SOL    HW238878   4.618  10.002   5.533  0.8510 -0.3762 -1.4987
11826SOL     OW38879   5.190   0.867   2.735  0.2897 -0.0586 -0.0764
11826SOL    HW138880   5.188   0.803   2.663  0.6934 -0.4808  0.2767
11826SOL    HW238881   5.166   0.950   2.695  0.3900 -0.3168 -0.6746
11827SOL     OW38882   0.242   1.991   6.115 -0.2916  0.0234  0.2898
11827SOL    HW138883   0.320   1.995   6.171 -1.1624  1.1581  1.4808
11827SOL    HW238884   0.256   1.913   6.061  0.7106 -1.0163  1.9388
11828SOL     OW38885   7.556   5.959   1.008  0.2763  0.2586  0.5684
11828SOL    HW138886   7.562   6.028   0.942  2.6585 -0.9072 -0.5472
11828SOL    HW238887   7.462   5.946   1.020 -0.2784  0.5212 -2.6149
11829SOL     OW38888   4.782  10.404   5.856 -0.5786  0.3205 -0.1616
11829SOL    HW138889   4.722  10.419   5.930 -0.1027 -0.6463  0.4413
11829SOL    HW238890   4.830  10.325   5.880 -0.0180  0.3090 -1.2658
11830SOL     OW38891   7.812   0.464   5.796  0.1007 -0.1983  0.0377
11830SOL    HW138892   7.759   0.400   5.748  0.6512 -0.3055 -0.4290
11830SOL    HW238893   7.799   0.546   5.748 -1.1237  0.2107  1.0096
11831SOL     OW38894   5.894   2.976   3.044 -0.5891 -0.3439  0.1643
11831SOL    HW138895   5.882   3.059   2.998  1.4056 -0.9786 -1.6686
11831SOL    HW238896   5.823   2.920   3.013 -0.1809 -0.2539 -0.9687
11832SOL     OW38897   8.445   6.855   7.612 -0.0304 -0.9241  0.1712
11832SOL    HW138898   8.514   6.874   7.549  1.1528  0.8647  1.8676
11832SOL    HW238899   8.490   6.807   7.683  1.2642  5.0016  4.1072
11833SOL     OW38900   0.301   3.552   8.356 -0.4309  0.0320  0.4407
11833SOL    HW138901   0.301   3.557   8.261 -0.0033  0.6462  0.4670
11833SOL    HW238902   0.250   3.628   8.384 -1.8572 -0.9688  0.6827
11834SOL     OW38903   7.222   0.513   0.498  0.2287 -0.0964  0.2926
11834SOL    HW138904   7.172   0.594   0.512  1.1427  0.4990  0.2133
11834SOL    HW238905   7.259   0.492   0.584  2.4772  1.2881 -0.2457
11835SOL     OW38906   5.929   9.721   0.404 -0.2220  0.4999 -0.1295
11835SOL    HW138907   5.965   9.796   0.453 -2.6943  0.7276  1.4726
11835SOL    HW238908   5.861   9.759   0.349  1.0545 -0.0923 -2.2217
11836SOL     OW38909  10.090   3.547   5.883  0.4148  0.1503 -0.2305
11836SOL    HW138910  10.158   3.492   5.922 -0.2667 -0.1262  0.6052
11836SOL    HW238911  10.015   3.536   5.941 -0.6775 -0.3503 -1.6909
11837SOL     OW38912  10.656   8.237   1.200 -0.0224  0.3688 -0.2319
11837SOL    HW138913  10.726   8.186   1.241 -0.5341  1.5683  2.3103
11837SOL    HW238914  10.694   8.325   1.191 -1.0755  0.9594  0.9108
11838SOL     OW38915  10.440   8.441   1.455 -0.7945  1.0927 -0.4415
11838SOL    HW138916  10.533   8.454   1.438 -0.5112 -1.3998 -1.1348
11838SOL    HW238917  10.396   8.508   1.403  0.5655  1.7417 -0.7802
11839SOL     OW38918   1.811   2.311   0.528  0.3569 -0.1041  0.0685
11839SOL    HW138919   1.876   2.241   0.535 -0.7528 -1.2619 -0.7458
11839SOL    HW238920   1.861   2.391   0.541  2.0358 -0.9249 -0.9351
11840SOL     OW38921   7.236   5.197   0.358 -0.0218 -0.1196  0.3695
11840SOL    HW138922   7.278   5.280   0.380 -0.2682  0.0502  0.2032
11840SOL    HW238923   7.303   5.131   0.375 -0.3531 -0.0554  2.1859
11841SOL     OW38924   5.239   1.274   3.346 -0.2617  0.3374  0.1635
11841SOL    HW138925   5.309   1.219   3.381 -0.4950  0.3295  0.6110
11841SOL    HW238926   5.271   1.300   3.259  0.6291  0.9246  0.6445
11842SOL     OW38927   1.995   6.068   5.950 -0.1856  0.2309  0.3450
11842SOL    HW138928   1.965   6.140   5.896  2.9415  0.7835 -0.8935
11842SOL    HW238929   2.043   6.110   6.022 -0.7259 -0.6041  1.2266
11843SOL     OW38930   1.200   4.137   5.841  0.6997 -0.2885 -0.0197
11843SOL    HW138931   1.245   4.084   5.775 -0.2137 -1.3769  0.2086
11843SOL    HW238932   1.221   4.095   5.925  1.5092  0.8378  0.3835
11844SOL     OW38933   3.003   2.819   7.961 -0.2867  0.0903 -0.4220
11844SOL    HW138934   2.999   2.884   7.890  0.4748 -1.3051 -1.8082
11844SOL    HW238935   2.914   2.784   7.968 -0.2784 -0.0429 -0.9707
11845SOL     OW38936   6.486   8.067   5.121 -0.2942  0.0020  0.1057
11845SOL    HW138937   6.421   8.125   5.159  0.4031  0.7556  0.1675
11845SOL    HW238938   6.436   8.014   5.058 -0.8708  0.9296 -0.2385
11846SOL     OW38939   1.290   1.971   7.852 -0.1957  0.0344 -0.0883
11846SOL    HW138940   1.362   1.967   7.789  0.4160  0.5996  0.5605
11846SOL    HW238941   1.227   1.907   7.820  1.1174 -1.3466 -0.0070
11847SOL     OW38942   7.772   0.801   1.087  0.1591 -0.2346 -0.1581
11847SOL    HW138943   7.816   0.886   1.083  0.1523 -0.0183  2.5184
11847SOL    HW238944   7.843   0.737   1.077  0.1820  0.0365 -2.0463
11848SOL     OW38945   0.205   8.183   4.995  0.1178 -0.3550 -1.0150
11848SOL    HW138946   0.139   8.127   4.954  0.1235 -0.7382 -0.5103
11848SOL    HW238947   0.219   8.145   5.082  1.6098 -0.7820 -1.4016
11849SOL     OW38948  10.699  10.477   7.716 -0.5454  0.5932 -0.0790
11849SOL    HW138949  10.766  10.541   7.693  0.6987 -0.0742  1.5343
11849SOL    HW238950  10.692  10.420   7.639 -2.0433  2.8748 -1.7473
11850SOL     OW38951   9.079   5.583   5.914 -0.0644  0.1718  0.1251
11850SOL    HW138952   8.994   5.549   5.943 -0.1377  0.2268 -0.0227
11850SOL    HW238953   9.129   5.506   5.889 -0.4531  0.2085 -0.8143
11851SOL     OW38954   8.049  10.551   6.835 -0.2440 -0.1216  0.4326
11851SOL    HW138955   8.062  10.564   6.741 -2.5954  2.3195  0.3274
11851SOL    HW238956   8.015  10.462   6.842  1.7548 -1.0645 -0.7343
11852SOL     OW38957   2.244   6.314   2.131 -0.4043  0.4544 -0.0251
11852SOL    HW138958   2.190   6.297   2.054  0.2979 -1.4145 -0.1539
11852SOL    HW238959   2.182   6.318   2.203 -0.8517 -0.2866 -0.3591
11853SOL     OW38960  10.711   1.005   0.023 -0.2774 -0.2823 -0.0592
11853SOL    HW138961  10.714   1.096  -0.007 -2.0983  0.6914  2.4744
11853SOL    HW238962  10.761   1.005   0.104 -0.4218 -1.5287  0.0460
11854SOL     OW38963   7.556   5.151   1.427  0.0765 -0.4590 -0.0256
11854SOL    HW138964   7.482   5.208   1.407  1.2320  0.9439 -0.4819
11854SOL    HW238965   7.524   5.094   1.497 -0.9398  1.1827  0.9216
11855SOL     OW38966   7.338   9.088   1.181  0.5688  0.0858 -0.0143
11855SOL    HW138967   7.340   9.127   1.094 -0.5644  1.1375  0.4029
11855SOL    HW238968   7.407   9.022   1.179  0.4000 -0.0881 -1.7847
11856SOL     OW38969   5.620   8.978   9.716  0.3881 -0.2767  0.6233
11856SOL    HW138970   5.673   9.053   9.744  1.3602 -1.6909  2.8662
11856SOL    HW238971   5.553   9.016   9.660  0.5306  2.3384  2.0481
11857SOL     OW38972   7.168   9.658   9.795  0.5906  0.1459 -0.5274
11857SOL    HW138973   7.214   9.690   9.873  0.1226  1.1463 -0.6520
11857SOL    HW238974   7.228   9.677   9.723  0.8065 -0.3223 -0.4758
11858SOL     OW38975   4.841   2.320   1.714 -0.9179  0.0105 -0.4148
11858SOL    HW138976   4.795   2.237   1.700  0.3943 -0.9606  0.6750
11858SOL    HW238977   4.889   2.306   1.796  1.8540  0.6635 -1.8065
11859SOL     OW38978   9.224   7.027   1.601 -0.1078  0.1930 -0.6177
11859SOL    HW138979   9.261   6.994   1.683 -1.9072 -0.3300  0.0276
11859SOL    HW238980   9.240   7.121   1.604 -1.8739  0.4992  1.3424
11860SOL     OW38981   3.546   0.951  10.330  0.5907  0.3363 -0.2494
11860SOL    HW138982   3.576   0.932  10.419  2.3972 -0.4352 -0.9832
11860SOL    HW238983   3.610   1.012  10.295 -0.4664  1.1527 -0.8275
11861SOL     OW38984  10.147   4.527   5.024  0.4248  0.0689 -0.0004
11861SOL    HW138985  10.153   4.440   4.984 -1.1257  0.2725 -0.7509
11861SOL    HW238986  10.156   4.511   5.118  1.6473 -0.7109 -0.2282
11862SOL     OW38987   4.056   3.898   6.449 -0.0531  0.2156  0.3721
11862SOL    HW138988   4.001   3.905   6.526 -0.2428  2.0799  0.1089
11862SOL    HW238989   4.010   3.836   6.392 -0.1569 -0.7916  1.5323
11863SOL     OW38990   2.053  10.345   7.061  0.7070  0.2038  0.0008
11863SOL    HW138991   2.081  10.328   7.150  1.5984 -2.0433 -0.6426
11863SOL    HW238992   2.128  10.387   7.019  1.1096 -0.7615 -0.2600
11864SOL     OW38993   3.715   5.793   8.785 -0.3320  0.2509 -0.0545
11864SOL    HW138994   3.707   5.825   8.874  1.5912 -1.9407  1.0167
11864SOL    HW238995   3.809   5.783   8.771 -0.5793  0.5448 -2.3605
11865SOL     OW38996   4.055   2.258   6.409  0.1875  0.0120  0.1152
11865SOL    HW138997   4.066   2.170   6.373  0.3263  0.1473 -0.1726
11865SOL    HW238998   4.141   2.282   6.444  0.2371  0.1739 -0.1203
11866SOL     OW38999   7.109   7.414   8.896  0.0891 -0.2369  0.4936
11866SOL    HW139000   7.107   7.504   8.863 -0.7620  0.5159  2.4439
11866SOL    HW239001   7.049   7.366   8.838 -0.7806  0.8584  0.4393
11867SOL     OW39002   2.795  10.833   3.493 -0.0344  0.0935  0.4572
11867SOL    HW139003   2.859  10.904   3.485  2.0675 -1.7993 -0.7322
11867SOL    HW239004   2.782  10.803   3.404 -1.0861 -0.8863  0.9197
11868SOL     OW39005   8.614   9.465   8.283 -0.5036 -0.3612  0.2747
11868SOL    HW139006   8.609   9.382   8.331 -0.5277 -0.1500  0.6374
11868SOL    HW239007   8.657   9.526   8.343  1.7276 -0.7224 -0.8315
11869SOL     OW39008   1.377   2.388   7.384 -0.5445  0.2402  0.0012
11869SOL    HW139009   1.429   2.417   7.308  0.9744  0.1264  0.9549
11869SOL    HW239010   1.438   2.338   7.437 -1.3389  1.0307  1.7358
11870SOL     OW39011   5.013   7.949   3.406  0.3873 -0.0156 -0.3181
11870SOL    HW139012   4.932   7.899   3.416  0.9117 -0.9636 -0.6033
11870SOL    HW239013   5.022   7.961   3.312  0.1758  0.7897 -0.2400
11871SOL     OW39014   0.678   1.562   8.599  0.0922 -0.0766 -0.0790
11871SOL    HW139015   0.597   1.583   8.552  0.7242 -1.1224 -1.7800
11871SOL    HW239016   0.710   1.645   8.632 -1.5093  0.3955  0.3371
11872SOL     OW39017  10.019   3.664   5.346 -0.3386  0.2471 -0.3172
11872SOL    HW139018  10.080   3.720   5.298 -0.1347 -0.9758 -1.5332
11872SOL    HW239019   9.934   3.679   5.305 -0.5774  0.8073  0.3711
11873SOL     OW39020   3.871   7.447  10.862 -0.3560 -0.0364  0.4047
11873SOL    HW139021   3.864   7.374  10.923 -1.9275 -0.2952 -0.0383
11873SOL    HW239022   3.782   7.485  10.859  0.0403  0.8763 -0.5990
11874SOL     OW39023   6.596   6.317   4.598  0.7113  0.1611 -0.0495
11874SOL    HW139024   6.549   6.234   4.607 -1.4312  1.2337 -0.6421
11874SOL    HW239025   6.566   6.352   4.514  1.0707  1.8248  0.4853
11875SOL     OW39026   2.482   1.045   6.958 -0.4834  0.3262 -0.6812
11875SOL    HW139027   2.519   1.070   7.043  1.8054  1.4281 -1.9122
11875SOL    HW239028   2.517   0.958   6.941 -0.6132  0.2740 -0.6835
11876SOL     OW39029   9.838   3.752   0.856  0.0753  0.1643 -0.1505
11876SOL    HW139030   9.799   3.802   0.927 -0.1801  1.5773 -1.2403
11876SOL    HW239031   9.764   3.723   0.803  0.1586 -2.1261  0.8994
11877SOL     OW39032   6.789   8.701   6.617 -0.3986 -0.1206 -0.2517
11877SOL    HW139033   6.797   8.686   6.523 -0.7266  0.2448 -0.3435
11877SOL    HW239034   6.807   8.795   6.628  3.4081 -0.8113  0.5103
11878SOL     OW39035   6.889   8.569   6.869 -0.2798  0.5927  0.4333
11878SOL    HW139036   6.835   8.489   6.872 -0.7964  0.7406 -2.1635
11878SOL    HW239037   6.852   8.619   6.796  4.0727  0.1377 -2.4070
11879SOL     OW39038   8.871   4.219   2.150 -0.0270  0.4134 -0.1636
11879SOL    HW139039   8.831   4.236   2.235  0.7455  0.3710  0.2165
11879SOL    HW239040   8.804   4.244   2.086 -1.7757 -2.2520  0.4372
11880SOL     OW39041   7.092   6.946   3.386 -1.0446 -0.6519 -0.0121
11880SOL    HW139042   7.108   6.904   3.470 -0.6932 -0.8464 -0.1723
11880SOL    HW239043   7.168   6.923   3.333  0.1994  1.8418  0.5241
11881SOL     OW39044   4.271  10.887   5.029 -0.2963  0.0546 -0.7765
11881SOL    HW139045   4.329  10.810   5.032  1.1279  0.8655 -3.7199
11881SOL    HW239046   4.191  10.854   4.989 -0.3302 -0.2266 -0.4870
11882SOL     OW39047   0.111   2.707   1.537  0.2614 -0.1404  0.8958
11882SOL    HW139048   0.071   2.627   1.504 -0.7008  0.8240 -0.3985
11882SOL    HW239049   0.190   2.718   1.484 -0.2563  0.3800  0.2019
11883SOL     OW39050   1.890   8.921   3.313  0.3573  0.3788 -0.0882
11883SOL    HW139051   1.917   8.979   3.384 -0.6907 -0.7813  1.3343
11883SOL    HW239052   1.968   8.870   3.292  0.3426 -0.2495  1.2587
11884SOL     OW39053   6.406   7.975   3.943  0.2370  0.5222  0.0399
11884SOL    HW139054   6.443   8.033   4.010  2.5777  1.3909 -1.8691
11884SOL    HW239055   6.415   7.887   3.980  1.0497  1.0097  1.0673
11885SOL     OW39056   4.680  10.919   6.538 -0.2228 -0.2095  0.1100
11885SOL    HW139057   4.697  10.998   6.488 -0.2518 -0.3639 -0.1463
11885SOL    HW239058   4.767  10.890   6.567 -0.1218 -0.5495 -0.5133
11886SOL     OW39059   4.047   0.309   3.462 -0.0780 -0.0229  0.1041
11886SOL    HW139060   4.142   0.317   3.468  0.3582  1.1128 -4.3838
11886SOL    HW239061   4.013   0.390   3.502  0.9695  0.3479  0.2657
11887SOL     OW39062  10.614   1.096   4.912  0.4315  0.3415  0.0945
11887SOL    HW139063  10.521   1.089   4.893  0.7261 -0.9663 -0.9951
11887SOL    HW239064  10.618   1.109   5.007 -0.9160  2.6783 -0.0904
11888SOL     OW39065   3.518  10.889   8.118  0.0655  0.3671 -0.4235
11888SOL    HW139066   3.494  10.825   8.185 -1.6007  0.7060 -0.6426
11888SOL    HW239067   3.465  10.966   8.139  1.7348  1.5502 -0.4008
11889SOL     OW39068   3.873  10.273   1.114 -0.1219  0.9732  0.3355
11889SOL    HW139069   3.934  10.282   1.040  0.0504  2.8949  0.6706
11889SOL    HW239070   3.787  10.267   1.073  0.1584 -0.3899 -0.0913
11890SOL     OW39071   3.483   3.127  10.588  0.4989  0.0194  0.1652
11890SOL    HW139072   3.479   3.208  10.537 -0.5184 -0.5701 -0.7286
11890SOL    HW239073   3.576   3.118  10.611  1.0230  0.1849 -1.7719
11891SOL     OW39074   1.288   5.674   1.206 -0.8101  0.4436 -0.0566
11891SOL    HW139075   1.364   5.620   1.184 -0.2009  1.3161 -0.1523
11891SOL    HW239076   1.322   5.739   1.268 -1.2415  1.4433 -0.8415
11892SOL     OW39077   4.379   8.772   4.188 -0.1644  0.1605  0.0900
11892SOL    HW139078   4.317   8.749   4.258 -0.5223 -0.3013 -0.3749
11892SOL    HW239079   4.440   8.833   4.230  0.2742 -0.9355  1.1178
11893SOL     OW39080   8.686   7.371   3.633  0.2927 -0.0430  0.3017
11893SOL    HW139081   8.760   7.351   3.690  0.9814  0.5309 -0.3722
11893SOL    HW239082   8.722   7.367   3.544 -0.3271  0.8558 -0.0090
11894SOL     OW39083   5.776   7.390   3.352 -0.2247 -0.7430 -0.4161
11894SOL    HW139084   5.712   7.340   3.401  0.0872 -1.3361 -0.6078
11894SOL    HW239085   5.819   7.326   3.295  0.1261 -0.2505 -0.7194
11895SOL     OW39086   9.742   4.945   5.962 -0.4665  0.0123 -0.2468
11895SOL    HW139087   9.815   4.884   5.974  0.0946  0.5882 -0.6677
11895SOL    HW239088   9.700   4.916   5.881  0.4887  0.8488 -1.0693
11896SOL     OW39089   1.667   3.486   9.315 -0.6965  0.3103  0.3964
11896SOL    HW139090   1.577   3.507   9.340 -1.2139 -1.4008  0.1416
11896SOL    HW239091   1.657   3.423   9.243  0.6919 -0.1564  0.5886
11897SOL     OW39092   3.679   0.461   2.547  0.4195  0.0848  0.9066
11897SOL    HW139093   3.693   0.371   2.516 -1.6263 -0.2862  0.9110
11897SOL    HW239094   3.665   0.453   2.641 -5.2196 -0.5074  0.3430
11898SOL     OW39095   5.344   9.115   0.083 -0.0190  0.5096  0.8305
11898SOL    HW139096   5.275   9.076   0.137  0.7649  0.1340  1.5815
11898SOL    HW239097   5.305   9.123  -0.004 -1.3742  1.3032  1.4787
11899SOL     OW39098   5.589   0.510   7.600 -0.2826  0.0271 -0.1233
11899SOL    HW139099   5.656   0.444   7.582 -1.1036 -0.9245  0.2325
11899SOL    HW239100   5.622   0.590   7.557  1.1242 -0.3774  0.1386
11900SOL     OW39101   2.465   3.261  10.590 -0.0277  0.3783 -0.0212
11900SOL    HW139102   2.436   3.232  10.677  1.0795  0.2657  0.3249
11900SOL    HW239103   2.434   3.192  10.531  0.9833 -0.6262  0.5648
11901SOL     OW39104   2.226   7.767   7.408 -0.4190 -0.2552  0.5439
11901SOL    HW139105   2.166   7.741   7.338 -0.6742  0.2310  0.5812
11901SOL    HW239106   2.249   7.858   7.388  2.3507 -1.1797 -0.9213
11902SOL     OW39107   9.359   0.152  10.106  0.4497 -0.3446  0.6255
11902SOL    HW139108   9.376   0.211  10.033  0.3443 -0.4569  0.5089
11902SOL    HW239109   9.379   0.065  10.072 -0.9875 -0.5661  0.2514
11903SOL     OW39110   1.823   6.487   9.354  0.1433  0.2392 -0.1298
11903SOL    HW139111   1.836   6.545   9.429  3.0099  0.6916 -0.8243
11903SOL    HW239112   1.818   6.400   9.392  0.0415  0.5901  0.6889
11904SOL     OW39113   6.981   9.741   8.267  0.4711 -0.0481 -0.5063
11904SOL    HW139114   6.917   9.703   8.207 -0.2588  0.0600  0.1802
11904SOL    HW239115   7.057   9.760   8.212  0.2423 -0.9712 -1.1761
11905SOL     OW39116   1.899   1.481   6.851 -0.0902  0.0904 -0.4001
11905SOL    HW139117   1.970   1.418   6.863 -1.2145 -1.6477 -2.3079
11905SOL    HW239118   1.865   1.463   6.763 -1.2554  2.5763 -0.5316
11906SOL     OW39119   9.653   5.927   8.390 -0.4552  0.1217  0.1817
11906SOL    HW139120   9.738   5.958   8.420 -0.6542  1.0608 -0.1979
11906SOL    HW239121   9.630   5.985   8.318 -0.3392 -1.6352 -1.3216
11907SOL     OW39122   5.817   4.827   0.979 -0.4407 -0.8809  0.4010
11907SOL    HW139123   5.868   4.747   0.968 -3.1395 -3.0258  2.1609
11907SOL    HW239124   5.852   4.868   1.058  0.8463 -0.3271 -0.4181
11908SOL     OW39125   2.254   2.769   4.202 -0.0577  0.5166 -0.0237
11908SOL    HW139126   2.163   2.776   4.171 -0.4398 -0.1864  0.8612
11908SOL    HW239127   2.256   2.822   4.281  0.3827  0.7384 -0.1822
11909SOL     OW39128   3.069   4.257   2.639  0.0452  0.9177 -0.3527
11909SOL    HW139129   3.014   4.335   2.635 -0.6092  0.4517 -0.5206
11909SOL    HW239130   3.116   4.266   2.722 -0.7701  1.0046  0.1098
11910SOL     OW39131  10.350   3.878   3.260 -0.3109  0.4348  0.3644
11910SOL    HW139132  10.402   3.848   3.185 -0.5164  0.7813  0.0809
11910SOL    HW239133  10.357   3.807   3.324  0.8544  0.6471  0.5003
11911SOL     OW39134   9.317   9.080   2.118  0.5015  0.2476  0.4974
11911SOL    HW139135   9.381   9.141   2.155  0.4776  0.2168  0.5894
11911SOL    HW239136   9.262   9.055   2.193 -0.1445  0.9276  0.2692
11912SOL     OW39137   6.298   2.359   1.217  0.0553 -0.4747  0.7222
11912SOL    HW139138   6.331   2.448   1.210 -0.3835 -0.3785 -0.2977
11912SOL    HW239139   6.298   2.340   1.311 -0.5541  0.8599  1.0072
11913SOL     OW39140   1.466   1.348   1.239 -0.0046  0.1012 -0.3329
11913SOL    HW139141   1.398   1.282   1.237  0.5110 -0.6376  2.2829
11913SOL    HW239142   1.546   1.300   1.264  1.2632  1.1271 -2.1437
11914SOL     OW39143  10.146   7.745   0.544  0.4262 -0.3034 -0.2711
11914SOL    HW139144  10.223   7.766   0.597  0.1028  0.6865 -0.1856
11914SOL    HW239145  10.103   7.674   0.593  1.5554 -1.2563 -0.5959
11915SOL     OW39146   7.390   3.361   0.201  0.1622 -0.0313  0.1716
11915SOL    HW139147   7.336   3.407   0.266  0.7162 -0.0807  0.6717
11915SOL    HW239148   7.330   3.298   0.161 -0.9561  1.9242 -1.4096
11916SOL     OW39149   0.546   4.212   3.627  0.2540 -0.0106 -0.2118
11916SOL    HW139150   0.471   4.235   3.572  0.6066 -0.6032 -0.9487
11916SOL    HW239151   0.622   4.245   3.580  0.4203  1.4038  0.9744
11917SOL     OW39152   3.921   0.912  10.553 -0.3591 -0.4632  0.0691
11917SOL    HW139153   3.878   0.990  10.516  0.4874  1.2703  2.4457
11917SOL    HW239154   3.991   0.891  10.491 -0.7177  0.5838 -0.7154
11918SOL     OW39155   6.537   1.997   0.854 -0.5511 -0.3069 -0.4555
11918SOL    HW139156   6.605   1.991   0.787  0.2944 -1.5810  0.4682
11918SOL    HW239157   6.530   1.909   0.889 -1.6973  0.1162  0.4469
11919SOL     OW39158   2.336   1.316   7.051 -0.3496  0.4427 -0.4211
11919SOL    HW139159   2.409   1.265   7.015 -0.4604 -0.7432  0.9120
11919SOL    HW239160   2.331   1.394   6.996  0.9223 -0.1931 -1.4974
11920SOL     OW39161   4.716   2.179   0.675  0.2357 -0.2396  0.2067
11920SOL    HW139162   4.753   2.202   0.590  0.9490 -0.0388  0.5634
11920SOL    HW239163   4.732   2.256   0.730  1.1034 -0.9105  0.9245
11921SOL     OW39164   6.126   0.103   8.580  0.1255  0.8526 -0.2649
11921SOL    HW139165   6.098   0.012   8.589 -1.5702  1.4634  0.9945
11921SOL    HW239166   6.204   0.109   8.635  0.1864  0.2100 -0.2690
11922SOL     OW39167   7.897   5.260   9.288  0.2413 -0.7021 -0.0103
11922SOL    HW139168   7.936   5.306   9.362  0.3752  1.6886 -1.4659
11922SOL    HW239169   7.955   5.185   9.273  0.1049 -1.3573  2.3496
11923SOL     OW39170   1.189   1.928   9.974 -0.7549 -0.2131 -0.3381
11923SOL    HW139171   1.241   1.926  10.055 -0.6262  0.6434 -0.3825
11923SOL    HW239172   1.201   1.842   9.935 -2.1815 -1.2649  1.3996
11924SOL     OW39173  10.758   8.804   0.794 -0.2955  0.1477 -0.3577
11924SOL    HW139174  10.793   8.876   0.846  0.0300 -0.8031  0.8071
11924SOL    HW239175  10.666   8.797   0.822 -0.2608 -0.0366 -0.2898
11925SOL     OW39176   0.450   2.287   4.555 -0.6217  0.2703  0.0428
11925SOL    HW139177   0.507   2.364   4.562 -1.9596  1.5125 -1.7525
11925SOL    HW239178   0.423   2.269   4.645  0.6979  1.1111  0.6442
11926SOL     OW39179   8.322   4.246   3.846 -0.1991  0.3441  0.1458
11926SOL    HW139180   8.249   4.297   3.810  0.3904 -0.3480 -2.2543
11926SOL    HW239181   8.400   4.289   3.812  0.3712 -1.0185 -0.3503
11927SOL     OW39182   3.488   7.981   3.208 -0.7099  0.4578  0.3904
11927SOL    HW139183   3.426   7.958   3.139 -1.0872 -0.3724  1.0002
11927SOL    HW239184   3.448   8.054   3.254 -1.3436 -0.2024  0.9067
11928SOL     OW39185   4.538   0.997   4.830 -0.1573 -0.3236  0.3531
11928SOL    HW139186   4.523   0.945   4.909  1.5362 -1.0458  0.2415
11928SOL    HW239187   4.609   0.953   4.785  0.3645  1.2814 -0.4896
11929SOL     OW39188   7.340   1.741   5.707 -0.2835  0.0696  1.0216
11929SOL    HW139189   7.381   1.821   5.675  0.0614 -0.4824  0.0270
11929SOL    HW239190   7.414   1.686   5.734 -0.2996 -0.8925 -0.6881
11930SOL     OW39191   9.852   2.783   0.751 -0.1264 -0.1348  0.4002
11930SOL    HW139192   9.877   2.710   0.694 -1.7527  0.0340 -0.5773
11930SOL    HW239193   9.770   2.755   0.792  0.5479  0.1244  1.9947
11931SOL     OW39194   9.963   7.745   4.953  0.0619 -0.2526 -0.0564
11931SOL    HW139195  10.026   7.673   4.957  1.2668  0.7768  0.0308
11931SOL    HW239196   9.879   7.704   4.976  0.5042 -1.8431 -1.1163
11932SOL     OW39197   0.464   8.586   0.429  0.0861  0.1987 -0.2252
11932SOL    HW139198   0.534   8.528   0.401 -0.1834  0.6551 -1.9595
11932SOL    HW239199   0.386   8.552   0.386 -0.7306 -0.0922  1.3975
11933SOL     OW39200   1.556   3.206   0.344  0.2453 -0.1345  0.4656
11933SOL    HW139201   1.480   3.265   0.348  0.8044  0.5081  2.3053
11933SOL    HW239202   1.625   3.258   0.304  0.1050 -0.2921  0.0102
11934SOL     OW39203   2.381   4.639   0.145 -0.2835 -0.2423 -0.5388
11934SOL    HW139204   2.373   4.699   0.220  1.8841 -1.6427  0.9147
11934SOL    HW239205   2.424   4.691   0.077  1.5146 -0.0703  0.6781
11935SOL     OW39206   5.891   9.498   0.822 -0.0541  0.6528 -0.0829
11935SOL    HW139207   5.844   9.443   0.760  1.2614 -0.2383 -0.3456
11935SOL    HW239208   5.893   9.585   0.783 -1.4322  0.7028 -0.0657
11936SOL     OW39209   4.737   4.861   2.255 -0.2753  0.4292 -0.1447
11936SOL    HW139210   4.642   4.869   2.260 -0.4343  0.2827 -2.0832
11936SOL    HW239211   4.761   4.805   2.328 -1.6308  0.7901  0.6015
11937SOL     OW39212   4.423   2.946   9.349 -0.1036  0.6271  0.7419
11937SOL    HW139213   4.474   2.961   9.270  0.3079 -1.2180  0.6079
11937SOL    HW239214   4.447   2.857   9.377 -2.0506  0.2995  1.5526
11938SOL     OW39215   9.070   7.003   8.804 -0.5862 -0.0857  0.3184
11938SOL    HW139216   9.099   7.014   8.713 -0.6220  1.7376  0.4973
11938SOL    HW239217   9.105   6.917   8.829  0.7942  0.0683 -0.9081
11939SOL     OW39218   3.241   6.897   0.482 -0.0718 -0.1836  0.0259
11939SOL    HW139219   3.326   6.930   0.513  0.1369 -0.9196  0.2591
11939SOL    HW239220   3.233   6.933   0.394  1.4553 -1.7070 -0.8205
11940SOL     OW39221   1.377  10.368   9.414  0.2688  0.8601  0.2635
11940SOL    HW139222   1.375  10.273   9.422 -0.7352  0.8429 -0.0866
11940SOL    HW239223   1.441  10.397   9.479  0.2880 -0.0210  0.6391
11941SOL     OW39224   9.738   9.059   2.158  0.1097 -0.3048 -0.3772
11941SOL    HW139225   9.695   8.983   2.197  2.8967 -1.7102  0.2328
11941SOL    HW239226   9.817   9.024   2.117 -0.0246  1.8857 -2.7822
11942SOL     OW39227  10.701  10.122  10.082 -0.0411  0.6867  0.3541
11942SOL    HW139228  10.720  10.204  10.035  1.4031  0.2042  0.0650
11942SOL    HW239229  10.642  10.075  10.023  1.1913  0.3997 -0.7024
11943SOL     OW39230   3.039   6.297   4.177  0.6552 -0.1084 -0.1028
11943SOL    HW139231   3.071   6.387   4.180 -2.1237  1.0092 -1.2594
11943SOL    HW239232   3.030   6.271   4.268  0.4270  1.1982  0.2643
11944SOL     OW39233   3.850  10.894   5.547  0.2277 -0.1272  0.2029
11944SOL    HW139234   3.878  10.934   5.465  1.8550 -0.4353  0.5840
11944SOL    HW239235   3.930  10.883   5.597 -0.2562 -2.9108  0.5390
11945SOL     OW39236   7.202  10.155   9.841  0.0781 -0.3241 -0.1665
11945SOL    HW139237   7.176  10.219   9.908 -2.0206 -0.1942 -1.0031
11945SOL    HW239238   7.208  10.072   9.888  0.7695  0.1235  0.5549
11946SOL     OW39239   1.939  10.814  10.433  0.3958 -0.0653  0.0172
11946SOL    HW139240   2.023  10.854  10.455  0.7531  0.2282 -1.7154
11946SOL    HW239241   1.889  10.816  10.515  2.6968 -1.9209  1.6098
11947SOL     OW39242   3.702   6.519   9.196  0.3991 -0.1186 -0.0634
11947SOL    HW139243   3.764   6.446   9.187  0.0263 -0.5526  0.7727
11947SOL    HW239244   3.752   6.596   9.170  0.5596 -0.7619 -1.7483
11948SOL     OW39245   1.142   8.731   1.036  0.6048  0.1343  0.6284
11948SOL    HW139246   1.123   8.784   0.959  0.2255 -0.6373  0.1821
11948SOL    HW239247   1.215   8.674   1.009 -1.3843 -2.2021 -0.1881
11949SOL     OW39248   1.446   7.624   6.901 -0.4451  0.5629  0.3143
11949SOL    HW139249   1.520   7.672   6.865 -0.8028  1.7522  1.0945
11949SOL    HW239250   1.377   7.633   6.836 -0.0450 -0.2191 -0.2363
11950SOL     OW39251   0.996   5.565   2.597 -0.3297 -0.0573  0.7250
11950SOL    HW139252   1.014   5.472   2.612 -1.1115 -0.3892 -0.2614
11950SOL    HW239253   1.079   5.599   2.563 -0.8818 -1.1498 -2.0003
11951SOL     OW39254   4.908   5.741   0.115  0.0821 -0.1259 -0.3487
11951SOL    HW139255   4.900   5.831   0.083  2.3107 -0.6358 -2.6643
11951SOL    HW239256   4.987   5.741   0.168  0.2779 -0.7652 -0.6275
11952SOL     OW39257   0.523   1.341   1.574 -0.3006 -0.0290  0.1227
11952SOL    HW139258   0.467   1.271   1.542  2.9325 -1.5476 -2.8851
11952SOL    HW239259   0.571   1.303   1.647 -2.6253  1.1759  2.4894
11953SOL     OW39260   9.742   8.217  10.063 -0.2080  0.4459  0.2845
11953SOL    HW139261   9.807   8.163  10.109 -0.1840  0.7470  0.6075
11953SOL    HW239262   9.658   8.186  10.096 -0.2059  0.4234  0.2687
11954SOL     OW39263   3.047   7.431   3.810  0.5889 -0.3144  0.2207
11954SOL    HW139264   3.061   7.518   3.774  0.8270  0.5151  2.1617
11954SOL    HW239265   2.955   7.431   3.838  0.8588 -0.2818  1.1563
11955SOL     OW39266   8.944   9.710   5.679  0.2839 -0.1061 -0.2589
11955SOL    HW139267   9.021   9.764   5.698 -0.7164  1.7554 -1.1501
11955SOL    HW239268   8.947   9.699   5.584 -1.1834  1.0712 -0.4717
11956SOL     OW39269   6.360   0.609   8.370 -0.1200  0.7360  0.2118
11956SOL    HW139270   6.451   0.625   8.395  0.2151 -0.2182 -0.3495
11956SOL    HW239271   6.313   0.687   8.400  0.5530  0.4552  2.1257
11957SOL     OW39272   2.680   5.429   3.125 -0.2125 -0.3181 -0.4737
11957SOL    HW139273   2.751   5.399   3.182  0.2735  0.0654 -0.8748
11957SOL    HW239274   2.609   5.453   3.185  0.3601  0.2502 -0.0199
11958SOL     OW39275   8.496   6.111   1.980  0.6980 -0.1883 -0.1799
11958SOL    HW139276   8.492   6.098   1.886  1.6512  1.3645 -0.4704
11958SOL    HW239277   8.552   6.041   2.012  2.1733  0.5421 -1.0809
11959SOL     OW39278   8.574   1.744   4.438 -0.0525 -0.7807 -0.4252
11959SOL    HW139279   8.628   1.776   4.511 -1.5744  0.8507  0.0599
11959SOL    HW239280   8.507   1.691   4.480 -0.8239  0.0107 -0.6215
11960SOL     OW39281   0.808   4.734   0.655 -0.5954  0.0161 -0.5665
11960SOL    HW139282   0.846   4.649   0.631 -1.9443 -0.2489 -1.8846
11960SOL    HW239283   0.875   4.798   0.631 -0.2733 -0.5547 -1.2184
11961SOL     OW39284   5.071   7.209   4.364  0.3810  1.3083 -0.0103
11961SOL    HW139285   5.013   7.238   4.294  0.9393 -1.6596 -1.9062
11961SOL    HW239286   5.114   7.289   4.395 -1.4348  2.9926 -1.5790
11962SOL     OW39287   0.863   8.408   8.427 -0.1716  0.1904  0.4886
11962SOL    HW139288   0.817   8.328   8.450  1.4468 -0.4412  1.6817
11962SOL    HW239289   0.871   8.456   8.510  1.8152 -0.0132  0.4649
11963SOL     OW39290   4.203  10.820   6.269 -0.0805 -0.4224  0.1615
11963SOL    HW139291   4.297  10.832   6.280  0.2993 -2.3348 -0.5770
11963SOL    HW239292   4.183  10.743   6.322 -0.8391 -1.2020 -1.1973
11964SOL     OW39293   6.149   2.566   0.947 -0.4174  0.5097  0.3000
11964SOL    HW139294   6.240   2.563   0.919 -0.5373 -0.5931 -0.0183
11964SOL    HW239295   6.117   2.476   0.937 -1.1561  0.5773  1.6932
11965SOL     OW39296   1.694   5.644   3.813 -0.1093 -0.3505 -0.7121
11965SOL    HW139297   1.652   5.645   3.727 -0.7878 -0.7884 -0.3953
11965SOL    HW239298   1.621   5.633   3.875  0.4923 -1.3334 -0.1586
11966SOL     OW39299   6.648   9.857   0.660  0.1274  0.1071  0.4044
11966SOL    HW139300   6.671   9.947   0.684 -0.9783  0.5149  0.0277
11966SOL    HW239301   6.606   9.821   0.738  0.3653 -0.0093  0.4799
11967SOL     OW39302   1.670  10.607   2.167  0.2566 -0.1595  0.4049
11967SOL    HW139303   1.743  10.633   2.111  1.0503 -2.2960  0.3664
11967SOL    HW239304   1.604  10.675   2.153  2.3380  2.1002  0.7590
11968SOL     OW39305   1.847  10.428   3.565 -0.0311  0.4598 -0.6775
11968SOL    HW139306   1.917  10.392   3.621 -0.5476 -1.4853 -1.2264
11968SOL    HW239307   1.831  10.515   3.601  0.9576 -0.0091  1.0355
11969SOL     OW39308   3.480   0.832   0.317 -0.2294  0.5155 -0.4616
11969SOL    HW139309   3.571   0.865   0.319 -0.4641  1.2536  1.6359
11969SOL    HW239310   3.478   0.764   0.385 -2.0183  3.1140  2.3815
11970SOL     OW39311   3.674   6.349  10.756  0.1034 -0.8444  0.1691
11970SOL    HW139312   3.670   6.408  10.681  0.5672 -2.0996 -0.8712
11970SOL    HW239313   3.586   6.351  10.793  0.4776  1.6361  1.0941
11971SOL     OW39314   1.437   3.999   0.305 -0.3536  0.3880 -0.0124
11971SOL    HW139315   1.531   3.982   0.311 -0.1902  1.2542 -0.0523
11971SOL    HW239316   1.429   4.093   0.317 -0.9571  0.7422 -2.5481
11972SOL     OW39317   5.787   2.091   9.744 -0.2363 -0.1301  0.2901
11972SOL    HW139318   5.883   2.093   9.735 -0.1453  1.3735  1.1297
11972SOL    HW239319   5.756   2.053   9.662  1.0464  0.3903 -0.4781
11973SOL     OW39320   3.806   9.990   2.844 -0.0809  0.1720 -0.4965
11973SOL    HW139321   3.758   9.943   2.913 -0.7508  1.2923 -0.1694
11973SOL    HW239322   3.750   9.984   2.767 -0.6029  1.1685 -0.2129
11974SOL     OW39323   4.030   8.414  10.484  0.5178  0.4391  0.0015
11974SOL    HW139324   4.090   8.442  10.553  2.8998  1.4333 -2.3104
11974SOL    HW239325   3.980   8.493  10.461 -0.4655  0.0466  0.6909
11975SOL     OW39326   9.824   4.295   6.355 -0.2684 -0.3657  0.1838
11975SOL    HW139327   9.733   4.293   6.382 -0.4591  0.1928 -0.3930
11975SOL    HW239328   9.861   4.372   6.399 -0.0625 -0.6295  0.4697
11976SOL     OW39329   8.092  10.621   2.380 -0.5030 -0.1861  0.4904
11976SOL    HW139330   8.118  10.557   2.314 -0.0207  0.6246 -0.1262
11976SOL    HW239331   8.038  10.572   2.442 -0.2072 -1.1597 -0.0147
11977SOL     OW39332   0.650   1.696   9.346 -0.4089  0.2206  0.0733
11977SOL    HW139333   0.580   1.635   9.368 -1.8804  1.6141 -0.5456
11977SOL    HW239334   0.664   1.747   9.425  1.9654 -1.8544  1.1430
11978SOL     OW39335   0.312   4.059   8.517 -0.0988  0.3157  0.3689
11978SOL    HW139336   0.332   4.143   8.476 -0.1585  0.2167  0.1288
11978SOL    HW239337   0.373   3.998   8.475 -0.4174  0.1426  0.1535
11979SOL     OW39338   5.047   3.946   3.826 -0.1185 -0.0525  0.0953
11979SOL    HW139339   5.051   4.022   3.885  1.5307  0.3320 -0.4588
11979SOL    HW239340   4.975   3.966   3.766 -0.7479  0.3064  0.9390
11980SOL     OW39341   3.817   3.501   9.702  0.6394 -0.0300  0.1852
11980SOL    HW139342   3.881   3.485   9.633  0.1373  1.5465 -0.7046
11980SOL    HW239343   3.867   3.539   9.774  1.1240 -1.4219  0.5969
11981SOL     OW39344  10.470   9.184   7.392  0.5357 -0.1139 -0.7225
11981SOL    HW139345  10.479   9.165   7.299  1.3362  2.0388 -1.1504
11981SOL    HW239346  10.467   9.280   7.397  2.1412 -0.0929  1.5801
11982SOL     OW39347  10.774   8.897   3.334 -0.1389 -0.5724 -0.7936
11982SOL    HW139348  10.717   8.900   3.411  0.3125  0.5205 -0.4892
11982SOL    HW239349  10.801   8.805   3.328  1.8673 -0.2502  1.8787
11983SOL     OW39350   7.457   3.178  10.678  0.3288  0.1109 -0.4319
11983SOL    HW139351   7.479   3.197  10.769 -0.2004 -3.3112  0.5508
11983SOL    HW239352   7.537   3.196  10.629  0.8562  1.2750  0.8100
11984SOL     OW39353   7.989   0.462   7.707 -0.0164  0.8472  0.3737
11984SOL    HW139354   7.970   0.439   7.616  1.0798  0.3588  0.2507
11984SOL    HW239355   8.072   0.509   7.702  1.3097 -1.2813  1.3473
11985SOL     OW39356   2.286   7.049   7.379  1.0054  0.0909  0.0859
11985SOL    HW139357   2.300   7.143   7.369 -2.8507  0.8209 -0.2698
11985SOL    HW239358   2.246   7.022   7.296  1.5388 -1.7503  0.3894
11986SOL     OW39359  10.771   9.925   7.921 -0.1174 -0.1568 -0.7165
11986SOL    HW139360  10.688   9.943   7.965  0.1332 -0.0011 -0.3042
11986SOL    HW239361  10.834   9.915   7.992  0.5787  1.5391 -1.0603
11987SOL     OW39362  10.157   8.305   7.747 -0.7194  0.2662 -0.2921
11987SOL    HW139363  10.235   8.356   7.727  0.9937 -2.2929 -0.5974
11987SOL    HW239364  10.139   8.255   7.668 -1.4110 -0.7111  0.4473
11988SOL     OW39365   0.516   1.061   3.317 -0.5029 -0.1213 -0.0467
11988SOL    HW139366   0.589   1.072   3.255 -0.9974 -0.4945 -0.7077
11988SOL    HW239367   0.484   1.150   3.333 -0.4894 -0.0360 -0.4755
11989SOL     OW39368   0.840   1.676   6.181  0.4419  0.3063 -0.0915
11989SOL    HW139369   0.797   1.752   6.142 -3.8249 -1.2810  0.9585
11989SOL    HW239370   0.859   1.703   6.271  0.3587  0.5993 -0.1599
11990SOL     OW39371   4.490   5.960   0.206 -0.0596  0.0512 -0.5017
11990SOL    HW139372   4.553   5.908   0.256 -0.0593  0.8829  0.3964
11990SOL    HW239373   4.507   6.050   0.234 -0.6719  0.4315 -1.3431
11991SOL     OW39374   0.846  10.653   0.315 -0.1811 -0.6060 -0.5642
11991SOL    HW139375   0.776  10.699   0.361  0.8307  0.3259  0.0913
11991SOL    HW239376   0.809  10.634   0.228 -1.4458 -0.6928 -0.0275
11992SOL     OW39377   2.800   5.050  10.870  0.3351  0.0912  0.2267
11992SOL    HW139378   2.861   5.050  10.797  0.7462  1.2203  0.5457
11992SOL    HW239379   2.853   5.027  10.946 -0.0038 -0.6608  0.2389
11993SOL     OW39380   0.801   8.898   9.694  0.3202 -0.4959 -0.0811
11993SOL    HW139381   0.882   8.923   9.649  1.0385 -0.3992  1.1872
11993SOL    HW239382   0.831   8.842   9.766 -0.5590  0.8357  1.3834
11994SOL     OW39383   0.091   8.415   0.317 -0.3884  0.1444 -0.1980
11994SOL    HW139384   0.058   8.361   0.246  0.5061  0.6222 -0.9998
11994SOL    HW239385   0.042   8.497   0.309  0.3074  0.5092 -0.8025
11995SOL     OW39386   6.873   0.537   6.959 -0.0235  0.3329  0.5498
11995SOL    HW139387   6.968   0.546   6.952  0.0222  0.1882  0.9581
11995SOL    HW239388   6.860   0.463   7.018 -0.3926  0.1071  0.1866
11996SOL     OW39389   4.162  10.858   0.993 -0.0208 -0.4124 -0.4840
11996SOL    HW139390   4.113  10.940   0.984  1.4129  0.5259 -0.1497
11996SOL    HW239391   4.193  10.838   0.905  0.1837 -0.2228 -0.4568
11997SOL     OW39392   2.938   1.619  10.761 -0.1358  0.2508 -0.2925
11997SOL    HW139393   2.970   1.650  10.677  3.2390 -1.9791 -0.0431
11997SOL    HW239394   3.009   1.638  10.823 -1.6303 -0.0531  1.6336
11998SOL     OW39395   9.789   7.195   5.972  0.0407  0.2427 -0.1337
11998SOL    HW139396   9.758   7.157   6.053 -1.4350 -0.4792 -1.0104
11998SOL    HW239397   9.721   7.258   5.947 -0.7107 -1.2263 -1.9822
11999SOL     OW39398   0.375   1.699   4.519 -0.1653 -0.5049 -0.0791
11999SOL    HW139399   0.421   1.615   4.514 -0.8166 -0.8029 -1.9189
11999SOL    HW239400   0.332   1.708   4.434 -0.4393  1.5160  0.2181
12000SOL     OW39401   5.157   4.025   4.856 -0.4541 -0.5230 -0.0183
12000SOL    HW139402   5.201   3.983   4.782 -1.2320  0.1337 -0.8806
12000SOL    HW239403   5.180   4.118   4.848 -1.1444 -0.3336  0.1299
12001SOL     OW39404  10.791   0.683   7.187  0.0623 -1.4588 -0.3116
12001SOL    HW139405  10.833   0.639   7.113  0.9192 -1.3249  0.0782
12001SOL    HW239406  10.740   0.754   7.147  1.0310 -0.9815 -0.7426
12002SOL     OW39407   3.917   0.401   7.932 -0.3381  0.0900 -0.2908
12002SOL    HW139408   3.922   0.351   8.013  1.7395 -1.5836 -1.3504
12002SOL    HW239409   3.948   0.489   7.957 -1.7719  0.2371  1.1118
12003SOL     OW39410   8.643   8.958  10.374 -0.2811 -0.1013 -0.2568
12003SOL    HW139411   8.604   8.904  10.443 -0.8898  2.7940  1.8231
12003SOL    HW239412   8.735   8.967  10.399 -0.5400  1.0941  0.3404
12004SOL     OW39413   8.777   7.011   4.224 -0.5325 -0.0618  0.4104
12004SOL    HW139414   8.731   7.078   4.274 -1.5516 -0.2054 -0.3206
12004SOL    HW239415   8.708   6.956   4.188  0.0393  0.9597 -2.4726
12005SOL     OW39416   0.227   5.481   6.240  0.4208  0.5667 -0.0741
12005SOL    HW139417   0.274   5.466   6.158  0.8680 -0.5521  0.3778
12005SOL    HW239418   0.250   5.571   6.264  1.6197  0.3473 -0.3242
12006SOL     OW39419   2.890  10.211   8.410 -0.2157 -0.0949  1.3917
12006SOL    HW139420   2.871  10.177   8.323 -0.2680  1.8967  0.5815
12006SOL    HW239421   2.850  10.147   8.469 -0.7714 -1.1337 -0.0429
12007SOL     OW39422   5.441   2.826   4.062 -0.0071  0.0343 -0.2539
12007SOL    HW139423   5.353   2.828   4.026 -0.8823  2.2882  1.7367
12007SOL    HW239424   5.441   2.751   4.122 -0.3197 -0.4128 -0.8096
12008SOL     OW39425   2.010   0.304   7.868  0.7940  0.4008 -0.8570
12008SOL    HW139426   1.986   0.304   7.961  0.3153  0.9671 -0.9756
12008SOL    HW239427   1.929   0.282   7.822  1.4318 -1.8292 -1.0716
12009SOL     OW39428   3.275   8.071   0.969 -0.2462  0.4183 -0.6331
12009SOL    HW139429   3.230   8.023   1.038 -0.3828 -1.1043 -1.7117
12009SOL    HW239430   3.368   8.065   0.991 -0.0944 -1.8589 -1.5603
12010SOL     OW39431   0.477   5.664   3.616 -0.0036  0.5066 -0.1916
12010SOL    HW139432   0.412   5.715   3.567 -2.1225 -0.9870  0.9447
12010SOL    HW239433   0.505   5.723   3.687 -1.5485  0.5318  0.4257
12011SOL     OW39434   3.022   8.323  10.357  0.7048  0.1324  0.1909
12011SOL    HW139435   3.046   8.416  10.361 -0.1181  0.3469  0.1811
12011SOL    HW239436   3.066   8.291  10.279 -0.5476  0.9704 -0.9000
12012SOL     OW39437   1.844   0.111  10.051 -0.0194  0.5283  0.3709
12012SOL    HW139438   1.870   0.163  10.127 -2.0207  0.8117  0.9246
12012SOL    HW239439   1.819   0.026  10.088  0.3054  0.2019 -0.1471
12013SOL     OW39440   9.677   2.854   0.032 -0.0106  0.2824  0.2617
12013SOL    HW139441   9.632   2.831  -0.050 -0.6116 -1.2019  0.9721
12013SOL    HW239442   9.770   2.847   0.011 -0.1647 -1.6877  0.1055
12014SOL     OW39443   7.522   4.023   5.360 -0.0972  0.2605 -0.1536
12014SOL    HW139444   7.529   4.011   5.454 -1.6614  1.2975  0.1344
12014SOL    HW239445   7.476   4.106   5.349  0.0388  0.1546 -1.8289
12015SOL     OW39446   6.957   6.847   8.780 -0.4232  0.1159 -0.4119
12015SOL    HW139447   7.013   6.777   8.815 -0.2391  0.0774 -0.7723
12015SOL    HW239448   6.899   6.803   8.719  0.1997  0.3753 -1.2198
12016SOL     OW39449   0.823   9.152   9.241 -0.2447  0.4034  0.0566
12016SOL    HW139450   0.788   9.069   9.208  0.2597  0.2664 -0.1393
12016SOL    HW239451   0.916   9.136   9.254 -0.3980  0.4948  1.4390
12017SOL     OW39452   2.965   8.738   3.453  0.3399  0.1124 -0.0458
12017SOL    HW139453   2.931   8.787   3.529 -2.3130 -1.5951 -0.0071
12017SOL    HW239454   2.912   8.768   3.380 -0.8995 -2.1011 -0.1393
12018SOL     OW39455   8.709   4.988   7.132 -0.1009 -0.0742  0.4490
12018SOL    HW139456   8.707   4.896   7.106 -0.3057  0.3867 -1.2522
12018SOL    HW239457   8.622   5.022   7.110 -0.0649  0.5165  1.1616
12019SOL     OW39458   4.418   0.199   2.981 -0.1913  0.3171 -0.1471
12019SOL    HW139459   4.337   0.224   2.936 -1.4236 -2.0161  0.6439
12019SOL    HW239460   4.429   0.106   2.962  0.7112 -0.1104  2.1433
12020SOL     OW39461   4.495   8.521   7.045  0.2593 -0.3019  0.4807
12020SOL    HW139462   4.452   8.501   7.129  1.1610 -1.4201  0.7012
12020SOL    HW239463   4.588   8.523   7.066  0.5125 -0.8804 -0.5446
12021SOL     OW39464   2.404   0.195   4.341 -0.3340  0.0500  0.0686
12021SOL    HW139465   2.311   0.207   4.359 -0.4329 -1.1243  0.4075
12021SOL    HW239466   2.406   0.142   4.262  0.0671  0.9117 -0.5111
12022SOL     OW39467   0.519   1.609   0.478  0.0744 -0.4992  0.2182
12022SOL    HW139468   0.480   1.552   0.412  1.2696 -0.1690 -0.8049
12022SOL    HW239469   0.506   1.697   0.444  0.2508 -0.2915  0.6782
12023SOL     OW39470   8.679   1.960   1.723  0.3651 -0.5192  0.3366
12023SOL    HW139471   8.715   1.988   1.807  0.6961 -0.1644  0.0765
12023SOL    HW239472   8.756   1.934   1.672  0.1129 -1.4144  0.3860
12024SOL     OW39473   2.114   4.647   8.064  0.2235 -0.4809 -0.0186
12024SOL    HW139474   2.091   4.738   8.047 -1.1065 -0.3116  2.3482
12024SOL    HW239475   2.164   4.649   8.145  0.5524 -1.8233 -0.1605
12025SOL     OW39476   4.246   7.403   0.831  0.2964 -0.3482  0.3664
12025SOL    HW139477   4.170   7.347   0.816  0.5969 -1.0312  1.3372
12025SOL    HW239478   4.306   7.350   0.883  0.3017  1.0709  1.8935
12026SOL     OW39479   7.660   1.404   7.912 -0.7002  0.6937 -0.4168
12026SOL    HW139480   7.630   1.484   7.953 -2.8839  0.7530 -1.9366
12026SOL    HW239481   7.651   1.420   7.818  1.6894 -0.3019 -0.9017
12027SOL     OW39482   4.547   3.201   2.960  0.6834 -0.3301  0.5674
12027SOL    HW139483   4.492   3.271   2.926  0.5399 -0.8389 -0.2674
12027SOL    HW239484   4.615   3.246   3.010 -1.2545  0.2757  2.8334
12028SOL     OW39485   7.038   4.061   9.073  0.0966  0.5351  0.3567
12028SOL    HW139486   6.957   4.063   9.023 -0.1193 -0.9278  0.6034
12028SOL    HW239487   7.070   4.151   9.071  0.3426  0.4838 -2.7683
12029SOL     OW39488   6.279   6.957   1.673 -0.6070 -0.4856  0.4450
12029SOL    HW139489   6.280   7.049   1.647 -3.8514 -1.0275 -2.3589
12029SOL    HW239490   6.334   6.913   1.607  1.3582 -0.6274  2.0694
12030SOL     OW39491   4.355   4.939   7.292 -0.6488  0.0398  0.3847
12030SOL    HW139492   4.299   4.968   7.364  1.7980  1.8615  1.7015
12030SOL    HW239493   4.421   4.885   7.334  1.6342  2.2277 -0.1636
12031SOL     OW39494   3.491   1.053   2.193  0.8075  0.2376 -0.4984
12031SOL    HW139495   3.464   1.135   2.151  3.2049  0.8773 -0.9463
12031SOL    HW239496   3.575   1.032   2.151  1.1720 -1.4150  0.9802
12032SOL     OW39497   8.366   8.722   2.884  0.2459 -0.0401  0.5892
12032SOL    HW139498   8.293   8.670   2.848  0.4161 -0.4140  0.7775
12032SOL    HW239499   8.331   8.758   2.965  0.2348 -0.1311  0.6248
12033SOL     OW39500   3.800   3.754   1.058 -0.1578  0.5872 -0.1808
12033SOL    HW139501   3.783   3.741   1.151 -1.7803 -0.1668 -0.5531
12033SOL    HW239502   3.872   3.694   1.038  1.4009  2.0021  0.9142
12034SOL     OW39503   3.456   7.798   4.769 -0.0323 -0.0757  0.2575
12034SOL    HW139504   3.420   7.745   4.840  0.3865  0.1462  0.6426
12034SOL    HW239505   3.549   7.803   4.788  0.1173 -0.1615 -0.4104
12035SOL     OW39506   4.916   0.736   3.552  0.6494 -0.0986 -0.1572
12035SOL    HW139507   4.995   0.789   3.561  1.9043 -1.7190 -1.0623
12035SOL    HW239508   4.910   0.718   3.458 -0.6873 -0.1889 -0.0749
12036SOL     OW39509   6.316   8.843   1.648 -0.0478  0.0742 -0.1860
12036SOL    HW139510   6.394   8.819   1.698  0.7168  0.3477 -1.2293
12036SOL    HW239511   6.345   8.912   1.589 -0.5825 -1.1572 -1.9842
12037SOL     OW39512   1.523   2.963   3.293  0.3618 -0.4047  0.2066
12037SOL    HW139513   1.526   2.884   3.347  0.6067  0.0159  0.8122
12037SOL    HW239514   1.451   3.015   3.329  0.4401 -0.1815  0.0453
12038SOL     OW39515   5.303   5.000   0.519  0.1850  0.1922 -0.5485
12038SOL    HW139516   5.395   4.976   0.531 -0.0786 -0.5061  0.2029
12038SOL    HW239517   5.276   5.035   0.604 -0.7498 -1.4313 -0.1253
12039SOL     OW39518   4.980   3.707   7.419 -0.0511 -0.0648 -0.0323
12039SOL    HW139519   4.988   3.660   7.336 -0.1851 -1.5867  0.7845
12039SOL    HW239520   4.886   3.720   7.430  0.0466  2.2211 -1.1839
12040SOL     OW39521   4.778  10.464   9.809  0.1121 -0.2032 -0.3431
12040SOL    HW139522   4.865  10.425   9.811 -0.3636 -1.2737  0.2150
12040SOL    HW239523   4.726  10.404   9.755 -0.4132  0.1438 -0.2320
12041SOL     OW39524   0.680   0.881  10.484  0.0374 -0.2736  0.4919
12041SOL    HW139525   0.759   0.932  10.503  0.4464 -0.6562 -0.1486
12041SOL    HW239526   0.620   0.903  10.556  0.8742 -0.3076  1.2232
12042SOL     OW39527   8.069   3.874   8.077 -0.0575  0.0031  0.0615
12042SOL    HW139528   8.156   3.905   8.104 -0.3687 -0.7531  2.1053
12042SOL    HW239529   8.086   3.786   8.041  0.1940  0.5041 -1.1054
12043SOL     OW39530   4.900   4.829   6.681 -0.4971 -0.1829 -0.1809
12043SOL    HW139531   4.922   4.772   6.607 -0.1726 -0.4803  0.1389
12043SOL    HW239532   4.805   4.825   6.687 -0.4537 -0.9910  0.0648
12044SOL     OW39533   8.760  10.300   8.378  0.8325  0.2849  0.0957
12044SOL    HW139534   8.679  10.265   8.341  2.1016  1.0540 -3.8725
12044SOL    HW239535   8.734  10.384   8.415 -0.3164  0.2066 -0.4669
12045SOL     OW39536   8.331   4.218   1.623  0.0696 -0.0197  0.0991
12045SOL    HW139537   8.390   4.261   1.685  0.5154  0.8824 -0.9187
12045SOL    HW239538   8.389   4.175   1.560 -0.3498  0.4404 -0.6157
12046SOL     OW39539  10.393   5.885   6.635  0.3128  0.3256  0.1407
12046SOL    HW139540  10.301   5.909   6.622  0.4675  0.3681 -0.9937
12046SOL    HW239541  10.433   5.897   6.549  1.0371 -1.1931  0.2248
12047SOL     OW39542   2.149   2.585   8.801  0.2839 -0.3013 -0.1059
12047SOL    HW139543   2.150   2.678   8.824 -3.7681  0.4974 -2.2341
12047SOL    HW239544   2.155   2.539   8.885  0.1688  1.9565  1.2105
12048SOL     OW39545   8.316   2.912   7.188 -0.0402  1.0309  0.5141
12048SOL    HW139546   8.250   2.890   7.122 -0.3427  2.6538  0.2448
12048SOL    HW239547   8.389   2.947   7.138  0.4489  0.6042  0.9218
12049SOL     OW39548  10.068   2.565   6.858 -0.5504 -0.0327 -0.1925
12049SOL    HW139549  10.024   2.499   6.803 -2.4812 -0.4353  1.6901
12049SOL    HW239550  10.025   2.648   6.834  1.3243  0.5085 -1.9838
12050SOL     OW39551   6.608   0.371   4.070 -0.2537  0.0792  0.3890
12050SOL    HW139552   6.620   0.277   4.077  0.7205  0.2500  1.1130
12050SOL    HW239553   6.513   0.383   4.065 -0.3483 -1.0722 -1.9817
12051SOL     OW39554  10.742   5.936   8.725 -0.1640  0.1446  0.5510
12051SOL    HW139555  10.677   5.952   8.658 -0.2238  0.0200  0.5800
12051SOL    HW239556  10.700   5.877   8.787 -0.0121  0.0330  0.5504
12052SOL     OW39557   3.637   1.389  10.429 -0.1329 -0.1916 -0.2390
12052SOL    HW139558   3.671   1.317  10.376  0.8044  0.4929 -0.5918
12052SOL    HW239559   3.640   1.465  10.372 -0.1341  0.3408  0.4482
12053SOL     OW39560   8.831   3.337   3.921  0.3401 -0.0785  0.4672
12053SOL    HW139561   8.785   3.365   3.842  0.1499 -0.5910  0.3914
12053SOL    HW239562   8.763   3.334   3.988  0.4669  0.1775  0.6094
12054SOL     OW39563   4.725   2.023   2.987  0.0146 -0.5456  0.5333
12054SOL    HW139564   4.809   1.983   2.967  0.0169 -0.8424  1.1074
12054SOL    HW239565   4.707   2.081   2.913  1.2258  0.3347  0.9009
12055SOL     OW39566   3.265   0.130   7.659 -0.1333 -0.3010  0.4479
12055SOL    HW139567   3.249   0.094   7.746  0.9619  0.2083  0.8811
12055SOL    HW239568   3.360   0.143   7.656 -0.1795 -0.1348 -0.7563
12056SOL     OW39569   0.047   1.600   5.901 -0.2367 -0.2562  0.3396
12056SOL    HW139570  -0.024   1.638   5.953 -0.0301  0.3221  0.2084
12056SOL    HW239571   0.123   1.654   5.921  0.5795 -1.8260  1.7027
12057SOL     OW39572   3.574   9.888   3.298 -0.2074  0.2330 -0.3575
12057SOL    HW139573   3.658   9.876   3.252 -0.3918  1.4625 -1.0571
12057SOL    HW239574   3.551   9.800   3.329  2.1290  0.1210  1.3046
12058SOL     OW39575   1.947   1.905   2.323  0.3215  0.1203 -0.2366
12058SOL    HW139576   1.934   1.990   2.365  1.4186  0.1254  0.1082
12058SOL    HW239577   1.862   1.886   2.283  0.1931  1.5875 -0.7287
12059SOL     OW39578   9.032   9.651   2.242  0.1634  0.1437 -0.0741
12059SOL    HW139579   9.064   9.611   2.323 -1.2310 -1.6666 -0.3750
12059SOL    HW239580   9.107   9.701   2.210  2.0063 -2.1428  0.3806
12060SOL     OW39581   4.825   6.973   0.063  0.1184  0.0855  0.6487
12060SOL    HW139582   4.774   7.053   0.073 -0.2083 -0.2731  2.0374
12060SOL    HW239583   4.844   6.968  -0.031 -1.8727  0.5539  0.1782
12061SOL     OW39584   5.924   9.602   2.365  0.3594 -0.5804 -0.2240
12061SOL    HW139585   5.990   9.602   2.296 -0.8605 -0.1739 -1.4426
12061SOL    HW239586   5.841   9.613   2.319 -0.6048 -1.4204  1.2336
12062SOL     OW39587   7.637  10.835   5.028 -0.3424 -0.0482  0.1872
12062SOL    HW139588   7.604  10.801   4.945 -0.0644 -0.5073  0.2576
12062SOL    HW239589   7.720  10.788   5.042 -0.5788 -0.2688  0.9088
12063SOL     OW39590   0.414   6.806   5.647  0.5680 -0.2689  0.2673
12063SOL    HW139591   0.328   6.787   5.610  1.3655  0.1365 -1.8901
12063SOL    HW239592   0.402   6.793   5.741 -2.1945  1.0679  0.2116
12064SOL     OW39593   5.437   4.112   3.801  0.3209  1.0109 -0.0095
12064SOL    HW139594   5.409   4.200   3.826  1.3043  1.0600  0.9841
12064SOL    HW239595   5.515   4.125   3.748 -0.2432  0.7751 -0.9265
12065SOL     OW39596   5.858   9.250   0.680 -0.1150 -0.5152  0.0817
12065SOL    HW139597   5.896   9.187   0.741 -1.0962 -1.0928  0.1317
12065SOL    HW239598   5.903   9.234   0.597  2.3301  1.3236  0.9597
12066SOL     OW39599   6.521   1.856   3.108 -0.2162  0.3551 -0.4057
12066SOL    HW139600   6.442   1.823   3.150  0.4060 -1.1047 -0.3287
12066SOL    HW239601   6.592   1.803   3.144  0.7390  1.2704 -0.8777
12067SOL     OW39602   0.688   5.700   7.398 -0.4214 -0.0881 -0.3110
12067SOL    HW139603   0.661   5.646   7.472  1.3674  0.4956  0.8395
12067SOL    HW239604   0.768   5.658   7.365  0.9429  1.6873  0.5384
12068SOL     OW39605   5.741   0.492   4.377  0.1617  0.5127 -0.5329
12068SOL    HW139606   5.762   0.400   4.365  1.4205  0.5324  1.0721
12068SOL    HW239607   5.692   0.494   4.459  2.8809  1.5103  1.2131
12069SOL     OW39608   0.453   9.269   8.172  0.0677 -0.0596 -0.2563
12069SOL    HW139609   0.476   9.188   8.218 -0.4013 -1.0286 -1.6501
12069SOL    HW239610   0.357   9.275   8.181  0.2409  1.1696  1.1032
12070SOL     OW39611   4.623   1.510   1.009  0.2280 -0.0161 -0.0127
12070SOL    HW139612   4.602   1.531   1.100 -0.2368  0.6129 -0.2615
12070SOL    HW239613   4.711   1.471   1.013  0.0006 -0.4666  0.7573
12071SOL     OW39614   2.379   6.564   6.621  0.9717  0.6513 -0.3830
12071SOL    HW139615   2.315   6.635   6.612  1.0466  0.6615 -0.8645
12071SOL    HW239616   2.395   6.558   6.715 -1.3401 -0.7841 -0.0047
12072SOL     OW39617   6.014   1.825   3.326 -0.4259 -0.1308 -0.8668
12072SOL    HW139618   5.992   1.818   3.419  2.3410  1.9872  0.0913
12072SOL    HW239619   5.932   1.849   3.283 -1.3205  1.0807  1.3788
12073SOL     OW39620   5.075   5.890   4.451  0.6932  0.2747  0.2252
12073SOL    HW139621   5.159   5.933   4.437  0.1136  1.5469  0.4790
12073SOL    HW239622   5.051   5.912   4.540 -1.0022  1.9737 -0.5807
12074SOL     OW39623   8.556   2.061   9.540  0.3210  0.2480 -0.1495
12074SOL    HW139624   8.555   2.049   9.445 -1.2881  1.3786 -0.3163
12074SOL    HW239625   8.467   2.035   9.568  0.5850  0.4964  0.9674
12075SOL     OW39626   8.056   6.585   2.554  0.1593  0.2178  0.5227
12075SOL    HW139627   8.065   6.566   2.461  0.6676  1.2137  0.3457
12075SOL    HW239628   8.098   6.512   2.598 -0.5633 -0.5365  0.0029
12076SOL     OW39629   9.228   5.184   8.258 -0.0252 -0.4722 -0.3452
12076SOL    HW139630   9.309   5.235   8.269  0.5846 -1.1447 -1.4809
12076SOL    HW239631   9.171   5.213   8.329  1.0893  0.2684  0.2721
12077SOL     OW39632   6.474   8.825   4.416  0.6254 -0.3249 -0.1628
12077SOL    HW139633   6.462   8.864   4.330 -0.9453 -1.3240 -0.4336
12077SOL    HW239634   6.432   8.740   4.410  0.6424 -0.4899  1.5422
12078SOL     OW39635   2.958   1.366   2.491  0.1812 -0.2560  0.7155
12078SOL    HW139636   2.941   1.330   2.404  0.9535 -0.0392  0.4597
12078SOL    HW239637   2.959   1.461   2.478  1.7074 -0.2571  0.6628
12079SOL     OW39638   6.926   6.955   1.283 -0.5321 -0.2520 -0.2131
12079SOL    HW139639   6.976   6.898   1.341 -0.2778 -0.0626 -0.2447
12079SOL    HW239640   6.854   6.901   1.252 -1.1152 -0.1254  0.8929
12080SOL     OW39641   2.151   6.230   3.119 -0.2396 -0.0161 -0.1598
12080SOL    HW139642   2.060   6.262   3.121  0.0724  0.9026 -0.2950
12080SOL    HW239643   2.150   6.153   3.176 -0.7975  0.8291  1.0160
12081SOL     OW39644  10.625   4.122   4.774 -0.4776  0.0333  0.0336
12081SOL    HW139645  10.630   4.171   4.692 -0.1611 -0.7723 -0.4397
12081SOL    HW239646  10.693   4.160   4.828  0.8455 -0.9197 -0.9113
12082SOL     OW39647   7.129   7.736   1.132 -0.2538 -0.1975  0.1206
12082SOL    HW139648   7.126   7.649   1.172  1.8755 -0.6191 -0.5126
12082SOL    HW239649   7.039   7.753   1.105 -1.4121 -0.6920  3.2804
12083SOL     OW39650   1.976  10.283   6.580 -0.0916 -0.2019  0.4981
12083SOL    HW139651   2.015  10.196   6.571 -1.1619 -0.5087 -2.3577
12083SOL    HW239652   2.027  10.338   6.520 -1.2470  0.4193  0.0467
12084SOL     OW39653   4.230   5.346  10.291  0.1610 -0.0233 -0.3139
12084SOL    HW139654   4.232   5.278  10.224  2.0159  0.0757 -0.4060
12084SOL    HW239655   4.254   5.300  10.372 -0.9245  0.0857  0.0875
12085SOL     OW39656   2.495   4.161   9.299  0.3162  0.1688 -0.4665
12085SOL    HW139657   2.569   4.147   9.358  0.1719 -0.7330 -0.4703
12085SOL    HW239658   2.534   4.173   9.213  0.4611 -0.6683 -0.5308
12086SOL     OW39659   3.163   1.020   7.036 -0.1622  1.0496 -0.6429
12086SOL    HW139660   3.160   1.080   7.111 -1.9576  1.6788 -1.1647
12086SOL    HW239661   3.189   0.936   7.074  0.9223  1.7936  0.3438
12087SOL     OW39662   8.085   0.922   4.426 -0.0498  0.3129 -0.1087
12087SOL    HW139663   8.065   0.929   4.332  0.7042  1.3207 -0.2118
12087SOL    HW239664   8.024   0.982   4.468 -1.0274 -0.8391  0.1596
12088SOL     OW39665   5.705   0.792   9.069  0.1018  0.1336  0.1904
12088SOL    HW139666   5.793   0.801   9.106 -0.4209  1.1707  1.2415
12088SOL    HW239667   5.649   0.843   9.128 -1.1832 -0.3843 -0.5500
12089SOL     OW39668   8.967   3.900   2.426  0.6818  0.5671  0.0799
12089SOL    HW139669   8.883   3.933   2.459  0.2152 -0.3900 -0.0952
12089SOL    HW239670   8.965   3.806   2.445  1.0789  0.2671 -1.2143
12090SOL     OW39671   3.098   8.618   8.346 -0.5113  0.5512 -0.0823
12090SOL    HW139672   3.025   8.598   8.405 -0.5508  2.0373  0.4194
12090SOL    HW239673   3.104   8.542   8.288 -0.3653 -1.0598  1.9343
12091SOL     OW39674   4.684  10.607  10.704  0.4093  0.7175  0.3147
12091SOL    HW139675   4.693  10.658  10.624 -1.3996 -2.8791 -2.4801
12091SOL    HW239676   4.729  10.524  10.685 -1.7142 -1.0121  2.2123
12092SOL     OW39677   4.714   8.369   3.617  0.2350  0.4128 -0.4646
12092SOL    HW139678   4.783   8.398   3.558  0.0052 -1.1058 -1.5574
12092SOL    HW239679   4.638   8.424   3.595  0.0497 -0.3627 -1.8805
12093SOL     OW39680  10.035   4.602   3.209  0.2967 -0.2665  0.3026
12093SOL    HW139681  10.008   4.541   3.278 -0.6762 -1.0927 -0.7793
12093SOL    HW239682  10.113   4.562   3.170 -0.6324 -1.1245 -0.7431
12094SOL     OW39683   7.505   9.223   4.213 -0.3232 -0.0036 -0.3075
12094SOL    HW139684   7.555   9.302   4.234 -1.2220  1.2646 -2.6862
12094SOL    HW239685   7.555   9.181   4.144 -1.6782  0.4507 -1.6093
12095SOL     OW39686   1.610   9.965   8.538  0.1616  0.0851  0.1478
12095SOL    HW139687   1.674   9.999   8.600 -0.1486  0.5611  0.2129
12095SOL    HW239688   1.534   9.943   8.591  0.4140 -0.8543  0.1225
12096SOL     OW39689   3.682   0.466   3.315  0.5084 -0.7596 -0.6110
12096SOL    HW139690   3.720   0.529   3.376  0.1065 -1.4764  0.4089
12096SOL    HW239691   3.755   0.435   3.263  0.8151  0.0581 -0.6771
12097SOL     OW39692   7.258  10.707   1.019  0.0840 -0.5835  0.1589
12097SOL    HW139693   7.321  10.779   1.028 -1.0333  0.3559  0.6208
12097SOL    HW239694   7.281  10.647   1.091  0.2389 -0.0810  0.5382
12098SOL     OW39695   1.069   2.198   7.771 -0.0996 -0.5307 -0.7264
12098SOL    HW139696   1.058   2.220   7.678 -0.4273  2.0273 -0.1661
12098SOL    HW239697   1.155   2.235   7.794  0.1190 -1.4239 -0.0856
12099SOL     OW39698   4.717   0.320   0.054  0.8354 -0.2157  0.3506
12099SOL    HW139699   4.689   0.409   0.033  2.3948  0.4602  0.9422
12099SOL    HW239700   4.693   0.308   0.146  0.5028 -0.4618  0.2328
12100SOL     OW39701   0.351   9.080   0.583 -0.4091 -0.1545 -0.6312
12100SOL    HW139702   0.355   9.121   0.496 -0.7426 -0.3272 -0.7312
12100SOL    HW239703   0.443   9.068   0.608 -0.3008  0.8280 -0.5151
12101SOL     OW39704   7.827   0.434   4.041 -0.3760  0.0737 -1.0932
12101SOL    HW139705   7.896   0.415   4.104 -1.6240 -0.8779  0.0382
12101SOL    HW239706   7.865   0.410   3.956  0.5277 -0.8577 -0.4500
12102SOL     OW39707   4.047   8.778   5.604 -0.3932 -0.1100 -0.4925
12102SOL    HW139708   4.042   8.706   5.541  3.0338  0.1634 -1.2842
12102SOL    HW239709   4.031   8.737   5.689  0.4983 -1.6744 -1.0371
12103SOL     OW39710   8.962  10.266   2.950 -0.6365  0.3102  0.3071
12103SOL    HW139711   8.965  10.195   2.886 -2.8148  0.2383  0.2160
12103SOL    HW239712   9.008  10.232   3.027 -1.8552 -1.3119  0.3645
12104SOL     OW39713   2.309   4.378   9.280 -0.5803  0.1818  0.1042
12104SOL    HW139714   2.248   4.356   9.351  0.5167 -0.5496  0.8578
12104SOL    HW239715   2.381   4.315   9.289 -1.0959 -0.9343 -2.6205
12105SOL     OW39716   9.511   5.691   2.337  0.1966 -0.0836  0.5950
12105SOL    HW139717   9.506   5.656   2.427  0.5058  1.1709  1.1155
12105SOL    HW239718   9.594   5.659   2.304 -0.0323 -0.7680  0.6496
12106SOL     OW39719   8.072   7.061   2.786 -0.6413 -0.9171  0.4620
12106SOL    HW139720   8.001   6.997   2.791  0.0317 -1.6619  0.6668
12106SOL    HW239721   8.152   7.010   2.794 -0.0384 -0.1677 -0.4355
12107SOL     OW39722   1.585   2.825   6.688  0.6927 -0.2414  0.2650
12107SOL    HW139723   1.574   2.843   6.595 -1.6941  2.2044  0.8906
12107SOL    HW239724   1.521   2.756   6.707  1.3978 -0.9639  0.0803
12108SOL     OW39725  10.087   4.003   4.253  0.1545 -0.3631  0.4373
12108SOL    HW139726  10.064   3.978   4.163 -0.3207  0.8958  0.1807
12108SOL    HW239727  10.097   4.098   4.249  0.3420 -0.3171  1.6777
12109SOL     OW39728   5.538   1.775   2.650  0.0067  0.3801 -0.1713
12109SOL    HW139729   5.443   1.777   2.639 -0.3006 -0.5075  1.8323
12109SOL    HW239730   5.553   1.817   2.734  1.3549  0.1135 -0.2596
12110SOL     OW39731   9.839   8.156   4.067  0.0890  0.4047  0.7129
12110SOL    HW139732   9.881   8.113   4.141  0.2854  2.0721  1.6372
12110SOL    HW239733   9.870   8.109   3.990  1.8311  0.1612  1.5270
12111SOL     OW39734   4.435   6.732   2.578 -0.0343 -0.1578  0.2681
12111SOL    HW139735   4.491   6.742   2.501  0.0204  0.6320  0.4020
12111SOL    HW239736   4.486   6.675   2.637  1.0289  1.2359  0.7459
12112SOL     OW39737   8.142   7.664   8.519 -0.0450  0.3455  0.0583
12112SOL    HW139738   8.053   7.632   8.508 -1.5685  3.7318  1.2443
12112SOL    HW239739   8.149   7.740   8.461  2.3949 -0.2802 -0.5987
12113SOL     OW39740   2.767   4.240   6.091 -1.0479 -0.0988  0.0196
12113SOL    HW139741   2.816   4.253   6.009 -2.3728  0.8273 -0.6692
12113SOL    HW239742   2.795   4.153   6.122  2.1487  0.9555  0.5049
12114SOL     OW39743   9.793   4.039   4.796 -0.1004 -0.3445 -0.3476
12114SOL    HW139744   9.789   4.089   4.877 -1.6338 -1.6866  0.4559
12114SOL    HW239745   9.844   4.094   4.736  1.4787  0.4534  1.6429
12115SOL     OW39746   3.945   6.039  10.652 -0.2129 -0.3375 -0.2622
12115SOL    HW139747   3.983   6.126  10.666 -0.7578  0.2094 -1.9913
12115SOL    HW239748   3.921   6.009  10.739 -2.0291  2.1720  0.2082
12116SOL     OW39749   8.406   2.056  10.341 -0.2220  0.1301  0.5210
12116SOL    HW139750   8.467   2.087  10.407 -1.2063  0.5945  1.2358
12116SOL    HW239751   8.398   1.962  10.357  1.6124 -0.2857 -0.6936
12117SOL     OW39752   3.944   5.369   8.400  0.1848 -0.3474  1.6925
12117SOL    HW139753   3.873   5.314   8.367  0.5202  1.0329 -1.7550
12117SOL    HW239754   3.901   5.449   8.430  0.2055  0.5834 -0.6122
12118SOL     OW39755   8.050   1.025   0.819 -0.1981  0.3736 -0.5067
12118SOL    HW139756   8.121   1.083   0.791  0.1913  0.9708  1.5567
12118SOL    HW239757   8.082   0.985   0.900 -1.7611 -0.2108 -0.1393
12119SOL     OW39758   9.400   5.526   6.372 -0.1990 -0.1630 -0.1704
12119SOL    HW139759   9.374   5.473   6.296  2.7687 -0.4033 -1.1429
12119SOL    HW239760   9.337   5.598   6.373 -1.6191 -1.2936 -1.5203
12120SOL     OW39761   5.479   5.985   5.027  0.3555 -0.6249 -0.5406
12120SOL    HW139762   5.508   6.076   5.016  1.8010 -1.1192 -1.1834
12120SOL    HW239763   5.542   5.948   5.089 -0.8538 -0.9372  0.5454
12121SOL     OW39764   0.973   2.979   2.669 -0.0708  0.6369  0.5093
12121SOL    HW139765   0.896   2.935   2.705  0.2228  0.0399  0.4230
12121SOL    HW239766   1.001   3.039   2.738 -0.2880  0.4527  0.7592
12122SOL     OW39767   5.008   9.018   4.537 -0.2382  0.0478 -0.0414
12122SOL    HW139768   4.989   9.086   4.471 -0.2993 -0.1225 -0.1996
12122SOL    HW239769   4.929   9.017   4.592  0.5294  1.4924  1.1815
12123SOL     OW39770   0.605  10.015   3.500  0.2217  0.0934 -0.0185
12123SOL    HW139771   0.530   9.983   3.550  1.1182 -0.7571  0.8246
12123SOL    HW239772   0.672   9.948   3.511  0.5480  0.0013 -2.1737
12124SOL     OW39773   0.722   4.143  10.328  0.0605 -0.3151 -0.4723
12124SOL    HW139774   0.701   4.102  10.245  1.9883  0.1439 -1.2526
12124SOL    HW239775   0.757   4.072  10.382  1.1951 -0.1822 -0.9936
12125SOL     OW39776   9.770   6.847   6.176  0.0763 -0.5038 -0.2982
12125SOL    HW139777   9.809   6.868   6.261 -1.1158  0.4234  0.0424
12125SOL    HW239778   9.684   6.812   6.197  0.7302 -2.6959 -1.0334
12126SOL     OW39779   3.863   5.842   6.356  0.6399 -0.1524  0.3464
12126SOL    HW139780   3.894   5.913   6.412  1.0036 -0.2137  0.2252
12126SOL    HW239781   3.943   5.797   6.328  0.3830 -1.2534  1.2731
12127SOL     OW39782   5.231   9.688   9.232  0.0518  0.1035 -0.1851
12127SOL    HW139783   5.293   9.644   9.290 -0.2353  1.1816  0.9872
12127SOL    HW239784   5.274   9.771   9.209 -0.0963 -0.0471 -1.0308
12128SOL     OW39785   7.716   0.526   6.400  0.1831 -0.1954  0.0460
12128SOL    HW139786   7.687   0.515   6.491  0.0672  0.6602  0.1174
12128SOL    HW239787   7.809   0.503   6.402  0.9309  2.5128  0.9934
12129SOL     OW39788   0.022   4.473   9.359  1.0432 -0.2069  0.4229
12129SOL    HW139789   0.112   4.471   9.392  1.4049 -1.9602 -0.5386
12129SOL    HW239790  -0.016   4.390   9.389 -0.1023  0.2966  0.3994
12130SOL     OW39791   4.002   2.727   0.843  0.4681 -0.1195  0.6332
12130SOL    HW139792   3.914   2.748   0.875 -0.0612  2.6603 -2.0713
12130SOL    HW239793   4.056   2.802   0.870  1.6217 -0.9926  0.8332
12131SOL     OW39794   5.293   7.810   0.638 -0.3386 -0.3192 -0.4161
12131SOL    HW139795   5.209   7.853   0.623 -0.8674 -0.8848  0.7500
12131SOL    HW239796   5.324   7.787   0.550 -1.2307  0.2147 -0.8907
12132SOL     OW39797   8.266   2.620   8.500 -0.1061 -0.1449 -0.4911
12132SOL    HW139798   8.235   2.586   8.584  1.6701  0.5750  0.5226
12132SOL    HW239799   8.319   2.549   8.463  0.1538 -0.0098 -0.3825
12133SOL     OW39800   5.131   7.797   3.688  0.1148 -0.1570  0.4235
12133SOL    HW139801   5.086   7.742   3.752  3.4318 -0.1769  2.9769
12133SOL    HW239802   5.213   7.750   3.670  0.8063  1.5581 -1.2323
12134SOL     OW39803   7.336   4.727  10.048 -0.0739 -0.2316 -0.1104
12134SOL    HW139804   7.249   4.751  10.017  0.0257  0.7040  0.3057
12134SOL    HW239805   7.335   4.748  10.142  0.5320 -0.3989 -0.0594
12135SOL     OW39806   7.844   1.627   1.811  0.2560 -1.0600 -0.4678
12135SOL    HW139807   7.859   1.534   1.831 -1.1579 -1.1715  0.2256
12135SOL    HW239808   7.867   1.635   1.719  1.3909 -1.8647 -0.2776
12136SOL     OW39809   2.706  10.268   2.757 -1.0342  0.2445 -0.1764
12136SOL    HW139810   2.663  10.184   2.737 -0.9821  0.0971  0.3106
12136SOL    HW239811   2.799  10.249   2.748 -1.0623  0.8240 -2.2490
12137SOL     OW39812   0.389   3.679   9.860 -0.0370 -0.4484 -0.1701
12137SOL    HW139813   0.398   3.585   9.845  1.4801 -0.4856  0.8081
12137SOL    HW239814   0.325   3.708   9.795 -1.5311 -2.3680  0.3432
12138SOL     OW39815   0.381   1.556  10.494  0.0828  0.1423  0.5987
12138SOL    HW139816   0.395   1.523  10.405 -0.5332  1.8081 -0.1671
12138SOL    HW239817   0.360   1.478  10.545 -1.5555 -0.6749 -1.1592
12139SOL     OW39818   8.204   6.508   5.069  0.4463 -0.3488  0.3092
12139SOL    HW139819   8.184   6.546   4.984 -0.3862 -1.1803  0.1265
12139SOL    HW239820   8.137   6.442   5.083 -0.8717  1.3288  2.6418
12140SOL     OW39821   3.842   4.476   8.661  0.6025  0.3243 -0.1120
12140SOL    HW139822   3.924   4.458   8.708  0.2881  0.1437  0.3731
12140SOL    HW239823   3.807   4.554   8.703  0.7376  0.6576 -0.6074
12141SOL     OW39824  10.725   9.143   5.754 -0.1922  0.4503 -0.6399
12141SOL    HW139825  10.743   9.209   5.821 -0.6020 -0.4539  0.3975
12141SOL    HW239826  10.807   9.093   5.746 -0.2639  0.3098 -0.5111
12142SOL     OW39827   1.165   6.210   6.627  0.2402 -0.1623 -0.0162
12142SOL    HW139828   1.233   6.240   6.687  0.6616  0.6009 -0.8473
12142SOL    HW239829   1.189   6.249   6.543 -0.6713 -0.7129 -0.5433
12143SOL     OW39830   1.462   4.899   4.051 -0.0098  0.1991  0.4070
12143SOL    HW139831   1.533   4.963   4.058 -0.0716  0.1098  2.0681
12143SOL    HW239832   1.382   4.952   4.052 -0.0139  0.2080 -0.1072
12144SOL     OW39833   6.325   9.647   5.215  0.2025  0.5681  0.0190
12144SOL    HW139834   6.243   9.690   5.190 -0.8726 -0.3203  1.8597
12144SOL    HW239835   6.342   9.678   5.304  2.1342  1.0875 -0.4909
12145SOL     OW39836  10.013   6.778   1.419  0.1650 -0.1323 -0.3343
12145SOL    HW139837  10.025   6.737   1.333  0.6186  0.8854 -0.7759
12145SOL    HW239838  10.090   6.750   1.470 -0.0480 -0.6460 -0.2900
12146SOL     OW39839   0.443   9.404   4.976 -0.2456  0.5821  0.0290
12146SOL    HW139840   0.413   9.472   4.915 -1.3581 -0.7133 -0.9174
12146SOL    HW239841   0.417   9.437   5.063  1.5470  2.5434 -0.0904
12147SOL     OW39842   3.183   4.455   0.381  0.4647  0.1651 -0.1709
12147SOL    HW139843   3.122   4.400   0.332 -0.6102  0.8284  0.3804
12147SOL    HW239844   3.244   4.488   0.315 -0.3340  0.2348 -0.8938
12148SOL     OW39845   7.829  10.136   1.878 -0.1327  0.2028  0.1752
12148SOL    HW139846   7.883  10.063   1.907  2.0649  2.1422  1.3833
12148SOL    HW239847   7.782  10.163   1.957 -1.7172 -0.4885 -0.5013
12149SOL     OW39848   4.817   9.444   3.963  0.2692  0.3847 -0.1767
12149SOL    HW139849   4.888   9.465   4.024  2.2169 -0.3142 -2.0636
12149SOL    HW239850   4.741   9.429   4.019  1.5172  1.3794  1.9360
12150SOL     OW39851   0.272   6.341   9.485 -0.1426 -0.5391 -0.1399
12150SOL    HW139852   0.348   6.385   9.523  0.3445  0.4849 -2.1852
12150SOL    HW239853   0.212   6.328   9.559  1.2422  0.2632  1.1691
12151SOL     OW39854   0.499   7.190   5.779  0.2917  0.8861 -0.1844
12151SOL    HW139855   0.521   7.283   5.789 -1.6769  1.3835 -0.0432
12151SOL    HW239856   0.404   7.186   5.792  0.3282 -1.1593 -0.1858
12152SOL     OW39857   4.991   9.716   7.520  0.3875  0.3826  0.1374
12152SOL    HW139858   4.958   9.640   7.472 -2.3087  1.2161  0.4714
12152SOL    HW239859   5.033   9.770   7.454 -0.1979 -0.1036 -0.6489
12153SOL     OW39860   4.339   2.101   3.205 -0.2626  0.6028 -0.2138
12153SOL    HW139861   4.368   2.062   3.287 -1.1519  0.4517  0.0443
12153SOL    HW239862   4.313   2.190   3.229  1.7652  1.3948 -0.7988
12154SOL     OW39863   5.734   5.056  10.148  0.1141  0.4372 -0.4562
12154SOL    HW139864   5.695   5.050  10.236  1.1519  1.3535  0.0903
12154SOL    HW239865   5.736   5.149  10.128  0.2784  0.2654 -1.2797
12155SOL     OW39866   4.649   9.909   0.672  0.8194 -0.1023  0.1900
12155SOL    HW139867   4.645   9.952   0.757  1.9169 -0.6380  0.5335
12155SOL    HW239868   4.690   9.973   0.614 -0.5500  0.5182 -0.1220
12156SOL     OW39869   3.132   4.847   1.804 -0.3700  0.3297  0.1457
12156SOL    HW139870   3.043   4.859   1.838  0.3413 -0.4267  2.5208
12156SOL    HW239871   3.179   4.925   1.833 -0.3431  0.9708 -1.5479
12157SOL     OW39872   0.623   5.160   7.620  0.5218 -0.6902  0.0951
12157SOL    HW139873   0.636   5.212   7.541  1.9138 -2.0170 -0.6033
12157SOL    HW239874   0.570   5.085   7.592 -2.0473  0.5709  1.2308
12158SOL     OW39875   0.675   0.502   8.818 -0.2707 -0.4040  0.1471
12158SOL    HW139876   0.661   0.407   8.818 -0.1911 -0.4227  0.7758
12158SOL    HW239877   0.760   0.513   8.860 -0.2944 -0.0508  0.1046
12159SOL     OW39878   5.860   1.546  10.753  0.4740 -0.4796 -0.3087
12159SOL    HW139879   5.791   1.480  10.747 -1.3233  0.9790  2.3966
12159SOL    HW239880   5.935   1.498  10.788  0.5508 -1.8134 -2.0966
12160SOL     OW39881   2.355   8.107  10.359  0.0114  0.2388  0.4795
12160SOL    HW139882   2.333   8.116  10.266  0.1142 -0.5068  0.3818
12160SOL    HW239883   2.381   8.196  10.385 -0.8181  0.6307  0.0162
12161SOL     OW39884   5.028   1.720   9.887  0.5559 -1.0248 -0.2519
12161SOL    HW139885   5.109   1.716   9.836  0.0685 -0.6458 -1.0698
12161SOL    HW239886   5.038   1.798   9.942 -0.2623  0.5075 -2.1525
12162SOL     OW39887   9.740   5.974   5.801 -0.2525 -0.2049  0.0850
12162SOL    HW139888   9.669   5.949   5.861  0.1124  0.1927  0.6994
12162SOL    HW239889   9.707   5.952   5.714 -1.7415  1.2720  0.2041
12163SOL     OW39890   0.021   2.375   9.242 -0.3309 -0.0769  0.1030
12163SOL    HW139891  -0.068   2.341   9.228  0.0605 -0.9594 -0.3250
12163SOL    HW239892   0.051   2.331   9.321 -0.1769  0.0276  0.1026
12164SOL     OW39893   6.817   2.565   0.338  0.0660 -0.2147 -0.1507
12164SOL    HW139894   6.835   2.498   0.404  0.5896  0.0612 -0.0148
12164SOL    HW239895   6.902   2.602   0.317 -0.1318 -0.0761 -0.7495
12165SOL     OW39896   5.040   1.739   0.083  0.4053 -0.9998  0.8183
12165SOL    HW139897   5.132   1.738   0.111  1.4506 -0.9372 -2.2458
12165SOL    HW239898   5.042   1.708  -0.007 -2.5801 -0.6509  0.5299
12166SOL     OW39899   3.766   6.423   2.270 -0.2306  0.0625  0.6439
12166SOL    HW139900   3.835   6.484   2.296 -2.2791  1.3424  3.6109
12166SOL    HW239901   3.716   6.470   2.203 -0.2901  0.5975  1.0605
12167SOL     OW39902   2.931   1.283   7.367  0.1796  0.0040 -0.1053
12167SOL    HW139903   2.960   1.357   7.420  1.6709 -1.6478  1.5070
12167SOL    HW239904   2.874   1.232   7.425  1.2170 -1.4365 -0.2916
12168SOL     OW39905   9.123   1.433   7.541  0.1738 -0.2709 -0.0937
12168SOL    HW139906   9.210   1.472   7.544  0.5044 -0.9666 -0.3077
12168SOL    HW239907   9.137   1.347   7.501 -0.9131  0.4493 -2.1997
12169SOL     OW39908   9.098   2.807   0.502  0.0975  0.1143 -0.4928
12169SOL    HW139909   9.183   2.802   0.547 -0.0995  0.9660  0.0024
12169SOL    HW239910   9.106   2.745   0.429  0.6344 -0.8635  0.3677
12170SOL     OW39911   2.189   0.861   3.883 -0.2680  0.1737 -0.3723
12170SOL    HW139912   2.279   0.885   3.903 -0.3502  0.0040  0.2232
12170SOL    HW239913   2.197   0.789   3.819  0.0037  0.4923 -0.7007
12171SOL     OW39914   2.163   4.205   9.978  0.4107  0.0421 -0.9600
12171SOL    HW139915   2.216   4.139   9.934 -1.4696  0.3585 -3.9232
12171SOL    HW239916   2.148   4.170  10.066  2.9724 -1.3904 -1.0025
12172SOL     OW39917   1.960   7.299   9.750 -0.3345 -0.5157  0.5013
12172SOL    HW139918   1.988   7.390   9.744 -0.1946 -0.5527  0.5951
12172SOL    HW239919   1.937   7.276   9.660  0.4893 -0.6615  0.3208
12173SOL     OW39920   5.988   9.420   2.579 -0.0984  0.1555 -0.4424
12173SOL    HW139921   5.910   9.428   2.634 -1.4592 -0.3351 -2.2103
12173SOL    HW239922   5.967   9.471   2.500  1.7162  0.6979 -0.6111
12174SOL     OW39923   8.959   4.703   7.047  0.2478 -0.2868 -0.0454
12174SOL    HW139924   8.991   4.613   7.033 -0.8055 -0.4422 -1.6611
12174SOL    HW239925   9.030   4.758   7.013 -0.3237 -0.5960 -1.8518
12175SOL     OW39926   5.060  10.207   8.865 -0.0867 -0.1654 -0.7515
12175SOL    HW139927   5.134  10.157   8.831  1.2676  1.2351  0.0253
12175SOL    HW239928   4.996  10.207   8.794  0.8319 -1.0173 -1.6089
12176SOL     OW39929   3.944   4.378   1.132  0.1059 -0.0723 -0.1065
12176SOL    HW139930   4.004   4.391   1.060 -0.7881 -0.4088 -0.9375
12176SOL    HW239931   3.858   4.367   1.091 -0.1734 -2.0332  0.8601
12177SOL     OW39932   0.517   0.481   9.570 -0.4660 -0.1980  0.2895
12177SOL    HW139933   0.525   0.416   9.640  0.6792  0.5304  0.8521
12177SOL    HW239934   0.541   0.433   9.491  0.6881 -0.3903  0.7449
12178SOL     OW39935   1.059   8.478   5.032  0.3298 -0.3441 -0.7005
12178SOL    HW139936   1.012   8.401   5.062 -1.2962  1.1480  0.8476
12178SOL    HW239937   0.998   8.520   4.970  0.8809  0.0903 -0.9628
12179SOL     OW39938   8.494   9.923   6.758  0.5162  0.0658  0.3711
12179SOL    HW139939   8.544   9.851   6.720  0.0458  0.1582 -0.4426
12179SOL    HW239940   8.512   9.917   6.852  0.4468 -1.1417  0.3255
12180SOL     OW39941   0.595   2.014   3.729 -0.0499 -0.0822 -0.2537
12180SOL    HW139942   0.659   2.080   3.702  0.4158 -0.2607  0.3685
12180SOL    HW239943   0.568   1.972   3.647 -0.2740  0.7954 -0.6435
12181SOL     OW39944   1.264   8.009   6.163  0.1575 -0.7299  0.0847
12181SOL    HW139945   1.245   7.973   6.077 -1.9727 -0.5911  0.4289
12181SOL    HW239946   1.267   7.933   6.221 -1.6161 -0.6191  0.3693
12182SOL     OW39947   0.565   9.944   0.091  0.9474 -0.0950  0.3786
12182SOL    HW139948   0.569   9.850   0.104 -2.1231 -0.3201  0.4963
12182SOL    HW239949   0.603   9.958   0.004 -0.8776 -1.8233 -0.7668
12183SOL     OW39950  10.530   3.418   6.662 -0.6166 -0.2885 -0.0103
12183SOL    HW139951  10.597   3.484   6.643 -0.3124 -0.2199  1.1951
12183SOL    HW239952  10.504   3.385   6.577  1.9976 -1.3629 -0.4724
12184SOL     OW39953   7.033   0.670   5.330  0.1293 -0.1672 -0.4047
12184SOL    HW139954   7.089   0.686   5.254 -0.6779  0.7855 -0.8281
12184SOL    HW239955   6.993   0.585   5.312 -0.9139  0.5384 -1.6406
12185SOL     OW39956   0.393   3.259   9.652 -0.0727 -0.2470 -0.2733
12185SOL    HW139957   0.389   3.306   9.735  0.3619 -1.6922  0.6130
12185SOL    HW239958   0.302   3.247   9.627 -0.2891 -1.1184  0.8141
12186SOL     OW39959   9.618   9.693   5.666 -0.1944 -0.6042 -0.2517
12186SOL    HW139960   9.641   9.614   5.617 -0.9499 -0.3843 -0.9713
12186SOL    HW239961   9.535   9.671   5.710  1.1690 -1.3137  2.1359
12187SOL     OW39962   8.068   7.557   1.486  0.1972 -0.1442  0.2299
12187SOL    HW139963   7.990   7.567   1.431  0.3196  1.0052  0.2546
12187SOL    HW239964   8.034   7.557   1.575  0.3675  2.5880  0.3723
12188SOL     OW39965   7.123   3.159   6.664 -0.4594 -0.0204  0.7734
12188SOL    HW139966   7.160   3.078   6.699 -0.4106 -0.2965  0.1029
12188SOL    HW239967   7.037   3.133   6.630 -0.0310 -0.0153 -0.3544
12189SOL     OW39968   6.094   3.626   0.192 -0.2393  0.1466  0.1380
12189SOL    HW139969   6.151   3.674   0.252 -1.4829  0.2782  1.2543
12189SOL    HW239970   6.154   3.572   0.141  0.9666  1.0059  0.5989
12190SOL     OW39971   6.214   1.789   6.789 -0.1202 -0.1023 -0.5345
12190SOL    HW139972   6.289   1.824   6.836 -0.7241  1.3927 -0.6512
12190SOL    HW239973   6.237   1.798   6.696 -0.6945  0.9614 -0.5835
12191SOL     OW39974   6.950   4.717  10.520 -0.3177  0.1554 -0.1207
12191SOL    HW139975   6.936   4.625  10.540 -0.8301  0.0680 -0.8508
12191SOL    HW239976   7.030   4.719  10.468  0.6177  0.3085  1.2782
12192SOL     OW39977   5.308   4.856   9.581 -0.3575 -0.1875  0.2336
12192SOL    HW139978   5.386   4.911   9.572  0.0804 -1.0746 -2.6239
12192SOL    HW239979   5.338   4.780   9.631  0.8423 -0.7668 -1.2770
12193SOL     OW39980   3.853   9.543   1.417  0.6632 -0.2881 -0.2573
12193SOL    HW139981   3.938   9.517   1.451  0.5715 -1.8097 -1.0858
12193SOL    HW239982   3.871   9.617   1.359  0.9970  1.3760  1.8850
12194SOL     OW39983   0.918  10.853   0.558 -0.3845 -0.1305  0.2481
12194SOL    HW139984   0.915  10.944   0.527  0.6482 -0.1649 -0.0037
12194SOL    HW239985   0.845  10.810   0.513  1.2898 -0.2712 -2.6124
12195SOL     OW39986   0.705   9.642   8.231  0.0493  0.0793 -0.4990
12195SOL    HW139987   0.690   9.714   8.170  0.5330  0.0176 -0.6940
12195SOL    HW239988   0.781   9.669   8.281  0.3051 -0.3457 -0.6538
12196SOL     OW39989   8.463   0.416   6.170 -0.3812 -0.2217 -0.5402
12196SOL    HW139990   8.480   0.351   6.238 -0.8831  0.6969  0.4932
12196SOL    HW239991   8.437   0.495   6.218  0.3686  0.8005 -1.7568
12197SOL     OW39992   6.665   7.730   9.376 -0.3262 -0.0381 -0.8091
12197SOL    HW139993   6.631   7.806   9.329 -0.0100 -0.1702 -1.2549
12197SOL    HW239994   6.745   7.707   9.330 -1.4024 -1.8293 -1.8780
12198SOL     OW39995  10.266   2.212   6.267 -0.4540 -0.7323 -0.0446
12198SOL    HW139996  10.342   2.189   6.321 -0.2130  0.7607  0.2847
12198SOL    HW239997  10.192   2.171   6.311 -0.3483  0.8881  1.7637
12199SOL     OW39998   4.389   6.494   4.361  0.3586  0.2150 -0.1479
12199SOL    HW139999   4.461   6.528   4.308 -0.2963 -0.0595 -1.2461
12199SOL    HW240000   4.401   6.534   4.447  0.3831  2.1612 -1.0202
12200SOL     OW40001   1.059   6.428   3.750  0.5189  0.2599 -0.2390
12200SOL    HW140002   0.997   6.356   3.742  0.8206  0.0214 -0.4980
12200SOL    HW240003   1.145   6.386   3.743  0.7985  0.3104  2.0501
12201SOL     OW40004   4.790   5.998   6.999  0.8346 -0.2016  0.4642
12201SOL    HW140005   4.779   6.056   7.075  0.6216  0.0617  0.2334
12201SOL    HW240006   4.884   5.995   6.986  0.8393  0.2649  0.3510
12202SOL     OW40007   0.873   7.622   4.096 -0.1346  0.3413 -0.4763
12202SOL    HW140008   0.824   7.678   4.157  0.4675  0.3558  0.0013
12202SOL    HW240009   0.965   7.641   4.114  0.0655 -0.3020 -0.7857
12203SOL     OW40010   9.418   4.919   1.347 -0.2531 -0.1398  0.1821
12203SOL    HW140011   9.497   4.961   1.379 -0.0823 -0.2294 -0.1136
12203SOL    HW240012   9.375   4.885   1.425 -0.2681  0.3713  0.3974
12204SOL     OW40013   9.216   3.277   9.304  0.5705  0.7042 -0.4179
12204SOL    HW140014   9.221   3.356   9.359  0.1501  0.1007  0.5067
12204SOL    HW240015   9.221   3.311   9.214  2.1960  1.6390 -0.0224
12205SOL     OW40016   5.868   0.823   3.852  0.1242 -0.5042 -0.3891
12205SOL    HW140017   5.897   0.761   3.918 -2.4743 -1.5321 -0.0803
12205SOL    HW240018   5.866   0.773   3.771 -2.7212 -1.1959 -0.0007
12206SOL     OW40019   5.917   1.564   8.668 -0.0084 -0.2429  0.2456
12206SOL    HW140020   5.972   1.581   8.744 -1.3095 -0.0354  1.1608
12206SOL    HW240021   5.855   1.637   8.666  0.9842  0.6500 -1.9708
12207SOL     OW40022   4.362   8.200   2.445 -0.6805 -0.0126 -0.3238
12207SOL    HW140023   4.275   8.169   2.469 -1.6486  1.6684 -1.4330
12207SOL    HW240024   4.372   8.284   2.490  1.0877 -0.9241  1.1141
12208SOL     OW40025   0.673   8.631   0.149  0.2696  0.1936  0.0140
12208SOL    HW140026   0.621   8.598   0.075  0.8389 -1.4715  0.3025
12208SOL    HW240027   0.657   8.568   0.219  1.9343  0.1499  0.4060
12209SOL     OW40028   4.197  10.350   8.559  0.1807 -0.1054  0.1527
12209SOL    HW140029   4.162  10.330   8.472 -0.9770 -1.9676  0.9707
12209SOL    HW240030   4.120  10.347   8.616  1.2003 -1.0169  1.5368
12210SOL     OW40031   3.227   5.898   0.444 -0.3088 -0.0447  0.9509
12210SOL    HW140032   3.141   5.919   0.405  0.3984  0.4053 -0.4436
12210SOL    HW240033   3.280   5.869   0.369  0.7929 -0.2332  1.7832
12211SOL     OW40034   0.608   0.877   8.006  0.4947 -0.0643  0.3355
12211SOL    HW140035   0.573   0.892   7.918  1.7745  0.3202 -0.1311
12211SOL    HW240036   0.662   0.798   7.998  1.4582  0.5556  0.4991
12212SOL     OW40037   0.237  10.761   8.662  0.3511 -0.1672  0.2116
12212SOL    HW140038   0.171  10.743   8.595 -1.8561  1.9823  1.6078
12212SOL    HW240039   0.229  10.855   8.678  2.7842 -0.0981  1.5259
12213SOL     OW40040   7.857   9.644   8.673 -0.1049  0.4107  0.6129
12213SOL    HW140041   7.932   9.589   8.652  0.2086  0.8613  0.5406
12213SOL    HW240042   7.785   9.608   8.621  0.0618 -0.0142  0.6729
12214SOL     OW40043   3.581   2.358   0.775  0.5001 -0.5680  0.2188
12214SOL    HW140044   3.498   2.383   0.815  1.3074 -0.8846  2.2462
12214SOL    HW240045   3.595   2.423   0.706 -1.2437 -0.3006  0.0733
12215SOL     OW40046   8.517  10.290   9.136 -0.0914 -0.6067  0.3370
12215SOL    HW140047   8.533  10.209   9.184  0.0114 -1.3275 -0.8713
12215SOL    HW240048   8.495  10.261   9.047 -1.0216  0.6513  0.1332
12216SOL     OW40049   0.158   9.649   6.625 -0.0849  0.0534 -0.0726
12216SOL    HW140050   0.163   9.726   6.681  0.3132  0.0546 -0.0997
12216SOL    HW240051   0.129   9.683   6.540 -0.8090  0.0307  0.1663
12217SOL     OW40052   3.728   8.773   6.922 -0.2240  0.2701  0.5160
12217SOL    HW140053   3.743   8.679   6.932 -1.0619 -0.0840 -1.2009
12217SOL    HW240054   3.685   8.799   7.003  1.0754 -0.5738  1.5148
12218SOL     OW40055  10.480   2.850   5.145  0.5792  0.4906  0.1828
12218SOL    HW140056  10.549   2.784   5.157  0.2575 -0.0384 -0.7575
12218SOL    HW240057  10.499   2.917   5.210  1.2088 -0.2918  0.8291
12219SOL     OW40058   4.232   0.808   7.265  0.5393  0.5751 -0.2974
12219SOL    HW140059   4.212   0.829   7.174  0.0947 -2.0765 -0.8848
12219SOL    HW240060   4.321   0.773   7.262 -0.0163 -0.9120  0.0151
12220SOL     OW40061  10.136   5.757   6.831  0.2860 -0.4083 -0.1200
12220SOL    HW140062  10.046   5.728   6.849 -0.4807  0.5315 -2.1905
12220SOL    HW240063  10.167   5.698   6.763 -0.1114  1.4742 -2.0166
12221SOL     OW40064   3.810  10.594   6.613 -0.1156 -0.3714  0.3442
12221SOL    HW140065   3.807  10.635   6.527  1.0306 -1.0173 -0.0435
12221SOL    HW240066   3.842  10.662   6.672  0.4514 -0.3069 -0.0275
12222SOL     OW40067   4.763   1.418  10.894  0.1619 -0.3626  0.0703
12222SOL    HW140068   4.799   1.341  10.938 -0.6928 -0.1764  1.1512
12222SOL    HW240069   4.679   1.433  10.937 -0.4143  0.2342 -1.2124
12223SOL     OW40070   8.070   5.640   0.923 -0.4262  0.1286 -0.1355
12223SOL    HW140071   8.036   5.700   0.989  0.7311  0.9979 -0.3063
12223SOL    HW240072   8.157   5.673   0.903  0.4597 -1.9094  0.1236
12224SOL     OW40073   4.610   9.475   4.126  0.0417 -0.0697 -0.4488
12224SOL    HW140074   4.651   9.511   4.204  1.6386 -1.9551 -0.3437
12224SOL    HW240075   4.519   9.459   4.152  0.6774 -1.2207  1.2581
12225SOL     OW40076  10.137  10.864   2.877  0.1655  0.4628 -0.4501
12225SOL    HW140077  10.216  10.811   2.870 -1.5075 -2.1492 -1.1028
12225SOL    HW240078  10.114  10.884   2.787 -0.1141  0.8640 -0.2912
12226SOL     OW40079   2.602   2.709   2.811  0.1020  0.0127 -0.0018
12226SOL    HW140080   2.681   2.659   2.791 -0.3035 -0.6384 -0.0017
12226SOL    HW240081   2.594   2.771   2.738  1.1675  0.7991  0.5133
12227SOL     OW40082   7.648   4.218   9.933  0.1077 -0.3622  0.5010
12227SOL    HW140083   7.620   4.176  10.014 -0.4384 -1.8386 -0.4002
12227SOL    HW240084   7.731   4.174   9.911  0.9677  0.9857  0.9402
12228SOL     OW40085   2.027   1.161   7.998  0.4512  0.2190  0.2328
12228SOL    HW140086   2.052   1.181   7.908 -0.2894 -1.0348 -0.2770
12228SOL    HW240087   1.963   1.228   8.021  2.4932  2.0709  0.7484
12229SOL     OW40088   9.903   2.787   8.078 -0.3991  0.4710  0.6354
12229SOL    HW140089   9.967   2.765   8.011  0.4735  0.9208  1.3052
12229SOL    HW240090   9.825   2.813   8.030 -0.4674 -1.1337 -0.1960
12230SOL     OW40091  10.520   7.939   5.266  0.2622 -0.4993 -0.2871
12230SOL    HW140092  10.509   7.874   5.335  2.6628 -1.3319 -0.6303
12230SOL    HW240093  10.610   7.928   5.236  1.3065  3.8070  0.5328
12231SOL     OW40094   6.875   1.163   9.387  0.5650  0.3125 -0.1887
12231SOL    HW140095   6.900   1.079   9.350  0.8626  0.0152  0.6506
12231SOL    HW240096   6.844   1.142   9.475 -2.4586  0.6860 -1.0594
12232SOL     OW40097   8.340   5.508  10.137 -0.2153 -0.0860  0.1303
12232SOL    HW140098   8.346   5.603  10.143 -1.1360  0.0279 -0.6201
12232SOL    HW240099   8.423   5.476  10.172 -0.4378  0.9446  1.6820
12233SOL     OW40100  10.679   1.590   2.112  0.7779 -0.8608 -0.0975
12233SOL    HW140101  10.698   1.626   2.026  0.1352  0.3513  0.2284
12233SOL    HW240102  10.657   1.667   2.165 -1.3527 -1.7637  0.4679
12234SOL     OW40103   9.689   9.957   5.694  0.1839  0.5027  0.0614
12234SOL    HW140104   9.648   9.880   5.733 -1.9760  1.9990  0.9507
12234SOL    HW240105   9.671   9.949   5.600  0.8336 -0.5314  0.0148
12235SOL     OW40106   3.183   4.095  10.258 -0.6882  0.2573  0.1429
12235SOL    HW140107   3.189   4.147  10.178  1.0055 -0.1780 -0.0524
12235SOL    HW240108   3.092   4.106  10.287 -1.2958  0.5662 -1.7260
12236SOL     OW40109   0.708   1.935   4.865 -0.8696  0.3135 -0.4334
12236SOL    HW140110   0.770   2.003   4.839  0.0109 -0.3902 -0.2276
12236SOL    HW240111   0.695   1.882   4.786 -1.7041  0.8118 -0.6473
12237SOL     OW40112   5.774   1.056   4.034 -0.1234  0.3099  0.1272
12237SOL    HW140113   5.681   1.060   4.016 -0.2384  0.1234  0.6785
12237SOL    HW240114   5.808   0.992   3.972 -0.6240 -0.8267  0.9909
12238SOL     OW40115   7.140   2.736   0.782 -0.7214 -0.0346  0.6179
12238SOL    HW140116   7.147   2.817   0.732 -1.9342 -0.6845 -0.6766
12238SOL    HW240117   7.098   2.762   0.864 -1.7094  0.5671 -0.0537
12239SOL     OW40118   7.363   0.156   9.696 -0.1498 -0.6566 -0.4004
12239SOL    HW140119   7.377   0.178   9.788 -0.8701 -1.4241 -0.0900
12239SOL    HW240120   7.444   0.112   9.669  1.8645  3.1797 -1.3916
12240SOL     OW40121   9.885   5.183   2.486  0.2446 -0.3666 -0.4046
12240SOL    HW140122   9.850   5.151   2.569  1.7115  1.0169  0.8243
12240SOL    HW240123   9.930   5.108   2.448  2.0593 -0.3372  1.5195
12241SOL     OW40124   9.838   3.429   8.588  0.3552  0.0722  0.3312
12241SOL    HW140125   9.837   3.363   8.519  1.1769  1.1366 -0.7213
12241SOL    HW240126   9.924   3.421   8.628  0.8827  1.2194 -0.5298
12242SOL     OW40127   6.130   6.476   9.332  0.0057 -0.5777  0.3746
12242SOL    HW140128   6.217   6.470   9.372  0.2460 -0.4606 -0.1248
12242SOL    HW240129   6.143   6.447   9.242  0.1168  2.1812 -0.5726
12243SOL     OW40130   0.410   3.009   3.916 -0.2677 -0.3529 -0.2922
12243SOL    HW140131   0.332   2.965   3.948  0.6809 -0.3130  2.3268
12243SOL    HW240132   0.382   3.054   3.836 -2.7809 -0.6822  0.3485
12244SOL     OW40133   6.095   0.161  10.148  0.1655 -0.3567 -0.0373
12244SOL    HW140134   6.071   0.095  10.213  1.9580  0.6275  1.7500
12244SOL    HW240135   6.165   0.211  10.190  1.4358  0.3361 -2.7589
12245SOL     OW40136  10.630   2.884   2.159 -0.5200  0.0643 -0.4699
12245SOL    HW140137  10.646   2.810   2.101  1.6346 -0.3645  0.5787
12245SOL    HW240138  10.693   2.950   2.131  1.2568 -0.4998  1.8709
12246SOL     OW40139   0.746   9.644   5.684  0.0260  0.4052  0.0060
12246SOL    HW140140   0.804   9.715   5.658 -0.5321  0.7643 -0.2867
12246SOL    HW240141   0.658   9.682   5.678 -0.3806 -0.6452 -1.3102
12247SOL     OW40142   3.908   0.072   4.798 -0.1182  0.3405 -0.0631
12247SOL    HW140143   3.962   0.002   4.761  1.5926  0.7387  1.5131
12247SOL    HW240144   3.971   0.132   4.838 -1.7277  0.8604  1.8563
12248SOL     OW40145   8.322   0.190   7.556  0.6811 -0.0270 -0.1207
12248SOL    HW140146   8.363   0.277   7.547 -1.0074  0.9278  0.8478
12248SOL    HW240147   8.318   0.175   7.650  0.4494 -0.9158 -0.2647
12249SOL     OW40148   1.297   5.267   8.031 -0.1580 -0.3721  0.6792
12249SOL    HW140149   1.355   5.282   8.106 -0.7948  0.8479  0.9641
12249SOL    HW240150   1.209   5.265   8.069 -0.4140 -0.7744  0.0822
12250SOL     OW40151   2.356  10.298   4.391 -0.5000  0.3033  0.4128
12250SOL    HW140152   2.297  10.286   4.465 -0.3286  2.7936  1.0422
12250SOL    HW240153   2.428  10.237   4.408 -1.1295 -0.1662  1.5347
12251SOL     OW40154   2.803   2.515   1.827  0.7891 -0.1110 -0.0771
12251SOL    HW140155   2.802   2.421   1.845  1.9648  0.2030  1.8949
12251SOL    HW240156   2.716   2.545   1.853 -0.2617 -0.8640 -2.4269
12252SOL     OW40157   9.639   6.503   7.404  0.5343 -0.5826  0.3783
12252SOL    HW140158   9.548   6.479   7.424  0.1622  0.8892  0.5690
12252SOL    HW240159   9.691   6.429   7.436 -0.4775 -0.7430  1.7361
12253SOL     OW40160   3.224   2.612   8.757  0.1480 -0.0082 -0.0179
12253SOL    HW140161   3.186   2.670   8.692  1.4663 -0.8426 -1.5982
12253SOL    HW240162   3.168   2.622   8.834 -0.9024  1.7015 -0.9573
12254SOL     OW40163   6.194   1.384  10.601  0.4903  0.3789  0.2371
12254SOL    HW140164   6.144   1.401  10.681 -0.5293  0.8292 -0.4720
12254SOL    HW240165   6.284   1.409  10.623  0.5022 -0.7759  1.6508
12255SOL     OW40166   4.604   5.980  10.593 -0.0043  0.1242  0.1730
12255SOL    HW140167   4.602   5.987  10.688  0.7556  0.2210  0.1880
12255SOL    HW240168   4.676   5.919  10.575  0.0402  0.3241 -0.3445
12256SOL     OW40169   1.375   8.071   1.981  0.0004 -0.2394  0.0283
12256SOL    HW140170   1.389   8.003   2.047 -0.1069 -0.8287 -0.5404
12256SOL    HW240171   1.280   8.068   1.964 -0.3665  1.4506  1.4610
12257SOL     OW40172   6.622   9.035  10.916 -0.3861  0.3808 -0.0732
12257SOL    HW140173   6.640   9.012  10.825  0.7127 -0.8916  0.4276
12257SOL    HW240174   6.703   9.073  10.948 -0.2390 -0.6116  0.7881
12258SOL     OW40175  10.221  10.377   5.705 -0.2745  0.3735  0.2021
12258SOL    HW140176  10.204  10.387   5.799  2.3909  1.1048  0.6797
12258SOL    HW240177  10.307  10.416   5.692 -0.8986  0.9858 -2.7240
12259SOL     OW40178   0.982   5.482   9.562  0.1720 -0.3360 -0.3387
12259SOL    HW140179   1.023   5.564   9.535  1.7514 -0.5119  1.3251
12259SOL    HW240180   0.927   5.457   9.488 -1.0555  2.6502 -0.5933
12260SOL     OW40181   7.490   7.945   9.407  0.7201 -0.6254 -0.1682
12260SOL    HW140182   7.527   8.028   9.437  1.4523 -1.2406  0.6611
12260SOL    HW240183   7.395   7.960   9.405  0.9425  0.9532 -2.2870
12261SOL     OW40184   6.861   2.160   4.282  0.1858  0.9743  0.2840
12261SOL    HW140185   6.949   2.194   4.266  0.8904 -1.0831 -0.5834
12261SOL    HW240186   6.863   2.130   4.373  0.6697  0.1938  0.0262
12262SOL     OW40187   2.208   1.374   9.453 -0.1494  0.3970 -0.1310
12262SOL    HW140188   2.269   1.358   9.381 -2.0682 -1.0599 -1.5336
12262SOL    HW240189   2.163   1.455   9.429 -0.4783  0.1458 -0.3820
12263SOL     OW40190   8.888   3.579   4.667 -0.4862  0.6962 -0.2049
12263SOL    HW140191   8.967   3.620   4.632 -0.5571  1.2256  0.2351
12263SOL    HW240192   8.824   3.584   4.597 -0.1337  0.2742 -0.5613
12264SOL     OW40193  10.728   1.465   6.747  0.7049 -0.1124 -0.0501
12264SOL    HW140194  10.788   1.397   6.715 -1.4399 -2.0988 -0.1204
12264SOL    HW240195  10.746   1.470   6.841  1.3106 -0.3146 -0.1490
12265SOL     OW40196   3.429   4.705   2.445 -0.1284  1.3542 -0.0337
12265SOL    HW140197   3.352   4.753   2.475 -0.6476  0.2793  0.4183
12265SOL    HW240198   3.417   4.699   2.350 -0.8140  0.8654  0.0728
12266SOL     OW40199   1.261   3.978   2.583  0.3166 -0.0909 -0.2626
12266SOL    HW140200   1.183   3.930   2.610  0.1513 -0.1925 -0.8869
12266SOL    HW240201   1.334   3.925   2.614  0.1336 -0.3891 -0.3299
12267SOL     OW40202   7.017   5.217   3.187  0.3246 -0.0803 -0.2214
12267SOL    HW140203   6.991   5.166   3.264 -1.2143  0.2906 -0.4668
12267SOL    HW240204   7.077   5.160   3.140 -0.3157 -1.1247  0.2013
12268SOL     OW40205   6.450  10.188   7.697 -0.1923 -0.6200 -0.5249
12268SOL    HW140206   6.496  10.148   7.771  0.0177  0.8230  0.1467
12268SOL    HW240207   6.505  10.261   7.670 -1.2005  0.0372 -0.8743
12269SOL     OW40208   4.524   3.701   0.727 -0.0632 -0.2339 -0.4416
12269SOL    HW140209   4.568   3.787   0.728  1.0348 -0.7809  0.4853
12269SOL    HW240210   4.503   3.684   0.819  0.8559 -1.4891 -0.4305
12270SOL     OW40211   1.818   4.685   4.930 -0.0422  0.2649 -0.2608
12270SOL    HW140212   1.817   4.610   4.989 -1.5097  0.1225 -0.4272
12270SOL    HW240213   1.726   4.700   4.908  0.3649  1.0457 -1.5871
12271SOL     OW40214   5.860   1.152   2.310  0.0267  0.2603  0.2784
12271SOL    HW140215   5.955   1.162   2.299 -0.1223 -0.9632 -3.2529
12271SOL    HW240216   5.850   1.069   2.357  0.7548 -0.4464 -0.7592
12272SOL     OW40217  10.912   2.187  10.384 -0.4258  0.7200 -0.4346
12272SOL    HW140218  10.981   2.172  10.449  1.1003 -0.8025 -2.2576
12272SOL    HW240219  10.846   2.120  10.402 -0.5506  1.0172  0.2155
12273SOL     OW40220   4.909   8.258   0.876  0.2859  0.0463  0.3098
12273SOL    HW140221   4.869   8.322   0.817 -1.2939  0.4062  1.6897
12273SOL    HW240222   4.986   8.225   0.828 -0.4472  0.9295 -1.5639
12274SOL     OW40223   4.989   0.253   6.013  0.3989  0.2023  0.0953
12274SOL    HW140224   4.929   0.190   6.053  1.0416 -0.6454 -0.2494
12274SOL    HW240225   4.981   0.331   6.067 -0.7058 -0.0356  0.2980
12275SOL     OW40226   9.841   7.279   1.558 -0.5575  0.2500  0.2768
12275SOL    HW140227   9.894   7.200   1.547 -0.3144  0.3750  0.5060
12275SOL    HW240228   9.803   7.295   1.472  0.4880  0.6547 -0.1273
12276SOL     OW40229   8.238   6.128   2.114  0.3218 -0.6264 -0.4882
12276SOL    HW140230   8.324   6.117   2.073  0.0540  0.0248 -1.2604
12276SOL    HW240231   8.177   6.082   2.055 -0.2217  1.2649 -1.4875
12277SOL     OW40232  10.083   3.090   9.968 -0.0821  0.0242 -0.0941
12277SOL    HW140233  10.126   3.007   9.945 -1.1288 -0.4190 -0.5623
12277SOL    HW240234  10.121   3.115  10.052 -0.3620 -1.4041  0.4945
12278SOL     OW40235   9.939   6.783   3.989  0.1546 -0.1964  0.5498
12278SOL    HW140236   9.891   6.756   4.068  0.4829  0.2313  0.9038
12278SOL    HW240237   9.930   6.710   3.929 -0.6110 -0.2798  0.7630
12279SOL     OW40238   2.250   5.932   3.065 -0.3979 -0.2733 -0.2051
12279SOL    HW140239   2.304   5.856   3.088 -0.6609 -1.0890 -2.1075
12279SOL    HW240240   2.160   5.900   3.072 -0.5074 -0.1914 -1.1258
12280SOL     OW40241   2.315  10.405   2.843 -0.4365 -0.6467 -0.0709
12280SOL    HW140242   2.353  10.320   2.820 -1.4360 -1.2941  0.5798
12280SOL    HW240243   2.371  10.437   2.914 -0.2828 -0.9522 -0.0492
12281SOL     OW40244   8.343  10.869   3.585 -0.2549 -0.2914  0.2834
12281SOL    HW140245   8.271  10.931   3.598 -1.0684 -0.5156 -2.5332
12281SOL    HW240246   8.300  10.785   3.568  0.7506 -0.9482  0.8855
12282SOL     OW40247   5.373   6.276   2.673  0.0080 -0.4753 -0.4164
12282SOL    HW140248   5.429   6.304   2.600  0.8818 -0.2376  0.3337
12282SOL    HW240249   5.284   6.287   2.640  0.3833  0.1691 -1.2489
12283SOL     OW40250   5.863   2.725   6.354 -0.2110  0.4891  1.0276
12283SOL    HW140251   5.785   2.676   6.378 -1.6253  1.4202 -1.2814
12283SOL    HW240252   5.844   2.757   6.266  2.2349  1.9119  0.9422
12284SOL     OW40253   4.786   2.485   6.322  0.2079  0.2259  0.1548
12284SOL    HW140254   4.792   2.568   6.369  0.4610  0.3009 -0.0065
12284SOL    HW240255   4.693   2.464   6.322  0.2253  0.1282  0.8509
12285SOL     OW40256   5.404   9.518   2.870 -0.3426  0.1073  0.4054
12285SOL    HW140257   5.426   9.611   2.879  0.7623 -0.1285  0.1982
12285SOL    HW240258   5.382   9.490   2.958 -0.5298  0.5252  0.4940
12286SOL     OW40259   4.216   7.848   0.188 -0.6477 -0.4963  0.2162
12286SOL    HW140260   4.284   7.807   0.241  0.4731  2.4863  1.3302
12286SOL    HW240261   4.137   7.845   0.243  0.4080  2.2144  2.0697
12287SOL     OW40262   5.994   5.677   0.075  0.0403 -0.5199  0.7589
12287SOL    HW140263   6.052   5.602   0.085  1.5852  0.2531 -1.5974
12287SOL    HW240264   6.012   5.710  -0.013 -1.0076  2.2463  1.4616
12288SOL     OW40265   3.712   2.893   6.737 -0.3015  0.0307 -0.8000
12288SOL    HW140266   3.742   2.957   6.802  1.5654 -0.6005 -0.9727
12288SOL    HW240267   3.767   2.816   6.753 -1.6893 -1.1077 -1.3788
12289SOL     OW40268   4.501   4.702   6.493 -0.3574 -0.1177 -0.3946
12289SOL    HW140269   4.507   4.610   6.467  0.3078  0.1255 -1.1628
12289SOL    HW240270   4.489   4.749   6.410 -0.5199  0.4992 -0.0250
12290SOL     OW40271   4.183   0.274   2.842  0.7518 -0.3921  0.6064
12290SOL    HW140272   4.201   0.365   2.822 -0.2857 -0.1160  0.9089
12290SOL    HW240273   4.100   0.275   2.889  0.3579 -1.5568 -0.0262
12291SOL     OW40274   2.602   3.635   6.761 -0.2865 -0.0093  0.2674
12291SOL    HW140275   2.663   3.631   6.834  0.4154  0.4068 -0.2801
12291SOL    HW240276   2.638   3.574   6.696  1.1471  2.2718 -1.2100
12292SOL     OW40277   4.636   2.577   0.215 -0.1663 -0.1172  0.3010
12292SOL    HW140278   4.577   2.606   0.285 -1.1631  0.3571 -0.6940
12292SOL    HW240279   4.714   2.546   0.261 -0.6924  0.3886  1.6063
12293SOL     OW40280   2.552   3.654   3.182  0.1925 -0.1757 -0.3743
12293SOL    HW140281   2.587   3.582   3.128  0.8088  0.5196 -0.9304
12293SOL    HW240282   2.560   3.622   3.272  1.9241 -0.2160 -0.5063
12294SOL     OW40283   3.961   1.424   5.715 -0.1450 -0.1271 -0.1899
12294SOL    HW140284   3.884   1.437   5.659  0.7408  0.7314 -1.2525
12294SOL    HW240285   4.035   1.453   5.662  0.8280 -0.0822  1.1281
12295SOL     OW40286   8.322   3.627   4.212  0.1243  0.0630  0.1726
12295SOL    HW140287   8.292   3.694   4.273 -0.5764  1.7238 -1.9034
12295SOL    HW240288   8.242   3.587   4.179  0.4766 -0.3451 -0.1961
12296SOL     OW40289   4.159   7.375   4.986  0.5280  0.3889 -0.0185
12296SOL    HW140290   4.074   7.354   4.947  0.6828 -0.3228  0.0121
12296SOL    HW240291   4.202   7.432   4.922  0.9874 -1.1796 -1.1591
12297SOL     OW40292   1.955   3.067   8.167  0.3958 -0.0677  0.2261
12297SOL    HW140293   1.940   2.974   8.150 -0.3903 -0.0607  0.8518
12297SOL    HW240294   2.035   3.087   8.117  0.6648 -1.1053  0.2065
12298SOL     OW40295   3.369   5.999   9.732  0.0164 -0.2039  0.1951
12298SOL    HW140296   3.442   6.047   9.770 -0.4244 -0.7853  1.8455
12298SOL    HW240297   3.350   5.930   9.795 -1.4501 -0.5395 -0.5759
12299SOL     OW40298   0.393   1.455   2.924 -0.0614 -0.3086 -0.0822
12299SOL    HW140299   0.345   1.538   2.922  2.0438  1.0514  0.9263
12299SOL    HW240300   0.465   1.468   2.863 -0.3924 -1.9171 -0.8634
12300SOL     OW40301   6.822   3.710   3.190 -0.1702  0.4609  0.2707
12300SOL    HW140302   6.751   3.704   3.125 -0.7700  2.5933  0.6587
12300SOL    HW240303   6.779   3.743   3.269  0.7485 -1.0898  1.4847
12301SOL     OW40304   5.401   0.297   3.157  0.1887 -0.0278  0.1875
12301SOL    HW140305   5.481   0.251   3.181  0.4413  0.7582  0.9152
12301SOL    HW240306   5.381   0.351   3.234 -1.1673 -0.3883  0.1169
12302SOL     OW40307   9.221   1.465   0.083  0.3110 -0.2818  0.4791
12302SOL    HW140308   9.136   1.457   0.125 -0.0147 -0.8142 -0.2623
12302SOL    HW240309   9.266   1.383   0.103  0.8944  0.2351  1.3659
12303SOL     OW40310   9.556   0.174   8.008  0.4009  0.2484  0.2702
12303SOL    HW140311   9.515   0.092   7.981 -0.3518  0.8465 -0.4778
12303SOL    HW240312   9.529   0.185   8.100 -2.5394  1.3961 -0.6259
12304SOL     OW40313   2.055   1.066   7.168  0.0411 -0.6846 -0.1166
12304SOL    HW140314   2.039   0.975   7.193 -0.0634 -1.0254 -1.3590
12304SOL    HW240315   2.140   1.087   7.207  0.0773 -1.3197  0.1550
12305SOL     OW40316   6.225   2.783   0.085  0.2359  0.5160 -0.1550
12305SOL    HW140317   6.313   2.810   0.110  0.2689  1.0339 -0.8179
12305SOL    HW240318   6.183   2.862   0.053 -0.0474  0.0127 -1.0542
12306SOL     OW40319   6.377   3.951   6.568 -0.1796 -0.2495 -0.4922
12306SOL    HW140320   6.303   3.964   6.509  0.1095 -0.8017 -0.9855
12306SOL    HW240321   6.351   3.994   6.650 -0.5168  0.6780 -1.0737
12307SOL     OW40322   2.085   6.270   3.983 -0.0393 -0.1275 -0.0174
12307SOL    HW140323   2.165   6.245   4.029 -0.2804  0.2129  0.6039
12307SOL    HW240324   2.115   6.307   3.900  0.3273 -2.9652 -1.2606
12308SOL     OW40325   2.575   4.486   3.086  0.7367  0.1203 -0.0510
12308SOL    HW140326   2.528   4.404   3.095  0.9401  0.0033 -0.0464
12308SOL    HW240327   2.518   4.541   3.032  2.2423 -1.3407 -3.3952
12309SOL     OW40328   3.149   9.796   3.451  0.3585  0.0821 -0.3207
12309SOL    HW140329   3.149   9.883   3.492 -0.5614  0.0709 -0.2646
12309SOL    HW240330   3.061   9.762   3.468  0.8861 -1.0928  0.1260
12310SOL     OW40331   6.661   8.433   3.328 -0.3322 -0.5435  0.1375
12310SOL    HW140332   6.713   8.364   3.368 -0.7100 -0.7745  0.2362
12310SOL    HW240333   6.577   8.430   3.375 -0.2796  0.1135  0.2815
12311SOL     OW40334   2.816   2.402   5.191 -0.4119 -0.1693  0.0364
12311SOL    HW140335   2.770   2.485   5.183  0.5520  0.3659 -0.0450
12311SOL    HW240336   2.747   2.336   5.190 -1.0995  0.5386 -1.3305
12312SOL     OW40337   5.233   1.675   2.040  0.5543  0.0462  0.5076
12312SOL    HW140338   5.322   1.702   2.019  1.8284 -4.6440 -1.4836
12312SOL    HW240339   5.184   1.685   1.958 -0.0849  0.2773  0.9093
12313SOL     OW40340   7.747   1.878   1.241  0.1732  0.0831  0.0720
12313SOL    HW140341   7.836   1.857   1.270  0.0564  1.4913  1.5456
12313SOL    HW240342   7.728   1.964   1.279 -1.4772  0.2360 -0.9955
12314SOL     OW40343   1.084   7.864   3.090 -0.1675  0.1301 -0.5913
12314SOL    HW140344   1.165   7.901   3.124 -0.8794  0.2937  1.0310
12314SOL    HW240345   1.096   7.863   2.995  1.5695  0.4886 -0.4157
12315SOL     OW40346  10.555   4.279   0.434 -0.1545  0.2815  0.2915
12315SOL    HW140347  10.547   4.330   0.514  0.3133  1.0994 -0.1789
12315SOL    HW240348  10.569   4.344   0.365 -1.8413 -0.3006 -0.6525
12316SOL     OW40349   0.515   0.052   6.040 -0.9840  0.0605  0.2655
12316SOL    HW140350   0.533  -0.036   6.073 -1.2569  0.2055  0.8207
12316SOL    HW240351   0.559   0.055   5.955  0.0150 -0.2200  0.7549
12317SOL     OW40352   5.167   4.449   6.603 -0.2503  0.4220  0.2764
12317SOL    HW140353   5.104   4.434   6.533  0.2728 -1.8574  0.2291
12317SOL    HW240354   5.248   4.409   6.571  0.9704  2.3108  0.7973
12318SOL     OW40355   5.028   2.371   9.013 -0.1953  0.2335 -0.2066
12318SOL    HW140356   4.953   2.429   9.000 -0.0895  0.0151 -2.0601
12318SOL    HW240357   5.098   2.430   9.042 -0.5766  0.7403 -0.3059
12319SOL     OW40358   5.869   8.029   1.896  0.2570 -0.4011  0.1792
12319SOL    HW140359   5.882   8.035   1.801  0.8794  0.1993  0.2879
12319SOL    HW240360   5.955   8.004   1.931 -0.1176 -1.2186  0.5409
12320SOL     OW40361  10.632   8.846   6.244 -0.5654  0.4630 -0.0819
12320SOL    HW140362  10.549   8.806   6.219 -0.4406  0.2308 -0.1278
12320SOL    HW240363  10.679   8.777   6.292 -0.5071  0.6738  0.1696
12321SOL     OW40364   6.535   9.338   9.891  0.0518  0.2878  0.5807
12321SOL    HW140365   6.590   9.346   9.813 -0.7348 -0.9019 -0.1240
12321SOL    HW240366   6.559   9.413   9.945  1.0146  0.8226 -0.5516
12322SOL     OW40367  10.369   6.031   3.638  0.2537 -0.3602 -0.2238
12322SOL    HW140368  10.416   6.096   3.690  0.9789 -0.2881 -0.9549
12322SOL    HW240369  10.330   5.972   3.703  0.9242 -0.1237  0.4053
12323SOL     OW40370   7.964   3.814   2.295 -0.1757 -0.0107 -0.1598
12323SOL    HW140371   8.051   3.814   2.335 -0.3670 -0.8168  0.2965
12323SOL    HW240372   7.913   3.755   2.351 -0.9215  0.1968 -0.6141
12324SOL     OW40373   1.064   6.545   7.643 -0.7887  0.0439  0.1974
12324SOL    HW140374   1.076   6.628   7.599 -1.6165 -0.6432 -1.3817
12324SOL    HW240375   1.151   6.504   7.641 -0.8193  0.0226 -0.7872
12325SOL     OW40376   4.170   6.366   1.230  0.3612  0.3951  0.3775
12325SOL    HW140377   4.241   6.359   1.167  0.1581  0.0623  0.1831
12325SOL    HW240378   4.194   6.440   1.285  0.3774  0.8995 -0.2930
12326SOL     OW40379   9.307   8.167   1.883  0.0811 -0.2715  0.0219
12326SOL    HW140380   9.400   8.147   1.898  0.1991  0.2970  0.0515
12326SOL    HW240381   9.279   8.100   1.820  0.1728 -1.2387  0.9880
12327SOL     OW40382  10.762   4.947   4.159 -0.6467  0.3259 -0.1866
12327SOL    HW140383  10.767   5.042   4.168  1.4636  0.1288  1.3034
12327SOL    HW240384  10.731   4.916   4.244 -1.8842 -0.3368 -0.8407
12328SOL     OW40385   0.336   0.323   7.433  0.6855  0.4182  0.5234
12328SOL    HW140386   0.271   0.389   7.410 -0.6999 -1.3004 -0.7750
12328SOL    HW240387   0.365   0.348   7.521 -0.3884  2.2684  0.3990
12329SOL     OW40388   0.202  10.106   7.596  0.0451  0.2633 -0.4198
12329SOL    HW140389   0.161  10.039   7.651  0.3582  0.7782  0.4578
12329SOL    HW240390   0.278  10.063   7.558  0.6518  0.3158  0.7026
12330SOL     OW40391   0.859   0.767   5.245 -0.0709  0.4138  0.2905
12330SOL    HW140392   0.778   0.726   5.273  1.0074 -1.1989  1.2424
12330SOL    HW240393   0.925   0.734   5.307  1.3281  1.5689 -0.5110
12331SOL     OW40394   3.097   2.259   0.206 -0.4722  0.9034  0.2852
12331SOL    HW140395   3.173   2.295   0.161 -0.2483  1.3352  0.9959
12331SOL    HW240396   3.090   2.310   0.287 -1.0909  0.3940  0.5652
12332SOL     OW40397   4.324   3.895   7.753  0.2680 -0.2075  0.1238
12332SOL    HW140398   4.275   3.964   7.797  2.7944  1.2593  0.8909
12332SOL    HW240399   4.314   3.818   7.810 -0.0285  0.4375  0.9691
12333SOL     OW40400  10.848   8.776   8.570 -0.0044  0.1075  0.3461
12333SOL    HW140401  10.764   8.731   8.560 -0.5417  1.3013 -0.7735
12333SOL    HW240402  10.893   8.727   8.639  0.1165 -3.1332 -1.8017
12334SOL     OW40403   3.814   6.939  10.106 -0.0710 -0.3643 -0.3284
12334SOL    HW140404   3.755   6.996  10.057  0.8329  1.6137  0.7830
12334SOL    HW240405   3.835   6.868  10.045 -2.5761 -0.4966 -1.1638
12335SOL     OW40406   6.506   8.751   3.378  0.7660  0.3308 -0.3214
12335SOL    HW140407   6.576   8.738   3.443  0.7884 -1.4234 -0.6568
12335SOL    HW240408   6.487   8.845   3.383  0.8394  0.2997  2.1576
12336SOL     OW40409   6.469   7.779   3.046  0.5393  0.0812  0.4556
12336SOL    HW140410   6.473   7.702   3.104 -0.6767  1.5804  2.6651
12336SOL    HW240411   6.559   7.812   3.045  0.8385 -0.7037  0.4359
12337SOL     OW40412   6.774   6.379   2.774 -0.8588  0.5071 -0.5760
12337SOL    HW140413   6.736   6.372   2.686 -0.7807 -0.6069 -0.5346
12337SOL    HW240414   6.824   6.298   2.784 -0.3972  0.8964  0.2758
12338SOL     OW40415   8.586   7.912  10.692  0.1779  0.2213  0.1555
12338SOL    HW140416   8.666   7.928  10.642 -1.3119  1.2844 -2.1130
12338SOL    HW240417   8.540   7.996  10.690 -1.2385 -0.5043  0.8771
12339SOL     OW40418   5.503   0.937   7.730 -0.3563  0.0902  0.7809
12339SOL    HW140419   5.579   0.915   7.784 -0.2400  0.8452  0.9310
12339SOL    HW240420   5.525   0.904   7.643  0.7258  1.4553  0.5017
12340SOL     OW40421   2.393   1.842   0.060 -0.2851  0.2353 -0.0263
12340SOL    HW140422   2.321   1.847   0.124  0.8797 -1.1875  1.4746
12340SOL    HW240423   2.353   1.868  -0.023 -2.4367 -0.1247  0.8333
12341SOL     OW40424   5.027   5.359   0.153 -0.0906 -0.1265 -0.3349
12341SOL    HW140425   5.075   5.420   0.209  0.3337 -0.4230 -0.3731
12341SOL    HW240426   4.935   5.371   0.178 -0.1248  1.2460 -1.0494
12342SOL     OW40427   3.602   5.799   3.645 -0.2697 -0.0553 -0.4857
12342SOL    HW140428   3.628   5.886   3.613 -1.5909  0.5725  0.0308
12342SOL    HW240429   3.532   5.818   3.708  0.6997 -1.4005  1.0507
12343SOL     OW40430   7.355   1.247   7.782  0.0747  0.3571  0.3481
12343SOL    HW140431   7.278   1.208   7.741  0.7504 -1.6234  0.8186
12343SOL    HW240432   7.426   1.233   7.719  1.0756 -2.5043  1.9155
12344SOL     OW40433   2.359   7.088   9.347  0.6309  0.0356  0.0250
12344SOL    HW140434   2.308   7.152   9.297  2.2954 -0.4875 -2.5173
12344SOL    HW240435   2.403   7.139   9.415 -0.0395  1.1453 -0.3516
12345SOL     OW40436   5.734   7.099   0.602  0.4258  0.3821 -0.1655
12345SOL    HW140437   5.706   7.112   0.692 -1.1249 -1.8483 -0.2490
12345SOL    HW240438   5.743   7.188   0.567  0.2555  1.2782  1.9211
12346SOL     OW40439   4.168   6.114   2.908  0.2070 -0.2165  0.8615
12346SOL    HW140440   4.227   6.098   2.982  1.0246  1.4914  0.6203
12346SOL    HW240441   4.154   6.209   2.909  1.9932  0.2142 -2.4703
12347SOL     OW40442   0.123   4.658   2.065  0.3298  0.2814 -0.0088
12347SOL    HW140443   0.209   4.645   2.105  0.3275  0.8457  0.2033
12347SOL    HW240444   0.069   4.587   2.099  0.2865  0.8457  1.1393
12348SOL     OW40445  10.023   0.742  10.177 -0.0553  0.3212 -0.5249
12348SOL    HW140446  10.116   0.747  10.197 -0.1381  3.1642 -0.4668
12348SOL    HW240447  10.009   0.806  10.107 -2.0564  0.4869 -0.0499
12349SOL     OW40448   4.575   8.787   9.788  0.3801  0.9225  0.2593
12349SOL    HW140449   4.513   8.780   9.715  0.3073 -1.6953  0.4655
12349SOL    HW240450   4.659   8.808   9.746  0.3181 -0.4451 -0.6135
12350SOL     OW40451   4.574   3.883  10.085 -0.6684 -0.0390 -0.0649
12350SOL    HW140452   4.605   3.924  10.005  0.0425 -1.8601 -0.7676
12350SOL    HW240453   4.647   3.892  10.147 -0.1427 -1.0141 -0.5193
12351SOL     OW40454   0.077   0.775   2.251 -0.0438  0.3757 -0.2080
12351SOL    HW140455   0.114   0.690   2.227 -1.1959  0.6971 -3.5712
12351SOL    HW240456   0.153   0.828   2.273  1.1135 -0.3455 -2.2245
12352SOL     OW40457   3.497   7.753   4.183  0.4911 -0.4339 -0.0107
12352SOL    HW140458   3.519   7.731   4.093 -2.7988  0.0411 -1.0688
12352SOL    HW240459   3.463   7.671   4.220 -2.5962  0.3002 -0.8571
12353SOL     OW40460   4.531  10.317   3.018 -0.2953  0.1363 -0.3360
12353SOL    HW140461   4.458  10.361   2.974 -2.2569 -0.6765  1.8863
12353SOL    HW240462   4.568  10.259   2.952 -1.1649  1.1160 -1.7346
12354SOL     OW40463   2.871   0.980   0.249  0.0054 -0.3525 -0.1319
12354SOL    HW140464   2.898   0.980   0.341  0.6722  0.4355 -0.3215
12354SOL    HW240465   2.863   1.072   0.226 -1.3659 -0.5465 -0.5290
12355SOL     OW40466   4.724   3.957   3.356 -0.0087 -0.8317  0.1814
12355SOL    HW140467   4.816   3.964   3.330  0.3681 -0.4794  1.5109
12355SOL    HW240468   4.675   3.956   3.274  1.2472 -2.1656 -0.5751
12356SOL     OW40469   2.773   6.174   4.600 -0.1620  0.3147  0.0340
12356SOL    HW140470   2.841   6.220   4.650 -0.5270  0.1842  0.6528
12356SOL    HW240471   2.707   6.241   4.581 -0.4263  0.1737  0.4539
12357SOL     OW40472   5.530   1.429   1.105 -0.4985  0.0872 -0.3822
12357SOL    HW140473   5.470   1.365   1.142  0.8886 -1.3177 -0.4418
12357SOL    HW240474   5.480   1.471   1.035 -1.7662 -0.2264  0.3043
12358SOL     OW40475   3.385   6.112   8.524 -0.0973 -0.0029  0.1451
12358SOL    HW140476   3.293   6.099   8.501  0.0571 -1.4466  0.3006
12358SOL    HW240477   3.395   6.071   8.610  1.0763 -1.4680 -0.6462
12359SOL     OW40478   8.297   1.891   3.144 -0.1164  0.2426 -1.2399
12359SOL    HW140479   8.307   1.836   3.222  0.4412  1.0982 -0.6836
12359SOL    HW240480   8.253   1.835   3.080 -1.0393 -0.3242 -0.1470
12360SOL     OW40481   7.180   2.832   1.716 -0.0429 -0.3562 -0.2695
12360SOL    HW140482   7.103   2.811   1.662  0.3597  1.1080 -1.4898
12360SOL    HW240483   7.242   2.871   1.655 -0.1481  2.8354  1.4314
12361SOL     OW40484   5.449   2.856   2.159  0.2186  0.0372 -0.1269
12361SOL    HW140485   5.412   2.937   2.193  0.3046  0.3289 -0.7250
12361SOL    HW240486   5.520   2.884   2.102  1.4434 -0.5079  1.0560
12362SOL     OW40487   8.991   2.113  10.188  0.4490 -0.0037  0.4619
12362SOL    HW140488   9.077   2.109  10.146 -0.4109  0.2649 -1.3962
12362SOL    HW240489   8.928   2.111  10.116 -1.1463 -0.9869  1.8097
12363SOL     OW40490   0.432   0.474   8.409  0.4055 -0.8648  0.2765
12363SOL    HW140491   0.466   0.504   8.494  0.0051 -1.1628  0.5414
12363SOL    HW240492   0.360   0.534   8.390  0.4872 -0.8057  0.1460
12364SOL     OW40493  10.868   7.403   1.392  0.2485  0.5808 -0.0249
12364SOL    HW140494  10.932   7.358   1.447 -0.6255 -0.7732 -0.0654
12364SOL    HW240495  10.883   7.368   1.304 -0.0697  0.7872 -0.1626
12365SOL     OW40496   9.986   2.058   9.071 -0.1682 -0.3644 -0.0576
12365SOL    HW140497  10.020   2.131   9.121  0.6073 -1.8094  1.6373
12365SOL    HW240498  10.023   2.070   8.983  0.1803  1.0899  0.2737
12366SOL     OW40499   2.419   7.509  10.911  0.3222 -0.5748 -0.1683
12366SOL    HW140500   2.469   7.427  10.910 -2.3091 -2.3003  0.0756
12366SOL    HW240501   2.405   7.528  11.004  2.0299  0.9733 -0.1652
12367SOL     OW40502   4.006   3.508   5.813 -0.0978 -0.4553  0.2178
12367SOL    HW140503   4.000   3.602   5.794 -0.7108 -0.3229  0.9754
12367SOL    HW240504   4.072   3.503   5.883 -0.6218 -0.4931  0.7165
12368SOL     OW40505   2.445   0.441   2.600 -0.7007 -0.3983 -0.7840
12368SOL    HW140506   2.386   0.479   2.535  0.4564  1.5055 -0.8045
12368SOL    HW240507   2.482   0.516   2.646 -0.4715 -1.6502  1.1978
12369SOL     OW40508   4.276   0.032   7.418 -0.0463 -0.3056  0.0736
12369SOL    HW140509   4.193  -0.005   7.450  0.8054 -1.4871  1.0022
12369SOL    HW240510   4.341  -0.034   7.440  0.8177 -0.5603 -2.9221
12370SOL     OW40511   0.578   3.243   6.115  0.4314 -0.4132 -0.4614
12370SOL    HW140512   0.494   3.240   6.069 -0.0179 -1.1836  0.3647
12370SOL    HW240513   0.559   3.286   6.199  0.7327 -1.0599 -0.0481
12371SOL     OW40514   1.547   7.191  10.102  0.2356  0.1899  0.0941
12371SOL    HW140515   1.632   7.225  10.075  0.0816  0.8849  0.4593
12371SOL    HW240516   1.545   7.101  10.069  1.2579  0.0425  0.4169
12372SOL     OW40517   1.701  10.535   2.425 -0.3966  0.0104  0.0567
12372SOL    HW140518   1.612  10.513   2.453 -0.0433 -0.6941  0.6563
12372SOL    HW240519   1.691  10.567   2.335 -1.0625 -1.6688 -0.4986
12373SOL     OW40520   1.394   1.688   7.787 -0.7043 -0.4675 -0.2562
12373SOL    HW140521   1.440   1.669   7.705  0.2856  0.3490  0.0770
12373SOL    HW240522   1.305   1.710   7.760  0.0054  1.3524 -1.3138
12374SOL     OW40523  10.302   8.466   2.623  0.2800 -0.1227  0.0707
12374SOL    HW140524  10.321   8.515   2.703  0.2184 -1.1913  0.7558
12374SOL    HW240525  10.363   8.501   2.558  0.4702  0.6119  0.6406
12375SOL     OW40526   6.362   5.670  10.904  0.2963  0.1109  0.2200
12375SOL    HW140527   6.357   5.600  10.970 -0.6881  2.2216  2.5686
12375SOL    HW240528   6.334   5.628  10.823 -4.9109 -1.3787  2.3117
12376SOL     OW40529   0.679   0.955   2.357 -0.0695  0.0264 -0.6811
12376SOL    HW140530   0.772   0.976   2.362  0.3663 -2.0142  1.6127
12376SOL    HW240531   0.641   0.995   2.435 -1.1457  0.7501 -1.5416
12377SOL     OW40532   8.252   5.199   3.863  0.0862 -0.3694 -0.9233
12377SOL    HW140533   8.175   5.230   3.815 -0.7274 -0.7420  0.0827
12377SOL    HW240534   8.216   5.163   3.945  1.2926 -0.9727 -0.6303
12378SOL     OW40535   6.131   4.451   5.510 -0.2565  0.0635  0.2000
12378SOL    HW140536   6.212   4.409   5.538 -0.4605 -0.1092  0.5359
12378SOL    HW240537   6.159   4.536   5.474  0.2434 -0.6846 -1.2585
12379SOL     OW40538   3.561   7.588   1.164 -0.1293  0.1611 -0.2280
12379SOL    HW140539   3.502   7.553   1.097 -1.2897  3.0179 -0.8868
12379SOL    HW240540   3.504   7.636   1.224  1.1762 -0.1577  1.3511
12380SOL     OW40541   5.471  10.188   0.191 -0.3246  0.1998 -0.0402
12380SOL    HW140542   5.404  10.119   0.184  1.4813 -1.6660 -0.1342
12380SOL    HW240543   5.473  10.210   0.284 -1.2694  0.5260 -0.0852
12381SOL     OW40544   0.482   1.788   0.035  0.4580  0.2480 -0.1185
12381SOL    HW140545   0.552   1.849   0.059  1.8296 -1.6705  1.0028
12381SOL    HW240546   0.512   1.749  -0.047 -0.2543  0.7771 -0.6503
12382SOL     OW40547   4.456   8.596   4.982  0.2219 -0.4089 -0.0563
12382SOL    HW140548   4.439   8.672   4.926 -2.2447 -1.0546 -0.2670
12382SOL    HW240549   4.522   8.546   4.934  0.1721  0.4240 -1.0325
12383SOL     OW40550   2.697  10.750   9.504  0.2897 -0.3168  0.2578
12383SOL    HW140551   2.648  10.668   9.508 -0.8624  0.3439  0.2026
12383SOL    HW240552   2.737  10.750   9.417 -1.8817  0.3463 -0.8134
12384SOL     OW40553   1.484   1.820   1.126 -0.0838  0.1627  0.3475
12384SOL    HW140554   1.412   1.760   1.109 -0.8655  1.3978 -0.8583
12384SOL    HW240555   1.554   1.765   1.160 -0.7691 -1.4237 -0.7431
12385SOL     OW40556   5.941   0.604   9.385  0.7514  0.3981 -0.6101
12385SOL    HW140557   5.969   0.540   9.451  2.2920  0.8031 -0.8147
12385SOL    HW240558   5.853   0.576   9.360  0.9782 -1.0232  0.0625
12386SOL     OW40559   2.271   0.399   9.870 -0.3228  0.2658 -0.1797
12386SOL    HW140560   2.251   0.307   9.888 -0.4469  0.7438  2.6070
12386SOL    HW240561   2.189   0.445   9.887 -0.1196  0.9695 -1.0254
12387SOL     OW40562   9.425   1.490   8.962  0.1285  0.2344  0.1216
12387SOL    HW140563   9.476   1.498   8.881  0.9679  0.6387  0.6775
12387SOL    HW240564   9.484   1.448   9.024 -1.1133 -1.8361  0.0140
12388SOL     OW40565   4.039  10.020   3.770 -0.0592  0.2601  0.5391
12388SOL    HW140566   4.091   9.940   3.770 -1.4842 -0.7186 -0.8346
12388SOL    HW240567   4.093  10.084   3.724  0.2304 -0.5213 -0.2173
12389SOL     OW40568   2.562   4.251   0.324  0.6768 -0.0070 -0.1327
12389SOL    HW140569   2.497   4.268   0.256 -2.3090  0.8529  2.6855
12389SOL    HW240570   2.629   4.318   0.310  0.5128 -0.2676 -2.5538
12390SOL     OW40571   7.199   4.507   0.127 -0.7266 -0.3325 -0.0292
12390SOL    HW140572   7.265   4.458   0.079  0.4178 -0.1225  1.2707
12390SOL    HW240573   7.173   4.578   0.069  0.8914  0.1301 -0.2076
12391SOL     OW40574   8.704   5.245   5.532 -0.1585  0.2903  0.6441
12391SOL    HW140575   8.676   5.281   5.448 -1.3102  0.1990  0.9708
12391SOL    HW240576   8.797   5.226   5.520 -0.9494 -2.9983 -1.8210
12392SOL     OW40577   6.216   8.001   2.508 -0.1056 -0.0415  0.4315
12392SOL    HW140578   6.267   8.024   2.430  0.7040  1.4774  1.3575
12392SOL    HW240579   6.125   8.020   2.484  0.2872  1.9326  0.3266
12393SOL     OW40580   2.606   4.869   2.509 -0.1575  0.0247  0.4843
12393SOL    HW140581   2.516   4.882   2.477 -0.3165 -2.6052 -0.3593
12393SOL    HW240582   2.633   4.786   2.471  2.2118  0.1450  1.7407
12394SOL     OW40583   6.654   7.442   9.004  0.2659  0.5917 -0.0136
12394SOL    HW140584   6.694   7.521   8.968 -0.7700  0.8136 -0.7239
12394SOL    HW240585   6.650   7.457   9.098  1.2477  0.8341 -0.0033
12395SOL     OW40586   5.154   4.386   5.139 -0.7226 -0.0901  0.2867
12395SOL    HW140587   5.150   4.477   5.166  0.3333 -0.1560  0.6995
12395SOL    HW240588   5.235   4.353   5.176 -1.6187 -1.5074  1.0812
12396SOL     OW40589   5.100   7.112   2.391  0.4029 -0.6368 -0.5083
12396SOL    HW140590   5.186   7.084   2.423  1.1336  1.1917 -0.7157
12396SOL    HW240591   5.039   7.086   2.459  1.5334  0.5529  1.0146
12397SOL     OW40592   8.026   6.807   8.121  0.4558  0.3057 -0.0844
12397SOL    HW140593   7.934   6.824   8.142 -0.0816 -0.5646 -1.5659
12397SOL    HW240594   8.047   6.727   8.169  0.5508  0.6822  0.5116
12398SOL     OW40595   5.411   2.401   6.393 -0.0157 -0.3446  0.2360
12398SOL    HW140596   5.349   2.363   6.330  0.7584 -2.7302  0.8150
12398SOL    HW240597   5.403   2.346   6.471  0.9022  0.9744  1.3074
12399SOL     OW40598   0.442   2.696   1.793 -0.1863 -0.3668  0.4441
12399SOL    HW140599   0.458   2.737   1.878 -1.6259  0.3291  0.4097
12399SOL    HW240600   0.458   2.765   1.729 -0.8674 -0.3564  0.2743
12400SOL     OW40601   7.743   4.734   8.577 -0.0137  0.0336 -0.3671
12400SOL    HW140602   7.762   4.660   8.635  0.1654  0.6163  0.3294
12400SOL    HW240603   7.654   4.761   8.602 -0.3143 -0.3193 -1.0346
12401SOL     OW40604   9.989   4.670   9.226 -0.2907 -0.0590  0.2460
12401SOL    HW140605  10.075   4.627   9.222  0.2115  0.9224  0.2533
12401SOL    HW240606   9.983   4.704   9.315 -0.7885 -0.3162  0.3161
12402SOL     OW40607   3.515   2.668   7.688  0.1725 -0.0131  0.2202
12402SOL    HW140608   3.521   2.574   7.708 -3.2451 -0.1750  1.0927
12402SOL    HW240609   3.528   2.673   7.593  0.2324 -1.3762  0.1386
12403SOL     OW40610   5.223   0.461  10.499 -0.2308 -0.3677  0.1950
12403SOL    HW140611   5.255   0.523  10.433 -0.0375 -1.4557 -0.7601
12403SOL    HW240612   5.244   0.503  10.582  0.9021  0.3553 -0.4131
12404SOL     OW40613   2.131   9.075   7.472 -0.1202 -0.2228 -0.2819
12404SOL    HW140614   2.191   9.016   7.426  1.6139  1.5140 -0.3537
12404SOL    HW240615   2.102   9.137   7.405 -0.5617  0.0588  0.1605
12405SOL     OW40616   5.465   5.501   9.361  0.0668 -0.1111  0.0949
12405SOL    HW140617   5.453   5.481   9.268 -1.6657 -0.5377  0.3765
12405SOL    HW240618   5.495   5.419   9.399  1.9421  0.3702 -0.2420
12406SOL     OW40619   0.700   3.366   2.557  0.1025  0.2289 -0.1534
12406SOL    HW140620   0.666   3.381   2.645  1.7063  0.4388  0.4534
12406SOL    HW240621   0.794   3.352   2.569  0.5636  1.4200 -1.9493
12407SOL     OW40622   2.762   5.819   3.685  0.4417 -0.3133 -0.3142
12407SOL    HW140623   2.671   5.832   3.659  0.6650 -0.3147 -1.1394
12407SOL    HW240624   2.774   5.724   3.687  0.7708 -0.3195 -1.5412
12408SOL     OW40625   9.879   6.184   6.848 -0.1468  0.8653 -0.1805
12408SOL    HW140626   9.946   6.126   6.813  0.8226 -0.9764  4.0177
12408SOL    HW240627   9.796   6.145   6.820  0.5194 -0.2915 -0.6167
12409SOL     OW40628   7.923   9.778   7.641 -0.0501  0.3461 -0.0229
12409SOL    HW140629   7.927   9.747   7.551 -1.6383  0.5250 -0.1793
12409SOL    HW240630   7.830   9.772   7.665  0.4164 -0.3827  1.8425
12410SOL     OW40631   0.376   9.179   2.879 -0.0071 -0.1389 -0.2487
12410SOL    HW140632   0.307   9.163   2.815 -0.2800  1.7313 -0.4596
12410SOL    HW240633   0.437   9.239   2.835  0.5977 -0.0269  0.7043
12411SOL     OW40634  10.681   5.229  10.632  0.4847 -0.1625 -0.1364
12411SOL    HW140635  10.634   5.251  10.552  1.7393 -0.8697 -1.1241
12411SOL    HW240636  10.614   5.195  10.691 -0.5225  0.7168 -0.7407
12412SOL     OW40637   0.237   9.323   3.518 -0.4768 -0.2950 -0.5710
12412SOL    HW140638   0.143   9.326   3.502 -0.8748 -3.1684  0.5654
12412SOL    HW240639   0.270   9.260   3.454  1.2856  2.8074 -2.9585
12413SOL     OW40640   3.704   0.333   2.798  0.6240 -0.0570  0.3572
12413SOL    HW140641   3.790   0.292   2.792 -0.0807 -1.8400  1.4645
12413SOL    HW240642   3.644   0.260   2.812 -1.0349  1.1771 -0.0140
12414SOL     OW40643   9.408  10.135   8.172  0.2806  0.0984 -0.2801
12414SOL    HW140644   9.417  10.229   8.158  0.6739  0.0703 -0.2048
12414SOL    HW240645   9.497  10.101   8.166  0.4518  0.0337  1.9461
12415SOL     OW40646   6.480   3.780   2.568 -0.1350 -0.6185  0.3684
12415SOL    HW140647   6.501   3.753   2.478 -1.8593 -5.2018  1.0460
12415SOL    HW240648   6.391   3.814   2.562 -0.3983 -1.2886  0.3328
12416SOL     OW40649   9.440   4.708   8.088 -0.6827 -0.7182 -0.1280
12416SOL    HW140650   9.423   4.791   8.134  0.9735 -1.0042  1.1014
12416SOL    HW240651   9.418   4.640   8.151  1.4451 -1.1235  0.2688
12417SOL     OW40652   7.455   5.865   4.124 -0.3383  0.3378 -0.0885
12417SOL    HW140653   7.540   5.875   4.081 -1.1986  1.6837 -1.6060
12417SOL    HW240654   7.453   5.774   4.152  1.4577  0.1862 -0.3155
12418SOL     OW40655  10.672   1.043   1.882  0.3252 -0.2790 -0.1925
12418SOL    HW140656  10.701   1.033   1.973 -0.3032  0.1048  0.0572
12418SOL    HW240657  10.700   0.962   1.839  2.7346  0.4973 -0.2495
12419SOL     OW40658   7.275   4.737   3.980  0.4631 -0.3277  0.7588
12419SOL    HW140659   7.221   4.740   3.901 -0.6237 -2.4855  1.3391
12419SOL    HW240660   7.299   4.828   3.997  1.0648  0.1627 -2.2482
12420SOL     OW40661   7.556   4.055   2.935  0.6057  0.1698 -0.1307
12420SOL    HW140662   7.648   4.078   2.921  0.2290  1.0053 -1.3576
12420SOL    HW240663   7.511   4.139   2.942  0.0966 -0.2124  1.8774
12421SOL     OW40664   2.110   5.933   2.265 -0.5915 -0.4772  0.3174
12421SOL    HW140665   2.156   5.970   2.340  0.6691 -0.3935 -0.4683
12421SOL    HW240666   2.104   5.839   2.283  1.4383 -0.7721 -0.3158
12422SOL     OW40667   9.605   7.830   7.446 -0.0619 -0.3009  0.0393
12422SOL    HW140668   9.525   7.779   7.435  0.1872 -0.2504 -2.4722
12422SOL    HW240669   9.666   7.769   7.489 -0.6991 -1.1341 -0.2074
12423SOL     OW40670   9.301   0.274   5.967 -0.2369  0.8445  0.1143
12423SOL    HW140671   9.393   0.292   5.949  0.2283 -0.9723  0.4403
12423SOL    HW240672   9.299   0.180   5.988 -2.1448  0.8744  0.2172
12424SOL     OW40673   9.956  10.566  10.494  0.1422  0.2914  0.3772
12424SOL    HW140674   9.896  10.618  10.441 -2.0182 -1.4956  0.9188
12424SOL    HW240675   9.977  10.621  10.569  0.1391  1.3898 -0.4161
12425SOL     OW40676   1.982   4.068   8.641 -0.9222 -0.2344  0.7121
12425SOL    HW140677   1.949   4.126   8.709  0.7449  1.2419  0.3445
12425SOL    HW240678   2.072   4.097   8.627 -1.0058 -0.9240 -1.6494
12426SOL     OW40679   8.989   7.710   4.076  0.0769 -0.1933 -0.2340
12426SOL    HW140680   8.909   7.708   4.022  0.6791  0.4479 -1.1757
12426SOL    HW240681   8.990   7.798   4.114  0.3744 -0.1733 -0.2890
12427SOL     OW40682   1.805   5.551   9.393  0.3503  0.0705  0.9212
12427SOL    HW140683   1.834   5.641   9.405 -1.1882  0.6537  0.5460
12427SOL    HW240684   1.799   5.516   9.482  0.7619  0.4040  1.0826
12428SOL     OW40685   8.122   0.835   3.715  0.2236 -0.3141 -0.0935
12428SOL    HW140686   8.163   0.765   3.664 -0.5910 -0.4759 -0.5392
12428SOL    HW240687   8.030   0.811   3.721  0.4764 -0.9435  2.5562
12429SOL     OW40688   1.414   7.139   6.554 -0.8313 -0.2049 -0.0983
12429SOL    HW140689   1.420   7.070   6.489  0.1518  0.1348 -0.3837
12429SOL    HW240690   1.425   7.094   6.638 -0.6078 -0.4515 -0.2578
12430SOL     OW40691   1.813   4.829  10.378 -0.4009 -0.1418  0.0953
12430SOL    HW140692   1.866   4.908  10.393 -0.9486  0.1359  0.6182
12430SOL    HW240693   1.874   4.757  10.394 -0.3046  0.1728  1.2474
12431SOL     OW40694   1.836   3.418   0.802 -0.1807 -0.0202  0.1793
12431SOL    HW140695   1.769   3.438   0.737  0.4155  1.8236  0.0679
12431SOL    HW240696   1.906   3.376   0.752  0.5397  1.9311 -0.5696
12432SOL     OW40697   0.129   4.269   5.040 -0.3490 -0.8838  0.3543
12432SOL    HW140698   0.175   4.272   4.956  1.2838 -1.9371  1.1452
12432SOL    HW240699   0.168   4.340   5.091  0.2636 -1.6156  0.9408
12433SOL     OW40700   1.441   8.704  10.109 -0.1773 -0.1765 -0.7433
12433SOL    HW140701   1.534   8.717  10.092 -0.0123 -1.2303 -0.6845
12433SOL    HW240702   1.433   8.713  10.204 -0.3191  0.9237 -0.8394
12434SOL     OW40703   0.149   0.712  10.344  0.3415 -0.5545  0.0852
12434SOL    HW140704   0.182   0.624  10.327  1.6835  0.2905 -2.1158
12434SOL    HW240705   0.098   0.734  10.266 -0.6514  0.3645  0.9501
12435SOL     OW40706   4.116   4.662   3.494  0.1042 -0.4361 -0.1432
12435SOL    HW140707   4.022   4.682   3.503  0.3017  0.2233  0.5561
12435SOL    HW240708   4.127   4.578   3.537  0.2147  0.5389  1.8346
12436SOL     OW40709   7.885   8.254   8.335  0.5307 -0.5307  0.3072
12436SOL    HW140710   7.964   8.213   8.371  0.0214 -1.1472  0.7554
12436SOL    HW240711   7.896   8.347   8.353  1.3863 -0.5521 -0.0855
12437SOL     OW40712   1.514   9.512   2.349  0.8787  0.0848  0.1456
12437SOL    HW140713   1.501   9.453   2.274  0.3421 -0.4657  0.6604
12437SOL    HW240714   1.607   9.502   2.369  1.1595  0.6676 -0.7899
12438SOL     OW40715   3.547   2.819   9.765 -0.3071  0.7913  0.2881
12438SOL    HW140716   3.638   2.824   9.792 -0.3660 -0.7441  0.8893
12438SOL    HW240717   3.551   2.800   9.671  0.0961 -1.4759  0.6935
12439SOL     OW40718   7.765   0.915   0.024  0.4005 -0.4946 -0.0832
12439SOL    HW140719   7.800   0.894   0.111 -3.4337 -0.0830  1.7892
12439SOL    HW240720   7.718   0.836  -0.002 -0.9361  0.3747 -0.3705
12440SOL     OW40721   5.642   6.738   0.285  0.1162  0.2489  0.1355
12440SOL    HW140722   5.566   6.682   0.295  0.3384  0.0305  0.6282
12440SOL    HW240723   5.709   6.682   0.245  0.2068  0.2775  0.2464
12441SOL     OW40724   6.012   1.566   8.951  0.0287  0.1128  0.1117
12441SOL    HW140725   6.067   1.603   9.020 -0.2868  2.6587 -0.8855
12441SOL    HW240726   6.033   1.473   8.951  2.1754  0.5124  1.6960
12442SOL     OW40727   4.121   2.820   5.261 -0.0825  0.0949 -0.4102
12442SOL    HW140728   4.089   2.766   5.188 -0.6221 -0.2717  0.0939
12442SOL    HW240729   4.064   2.798   5.334  0.9967 -0.1835  0.3725
12443SOL     OW40730   5.226   6.369   6.931 -0.3234 -0.3660  0.2776
12443SOL    HW140731   5.229   6.345   6.838  0.5148 -1.4242  0.5549
12443SOL    HW240732   5.204   6.462   6.931 -1.7154 -0.6642 -0.9251
12444SOL     OW40733   5.268   4.016   8.161  0.2242  0.2924  0.2441
12444SOL    HW140734   5.299   4.098   8.123  1.5047  0.6985  2.0344
12444SOL    HW240735   5.259   4.034   8.255 -0.0965 -1.4338  0.5963
12445SOL     OW40736   6.869   2.853   9.335  0.1119  0.7202 -0.2457
12445SOL    HW140737   6.912   2.857   9.420 -3.4227  0.6209  1.7643
12445SOL    HW240738   6.778   2.828   9.356 -0.7460 -0.0218 -4.1382
12446SOL     OW40739  10.702   1.959   1.147 -0.4186 -0.7928 -0.5469
12446SOL    HW140740  10.755   1.894   1.193 -1.4470 -1.1202  0.2211
12446SOL    HW240741  10.640   1.906   1.096 -0.7483 -0.4284 -0.5268
12447SOL     OW40742   1.951   0.103   6.715 -0.1930 -0.0814  0.0805
12447SOL    HW140743   2.039   0.089   6.679  0.2381 -1.1755  1.4978
12447SOL    HW240744   1.959   0.082   6.808 -1.5407  1.6131  0.6347
12448SOL     OW40745   2.450   8.355   0.846 -0.3504 -0.3086 -0.6038
12448SOL    HW140746   2.513   8.394   0.787 -0.5452  0.8696 -0.0625
12448SOL    HW240747   2.393   8.302   0.790  0.0222  0.0462 -1.3241
12449SOL     OW40748   5.801   9.405   2.077  0.0269 -0.2152  0.4548
12449SOL    HW140749   5.814   9.456   1.997  0.5440 -0.5070  0.3540
12449SOL    HW240750   5.764   9.468   2.139  0.8748  0.3480  0.3997
12450SOL     OW40751   0.030   6.569   3.194 -0.3087  0.4945  0.4797
12450SOL    HW140752   0.090   6.501   3.223  0.3739  0.3053 -1.2770
12450SOL    HW240753  -0.009   6.603   3.275  0.7686 -0.6472  1.5107
12451SOL     OW40754   3.327   4.595   7.549 -0.2337 -0.0523  0.7551
12451SOL    HW140755   3.396   4.541   7.589 -0.6721  0.3810  2.1224
12451SOL    HW240756   3.282   4.635   7.622  1.2955  3.7963 -0.1968
12452SOL     OW40757   1.714  10.878   3.665 -0.1674  0.6213 -0.1619
12452SOL    HW140758   1.752  10.858   3.751 -0.8482  1.0123  0.2442
12452SOL    HW240759   1.634  10.927   3.686  0.4032  1.9647 -1.0645
12453SOL     OW40760   4.275   8.478   5.455 -0.0512  0.3970 -0.3174
12453SOL    HW140761   4.188   8.439   5.461 -0.2718  0.9395  0.1457
12453SOL    HW240762   4.304   8.484   5.546 -0.7845  2.9641 -0.1637
12454SOL     OW40763   8.137   8.188   9.389  0.9697 -0.4519  0.0772
12454SOL    HW140764   8.192   8.243   9.333  0.9305  1.4129  1.7919
12454SOL    HW240765   8.050   8.194   9.351  1.2665 -0.6044 -0.6407
12455SOL     OW40766   0.282  10.253   8.411 -0.5985 -0.6986  0.5738
12455SOL    HW140767   0.365  10.216   8.381  1.0996  1.6445  2.0488
12455SOL    HW240768   0.268  10.212   8.496 -0.2675 -0.1756  0.8859
12456SOL     OW40769   6.591   0.932   5.036  0.4485 -0.3786  0.0045
12456SOL    HW140770   6.558   1.022   5.034  1.2852 -0.0292  1.2516
12456SOL    HW240771   6.668   0.933   4.979  0.0312 -0.4973 -0.5727
12457SOL     OW40772   4.716   1.951   5.013  0.2534  0.1716 -0.0314
12457SOL    HW140773   4.703   2.007   4.936 -0.6591  0.9307  0.6651
12457SOL    HW240774   4.635   1.959   5.063  0.6557 -0.6858  0.7816
12458SOL     OW40775   6.488  10.229   4.965 -0.1111  0.1695 -0.0692
12458SOL    HW140776   6.514  10.293   4.898 -0.8643  0.5295 -0.0367
12458SOL    HW240777   6.541  10.250   5.041  0.7719 -0.2552 -0.5516
12459SOL     OW40778   5.985   6.188   1.831  0.6747 -0.1601  0.3893
12459SOL    HW140779   6.067   6.147   1.805  2.2039  2.2532  1.0949
12459SOL    HW240780   5.993   6.199   1.926 -1.0562 -1.0171  0.6820
12460SOL     OW40781   6.703   9.538   8.798  0.2130 -0.2794  0.4769
12460SOL    HW140782   6.676   9.613   8.850 -0.1041 -0.7184  0.9544
12460SOL    HW240783   6.755   9.575   8.727  1.0457  0.3042  1.3598
12461SOL     OW40784   4.209   8.934   4.657 -0.0860  0.6361 -0.1512
12461SOL    HW140785   4.169   8.871   4.717  2.7246  0.3387  1.5927
12461SOL    HW240786   4.244   8.881   4.586  0.4759  0.4654  0.2521
12462SOL     OW40787   4.678   7.789   6.474 -0.1550 -0.5808 -0.0361
12462SOL    HW140788   4.750   7.750   6.524 -0.0663  0.0598  0.3501
12462SOL    HW240789   4.706   7.880   6.459 -2.0117  0.5396  2.5044
12463SOL     OW40790   3.689   0.626   0.045  0.6654 -0.2647  0.2774
12463SOL    HW140791   3.627   0.595  -0.021 -1.0663  0.5696  1.4568
12463SOL    HW240792   3.716   0.547   0.091  1.5277 -0.7972 -1.0735
12464SOL     OW40793   1.251   4.071   1.492  0.5880 -0.1165 -0.1692
12464SOL    HW140794   1.244   4.100   1.401  0.1813 -3.9775 -1.5640
12464SOL    HW240795   1.170   4.100   1.533 -0.7838 -1.1265 -2.0398
12465SOL     OW40796   5.673   3.209   4.834 -0.4058  0.1602 -0.3265
12465SOL    HW140797   5.605   3.168   4.887  1.6097 -1.7972  0.9442
12465SOL    HW240798   5.722   3.263   4.896  0.2884  0.0922 -0.8056
12466SOL     OW40799  10.190   7.007   3.387 -0.6874  0.1298  0.7832
12466SOL    HW140800  10.146   7.026   3.470 -1.8435  0.8843  0.0349
12466SOL    HW240801  10.194   6.911   3.384 -5.6092 -0.3119 -0.6207
12467SOL     OW40802   0.666   0.322   0.433 -0.5442  0.5846 -0.1724
12467SOL    HW140803   0.699   0.263   0.366 -0.4406 -0.4585  0.7690
12467SOL    HW240804   0.573   0.332   0.413 -0.3567  0.9234 -0.9189
12468SOL     OW40805   4.247   6.650   9.589  0.8231 -0.2536 -0.1318
12468SOL    HW140806   4.236   6.737   9.551 -1.1430 -1.7587 -3.4654
12468SOL    HW240807   4.167   6.603   9.566  1.6235 -2.8737  1.8780
12469SOL     OW40808   2.103   4.928   2.881  0.3937 -0.7413 -0.2154
12469SOL    HW140809   2.196   4.929   2.904  0.3549 -1.1678 -0.0368
12469SOL    HW240810   2.077   5.020   2.883  0.6615 -0.6746  0.3572
12470SOL     OW40811   6.866   9.310   9.075  0.1531 -0.2943 -0.2383
12470SOL    HW140812   6.927   9.313   9.149 -0.5553 -0.1055  0.3479
12470SOL    HW240813   6.843   9.217   9.067 -3.1168  0.0636  2.6246
12471SOL     OW40814  10.103   9.251   7.692  0.4758  0.5104  0.3581
12471SOL    HW140815  10.180   9.216   7.737 -0.1346 -1.8176 -0.2900
12471SOL    HW240816  10.054   9.174   7.665 -0.9572  1.9020 -1.2229
12472SOL     OW40817  10.822   8.178   7.144 -0.3152  0.2395 -0.6437
12472SOL    HW140818  10.847   8.135   7.226 -0.9143 -0.2077 -0.6885
12472SOL    HW240819  10.752   8.238   7.169  1.0899  1.8651 -0.4330
12473SOL     OW40820   1.132   2.041   5.406 -0.5868 -0.0303 -0.3915
12473SOL    HW140821   1.140   1.995   5.490 -0.8805 -0.6220 -0.6803
12473SOL    HW240822   1.211   2.018   5.358 -0.2424  0.6106 -0.1335
12474SOL     OW40823   2.782   5.549   6.499 -0.6193 -0.3492  0.2324
12474SOL    HW140824   2.798   5.557   6.593  0.2755 -1.5483  0.2043
12474SOL    HW240825   2.741   5.632   6.475  1.1485  0.8940  1.2609
12475SOL     OW40826  10.605   2.656  10.116 -0.0038 -0.4285 -0.1354
12475SOL    HW140827  10.596   2.683  10.208  2.8166 -1.5564  0.5822
12475SOL    HW240828  10.643   2.732  10.072 -2.3064  0.4885 -0.7095
12476SOL     OW40829   5.751   7.932   0.842  0.1611 -0.7195  0.0606
12476SOL    HW140830   5.802   7.859   0.805  0.3155 -1.2646  1.2949
12476SOL    HW240831   5.725   7.901   0.929 -0.9852  0.1565  0.0493
12477SOL     OW40832   3.657   0.645   1.321 -0.4487  0.1759 -0.4559
12477SOL    HW140833   3.633   0.683   1.405  0.4196  0.8784 -0.5135
12477SOL    HW240834   3.591   0.678   1.260 -1.1646 -0.4509 -0.0404
12478SOL     OW40835   4.881   7.898   6.204 -0.0431 -0.6124 -0.3999
12478SOL    HW140836   4.902   7.808   6.230  0.0106 -0.5384 -0.1862
12478SOL    HW240837   4.912   7.905   6.114 -0.8605 -1.0945 -0.7416
12479SOL     OW40838   9.656   6.230   2.409  0.2608  0.5501 -0.0681
12479SOL    HW140839   9.585   6.212   2.471  0.0057  1.4186 -0.1057
12479SOL    HW240840   9.730   6.254   2.465  0.0473  1.2772 -0.0979
12480SOL     OW40841   2.732  10.252   9.574 -0.0718 -0.1870  0.4483
12480SOL    HW140842   2.644  10.213   9.571 -0.7575  1.2697  0.6380
12480SOL    HW240843   2.758  10.244   9.666 -0.3073  0.0099  0.5335
12481SOL     OW40844   1.831   1.873   9.482  0.0256 -0.6511 -0.0217
12481SOL    HW140845   1.742   1.865   9.448  0.1345  2.5580 -1.4676
12481SOL    HW240846   1.819   1.897   9.574 -0.6311 -0.5422 -0.1326
12482SOL     OW40847   3.548   4.065   7.970  0.0199 -0.3654 -0.4038
12482SOL    HW140848   3.496   4.044   7.893 -1.3043 -4.1242  1.2732
12482SOL    HW240849   3.617   3.998   7.972  0.3413 -0.0434  1.3487
12483SOL     OW40850   9.012   5.739   4.708 -0.0781  0.2519  0.3997
12483SOL    HW140851   8.949   5.725   4.779  1.5741 -1.1096  1.6697
12483SOL    HW240852   8.958   5.767   4.634 -1.8353  1.9178  2.2020
12484SOL     OW40853   4.606   8.458   5.914 -0.2541 -0.1862  0.1191
12484SOL    HW140854   4.565   8.514   5.979 -0.1501 -0.6434  0.5865
12484SOL    HW240855   4.556   8.376   5.919 -0.9092  0.1146 -1.1001
12485SOL     OW40856   4.785   8.793   8.614 -0.0985  0.5332 -0.4875
12485SOL    HW140857   4.811   8.837   8.695 -1.0684 -1.4397  0.9979
12485SOL    HW240858   4.734   8.859   8.567 -0.1472  1.5257  0.8742
12486SOL     OW40859   6.977  10.157   0.422  0.4537  0.1542  0.2921
12486SOL    HW140860   6.901  10.215   0.417  0.8788  0.7191  0.2579
12486SOL    HW240861   6.975  10.122   0.511 -1.1352 -1.6365 -0.3902
12487SOL     OW40862   4.779   6.792   1.657 -0.3450 -0.3497 -0.4516
12487SOL    HW140863   4.856   6.794   1.714 -0.8068 -0.0427  0.1748
12487SOL    HW240864   4.798   6.724   1.592  0.7279  0.1804 -0.6980
12488SOL     OW40865   4.451   6.228   7.808  0.1010 -0.1164  0.2335
12488SOL    HW140866   4.529   6.207   7.859 -0.1292  1.1603  1.1676
12488SOL    HW240867   4.484   6.269   7.728  0.4337 -1.4395 -0.3421
12489SOL     OW40868   0.419   3.343   8.003  0.0997  0.7216 -0.1615
12489SOL    HW140869   0.332   3.372   8.028 -1.1306 -0.7601 -2.4134
12489SOL    HW240870   0.417   3.340   7.908  3.0954  1.9320 -0.3790
12490SOL     OW40871  10.036   7.960   5.144 -0.2496  0.0577 -0.4059
12490SOL    HW140872   9.957   7.947   5.091  0.0020 -0.4762 -0.6549
12490SOL    HW240873  10.089   7.882   5.128 -1.1416 -1.2573  2.3940
12491SOL     OW40874   1.646   4.238   5.143  0.5109 -0.2177 -0.1443
12491SOL    HW140875   1.687   4.281   5.068  0.1365 -0.2765 -0.3855
12491SOL    HW240876   1.713   4.178   5.176  0.8048  0.0732 -0.2041
12492SOL     OW40877   3.261   1.495   5.259 -0.4253 -0.2914 -0.7128
12492SOL    HW140878   3.206   1.521   5.185 -0.4661  0.6055 -0.3753
12492SOL    HW240879   3.217   1.531   5.336 -0.2386 -0.9866 -0.2732
12493SOL     OW40880   9.468   1.582  10.393  0.1536  0.2539 -0.5413
12493SOL    HW140881   9.434   1.669  10.377 -0.2775 -0.1735 -2.0691
12493SOL    HW240882   9.480   1.544  10.306  1.0004 -0.9602  0.0722
12494SOL     OW40883  10.727   5.523   8.463 -0.2529  0.0800  0.3306
12494SOL    HW140884  10.741   5.438   8.420 -0.0191  0.4687 -0.3761
12494SOL    HW240885  10.725   5.586   8.391  1.5509  0.9324  0.9722
12495SOL     OW40886   3.562   5.395   3.336 -0.2754  0.2909 -0.8521
12495SOL    HW140887   3.611   5.444   3.270  0.4617  0.5148 -0.1571
12495SOL    HW240888   3.626   5.377   3.405 -0.8341 -0.6333 -0.5607
12496SOL     OW40889   5.583   3.155   7.255  0.3969 -0.2989 -0.0385
12496SOL    HW140890   5.559   3.182   7.343  1.6297 -2.2885  0.9796
12496SOL    HW240891   5.556   3.064   7.250  0.0861 -0.1432 -1.8484
12497SOL     OW40892   9.186   4.531   1.064 -0.2842  0.1078 -0.4162
12497SOL    HW140893   9.262   4.509   1.118 -1.9790 -1.4269  1.5274
12497SOL    HW240894   9.122   4.463   1.085 -2.3045  1.5020 -1.7499
12498SOL     OW40895   7.898   6.971   4.827 -0.2353 -0.1564 -0.2168
12498SOL    HW140896   7.811   6.933   4.812 -0.0034 -0.3532 -1.1262
12498SOL    HW240897   7.944   6.905   4.879 -0.6218 -0.0549  0.2612
12499SOL     OW40898   7.196   4.571   0.445 -0.4014 -0.1032 -0.0343
12499SOL    HW140899   7.115   4.555   0.396 -0.0051 -0.8738 -0.4592
12499SOL    HW240900   7.220   4.485   0.480  0.2107  0.1269  0.1147
12500SOL     OW40901   2.517   0.767   2.108 -0.0122  0.7698  0.5174
12500SOL    HW140902   2.575   0.730   2.174  1.8927  1.8022 -0.4809
12500SOL    HW240903   2.438   0.793   2.156  0.2139 -0.9321  1.8724
12501SOL     OW40904   3.525   0.367   3.821  0.1217  0.7824  0.1759
12501SOL    HW140905   3.575   0.286   3.811  1.2245  1.2373  1.6627
12501SOL    HW240906   3.477   0.356   3.903  1.3893  2.1463  1.1663
12502SOL     OW40907   5.509   1.842   3.785  0.7476  0.9119  0.6788
12502SOL    HW140908   5.437   1.792   3.824  0.6323 -0.4137 -1.1130
12502SOL    HW240909   5.472   1.929   3.768 -1.1655 -0.2772 -1.9772
12503SOL     OW40910   6.017   1.851   5.210 -0.1325  0.6368  0.6984
12503SOL    HW140911   6.084   1.896   5.157 -0.4488 -1.0371 -1.2466
12503SOL    HW240912   5.955   1.817   5.145 -1.3723 -0.2211  2.2883
12504SOL     OW40913   0.828  10.689   7.103 -0.2989  0.7592 -0.3840
12504SOL    HW140914   0.744  10.644   7.109 -0.4896  0.9535 -1.4065
12504SOL    HW240915   0.849  10.713   7.193 -1.6088  1.2042 -0.1765
12505SOL     OW40916   1.203   2.233   9.914 -0.0670  0.3426 -0.3004
12505SOL    HW140917   1.224   2.139   9.914 -0.7791  0.1180  2.1153
12505SOL    HW240918   1.140   2.243   9.985  0.3028  2.7200 -0.2431
12506SOL     OW40919   5.843   3.327   5.634 -0.2789 -0.2107 -0.2169
12506SOL    HW140920   5.756   3.307   5.669 -0.9468 -1.2445 -2.2856
12506SOL    HW240921   5.841   3.421   5.615 -1.1971 -0.3374 -0.8227
12507SOL     OW40922  10.405   1.791   2.040 -0.1892 -0.1421 -0.1472
12507SOL    HW140923  10.447   1.870   2.006  0.2110 -0.1704  0.2680
12507SOL    HW240924  10.312   1.813   2.044  0.0397  0.7211  1.0503
12508SOL     OW40925   8.164   9.505   4.616 -0.1069  0.2456  0.5222
12508SOL    HW140926   8.162   9.461   4.701 -2.2504  0.3482  0.5783
12508SOL    HW240927   8.080   9.483   4.576  0.0776  1.7437 -0.7810
12509SOL     OW40928   1.615   5.861   8.545 -0.4933  0.3649 -0.4637
12509SOL    HW140929   1.612   5.827   8.456 -0.2743 -1.1912  0.1067
12509SOL    HW240930   1.554   5.806   8.594  0.4482  0.2836  0.6531
12510SOL     OW40931  10.082   0.304  10.386 -0.4420 -0.7269  0.1989
12510SOL    HW140932  10.125   0.371  10.440  1.9099 -2.1816  0.2783
12510SOL    HW240933  10.048   0.353  10.310  0.4760  0.6808  0.6415
12511SOL     OW40934   8.731   7.320   1.062  0.1783  0.5106  0.7840
12511SOL    HW140935   8.646   7.354   1.088 -1.0124 -1.2964 -0.4803
12511SOL    HW240936   8.720   7.225   1.060  1.8908  0.2733 -0.4452
12512SOL     OW40937   3.947   3.369   0.744  0.1401  0.0142 -0.1089
12512SOL    HW140938   3.911   3.452   0.776  0.6450 -0.3323  1.4097
12512SOL    HW240939   3.870   3.321   0.712 -0.5469 -0.0522  1.5651
12513SOL     OW40940   5.993   0.183   6.255 -0.2566  0.1079  0.1354
12513SOL    HW140941   6.051   0.172   6.331 -1.4208  0.5590  1.1148
12513SOL    HW240942   6.053   0.201   6.182  0.7846  1.9812  1.3810
12514SOL     OW40943   5.005   2.252   3.148  0.4211  0.2836 -0.1250
12514SOL    HW140944   5.087   2.235   3.102 -0.7966  0.4651 -2.5370
12514SOL    HW240945   4.967   2.327   3.102 -1.4317 -0.2581  0.4283
12515SOL     OW40946   0.095   2.703   2.289  0.0160 -0.1517 -0.4280
12515SOL    HW140947   0.081   2.610   2.274 -0.6853  0.1171 -1.5305
12515SOL    HW240948   0.096   2.742   2.202 -0.8549  1.0301  0.0609
12516SOL     OW40949   4.468   4.162   0.658  0.5064 -0.2798 -0.1815
12516SOL    HW140950   4.490   4.255   0.650 -0.9275  0.0537 -0.4111
12516SOL    HW240951   4.400   4.158   0.725  0.6354 -1.1902 -0.0822
12517SOL     OW40952   6.384   0.771   3.841  0.3306 -0.3371  0.3189
12517SOL    HW140953   6.345   0.857   3.827 -0.0684 -0.2241  1.8566
12517SOL    HW240954   6.468   0.774   3.796 -0.7219 -0.0291 -1.7300
12518SOL     OW40955   6.621   2.369   3.555 -0.0745  0.2015 -0.4780
12518SOL    HW140956   6.574   2.424   3.618  1.0484 -0.2062  0.7655
12518SOL    HW240957   6.563   2.293   3.543 -0.8830  0.8683 -0.9650
12519SOL     OW40958  10.757   2.950   4.268 -0.6254 -0.1508 -0.2603
12519SOL    HW140959  10.668   2.914   4.263 -1.0891  0.7927  0.6439
12519SOL    HW240960  10.744   3.038   4.303  0.7552 -0.3708  0.8743
12520SOL     OW40961   7.990   4.656   7.987 -0.3662  0.5521 -0.4237
12520SOL    HW140962   7.913   4.615   7.947 -1.0036  1.4863 -0.2152
12520SOL    HW240963   8.064   4.622   7.938 -0.7766 -1.4084  0.2260
12521SOL     OW40964   6.872   4.531   4.991  0.5728  0.1410  0.0089
12521SOL    HW140965   6.856   4.540   4.897 -2.2115 -2.3624  0.0833
12521SOL    HW240966   6.927   4.453   4.999  0.0011 -0.2196  0.4843
12522SOL     OW40967   5.632   8.758   1.883 -0.1081 -0.8514 -0.1962
12522SOL    HW140968   5.625   8.663   1.895 -1.0596 -1.1870 -2.7987
12522SOL    HW240969   5.544   8.791   1.904  0.6860 -0.1871  2.5848
12523SOL     OW40970   7.397   5.224   2.603  0.1790 -0.2623  0.3462
12523SOL    HW140971   7.474   5.171   2.620 -0.3930 -0.7428  1.5585
12523SOL    HW240972   7.325   5.161   2.599 -0.6075  0.4242  2.4265
12524SOL     OW40973   0.075   6.830  10.407 -0.5508 -0.1280  0.2341
12524SOL    HW140974   0.061   6.923  10.393  1.8035  0.3476  0.5491
12524SOL    HW240975   0.076   6.792  10.319  1.2968  0.6725 -0.1396
12525SOL     OW40976   8.020   0.403   5.996 -0.4218 -0.0215  0.3133
12525SOL    HW140977   8.022   0.474   6.061 -0.5352  0.5929 -0.3332
12525SOL    HW240978   7.963   0.436   5.927  0.5717 -0.1839 -0.6150
12526SOL     OW40979   2.606   8.062   0.698 -0.1479 -0.2215 -0.2644
12526SOL    HW140980   2.536   8.092   0.640 -0.2473  0.7713  0.3363
12526SOL    HW240981   2.570   7.984   0.740 -0.8624  0.2120 -0.0492
12527SOL     OW40982   0.832  10.067   8.267 -0.0383  0.5160 -0.7503
12527SOL    HW140983   0.765  10.030   8.209  0.8785 -1.9216 -0.3686
12527SOL    HW240984   0.829  10.012   8.345  0.0974  2.5283  0.7666
12528SOL     OW40985   7.581   4.889  10.901 -0.2229 -0.2497 -0.6316
12528SOL    HW140986   7.532   4.845  10.832 -0.4572  0.4188 -0.9028
12528SOL    HW240987   7.554   4.846  10.982 -2.4066  1.0404 -0.5849
12529SOL     OW40988   3.114   8.040  10.439  0.4817  0.6074  0.0435
12529SOL    HW140989   3.051   7.967  10.440  0.3293  0.4545 -4.2618
12529SOL    HW240990   3.062   8.116  10.467  0.0628 -0.4630  2.4103
12530SOL     OW40991   0.126   4.168   4.600  0.4247 -0.2682  0.3237
12530SOL    HW140992   0.217   4.162   4.571  0.1273  1.5651 -1.1834
12530SOL    HW240993   0.085   4.088   4.567  0.9294  0.1062 -1.3103
12531SOL     OW40994   4.554   3.209   6.911  0.0621  0.2819 -0.0019
12531SOL    HW140995   4.476   3.163   6.880  0.7072 -0.1230 -1.0747
12531SOL    HW240996   4.609   3.216   6.834  1.2799  0.1676  0.8367
12532SOL     OW40997   9.151   7.486   7.367  0.3443  0.6683  0.1329
12532SOL    HW140998   9.201   7.410   7.396 -1.6467 -0.6937  0.1874
12532SOL    HW240999   9.123   7.465   7.278 -0.3990  1.2325  0.2177
12533SOL     OW41000   9.350   6.230   7.834  0.0299  0.2917 -0.1294
12533SOL    HW141001   9.385   6.147   7.802 -2.1216 -0.8203  0.2343
12533SOL    HW241002   9.284   6.255   7.769  0.3346  1.5194 -0.0060
12534SOL     OW41003   9.489   3.140   8.587 -0.8864 -0.0716 -0.1997
12534SOL    HW141004   9.527   3.107   8.506  0.5443  1.3016 -0.1413
12534SOL    HW241005   9.461   3.062   8.634 -0.5688 -0.9667 -1.4645
12535SOL     OW41006   2.015   2.668   9.320 -0.3335 -0.5605  0.4580
12535SOL    HW141007   1.993   2.686   9.229  0.1265  0.8476  0.5923
12535SOL    HW241008   1.971   2.586   9.340 -0.5870 -0.7968 -0.9759
12536SOL     OW41009   7.874   2.017   1.905 -0.4462  0.7877 -0.1857
12536SOL    HW141010   7.899   1.924   1.907 -0.9084  0.6666  0.3090
12536SOL    HW241011   7.928   2.055   1.836 -0.7159  0.0094 -0.8504
12537SOL     OW41012   8.427  10.574   4.442 -0.2517  0.8527 -0.2400
12537SOL    HW141013   8.465  10.628   4.512 -0.4684 -0.8636  1.2803
12537SOL    HW241014   8.333  10.591   4.448 -0.4125 -0.2173  0.7878
12538SOL     OW41015   3.423   9.054   6.595 -0.5948 -0.5506  0.2245
12538SOL    HW141016   3.464   9.038   6.681 -2.9131  0.3206  1.5869
12538SOL    HW241017   3.483   9.115   6.552  1.1628 -1.8325  0.7504
12539SOL     OW41018   7.470   6.736   8.618 -0.0463 -0.2595  0.0973
12539SOL    HW141019   7.505   6.681   8.548  0.4306 -2.1882  1.7442
12539SOL    HW241020   7.534   6.729   8.689 -0.5948  1.4783  0.8303
12540SOL     OW41021  10.413   1.752   9.918 -0.7236 -0.1215  0.3167
12540SOL    HW141022  10.472   1.807   9.867  0.3288 -0.3242  1.2806
12540SOL    HW241023  10.397   1.676   9.861 -1.0945  0.5189 -0.4613
12541SOL     OW41024   5.505   8.344   9.244  0.2070  0.6349 -0.0521
12541SOL    HW141025   5.504   8.394   9.325  1.9638  1.0022 -0.2100
12541SOL    HW241026   5.417   8.307   9.237 -0.6995  2.5346  0.7767
12542SOL     OW41027   6.946   3.306   6.413 -0.1467  0.1664 -0.1834
12542SOL    HW141028   6.854   3.315   6.386  0.1613 -0.5510 -1.5269
12542SOL    HW241029   6.946   3.231   6.472 -0.5232  0.6079  0.3965
12543SOL     OW41030   4.048   1.262   9.968 -0.4034 -0.4173 -0.5797
12543SOL    HW141031   4.074   1.352   9.946 -0.2367 -0.6732 -1.4642
12543SOL    HW241032   3.960   1.253   9.933 -0.8264 -0.2806  0.4164
12544SOL     OW41033   7.891   7.469   2.979  0.0987 -0.3093 -0.0936
12544SOL    HW141034   7.860   7.531   3.045 -0.0611  0.2123 -0.6479
12544SOL    HW241035   7.830   7.396   2.984  0.3290 -0.4558  0.6147
12545SOL     OW41036   1.110   3.426   7.433 -0.2256 -0.2076  0.3300
12545SOL    HW141037   1.074   3.396   7.516  0.5408  0.7465  1.0293
12545SOL    HW241038   1.092   3.520   7.431  1.5331  0.1707  0.3790
12546SOL     OW41039   8.664   7.161   4.409 -0.3040 -0.2020  0.2917
12546SOL    HW141040   8.633   7.241   4.451  0.0320 -0.1868  0.5133
12546SOL    HW241041   8.707   7.112   4.479 -1.9757 -1.3704  0.5674
12547SOL     OW41042   5.261   3.452  10.493 -0.3851  0.3027 -0.4482
12547SOL    HW141043   5.189   3.402  10.456 -0.2330  0.3846 -0.8646
12547SOL    HW241044   5.340   3.409  10.460 -0.2208 -0.2576  0.6266
12548SOL     OW41045   3.901   1.776   7.649 -0.8871 -0.1369 -0.0462
12548SOL    HW141046   3.831   1.787   7.714 -1.8515 -0.4494 -1.0062
12548SOL    HW241047   3.857   1.741   7.572 -0.4028  3.0778 -1.9881
12549SOL     OW41048   3.212   4.488   4.854 -0.1536  0.1188 -0.1055
12549SOL    HW141049   3.255   4.431   4.919 -0.9597  0.3212  0.6217
12549SOL    HW241050   3.124   4.502   4.889 -0.7515 -0.1236 -1.4817
12550SOL     OW41051   7.797   2.976   9.752 -0.4080 -0.5777  0.4379
12550SOL    HW141052   7.701   2.969   9.759 -0.2615 -1.6094  2.0704
12550SOL    HW241053   7.811   3.053   9.697 -2.1726 -1.0891 -0.8566
12551SOL     OW41054   6.981   9.551   2.534 -0.7755 -0.1746 -0.4350
12551SOL    HW141055   6.898   9.515   2.563 -0.2236 -0.3911  0.9582
12551SOL    HW241056   6.995   9.627   2.591  1.1651 -1.6131  1.1482
12552SOL     OW41057   1.989   1.707   4.501 -0.5414  0.0225  0.3299
12552SOL    HW141058   1.965   1.659   4.421 -0.0377  0.5754 -0.1556
12552SOL    HW241059   1.954   1.795   4.488  1.7217  0.8644 -0.4081
12553SOL     OW41060   8.547   7.546   1.391  0.4872  0.0841  0.1916
12553SOL    HW141061   8.545   7.585   1.303 -0.4141 -1.1231 -0.3447
12553SOL    HW241062   8.472   7.586   1.436  0.8037  0.5174  0.3478
12554SOL     OW41063   0.734  10.246   6.925 -0.7565 -0.1257 -0.3196
12554SOL    HW141064   0.676  10.199   6.867 -0.0945 -0.7613 -0.4828
12554SOL    HW241065   0.681  10.265   7.002 -0.9672 -1.3676 -0.1382
12555SOL     OW41066   5.863   6.386   0.413 -0.7022 -0.1976 -0.9866
12555SOL    HW141067   5.787   6.339   0.377 -0.5608  0.5865 -2.3773
12555SOL    HW241068   5.825   6.459   0.462 -0.8717  0.2835 -1.8087
12556SOL     OW41069   5.079  10.728   0.392 -0.3895 -0.1814 -1.2012
12556SOL    HW141070   5.031  10.796   0.344  2.4679  4.1779  1.3367
12556SOL    HW241071   5.159  10.715   0.342  0.2864  0.4638 -0.3205
12557SOL     OW41072   4.350   0.517   5.335  0.2548 -0.4886  0.0188
12557SOL    HW141073   4.319   0.457   5.403  1.1844 -0.1460  0.7583
12557SOL    HW241074   4.280   0.517   5.270  0.1907 -2.3257  0.0235
12558SOL     OW41075   3.699   8.241   0.027  0.5043 -0.8505 -0.0161
12558SOL    HW141076   3.677   8.237  -0.066 -0.1943 -1.0005  0.1516
12558SOL    HW241077   3.786   8.202   0.032  1.4365  0.9479 -0.8730
12559SOL     OW41078   5.075   3.564   8.790  0.4960  0.7181 -0.3504
12559SOL    HW141079   5.088   3.535   8.700  0.3222 -0.0431 -0.1408
12559SOL    HW241080   5.085   3.484   8.843  0.5424  1.1418  0.2991
12560SOL     OW41081   5.113   0.666   0.835 -0.1078 -0.0350 -0.4998
12560SOL    HW141082   5.018   0.675   0.836 -0.3488 -1.8610  2.1795
12560SOL    HW241083   5.132   0.593   0.894  2.9151 -0.5757 -1.9143
12561SOL     OW41084   7.701   7.056   0.422  0.5574  0.1887 -0.2275
12561SOL    HW141085   7.629   7.114   0.446  0.1720 -0.1614 -0.5193
12561SOL    HW241086   7.742   7.032   0.505 -0.5820 -0.7924  0.0852
12562SOL     OW41087   5.774   0.909   1.495 -0.6385  0.2777  0.1661
12562SOL    HW141088   5.749   0.985   1.443  0.5942 -0.6224 -1.8666
12562SOL    HW241089   5.690   0.869   1.520 -1.2829  1.7561  0.5204
12563SOL     OW41090   9.993   9.271   9.136 -0.3129  0.1304  0.1263
12563SOL    HW141091   9.903   9.238   9.141  0.2192 -1.2134  1.4285
12563SOL    HW241092  10.046   9.193   9.120  0.5783  1.0172 -1.5503
12564SOL     OW41093   5.667   7.696   5.986 -0.8813  0.0205  0.0367
12564SOL    HW141094   5.724   7.672   5.912 -0.3854 -0.0910  0.4452
12564SOL    HW241095   5.673   7.791   5.991 -1.5735  0.1033 -0.5797
12565SOL     OW41096   3.626   1.561   6.736 -0.0745  0.0722  0.1923
12565SOL    HW141097   3.536   1.546   6.766 -0.5792  0.1601 -1.2354
12565SOL    HW241098   3.634   1.656   6.728  0.1750  0.0685  0.3639
12566SOL     OW41099   3.329   0.190   4.793 -0.0150  0.2589 -0.6556
12566SOL    HW141100   3.282   0.228   4.719 -1.0643  0.6074  0.1675
12566SOL    HW241101   3.420   0.189   4.765 -0.7013 -3.0168 -3.4279
12567SOL     OW41102   7.463   2.786   0.405 -0.2103 -0.1124 -0.1362
12567SOL    HW141103   7.506   2.853   0.459 -2.6380  0.0347  1.8250
12567SOL    HW241104   7.513   2.784   0.324  1.3522  2.4172  0.6573
12568SOL     OW41105   8.757   8.319   3.066  0.0580  0.4288 -0.1905
12568SOL    HW141106   8.719   8.352   3.148 -0.5755  0.2317 -0.3983
12568SOL    HW241107   8.711   8.368   2.997  0.1741  0.1800 -0.4457
12569SOL     OW41108   7.668   9.210   5.315  0.3577 -0.1724  0.0681
12569SOL    HW141109   7.613   9.206   5.237 -0.9493 -1.0178  0.9986
12569SOL    HW241110   7.660   9.124   5.355  3.1833 -0.6842 -0.2603
12570SOL     OW41111   8.724   0.821   1.358 -0.3709  0.1711 -0.2670
12570SOL    HW141112   8.767   0.844   1.440  0.8105  1.1630 -1.1285
12570SOL    HW241113   8.668   0.896   1.338 -1.7373 -0.6516  0.2946
12571SOL     OW41114   5.092   8.765   8.914 -0.5591  0.4813  0.2036
12571SOL    HW141115   5.025   8.827   8.885  0.4185  1.0882 -0.8259
12571SOL    HW241116   5.100   8.702   8.842  0.4238  0.7989  0.0142
12572SOL     OW41117   4.284  10.544   8.192  0.0439  0.3057 -0.0290
12572SOL    HW141118   4.226  10.473   8.220  0.5202  0.0557  0.3324
12572SOL    HW241119   4.372  10.510   8.206  0.2928  1.2735  0.9484
12573SOL     OW41120   0.853   1.607   3.079  0.3524 -0.2401 -0.6700
12573SOL    HW141121   0.768   1.570   3.053  1.6972 -2.3835 -2.4037
12573SOL    HW241122   0.838   1.640   3.168 -1.9565 -1.7444 -0.3995
12574SOL     OW41123   1.231   6.026   0.480 -0.7071 -0.3641  0.4669
12574SOL    HW141124   1.299   5.976   0.524 -0.1345  0.3276  0.3849
12574SOL    HW241125   1.249   6.014   0.386 -1.1235 -0.7495  0.4322
12575SOL     OW41126   8.161   9.151  10.618 -0.0192 -0.6967 -0.6360
12575SOL    HW141127   8.199   9.091  10.682 -0.8613 -0.2085  0.3506
12575SOL    HW241128   8.182   9.238  10.651 -1.6751 -0.4158 -0.2151
12576SOL     OW41129   9.088   3.043   8.026 -0.2283  0.4813 -0.1013
12576SOL    HW141130   9.003   3.086   8.031  0.1030  1.1924 -0.4203
12576SOL    HW241131   9.079   2.980   7.955 -0.4175  0.7364 -0.3084
12577SOL     OW41132   6.101   8.509  10.121 -0.2454 -0.5718 -0.8186
12577SOL    HW141133   6.086   8.566  10.196 -1.3822 -0.9281 -0.7597
12577SOL    HW241134   6.163   8.558  10.066  1.1717 -0.6215  0.6620
12578SOL     OW41135   7.797   4.391   1.953  0.2589  0.1712 -0.1650
12578SOL    HW141136   7.751   4.440   2.021  0.1935  1.7102 -1.2674
12578SOL    HW241137   7.821   4.309   1.995  0.6950  1.2808  1.9029
12579SOL     OW41138   7.741   8.326   0.749 -0.1160 -0.1362 -0.0711
12579SOL    HW141139   7.751   8.368   0.835  1.0447 -0.6373  0.0648
12579SOL    HW241140   7.652   8.291   0.749 -0.2926  0.2807  0.7396
12580SOL     OW41141   2.778   5.088   8.703 -0.0191 -0.4811 -0.4489
12580SOL    HW141142   2.821   5.167   8.670 -0.6062 -0.9301 -2.3763
12580SOL    HW241143   2.782   5.026   8.630 -0.2616 -1.9810  0.7567
12581SOL     OW41144  10.048   0.320   8.716  0.3315  0.1343  0.1274
12581SOL    HW141145   9.985   0.348   8.650  0.8319  2.0448  0.4022
12581SOL    HW241146  10.133   0.345   8.680  0.6270  1.0770  1.4036
12582SOL     OW41147   8.511   3.920   3.374  0.0197  0.6010  0.0848
12582SOL    HW141148   8.427   3.878   3.353  0.2151 -0.6041  1.5628
12582SOL    HW241149   8.544   3.949   3.290 -0.0350 -2.4490 -1.1298
12583SOL     OW41150  10.169   6.959   2.341 -0.4022 -0.2804  0.0250
12583SOL    HW141151  10.232   7.029   2.359 -0.8816  0.4304 -0.9440
12583SOL    HW241152  10.083   7.001   2.352 -0.7080 -1.0032  0.4598
12584SOL     OW41153   7.329   1.490   4.004 -0.4264 -0.2734 -0.0876
12584SOL    HW141154   7.286   1.515   4.086 -1.4054 -0.2354 -0.6019
12584SOL    HW241155   7.422   1.507   4.020 -0.7059  0.5844  0.7020
12585SOL     OW41156   1.557   6.791   0.250 -0.7044 -0.1702 -0.0613
12585SOL    HW141157   1.652   6.802   0.255 -0.5781 -1.2942  0.1127
12585SOL    HW241158   1.538   6.717   0.308 -1.6699 -0.0414 -0.2035
12586SOL     OW41159   1.680  10.538   0.749 -0.0231  0.0594  0.1659
12586SOL    HW141160   1.610  10.561   0.688  0.8040 -0.6298 -1.0853
12586SOL    HW241161   1.760  10.552   0.699  0.6249 -2.4804  0.3531
12587SOL     OW41162   2.012   1.741   5.544  0.0584  0.2506  0.0053
12587SOL    HW141163   1.930   1.746   5.593  0.2335  0.0665  0.3201
12587SOL    HW241164   2.002   1.664   5.488  1.3844 -1.9600  2.5984
12588SOL     OW41165   9.987   4.733   1.710  0.3863 -0.3387  0.1101
12588SOL    HW141166   9.957   4.820   1.734  0.9113 -0.2952  0.6396
12588SOL    HW241167   9.941   4.674   1.770 -1.9358 -0.7107 -1.8713
12589SOL     OW41168   1.509   7.343   7.400  0.4162 -0.2365 -0.0662
12589SOL    HW141169   1.535   7.422   7.448 -1.5300  0.4448 -0.0609
12589SOL    HW241170   1.474   7.285   7.468 -0.1574 -0.2163 -0.3372
12590SOL     OW41171   6.485   7.523   5.067 -0.6097 -0.1637  0.2977
12590SOL    HW141172   6.500   7.550   4.976 -0.1537  0.8913  0.6613
12590SOL    HW241173   6.545   7.578   5.118 -0.5237 -1.0742  1.1981
12591SOL     OW41174   5.549   9.049   9.026 -0.0254 -0.6071 -0.0283
12591SOL    HW141175   5.519   8.993   9.098  1.1940 -0.1701  0.8667
12591SOL    HW241176   5.497   9.022   8.951 -0.6935 -1.7199  0.8024
12592SOL     OW41177   1.686   0.295   1.738  0.0482  0.2648  0.7795
12592SOL    HW141178   1.644   0.309   1.823  0.5184 -1.1687  1.2754
12592SOL    HW241179   1.775   0.327   1.749  0.0549  0.2558  0.7519
12593SOL     OW41180   5.728   4.154   4.897 -0.0904  0.2899  0.5023
12593SOL    HW141181   5.725   4.082   4.960  0.9684  0.0711  0.3170
12593SOL    HW241182   5.637   4.184   4.891 -0.4109 -0.4999  1.1872
12594SOL     OW41183   3.123   5.488   2.152 -1.2480  0.0567 -0.0734
12594SOL    HW141184   3.137   5.560   2.091 -0.3876 -0.6935 -0.7895
12594SOL    HW241185   3.081   5.420   2.099 -2.5427  0.2011  0.7188
12595SOL     OW41186   1.265   4.705   5.636  0.1519  0.3168 -0.1691
12595SOL    HW141187   1.335   4.729   5.575 -0.9495  1.7696 -0.9266
12595SOL    HW241188   1.209   4.645   5.588  0.2415  0.0688  0.0332
12596SOL     OW41189   8.566   8.920   1.165  0.1807 -0.2909  0.4711
12596SOL    HW141190   8.640   8.860   1.166  0.2481 -0.2077  0.3988
12596SOL    HW241191   8.492   8.867   1.197  0.3817 -0.2314  1.0567
12597SOL     OW41192   7.336   8.493   4.248  0.8046  0.0983 -0.5635
12597SOL    HW141193   7.295   8.480   4.163  0.1130  1.0853 -0.4039
12597SOL    HW241194   7.263   8.506   4.308  1.2997 -0.0615  0.0900
12598SOL     OW41195   7.241   9.654   0.177 -0.5751 -0.4120 -0.1113
12598SOL    HW141196   7.272   9.580   0.125  0.6884 -0.5594  0.7908
12598SOL    HW241197   7.163   9.684   0.132  0.3995 -0.6048 -2.0361
12599SOL     OW41198   3.184   6.062   1.587  0.9243 -0.3742  0.3230
12599SOL    HW141199   3.101   6.077   1.542  0.8135 -0.3189  0.5467
12599SOL    HW241200   3.226   5.991   1.537  0.5373 -0.7166  0.4845
12600SOL     OW41201   7.794   6.843   8.243  0.4550  0.6877  0.0462
12600SOL    HW141202   7.715   6.891   8.216  0.4835  0.2247 -0.8872
12600SOL    HW241203   7.839   6.904   8.302 -0.0099  1.4189 -0.3290
12601SOL     OW41204   8.488   8.763   9.026  0.3799  0.1155  0.1132
12601SOL    HW141205   8.462   8.809   8.946  2.5031  0.8367 -0.2175
12601SOL    HW241206   8.488   8.831   9.093 -2.8942 -0.7582  1.1993
12602SOL     OW41207   3.228   7.228   7.355  0.2229 -0.6556  0.5670
12602SOL    HW141208   3.152   7.275   7.390 -0.2960 -0.0472 -1.2311
12602SOL    HW241209   3.298   7.245   7.417 -0.4559  0.9313  0.9550
12603SOL     OW41210   9.161   9.336   9.438  0.2012 -0.4760 -0.1540
12603SOL    HW141211   9.128   9.419   9.403 -2.8464 -1.9653 -1.1292
12603SOL    HW241212   9.129   9.335   9.529  0.6203 -0.4343 -0.0011
12604SOL     OW41213  10.662   2.500   9.391  0.1872  0.2346 -0.2871
12604SOL    HW141214  10.608   2.561   9.342  1.4874 -0.1977 -2.3687
12604SOL    HW241215  10.654   2.417   9.344  0.5340 -0.5210  0.9417
12605SOL     OW41216   2.624  10.337   5.742 -0.1556 -0.2430  0.2776
12605SOL    HW141217   2.668  10.296   5.668  0.5365  0.3998  0.3263
12605SOL    HW241218   2.612  10.265   5.805 -2.0674 -1.1212 -1.0187
12606SOL     OW41219   9.905  10.216   9.652 -0.3836  0.1774  0.3787
12606SOL    HW141220   9.897  10.131   9.608 -1.0661  0.5714 -0.2647
12606SOL    HW241221   9.997  10.221   9.677 -0.0686 -0.2167 -0.6672
12607SOL     OW41222   2.212   8.588   4.127 -0.3593 -0.1943 -0.3239
12607SOL    HW141223   2.274   8.527   4.088 -1.6486 -2.8343  1.4056
12607SOL    HW241224   2.126   8.561   4.093 -1.1525 -0.5751  1.7950
12608SOL     OW41225   7.375   4.857  10.298 -0.0464 -0.3149  0.2258
12608SOL    HW141226   7.470   4.870  10.300  0.0172 -0.5518 -0.7430
12608SOL    HW241227   7.338   4.945  10.301  0.2697 -0.0761 -1.6319
12609SOL     OW41228   8.114  10.743   8.201  0.5413  0.0777  0.0895
12609SOL    HW141229   8.188  10.804   8.207  0.6706 -0.0370 -0.3657
12609SOL    HW241230   8.066  10.771   8.124  1.2453 -1.1127 -0.8053
12610SOL     OW41231  10.874   6.437   2.961 -0.6533 -0.7917 -0.2232
12610SOL    HW141232  10.906   6.487   3.036  0.1178 -0.8017 -0.5390
12610SOL    HW241233  10.925   6.470   2.886 -0.0319 -2.1271 -0.4154
12611SOL     OW41234   7.380   8.658  10.455 -0.0330  0.3067  0.0961
12611SOL    HW141235   7.459   8.644  10.506 -0.8693 -2.8068  0.6974
12611SOL    HW241236   7.367   8.577  10.406 -1.9030  1.3871 -1.3616
12612SOL     OW41237   4.751   7.804   2.804 -0.2760 -0.7134 -0.0332
12612SOL    HW141238   4.666   7.848   2.797 -0.9271 -1.9665 -0.2371
12612SOL    HW241239   4.747   7.733   2.740  0.9468 -0.7749 -0.0664
12613SOL     OW41240   9.003  10.361  10.575  0.4470  0.0394  0.1644
12613SOL    HW141241   8.968  10.363  10.664 -1.0140 -0.5626 -0.3751
12613SOL    HW241242   8.927  10.349  10.519  1.4610 -0.7499 -1.1013
12614SOL     OW41243   5.941   6.643   3.615 -0.0155 -0.3920 -0.3066
12614SOL    HW141244   5.909   6.676   3.699 -1.1489  1.3244 -1.3470
12614SOL    HW241245   5.862   6.636   3.561  0.5545 -2.3613 -0.9855
12615SOL     OW41246   2.853   3.791   8.834  0.1542 -0.7634  0.1655
12615SOL    HW141247   2.896   3.732   8.896  2.4372 -0.9596 -1.4538
12615SOL    HW241248   2.830   3.735   8.760 -2.7724 -0.5851  0.8407
12616SOL     OW41249  10.123   0.625   2.069  0.4886 -0.0069 -0.6197
12616SOL    HW141250  10.084   0.630   2.156  1.5372 -2.2738  0.0626
12616SOL    HW241251  10.145   0.716   2.047  0.4969  0.5917  1.6284
12617SOL     OW41252   7.290   0.005   6.445  0.0202 -0.4311 -0.4218
12617SOL    HW141253   7.349   0.030   6.516  0.4589  0.4515 -1.0696
12617SOL    HW241254   7.254  -0.080   6.472  2.6750 -1.7439 -0.6311
12618SOL     OW41255   7.638   4.592   3.690  0.0220  0.1860  0.0348
12618SOL    HW141256   7.647   4.620   3.781  0.2696  0.3894 -0.0509
12618SOL    HW241257   7.640   4.673   3.640  1.0320  0.0064 -0.2349
12619SOL     OW41258   0.464  10.376   2.027 -0.1000  0.3501  0.8889
12619SOL    HW141259   0.441  10.456   1.979  2.0785  0.7676  0.4045
12619SOL    HW241260   0.437  10.393   2.117 -0.1251  1.4476  0.6867
12620SOL     OW41261   5.575   3.393   1.577  0.3072  0.2945 -0.2613
12620SOL    HW141262   5.630   3.324   1.616  0.9761  1.2417  0.5429
12620SOL    HW241263   5.493   3.349   1.556  1.0958 -1.0012 -0.8097
12621SOL     OW41264   8.763   2.987   8.030 -0.0292  0.4092  0.2965
12621SOL    HW141265   8.721   2.912   8.072 -1.8855  1.7847  1.0645
12621SOL    HW241266   8.696   3.056   8.032  0.8132  1.4329 -2.3968
12622SOL     OW41267   5.906   8.498   2.064 -0.3143  0.2529 -0.3220
12622SOL    HW141268   5.811   8.504   2.075 -0.0833  1.0456  1.5453
12622SOL    HW241269   5.925   8.553   1.988 -1.2585  0.7378 -0.2176
12623SOL     OW41270   5.506   7.981  10.545 -0.3686  0.0736  0.2740
12623SOL    HW141271   5.576   7.974  10.481 -1.4274 -0.4970 -0.8554
12623SOL    HW241272   5.515   8.069  10.582  1.5709 -0.3542  0.9388
12624SOL     OW41273   2.465   1.341   9.584 -0.3282  0.2026  0.1746
12624SOL    HW141274   2.513   1.421   9.563  1.4678 -0.6014  0.9910
12624SOL    HW241275   2.504   1.274   9.528 -0.5392 -0.4553  0.7964
12625SOL     OW41276   1.813   5.374  10.569  0.3434 -0.3409 -0.3416
12625SOL    HW141277   1.745   5.426  10.525  0.2139  0.4747  0.7853
12625SOL    HW241278   1.783   5.284  10.559 -0.5934 -0.0382 -0.3896
12626SOL     OW41279   1.469  10.488   3.815  0.0518  0.2841 -0.1416
12626SOL    HW141280   1.434  10.577   3.818  1.6352  1.0681 -2.2221
12626SOL    HW241281   1.477  10.461   3.907 -0.4346  2.2879  0.5223
12627SOL     OW41282   1.023   8.402  10.068  0.6921 -0.2709  0.0505
12627SOL    HW141283   1.054   8.437  10.151  0.3239  2.7621 -0.9734
12627SOL    HW241284   1.103   8.378  10.021  0.9478 -1.1284  0.9020
12628SOL     OW41285   2.657   1.486   7.656 -0.4676 -0.0717  0.1191
12628SOL    HW141286   2.708   1.526   7.726 -1.5976  0.4406  0.6811
12628SOL    HW241287   2.722   1.451   7.596  0.5664  1.8501  0.0360
12629SOL     OW41288   4.683   2.003   7.501  0.3808 -0.4046  0.1979
12629SOL    HW141289   4.751   1.950   7.542  1.4499 -0.8691 -2.0719
12629SOL    HW241290   4.676   2.080   7.558  0.8828 -1.5552  1.9123
12630SOL     OW41291  10.065  10.398   7.902  0.6373  0.3638  0.0097
12630SOL    HW141292  10.020  10.316   7.881 -0.8761  0.4976  2.4028
12630SOL    HW241293  10.113  10.420   7.822  1.0462 -2.7953 -0.7429
12631SOL     OW41294   8.116   6.850   9.317  0.4537 -0.0467  0.7271
12631SOL    HW141295   8.158   6.897   9.389  0.7191  1.1929 -0.2043
12631SOL    HW241296   8.189   6.816   9.264  0.2620 -0.8976  0.9812
12632SOL     OW41297   0.908   6.848   2.306  0.6218 -0.0883 -0.1782
12632SOL    HW141298   0.964   6.789   2.356  0.1577  0.6851  1.3357
12632SOL    HW241299   0.853   6.890   2.373 -0.3449  0.6582 -1.4065
12633SOL     OW41300   9.484  10.826   8.652  0.0185  0.5083 -0.5819
12633SOL    HW141301   9.565  10.866   8.683  0.2848 -0.7506  0.4645
12633SOL    HW241302   9.512  10.767   8.582 -0.0064  0.2839 -0.4074
12634SOL     OW41303   2.572   6.292   3.977 -0.6134  0.4797 -0.3646
12634SOL    HW141304   2.626   6.234   3.923 -0.5162  0.6183 -0.4158
12634SOL    HW241305   2.542   6.360   3.916 -2.9887 -0.9985 -0.9820
12635SOL     OW41306   5.570   0.767   8.821 -0.0648 -0.4842 -0.2305
12635SOL    HW141307   5.544   0.859   8.815 -1.5640 -0.8706 -0.0139
12635SOL    HW241308   5.627   0.764   8.898  0.2988  0.3221 -0.4510
12636SOL     OW41309   8.456   0.886   0.628 -0.1556  0.1416  0.1692
12636SOL    HW141310   8.453   0.810   0.570 -1.7693  0.4172 -0.1497
12636SOL    HW241311   8.426   0.853   0.712  1.8674 -0.1814  0.8190
12637SOL     OW41312   5.447   8.879   0.198  0.2700  0.1773 -0.0408
12637SOL    HW141313   5.514   8.902   0.263 -0.6231  0.6195  0.7415
12637SOL    HW241314   5.431   8.959   0.149 -0.8474  0.5315  0.8596
12638SOL     OW41315   1.970   0.530   7.295  0.2086  0.8432  0.0489
12638SOL    HW141316   1.983   0.448   7.247  0.4671 -0.0669  1.5840
12638SOL    HW241317   1.875   0.539   7.302  0.1619  1.1739 -0.9203
12639SOL     OW41318   8.747   8.632   3.590  0.1839 -0.1794 -0.2674
12639SOL    HW141319   8.688   8.676   3.529  1.6294  1.2640 -0.7154
12639SOL    HW241320   8.689   8.589   3.653 -1.3313  0.3575 -1.2398
12640SOL     OW41321   1.895   8.795   3.836  0.3639 -0.2474 -0.3133
12640SOL    HW141322   1.819   8.740   3.819  1.0166 -1.1740 -0.3111
12640SOL    HW241323   1.969   8.734   3.836  1.3383  0.8678 -2.1223
12641SOL     OW41324   2.397   6.121   3.209 -0.5885 -0.2905  0.3721
12641SOL    HW141325   2.351   6.053   3.159 -2.5863  0.7927  0.6223
12641SOL    HW241326   2.350   6.202   3.187 -0.2399  0.5226  2.4383
12642SOL     OW41327   5.798   5.021   9.359 -0.5701 -0.0999 -0.2698
12642SOL    HW141328   5.822   4.937   9.398 -1.3656 -0.7206 -1.0923
12642SOL    HW241329   5.873   5.045   9.305 -0.8489 -0.9124 -1.0362
12643SOL     OW41330   4.059   4.773   8.301  0.3806  0.0085 -0.3304
12643SOL    HW141331   4.076   4.865   8.320  0.1092 -0.1526  0.7639
12643SOL    HW241332   4.101   4.758   8.217  1.5251  0.8210  0.0623
12644SOL     OW41333   0.950   8.310   4.179  0.4620  0.0768  0.2619
12644SOL    HW141334   1.002   8.318   4.099  0.2271 -0.2444  0.0716
12644SOL    HW241335   0.862   8.286   4.148  0.1241  0.8978  0.5626
12645SOL     OW41336   6.550   0.223   0.756 -0.2368 -0.4550 -0.7041
12645SOL    HW141337   6.475   0.177   0.717 -1.2014  0.0432  0.5403
12645SOL    HW241338   6.622   0.206   0.694 -1.2445 -1.3163 -1.6892
12646SOL     OW41339   3.874   6.798   6.784 -0.0618 -0.0905 -1.0874
12646SOL    HW141340   3.806   6.806   6.717 -1.0574 -0.6742 -0.1832
12646SOL    HW241341   3.840   6.848   6.858  0.4179 -0.5278 -0.5666
12647SOL     OW41342   0.038   8.223   8.432  0.1451  0.3868 -0.2844
12647SOL    HW141343   0.086   8.280   8.372 -0.7124  0.0992 -1.2800
12647SOL    HW241344   0.050   8.135   8.396 -1.7434  0.3914 -1.0088
12648SOL     OW41345   4.894   6.324   9.975  0.2158  0.0770  0.0191
12648SOL    HW141346   4.837   6.379   9.921  0.7659  0.2258 -0.4191
12648SOL    HW241347   4.837   6.292  10.045 -0.8645 -1.2222 -1.3918
12649SOL     OW41348   4.514   3.045   7.870  0.0536 -0.6985 -0.8125
12649SOL    HW141349   4.432   3.062   7.823 -0.2567 -1.4640 -0.5618
12649SOL    HW241350   4.487   3.032   7.961  0.8593  3.3709  0.2271
12650SOL     OW41351  10.849   1.289   2.039  0.1379  0.4850 -0.1537
12650SOL    HW141352  10.792   1.212   2.029 -0.3750  1.0076 -1.4198
12650SOL    HW241353  10.790   1.364   2.034  0.7526  0.9969  0.0998
12651SOL     OW41354   5.710   4.311   6.924  0.3907  0.1369  0.1210
12651SOL    HW141355   5.758   4.261   6.858 -0.8566  0.2861 -0.9274
12651SOL    HW241356   5.628   4.335   6.881  0.5115  2.2037  0.9553
12652SOL     OW41357   4.480   4.014   4.953 -0.4177  0.4226  0.2407
12652SOL    HW141358   4.449   4.096   4.993  0.1387  1.3332 -1.0942
12652SOL    HW241359   4.405   3.955   4.960 -0.7473  0.9528  1.4695
12653SOL     OW41360   1.982  10.717  10.810  0.0006  0.2433 -1.0962
12653SOL    HW141361   1.897  10.703  10.853  1.6301  0.5049  2.5269
12653SOL    HW241362   1.987  10.812  10.799 -0.6654  0.1392 -2.6169
12654SOL     OW41363   3.508   6.039   1.869  0.6889 -0.1403 -0.3490
12654SOL    HW141364   3.562   6.077   1.938  2.1591 -0.5835 -1.2227
12654SOL    HW241365   3.476   6.114   1.819  1.3761  0.0767 -0.4638
12655SOL     OW41366   7.187  10.549   3.423  0.6229 -0.0108 -0.1581
12655SOL    HW141367   7.217  10.576   3.510 -1.9785  1.1663  0.5008
12655SOL    HW241368   7.221  10.617   3.364 -0.0962  0.9216  0.4555
12656SOL     OW41369   1.045   7.712   3.588  0.1881 -0.2951  0.3754
12656SOL    HW141370   0.986   7.664   3.530  2.0572 -1.6810 -0.4871
12656SOL    HW241371   1.057   7.653   3.663 -0.8940  0.7633  1.4226
12657SOL     OW41372   8.446   0.180  10.836  0.3484  0.0038 -0.0642
12657SOL    HW141373   8.408   0.263  10.805  0.0827 -0.5912 -1.4369
12657SOL    HW241374   8.416   0.172  10.926  2.7040  2.7701  1.1388
12658SOL     OW41375   3.744   2.113   8.947 -1.0488  0.1172  0.0669
12658SOL    HW141376   3.678   2.067   8.999  1.2855  0.7439  3.9403
12658SOL    HW241377   3.733   2.206   8.971  0.8183  0.2935  0.3614
12659SOL     OW41378   3.474   5.953   5.859  0.0435 -0.1356 -0.0731
12659SOL    HW141379   3.483   5.872   5.809 -0.3503 -0.1696 -0.0944
12659SOL    HW241380   3.489   5.927   5.950 -1.4438 -0.5102  0.0906
12660SOL     OW41381   8.655   4.489   8.736 -0.6120 -0.2544 -0.0128
12660SOL    HW141382   8.706   4.467   8.814  0.5478 -0.7712 -0.8842
12660SOL    HW241383   8.670   4.415   8.676  0.5943  1.2745 -1.6956
12661SOL     OW41384   3.270   6.473   6.052 -0.5026  0.4296  0.1384
12661SOL    HW141385   3.252   6.429   5.968 -0.3115  0.3468  0.1408
12661SOL    HW241386   3.341   6.534   6.033 -0.9231  0.9077  0.0826
12662SOL     OW41387  10.076   2.429   1.996  0.1077 -0.0421  0.2074
12662SOL    HW141388  10.096   2.339   1.973 -0.8063 -0.8542  2.3522
12662SOL    HW241389  10.062   2.428   2.090  1.1001  2.5643  0.4663
12663SOL     OW41390   5.811   8.430   3.066  0.0916  0.1955 -0.1157
12663SOL    HW141391   5.748   8.359   3.066 -0.4161  0.5310  2.6517
12663SOL    HW241392   5.872   8.409   2.996 -1.1292 -1.9452 -0.5998
12664SOL     OW41393  10.485  10.486   9.923  0.3598  0.2922  0.1885
12664SOL    HW141394  10.559  10.490   9.984  1.1150 -0.2104 -0.6736
12664SOL    HW241395  10.413  10.525   9.971  1.6549  2.7147  0.3380
12665SOL     OW41396   6.693   4.103   7.226  0.6025 -0.5505  0.8811
12665SOL    HW141397   6.688   4.139   7.138 -1.5920 -2.2091  0.2352
12665SOL    HW241398   6.755   4.030   7.220 -0.3793 -1.3738  0.3750
12666SOL     OW41399   0.804   3.633   7.204  0.7693 -0.1331  0.6510
12666SOL    HW141400   0.779   3.714   7.248 -1.5796 -0.2938 -0.2634
12666SOL    HW241401   0.806   3.568   7.273 -1.0322 -0.0062  0.8654
12667SOL     OW41402   4.865   0.742   0.163 -0.1734 -0.4266 -0.1837
12667SOL    HW141403   4.775   0.709   0.172 -0.3045 -0.0265 -0.0082
12667SOL    HW241404   4.871   0.813   0.227  0.6550 -1.2616  0.6969
12668SOL     OW41405  10.424   0.909   2.240 -0.4221 -0.4106  0.1919
12668SOL    HW141406  10.446   0.999   2.215  1.1001 -0.3940  1.4568
12668SOL    HW241407  10.470   0.895   2.322 -2.5884 -1.5679  1.2877
12669SOL     OW41408   9.821  10.129   0.678 -0.0304  0.0061  0.2427
12669SOL    HW141409   9.834  10.041   0.642  1.2797  1.3210 -2.8208
12669SOL    HW241410   9.740  10.160   0.637 -0.2587  0.4086  0.9838
12670SOL     OW41411   6.607  10.914   0.344  0.0176  0.1761 -0.2527
12670SOL    HW141412   6.639  10.874   0.263 -0.1660 -0.1311 -0.1769
12670SOL    HW241413   6.685  10.952   0.385 -0.1514  1.9012 -1.4255
12671SOL     OW41414   0.901   4.843   2.371 -0.0787  0.6743  0.1911
12671SOL    HW141415   0.912   4.932   2.337 -0.8416  0.5465 -0.4311
12671SOL    HW241416   0.810   4.840   2.400  0.2111  0.3748  1.0646
12672SOL     OW41417   9.965  10.508   4.304  0.1752 -0.1173  0.4119
12672SOL    HW141418   9.989  10.532   4.214  0.2025  0.0181  0.4538
12672SOL    HW241419   9.873  10.531   4.311  0.5621  1.4745  0.9275
12673SOL     OW41420   1.666   1.669   1.251 -0.6369  0.2735 -0.4706
12673SOL    HW141421   1.717   1.609   1.196 -0.3779  0.0822 -0.0302
12673SOL    HW241422   1.607   1.611   1.300  0.8930  0.1569  1.3442
12674SOL     OW41423   5.494   2.051   2.434 -0.5843 -0.0880 -0.4004
12674SOL    HW141424   5.486   2.120   2.368 -1.1548 -1.0472 -1.3526
12674SOL    HW241425   5.583   2.017   2.422 -0.6684 -0.2255 -0.6347
12675SOL     OW41426   9.326   2.545   3.813  0.1861  0.0212 -0.2467
12675SOL    HW141427   9.289   2.464   3.849  1.5002  0.0800  1.3412
12675SOL    HW241428   9.374   2.584   3.886  1.5190  1.0724 -1.6184
12676SOL     OW41429  10.750   7.090   0.256 -0.3950  0.0424 -0.0035
12676SOL    HW141430  10.691   7.152   0.299 -1.8772 -2.4241  1.7635
12676SOL    HW241431  10.790   7.140   0.185 -2.7267  2.5396  0.2903
12677SOL     OW41432   8.386   0.247   1.914 -0.2943 -0.1510  0.2274
12677SOL    HW141433   8.320   0.187   1.880 -0.6873  0.3712  0.0507
12677SOL    HW241434   8.351   0.275   1.999 -0.6008  0.5891 -0.1333
12678SOL     OW41435   2.133   1.055   5.386  0.2100  0.4454 -0.4790
12678SOL    HW141436   2.136   0.992   5.458  0.7001  0.9356 -0.0562
12678SOL    HW241437   2.042   1.084   5.384 -0.2933 -1.0962 -1.4201
12679SOL     OW41438   8.413   2.950  10.809  0.1032  0.8456  0.0170
12679SOL    HW141439   8.478   2.908  10.754 -0.8736  0.4763 -0.8939
12679SOL    HW241440   8.341   2.972  10.749  0.0221  2.6340  0.6916
12680SOL     OW41441   1.562   9.549   3.608  0.0942  1.2241 -0.5350
12680SOL    HW141442   1.642   9.498   3.599  1.1617  2.6511  0.4500
12680SOL    HW241443   1.592   9.639   3.622 -1.6771  1.7467  0.1838
12681SOL     OW41444   3.969   7.785  10.790 -0.5996 -0.1349  0.0485
12681SOL    HW141445   3.972   7.755  10.881 -0.9507 -2.1479 -0.5581
12681SOL    HW241446   4.039   7.736  10.746 -0.4548  0.7914 -0.7892
12682SOL     OW41447   3.148   5.686   9.758  0.0811  0.4720  0.0359
12682SOL    HW141448   3.226   5.708   9.809 -0.1962 -1.5990  1.4500
12682SOL    HW241449   3.102   5.621   9.811 -2.7289  1.7380 -0.6687
12683SOL     OW41450   6.836   8.829   8.451 -0.1309 -0.0550 -0.0266
12683SOL    HW141451   6.922   8.798   8.479 -0.3891  0.6364  1.6697
12683SOL    HW241452   6.807   8.887   8.522 -2.2553 -0.7592 -0.2458
12684SOL     OW41453   4.102   5.193   3.696 -0.5507 -0.1140  0.1810
12684SOL    HW141454   4.164   5.206   3.768 -1.6329 -0.6157  1.2345
12684SOL    HW241455   4.039   5.265   3.705  0.2302  0.8048 -1.3101
12685SOL     OW41456   5.282   3.042   2.636  0.4678  0.0747  0.0439
12685SOL    HW141457   5.313   3.118   2.687  1.5638  1.0372 -1.9276
12685SOL    HW241458   5.246   3.081   2.556  0.3172 -1.4617 -0.6557
12686SOL     OW41459   7.144   3.238   7.315 -0.4379 -0.0871  0.1555
12686SOL    HW141460   7.125   3.229   7.408  0.0218 -1.8786  0.1126
12686SOL    HW241461   7.218   3.299   7.311  0.0871 -0.6498  1.0241
12687SOL     OW41462   4.011   5.177   4.415 -0.1092  0.1832  0.0123
12687SOL    HW141463   3.997   5.114   4.345  1.5804 -0.9658  0.6562
12687SOL    HW241464   4.105   5.194   4.415 -0.1682  0.7057  1.5285
12688SOL     OW41465   1.774   0.202  10.783  0.3659 -0.0149  0.4685
12688SOL    HW141466   1.750   0.273  10.841 -1.4546 -0.8072  0.7553
12688SOL    HW241467   1.691   0.161  10.759  1.0162  0.2229 -2.6514
12689SOL     OW41468   4.961   6.578  10.761  0.1468 -0.2569  0.1855
12689SOL    HW141469   5.031   6.624  10.808 -0.6145  1.2006 -0.0553
12689SOL    HW241470   4.883   6.592  10.815 -0.3120 -0.3718 -0.4401
12690SOL     OW41471   4.346   6.926  10.449 -0.2373 -0.5920  0.2011
12690SOL    HW141472   4.317   7.018  10.443 -0.2592 -0.6309 -0.4293
12690SOL    HW241473   4.333   6.892  10.360 -0.8867 -1.4089  0.5906
12691SOL     OW41474  10.332   6.447   5.690  0.0447  0.2501 -0.4004
12691SOL    HW141475  10.269   6.382   5.719  0.5886 -0.4283 -0.7247
12691SOL    HW241476  10.373   6.478   5.771  0.0737 -0.1083 -0.2761
12692SOL     OW41477   9.222   8.898   2.336 -0.0634  0.8516  0.1998
12692SOL    HW141478   9.214   8.968   2.400  0.9617  1.1401  0.0272
12692SOL    HW241479   9.189   8.820   2.381  2.9050  0.4962  2.0682
12693SOL     OW41480  10.246   3.761   1.175 -0.0319 -0.6325  0.0832
12693SOL    HW141481  10.162   3.807   1.181  0.6548  0.4936  1.5386
12693SOL    HW241482  10.259   3.723   1.262 -0.2025 -3.0169 -0.8442
12694SOL     OW41483   2.375   9.123   5.127 -1.0932  0.7165 -0.0278
12694SOL    HW141484   2.371   9.203   5.180 -1.1915 -0.4567  1.8374
12694SOL    HW241485   2.456   9.131   5.077 -0.2985  1.3046  1.3150
12695SOL     OW41486   2.324   6.596   2.510  0.3543  0.8015  0.5558
12695SOL    HW141487   2.417   6.582   2.530  0.5747  1.3553 -0.0622
12695SOL    HW241488   2.278   6.562   2.587  1.0002 -0.6265  0.3511
12696SOL     OW41489   0.545   8.561   9.139 -0.2220 -0.1661  0.0090
12696SOL    HW141490   0.486   8.493   9.171 -0.2006  0.8407  2.4046
12696SOL    HW241491   0.490   8.639   9.133  0.1633  0.0465 -0.9461
12697SOL     OW41492  10.738   2.692   2.396 -0.1040  0.0255 -0.1120
12697SOL    HW141493  10.704   2.623   2.339  0.2199 -1.0018  0.9178
12697SOL    HW241494  10.827   2.709   2.362 -0.8891  1.4356 -1.6522
12698SOL     OW41495   4.476   2.581   0.451  0.2882 -0.1453 -0.0974
12698SOL    HW141496   4.543   2.565   0.518  1.5465 -2.2898 -1.7180
12698SOL    HW241497   4.393   2.571   0.497  1.0406  1.5359  1.7446
12699SOL     OW41498   6.900   0.817   3.458  0.6159  0.3812 -0.2963
12699SOL    HW141499   6.906   0.858   3.545  1.9646  1.3333 -0.8152
12699SOL    HW241500   6.958   0.741   3.464  0.4909  0.2866 -0.2822
12700SOL     OW41501   5.005   6.759   1.059 -0.7859  0.1479  0.7579
12700SOL    HW141502   4.946   6.696   1.100 -0.4658 -0.4399  0.3115
12700SOL    HW241503   4.948   6.831   1.033 -0.9457  0.7475  2.6172
12701SOL     OW41504   5.280   9.870   7.071 -0.3380  0.2425  0.2230
12701SOL    HW141505   5.227   9.809   7.020 -0.7402  0.4341  0.4040
12701SOL    HW241506   5.269   9.954   7.026  0.0218  0.2342  0.1136
12702SOL     OW41507   6.885   4.502   9.652 -0.5856 -0.0373 -0.0279
12702SOL    HW141508   6.960   4.481   9.708 -0.6904  0.1478  0.1798
12702SOL    HW241509   6.845   4.578   9.693 -0.3884  0.3879 -0.6132
12703SOL     OW41510   0.800   1.190   4.609 -0.0483  0.1477  0.4150
12703SOL    HW141511   0.801   1.104   4.565  1.9806  0.8115 -0.9941
12703SOL    HW241512   0.771   1.171   4.698 -1.0650 -1.7771 -0.2616
12704SOL     OW41513   3.567   1.435   4.658  0.1323  0.3484 -0.3446
12704SOL    HW141514   3.558   1.357   4.713  1.7455  0.0768 -0.4147
12704SOL    HW241515   3.556   1.403   4.569 -1.8021  0.6747 -0.2635
12705SOL     OW41516   5.092   2.990   6.509  0.3458 -0.3876  0.0844
12705SOL    HW141517   5.072   2.954   6.422  2.1383 -0.1732 -0.4682
12705SOL    HW241518   5.163   2.934   6.542  0.6975  0.4373  0.7535
12706SOL     OW41519   5.133   6.927   9.062  0.0736 -0.1748  0.1819
12706SOL    HW141520   5.184   6.855   9.099 -1.1698 -0.6984  0.9307
12706SOL    HW241521   5.167   6.937   8.973  0.9453 -1.0222  0.4035
12707SOL     OW41522   1.179   6.372   8.765 -0.3228  0.0199 -0.0291
12707SOL    HW141523   1.240   6.358   8.838  0.3156 -0.9388 -0.7233
12707SOL    HW241524   1.164   6.467   8.765 -0.3657  0.0299  1.3619
12708SOL     OW41525   4.373   4.056   8.827 -0.2186  0.0144 -0.0806
12708SOL    HW141526   4.341   4.015   8.907  0.8173 -1.3540 -0.3310
12708SOL    HW241527   4.452   4.102   8.853 -0.2075  0.0605 -0.1951
12709SOL     OW41528   7.564   3.040   7.712  0.1812  0.1778 -0.5208
12709SOL    HW141529   7.637   2.997   7.667 -0.5188  0.9335 -2.5066
12709SOL    HW241530   7.491   2.979   7.703  0.8969 -1.5021  3.1968
12710SOL     OW41531   9.997   8.297   1.752 -0.0314 -0.2333 -0.0603
12710SOL    HW141532   9.918   8.332   1.710 -0.0787 -0.3045 -0.0330
12710SOL    HW241533  10.043   8.252   1.681  0.2109  0.1904 -0.1724
12711SOL     OW41534   7.456   0.969   3.016 -0.0835  0.0420  0.0597
12711SOL    HW141535   7.462   1.038   3.082  0.2376 -1.4290  1.6332
12711SOL    HW241536   7.362   0.963   2.997 -0.2670  0.0314  0.9092
12712SOL     OW41537   1.012   7.903   7.773  0.5350  0.1335 -0.3851
12712SOL    HW141538   1.019   7.975   7.710  1.0081 -0.7840 -1.4194
12712SOL    HW241539   1.072   7.837   7.740  1.5531  0.0047  1.6064
12713SOL     OW41540   7.692   4.197   2.524 -0.1098  0.6811  0.2209
12713SOL    HW141541   7.661   4.181   2.434  1.1614  1.5548 -0.4086
12713SOL    HW241542   7.759   4.130   2.538  0.0414  0.8521  0.3211
12714SOL     OW41543   9.847   8.782   4.238 -0.1601  0.1741 -0.2755
12714SOL    HW141544   9.867   8.713   4.176  0.4712 -0.1684  0.3004
12714SOL    HW241545   9.836   8.737   4.322 -0.7303  0.6596 -0.0778
12715SOL     OW41546   4.129   9.365   8.146  0.2668 -0.2701 -0.3416
12715SOL    HW141547   4.071   9.290   8.135 -0.4986  0.4552 -1.5330
12715SOL    HW241548   4.201   9.349   8.085  1.4687 -1.2765  1.2952
12716SOL     OW41549   4.042  10.289   0.655  0.3452 -0.2421  0.5213
12716SOL    HW141550   3.977  10.277   0.586 -0.6143 -0.6020  1.4507
12716SOL    HW241551   4.097  10.211   0.651  0.8112  0.1148 -0.3425
12717SOL     OW41552   7.500   2.450   3.754  0.2583  0.8595  0.4001
12717SOL    HW141553   7.485   2.540   3.727  1.4229  0.6554 -1.0618
12717SOL    HW241554   7.573   2.421   3.700 -0.1577 -1.0000  0.7759
12718SOL     OW41555   9.073   1.401   7.052  0.5943  0.2138  0.4097
12718SOL    HW141556   9.109   1.313   7.043  0.2134  0.2415 -2.6819
12718SOL    HW241557   9.142   1.459   7.019  0.7201  1.0799  2.1051
12719SOL     OW41558   3.759   7.448   5.716  0.4854 -0.2228  0.1661
12719SOL    HW141559   3.676   7.481   5.752  0.0827 -1.8862  0.8460
12719SOL    HW241560   3.734   7.368   5.669  1.3923  0.5023 -1.6395
12720SOL     OW41561   9.127  10.652   7.015  0.3788 -0.2464 -0.7100
12720SOL    HW141562   9.032  10.643   7.012  0.1854 -0.7872  2.8566
12720SOL    HW241563   9.160  10.577   6.966 -1.0283 -0.9505 -0.6210
12721SOL     OW41564   8.108   0.790  10.635 -0.1158  0.1560  0.4533
12721SOL    HW141565   8.167   0.730  10.590  0.1620  0.0710  0.9252
12721SOL    HW241566   8.030   0.738  10.653  0.3241 -0.2245  1.3210
12722SOL     OW41567   7.499   9.718   6.829  0.2957 -1.1580  0.5134
12722SOL    HW141568   7.539   9.771   6.760 -0.2655 -0.8514  0.4210
12722SOL    HW241569   7.573   9.694   6.886  0.7772 -1.4755 -0.2214
12723SOL     OW41570   7.904   2.950  10.617 -0.1695  0.1782  0.5190
12723SOL    HW141571   7.960   3.024  10.642 -1.5333  0.6983  2.1820
12723SOL    HW241572   7.900   2.895  10.695  0.2639 -1.3312 -0.4813
12724SOL     OW41573   7.190   4.123   3.821 -0.3291  0.3490  0.2501
12724SOL    HW141574   7.210   4.098   3.731 -0.0917 -1.2761  0.7346
12724SOL    HW241575   7.110   4.077   3.842  0.4235 -0.5047  1.3589
12725SOL     OW41576  10.578   6.274   9.703  0.2111 -0.2016  0.6626
12725SOL    HW141577  10.563   6.359   9.661  0.8829 -0.0878  0.6367
12725SOL    HW241578  10.529   6.279   9.785  0.7443  0.4517  0.9497
12726SOL     OW41579   8.412   8.694   1.280  0.1034  0.0252  0.2423
12726SOL    HW141580   8.410   8.695   1.376  1.2350 -0.3729  0.2950
12726SOL    HW241581   8.443   8.605   1.259  1.1127  0.5194 -0.4355
12727SOL     OW41582   4.352   8.966   2.547 -0.0861  0.8217 -0.0033
12727SOL    HW141583   4.418   9.022   2.587 -0.7463  0.0442  2.3003
12727SOL    HW241584   4.278   8.969   2.607 -0.4075 -1.9185 -0.1298
12728SOL     OW41585   5.173   9.750  10.596 -0.2647  0.0707 -0.3278
12728SOL    HW141586   5.252   9.796  10.624  0.0591 -0.6822  0.0476
12728SOL    HW241587   5.198   9.709  10.513 -0.7843  1.1596 -1.0386
12729SOL     OW41588   5.684   2.822   2.965 -0.2415 -0.2743 -0.1209
12729SOL    HW141589   5.692   2.831   2.870 -3.6585  1.2677 -0.4120
12729SOL    HW241590   5.619   2.753   2.977  0.1150 -0.4167  1.1359
12730SOL     OW41591   9.212   9.352   4.084 -0.8610 -0.3066  0.1082
12730SOL    HW141592   9.290   9.364   4.139  0.5234 -1.8011 -1.3937
12730SOL    HW241593   9.188   9.260   4.096 -0.5908 -0.6478 -1.6150
12731SOL     OW41594   2.933   5.304   1.411  0.6996  0.3155  0.1797
12731SOL    HW141595   2.961   5.340   1.495  0.1032 -2.0233  1.4618
12731SOL    HW241596   3.011   5.260   1.377  0.5118 -0.1108  0.2972
12732SOL     OW41597   5.899   0.595   6.227 -0.0920 -0.0765  0.3950
12732SOL    HW141598   5.820   0.556   6.264  0.3233 -1.1338  0.2160
12732SOL    HW241599   5.899   0.567   6.135 -0.4786  1.4937 -0.1181
12733SOL     OW41600   3.286   2.156   3.082  0.2840  0.4416  0.3891
12733SOL    HW141601   3.363   2.211   3.095  0.2990  0.6835 -0.6658
12733SOL    HW241602   3.269   2.118   3.169  2.3265 -0.6061  0.4084
12734SOL     OW41603   4.674   6.889   7.771 -0.3403  0.3731 -0.3957
12734SOL    HW141604   4.715   6.812   7.730 -0.6421 -0.2957  0.5270
12734SOL    HW241605   4.745   6.929   7.821  0.2889  1.7634 -2.3051
12735SOL     OW41606   7.063  10.562  10.600  0.2673 -0.7584 -0.1963
12735SOL    HW141607   7.102  10.649  10.613 -0.3064 -0.5972  0.5602
12735SOL    HW241608   6.969  10.579  10.596  0.1547 -1.3393 -0.0902
12736SOL     OW41609  10.021   4.371   3.832 -0.7448 -0.2046  0.2989
12736SOL    HW141610   9.927   4.375   3.813 -0.3847  3.6718 -1.5562
12736SOL    HW241611  10.034   4.431   3.905  0.2529 -1.3164  1.0718
12737SOL     OW41612   1.671   7.002   8.795 -0.1484 -1.1369  0.3863
12737SOL    HW141613   1.737   6.985   8.728 -0.6569 -0.2453 -0.3813
12737SOL    HW241614   1.588   6.975   8.755 -0.5574  0.1049  0.3279
12738SOL     OW41615   2.857  10.175   9.069  0.2098  0.0000  0.2529
12738SOL    HW141616   2.944  10.138   9.058  0.4448  0.9452 -1.4182
12738SOL    HW241617   2.853  10.201   9.161  0.6229 -2.5642  1.0737
12739SOL     OW41618   1.913   7.748   5.371 -0.6687 -0.5010 -0.1199
12739SOL    HW141619   1.927   7.777   5.281 -0.0313 -1.7518 -0.4448
12739SOL    HW241620   1.846   7.680   5.364  0.2811 -1.4813  0.1832
12740SOL     OW41621   0.404   4.281   7.391  0.5105  0.5332  0.2857
12740SOL    HW141622   0.479   4.276   7.332 -0.2104 -0.2606 -0.5993
12740SOL    HW241623   0.376   4.372   7.387 -0.4414  0.2301 -1.8392
12741SOL     OW41624   6.252   3.211   8.790  0.1504  0.4303  0.4686
12741SOL    HW141625   6.297   3.265   8.724  1.4659  0.9172  1.7022
12741SOL    HW241626   6.253   3.123   8.753  0.4271  0.7735 -0.3732
12742SOL     OW41627   8.162   3.094   4.675  0.3924 -0.0010 -0.3374
12742SOL    HW141628   8.205   3.099   4.760  0.8318 -2.2067 -0.3655
12742SOL    HW241629   8.144   3.000   4.662 -0.2665  0.3423 -2.3696
12743SOL     OW41630   4.802   8.060   8.148  0.2017 -0.0218 -0.2674
12743SOL    HW141631   4.820   8.092   8.236 -0.1555  1.1296 -0.5921
12743SOL    HW241632   4.739   7.989   8.160  0.1038  0.1739  0.4041
12744SOL     OW41633   9.932   3.794   9.280  0.2514  0.2399  0.2536
12744SOL    HW141634   9.930   3.704   9.250  2.5833 -0.1581  1.0741
12744SOL    HW241635   9.870   3.797   9.352  0.7178 -0.9379  0.7290
12745SOL     OW41636   6.412   1.986  10.485  0.3404  0.1070  0.1038
12745SOL    HW141637   6.444   2.076  10.490  1.3283 -0.2364  0.1548
12745SOL    HW241638   6.490   1.932  10.499 -0.2668 -0.7575  0.2265
12746SOL     OW41639   7.435   5.742   2.303  0.4133 -0.6015 -0.5765
12746SOL    HW141640   7.389   5.685   2.365 -0.1973 -1.0426 -1.4098
12746SOL    HW241641   7.480   5.806   2.358 -1.2292 -0.1200  0.2981
12747SOL     OW41642   1.676   3.853   6.336  0.1050  0.6802 -0.1156
12747SOL    HW141643   1.761   3.888   6.363  2.3196 -2.6777 -1.9533
12747SOL    HW241644   1.644   3.804   6.412  0.3166  1.1359  0.2695
12748SOL     OW41645   2.737   6.744   6.650 -0.0305 -0.2523  0.1909
12748SOL    HW141646   2.642   6.745   6.647 -0.0302 -0.7727 -0.1326
12748SOL    HW241647   2.758   6.701   6.733 -0.0760  0.3020  0.4900
12749SOL     OW41648   2.715   1.889   7.582 -0.3483  0.1407  0.0125
12749SOL    HW141649   2.704   1.956   7.650  0.0975 -0.2976  0.5315
12749SOL    HW241650   2.757   1.936   7.510 -0.0398  0.4240  0.3690
12750SOL     OW41651  10.712  10.211   0.670  0.0042  0.0459  0.2700
12750SOL    HW141652  10.794  10.232   0.625  0.0606 -0.5483  0.0817
12750SOL    HW241653  10.683  10.294   0.708 -0.4271  0.7369 -1.4669
12751SOL     OW41654   0.928   1.280   2.305 -0.2188 -0.0880  0.1940
12751SOL    HW141655   0.947   1.187   2.310 -1.0078 -0.2472  0.2889
12751SOL    HW241656   0.910   1.306   2.396  1.9160  0.5892  0.4870
12752SOL     OW41657   7.021   7.374   9.640  0.3463  0.5236 -0.3324
12752SOL    HW141658   6.966   7.446   9.671  0.6509  0.6246 -0.0283
12752SOL    HW241659   6.975   7.342   9.562 -0.6788 -0.0557  0.4901
12753SOL     OW41660   4.479   2.680   4.536 -0.0091  0.7372  0.2066
12753SOL    HW141661   4.465   2.713   4.624 -3.1341 -1.2554  0.6073
12753SOL    HW241662   4.511   2.590   4.549 -0.9144  0.2699 -0.6327
12754SOL     OW41663   1.112   2.221   1.875  0.1664  0.1449  0.5784
12754SOL    HW141664   1.062   2.201   1.953 -1.0073  0.3281 -0.1097
12754SOL    HW241665   1.188   2.270   1.907 -1.0398  1.4944  1.4791
12755SOL     OW41666  10.637   7.728   2.875 -0.3278  0.3233 -0.1869
12755SOL    HW141667  10.582   7.676   2.934 -0.8772 -0.3960 -1.3123
12755SOL    HW241668  10.708   7.667   2.850 -1.9641 -0.6055 -2.9791
12756SOL     OW41669   1.988   5.856  10.660 -0.1839  0.2852 -0.0839
12756SOL    HW141670   1.932   5.779  10.669 -1.2381  1.0229 -0.0963
12756SOL    HW241671   1.987   5.876  10.567  1.7214 -0.8317 -0.3979
12757SOL     OW41672   9.421   4.009   6.934 -0.5515 -0.1080 -0.2088
12757SOL    HW141673   9.479   3.963   6.995  0.1778 -0.5739 -1.2397
12757SOL    HW241674   9.346   3.951   6.924 -0.7260  0.0204  0.3229
12758SOL     OW41675   4.434   1.888   1.197 -0.1683 -0.2513 -0.2714
12758SOL    HW141676   4.504   1.927   1.250  1.2899  0.0398 -2.2789
12758SOL    HW241677   4.354   1.902   1.248  0.7808  2.2723  0.6888
12759SOL     OW41678   6.774  10.581  10.177 -0.1323 -0.2467  0.2020
12759SOL    HW141679   6.698  10.619  10.134  0.5986 -0.1920 -1.1158
12759SOL    HW241680   6.830  10.656  10.198  1.1162 -0.4609 -2.0157
12760SOL     OW41681  10.036   0.293   4.384 -0.1853  0.0365  0.0252
12760SOL    HW141682  10.100   0.289   4.313 -0.1171  3.7443 -0.3251
12760SOL    HW241683   9.952   0.303   4.340 -0.2284  1.6214  0.4270
12761SOL     OW41684   3.672   6.691   3.524 -0.9355  0.3180  0.7873
12761SOL    HW141685   3.660   6.720   3.614  1.5209 -0.1247  1.3318
12761SOL    HW241686   3.595   6.723   3.478 -2.9255 -0.5538  3.2733
12762SOL     OW41687   1.673   4.534   3.226 -0.2989 -0.1554  0.6390
12762SOL    HW141688   1.652   4.595   3.156 -1.9795  1.9862  2.8323
12762SOL    HW241689   1.681   4.588   3.305  0.6493 -2.5016  2.2931
12763SOL     OW41690   0.694   3.372   7.317  0.5127 -0.1564  0.3380
12763SOL    HW141691   0.703   3.291   7.268 -2.2647  0.0860 -0.7234
12763SOL    HW241692   0.698   3.345   7.409  1.0667 -1.2691  0.0055
12764SOL     OW41693   3.049   0.139   1.729 -0.3949 -0.5241  0.3303
12764SOL    HW141694   2.980   0.206   1.734 -1.8517 -2.0291  1.2447
12764SOL    HW241695   3.120   0.175   1.782  0.3708  1.8604 -2.0217
12765SOL     OW41696   6.230  10.481  10.828  0.0882  0.2133 -0.1496
12765SOL    HW141697   6.190  10.452  10.909 -2.2358  0.6337 -1.0673
12765SOL    HW241698   6.235  10.402  10.774  0.3632  0.1943 -0.0983
12766SOL     OW41699   9.348   5.522   7.725  0.1835  0.5327  0.0677
12766SOL    HW141700   9.385   5.560   7.805 -1.3066  0.0257  1.0402
12766SOL    HW241701   9.423   5.514   7.666  1.4626  0.3630  1.6192
12767SOL     OW41702   5.721   5.519   2.829  0.2486  0.4994  0.7085
12767SOL    HW141703   5.660   5.446   2.831  0.2663  0.1524 -3.4425
12767SOL    HW241704   5.808   5.478   2.829  0.2588  0.1980 -3.3032
12768SOL     OW41705   1.329   3.498   7.670 -0.2014 -0.1339  0.2955
12768SOL    HW141706   1.257   3.550   7.707  1.0204  0.0356  2.6283
12768SOL    HW241707   1.368   3.555   7.604 -0.3304  1.0088  1.1653
12769SOL     OW41708   2.481   2.072   2.206  0.1351 -0.2308  0.5945
12769SOL    HW141709   2.414   2.137   2.185  1.5577  0.9606 -0.4325
12769SOL    HW241710   2.526   2.107   2.283  1.2215  0.2926 -0.2515
12770SOL     OW41711   6.794   0.791   3.207  0.0025  0.1842  0.2178
12770SOL    HW141712   6.817   0.814   3.297  0.6192 -0.0267  0.1152
12770SOL    HW241713   6.856   0.722   3.182 -1.3472 -1.0984  0.2642
12771SOL     OW41714   3.858   1.139   3.905  0.0932 -0.0906  0.1429
12771SOL    HW141715   3.937   1.187   3.882  0.8331 -2.2182 -2.3373
12771SOL    HW241716   3.887   1.075   3.971 -0.3638  1.2281  1.6779
12772SOL     OW41717   7.760   7.455   3.666  0.4398  0.4746  0.1257
12772SOL    HW141718   7.851   7.458   3.695  1.0750  0.6381 -1.7664
12772SOL    HW241719   7.758   7.389   3.598 -0.4133  1.8270 -1.2313
12773SOL     OW41720   4.163   9.637   2.073  0.4418 -0.2469  0.3298
12773SOL    HW141721   4.159   9.607   2.164 -1.3915  0.6639  0.6017
12773SOL    HW241722   4.181   9.731   2.080 -1.9861  0.3246 -0.0638
12774SOL     OW41723   2.507   5.371  10.856  0.0669 -0.1113  0.0166
12774SOL    HW141724   2.493   5.277  10.849  0.6381 -0.1307 -1.2990
12774SOL    HW241725   2.602   5.380  10.869 -0.0118  0.2723  0.3420
12775SOL     OW41726   4.441   4.409   7.427  0.2885 -0.5025 -0.3871
12775SOL    HW141727   4.361   4.462   7.421  0.1571 -0.6293  0.1959
12775SOL    HW241728   4.474   4.426   7.515 -0.2481 -2.0860  0.1431
12776SOL     OW41729   6.952   0.410   8.050  0.0448  0.0291 -0.0316
12776SOL    HW141730   6.965   0.316   8.040 -1.6613 -0.1823 -0.6205
12776SOL    HW241731   6.864   0.418   8.086  0.4350  1.3863  0.6704
12777SOL     OW41732   9.657   7.409   3.558 -0.5283  0.5160  0.1298
12777SOL    HW141733   9.563   7.425   3.558 -0.6167  0.0153  0.2971
12777SOL    HW241734   9.677   7.385   3.649 -0.3621 -0.0507 -0.0528
12778SOL     OW41735  10.262   4.573   1.671 -0.4564 -0.5382 -0.2307
12778SOL    HW141736  10.188   4.627   1.698  0.1087 -0.3607  1.0475
12778SOL    HW241737  10.229   4.483   1.675 -0.5137 -0.4859  0.6969
12779SOL     OW41738   8.651   5.991   6.431  0.3711  0.4350 -0.3360
12779SOL    HW141739   8.661   6.086   6.438 -0.6554  0.4736  1.0922
12779SOL    HW241740   8.687   5.969   6.345  0.2660  2.1614 -0.8569
12780SOL     OW41741   2.723   4.206   5.679 -0.0445 -0.5544  0.2065
12780SOL    HW141742   2.786   4.211   5.752 -0.4089 -0.2264  0.5040
12780SOL    HW241743   2.739   4.285   5.628  0.9127 -1.2799 -0.6661
12781SOL     OW41744   2.470   4.824  10.639 -0.1574 -0.4122 -0.0737
12781SOL    HW141745   2.528   4.757  10.603 -1.2423 -1.0557 -0.7177
12781SOL    HW241746   2.392   4.820  10.582 -0.0358  1.7770 -0.4519
12782SOL     OW41747  10.729   0.752   1.481 -0.4527 -0.3730  0.1207
12782SOL    HW141748  10.705   0.663   1.505  0.1299 -0.4480  0.4261
12782SOL    HW241749  10.685   0.767   1.397 -0.4659 -0.9813  0.0206
12783SOL     OW41750   5.054   9.472  10.859  0.0630 -0.7341 -0.3412
12783SOL    HW141751   5.042   9.567  10.856  1.1078 -0.5250  1.0392
12783SOL    HW241752   5.146   9.459  10.880  0.6211 -2.1386 -3.1610
12784SOL     OW41753   1.509   5.844   1.743  0.4296 -0.6502  0.3336
12784SOL    HW141754   1.568   5.870   1.672 -1.1394  1.2003 -0.4209
12784SOL    HW241755   1.539   5.758   1.771  2.9655 -0.1069 -0.5079
12785SOL     OW41756   7.111  10.581   1.956  0.4227  0.2818  0.6985
12785SOL    HW141757   7.135  10.640   1.884 -1.9553 -1.1487 -1.4283
12785SOL    HW241758   7.036  10.623   1.997 -1.8174 -1.4724 -1.3565
12786SOL     OW41759   6.258   1.815   5.527 -0.4150 -0.3558 -0.2368
12786SOL    HW141760   6.322   1.764   5.576 -1.2737 -1.6327 -0.3875
12786SOL    HW241761   6.177   1.805   5.577 -1.4234 -2.0619 -2.0744
12787SOL     OW41762   8.814   5.746   2.388 -0.0744  0.0577 -0.1250
12787SOL    HW141763   8.787   5.706   2.471 -1.2107  1.8640  0.4308
12787SOL    HW241764   8.804   5.840   2.403  0.9805  0.4842 -1.8932
12788SOL     OW41765   9.224   0.071   2.274 -0.4169 -0.1398  0.1954
12788SOL    HW141766   9.251   0.030   2.356 -2.7859 -2.8923 -0.2214
12788SOL    HW241767   9.135   0.101   2.290 -1.4491 -1.9421 -1.6173
12789SOL     OW41768   3.704   6.791   8.431  0.4776  0.3599  0.2869
12789SOL    HW141769   3.619   6.802   8.387 -0.2469 -0.6111  1.3851
12789SOL    HW241770   3.721   6.697   8.426 -0.2679 -0.0214  3.1320
12790SOL     OW41771   7.024   2.042   5.687 -0.3163  0.6907  0.3678
12790SOL    HW141772   7.028   2.058   5.781 -1.4995 -1.4422  0.8681
12790SOL    HW241773   7.097   1.983   5.670 -0.3143  0.7894  0.0361
12791SOL     OW41774   9.292   5.233   6.812  0.4427  0.1323  0.2183
12791SOL    HW141775   9.307   5.194   6.898  1.5512  0.5332  0.2346
12791SOL    HW241776   9.222   5.296   6.826 -0.6514 -1.0833  0.4128
12792SOL     OW41777  10.300   6.390   8.475 -0.5996 -0.1648 -0.3166
12792SOL    HW141778  10.257   6.435   8.402  1.3758  2.5143  0.0036
12792SOL    HW241779  10.373   6.343   8.434 -0.8459 -0.5463 -0.3162
12793SOL     OW41780   0.961   5.758   4.114 -0.1435  0.3323 -0.0364
12793SOL    HW141781   0.900   5.693   4.080  1.5449 -1.9186  1.0165
12793SOL    HW241782   0.930   5.775   4.203 -0.9340  1.4849 -0.5113
12794SOL     OW41783   4.113   3.938   2.526 -0.4625 -0.8523 -0.1747
12794SOL    HW141784   4.106   3.886   2.445  0.4273 -1.6227  0.2158
12794SOL    HW241785   4.023   3.948   2.556 -0.9035  0.2668 -1.7606
12795SOL     OW41786   8.382   3.479   6.228 -0.2759 -0.2344 -0.2134
12795SOL    HW141787   8.349   3.454   6.142 -0.7189  1.2781 -0.5093
12795SOL    HW241788   8.473   3.505   6.212 -0.7691  1.3805 -0.4954
12796SOL     OW41789   9.083   2.636   1.272 -0.6809  0.6762  0.0405
12796SOL    HW141790   9.092   2.551   1.228 -0.8345  0.4281  0.4892
12796SOL    HW241791   9.035   2.691   1.210 -0.9885  0.2944 -0.0581
12797SOL     OW41792  10.817   6.462   6.150  0.3650 -0.3300  0.5340
12797SOL    HW141793  10.761   6.430   6.220  0.3540 -0.2204  0.5754
12797SOL    HW241794  10.766   6.448   6.070  0.5037 -0.7433  0.5141
12798SOL     OW41795   6.523   3.557   9.800 -0.1405  0.0011 -0.2140
12798SOL    HW141796   6.603   3.509   9.818 -0.0243 -0.0439 -0.8134
12798SOL    HW241797   6.551   3.648   9.794 -0.5462  0.3296  2.1118
12799SOL     OW41798   9.637   1.039   9.391  0.4754 -0.2966 -0.2620
12799SOL    HW141799   9.650   0.949   9.421 -1.8375 -0.4665  0.4209
12799SOL    HW241800   9.609   1.087   9.468  0.6384  0.7799 -0.8498
12800SOL     OW41801   9.133   3.702   4.374 -0.3201 -0.3918  0.1601
12800SOL    HW141802   9.066   3.658   4.321 -0.3059 -1.5343  1.0631
12800SOL    HW241803   9.088   3.777   4.413 -1.7397 -2.3396  2.4996
12801SOL     OW41804   1.573   2.992   9.419 -0.6313 -0.2012  0.0290
12801SOL    HW141805   1.623   3.029   9.347 -0.9592  0.6188  0.2163
12801SOL    HW241806   1.636   2.934   9.464 -0.2942 -0.3493 -0.6238
12802SOL     OW41807   7.029   8.925   0.713  0.0658 -0.0274 -0.0015
12802SOL    HW141808   7.113   8.969   0.705 -0.4503  0.7891 -1.2290
12802SOL    HW241809   7.051   8.833   0.728  1.1694  0.1397 -0.5164
12803SOL     OW41810   7.201   0.945   2.953 -0.8937 -0.0733 -0.0207
12803SOL    HW141811   7.180   0.858   2.920 -0.3750 -0.7268  1.3201
12803SOL    HW241812   7.125   0.970   3.005 -1.3140  0.5661 -0.9095
12804SOL     OW41813   2.601   8.177   2.254 -0.1625  0.0146 -0.0574
12804SOL    HW141814   2.513   8.177   2.215  0.2412  2.4413 -1.1367
12804SOL    HW241815   2.659   8.202   2.182  1.3618 -0.8534  0.8164
12805SOL     OW41816   8.444   6.257   6.078  0.3596 -0.5191 -0.8776
12805SOL    HW141817   8.407   6.197   6.013 -0.7150 -0.2090 -0.5633
12805SOL    HW241818   8.525   6.289   6.037 -0.9176  0.6714 -2.6524
12806SOL     OW41819   8.603   2.969   5.578 -0.6822 -0.0771 -0.3941
12806SOL    HW141820   8.549   2.911   5.632 -0.1979 -1.3928 -1.3085
12806SOL    HW241821   8.597   2.934   5.490 -0.1018  1.0719 -0.9197
12807SOL     OW41822   9.956   8.413   2.727  0.5269  0.0220 -0.1449
12807SOL    HW141823   9.909   8.336   2.693  0.5366  0.0986 -0.3311
12807SOL    HW241824   9.947   8.479   2.659  0.0752  0.3623  0.2342
12808SOL     OW41825   9.308   9.110   9.404  0.6078  0.3048  0.6892
12808SOL    HW141826   9.254   9.186   9.429 -1.4187 -0.9867  0.4675
12808SOL    HW241827   9.366   9.144   9.336  0.5622  1.9246  1.4021
12809SOL     OW41828   3.524  10.707   8.332  0.6474 -0.6688  0.5042
12809SOL    HW141829   3.594  10.650   8.363  0.8410 -1.4413 -1.2345
12809SOL    HW241830   3.443  10.663   8.359  0.8160 -0.4766  1.3269
12810SOL     OW41831  10.129   2.741   6.132  0.6702 -0.3156 -0.6685
12810SOL    HW141832  10.159   2.696   6.211  0.9195  1.0265  0.0426
12810SOL    HW241833  10.034   2.733   6.133  0.6500 -0.0518 -0.0508
12811SOL     OW41834  10.113   3.630   5.631  0.0780 -0.3597  0.1333
12811SOL    HW141835  10.084   3.629   5.722 -1.0796  0.4512 -0.2019
12811SOL    HW241836  10.115   3.722   5.607 -0.3860 -0.5882 -0.8788
12812SOL     OW41837   7.872   7.722   0.832 -0.1923  0.2569  0.3121
12812SOL    HW141838   7.903   7.642   0.790 -1.6144  0.7605 -1.8057
12812SOL    HW241839   7.952   7.770   0.852  0.5823 -0.2773 -1.3030
12813SOL     OW41840   0.628   8.698   9.607  0.0853  0.2651 -0.1214
12813SOL    HW141841   0.684   8.775   9.617  1.1417 -0.4761 -0.1757
12813SOL    HW241842   0.683   8.624   9.635 -1.2026 -0.3837  0.8168
12814SOL     OW41843   9.208  10.347   7.622 -0.4551 -0.2923  0.2887
12814SOL    HW141844   9.130  10.325   7.672  0.5378 -0.2271  1.9391
12814SOL    HW241845   9.180  10.418   7.565 -2.2396 -1.9427 -1.0457
12815SOL     OW41846   5.999   2.854   0.423  0.5260  0.4522  0.4396
12815SOL    HW141847   6.044   2.800   0.359 -0.0230  3.1061 -2.4488
12815SOL    HW241848   6.030   2.822   0.508  1.4463 -3.1477 -1.0747
12816SOL     OW41849  10.565   4.268   8.218  0.1293  0.0652 -0.1994
12816SOL    HW141850  10.641   4.258   8.160 -1.5205 -1.7562 -2.2374
12816SOL    HW241851  10.508   4.330   8.172  0.2052  1.1496  1.1390
12817SOL     OW41852  10.377   2.436   3.265  0.2779 -0.1712 -0.5520
12817SOL    HW141853  10.454   2.491   3.280  0.1643  0.2143 -1.3222
12817SOL    HW241854  10.303   2.495   3.273 -0.0436 -0.7776  1.3968
12818SOL     OW41855   0.692   3.447  10.659  0.3348 -0.4303 -0.0175
12818SOL    HW141856   0.598   3.437  10.643  0.2633  0.8981 -0.5823
12818SOL    HW241857   0.707   3.542  10.653  1.6292 -0.5794  0.5468
12819SOL     OW41858   0.598   0.776   3.861 -0.1441  0.3741 -0.0668
12819SOL    HW141859   0.674   0.736   3.904 -0.0201 -0.5601 -1.1343
12819SOL    HW241860   0.620   0.869   3.856 -0.3487  0.6262  2.2504
12820SOL     OW41861   0.379   2.151   7.677  0.2700 -0.0828 -0.3354
12820SOL    HW141862   0.433   2.130   7.753 -2.3445  0.3991  1.7976
12820SOL    HW241863   0.389   2.246   7.665 -1.3977  0.3533  1.2534
12821SOL     OW41864   0.352   3.912   3.892 -1.0219  0.1470 -0.7999
12821SOL    HW141865   0.412   3.881   3.824 -0.5521  1.9257 -1.2400
12821SOL    HW241866   0.401   3.982   3.937 -2.1952  0.5790 -0.1577
12822SOL     OW41867   7.469   5.386   3.612 -0.2352  0.0838 -0.0031
12822SOL    HW141868   7.403   5.342   3.558 -2.5282  2.3561  0.7565
12822SOL    HW241869   7.514   5.445   3.551 -0.8766  0.5815 -0.0085
12823SOL     OW41870   4.760   8.632   2.797  0.4900 -0.5184  0.4379
12823SOL    HW141871   4.835   8.668   2.845  0.1713 -1.7806  1.9683
12823SOL    HW241872   4.685   8.681   2.831  0.6417  1.3975 -1.7623
12824SOL     OW41873   5.582   8.232  10.618  0.6517  0.4659  0.6348
12824SOL    HW141874   5.552   8.277  10.697  0.3560  1.0878  0.1737
12824SOL    HW241875   5.666   8.273  10.597  1.8693 -1.2111  1.8729
12825SOL     OW41876   0.030   2.433   9.694 -0.1088 -0.4163  0.3155
12825SOL    HW141877  -0.047   2.482   9.664 -0.7303 -1.7481 -0.3620
12825SOL    HW241878  -0.006   2.354   9.734  0.7663  0.6006  3.4143
12826SOL     OW41879   9.288   3.577   1.073 -0.3332 -0.0473 -0.0035
12826SOL    HW141880   9.346   3.507   1.042 -0.7761 -0.0920 -0.7512
12826SOL    HW241881   9.278   3.560   1.167  0.8193 -0.0676  0.1339
12827SOL     OW41882   1.143   8.296   0.658  0.1796  0.2100  0.5597
12827SOL    HW141883   1.097   8.233   0.713  0.1818 -0.1332  0.1734
12827SOL    HW241884   1.083   8.314   0.586  0.3150  0.3955  0.4912
12828SOL     OW41885   3.665   0.392   7.782  0.6640  0.7469 -0.9662
12828SOL    HW141886   3.741   0.391   7.841 -0.2892  1.0378  0.3165
12828SOL    HW241887   3.591   0.414   7.839 -0.5131 -0.2830 -2.0328
12829SOL     OW41888   6.770   7.666   0.613  0.7289 -0.3221  0.0731
12829SOL    HW141889   6.712   7.702   0.680  0.5963  0.2203 -0.3223
12829SOL    HW241890   6.722   7.591   0.578  0.1709  0.2354 -0.3807
12830SOL     OW41891   2.641   0.743   9.823  0.8103 -0.2072 -0.3418
12830SOL    HW141892   2.734   0.734   9.846  0.6661 -0.9860 -0.0366
12830SOL    HW241893   2.640   0.805   9.750  1.5404  0.0376 -0.1540
12831SOL     OW41894  10.564   3.982   1.712 -0.0484  0.2995  0.5483
12831SOL    HW141895  10.493   4.030   1.754 -1.0103 -0.0866 -0.5916
12831SOL    HW241896  10.596   4.042   1.644 -0.6051 -0.2621 -0.2297
12832SOL     OW41897   9.119   5.743   4.382 -0.5634  0.0895 -0.2221
12832SOL    HW141898   9.143   5.824   4.428  1.7437  0.5239 -1.9608
12832SOL    HW241899   9.039   5.765   4.334 -0.5795  0.9946  0.2066
12833SOL     OW41900   0.309   2.891   4.944 -0.6084  0.7471  0.2578
12833SOL    HW141901   0.259   2.860   4.868  0.7157  1.1639 -0.8166
12833SOL    HW241902   0.265   2.972   4.970 -1.9994 -0.1820  0.9390
12834SOL     OW41903   8.267   9.463   0.425  0.4121 -0.0049  0.3201
12834SOL    HW141904   8.354   9.491   0.398 -0.9126  1.9504 -2.4139
12834SOL    HW241905   8.239   9.530   0.488  0.2766  0.3193 -0.0802
12835SOL     OW41906   2.619   4.742   1.248 -0.2537 -0.3061  0.6329
12835SOL    HW141907   2.585   4.800   1.316 -1.4774 -1.9107  1.4674
12835SOL    HW241908   2.545   4.729   1.188  1.0359  1.7723 -1.5920
12836SOL     OW41909   2.828  10.192   5.578 -0.2103 -0.7485 -0.8564
12836SOL    HW141910   2.922  10.190   5.596 -0.4029  1.4853  0.9506
12836SOL    HW241911   2.822  10.191   5.482  1.6989 -0.4428 -1.0281
12837SOL     OW41912   1.923   2.574   2.713 -0.2863 -0.3811  0.1502
12837SOL    HW141913   1.991   2.512   2.688  0.3017 -0.3250  1.5037
12837SOL    HW241914   1.968   2.637   2.770 -0.9031  1.1856 -1.0229
12838SOL     OW41915   0.230   3.175   5.575 -0.7449 -0.1865 -0.2716
12838SOL    HW141916   0.182   3.237   5.520 -0.5007 -0.0243 -0.3030
12838SOL    HW241917   0.277   3.231   5.637 -0.0917 -0.3159 -0.6480
12839SOL     OW41918   7.826   9.644  10.756 -0.0787  0.2755  0.1016
12839SOL    HW141919   7.868   9.712  10.810 -1.1513  2.2375 -1.4323
12839SOL    HW241920   7.811   9.572  10.817  0.4659  1.6664  1.9862
12840SOL     OW41921   6.593   1.593   0.406 -0.3927 -0.0756 -0.0812
12840SOL    HW141922   6.617   1.652   0.478  0.8552 -0.8562  0.1746
12840SOL    HW241923   6.565   1.512   0.449  0.5402 -0.6171 -0.4388
12841SOL     OW41924   9.496   8.038   4.528 -0.6628 -0.3274  0.2561
12841SOL    HW141925   9.503   8.068   4.619 -1.6996  0.6276  0.0407
12841SOL    HW241926   9.567   8.083   4.483 -0.9255  0.1933  0.3517
12842SOL     OW41927  10.644   2.267   0.019  0.0492  0.2733 -0.4844
12842SOL    HW141928  10.696   2.294  -0.057  0.2354 -1.5937 -1.0745
12842SOL    HW241929  10.555   2.258  -0.014 -0.1957  1.0199 -0.0660
12843SOL     OW41930   1.386   7.771   9.215 -0.4572 -0.4045  0.0629
12843SOL    HW141931   1.326   7.803   9.148 -0.6397  1.3239  0.9942
12843SOL    HW241932   1.472   7.801   9.186 -0.6500  1.1811  1.0259
12844SOL     OW41933   5.887   3.791   9.840  0.5798 -0.0552 -0.1173
12844SOL    HW141934   5.928   3.841   9.771  2.6684  2.4536  2.6911
12844SOL    HW241935   5.953   3.727   9.867  0.3597 -0.0171  0.5361
12845SOL     OW41936   5.567   2.013   8.255  0.1494  0.1684  0.4322
12845SOL    HW141937   5.604   2.090   8.297  0.1622 -0.4976  1.7075
12845SOL    HW241938   5.608   1.939   8.301 -2.1318 -0.6051  1.3864
12846SOL     OW41939   8.522   3.955   1.056  0.2819 -0.1241 -0.0780
12846SOL    HW141940   8.548   3.868   1.087 -1.0921 -0.3246  0.5576
12846SOL    HW241941   8.511   3.944   0.962 -2.4509 -1.3895  0.2774
12847SOL     OW41942  10.519   2.367   3.536  0.1772 -0.1694 -0.4224
12847SOL    HW141943  10.493   2.385   3.626 -0.8562 -2.8085 -0.0936
12847SOL    HW241944  10.441   2.384   3.484  0.3017 -0.1544 -0.6072
12848SOL     OW41945   6.268   5.065   3.622 -0.2294 -0.0232 -0.3393
12848SOL    HW141946   6.191   5.031   3.577 -1.0701 -0.0887  1.1143
12848SOL    HW241947   6.342   5.035   3.568 -1.1250 -1.2970 -0.8999
12849SOL     OW41948   1.471   4.555   1.027 -0.6929 -0.4055 -0.0448
12849SOL    HW141949   1.467   4.478   0.970  0.4052  0.9646 -2.1046
12849SOL    HW241950   1.448   4.629   0.970 -2.0795  0.7979  1.9441
12850SOL     OW41951   8.646   0.582   3.202  0.1329  0.8089 -0.2886
12850SOL    HW141952   8.667   0.673   3.226  1.1036  0.2762  1.0091
12850SOL    HW241953   8.656   0.533   3.283  2.9609 -1.0086 -1.5876
12851SOL     OW41954   1.123  10.759   3.711 -0.9424 -0.2889 -0.4052
12851SOL    HW141955   1.202  10.729   3.756 -1.6032 -3.2196 -1.0252
12851SOL    HW241956   1.064  10.784   3.782  0.0265  0.6478  0.1030
12852SOL     OW41957   3.248   8.512   0.598  0.5361 -0.3548 -0.4006
12852SOL    HW141958   3.335   8.472   0.600  1.4993  1.5316 -1.2480
12852SOL    HW241959   3.204   8.477   0.675  2.1855 -1.0863  0.2712
12853SOL     OW41960  10.488   6.475   2.217  0.3599 -0.6644 -0.0314
12853SOL    HW141961  10.573   6.433   2.228 -0.0574 -1.4468  0.3548
12853SOL    HW241962  10.445   6.424   2.149  0.5674  0.3472 -0.9481
12854SOL     OW41963   1.000   9.087   6.207  0.7936 -0.1005  0.4870
12854SOL    HW141964   0.944   9.015   6.238  1.4119 -0.1837  1.4772
12854SOL    HW241965   0.962   9.165   6.247 -0.1425  0.2134 -0.9480
12855SOL     OW41966   0.049   0.749   3.195 -0.8620  0.1206  0.1947
12855SOL    HW141967   0.021   0.791   3.113 -0.6017 -1.0517 -0.5184
12855SOL    HW241968   0.140   0.775   3.206 -0.3711 -1.0785 -0.8189
12856SOL     OW41969   4.507   3.018   0.399  0.5797  0.6026 -0.2817
12856SOL    HW141970   4.511   3.034   0.304  0.4740 -1.1787 -0.6201
12856SOL    HW241971   4.418   2.986   0.414  1.3250 -1.5294 -0.0446
12857SOL     OW41972  10.083   5.061   7.896  0.6448 -0.4474  1.1228
12857SOL    HW141973  10.058   5.149   7.866 -0.2705 -0.7786  0.9025
12857SOL    HW241974  10.052   5.057   7.986  0.4933 -0.6239  1.0621
12858SOL     OW41975   5.126   8.946   3.520 -0.4979 -0.3736  0.5724
12858SOL    HW141976   5.141   8.971   3.611 -1.1937 -0.3727  0.6926
12858SOL    HW241977   5.077   8.864   3.524 -2.3611  0.6561  0.2537
12859SOL     OW41978   4.098   9.013   6.357  0.2429  0.1858  0.2770
12859SOL    HW141979   4.008   8.986   6.372  0.3305 -0.0266  0.4319
12859SOL    HW241980   4.120   8.977   6.271  0.4093 -0.3822  0.5491
12860SOL     OW41981   6.793  10.769   5.246 -0.5078  0.8387  0.2140
12860SOL    HW141982   6.763  10.727   5.166 -0.4075 -0.5143  0.8522
12860SOL    HW241983   6.888  10.770   5.239 -0.5333  1.7669 -0.1725
12861SOL     OW41984   3.080  10.034   4.608 -0.6979 -0.0975 -0.2915
12861SOL    HW141985   3.102  10.102   4.672 -1.8261 -0.8257  0.9231
12861SOL    HW241986   3.021  10.077   4.547 -0.2710  0.3855 -0.3739
12862SOL     OW41987  10.134   2.859   3.251 -0.2235 -0.2534 -0.4962
12862SOL    HW141988  10.149   2.950   3.275 -1.5958 -0.5037  1.5112
12862SOL    HW241989  10.056   2.862   3.195 -1.6030 -0.3259  1.3226
12863SOL     OW41990   5.050   3.688   2.590  0.0643 -0.0438  0.1278
12863SOL    HW141991   5.020   3.601   2.617 -1.0595  0.2284 -0.1689
12863SOL    HW241992   4.984   3.717   2.527  1.4546  0.2347 -1.2562
12864SOL     OW41993   6.477   6.398  10.388 -0.1793 -0.4476  0.4018
12864SOL    HW141994   6.439   6.380  10.474  0.1643 -0.0933  0.6268
12864SOL    HW241995   6.505   6.489  10.393 -0.0948 -0.4490 -0.0635
12865SOL     OW41996   3.997   5.110   1.173 -0.0455 -0.0322 -0.7195
12865SOL    HW141997   3.902   5.107   1.158 -0.1148 -0.8655 -0.1255
12865SOL    HW241998   4.006   5.136   1.264  0.2867 -0.6470 -0.5761
12866SOL     OW41999   3.731   8.081   1.958  0.2127  0.0232  0.1149
12866SOL    HW142000   3.769   8.018   1.897  0.1625 -0.0339  0.1423
12866SOL    HW242001   3.801   8.099   2.021 -0.0240 -0.6279  0.5840
12867SOL     OW42002   2.739   5.704   4.722  0.2519  0.7094 -0.2010
12867SOL    HW142003   2.733   5.659   4.807 -0.2570  0.8801 -0.1449
12867SOL    HW242004   2.658   5.680   4.677  0.9738 -0.2008 -1.0552
12868SOL     OW42005   7.312   2.595   0.975 -0.4275  0.3377 -0.5405
12868SOL    HW142006   7.263   2.640   0.906 -0.2475  0.9588 -0.2736
12868SOL    HW242007   7.312   2.503   0.949 -1.8950  0.2824 -0.4535
12869SOL     OW42008   5.852   0.958   2.052  0.0686  0.0241  0.2399
12869SOL    HW142009   5.818   1.005   1.976  0.1324  1.2875  0.9560
12869SOL    HW242010   5.787   0.974   2.121 -0.6348 -2.1350  0.1621
12870SOL     OW42011   3.631   9.560  10.627 -0.1230  0.9662  0.0765
12870SOL    HW142012   3.635   9.614  10.548  1.1716 -0.0261 -0.5808
12870SOL    HW242013   3.689   9.485  10.608  0.9228  1.1283  2.2740
12871SOL     OW42014  10.782   9.934   6.196  0.6225  0.2103  0.4898
12871SOL    HW142015  10.761   9.874   6.268  0.4903  0.5954  0.7743
12871SOL    HW242016  10.701   9.940   6.146  1.0549 -0.9962 -0.3880
12872SOL     OW42017   4.568   2.499  10.705 -0.1359 -0.7837 -0.0897
12872SOL    HW142018   4.584   2.574  10.649 -0.0763 -0.7085  0.0271
12872SOL    HW242019   4.652   2.482  10.748  0.0995 -1.4925 -0.8070
12873SOL     OW42020   1.885   1.184   4.611  0.2818  0.5904  0.2294
12873SOL    HW142021   1.817   1.167   4.546  0.3287 -1.6351  0.6821
12873SOL    HW242022   1.967   1.167   4.565  0.5630  2.7253 -0.1553
12874SOL     OW42023   0.002   6.967   9.756 -0.3197  0.4810 -0.4789
12874SOL    HW142024   0.075   7.028   9.768  0.6417 -0.7245  0.0179
12874SOL    HW242025   0.038   6.882   9.778 -2.4111  0.0740  1.9326
12875SOL     OW42026   2.265   9.481   8.064 -0.3993 -0.3261  0.3240
12875SOL    HW142027   2.228   9.545   8.126  0.1366 -0.0995  0.4176
12875SOL    HW242028   2.311   9.418   8.120 -0.4560 -0.4792  0.1962
12876SOL     OW42029   7.709   4.373   0.018  0.0186  0.0797  1.2581
12876SOL    HW142030   7.785   4.315   0.023 -1.2880 -1.6606  2.1823
12876SOL    HW242031   7.729   4.445   0.078  0.3133 -1.1594  2.6926
12877SOL     OW42032   3.420   1.028   0.977 -0.3539 -0.0060 -0.4032
12877SOL    HW142033   3.424   1.069   0.891 -0.9287 -0.9953 -0.9091
12877SOL    HW242034   3.390   1.098   1.035  3.8316  1.9275 -0.1386
12878SOL     OW42035  10.496   0.589   8.318 -0.2063  0.6112  0.0918
12878SOL    HW142036  10.525   0.655   8.256  0.4042  0.1902 -0.0722
12878SOL    HW242037  10.462   0.518   8.264  1.6540 -0.3917  0.1498
12879SOL     OW42038  10.408   1.993   0.557 -0.7593 -0.6357  0.3364
12879SOL    HW142039  10.485   1.938   0.545 -0.8555 -0.7806  0.3844
12879SOL    HW242040  10.442   2.082   0.555 -0.4152 -0.7177  1.6269
12880SOL     OW42041   2.029   2.006   5.519  0.2260 -0.2242  0.1974
12880SOL    HW142042   2.053   1.917   5.542 -2.0865 -0.5273  1.7892
12880SOL    HW242043   2.089   2.030   5.449  1.2886 -2.8056  0.1211
12881SOL     OW42044   7.822   2.174   7.187  0.7816 -0.1418  0.1660
12881SOL    HW142045   7.897   2.121   7.159  1.0065  0.3000 -0.0665
12881SOL    HW242046   7.859   2.258   7.212  0.1247  0.9827 -2.3430
12882SOL     OW42047   9.545   7.198   9.735 -0.2140 -0.1256 -0.0660
12882SOL    HW142048   9.570   7.186   9.827  0.3877  0.9891 -0.0738
12882SOL    HW242049   9.606   7.143   9.686 -0.8113 -1.0689  0.2067
12883SOL     OW42050   8.989   0.213   8.639 -0.3178 -0.3996 -0.2727
12883SOL    HW142051   9.076   0.178   8.659 -1.1628 -2.2610  0.4224
12883SOL    HW242052   8.984   0.210   8.543  0.7013  0.6272 -0.3786
12884SOL     OW42053   1.995   7.211   9.486 -0.1436 -0.0528 -0.5205
12884SOL    HW142054   2.001   7.116   9.494 -1.0824  0.0123  1.4134
12884SOL    HW242055   2.050   7.232   9.411  1.8222 -1.9170  0.2936
12885SOL     OW42056   1.473   4.324   5.336 -0.5271 -0.3299 -0.2142
12885SOL    HW142057   1.543   4.285   5.285 -0.7010 -1.8296  0.6474
12885SOL    HW242058   1.518   4.371   5.407 -0.3622 -0.5083 -0.2003
12886SOL     OW42059   7.341  10.208   0.385 -0.2996  0.4928 -0.1965
12886SOL    HW142060   7.407  10.276   0.393 -1.6304  2.1382 -2.1788
12886SOL    HW242061   7.387  10.135   0.344  0.7000  0.9301  0.1213
12887SOL     OW42062   7.580   1.030   1.385 -0.2886 -0.2256  0.3892
12887SOL    HW142063   7.488   1.009   1.371 -0.5812  0.8014  0.6681
12887SOL    HW242064   7.586   1.053   1.477 -0.4090  2.6786 -0.2221
12888SOL     OW42065   8.561   0.094   0.509 -0.1691 -0.1552 -0.4242
12888SOL    HW142066   8.635   0.034   0.501  1.9602  1.7159  2.8968
12888SOL    HW242067   8.573   0.158   0.440 -0.0527 -1.1469 -1.3452
12889SOL     OW42068   2.001   8.737   9.429 -0.1811  0.2234 -0.4464
12889SOL    HW142069   2.037   8.826   9.423 -0.7450  0.3956 -1.7132
12889SOL    HW242070   2.045   8.698   9.504 -0.2743  1.7362  0.4280
12890SOL     OW42071   0.514   6.155   9.737  0.5576  0.8879  0.0908
12890SOL    HW142072   0.535   6.246   9.756  1.3614  0.7393 -0.0583
12890SOL    HW242073   0.420   6.156   9.718  0.2363  1.4325  1.5669
12891SOL     OW42074   4.303  10.577   0.260 -0.2603  0.0971  0.0747
12891SOL    HW142075   4.264  10.661   0.283 -0.3134 -0.0201  0.4192
12891SOL    HW242076   4.244  10.512   0.300 -0.0287 -0.0941  0.1063
12892SOL     OW42077   1.767   1.278   1.891  0.1199 -0.2146 -0.0362
12892SOL    HW142078   1.751   1.361   1.937 -2.6807  0.2613 -1.6497
12892SOL    HW242079   1.750   1.211   1.957  0.3444  0.4765  0.7400
12893SOL     OW42080   8.301   2.643   9.273 -0.4767  0.1592 -0.0660
12893SOL    HW142081   8.293   2.736   9.292 -1.0639 -0.0643  0.8417
12893SOL    HW242082   8.211   2.612   9.265 -0.2793 -0.2782 -0.6415
12894SOL     OW42083  10.306   0.635   6.973  0.1058  0.2900  0.6117
12894SOL    HW142084  10.356   0.557   6.997 -0.4469 -0.3435 -0.2481
12894SOL    HW242085  10.298   0.630   6.877 -2.1165  0.0393  0.7640
12895SOL     OW42086   4.194   7.114   0.658  0.5775 -0.5627 -0.4334
12895SOL    HW142087   4.251   7.182   0.621 -1.3354  2.4457  1.7094
12895SOL    HW242088   4.249   7.068   0.721  1.3972  0.3812 -0.4400
12896SOL     OW42089   1.246   0.140   8.811 -0.0018  0.6125 -0.1080
12896SOL    HW142090   1.154   0.144   8.838  0.4787 -1.5678  2.2594
12896SOL    HW242091   1.257   0.052   8.776  0.8434  1.4387 -2.0877
12897SOL     OW42092   0.114   9.833   9.697  0.1893  0.2172 -0.5746
12897SOL    HW142093   0.089   9.851   9.788 -0.8262  0.9038 -0.9747
12897SOL    HW242094   0.047   9.773   9.665 -0.9302  1.9269 -1.5985
12898SOL     OW42095   7.283   5.261   3.440 -0.5793  0.7358  0.4983
12898SOL    HW142096   7.318   5.246   3.352  0.4983  1.2549  0.8273
12898SOL    HW242097   7.221   5.189   3.453 -0.0936  0.1400 -0.3437
12899SOL     OW42098   4.165   2.202   3.593 -0.1778  0.3341  0.0618
12899SOL    HW142099   4.251   2.236   3.568  1.0593 -0.9398  2.2905
12899SOL    HW242100   4.163   2.208   3.688 -1.8371 -1.3449  0.1996
12900SOL     OW42101   8.897   1.687   8.825  0.5862  0.2936 -0.0393
12900SOL    HW142102   8.941   1.769   8.802  1.0553 -0.0700 -0.4732
12900SOL    HW242103   8.833   1.673   8.756  1.1004 -0.1366 -0.4416
12901SOL     OW42104   0.667   5.537   5.790  0.3370  0.1756 -0.2533
12901SOL    HW142105   0.600   5.490   5.740  1.6103  1.2736 -3.2292
12901SOL    HW242106   0.644   5.629   5.779  0.9074  0.4690  0.9105
12902SOL     OW42107   4.428   6.363   9.780  0.1455 -0.0155 -0.3822
12902SOL    HW142108   4.353   6.352   9.839 -0.5719  0.4066 -1.1940
12902SOL    HW242109   4.389   6.382   9.695  1.1751  2.6279 -0.3485
12903SOL     OW42110   5.424   9.496   0.452  1.0415  0.5500  0.6583
12903SOL    HW142111   5.463   9.438   0.516  0.3884 -0.0768  0.4930
12903SOL    HW242112   5.455   9.463   0.367  3.7090  2.6747  0.6768
12904SOL     OW42113   2.989   0.916   3.476  0.0116 -0.1365 -0.3797
12904SOL    HW142114   2.999   0.895   3.383 -0.0849 -1.1372 -0.1742
12904SOL    HW242115   3.017   0.837   3.521 -1.0678 -0.0720  0.4165
12905SOL     OW42116   5.710   8.450   3.649  0.9467 -0.0604  0.0630
12905SOL    HW142117   5.758   8.408   3.720  0.6127  1.2500  1.1071
12905SOL    HW242118   5.749   8.537   3.643  0.8441 -0.0857 -1.2512
12906SOL     OW42119  10.550   3.577   4.994  0.1465 -0.9726  0.5312
12906SOL    HW142120  10.616   3.642   5.017  1.6723 -2.2296 -0.0500
12906SOL    HW242121  10.600   3.497   4.977 -1.5708 -2.0894  0.4020
12907SOL     OW42122   8.836   4.002   4.643 -0.0047 -0.4836  0.2866
12907SOL    HW142123   8.762   3.941   4.632  0.0749 -0.5466  0.0921
12907SOL    HW242124   8.839   4.019   4.737 -0.2005 -0.5651  0.3100
12908SOL     OW42125   4.629   9.249   1.606 -0.4753 -0.0512  0.0666
12908SOL    HW142126   4.574   9.223   1.532 -0.2773 -0.0958 -0.0629
12908SOL    HW242127   4.717   9.258   1.570 -0.5130  0.6741  0.1363
12909SOL     OW42128   9.254   5.267   7.111  0.0146  0.1383  0.1179
12909SOL    HW142129   9.291   5.356   7.104  1.4973 -0.4984 -0.5405
12909SOL    HW242130   9.330   5.211   7.125 -0.7659 -1.1908 -0.8357
12910SOL     OW42131   5.509   4.420  10.609  0.1048  0.0803 -0.1834
12910SOL    HW142132   5.511   4.343  10.666  1.1666 -0.9319 -1.5347
12910SOL    HW242133   5.447   4.398  10.540 -0.0707  0.7019 -0.2323
12911SOL     OW42134   3.733   2.616  10.094 -0.3190 -0.4718 -0.4952
12911SOL    HW142135   3.794   2.688  10.108 -1.5679  0.4825  0.2810
12911SOL    HW242136   3.687   2.639  10.013 -1.8634  0.4765  0.6184
12912SOL     OW42137   3.757   0.056   1.570  0.0072  0.1354  0.1902
12912SOL    HW142138   3.833   0.106   1.599  1.7638 -1.0352 -2.1495
12912SOL    HW242139   3.756  -0.021   1.627  0.6194  0.1254  0.1882
12913SOL     OW42140   7.183   7.482   3.398 -0.3336 -0.3306  0.3878
12913SOL    HW142141   7.179   7.396   3.439  0.4685 -1.5688 -1.8953
12913SOL    HW242142   7.092   7.505   3.381 -0.6226 -0.1691  2.0227
12914SOL     OW42143   2.904   9.842   8.392 -0.2716  0.1808 -0.4354
12914SOL    HW142144   2.931   9.761   8.436  1.0407  1.1770  0.6618
12914SOL    HW242145   2.888   9.904   8.462  0.1710  1.3146 -1.3082
12915SOL     OW42146   1.046   9.686   8.565  0.0395 -0.4558 -0.3985
12915SOL    HW142147   1.140   9.694   8.582  0.1770  0.1930 -1.3885
12915SOL    HW242148   1.006   9.687   8.652  0.9103 -0.1821  0.0122
12916SOL     OW42149   5.848   2.856   5.392 -0.1396 -0.2220  0.4052
12916SOL    HW142150   5.767   2.902   5.414  0.2622  0.7707 -0.1707
12916SOL    HW242151   5.885   2.904   5.319  1.4983 -0.0337  1.3023
12917SOL     OW42152   8.539   1.218   0.491 -0.4015 -0.1979 -0.2224
12917SOL    HW142153   8.587   1.301   0.488  1.0438 -0.9635  0.5440
12917SOL    HW242154   8.492   1.220   0.575 -0.8924  0.1148 -0.5022
12918SOL     OW42155   1.443   6.166   0.124  0.6594 -0.2610 -0.0997
12918SOL    HW142156   1.478   6.160   0.035 -0.9928 -2.2102 -0.6955
12918SOL    HW242157   1.400   6.251   0.128  1.5076  0.2242 -0.8255
12919SOL     OW42158   6.593   0.556   6.442 -0.0406  0.2295  0.2285
12919SOL    HW142159   6.635   0.523   6.521 -0.2757 -0.4239  0.0866
12919SOL    HW242160   6.594   0.651   6.452 -0.7566  0.1340  1.3707
12920SOL     OW42161   0.044   9.973   6.994  0.2066  0.0710 -0.0109
12920SOL    HW142162  -0.025   9.963   7.059  1.0464  0.0564  0.8947
12920SOL    HW242163   0.112   9.912   7.022  1.2440  1.2038  0.0025
12921SOL     OW42164   5.304  10.910   6.109  0.2996 -0.0249 -0.2546
12921SOL    HW142165   5.358  10.889   6.186  0.6516  0.3057 -0.4071
12921SOL    HW242166   5.302  11.006   6.107  0.8061 -0.0217 -1.0075
12922SOL     OW42167   8.117   2.866   2.925  0.4747  0.8011  0.1720
12922SOL    HW142168   8.109   2.774   2.901  0.3867  1.0725 -0.9156
12922SOL    HW242169   8.125   2.912   2.841 -2.2492  2.0613  0.5037
12923SOL     OW42170   0.847   3.217   1.039  0.0328 -0.6320  0.2226
12923SOL    HW142171   0.916   3.284   1.039 -0.9279  0.3872  0.1836
12923SOL    HW242172   0.870   3.158   0.968  0.3368  0.2647 -0.4307
12924SOL     OW42173   1.435   3.018   4.539 -0.3415 -0.0170  0.2308
12924SOL    HW142174   1.420   3.017   4.634 -1.1455 -0.3732  0.1084
12924SOL    HW242175   1.350   3.040   4.502  0.0215  0.3338 -0.4055
12925SOL     OW42176   9.293   1.185   1.767 -0.1564  0.2632 -0.6149
12925SOL    HW142177   9.235   1.259   1.784 -2.3828 -1.5675  0.2180
12925SOL    HW242178   9.368   1.199   1.826 -1.5181  0.7877  1.0629
12926SOL     OW42179   2.307   5.650   6.742 -0.0130 -0.1736 -0.6672
12926SOL    HW142180   2.343   5.596   6.672 -0.3350 -0.0250 -0.9553
12926SOL    HW242181   2.256   5.717   6.696  0.6093  0.5418 -0.3301
12927SOL     OW42182   3.716   5.213   0.382 -0.2299 -0.0347 -0.0616
12927SOL    HW142183   3.753   5.141   0.332 -0.3890  0.0631 -0.3251
12927SOL    HW242184   3.668   5.172   0.454  0.9680 -0.1419  0.6913
12928SOL     OW42185   1.488   6.458   8.508  0.0588 -0.0140 -0.5949
12928SOL    HW142186   1.496   6.444   8.414 -1.6578  0.6224 -0.8796
12928SOL    HW242187   1.473   6.371   8.544  1.0097 -0.2975 -0.8522
12929SOL     OW42188   2.322   1.378   2.716 -0.3340  0.3976 -0.3854
12929SOL    HW142189   2.357   1.436   2.784 -0.8663 -0.0401  0.2714
12929SOL    HW242190   2.399   1.353   2.665 -0.0103  1.1900 -0.3033
12930SOL     OW42191   3.525   4.565   4.172  0.0544 -0.1324  0.3676
12930SOL    HW142192   3.591   4.497   4.185  0.4617  0.1938  0.0579
12930SOL    HW242193   3.497   4.589   4.260 -2.2188 -2.7067  0.4796
12931SOL     OW42194   3.345   7.570   9.709  0.2182 -1.0025 -0.1236
12931SOL    HW142195   3.413   7.515   9.747  1.1900  0.0155 -0.3120
12931SOL    HW242196   3.376   7.587   9.620  2.1637  3.1139  1.0670
12932SOL     OW42197   1.796   8.879   0.479  0.3199  0.0555 -0.9530
12932SOL    HW142198   1.764   8.900   0.391  0.3418  0.4789 -0.8619
12932SOL    HW242199   1.732   8.920   0.538 -0.3564 -1.2291 -0.7622
12933SOL     OW42200   2.938   7.915   5.396  0.0909 -0.4138  0.3200
12933SOL    HW142201   2.955   7.929   5.489  1.3113  0.4081 -0.0059
12933SOL    HW242202   3.015   7.952   5.352 -0.6276 -0.4882 -1.0318
12934SOL     OW42203   1.168   0.293   8.296 -0.2836 -0.3166 -0.1831
12934SOL    HW142204   1.139   0.207   8.325  0.7118 -0.7549 -0.4486
12934SOL    HW242205   1.122   0.355   8.353  0.2753 -1.0885  1.1386
12935SOL     OW42206   7.155   0.161   4.438  0.2158  0.3010  0.7652
12935SOL    HW142207   7.163   0.067   4.426 -1.6523  0.3385 -1.3124
12935SOL    HW242208   7.239   0.196   4.408 -0.1397 -0.5380 -1.3692
12936SOL     OW42209   7.096  10.158   8.304 -0.0829  0.3537  0.1397
12936SOL    HW142210   7.138  10.218   8.366 -1.3796  1.2534  0.1894
12936SOL    HW242211   7.149  10.164   8.225 -0.3359  1.7860  0.0572
12937SOL     OW42212  10.252   1.757   0.527 -0.3314  0.1839  0.5243
12937SOL    HW142213  10.285   1.742   0.438 -3.5841 -0.2988 -0.7196
12937SOL    HW242214  10.285   1.844   0.550  1.1026  0.0619 -0.8390
12938SOL     OW42215   8.490   3.126   7.520 -0.0460  0.4269  0.8827
12938SOL    HW142216   8.574   3.165   7.497  0.0049  2.2927  3.7670
12938SOL    HW242217   8.424   3.184   7.482 -0.0989 -0.4889 -0.5193
12939SOL     OW42218   2.363   9.693   8.910  0.5041  0.6181  0.1779
12939SOL    HW142219   2.411   9.727   8.985  1.1577 -0.9799  0.5276
12939SOL    HW242220   2.349   9.769   8.853  0.9717  1.6390  1.3876
12940SOL     OW42221   0.339   3.394   5.997 -0.6256 -0.1972  0.0311
12940SOL    HW142222   0.264   3.345   6.032 -1.1522  0.6549  0.1279
12940SOL    HW242223   0.322   3.485   6.023  0.3760  0.0272 -0.0736
12941SOL     OW42224   4.039   9.671  10.121  0.0404 -0.0065  0.1894
12941SOL    HW142225   4.017   9.699  10.032 -0.3641 -1.2974 -0.1452
12941SOL    HW242226   3.991   9.732  10.178 -1.0004 -0.1513 -0.5017
12942SOL     OW42227   3.055   5.450   8.278  0.7957 -0.3927 -0.4534
12942SOL    HW142228   3.131   5.499   8.248 -0.3657  2.1916  0.5143
12942SOL    HW242229   2.991   5.460   8.208  0.5862 -0.6464 -0.2998
12943SOL     OW42230   3.052   1.438   5.625  0.4450 -0.2487  0.0539
12943SOL    HW142231   3.023   1.348   5.638 -1.9188  0.6965  2.0339
12943SOL    HW242232   3.123   1.450   5.688 -0.7882 -0.1148  1.4711
12944SOL     OW42233   2.738   7.762   1.678  0.0896  0.1385  0.2781
12944SOL    HW142234   2.833   7.772   1.679  0.0265  0.9244 -0.2849
12944SOL    HW242235   2.721   7.686   1.734  1.1775 -1.2350 -1.1522
12945SOL     OW42236   9.969   1.974   8.110  0.1760  0.5485 -0.6465
12945SOL    HW142237   9.995   1.968   8.018  1.4591 -0.9564 -0.2246
12945SOL    HW242238  10.049   1.952   8.159  0.2442  3.7615  0.9269
12946SOL     OW42239  10.700   6.233   2.461  0.2509  0.0547  0.5525
12946SOL    HW142240  10.703   6.298   2.391  1.1523 -0.9025 -0.3494
12946SOL    HW242241  10.766   6.168   2.436 -1.2731 -1.7153  0.8967
12947SOL     OW42242   3.534   4.207   5.415  0.3299  0.4840 -0.3581
12947SOL    HW142243   3.477   4.271   5.458  1.9685  1.7016  0.0805
12947SOL    HW242244   3.540   4.237   5.324 -0.5877 -0.2951 -0.7023
12948SOL     OW42245   5.183   7.981   6.643  0.9830 -0.3714  0.2398
12948SOL    HW142246   5.254   7.945   6.590  2.6118  0.0632  2.0300
12948SOL    HW242247   5.197   7.943   6.730 -2.4644 -2.2528  0.1649
12949SOL     OW42248   8.429   1.316   5.936  0.3435  0.3298  0.2230
12949SOL    HW142249   8.503   1.284   5.885  0.4927  0.0236  0.6187
12949SOL    HW242250   8.465   1.388   5.988  0.2841  0.3944  0.1737
12950SOL     OW42251  10.804   9.349   9.207 -0.2574  0.5444  0.1039
12950SOL    HW142252  10.876   9.285   9.203 -0.7192 -0.0620  1.1962
12950SOL    HW242253  10.847   9.432   9.223  0.1892  0.1216  1.1840
12951SOL     OW42254   1.291   2.714   3.081 -0.1086 -0.1647  0.6684
12951SOL    HW142255   1.235   2.643   3.051 -1.3371  0.0845  2.2204
12951SOL    HW242256   1.329   2.681   3.163  1.3099  0.0380  0.1236
12952SOL     OW42257   0.292   4.771   5.564 -0.2073  0.0613  0.3514
12952SOL    HW142258   0.313   4.761   5.656  0.2644  0.6224  0.3085
12952SOL    HW242259   0.336   4.851   5.537 -1.5672  0.7212 -0.0045
12953SOL     OW42260  10.539   1.731  10.316  0.3113 -0.2107  0.1722
12953SOL    HW142261  10.504   1.674  10.384  0.3721 -2.1567 -1.3364
12953SOL    HW242262  10.594   1.673  10.262 -0.3180  1.0648 -1.9441
12954SOL     OW42263  10.520   3.578  10.505  0.5362 -0.0349  0.0362
12954SOL    HW142264  10.546   3.492  10.538 -0.7073  0.2321  1.8709
12954SOL    HW242265  10.448   3.559  10.444 -0.4100 -0.2755  1.1857
12955SOL     OW42266   3.687   8.154  10.180 -0.3168 -0.0401  1.0182
12955SOL    HW142267   3.722   8.075  10.138 -0.0525  0.0599  1.0512
12955SOL    HW242268   3.762   8.193  10.225  0.0127  1.2692 -0.5717
12956SOL     OW42269   5.131   6.948   1.341 -0.1319 -0.0176 -0.0608
12956SOL    HW142270   5.042   6.959   1.371 -0.0595 -1.5038  0.8241
12956SOL    HW242271   5.183   7.009   1.393 -0.3462 -0.7760  1.0725
12957SOL     OW42272   9.729   8.644   0.169 -0.0839 -0.3152 -0.2085
12957SOL    HW142273   9.783   8.574   0.206 -0.6131 -1.0584 -0.8093
12957SOL    HW242274   9.652   8.648   0.226  0.6615  0.8996  0.7856
12958SOL     OW42275   8.840   2.679   5.875  0.0532 -0.1757 -0.5131
12958SOL    HW142276   8.825   2.773   5.885 -0.1619 -0.4158  2.8820
12958SOL    HW242277   8.908   2.659   5.940  0.5614 -2.2825 -1.5972
12959SOL     OW42278   3.963   1.936   2.168 -0.7496 -0.2932 -0.5279
12959SOL    HW142279   3.891   1.941   2.231 -1.4548  1.3574 -1.4181
12959SOL    HW242280   3.956   2.016   2.116  2.1578  0.2917 -0.1964
12960SOL     OW42281   2.896   0.094   6.977  0.0795  0.1169  0.1639
12960SOL    HW142282   2.925   0.008   6.946  1.0469  0.2769  0.5880
12960SOL    HW242283   2.888   0.084   7.072  0.2060  0.4903  0.2173
12961SOL     OW42284   8.135   5.998   0.847 -0.3270 -0.3995  0.2324
12961SOL    HW142285   8.058   6.016   0.793 -0.8331 -0.8404  0.7907
12961SOL    HW242286   8.209   6.010   0.788 -0.8777 -1.1786 -0.6483
12962SOL     OW42287   5.314   4.399   6.285  0.2356  0.2379  0.6721
12962SOL    HW142288   5.276   4.314   6.306 -0.3440 -0.1480 -1.6646
12962SOL    HW242289   5.239   4.456   6.267  0.6326  0.4532 -0.4325
12963SOL     OW42290   9.394   7.999  10.794 -0.1390  0.1018  0.4829
12963SOL    HW142291   9.378   8.054  10.717 -0.4819  0.8188  1.0572
12963SOL    HW242292   9.478   7.956  10.777  0.3173  1.0937  0.1957
12964SOL     OW42293   4.991   0.468   3.673  0.3416 -0.1221 -0.1325
12964SOL    HW142294   4.955   0.556   3.657  1.6020  0.5213  0.3903
12964SOL    HW242295   5.085   0.483   3.684  0.4506 -1.4282  0.8997
12965SOL     OW42296   9.355   7.350  10.572  0.2596 -0.2130  0.1445
12965SOL    HW142297   9.395   7.420  10.623 -0.1301  0.1343 -0.0175
12965SOL    HW242298   9.275   7.329  10.620  0.1954 -0.2970  0.0011
12966SOL     OW42299   9.467   3.818   1.785  0.0277 -0.0198  0.4431
12966SOL    HW142300   9.496   3.878   1.854  0.6418 -0.3554  0.4793
12966SOL    HW242301   9.389   3.776   1.822  0.6979 -0.6444  1.1901
12967SOL     OW42302   4.017   9.600  10.474  0.1452  0.2745  0.7594
12967SOL    HW142303   3.973   9.638  10.399  0.3645 -1.5992 -0.3947
12967SOL    HW242304   4.111   9.611  10.456  0.3273 -2.7501 -0.8263
12968SOL     OW42305   5.945   7.311   1.820  0.0829 -0.8249  0.5559
12968SOL    HW142306   6.024   7.261   1.799  0.7440 -0.1715  1.4069
12968SOL    HW242307   5.972   7.372   1.889 -0.8194  0.3889 -0.1158
12969SOL     OW42308   1.324   8.493   9.064  1.1181 -0.0117 -0.4409
12969SOL    HW142309   1.325   8.506   9.159  0.0705  1.1883 -0.5755
12969SOL    HW242310   1.232   8.501   9.039  1.4657  0.4094 -1.6531
12970SOL     OW42311   1.127   2.802   2.003  0.3486  0.1296  0.4852
12970SOL    HW142312   1.135   2.762   2.090  0.7028  0.3942  0.5767
12970SOL    HW242313   1.112   2.728   1.944  1.7630 -0.2350  0.5437
12971SOL     OW42314   2.974   5.204  10.181 -0.0214  0.0321 -0.0865
12971SOL    HW142315   2.942   5.147  10.112 -0.8204 -0.7469  0.8917
12971SOL    HW242316   2.956   5.292  10.150 -0.0554 -0.2913 -1.0113
12972SOL     OW42317   3.185   8.192   2.208 -0.3195  0.2296 -0.3927
12972SOL    HW142318   3.133   8.185   2.288  0.9392  0.0066  0.4275
12972SOL    HW242319   3.218   8.282   2.208 -0.2696  0.2118 -0.6289
12973SOL     OW42320   6.617   2.218   9.569 -0.1550  0.2892 -0.0983
12973SOL    HW142321   6.678   2.198   9.498  0.1817 -0.2443  0.3299
12973SOL    HW242322   6.659   2.289   9.617 -0.0681  0.2034 -0.0474
12974SOL     OW42323   2.220   9.628   4.429 -0.2092  0.5713 -0.4618
12974SOL    HW142324   2.299   9.671   4.396 -0.1909  0.6883 -0.2653
12974SOL    HW242325   2.157   9.636   4.357 -0.5512  1.8627 -0.0427
12975SOL     OW42326   9.278   4.834   4.063 -0.4892 -0.4053 -0.4399
12975SOL    HW142327   9.228   4.911   4.037 -0.9511 -0.3164  0.6336
12975SOL    HW242328   9.369   4.858   4.045 -0.6045  0.4958  0.0934
12976SOL     OW42329   6.087   0.133   3.813 -0.2262 -0.0145  0.0351
12976SOL    HW142330   6.021   0.197   3.790  0.9774  0.4418 -2.5245
12976SOL    HW242331   6.150   0.181   3.867 -0.4007  0.3976 -0.1238
12977SOL     OW42332   7.782   4.232   1.483 -0.4488  0.3890 -0.0120
12977SOL    HW142333   7.868   4.203   1.513 -0.4740 -2.6258 -2.4421
12977SOL    HW242334   7.800   4.310   1.431  0.6374  0.5701  0.6080
12978SOL     OW42335   4.576   0.995   2.414 -0.4058  0.0755  0.5815
12978SOL    HW142336   4.490   0.952   2.411  0.6487 -2.2970 -3.5844
12978SOL    HW242337   4.559   1.083   2.379 -1.0512 -0.7083 -1.1764
12979SOL     OW42338   6.389   8.853  10.130 -0.2271  0.1136 -0.1481
12979SOL    HW142339   6.353   8.931  10.087  0.1318  0.7711  0.7070
12979SOL    HW242340   6.314   8.797  10.147 -0.2131 -0.9113 -3.0379
12980SOL     OW42341   0.530  10.600   0.102 -0.2316  0.2324 -0.0770
12980SOL    HW142342   0.610  10.553   0.125  0.5812  1.5504 -0.1434
12980SOL    HW242343   0.459  10.539   0.124  0.7413 -0.6175  0.7864
12981SOL     OW42344   7.329   5.570   4.070 -0.0713  0.5732 -0.0340
12981SOL    HW142345   7.315   5.479   4.043 -2.2911  0.7566  0.3210
12981SOL    HW242346   7.393   5.564   4.141 -0.2116 -0.7188  0.0108
12982SOL     OW42347   1.756   5.785   7.369 -0.3895 -0.3310  0.0876
12982SOL    HW142348   1.829   5.790   7.308  0.2210 -1.3654  0.7026
12982SOL    HW242349   1.796   5.766   7.454 -1.1472  1.8448  1.0013
12983SOL     OW42350   8.188   3.453   2.664 -0.0672 -0.3404  0.0236
12983SOL    HW142351   8.250   3.453   2.591  0.1498  1.3141  0.1488
12983SOL    HW242352   8.205   3.372   2.712  1.5746 -0.2174 -0.3101
12984SOL     OW42353   3.303  10.188   5.043  0.3064  0.0316 -0.3462
12984SOL    HW142354   3.393  10.160   5.062  0.5154  1.1965  0.5284
12984SOL    HW242355   3.274  10.231   5.124 -0.9858 -0.1802 -0.6708
12985SOL     OW42356   2.637   2.043   9.828 -0.3540 -0.9187 -0.1296
12985SOL    HW142357   2.639   1.967   9.886 -0.6497 -1.8205 -1.2812
12985SOL    HW242358   2.639   2.007   9.740  0.0974  0.4314 -0.7056
12986SOL     OW42359   6.692   8.274   5.897  0.3935 -0.1990  0.3914
12986SOL    HW142360   6.608   8.320   5.898  0.8269  0.6803  2.7923
12986SOL    HW242361   6.717   8.272   5.805 -2.2907 -0.5961 -0.4326
12987SOL     OW42362   0.368   0.988   6.419  0.4130 -0.0578 -0.1776
12987SOL    HW142363   0.404   0.908   6.457 -2.9744 -1.4169  0.5634
12987SOL    HW242364   0.364   0.971   6.325  2.4571  0.5354 -0.4160
12988SOL     OW42365   3.141   9.487   0.758  0.0371 -0.0777  0.2661
12988SOL    HW142366   3.057   9.507   0.799 -0.1511 -2.2081  1.0329
12988SOL    HW242367   3.129   9.401   0.718  1.6486 -0.1056 -0.2587
12989SOL     OW42368   1.182   4.538   9.393  0.0605 -0.4397  0.1375
12989SOL    HW142369   1.164   4.624   9.356  1.8075  1.1042  2.6366
12989SOL    HW242370   1.102   4.516   9.442 -0.1163  0.1170  0.1024
12990SOL     OW42371   3.596   1.344   8.149  0.0797 -0.0388  0.1688
12990SOL    HW142372   3.637   1.406   8.209 -2.9892  0.7174  1.6925
12990SOL    HW242373   3.667   1.286   8.122  2.8290  3.1895 -0.2279
12991SOL     OW42374   3.807   4.688   8.019 -0.1851  0.1103  0.3513
12991SOL    HW142375   3.842   4.768   7.980 -0.3424  0.0374  0.0568
12991SOL    HW242376   3.801   4.627   7.946  1.4579 -0.7049  0.8376
12992SOL     OW42377   5.299   1.098   8.166  0.1655 -0.1271  0.0678
12992SOL    HW142378   5.314   1.150   8.087 -1.2469  0.3215  0.0685
12992SOL    HW242379   5.375   1.039   8.171  0.8539  0.6428 -0.9664
12993SOL     OW42380  10.591   3.327   1.675 -0.3183  0.0669 -0.0414
12993SOL    HW142381  10.652   3.355   1.744 -0.3792  1.4729 -0.5312
12993SOL    HW242382  10.524   3.395   1.673 -1.5333 -1.0808 -0.0210
12994SOL     OW42383   0.335   9.497   5.637  0.0598 -0.0904 -0.4038
12994SOL    HW142384   0.281   9.418   5.633 -1.6840  1.0202 -0.1016
12994SOL    HW242385   0.292   9.558   5.577 -0.1269  1.4550  1.2189
12995SOL     OW42386   0.160   3.787   0.349 -0.0577 -0.2360  0.1568
12995SOL    HW142387   0.166   3.692   0.365 -2.6049 -0.7006 -1.1880
12995SOL    HW242388   0.077   3.813   0.388 -1.1183  0.6894 -2.4696
12996SOL     OW42389   1.622   3.715   2.561  0.4330 -0.3878  0.5439
12996SOL    HW142390   1.528   3.704   2.548  0.4586 -0.0859  0.0497
12996SOL    HW242391   1.635   3.810   2.558  0.8145 -0.4507  0.1532
12997SOL     OW42392   2.800   7.619   2.840  0.5209  0.0226 -0.1909
12997SOL    HW142393   2.798   7.534   2.884 -0.3152  0.1556  0.0446
12997SOL    HW242394   2.710   7.633   2.812  0.6627  0.8133 -0.2618
12998SOL     OW42395   5.293   6.047   8.296  0.0021 -0.5041  0.2733
12998SOL    HW142396   5.356   5.976   8.283 -0.5397 -1.4217  2.2634
12998SOL    HW242397   5.331   6.100   8.366  0.8634  1.8243 -1.8094
12999SOL     OW42398   4.370   8.407   7.783  0.1987 -0.7680  0.3532
12999SOL    HW142399   4.335   8.355   7.855  0.6103 -2.1925 -0.4503
12999SOL    HW242400   4.431   8.349   7.738  0.6825  0.4142 -0.5779
13000SOL     OW42401   0.290   5.455   3.888  0.6698  0.0176 -0.2215
13000SOL    HW142402   0.262   5.544   3.867  3.0464  1.1693  1.0097
13000SOL    HW242403   0.230   5.426   3.956  0.0623  0.8325 -0.4002
13001SOL     OW42404   9.867   5.252   7.494  0.2266  0.0537  0.1966
13001SOL    HW142405   9.960   5.238   7.507  0.1718 -0.0234  0.5223
13001SOL    HW242406   9.857   5.347   7.491  0.6087  0.0829 -2.0675
13002SOL     OW42407   7.895   2.825   3.322  0.2353  0.6934  0.3072
13002SOL    HW142408   7.907   2.873   3.240 -0.8088 -0.8063 -0.7769
13002SOL    HW242409   7.939   2.879   3.388  0.9909  2.0097 -1.2022
13003SOL     OW42410   5.083   5.025   4.873  0.5908 -0.1579 -0.3640
13003SOL    HW142411   5.015   5.059   4.815  0.3500  0.9106  0.5247
13003SOL    HW242412   5.041   5.020   4.959  1.5848  0.3602  0.1637
13004SOL     OW42413   3.172   0.285   7.901 -0.5347  0.1993  0.2563
13004SOL    HW142414   3.156   0.294   7.807  1.7459 -0.0620 -0.2016
13004SOL    HW242415   3.106   0.341   7.942  0.5125  2.9938 -1.6244
13005SOL     OW42416   9.491   2.378   2.959  0.5910  0.7124  0.4607
13005SOL    HW142417   9.549   2.305   2.981  1.3592  0.5227 -1.9317
13005SOL    HW242418   9.404   2.339   2.956  1.0727 -0.3383 -1.4786
13006SOL     OW42419   6.833   0.258   4.713  0.3830 -0.7739  0.2054
13006SOL    HW142420   6.876   0.292   4.792  2.1068  0.3411 -1.1389
13006SOL    HW242421   6.867   0.312   4.642 -1.5192 -1.4130 -1.2645
13007SOL     OW42422  10.105   3.158   8.949 -0.3826 -0.5258 -0.4877
13007SOL    HW142423  10.143   3.115   9.025  0.1079  1.2381  0.3286
13007SOL    HW242424  10.048   3.226   8.986 -1.0511 -0.4027 -1.6970
13008SOL     OW42425   7.058   4.535   4.568  0.1334  0.2799 -0.1807
13008SOL    HW142426   7.117   4.462   4.550 -2.3477 -1.7015 -0.8753
13008SOL    HW242427   7.042   4.574   4.483 -1.0380 -0.4748 -0.3345
13009SOL     OW42428   1.146   5.797   5.799 -0.0805 -0.1983 -0.4064
13009SOL    HW142429   1.209   5.788   5.870 -0.7235  1.7406  0.4608
13009SOL    HW242430   1.110   5.885   5.809 -0.8434 -0.1977 -2.6073
13010SOL     OW42431   1.022   6.466  10.090 -0.0466 -0.2242 -0.8836
13010SOL    HW142432   0.979   6.509  10.016  0.3378  2.4848  0.3321
13010SOL    HW242433   1.003   6.523  10.165  1.8348 -1.3879  0.5691
13011SOL     OW42434   5.116   0.557   4.272  0.2861 -0.6167  0.3387
13011SOL    HW142435   5.030   0.587   4.242  0.7613  0.6914  0.2464
13011SOL    HW242436   5.126   0.595   4.359  1.3225  0.3842 -0.1877
13012SOL     OW42437  10.804   7.028   6.866 -0.0261 -0.5299 -0.4297
13012SOL    HW142438  10.722   7.021   6.915 -0.0176 -2.8751 -0.6684
13012SOL    HW242439  10.865   7.071   6.927 -0.6993 -1.1447  0.7019
13013SOL     OW42440  10.881   8.259   6.440 -0.0438 -0.0714  0.2241
13013SOL    HW142441  10.790   8.245   6.412 -0.6356  0.3502  1.8328
13013SOL    HW242442  10.919   8.172   6.445 -0.8528 -0.3883  1.0751
13014SOL     OW42443   4.714   4.706   3.180 -0.1211  0.2192  0.1670
13014SOL    HW142444   4.625   4.739   3.169 -0.5895 -0.4902  1.5106
13014SOL    HW242445   4.760   4.777   3.225 -0.4299  0.0398  0.7840
13015SOL     OW42446   9.709   2.313   3.934 -0.4145  0.2854  0.4763
13015SOL    HW142447   9.626   2.312   3.982 -0.7762  0.5288 -0.1316
13015SOL    HW242448   9.698   2.383   3.870 -0.6499 -1.2029 -1.1959
13016SOL     OW42449   5.015  10.018  10.436 -0.3647  0.3481  0.2061
13016SOL    HW142450   5.097   9.986  10.474 -1.0621  0.1482  1.6187
13016SOL    HW242451   4.957  10.028  10.511 -2.0843 -0.8286 -0.9104
13017SOL     OW42452   2.365   7.668  10.266 -0.2252  0.6999  0.1301
13017SOL    HW142453   2.390   7.587  10.310  1.1124  0.2979 -1.2803
13017SOL    HW242454   2.283   7.647  10.221 -0.4982  0.4926  0.7184
13018SOL     OW42455   3.353   4.947   3.812 -0.6061  0.1705  0.0281
13018SOL    HW142456   3.262   4.958   3.839 -0.4008  1.3180  0.2897
13018SOL    HW242457   3.380   4.864   3.852 -1.8341 -0.7039 -0.9098
13019SOL     OW42458   1.989   8.604  10.621  0.1022 -0.4616 -0.2834
13019SOL    HW142459   1.951   8.656  10.692  1.3716  1.4442 -0.9568
13019SOL    HW242460   1.913   8.569  10.574 -0.7586 -0.2485  0.9150
13020SOL     OW42461   6.061   2.021   8.425 -0.0307 -0.6188  0.8104
13020SOL    HW142462   6.124   2.022   8.497 -0.3164 -1.4498  1.0781
13020SOL    HW242463   5.985   2.068   8.458 -0.0933 -0.8454  0.9896
13021SOL     OW42464   6.384   7.158   0.360  0.4110 -0.4089 -0.6463
13021SOL    HW142465   6.435   7.106   0.422 -0.3545 -0.9841 -0.4859
13021SOL    HW242466   6.412   7.126   0.274  2.0297  0.9161 -0.6494
13022SOL     OW42467   2.700   1.800   1.107 -0.2592 -0.2544  0.1421
13022SOL    HW142468   2.724   1.885   1.144 -0.6971  0.4719 -1.1753
13022SOL    HW242469   2.782   1.767   1.070 -0.0706 -0.4585  0.7260
13023SOL     OW42470   9.641  10.498   7.333  0.5440 -0.3858  0.3738
13023SOL    HW142471   9.673  10.577   7.289  0.0985 -0.1955  0.3849
13023SOL    HW242472   9.605  10.444   7.263 -4.0199  1.6867  0.7548
13024SOL     OW42473   2.916   4.559   9.977 -0.8575  0.2049  0.1353
13024SOL    HW142474   2.893   4.652   9.979 -3.6860 -0.4204  1.6049
13024SOL    HW242475   3.011   4.558   9.991 -0.5107  2.8733 -1.3160
13025SOL     OW42476   1.119   3.745   3.024 -0.9204 -0.1864 -0.4870
13025SOL    HW142477   1.190   3.808   3.011 -0.1811 -1.2130 -1.7135
13025SOL    HW242478   1.039   3.793   3.000 -0.5024  0.5939 -0.3411
13026SOL     OW42479   7.292  10.917  10.442 -0.4459  0.1961 -0.0851
13026SOL    HW142480   7.365  10.978  10.446  0.2089 -0.6376  2.0758
13026SOL    HW242481   7.257  10.927  10.353  1.5087  1.4939 -0.7723
13027SOL     OW42482   8.543   4.647   7.025  0.1701  0.5364  0.2019
13027SOL    HW142483   8.517   4.719   7.083  0.5075  0.3233  0.6217
13027SOL    HW242484   8.531   4.569   7.078  0.2247  0.3161 -0.1099
13028SOL     OW42485   0.161  10.165   2.950  0.0466  0.4025  0.1533
13028SOL    HW142486   0.174  10.112   3.029 -0.0721 -0.1847 -0.2231
13028SOL    HW242487   0.085  10.220   2.971  1.4780  2.0267  1.3816
13029SOL     OW42488   1.428  10.690   1.934 -0.5481  0.1175  0.0307
13029SOL    HW142489   1.393  10.778   1.920 -1.5330 -0.2988 -0.1702
13029SOL    HW242490   1.405  10.642   1.854 -0.6976 -0.5404  0.4647
13030SOL     OW42491   9.933   9.899   9.750  0.1941 -0.4957 -0.4542
13030SOL    HW142492  10.012   9.871   9.703 -0.5276 -0.8177 -1.5045
13030SOL    HW242493   9.961   9.903   9.842  1.9254  1.2013 -0.9915
13031SOL     OW42494   9.412   9.674   7.544  0.2616 -0.1759 -0.0522
13031SOL    HW142495   9.344   9.741   7.530 -0.0597 -0.0821  1.6959
13031SOL    HW242496   9.410   9.620   7.464 -1.0437  0.5386 -0.5300
13032SOL     OW42497   9.144   8.589   3.115 -0.0818 -0.0210  0.4425
13032SOL    HW142498   9.091   8.551   3.044 -0.2425  1.2661 -0.1546
13032SOL    HW242499   9.083   8.647   3.162  0.2903 -0.0779  0.9999
13033SOL     OW42500   2.505   9.303   4.179  0.1923  0.7932 -0.2707
13033SOL    HW142501   2.439   9.310   4.248 -0.3049 -0.2567 -0.6141
13033SOL    HW242502   2.571   9.244   4.214 -0.2974 -0.1234 -0.8456
13034SOL     OW42503   9.791   8.819   3.518  0.0454  0.3211 -0.0872
13034SOL    HW142504   9.819   8.799   3.428 -1.7656 -1.0816 -0.3907
13034SOL    HW242505   9.849   8.890   3.545  2.7187 -1.2803 -1.2324
13035SOL     OW42506   6.564  10.392   5.519 -0.1466 -0.3838 -0.1709
13035SOL    HW142507   6.520  10.356   5.596 -1.8585 -1.3491 -1.5328
13035SOL    HW242508   6.494  10.412   5.458  1.0728  1.5511 -1.0442
13036SOL     OW42509   4.979   1.996   1.475  0.3340  0.3998  0.0976
13036SOL    HW142510   4.953   2.064   1.413  0.0060 -0.4559 -0.7263
13036SOL    HW242511   5.074   1.994   1.471  0.2888 -0.3096 -1.1336
13037SOL     OW42512   0.772   4.044   4.719 -0.0984 -0.0697 -0.8086
13037SOL    HW142513   0.837   4.090   4.772 -0.7934  0.8052 -0.6958
13037SOL    HW242514   0.819   4.021   4.639  0.8588 -1.0837  0.0082
13038SOL     OW42515  10.352   4.130   7.167 -0.3800  0.0671 -0.0594
13038SOL    HW142516  10.268   4.118   7.210 -0.9417  0.9492 -0.8566
13038SOL    HW242517  10.398   4.195   7.220  1.8238 -3.6270  3.0871
13039SOL     OW42518   2.831   1.537   5.161 -0.8212  0.1922 -0.4467
13039SOL    HW142519   2.748   1.552   5.206  0.1440 -0.5064  1.7044
13039SOL    HW242520   2.810   1.472   5.094 -1.5268 -2.5606  2.1824
13040SOL     OW42521  10.666   3.200   4.110  0.3307 -0.1926  0.1427
13040SOL    HW142522  10.571   3.207   4.100  0.2980 -0.3136  0.3533
13040SOL    HW242523  10.689   3.120   4.062  0.2318 -0.5411  0.6671
13041SOL     OW42524  10.605   1.392   2.719  0.0912  0.5439 -0.0840
13041SOL    HW142525  10.620   1.299   2.734  3.1482  0.4450 -2.5836
13041SOL    HW242526  10.682   1.435   2.757 -0.1694  1.8060 -0.9183
13042SOL     OW42527   4.309   7.318   3.256  0.2825  0.3027 -0.0003
13042SOL    HW142528   4.289   7.228   3.231  0.7231  0.5622 -1.3950
13042SOL    HW242529   4.233   7.368   3.227  0.1480  0.4173  0.5444
13043SOL     OW42530   4.024   7.721  10.402 -0.2394  0.1121  0.7907
13043SOL    HW142531   4.037   7.813  10.425  1.5693  0.7691 -2.2226
13043SOL    HW242532   4.025   7.675  10.486  1.4873  2.5587  2.2673
13044SOL     OW42533   0.423   8.638   1.641  0.3430 -0.2978 -0.0782
13044SOL    HW142534   0.371   8.665   1.566  0.5575  0.3568  0.0003
13044SOL    HW242535   0.384   8.683   1.716  1.7778  1.2778 -0.1978
13045SOL     OW42536   1.522  10.889   2.214  0.2199  0.4670 -0.7499
13045SOL    HW142537   1.496  10.887   2.307  0.3412  2.2394 -0.6554
13045SOL    HW242538   1.456  10.835   2.170 -0.5254  0.5628  0.2059
13046SOL     OW42539   8.124   3.708   0.378 -0.2968  0.2597 -0.1749
13046SOL    HW142540   8.147   3.699   0.286 -0.4652  0.9049 -0.2856
13046SOL    HW242541   8.202   3.679   0.426 -0.8149 -1.8034 -0.4795
13047SOL     OW42542  10.620   4.695   3.054  0.3390  0.4498  0.0486
13047SOL    HW142543  10.589   4.781   3.082 -0.2930 -0.3203  1.8568
13047SOL    HW242544  10.614   4.697   2.958 -2.0456  1.5510  0.1641
13048SOL     OW42545   3.223   0.973   7.525  0.0007 -0.4991 -0.0231
13048SOL    HW142546   3.255   1.031   7.594  1.7580  0.6747 -1.7360
13048SOL    HW242547   3.257   0.887   7.548  2.0338  0.1992 -0.2818
13049SOL     OW42548  10.592   0.765   3.036  0.5268  0.4618 -0.2288
13049SOL    HW142549  10.621   0.695   3.094 -1.2852  1.4495  2.0505
13049SOL    HW242550  10.673   0.807   3.007  1.5542 -1.1165  0.2455
13050SOL     OW42551   1.686   4.575   1.713  0.2975 -0.6490 -0.3143
13050SOL    HW142552   1.683   4.502   1.774 -1.0054 -0.3847 -0.0308
13050SOL    HW242553   1.607   4.564   1.659  0.2566  0.3495 -0.4799
13051SOL     OW42554   2.325  10.343   9.584 -0.1209  0.5283 -0.0421
13051SOL    HW142555   2.236  10.378   9.582 -0.7040 -0.7954  1.0686
13051SOL    HW242556   2.379  10.413   9.547 -1.5197  1.6472 -0.0630
13052SOL     OW42557   6.079   2.976   9.808 -0.2945 -0.1799 -0.2462
13052SOL    HW142558   6.066   3.048   9.746 -1.6774  0.7139  1.0065
13052SOL    HW242559   5.991   2.941   9.823  0.2198 -1.3856  0.0391
13053SOL     OW42560   1.724   4.664   2.978 -0.0251 -0.2224  0.0453
13053SOL    HW142561   1.819   4.675   2.970  0.0586 -0.8319  0.1797
13053SOL    HW242562   1.700   4.606   2.906 -0.8277  2.6134 -2.1692
13054SOL     OW42563   1.377  10.856  10.044 -0.5755  0.4687 -0.1018
13054SOL    HW142564   1.438  10.914   9.997 -2.2550  2.0233 -0.4690
13054SOL    HW242565   1.410  10.855  10.134  0.2661  0.8983 -0.3944
13055SOL     OW42566   6.683   2.398   0.140  0.4577  0.1794  0.0366
13055SOL    HW142567   6.769   2.408   0.099 -0.0008 -0.7838 -1.2477
13055SOL    HW242568   6.686   2.454   0.217  1.8860  0.9285 -0.5319
13056SOL     OW42569   9.566   0.330   1.761  0.5614 -0.3881 -0.3501
13056SOL    HW142570   9.624   0.401   1.737 -0.4742  0.6577  0.1589
13056SOL    HW242571   9.530   0.299   1.678 -0.4562  0.9863 -0.4527
13057SOL     OW42572   5.936   2.196   8.598  0.1154  0.0454 -0.0514
13057SOL    HW142573   6.013   2.249   8.577  0.4392 -0.4488 -0.1360
13057SOL    HW242574   5.939   2.186   8.693  1.0053 -1.2289 -0.1979
13058SOL     OW42575   7.618   7.173   8.577 -0.4651 -0.2433  0.0378
13058SOL    HW142576   7.543   7.117   8.556 -1.7687  0.5613  2.1707
13058SOL    HW242577   7.624   7.169   8.672  0.2637  2.1408  0.1518
13059SOL     OW42578   4.166   8.564   7.159 -0.5424 -0.1007 -0.0025
13059SOL    HW142579   4.238   8.520   7.203 -1.5157 -1.1463  0.5875
13059SOL    HW242580   4.130   8.623   7.224 -0.3645  0.2776 -0.2380
13060SOL     OW42581   2.993   6.728   2.720 -0.2975 -0.1388 -0.0405
13060SOL    HW142582   3.035   6.643   2.733  2.8782  0.9508 -1.9722
13060SOL    HW242583   3.002   6.772   2.804  2.9115  0.1142 -0.3933
13061SOL     OW42584   0.526   7.380   1.427  0.0669  0.0981  0.2652
13061SOL    HW142585   0.543   7.473   1.407 -1.3633  0.6793  1.5434
13061SOL    HW242586   0.579   7.332   1.363  0.2174  1.7889 -0.9598
13062SOL     OW42587   7.798   1.011   6.403  0.1905 -0.6317 -0.2200
13062SOL    HW142588   7.879   0.960   6.402  1.2924  1.0396  0.0432
13062SOL    HW242589   7.800   1.061   6.322  0.5110  0.9722  0.7194
13063SOL     OW42590   0.997   4.140   8.730  0.2122  0.3559  0.3521
13063SOL    HW142591   1.049   4.220   8.735 -1.4720  1.5098  0.5627
13063SOL    HW242592   1.061   4.070   8.721  1.6989  1.8943 -2.6604
13064SOL     OW42593   3.116  10.075   9.043 -0.2738  0.5214 -0.3630
13064SOL    HW142594   3.190  10.031   9.002 -1.0755  0.8181 -2.2332
13064SOL    HW242595   3.098  10.024   9.122  0.7532 -0.6504 -0.8576
13065SOL     OW42596   1.694   0.790   0.054  0.0958  0.4112 -0.3613
13065SOL    HW142597   1.787   0.767   0.057 -0.0573 -0.2675  2.8440
13065SOL    HW242598   1.650   0.708   0.033  0.0683 -0.4378  2.5417
13066SOL     OW42599   8.798   9.049   7.723 -0.2259  0.3590  0.6378
13066SOL    HW142600   8.859   9.105   7.771 -0.8197  1.3115  0.3004
13066SOL    HW242601   8.813   8.961   7.759  1.6105  0.4958  0.2897
13067SOL     OW42602   9.933   3.179   2.132  0.1539 -0.5478  0.2113
13067SOL    HW142603   9.952   3.175   2.226 -0.8497 -0.3821  0.4332
13067SOL    HW242604   9.904   3.090   2.110 -2.4870  0.0986  0.7338
13068SOL     OW42605   3.194   6.419  10.273 -0.3383  0.2845  0.1184
13068SOL    HW142606   3.192   6.461  10.359 -0.2693  1.0012 -0.2185
13068SOL    HW242607   3.163   6.487  10.213 -0.8615 -0.3657 -0.3613
13069SOL     OW42608   6.784   1.908   2.615 -0.1641 -0.9855  0.1875
13069SOL    HW142609   6.877   1.888   2.619 -0.3190 -1.8745 -0.3702
13069SOL    HW242610   6.760   1.929   2.705  0.6192 -0.5090  0.2931
13070SOL     OW42611   5.082   2.043   9.741 -0.3552 -0.1507  0.5474
13070SOL    HW142612   5.140   2.048   9.816  1.1504  0.8727 -0.6286
13070SOL    HW242613   5.104   1.961   9.698  1.2703  0.8610 -0.6569
13071SOL     OW42614   4.753   3.834   0.475  0.2059 -0.1663 -0.2462
13071SOL    HW142615   4.682   3.885   0.515  0.1281 -1.1489  0.9302
13071SOL    HW242616   4.709   3.776   0.414  0.1596  0.2516 -0.6155
13072SOL     OW42617   1.317   7.503   2.840  0.3266  0.1961 -0.7717
13072SOL    HW142618   1.351   7.442   2.905  0.0554  0.6894 -0.1593
13072SOL    HW242619   1.239   7.460   2.805  1.2490 -0.7082 -1.8126
13073SOL     OW42620   9.795   9.111   9.947  0.6258  0.0542 -0.0836
13073SOL    HW142621   9.700   9.106   9.935  0.6830  1.1396 -1.1442
13073SOL    HW242622   9.809   9.185  10.005  0.8436  0.0617 -0.1422
13074SOL     OW42623   8.431  10.609   6.224  0.1002  0.4192  0.2554
13074SOL    HW142624   8.410  10.680   6.284  2.0695 -0.1579  1.7211
13074SOL    HW242625   8.501  10.644   6.169 -0.5876  0.3906 -0.6716
13075SOL     OW42626   4.811   2.790  10.022  0.1263 -0.5045 -0.0797
13075SOL    HW142627   4.847   2.779  10.111 -0.2913 -1.6147 -0.0366
13075SOL    HW242628   4.780   2.881  10.020 -0.4007 -0.6424  1.1122
13076SOL     OW42629   9.995   2.846   6.811  0.5816 -0.6777 -0.2029
13076SOL    HW142630   9.944   2.913   6.765  0.2528 -1.0543 -0.3933
13076SOL    HW242631   9.966   2.850   6.902 -0.5267 -1.5604 -0.4933
13077SOL     OW42632   5.826   7.723   9.819 -0.0678  0.3681 -0.0075
13077SOL    HW142633   5.808   7.801   9.768 -1.6363  0.0565  0.0194
13077SOL    HW242634   5.816   7.651   9.757  0.9975  0.1618  0.0529
13078SOL     OW42635   7.172   2.872   7.557 -0.2220  0.5749 -0.0839
13078SOL    HW142636   7.088   2.859   7.513 -0.8227  0.6597  1.0181
13078SOL    HW242637   7.164   2.957   7.600  0.5683  0.7477 -0.2575
13079SOL     OW42638   4.449   6.865   7.285 -0.5046  0.3914  0.2630
13079SOL    HW142639   4.473   6.876   7.193 -0.8945  0.2104  0.1364
13079SOL    HW242640   4.531   6.845   7.330 -0.0379  2.0621  0.2163
13080SOL     OW42641   2.181   5.034   0.290 -0.3086 -0.4878  0.2727
13080SOL    HW142642   2.121   4.971   0.250  1.1656 -2.1824  0.5646
13080SOL    HW242643   2.174   5.112   0.235 -1.3308 -1.3251 -0.8447
13081SOL     OW42644   7.189   7.025   1.557 -0.4267 -0.1819  0.1611
13081SOL    HW142645   7.144   6.971   1.622  0.3389  1.9019  2.6175
13081SOL    HW242646   7.273   6.981   1.543 -0.7969 -0.9150  0.2404
13082SOL     OW42647   0.250  10.080   9.383 -0.4153 -0.4810  0.0169
13082SOL    HW142648   0.224   9.992   9.407 -0.7398 -1.1194 -2.3876
13082SOL    HW242649   0.333  10.069   9.336  0.3680  0.6954  1.0657
13083SOL     OW42650   0.716   2.202   1.772  0.2692 -0.6614 -0.3512
13083SOL    HW142651   0.712   2.237   1.861  0.0127 -0.4968 -0.4274
13083SOL    HW242652   0.788   2.250   1.731  0.1382 -0.4636 -0.3511
13084SOL     OW42653   7.472   0.062   4.019  0.3045  0.5554  0.1371
13084SOL    HW142654   7.495   0.137   3.964 -0.5794 -0.5242 -1.8122
13084SOL    HW242655   7.551   0.008   4.020 -0.3473 -0.5499 -2.1059
13085SOL     OW42656   1.272   3.001   7.240  0.6116 -0.3229 -0.2537
13085SOL    HW142657   1.185   3.002   7.200  0.7664 -1.3400 -0.6521
13085SOL    HW242658   1.268   3.068   7.308 -0.8895 -1.1984  0.5845
13086SOL     OW42659   2.147   9.843   7.933 -0.4998 -0.1290 -0.2600
13086SOL    HW142660   2.160   9.756   7.894 -2.1942 -0.5358 -0.0126
13086SOL    HW242661   2.068   9.877   7.891  0.2785  1.4314 -0.5441
13087SOL     OW42662   4.441   7.225   9.865  0.8719  0.1471 -0.5067
13087SOL    HW142663   4.504   7.292   9.840  0.1153  0.2864 -2.0992
13087SOL    HW242664   4.379   7.220   9.792 -0.3261 -0.7778  0.5158
13088SOL     OW42665   3.876   2.380   4.976  0.1692 -0.3804 -0.0945
13088SOL    HW142666   3.834   2.391   5.061  1.0407 -0.7275  0.3938
13088SOL    HW242667   3.819   2.426   4.915 -0.9214 -0.8444  0.5395
13089SOL     OW42668   1.086   2.493   4.374  0.0812 -0.5952 -0.3149
13089SOL    HW142669   1.181   2.499   4.369  0.2674 -3.0954 -0.6513
13089SOL    HW242670   1.067   2.400   4.371 -2.3808 -0.1781  0.1521
13090SOL     OW42671   9.966   9.532   8.205 -0.0542 -0.3979 -0.0970
13090SOL    HW142672  10.046   9.480   8.204  1.6539  2.0639 -2.0999
13090SOL    HW242673   9.951   9.552   8.298  2.0958 -0.2697  0.2617
13091SOL     OW42674   8.832   6.553   2.697 -0.3111 -1.1231  0.3730
13091SOL    HW142675   8.839   6.647   2.711  2.3681 -0.8322 -2.1307
13091SOL    HW242676   8.895   6.515   2.759  1.8516 -0.8280 -1.5108
13092SOL     OW42677   6.882   0.728   4.599 -0.2071 -0.0799 -1.1193
13092SOL    HW142678   6.829   0.648   4.604  1.0967 -0.9743 -1.1237
13092SOL    HW242679   6.818   0.799   4.590 -1.4214 -1.0370 -0.2533
13093SOL     OW42680   6.278   8.606   4.419 -0.1104 -0.4277  0.3806
13093SOL    HW142681   6.291   8.512   4.406 -0.3481 -0.4156  0.0330
13093SOL    HW242682   6.183   8.615   4.428 -0.2111 -0.0656 -0.8931
13094SOL     OW42683   1.080   7.773   6.438  0.0855 -0.2001  0.0980
13094SOL    HW142684   1.168   7.777   6.477  0.6107 -0.2709 -1.0295
13094SOL    HW242685   1.066   7.680   6.419 -0.7067 -0.3401  1.2669
13095SOL     OW42686   3.108  10.345   1.694  0.1848  0.3845 -0.4539
13095SOL    HW142687   3.136  10.428   1.656  0.1636  0.3973 -0.4420
13095SOL    HW242688   3.041  10.312   1.634  1.5124 -0.5461 -1.4859
13096SOL     OW42689   9.707   5.208   5.890  0.1067 -0.2643 -1.3108
13096SOL    HW142690   9.726   5.134   5.946  1.5132  1.1521  0.1831
13096SOL    HW242691   9.755   5.191   5.809 -0.4453 -1.4367 -1.4136
13097SOL     OW42692   5.757   0.178  10.897  0.7664 -0.1194 -0.5931
13097SOL    HW142693   5.824   0.203  10.961  1.0575  0.7756 -1.2253
13097SOL    HW242694   5.766   0.084  10.888  1.5247 -0.0897 -0.2013
13098SOL     OW42695   6.313   5.223   0.298  0.2276 -0.5813  0.0943
13098SOL    HW142696   6.389   5.209   0.355 -0.2059  1.6676  1.3614
13098SOL    HW242697   6.344   5.285   0.232  0.2043 -1.7918 -1.1141
13099SOL     OW42698   6.471   1.604   5.611  0.3206  0.0126 -0.1919
13099SOL    HW142699   6.454   1.512   5.589  0.9127  0.6043 -3.7772
13099SOL    HW242700   6.563   1.617   5.591 -0.3302  1.9378 -2.3704
13100SOL     OW42701   1.449   6.261   3.550 -0.0169 -0.1767  0.2112
13100SOL    HW142702   1.488   6.325   3.610  0.0149 -1.7646  1.9598
13100SOL    HW242703   1.449   6.305   3.465  1.8205  1.3890  0.9614
13101SOL     OW42704   0.607   8.167   7.901  0.4831 -0.3578  0.3555
13101SOL    HW142705   0.698   8.181   7.928  0.3871 -0.3515  0.6884
13101SOL    HW242706   0.555   8.197   7.977  0.1978 -0.0698  0.0493
13102SOL     OW42707   0.821   2.211   9.173  0.3430 -0.5384 -0.0383
13102SOL    HW142708   0.885   2.189   9.240 -0.0643  1.0468  0.9194
13102SOL    HW242709   0.842   2.302   9.149  0.1825 -0.9136 -1.7244
13103SOL     OW42710   5.535   1.632   0.644 -0.1011  0.0090  0.5964
13103SOL    HW142711   5.576   1.575   0.579 -2.5472 -1.9269  0.5983
13103SOL    HW242712   5.480   1.691   0.592 -1.6641 -1.2079  0.7786
13104SOL     OW42713  10.827   4.253   5.984 -1.0023  0.3802 -0.3705
13104SOL    HW142714  10.843   4.322   5.919  0.1973 -1.6819 -2.3924
13104SOL    HW242715  10.906   4.252   6.038 -1.3217  0.9987  0.1359
13105SOL     OW42716   0.325   9.677  10.423 -0.9146 -0.0616  0.4703
13105SOL    HW142717   0.399   9.683  10.362  0.0136 -0.3239  1.5287
13105SOL    HW242718   0.248   9.697  10.370  0.0510  1.6315 -0.3599
13106SOL     OW42719   1.843   8.982   5.715  0.2135 -0.6862  0.0052
13106SOL    HW142720   1.751   8.958   5.707 -0.3995  1.1481  1.0710
13106SOL    HW242721   1.888   8.899   5.731 -1.3763 -1.5068  0.4556
13107SOL     OW42722   9.631   2.759   9.259  0.8067  0.2625  0.5065
13107SOL    HW142723   9.596   2.780   9.345  0.8505  0.9676  0.3565
13107SOL    HW242724   9.726   2.766   9.269  0.7550  1.8677  0.0228
13108SOL     OW42725   9.338   6.286   1.456 -0.0054  0.5843  0.6235
13108SOL    HW142726   9.256   6.306   1.499 -0.7978 -0.3308 -0.3954
13108SOL    HW242727   9.358   6.363   1.403 -1.2623  0.0696 -0.6576
13109SOL     OW42728   3.945  10.176   5.745 -0.2470 -0.3344 -0.0020
13109SOL    HW142729   3.885  10.103   5.734  0.6247 -0.8147 -1.9757
13109SOL    HW242730   4.031  10.135   5.757 -0.0278  0.3657  0.9952
13110SOL     OW42731   7.148   9.622   1.576 -0.0520  0.1035  0.3930
13110SOL    HW142732   7.066   9.664   1.550 -0.3289 -1.1117 -0.7766
13110SOL    HW242733   7.143   9.617   1.672 -0.7446  1.1913  0.4372
13111SOL     OW42734   9.727   7.367   1.302  0.0835  0.0442  0.2777
13111SOL    HW142735   9.792   7.391   1.236 -2.2829  1.8648 -1.5747
13111SOL    HW242736   9.684   7.289   1.266  0.7582 -0.7579  1.1722
13112SOL     OW42737   8.351   9.179   6.165 -0.7634 -0.1790  0.1552
13112SOL    HW142738   8.263   9.142   6.165 -0.5489 -0.7203 -0.3203
13112SOL    HW242739   8.350   9.242   6.093 -0.6538 -0.4709 -0.1050
13113SOL     OW42740   5.864  10.751   8.754  0.2528 -0.3558  0.4706
13113SOL    HW142741   5.806  10.675   8.761 -0.4733  0.2977  1.8562
13113SOL    HW242742   5.887  10.772   8.844  0.2703  1.1972  0.1318
13114SOL     OW42743   5.225  10.006   4.141  0.0751  0.1042 -0.1324
13114SOL    HW142744   5.161  10.050   4.084  0.6259 -1.1842 -1.8196
13114SOL    HW242745   5.172   9.949   4.196 -0.4244  0.9790  0.3216
13115SOL     OW42746   8.737   8.677   3.046  0.4609 -0.7770  0.2516
13115SOL    HW142747   8.697   8.623   3.114  0.8673 -0.9246  0.3759
13115SOL    HW242748   8.743   8.764   3.084  0.2608 -0.7532  0.2310
13116SOL     OW42749   7.967   4.474   3.165 -0.2467  0.1905 -0.3246
13116SOL    HW142750   8.059   4.482   3.143 -0.0680 -1.4764 -0.3295
13116SOL    HW242751   7.960   4.390   3.211 -1.9158 -0.2339 -1.2578
13117SOL     OW42752   7.585   3.332   6.463 -0.0578 -0.1580  0.4842
13117SOL    HW142753   7.574   3.423   6.436 -0.0223 -0.4136 -0.4125
13117SOL    HW242754   7.512   3.316   6.523  0.3142  0.6479  1.1674
13118SOL     OW42755   6.692   2.434  10.454 -0.0482 -0.3887 -0.4044
13118SOL    HW142756   6.744   2.434  10.535 -0.8970 -1.7112  0.1773
13118SOL    HW242757   6.607   2.467  10.480  0.1769  0.8037 -1.1405
13119SOL     OW42758   3.526   1.674   5.957 -0.7541 -0.4455 -0.6464
13119SOL    HW142759   3.435   1.701   5.969 -1.0226 -1.2707 -0.7651
13119SOL    HW242760   3.544   1.618   6.033  0.6089  2.0309  1.0094
13120SOL     OW42761   0.765   9.352   1.351 -0.2189  0.8328 -0.0237
13120SOL    HW142762   0.822   9.289   1.306 -0.0602  0.7551  0.2808
13120SOL    HW242763   0.768   9.325   1.443 -0.8701  0.7399 -0.0254
13121SOL     OW42764   9.632   6.780   2.077  0.0898 -0.0281  0.7353
13121SOL    HW142765   9.667   6.852   2.026 -0.1279  0.0138  0.6411
13121SOL    HW242766   9.656   6.701   2.028 -1.4537  0.0913 -0.2695
13122SOL     OW42767   2.182   2.804   4.576  0.0379  0.0258  0.2949
13122SOL    HW142768   2.144   2.869   4.634 -2.3962 -0.9447 -0.1169
13122SOL    HW242769   2.116   2.735   4.568  2.3160 -2.3615  0.3868
13123SOL     OW42770   7.492  10.824   1.725  0.4561  0.1500 -0.5313
13123SOL    HW142771   7.430  10.897   1.711 -0.2977 -0.8213 -2.8213
13123SOL    HW242772   7.564  10.843   1.666  1.4740  0.2738  0.7145
13124SOL     OW42773  10.582   2.458   4.643  0.4229 -0.6938 -0.4195
13124SOL    HW142774  10.657   2.457   4.582  1.3349 -0.7277  0.6752
13124SOL    HW242775  10.622   2.451   4.730 -0.7681  0.8705  0.2875
13125SOL     OW42776   9.203   9.839   0.160 -0.5833  0.4029 -0.4067
13125SOL    HW142777   9.156   9.797   0.087 -0.5782 -0.9740  0.3453
13125SOL    HW242778   9.172   9.793   0.238  0.2038  1.1326  0.3598
13126SOL     OW42779   8.938   4.112   4.954 -0.1089 -0.2671  0.6224
13126SOL    HW142780   9.029   4.092   4.974  0.6959  2.8709  0.6362
13126SOL    HW242781   8.888   4.068   5.023  1.4526 -1.2667  1.1574
13127SOL     OW42782   1.231   2.592   5.735  0.3420 -0.0556 -0.4361
13127SOL    HW142783   1.261   2.666   5.787 -2.4653  1.4190 -0.7044
13127SOL    HW242784   1.248   2.617   5.644 -0.5347  0.2840 -0.5220
13128SOL     OW42785   5.330   2.717   7.694  0.6287  0.1174  0.3673
13128SOL    HW142786   5.310   2.740   7.603 -1.9961 -0.4391  0.7352
13128SOL    HW242787   5.290   2.787   7.746 -0.3624 -1.0210  1.1804
13129SOL     OW42788   1.550   0.007   1.044  0.1743 -0.1872  0.3422
13129SOL    HW142789   1.462   0.039   1.062 -0.2035 -0.7818 -0.4100
13129SOL    HW242790   1.560  -0.070   1.100 -0.1797 -0.7368 -0.3409
13130SOL     OW42791   4.683   2.377   3.748 -0.6155 -0.1702  0.2183
13130SOL    HW142792   4.651   2.349   3.834  1.1884 -1.1769  0.6039
13130SOL    HW242793   4.749   2.444   3.767  0.1324 -0.7335 -0.3520
13131SOL     OW42794   8.459   5.394   3.716 -0.5237 -0.5947 -0.4665
13131SOL    HW142795   8.466   5.305   3.750  1.3100  0.1120  1.1976
13131SOL    HW242796   8.458   5.449   3.794  0.6119  0.9457 -1.4832
13132SOL     OW42797   6.753  10.570   5.638 -0.2077  0.3602  0.3158
13132SOL    HW142798   6.839  10.567   5.596 -0.4895  2.0800 -0.5265
13132SOL    HW242799   6.694  10.527   5.575 -0.0318 -0.4823  0.7209
13133SOL     OW42800   7.711  10.281   6.527  0.4572  0.0686 -0.5864
13133SOL    HW142801   7.649  10.317   6.464 -0.7702 -2.5404 -0.9662
13133SOL    HW242802   7.685  10.319   6.610  0.5776  1.6763 -1.2439
13134SOL     OW42803   2.561   3.902   1.427  0.5969  0.8877  0.7127
13134SOL    HW142804   2.641   3.932   1.384 -0.7500  1.1573 -1.7529
13134SOL    HW242805   2.567   3.807   1.424 -0.6389  0.8025 -2.6315
13135SOL     OW42806   2.928   3.278   7.690 -0.2782 -0.0202  0.4882
13135SOL    HW142807   2.931   3.301   7.597 -0.6828  0.8195  0.6699
13135SOL    HW242808   2.927   3.182   7.692  1.3743 -0.0806 -0.3101
13136SOL     OW42809   5.609   2.970   1.934  0.0478 -0.2264 -0.1689
13136SOL    HW142810   5.696   3.001   1.958  0.5349 -1.1769 -0.6431
13136SOL    HW242811   5.614   2.956   1.839 -1.5651  2.6275 -0.7775
13137SOL     OW42812   0.804   7.057   6.151  0.0290 -0.1739  0.0223
13137SOL    HW142813   0.814   6.979   6.096 -0.2826 -0.0738 -0.1801
13137SOL    HW242814   0.802   7.023   6.240  0.1760 -0.3707 -0.0478
13138SOL     OW42815   0.978   9.048   9.541 -0.2137  0.1923 -0.4104
13138SOL    HW142816   1.026   9.114   9.491 -0.8979  1.5112  0.6258
13138SOL    HW242817   0.965   9.087   9.627 -0.4032 -1.4120  0.3301
13139SOL     OW42818  10.332   5.667   4.178 -0.6203  0.0957  0.1919
13139SOL    HW142819  10.427   5.676   4.172 -0.5727 -0.3337  0.2326
13139SOL    HW242820  10.318   5.620   4.260 -0.7600 -1.4049 -0.6587
13140SOL     OW42821   5.945   2.965   6.832  0.1724  0.0281 -0.0372
13140SOL    HW142822   5.923   2.934   6.744  1.9110  0.9882 -0.8609
13140SOL    HW242823   5.887   2.915   6.890 -0.0366 -1.6598 -1.6101
13141SOL     OW42824   9.530   2.640   4.963 -0.4225  0.2388  0.5408
13141SOL    HW142825   9.482   2.694   5.026  1.4034  1.9504  0.5817
13141SOL    HW242826   9.508   2.679   4.878 -0.7234 -0.3060  0.3663
13142SOL     OW42827  10.017   6.056   6.010 -0.3645 -0.1376  0.0889
13142SOL    HW142828   9.943   6.025   6.062 -1.5500 -0.2528 -1.5991
13142SOL    HW242829   9.981   6.124   5.954  0.7044 -0.4765 -1.0721
13143SOL     OW42830   0.044   4.245   0.458  0.2075 -0.1282  0.7695
13143SOL    HW142831  -0.034   4.200   0.424  0.6043 -0.4933  0.3350
13143SOL    HW242832   0.022   4.338   0.452 -0.9494 -0.2395  2.4294
13144SOL     OW42833   2.478   9.699   7.181 -0.3434 -0.4094  0.2513
13144SOL    HW142834   2.432   9.644   7.243 -0.8734 -1.5950 -1.1305
13144SOL    HW242835   2.544   9.642   7.141  0.6724  0.5946  0.4311
13145SOL     OW42836  10.507   9.898   1.653  0.6384  0.1582 -0.2541
13145SOL    HW142837  10.455   9.971   1.619 -0.4565 -0.2380  0.5516
13145SOL    HW242838  10.457   9.864   1.726  2.7917  0.7749  1.6321
13146SOL     OW42839   8.784  10.076   6.730 -0.3641 -0.3978 -0.1941
13146SOL    HW142840   8.764  10.067   6.637 -0.6660  1.3213 -0.3225
13146SOL    HW242841   8.825   9.993   6.753 -1.6959 -1.4691 -1.4758
13147SOL     OW42842   7.774   4.826   2.380 -0.1072  0.2249 -0.0846
13147SOL    HW142843   7.701   4.837   2.319  2.8488  2.0693 -3.6900
13147SOL    HW242844   7.791   4.914   2.413  0.0981 -0.2978  1.2351
13148SOL     OW42845   0.125  10.150   9.965  0.1547 -0.4832  0.3967
13148SOL    HW142846   0.081  10.065   9.964  0.1406 -0.4921 -1.2778
13148SOL    HW242847   0.209  10.133  10.007 -1.0421 -0.6380  2.8895
13149SOL     OW42848   1.965   7.249   1.632 -0.3504  0.1453 -0.2948
13149SOL    HW142849   1.881   7.269   1.674 -0.0399 -1.4104  1.1654
13149SOL    HW242850   1.977   7.319   1.568 -1.7378  1.5871  0.9423
13150SOL     OW42851   8.070   3.006  10.118  0.5484  0.5542 -0.4114
13150SOL    HW142852   7.986   2.960  10.119  0.7297  0.1919  1.0748
13150SOL    HW242853   8.096   3.008  10.026 -0.6287 -0.1734 -0.7770
13151SOL     OW42854   4.214   6.033  10.047  0.0729 -0.5762 -0.0425
13151SOL    HW142855   4.124   6.033  10.078  0.9084 -1.0890  2.6043
13151SOL    HW242856   4.214   5.973   9.973 -1.3873 -2.1777  1.1890
13152SOL     OW42857   7.138   4.330   3.315  0.0559 -0.0836 -0.2712
13152SOL    HW142858   7.174   4.280   3.388 -1.3008 -0.3593  0.2468
13152SOL    HW242859   7.072   4.273   3.277 -2.2997  1.6172  0.9945
13153SOL     OW42860   9.063   8.659   8.672 -0.2970  0.1022 -0.3968
13153SOL    HW142861   8.968   8.657   8.657 -0.2239 -0.1333 -0.8435
13153SOL    HW242862   9.100   8.612   8.597  0.1921  0.4493 -0.3772
13154SOL     OW42863   1.920   2.778   7.794 -0.4208  0.1847 -0.1351
13154SOL    HW142864   1.966   2.752   7.714  0.2500  0.2834  0.2110
13154SOL    HW242865   1.887   2.866   7.776 -0.2663  0.2080 -0.3013
13155SOL     OW42866   5.871   5.074   3.261  0.6775  0.1800  0.6368
13155SOL    HW142867   5.801   5.139   3.252  0.3570 -0.0780  1.2251
13155SOL    HW242868   5.936   5.116   3.318  0.2300 -0.2074  1.4396
13156SOL     OW42869   3.328   4.843   7.311  0.0576 -0.0407  0.0738
13156SOL    HW142870   3.256   4.890   7.353  0.8529  1.4095 -0.0828
13156SOL    HW242871   3.311   4.751   7.327 -2.6159  0.1402 -1.2040
13157SOL     OW42872   5.956   1.655   5.395 -0.5517  0.2421 -0.1571
13157SOL    HW142873   6.025   1.595   5.369 -0.4430 -0.5686  1.8195
13157SOL    HW242874   5.959   1.726   5.331  1.5233 -0.2139 -0.6047
13158SOL     OW42875   8.331   3.182   9.120 -0.1533  0.2003 -0.0425
13158SOL    HW142876   8.295   3.254   9.068  1.8632  0.7751 -0.7416
13158SOL    HW242877   8.324   3.105   9.064  0.2250  0.4307 -0.4122
13159SOL     OW42878   7.818  10.462   0.632 -0.6701  0.6386  0.9712
13159SOL    HW142879   7.850  10.536   0.683  1.2571 -0.3134  1.2302
13159SOL    HW242880   7.842  10.385   0.683  1.8439 -0.4084 -1.4871
13160SOL     OW42881   1.658   4.512   4.233 -0.1120 -0.2259 -0.5388
13160SOL    HW142882   1.583   4.554   4.191  0.4359 -0.5159 -1.8643
13160SOL    HW242883   1.631   4.500   4.324 -1.0702  1.0911 -0.6176
13161SOL     OW42884   5.838   2.361   2.989 -0.7479  0.1970  0.4297
13161SOL    HW142885   5.869   2.436   2.938 -0.2677  0.2864  0.8457
13161SOL    HW242886   5.754   2.338   2.949  1.0498 -1.8163 -2.6098
13162SOL     OW42887   9.634   8.864   6.594  0.0239 -0.1565  0.1267
13162SOL    HW142888   9.623   8.769   6.600  0.2461 -0.1045  2.0116
13162SOL    HW242889   9.553   8.895   6.553 -1.1429 -0.9612  1.7139
13163SOL     OW42890   2.338  10.311   8.262  0.5353  0.0575 -0.1811
13163SOL    HW142891   2.432  10.296   8.253  0.4123  0.3478 -2.3920
13163SOL    HW242892   2.319  10.384   8.203 -1.1043 -0.0634  0.1488
13164SOL     OW42893   1.669  10.382   4.511 -0.2654  0.1903  0.2657
13164SOL    HW142894   1.762  10.370   4.492 -0.3212 -0.4681  0.3795
13164SOL    HW242895   1.667  10.452   4.576 -0.0367  2.0433 -1.6375
13165SOL     OW42896   3.752   8.250  10.562  0.8425  0.0248 -0.5559
13165SOL    HW142897   3.792   8.284  10.482 -0.4157  1.5148 -0.5998
13165SOL    HW242898   3.734   8.328  10.615  1.8616 -0.9394  1.3164
13166SOL     OW42899   9.168  10.088   0.063 -0.0487 -0.1702  0.3653
13166SOL    HW142900   9.174  10.148   0.137 -0.7712 -0.2330  0.4827
13166SOL    HW242901   9.168  10.001   0.103 -0.5752 -0.2010  0.3082
13167SOL     OW42902   5.113   0.184   6.507 -0.1840  0.0586 -0.1657
13167SOL    HW142903   5.043   0.246   6.529  1.1580  1.8222 -0.5682
13167SOL    HW242904   5.152   0.160   6.591 -0.5803 -0.0446 -0.0146
13168SOL     OW42905   5.827   7.352   4.263 -0.8623  0.8188 -0.1171
13168SOL    HW142906   5.803   7.343   4.171 -0.7562 -0.9575 -0.0100
13168SOL    HW242907   5.815   7.445   4.283 -3.8914  0.7532 -1.1033
13169SOL     OW42908   1.498   4.299   9.000  0.2156  0.3074  0.3607
13169SOL    HW142909   1.587   4.334   9.004  1.0437 -1.7027  0.5778
13169SOL    HW242910   1.451   4.359   8.941  1.5978  1.6037  0.5272
13170SOL     OW42911   9.454   9.606   2.344 -0.0487 -0.3376  0.6207
13170SOL    HW142912   9.451   9.563   2.259  0.1074  0.0369  0.4248
13170SOL    HW242913   9.523   9.559   2.392 -0.6312 -1.0239  0.8065
13171SOL     OW42914  10.514   8.335   2.029 -0.2859 -0.7289  0.1857
13171SOL    HW142915  10.535   8.392   2.104 -1.1985 -0.0690 -0.0489
13171SOL    HW242916  10.556   8.378   1.954  0.1233 -1.0712  0.2147
13172SOL     OW42917   6.187   5.190   4.807  0.2030 -0.0002  0.0562
13172SOL    HW142918   6.157   5.139   4.883 -0.2605 -0.1536 -0.2296
13172SOL    HW242919   6.153   5.143   4.731  0.3284  0.3756 -0.2362
13173SOL     OW42920   4.342   4.637   1.789  0.8082 -0.2815 -0.3361
13173SOL    HW142921   4.291   4.624   1.709 -1.8546  2.6341  0.7213
13173SOL    HW242922   4.398   4.712   1.770  1.0999 -0.3772  0.1310
13174SOL     OW42923   5.582   0.748   0.376  0.3742  0.5294 -0.0448
13174SOL    HW142924   5.535   0.739   0.293  0.2442 -0.0029  0.0827
13174SOL    HW242925   5.518   0.789   0.435 -0.1029 -0.6269  0.2626
13175SOL     OW42926   5.158  10.903   0.822 -0.5406  0.0056 -0.2138
13175SOL    HW142927   5.231  10.842   0.812  1.0244  1.8861 -1.1496
13175SOL    HW242928   5.169  10.938   0.911  1.8701  2.7027 -1.4075
13176SOL     OW42929   2.509   9.049   8.015 -0.0808 -0.6035  0.3123
13176SOL    HW142930   2.595   9.090   8.016  0.0931 -0.9266  2.0207
13176SOL    HW242931   2.524   8.964   7.972  0.6868 -1.0647  1.4336
13177SOL     OW42932   0.697   0.217   4.853 -0.2418  0.2121  0.1689
13177SOL    HW142933   0.603   0.226   4.874  0.3016  1.6783  2.3325
13177SOL    HW242934   0.738   0.200   4.937  1.3385 -1.9147 -0.9560
13178SOL     OW42935   4.924   7.787   0.841 -0.5357 -0.0867 -0.4158
13178SOL    HW142936   4.981   7.819   0.912 -0.6534  0.8743 -0.7328
13178SOL    HW242937   4.836   7.811   0.869 -0.7576 -1.1945 -0.1265
13179SOL     OW42938   4.123   0.238   3.977  0.1111 -0.0443 -0.2655
13179SOL    HW142939   4.047   0.225   3.921 -1.1297  3.7437  0.2708
13179SOL    HW242940   4.191   0.270   3.919  0.5890 -1.2421 -0.3850
13180SOL     OW42941  10.265  10.366   9.224 -0.3400 -0.5655  0.0388
13180SOL    HW142942  10.232  10.455   9.215  2.1168  0.2688 -1.8022
13180SOL    HW242943  10.193  10.318   9.266 -1.6605  2.2734  1.2943
13181SOL     OW42944  10.790   5.684   0.278  0.2830  0.7029 -0.1777
13181SOL    HW142945  10.875   5.641   0.289 -0.6486 -1.3196 -0.4653
13181SOL    HW242946  10.776   5.687   0.183 -0.7714 -0.7098 -0.0936
13182SOL     OW42947   4.319   2.464   4.094  0.4685 -0.0916  0.5945
13182SOL    HW142948   4.377   2.466   4.170 -0.4468 -1.1683  1.3548
13182SOL    HW242949   4.347   2.387   4.044  1.8757  1.2962 -0.8694
13183SOL     OW42950   4.906   2.906   0.976  0.2531  0.4467  0.3503
13183SOL    HW142951   4.940   2.963   1.045  3.4413  1.4833 -1.8498
13183SOL    HW242952   4.938   2.944   0.895 -0.8977 -2.2916 -1.5667
13184SOL     OW42953  10.592   5.148   0.797 -0.5457 -0.7498  0.5888
13184SOL    HW142954  10.585   5.189   0.711 -1.3150  1.0654  1.4646
13184SOL    HW242955  10.505   5.115   0.816 -0.3588 -1.2200  0.6508
13185SOL     OW42956   2.930   6.568   3.603  0.4019 -0.3635 -0.1199
13185SOL    HW142957   2.970   6.613   3.528  0.9636 -0.5532  0.0617
13185SOL    HW242958   2.995   6.577   3.673  0.6467 -1.6854 -0.1528
13186SOL     OW42959   3.157   5.662   0.923  0.4353 -0.3169  0.1645
13186SOL    HW142960   3.184   5.694   0.837 -0.8275  1.4613  0.3922
13186SOL    HW242961   3.212   5.710   0.986 -0.1261 -0.0317  0.4381
13187SOL     OW42962   4.416   2.690  10.288 -0.1122 -0.2705 -0.5839
13187SOL    HW142963   4.322   2.708  10.288  0.3912  3.0516 -0.6887
13187SOL    HW242964   4.440   2.687  10.196 -0.0550 -0.9495 -0.5542
13188SOL     OW42965   2.954   0.171   8.179 -0.0024  0.1629 -0.0545
13188SOL    HW142966   3.004   0.102   8.135 -0.0383  0.7654 -1.0593
13188SOL    HW242967   3.018   0.217   8.233 -0.0343 -0.8243  0.8512
13189SOL     OW42968   7.874   5.201   9.717 -0.0416  0.2103 -0.3197
13189SOL    HW142969   7.804   5.263   9.738 -0.7548 -1.2792  2.0538
13189SOL    HW242970   7.849   5.165   9.632 -0.4916  1.9213 -0.9435
13190SOL     OW42971   4.281   1.166   7.196 -0.8635  0.4563  0.8844
13190SOL    HW142972   4.334   1.226   7.145 -1.9549  1.3589  0.7822
13190SOL    HW242973   4.341   1.132   7.263 -0.0446  1.0803  0.4832
13191SOL     OW42974   9.737   8.605   1.806 -0.4383  0.0403 -0.0191
13191SOL    HW142975   9.801   8.608   1.734  0.7215  0.8898  1.0023
13191SOL    HW242976   9.737   8.513   1.833  2.2871  0.3814  1.5489
13192SOL     OW42977   8.544   0.924   4.469  0.4014  1.0640  0.5069
13192SOL    HW142978   8.555   1.010   4.428  0.5958  1.3631  1.1818
13192SOL    HW242979   8.460   0.893   4.435  0.0209  1.8002  0.7447
13193SOL     OW42980   2.171   5.805   4.047 -0.4303  0.5020 -0.2963
13193SOL    HW142981   2.183   5.745   4.120  1.7129 -0.3915 -1.2877
13193SOL    HW242982   2.077   5.826   4.048 -1.1084 -2.1307  0.6812
13194SOL     OW42983   9.474   8.783   7.218  0.1042  0.0723 -0.1238
13194SOL    HW142984   9.440   8.767   7.131 -0.2806  0.2199 -0.0034
13194SOL    HW242985   9.524   8.865   7.209  0.3089 -0.0668 -0.2683
13195SOL     OW42986   2.147   3.260   8.405 -0.3835  0.1569 -0.2210
13195SOL    HW142987   2.059   3.297   8.415 -0.3244 -0.1481  1.9564
13195SOL    HW242988   2.199   3.305   8.471  0.0588 -2.6444  1.5116
13196SOL     OW42989   7.943   4.241   7.628  0.4526  0.0238  0.1534
13196SOL    HW142990   7.856   4.205   7.616  0.0040  0.8189  0.8873
13196SOL    HW242991   7.958   4.296   7.551  0.3150 -0.1143  0.0281
13197SOL     OW42992   0.182   7.952   2.527 -0.2936  0.2559  0.3924
13197SOL    HW142993   0.228   7.969   2.445 -0.2765  1.2144  0.5856
13197SOL    HW242994   0.250   7.933   2.590 -0.2782 -0.0371  0.2887
13198SOL     OW42995   3.169   3.324  10.703 -0.5437 -0.3168  0.1363
13198SOL    HW142996   3.114   3.279  10.767 -0.8674  1.1578  0.9396
13198SOL    HW242997   3.230   3.257  10.672  0.8808 -0.7307  3.3795
13199SOL     OW42998   7.890   4.005   2.523  0.3548 -0.0953  0.5470
13199SOL    HW142999   7.913   3.917   2.494 -1.0360  0.0084 -1.0523
13199SOL    HW243000   7.929   4.062   2.457  1.2727  0.5221  1.5888
13200SOL     OW43001   3.601   0.561   2.151 -0.1020 -0.2018  0.5696
13200SOL    HW143002   3.514   0.598   2.135  0.1074  0.1097  0.1480
13200SOL    HW243003   3.638   0.616   2.220  0.4372  0.7663 -0.4559
13201SOL     OW43004   7.870   2.407   7.296 -0.4201 -0.3078 -0.5013
13201SOL    HW143005   7.794   2.465   7.303 -2.3861 -2.3760 -2.8933
13201SOL    HW243006   7.914   2.435   7.216 -1.3516 -1.9641 -1.6416
13202SOL     OW43007   5.580   7.074   2.713 -0.1650 -0.5288  0.1505
13202SOL    HW143008   5.542   6.992   2.745  0.4465 -0.7313  0.3842
13202SOL    HW243009   5.613   7.118   2.791 -0.1450 -0.2429 -0.0166
13203SOL     OW43010   8.759  10.780   8.096  0.8383 -0.0273  0.3445
13203SOL    HW143011   8.745  10.708   8.158  1.7164  0.2073  0.8363
13203SOL    HW243012   8.837  10.755   8.047  3.0059  1.8795  2.5554
13204SOL     OW43013   4.232   5.610   4.651 -0.1278 -0.4798 -0.1132
13204SOL    HW143014   4.237   5.692   4.602  1.9203 -0.8035 -0.5611
13204SOL    HW243015   4.199   5.546   4.588 -2.0782  0.0197  0.3374
13205SOL     OW43016  10.029  10.212   2.150 -0.4623 -0.4518  0.1528
13205SOL    HW143017  10.121  10.190   2.145 -0.9152 -2.1239 -2.2740
13205SOL    HW243018  10.027  10.298   2.193  2.0502 -1.0512  1.6555
13206SOL     OW43019   6.702   5.278   4.135  0.2890 -0.3567 -0.2518
13206SOL    HW143020   6.760   5.211   4.100 -0.6780 -0.7528 -1.1310
13206SOL    HW243021   6.660   5.316   4.058 -0.6777 -0.1365  0.3746
13207SOL     OW43022   0.461   7.021   3.697 -0.1816 -0.5120  0.0723
13207SOL    HW143023   0.413   7.058   3.771  3.5101  2.5211  1.3086
13207SOL    HW243024   0.527   6.965   3.736  1.0395  0.1346 -0.9924
13208SOL     OW43025   7.239   4.301   0.516 -0.0787 -0.3054  0.4531
13208SOL    HW143026   7.175   4.256   0.461 -0.1141  0.5599 -0.2424
13208SOL    HW243027   7.257   4.240   0.587 -1.0014 -0.9235  0.1727
13209SOL     OW43028   8.186   3.912   7.509  0.4007 -0.4551 -0.4011
13209SOL    HW143029   8.209   3.976   7.441  0.0314  1.4967  1.2314
13209SOL    HW243030   8.130   3.960   7.570 -1.7860 -2.9675 -0.2267
13210SOL     OW43031   3.832   3.124   9.178 -0.5854  0.0152  0.7036
13210SOL    HW143032   3.789   3.165   9.253  0.1624  1.3414  0.4483
13210SOL    HW243033   3.761   3.082   9.130 -1.3542  0.7892  1.1352
13211SOL     OW43034   1.302   7.681   8.164  0.1685  0.0693 -0.0574
13211SOL    HW143035   1.239   7.739   8.121 -0.6981 -0.4331  0.5068
13211SOL    HW243036   1.280   7.593   8.132  0.7209 -0.0900 -0.0108
13212SOL     OW43037   5.860   1.952   2.055 -0.1712  0.1685 -0.1622
13212SOL    HW143038   5.933   2.013   2.049  0.7391 -0.9322 -0.8990
13212SOL    HW243039   5.869   1.896   1.978 -3.1502  1.3957 -1.5869
13213SOL     OW43040   0.501   4.443   8.159  0.1669  0.0448 -0.4145
13213SOL    HW143041   0.483   4.520   8.106  1.4331  0.4542 -0.2784
13213SOL    HW243042   0.596   4.439   8.164  0.1525 -1.7847 -0.7908
13214SOL     OW43043  10.130  10.407   1.063  0.1251  0.2224 -0.0211
13214SOL    HW143044  10.085  10.380   0.983 -0.3912  1.3240 -0.1114
13214SOL    HW243045  10.065  10.456   1.113  1.1234  1.6747 -0.0651
13215SOL     OW43046   8.415   1.281   6.690 -0.2441 -0.3390  0.5928
13215SOL    HW143047   8.445   1.343   6.756  0.7651 -1.3238  1.1112
13215SOL    HW243048   8.406   1.198   6.738 -1.7886 -0.5569 -0.0219
13216SOL     OW43049   3.962   3.298   2.962  0.1903 -0.8030  0.3905
13216SOL    HW143050   3.882   3.345   2.986 -0.5284 -2.0592  0.5436
13216SOL    HW243051   3.945   3.266   2.873  1.0229 -0.0459 -0.0581
13217SOL     OW43052   0.779   1.182   7.404 -0.0759 -0.0469 -1.1274
13217SOL    HW143053   0.745   1.103   7.446 -0.2331 -0.2765 -1.6677
13217SOL    HW243054   0.743   1.254   7.456 -0.4143 -0.3172 -0.9817
13218SOL     OW43055   3.628   0.980   9.192  0.1538 -0.1342  0.5390
13218SOL    HW143056   3.704   0.960   9.245  0.6347  0.9316  0.2727
13218SOL    HW243057   3.562   1.010   9.255  1.0044  1.9708  0.5186
13219SOL     OW43058   4.300   0.375   9.557  0.3212  0.3255  0.0986
13219SOL    HW143059   4.333   0.447   9.611  1.6584  1.1988 -1.8138
13219SOL    HW243060   4.334   0.392   9.470 -2.2347 -0.7343 -1.2189
13220SOL     OW43061   3.829   2.580   0.981  0.2239 -0.2821  0.2315
13220SOL    HW143062   3.920   2.594   0.955  0.0363 -0.5207 -0.5578
13220SOL    HW243063   3.819   2.485   0.984 -0.1282 -0.2606 -0.1445
13221SOL     OW43064   7.259   8.575   3.953  0.3581 -0.0934  0.0363
13221SOL    HW143065   7.164   8.587   3.948  0.1833 -1.2241  0.2739
13221SOL    HW243066   7.274   8.487   3.918  1.0580 -0.7918  1.9563
13222SOL     OW43067   5.262   6.388   6.655  0.8433 -0.0895 -0.0384
13222SOL    HW143068   5.250   6.482   6.641 -1.3882  0.1444  2.4960
13222SOL    HW243069   5.213   6.346   6.585  0.1261  0.6924 -0.0140
13223SOL     OW43070  10.530   9.113   3.468  0.0083  0.0925  0.2531
13223SOL    HW143071  10.550   9.100   3.375  0.2737  0.6469  0.2275
13223SOL    HW243072  10.616   9.117   3.510 -0.0960  0.4108  0.4401
13224SOL     OW43073   9.152   8.430   0.201  0.2343  0.1636 -0.4822
13224SOL    HW143074   9.126   8.514   0.165 -1.4022 -0.1471 -0.1143
13224SOL    HW243075   9.079   8.372   0.182  2.3027 -1.8797 -2.8973
13225SOL     OW43076   0.076   5.533   5.536 -0.6391 -0.1335 -0.1002
13225SOL    HW143077   0.034   5.619   5.534  0.3622  0.3676  0.1815
13225SOL    HW243078   0.125   5.527   5.454  2.1013  1.0336  1.3249
13226SOL     OW43079   4.239   8.225  10.431 -0.4599  0.2775 -0.5213
13226SOL    HW143080   4.303   8.190  10.493  0.4780  0.1569 -1.5191
13226SOL    HW243081   4.177   8.273  10.485  0.5692  0.5326  0.4708
13227SOL     OW43082   9.191   9.547   2.450  0.7909 -0.4679 -0.0757
13227SOL    HW143083   9.171   9.584   2.536  0.5689  1.9927 -1.0952
13227SOL    HW243084   9.278   9.581   2.430  0.3085  0.0467 -1.3509
13228SOL     OW43085   9.562   8.918   3.860 -0.1339 -0.4060  0.3093
13228SOL    HW143086   9.572   8.825   3.839  0.3150 -0.1095 -0.8974
13228SOL    HW243087   9.542   8.960   3.776  0.3438  0.6789  0.7125
13229SOL     OW43088   0.632   9.857   7.610 -0.3342  0.5284 -0.1559
13229SOL    HW143089   0.698   9.788   7.615 -1.3131 -0.3395  1.8687
13229SOL    HW243090   0.676   9.936   7.642 -0.4244 -0.2087  1.9043
13230SOL     OW43091   2.967   4.634   5.552 -0.7138  0.5824 -0.5222
13230SOL    HW143092   2.898   4.699   5.536 -0.7829  0.5609 -0.3074
13230SOL    HW243093   3.041   4.684   5.584 -1.1108  0.4400  0.6638
13231SOL     OW43094   3.101   0.569   2.548  0.2590  0.4984 -0.5032
13231SOL    HW143095   3.101   0.474   2.539 -0.9477  0.6198 -2.1716
13231SOL    HW243096   3.171   0.599   2.492  0.9338  0.5930  0.3692
13232SOL     OW43097   0.584  10.778   4.105 -0.1591  0.4456  0.3807
13232SOL    HW143098   0.640  10.755   4.179 -0.8157  1.2361  1.1397
13232SOL    HW243099   0.501  10.804   4.144 -0.4651  1.0268 -0.6179
13233SOL     OW43100   4.191   1.537   4.256  0.9969  0.4805 -0.3264
13233SOL    HW143101   4.158   1.621   4.227 -0.4353  0.4003  0.9696
13233SOL    HW243102   4.114   1.481   4.262  1.7735 -0.6081 -0.1389
13234SOL     OW43103   0.559   3.780   3.286  0.0511  0.0998  0.2215
13234SOL    HW143104   0.494   3.780   3.216  0.4297 -0.1630 -0.1401
13234SOL    HW243105   0.510   3.762   3.366 -0.4292  0.7028  0.0657
13235SOL     OW43106   2.591   7.279   3.602  0.0329  0.7628 -0.1161
13235SOL    HW143107   2.627   7.343   3.541 -1.4257  1.2574 -0.5115
13235SOL    HW243108   2.654   7.207   3.602  0.7659  1.3829 -1.1106
13236SOL     OW43109   9.402   1.340   3.190 -0.5357 -0.2155 -0.6693
13236SOL    HW143110   9.333   1.364   3.128 -0.6452  1.2272 -0.0425
13236SOL    HW243111   9.482   1.376   3.152 -0.4062 -0.3914 -0.5651
13237SOL     OW43112   2.347   7.317   8.673 -0.2460  0.0009  0.1031
13237SOL    HW143113   2.407   7.257   8.628  0.7516  1.4084 -0.5198
13237SOL    HW243114   2.356   7.295   8.766  0.9542 -0.0953 -0.0136
13238SOL     OW43115   8.561  10.716   0.163  0.2596  0.5433  0.1503
13238SOL    HW143116   8.542  10.694   0.071 -1.8655 -0.5704  0.7767
13238SOL    HW243117   8.591  10.634   0.201  2.1556  1.2509  0.2573
13239SOL     OW43118   7.380   2.894  10.707 -0.7737  0.6756  0.2245
13239SOL    HW143119   7.410   2.984  10.693 -1.9772  1.1886  0.8107
13239SOL    HW243120   7.294   2.890  10.665 -1.3880  0.2454  1.4531
13240SOL     OW43121   2.846   2.681   5.509  0.1469 -0.1003 -0.1101
13240SOL    HW143122   2.788   2.757   5.504 -1.6443 -1.3172  1.0978
13240SOL    HW243123   2.796   2.610   5.471  1.5795 -0.8359 -0.6957
13241SOL     OW43124   3.091   2.007   2.111  0.2993 -0.2794  0.1894
13241SOL    HW143125   3.185   2.006   2.128  0.5175 -1.0074 -0.9353
13241SOL    HW243126   3.062   1.918   2.132  0.0604 -0.3550 -0.4346
13242SOL     OW43127   4.243  10.363   5.760  0.3402  0.1762 -0.4933
13242SOL    HW143128   4.237  10.267   5.758 -0.1488  0.1610  0.9423
13242SOL    HW243129   4.173  10.392   5.702  0.5368 -0.3196 -0.9989
13243SOL     OW43130   8.142   8.651   7.599  0.1614  0.2517 -0.0132
13243SOL    HW143131   8.069   8.656   7.536 -0.0229 -2.0344 -0.0633
13243SOL    HW243132   8.206   8.714   7.566 -0.8828  0.7303 -1.2242
13244SOL     OW43133   3.853   0.692   2.048  0.2187  0.7460  0.6494
13244SOL    HW143134   3.791   0.668   2.118  0.7317  1.4778  1.3806
13244SOL    HW243135   3.842   0.624   1.982  1.2509 -1.1999  2.3778
13245SOL     OW43136   5.821   4.160  10.103  0.2464  0.0199  0.5027
13245SOL    HW143137   5.758   4.097  10.067 -2.3859  0.9981  2.9979
13245SOL    HW243138   5.860   4.201  10.027 -0.2715 -2.3847 -1.1879
13246SOL     OW43139  10.797  10.758   2.514 -0.1377  0.4267 -0.5720
13246SOL    HW143140  10.851  10.686   2.548  1.0007  1.4255 -0.1596
13246SOL    HW243141  10.789  10.739   2.421  2.2820  1.0141 -0.9743
13247SOL     OW43142   0.789   1.993   6.336  0.3471  0.1664  0.3153
13247SOL    HW143143   0.738   1.975   6.257 -3.0815  0.3221  2.2843
13247SOL    HW243144   0.850   1.920   6.343 -0.3160 -0.6401 -1.6760
13248SOL     OW43145   6.008   5.861   4.185 -0.2041  0.1870  0.0776
13248SOL    HW143146   6.020   5.859   4.280  2.0504  1.6576 -0.1059
13248SOL    HW243147   5.997   5.954   4.164  0.2840 -0.0181 -1.1939
13249SOL     OW43148   9.604   4.194   1.355 -0.1436  0.5193  0.1220
13249SOL    HW143149   9.562   4.255   1.294 -0.7187  0.8896  0.8630
13249SOL    HW243150   9.638   4.124   1.300  0.0493  1.2388 -0.6961
13250SOL     OW43151   2.752  10.728   6.139 -0.3721  0.4088  0.2630
13250SOL    HW143152   2.828  10.764   6.184 -0.4359  0.9450 -0.0504
13250SOL    HW243153   2.707  10.804   6.103 -0.6240  0.0340 -0.2273
13251SOL     OW43154  10.099   9.248   1.867 -0.1490 -0.2772  0.4019
13251SOL    HW143155  10.105   9.235   1.961 -0.7051  2.5129  0.8924
13251SOL    HW243156  10.170   9.195   1.831 -1.0556 -2.8944  2.1555
13252SOL     OW43157   8.604   4.269   5.440  0.0078 -0.0750  0.2967
13252SOL    HW143158   8.599   4.212   5.517  1.9527 -0.0379  0.4900
13252SOL    HW243159   8.689   4.312   5.447 -0.7492  1.6899 -0.6794
13253SOL     OW43160   6.944   7.750   3.295 -0.0797 -0.4424  0.2742
13253SOL    HW143161   6.909   7.828   3.338 -0.9055 -0.9187  0.4773
13253SOL    HW243162   6.910   7.677   3.346  0.9498 -0.9396  0.2860
13254SOL     OW43163   6.745   7.461   2.999 -0.1974 -0.3352  0.4468
13254SOL    HW143164   6.761   7.549   2.964  0.6358 -0.7212 -0.1847
13254SOL    HW243165   6.736   7.406   2.921 -2.0214 -0.6104  0.8150
13255SOL     OW43166  10.123   7.298   5.933  0.0519 -0.0675 -0.6926
13255SOL    HW143167  10.181   7.226   5.910 -0.2976  0.0460 -2.0332
13255SOL    HW243168  10.134   7.309   6.028  0.9812 -1.1003 -0.6616
13256SOL     OW43169   6.581   2.513   1.920  0.0471  0.1505  0.2473
13256SOL    HW143170   6.512   2.578   1.931  0.1897  0.2105  0.8267
13256SOL    HW243171   6.660   2.555   1.956  0.0651 -0.4625  0.9547
13257SOL     OW43172   4.379  10.131   8.540  0.0940  0.2537  1.4164
13257SOL    HW143173   4.353  10.067   8.606 -0.8800  0.6012  1.3933
13257SOL    HW243174   4.315  10.202   8.549  0.1732  0.4793  0.3567
13258SOL     OW43175   2.653   3.515   8.930 -0.6194 -0.5360  0.9208
13258SOL    HW143176   2.603   3.504   9.011 -0.9266 -0.6370  0.7182
13258SOL    HW243177   2.592   3.554   8.869 -0.0626  0.6118  1.0736
13259SOL     OW43178   6.038  10.277   8.934  0.2873 -0.5587  0.2882
13259SOL    HW143179   6.001  10.219   8.868 -0.5287 -0.7533  0.9026
13259SOL    HW243180   6.050  10.360   8.889  0.0735 -0.7901 -0.1972
13260SOL     OW43181   4.797   2.801   2.345 -0.3599  0.3024 -0.1925
13260SOL    HW143182   4.766   2.774   2.431  0.6995  1.8113  0.7136
13260SOL    HW243183   4.863   2.868   2.363 -0.3733  0.9283 -2.1932
13261SOL     OW43184   5.090   2.004   7.266 -0.2295 -0.7252  0.0118
13261SOL    HW143185   5.164   2.063   7.257  0.7600 -1.7987  0.7016
13261SOL    HW243186   5.023   2.055   7.312 -0.8253  0.9609 -2.5411
13262SOL     OW43187   6.392   6.392  10.656  0.3789 -0.6023 -0.1088
13262SOL    HW143188   6.482   6.394  10.690  0.8841  1.9395 -1.3403
13262SOL    HW243189   6.345   6.337  10.717  2.0936  0.5569  2.4561
13263SOL     OW43190   0.317   7.947   1.412  0.1611  0.1514  0.4146
13263SOL    HW143191   0.238   7.937   1.465 -0.7460  1.8384 -0.5274
13263SOL    HW243192   0.285   7.975   1.326  1.4600 -3.6828 -1.5515
13264SOL     OW43193   5.182   4.321   0.139  0.0313  0.0432 -0.3752
13264SOL    HW143194   5.181   4.415   0.159 -1.2108 -0.3651  1.7234
13264SOL    HW243195   5.218   4.281   0.218 -1.7094 -1.4176 -0.2796
13265SOL     OW43196   2.565   3.345   6.860 -0.0923  0.3774  0.1832
13265SOL    HW143197   2.621   3.290   6.805 -1.8467 -1.6735  0.2665
13265SOL    HW243198   2.523   3.406   6.800  1.8357  1.6519  0.0669
13266SOL     OW43199   5.390   1.869   6.028 -0.2607 -0.3590 -0.0496
13266SOL    HW143200   5.481   1.898   6.040 -0.2356 -0.5222  0.1610
13266SOL    HW243201   5.380   1.859   5.934  1.2233 -4.4434  0.0424
13267SOL     OW43202   5.206   1.510   7.368  0.0468 -0.1610 -0.3318
13267SOL    HW143203   5.273   1.547   7.311  0.5996  1.9537  1.5375
13267SOL    HW243204   5.126   1.556   7.344 -0.1198 -0.5966 -0.6202
13268SOL     OW43205  10.396   7.119   8.951  0.0218 -0.3994 -0.1440
13268SOL    HW143206  10.319   7.175   8.946  0.1929  0.1548  2.0862
13268SOL    HW243207  10.389   7.060   8.876 -2.0265  0.3028 -0.5575
13269SOL     OW43208   7.069   6.840   1.734 -0.5644 -0.0820 -0.2845
13269SOL    HW143209   7.107   6.761   1.774 -0.0282  0.7898  0.9810
13269SOL    HW243210   6.998   6.865   1.793  0.0147  1.0334 -0.0474
13270SOL     OW43211   9.652   2.346   1.087  0.6207 -0.0446 -0.0086
13270SOL    HW143212   9.709   2.270   1.086  2.1869  1.0562  1.0508
13270SOL    HW243213   9.706   2.417   1.122 -2.5190  0.1352  5.5739
13271SOL     OW43214   5.457   1.749   3.465 -0.1456 -0.7610 -0.5899
13271SOL    HW143215   5.503   1.764   3.547 -0.1178  1.0241 -0.8790
13271SOL    HW243216   5.373   1.794   3.476 -0.5258 -1.3091 -1.1968
13272SOL     OW43217   1.856  10.116   1.325 -0.5338 -0.1987  1.0375
13272SOL    HW143218   1.931  10.104   1.267 -0.9072 -0.3238  0.5697
13272SOL    HW243219   1.780  10.096   1.270 -1.1130  2.7394  0.6480
13273SOL     OW43220   5.891   5.233   2.721 -0.9650 -0.2180 -0.6560
13273SOL    HW143221   5.897   5.165   2.654  0.4271 -0.6252 -0.1663
13273SOL    HW243222   5.813   5.211   2.772 -2.0855  0.1411 -2.1509
13274SOL     OW43223   0.987   5.798   0.735 -0.1081  1.0982  0.5237
13274SOL    HW143224   0.960   5.890   0.731 -0.9158  0.8605  0.2952
13274SOL    HW243225   1.011   5.783   0.826  2.1996  2.1178  0.1556
13275SOL     OW43226   5.348   0.566   9.235  0.3099  0.0118  0.2383
13275SOL    HW143227   5.381   0.537   9.320 -1.0884 -0.8604  0.5077
13275SOL    HW243228   5.285   0.635   9.256  0.1736 -0.0074 -0.1070
13276SOL     OW43229   6.434   7.658   1.695 -0.7000  0.8426  0.2003
13276SOL    HW143230   6.342   7.683   1.698 -1.4522 -1.7474  0.9802
13276SOL    HW243231   6.457   7.639   1.786 -0.0317 -0.5839 -0.2330
13277SOL     OW43232   8.346   7.041   8.931 -0.4720  0.3393 -0.0699
13277SOL    HW143233   8.406   7.085   8.991 -1.5827 -1.3146  2.4224
13277SOL    HW243234   8.271   7.017   8.986 -1.3351 -1.7290 -2.0175
13278SOL     OW43235   1.095   0.260   7.069  0.2429 -0.3321 -0.5531
13278SOL    HW143236   1.149   0.281   7.145 -0.1023 -0.5019 -0.2577
13278SOL    HW243237   1.139   0.186   7.028 -0.6601 -1.5848  0.6539
13279SOL     OW43238   0.817   4.232   3.506  0.1502  0.5490 -0.3999
13279SOL    HW143239   0.777   4.306   3.460 -1.3287  0.3521  0.5145
13279SOL    HW243240   0.805   4.158   3.446 -0.5667  0.5702 -0.2950
13280SOL     OW43241   7.997   9.139   8.628  0.1538  0.1093 -0.5549
13280SOL    HW143242   7.963   9.054   8.602  0.5599 -0.2772  0.1265
13280SOL    HW243243   7.921   9.197   8.630 -0.0764 -0.1644 -1.3124
13281SOL     OW43244   2.180   3.878   4.205  0.2320 -0.0456  0.1857
13281SOL    HW143245   2.216   3.893   4.118  2.1937 -0.5761  0.8547
13281SOL    HW243246   2.247   3.910   4.265 -0.6672 -0.5517  1.5219
13282SOL     OW43247   9.942   9.561   4.942 -0.4912  0.0772  0.3834
13282SOL    HW143248   9.950   9.590   5.033  0.6904  2.6197 -0.4512
13282SOL    HW243249   9.880   9.622   4.903 -1.3204 -1.2485 -0.4739
13283SOL     OW43250   7.154   4.499   8.049  0.0057 -0.3713 -0.4887
13283SOL    HW143251   7.109   4.419   8.022 -2.4044  0.6630  0.1972
13283SOL    HW243252   7.215   4.518   7.977  1.2774 -3.1943 -0.2937
13284SOL     OW43253   5.070   8.906   2.683 -0.0662  0.0800  0.6759
13284SOL    HW143254   4.997   8.864   2.729 -1.0924  1.5535  0.4648
13284SOL    HW243255   5.148   8.865   2.720 -0.9745 -1.0801  1.3769
13285SOL     OW43256   6.204   3.663   2.640  0.0385 -0.3677 -0.7666
13285SOL    HW143257   6.197   3.671   2.735 -0.5227 -1.1795 -0.7299
13285SOL    HW243258   6.204   3.754   2.608 -1.1841 -0.1051 -0.0775
13286SOL     OW43259   5.327   3.449   2.183  0.2866  0.5041  0.2166
13286SOL    HW143260   5.287   3.531   2.153 -1.1374 -0.6892 -1.3977
13286SOL    HW243261   5.359   3.407   2.102  0.5926 -0.7109  0.9396
13287SOL     OW43262   0.787   6.478   9.269  0.6090 -0.1743  0.1349
13287SOL    HW143263   0.800   6.386   9.247  0.4472 -0.3080  0.5895
13287SOL    HW243264   0.742   6.514   9.192  0.7618 -0.4472 -0.0869
13288SOL     OW43265   7.082   5.200   1.789 -0.0426  1.0385  0.0613
13288SOL    HW143266   7.070   5.289   1.822 -0.4120  0.8763  0.3788
13288SOL    HW243267   7.175   5.182   1.802  0.1828  1.6369 -0.6722
13289SOL     OW43268   4.135   0.865  10.382 -0.7127  0.1545 -0.1040
13289SOL    HW143269   4.127   0.933  10.315 -0.8954 -0.9388 -1.2319
13289SOL    HW243270   4.228   0.845  10.386 -0.8232 -0.5619 -0.8621
13290SOL     OW43271   6.095   9.377   9.132 -0.5078  0.0863 -0.1478
13290SOL    HW143272   6.099   9.417   9.219 -0.3596 -0.2002 -0.0200
13290SOL    HW243273   6.096   9.451   9.071  1.5512  0.2665  0.0252
13291SOL     OW43274   2.447   9.698   1.931  0.1224 -0.1742 -0.2699
13291SOL    HW143275   2.381   9.750   1.886 -0.1971  0.1763  0.5891
13291SOL    HW243276   2.462   9.744   2.013  1.6105 -0.1173 -0.5387
13292SOL     OW43277   7.014   9.989   7.948  0.1269  0.3183  0.1817
13292SOL    HW143278   6.940   9.929   7.940  0.1112  0.3675 -0.0618
13292SOL    HW243279   6.981  10.072   7.913  1.2080 -0.4263 -2.9586
13293SOL     OW43280   1.367   1.485   6.489  0.0735 -0.1593 -0.0999
13293SOL    HW143281   1.343   1.403   6.532  2.4046 -0.1782  1.3458
13293SOL    HW243282   1.451   1.509   6.528  0.3494  1.9821 -1.8008
13294SOL     OW43283   7.579   5.525   0.340  0.0993 -0.3581 -0.5526
13294SOL    HW143284   7.519   5.482   0.279 -0.6508  1.8151 -1.4288
13294SOL    HW243285   7.557   5.618   0.334  2.3721  0.3077  0.4498
13295SOL     OW43286   0.953   4.053   6.723  0.2114  0.0322 -0.5163
13295SOL    HW143287   0.985   4.115   6.789  0.0044 -0.6453  0.2386
13295SOL    HW243288   0.858   4.057   6.730  0.1638  0.6366 -1.4291
13296SOL     OW43289   4.480   6.695   6.278  0.0988  0.4337 -0.0941
13296SOL    HW143290   4.403   6.710   6.333  1.5537 -0.8146  2.4944
13296SOL    HW243291   4.458   6.618   6.226 -0.3130 -0.1326  0.8899
13297SOL     OW43292   2.649   1.989   1.711  0.0946 -0.4456  0.4125
13297SOL    HW143293   2.636   1.929   1.784  1.6555 -0.1927  0.9439
13297SOL    HW243294   2.742   1.981   1.690  0.0762  0.8735 -0.3114
13298SOL     OW43295   6.832   0.276   8.433 -0.1472 -0.0007  0.2482
13298SOL    HW143296   6.919   0.236   8.427  0.3754  1.1194  0.1320
13298SOL    HW243297   6.805   0.289   8.342 -0.1021  0.3461  0.2835
13299SOL     OW43298   5.378   3.887   6.365  0.0280 -0.4975 -0.1628
13299SOL    HW143299   5.465   3.866   6.399 -0.8481 -1.9396  1.4110
13299SOL    HW243300   5.321   3.822   6.407 -1.5272 -0.8953 -2.7217
13300SOL     OW43301   5.139   6.939  10.570 -0.6410  0.6279 -0.6040
13300SOL    HW143302   5.115   7.013  10.515 -1.9195  1.4038  0.9042
13300SOL    HW243303   5.075   6.871  10.547 -2.3039  1.5406  1.0318
13301SOL     OW43304  10.673   3.932   2.008 -0.2279 -0.0432  0.0315
13301SOL    HW143305  10.747   3.878   1.980  0.3726  0.3847  0.7465
13301SOL    HW243306  10.647   3.979   1.929  1.0597  0.7080  0.0122
13302SOL     OW43307   9.261   8.064   6.964 -0.1114 -0.0483  0.2663
13302SOL    HW143308   9.348   8.043   6.997  1.2039 -1.3879 -3.5236
13302SOL    HW243309   9.203   8.002   7.008  1.0582 -0.1724  1.7161
13303SOL     OW43310   8.145   4.055   6.647  0.5021  0.0168  0.0520
13303SOL    HW143311   8.126   4.141   6.684  0.4752  0.4808 -1.0028
13303SOL    HW243312   8.222   4.024   6.695 -0.2455  0.0534  1.3142
13304SOL     OW43313   0.630  10.868  10.578 -0.0008 -0.2244  0.0729
13304SOL    HW143314   0.591  10.871  10.491 -0.1894 -0.1045  0.1592
13304SOL    HW243315   0.721  10.842  10.564  0.1034  0.2887 -0.2002
13305SOL     OW43316   6.338   7.279   2.263 -0.1044  0.2781 -0.1555
13305SOL    HW143317   6.361   7.202   2.211  1.8609  0.6910  0.0185
13305SOL    HW243318   6.419   7.330   2.267 -0.8405  1.3995  1.3623
13306SOL     OW43319   7.696   9.800   6.430  0.1353 -0.3386  0.1789
13306SOL    HW143320   7.618   9.756   6.461  0.5475 -1.0795  0.1851
13306SOL    HW243321   7.722   9.752   6.351  0.6164 -0.1395  0.2079
13307SOL     OW43322   3.478   9.761   7.216  0.3443  0.3989  0.1715
13307SOL    HW143323   3.551   9.788   7.161  0.0085  2.0513  0.4763
13307SOL    HW243324   3.426   9.702   7.161  0.4683  1.3346 -0.9802
13308SOL     OW43325   5.922   1.459   4.798  0.1624  0.3574  0.0191
13308SOL    HW143326   5.868   1.458   4.878  1.4383 -1.2201  0.9321
13308SOL    HW243327   5.860   1.474   4.727 -1.4652 -0.9995  1.0644
13309SOL     OW43328   0.821  10.353   2.972  0.2069 -0.7079 -0.4806
13309SOL    HW143329   0.760  10.365   3.044  0.8218 -0.5113  0.0148
13309SOL    HW243330   0.830  10.258   2.962  0.3582 -0.7337 -0.0926
13310SOL     OW43331   9.187   0.550   9.861  0.0829 -0.2885 -0.2985
13310SOL    HW143332   9.164   0.622   9.920 -1.4487 -0.0597 -1.1312
13310SOL    HW243333   9.109   0.494   9.860  1.0465 -1.6731 -0.1027
13311SOL     OW43334   7.144   0.965   0.850  0.5861  0.6110 -0.3809
13311SOL    HW143335   7.161   1.005   0.935 -0.0724 -0.0594  0.0795
13311SOL    HW243336   7.135   1.039   0.790  0.0806  1.1392  0.3197
13312SOL     OW43337   4.970  10.548   4.236  0.6028  0.0122  0.2902
13312SOL    HW143338   4.975  10.585   4.324 -0.5855 -3.4621  2.0047
13312SOL    HW243339   5.059  10.520   4.217  0.5084 -1.1160  1.3760
13313SOL     OW43340   5.521   2.253   2.223  0.1426 -0.1523 -0.3221
13313SOL    HW143341   5.584   2.308   2.269  0.2620  0.7154 -1.4623
13313SOL    HW243342   5.454   2.314   2.192  0.3040 -0.6123 -1.6634
13314SOL     OW43343   9.268   2.726   3.141  0.1697  0.2380 -0.4850
13314SOL    HW143344   9.324   2.795   3.176  1.6191 -0.3392 -1.5528
13314SOL    HW243345   9.273   2.736   3.046 -0.0715 -0.9563 -0.6458
13315SOL     OW43346   9.335   0.021  10.530 -0.1367  0.7405  0.0712
13315SOL    HW143347   9.378  -0.035  10.595 -1.4557  0.8091  1.0453
13315SOL    HW243348   9.306   0.097  10.580  1.0528  2.0372 -1.1075
13316SOL     OW43349   2.981   5.705  10.835  0.4141 -0.9825 -0.2620
13316SOL    HW143350   2.965   5.665  10.921 -0.0299 -1.7120 -0.6722
13316SOL    HW243351   2.944   5.793  10.842 -0.1294 -1.2380  0.1184
13317SOL     OW43352   7.782   2.556   1.263  0.5381 -0.4995 -0.0386
13317SOL    HW143353   7.811   2.515   1.344  0.1991 -1.0032 -0.1651
13317SOL    HW243354   7.694   2.522   1.249  0.6003 -0.4277 -0.6260
13318SOL     OW43355   5.846   1.244   0.739  0.1630  0.4369 -0.1016
13318SOL    HW143356   5.761   1.236   0.696 -0.1760  0.3911  0.5669
13318SOL    HW243357   5.827   1.279   0.826  0.8738  0.8591 -0.1048
13319SOL     OW43358   3.080   9.793   6.970 -0.1983  0.0897  0.5675
13319SOL    HW143359   3.046   9.714   6.928  0.1570  0.3388 -0.2271
13319SOL    HW243360   3.031   9.865   6.929 -0.0233  0.3200  0.7592
13320SOL     OW43361   0.015   3.251  10.550 -0.1280  0.2887  0.0581
13320SOL    HW143362   0.060   3.197  10.615 -1.8827 -0.0543  1.0410
13320SOL    HW243363  -0.050   3.193  10.511  0.9541  0.4483 -2.1613
13321SOL     OW43364   9.502   0.726   3.851 -0.2777  0.0622  0.2064
13321SOL    HW143365   9.535   0.677   3.927  1.4476 -0.4219 -0.7923
13321SOL    HW243366   9.475   0.658   3.789 -1.5956  0.4547  0.3175
13322SOL     OW43367   2.724   1.582   8.191 -0.5186 -0.1107 -0.8243
13322SOL    HW143368   2.698   1.526   8.118  2.0740 -1.9428 -0.4650
13322SOL    HW243369   2.808   1.619   8.164  0.3755 -0.6250  1.0586
13323SOL     OW43370   2.889  10.179   4.438 -0.1415 -0.0115 -0.0784
13323SOL    HW143371   2.929  10.222   4.362  0.0515  0.4886  0.2960
13323SOL    HW243372   2.850  10.251   4.488 -0.7028 -0.3913  0.0411
13324SOL     OW43373  10.783   3.669   6.087  0.4967 -0.2768 -0.0683
13324SOL    HW143374  10.711   3.721   6.052  0.0706 -1.2999 -0.7556
13324SOL    HW243375  10.793   3.596   6.026  0.0919 -1.8392  1.6230
13325SOL     OW43376   5.563  10.165   3.557  0.3904  0.1147 -0.1209
13325SOL    HW143377   5.482  10.216   3.559 -0.0069 -0.5128  1.9623
13325SOL    HW243378   5.534  10.075   3.542  0.8423  0.0735 -0.7866
13326SOL     OW43379  10.728   1.690   1.887  0.7798 -0.1957  0.5531
13326SOL    HW143380  10.752   1.659   1.800  1.8539  0.0855  0.7431
13326SOL    HW243381  10.743   1.784   1.885 -0.2021 -0.0179  0.7293
13327SOL     OW43382   2.097   8.101   9.920 -0.1190  0.9691 -0.3403
13327SOL    HW143383   2.022   8.159   9.934  0.6515  1.5194  1.8868
13327SOL    HW243384   2.112   8.060  10.005  0.7698 -0.8263 -1.2983
13328SOL     OW43385   2.140   1.199   4.409 -0.1907  0.4559 -0.2661
13328SOL    HW143386   2.081   1.254   4.357 -0.7607  0.5340  0.4400
13328SOL    HW243387   2.129   1.111   4.374 -1.9714  0.1704  0.8736
13329SOL     OW43388   4.608   2.829   8.904 -0.4855  0.7702 -0.6787
13329SOL    HW143389   4.573   2.834   8.815 -1.2432  2.1742 -0.3352
13329SOL    HW243390   4.703   2.823   8.892 -0.6687 -0.8264 -1.5908
13330SOL     OW43391   3.449   3.800   8.968  0.1606  0.3153 -0.1412
13330SOL    HW143392   3.470   3.795   8.875 -1.9482 -0.8965 -0.6125
13330SOL    HW243393   3.363   3.759   8.976  0.3508  0.2238  2.3765
13331SOL     OW43394   3.758   7.587   4.698  0.6088  0.0777  0.5517
13331SOL    HW143395   3.719   7.558   4.781  0.8674 -0.2839  0.5453
13331SOL    HW243396   3.744   7.682   4.698  1.3653  0.2085  1.4099
13332SOL     OW43397   8.598   1.230   2.957  0.4407  0.1227 -0.0134
13332SOL    HW143398   8.535   1.202   3.023  1.5084  0.6410  1.2813
13332SOL    HW243399   8.664   1.161   2.956  0.3826  0.0709 -0.6250
13333SOL     OW43400   5.070   9.039   9.291  0.1121 -0.2127  0.1261
13333SOL    HW143401   5.127   9.010   9.221 -0.6122 -0.0165 -0.5637
13333SOL    HW243402   5.026   8.960   9.322 -0.0380 -0.2083 -0.0762
13334SOL     OW43403   7.776   9.308   7.887  0.1302 -0.6307 -0.2168
13334SOL    HW143404   7.746   9.386   7.934 -1.0769  0.2430 -2.3082
13334SOL    HW243405   7.698   9.252   7.882  0.3287 -0.8484 -0.8847
13335SOL     OW43406   3.646   0.291   0.775 -0.2757  0.0693  0.3485
13335SOL    HW143407   3.572   0.321   0.722  1.0948 -0.0529 -1.7275
13335SOL    HW243408   3.638   0.342   0.857 -1.9635  0.8996 -0.2717
13336SOL     OW43409   5.808   6.619   2.869  0.3863 -0.2661 -0.2455
13336SOL    HW143410   5.805   6.668   2.952 -0.5883 -0.9272  0.1305
13336SOL    HW243411   5.890   6.646   2.828  0.0479  1.4545  0.0917
13337SOL     OW43412   2.010   0.344   2.095  0.1424  0.2557 -0.2187
13337SOL    HW143413   2.028   0.347   2.001 -1.9523  0.4245 -0.6537
13337SOL    HW243414   1.992   0.252   2.114 -0.4792  0.3773 -0.2057
13338SOL     OW43415   4.276   1.213   6.428 -0.4898 -0.6247 -0.8097
13338SOL    HW143416   4.362   1.231   6.390  0.1478 -0.3763  0.6765
13338SOL    HW243417   4.281   1.121   6.455 -0.5500 -0.5067 -0.3913
13339SOL     OW43418   9.654  10.464   4.446 -0.1472  0.1077 -0.0008
13339SOL    HW143419   9.632  10.477   4.538  0.5723 -0.5345  0.2730
13339SOL    HW243420   9.666  10.370   4.438  0.6092  0.2398 -0.5557
13340SOL     OW43421   4.382   7.568   0.169 -0.0001  0.5107  0.0391
13340SOL    HW143422   4.377   7.511   0.246 -0.5656 -0.4490 -0.6801
13340SOL    HW243423   4.443   7.638   0.195  1.2598 -0.7757  0.7363
13341SOL     OW43424   7.403   0.022  10.747  0.4552  0.6065  0.3303
13341SOL    HW143425   7.392  -0.047  10.681 -1.4242 -0.0728  1.2679
13341SOL    HW243426   7.494   0.015  10.774  0.3128 -1.5785  0.4249
13342SOL     OW43427   9.506   2.806   2.174  0.2596 -0.1996 -0.4792
13342SOL    HW143428   9.560   2.786   2.250  0.7394  1.3808 -0.3794
13342SOL    HW243429   9.480   2.720   2.141 -3.2405 -1.0702  3.6660
13343SOL     OW43430   6.147   0.007   6.803 -0.2277  0.3324 -0.3447
13343SOL    HW143431   6.076  -0.054   6.823 -0.2738  0.6455  0.4743
13343SOL    HW243432   6.104   0.092   6.791  0.0271  0.5616  0.3548
13344SOL     OW43433   8.760   0.014   0.129  0.3935  0.4543 -0.1458
13344SOL    HW143434   8.722   0.075   0.193 -2.9633 -2.0480  0.4793
13344SOL    HW243435   8.686  -0.034   0.094  2.5930 -1.3973 -2.6916
13345SOL     OW43436   8.471   9.659   1.035 -0.3002  0.4332 -0.3409
13345SOL    HW143437   8.416   9.737   1.043  0.1287  0.8329 -1.1651
13345SOL    HW243438   8.530   9.664   1.110  0.1544  1.2564 -0.7424
13346SOL     OW43439   8.728   4.823   4.815  0.5591  0.0335 -0.1189
13346SOL    HW143440   8.740   4.908   4.772 -1.1963  0.6812  0.6202
13346SOL    HW243441   8.675   4.842   4.892 -0.3133 -1.8221 -0.2238
13347SOL     OW43442   1.311   0.252   3.932 -0.0115 -0.4078 -0.3376
13347SOL    HW143443   1.329   0.198   4.009 -2.1362 -0.6725  0.0423
13347SOL    HW243444   1.336   0.340   3.959 -0.9298 -0.4552  0.7948
13348SOL     OW43445   9.889   8.412   3.483  0.2445  0.5470  0.3362
13348SOL    HW143446   9.855   8.401   3.572  1.6479  0.0643  0.8529
13348SOL    HW243447   9.847   8.344   3.432 -2.1701  2.0985  0.0905
13349SOL     OW43448  10.489   8.408   7.937 -0.5570  0.1352  0.5935
13349SOL    HW143449  10.450   8.336   7.988  0.1467  0.3765  1.5101
13349SOL    HW243450  10.415   8.450   7.893 -0.9024 -1.5957 -0.5660
13350SOL     OW43451   2.054   2.151   1.043 -0.0196  0.3793 -0.1586
13350SOL    HW143452   2.067   2.120   1.132 -0.6156 -1.4439 -0.6506
13350SOL    HW243453   2.064   2.072   0.989 -2.2752  0.8798 -1.4508
13351SOL     OW43454   2.662   7.590  10.309  0.1084 -0.3538 -0.5391
13351SOL    HW143455   2.627   7.556  10.227  0.5693 -1.0651 -0.4476
13351SOL    HW243456   2.587   7.596  10.367 -0.2432  0.2766 -1.0472
13352SOL     OW43457   5.700   0.715   4.166 -0.4164  0.0536 -0.4013
13352SOL    HW143458   5.728   0.646   4.227  0.6821  1.7988  1.1924
13352SOL    HW243459   5.712   0.797   4.215 -0.1656  1.5137 -2.7315
13353SOL     OW43460   0.680   0.357   7.511 -0.3689 -0.6465  0.0025
13353SOL    HW143461   0.637   0.400   7.438  0.4686  0.7788  0.3068
13353SOL    HW243462   0.707   0.272   7.477 -0.8765 -0.4070 -1.0301
13354SOL     OW43463   2.302   4.374   0.913  0.1378 -0.0386  0.0460
13354SOL    HW143464   2.281   4.414   0.998  0.1297 -2.3619  1.2228
13354SOL    HW243465   2.217   4.354   0.874  0.0804 -1.5056  0.8296
13355SOL     OW43466   1.363   9.662  10.149 -0.0212  0.2030  0.1947
13355SOL    HW143467   1.409   9.664  10.065  1.2977 -0.6105  0.8469
13355SOL    HW243468   1.368   9.752  10.182  3.1701 -0.2253  1.2364
13356SOL     OW43469   3.474   0.304  10.374 -0.0510  0.1670  0.4784
13356SOL    HW143470   3.450   0.315  10.466  0.9548 -0.0565  0.7758
13356SOL    HW243471   3.554   0.356  10.363  0.5690 -0.8297  0.0669
13357SOL     OW43472   1.872   9.667   2.486  0.3622 -0.0290  0.4761
13357SOL    HW143473   1.922   9.748   2.493 -0.1293  0.3692 -0.4866
13357SOL    HW243474   1.783   9.691   2.513 -0.3154  0.3139 -1.8217
13358SOL     OW43475   5.658   7.202   4.762  0.1933 -0.1488  0.5277
13358SOL    HW143476   5.689   7.290   4.781 -0.8048  0.1616  0.7702
13358SOL    HW243477   5.681   7.188   4.670  1.4440 -0.1205  0.8167
13359SOL     OW43478   5.652  10.824   4.141  0.0537  0.1907  0.7900
13359SOL    HW143479   5.584  10.890   4.126  0.0920  0.1524  0.4286
13359SOL    HW243480   5.633  10.756   4.075  1.6658  1.1210 -0.7076
13360SOL     OW43481   1.476   7.009   0.550 -0.0956 -0.1132  0.1692
13360SOL    HW143482   1.398   7.013   0.494 -0.4073 -1.5773  0.4482
13360SOL    HW243483   1.443   6.978   0.634  0.8033 -1.0371  0.2094
13361SOL     OW43484   3.579   0.252   9.201 -0.0655 -0.6283  0.3165
13361SOL    HW143485   3.510   0.201   9.160 -0.5305 -0.3071  0.7006
13361SOL    HW243486   3.573   0.232   9.294 -0.6004  0.5282  0.5485
13362SOL     OW43487   3.773   7.635  10.325 -0.2549 -0.4706 -0.3131
13362SOL    HW143488   3.737   7.723  10.329  1.5984  0.3358 -0.4501
13362SOL    HW243489   3.865   7.645  10.347  0.1147 -2.3048 -0.8143
13363SOL     OW43490   8.621   7.240   4.966  0.0350  0.3634  0.0210
13363SOL    HW143491   8.615   7.153   5.004  0.3619  0.4989  0.3876
13363SOL    HW243492   8.599   7.299   5.038  0.5755  0.6178 -0.0202
13364SOL     OW43493   3.856   0.044  10.808 -0.3694  0.2239 -0.2308
13364SOL    HW143494   3.801   0.021  10.734 -1.4671 -0.6223  0.8113
13364SOL    HW243495   3.831   0.133  10.830  0.5411  0.7842 -1.3473
13365SOL     OW43496   3.148   4.803   3.597 -0.1872 -0.6471 -0.4684
13365SOL    HW143497   3.182   4.818   3.685 -1.1971  1.4186 -0.3887
13365SOL    HW243498   3.053   4.800   3.607 -0.2920 -0.9010 -1.4121
13366SOL     OW43499   2.349   7.335   7.354 -0.1445 -0.3740 -0.8322
13366SOL    HW143500   2.350   7.421   7.396 -1.8585 -0.4616 -0.5276
13366SOL    HW243501   2.429   7.334   7.301  1.2297  0.3984  1.0776
13367SOL     OW43502   6.313  10.850   5.659  0.7989  0.4383 -0.0702
13367SOL    HW143503   6.313  10.863   5.565  0.8005 -2.1652 -0.4921
13367SOL    HW243504   6.223  10.825   5.681  1.1686 -0.6146  0.3199
13368SOL     OW43505   1.803   4.361  10.736  0.2325 -0.5963  0.1885
13368SOL    HW143506   1.832   4.329  10.651 -1.1534 -1.2698 -0.0457
13368SOL    HW243507   1.709   4.344  10.738  0.3407 -1.2528  2.1256
13369SOL     OW43508   3.615  10.692   3.408  0.6343 -0.0558  0.5772
13369SOL    HW143509   3.632  10.713   3.500  2.4438 -0.0142  0.2732
13369SOL    HW243510   3.521  10.709   3.397  0.3758 -0.0342  2.3934
13370SOL     OW43511   3.531   6.864   5.462  0.1985  0.5319  0.2969
13370SOL    HW143512   3.463   6.809   5.424  0.0857  0.1462  1.0384
13370SOL    HW243513   3.609   6.809   5.465  0.5328  0.9395 -0.4542
13371SOL     OW43514  10.746   8.495   2.763  0.5066  0.4656  0.2295
13371SOL    HW143515  10.742   8.467   2.672  0.7112  0.9274  0.0769
13371SOL    HW243516  10.808   8.434   2.804  2.2562  1.6702 -0.4812
13372SOL     OW43517  10.250   7.190   7.746 -0.2307 -0.3649  0.0809
13372SOL    HW143518  10.344   7.210   7.745 -0.1283 -0.8302  0.2233
13372SOL    HW243519  10.236   7.142   7.828 -0.6650  0.0308  0.2453
13373SOL     OW43520   3.283   1.374   4.164  0.9337  0.1553  0.3497
13373SOL    HW143521   3.316   1.353   4.076  2.3827  0.9901  0.6606
13373SOL    HW243522   3.208   1.431   4.148  0.0011 -1.2410 -0.3726
13374SOL     OW43523   8.887   3.984   1.929 -0.4136 -0.1680 -0.0201
13374SOL    HW143524   8.933   3.965   2.011  1.1745 -0.4124 -0.9148
13374SOL    HW243525   8.853   4.073   1.941 -1.5604 -0.7574  1.4511
13375SOL     OW43526  10.165   7.712   1.251  0.5976  0.1409  0.1102
13375SOL    HW143527  10.101   7.732   1.319 -0.9043  0.6439 -1.3699
13375SOL    HW243528  10.159   7.786   1.190  1.7348 -0.3857 -0.6791
13376SOL     OW43529  10.074   3.700   1.960  0.0967 -0.5391  0.4504
13376SOL    HW143530   9.988   3.659   1.970 -0.6375  1.0944  1.2002
13376SOL    HW243531  10.107   3.709   2.049  1.4221 -1.8655  0.1197
13377SOL     OW43532   5.269   2.136   5.937 -0.0335  0.3558 -0.2465
13377SOL    HW143533   5.276   2.053   5.889 -0.0669  0.2540 -0.0774
13377SOL    HW243534   5.324   2.123   6.014  0.9080  0.9198 -0.8090
13378SOL     OW43535   8.166   8.426   3.176 -0.4518 -0.2830  0.2441
13378SOL    HW143536   8.140   8.460   3.091 -1.3063 -1.3776  0.0321
13378SOL    HW243537   8.086   8.428   3.228 -0.6965 -2.4094  0.0385
13379SOL     OW43538   0.630   3.016   0.327 -0.1057 -0.6846  0.2926
13379SOL    HW143539   0.706   3.041   0.380 -0.5909  1.2530  0.1647
13379SOL    HW243540   0.568   2.979   0.390 -0.9661  2.2386  1.3243
13380SOL     OW43541  10.158   2.715   6.396 -0.0635  0.3225  0.1565
13380SOL    HW143542  10.076   2.743   6.437 -0.6892 -1.1800  0.0240
13380SOL    HW243543  10.211   2.681   6.468  0.4181  1.2197  0.2306
13381SOL     OW43544   6.491   0.048   1.794  0.1905 -0.5217  0.2143
13381SOL    HW143545   6.461  -0.041   1.810 -1.8762  0.0420 -0.3266
13381SOL    HW243546   6.549   0.067   1.869  2.7254 -3.1022 -0.8840
13382SOL     OW43547   7.351   3.199   3.613  0.1042 -0.0769 -0.1549
13382SOL    HW143548   7.294   3.266   3.575  0.2887 -0.1178 -0.5085
13382SOL    HW243549   7.440   3.229   3.592  0.1961 -0.2999 -0.0869
13383SOL     OW43550   9.706   8.919   8.336 -0.1546  0.3133  0.2149
13383SOL    HW143551   9.713   8.934   8.431  0.3301  0.3508  0.1776
13383SOL    HW243552   9.746   8.834   8.323  2.0030  1.3379 -0.2519
13384SOL     OW43553   5.976  10.775   2.221  0.6127 -0.4336 -0.0046
13384SOL    HW143554   5.904  10.755   2.281  0.4895 -0.9736 -0.3278
13384SOL    HW243555   5.992  10.869   2.233  0.1274 -0.3933  0.3633
13385SOL     OW43556   1.034   0.511   2.463  0.5393 -0.1367  1.0365
13385SOL    HW143557   1.033   0.459   2.383  1.0757  0.9711  0.2957
13385SOL    HW243558   0.976   0.463   2.523  0.3576 -1.1287  0.0973
13386SOL     OW43559   3.077   8.467   9.490  0.1460 -0.6424 -0.3979
13386SOL    HW143560   3.019   8.475   9.415  0.6150 -0.6694 -0.7661
13386SOL    HW243561   3.129   8.389   9.472  0.6670 -0.3128 -0.3275
13387SOL     OW43562   2.817   6.874  10.260  0.5488 -0.1918  0.0382
13387SOL    HW143563   2.739   6.851  10.311  0.0559  0.4016 -0.4197
13387SOL    HW243564   2.782   6.910  10.178  1.3056  0.2239 -0.1146
13388SOL     OW43565   5.707   5.125   5.879  0.2025  0.0606 -0.5282
13388SOL    HW143566   5.633   5.069   5.857  2.1166 -2.4929 -0.9615
13388SOL    HW243567   5.702   5.135   5.974 -0.6621 -0.1068 -0.5504
13389SOL     OW43568   4.712   5.960   9.315 -0.4644 -0.6827 -0.8085
13389SOL    HW143569   4.663   5.971   9.397  2.5755  1.4439  0.9168
13389SOL    HW243570   4.707   6.046   9.273  1.0141 -0.6539 -0.9836
13390SOL     OW43571   5.527   1.394   1.518  0.4598  0.0257  0.3044
13390SOL    HW143572   5.474   1.460   1.563  0.0970  1.8692 -2.5484
13390SOL    HW243573   5.472   1.316   1.515 -0.5289  0.6940  0.7219
13391SOL     OW43574   3.067   8.933   2.574 -0.1261  0.1533  0.2974
13391SOL    HW143575   3.018   8.851   2.583  0.7047 -0.3909 -0.0387
13391SOL    HW243576   3.062   8.953   2.481 -1.3649  1.1599  0.5477
13392SOL     OW43577   9.633   0.117  10.432  0.0300 -0.6686 -0.3032
13392SOL    HW143578   9.627   0.176  10.507  0.4532 -0.4883 -0.4130
13392SOL    HW243579   9.542   0.098  10.409 -0.1096  0.2118 -0.4863
13393SOL     OW43580   6.741   9.727   4.593 -0.7410  0.0027  0.1777
13393SOL    HW143581   6.771   9.657   4.650 -1.3961 -0.4501 -0.0122
13393SOL    HW243582   6.652   9.746   4.624 -0.7322  0.4393 -0.0584
13394SOL     OW43583   0.363   3.793   2.842  0.1389 -0.1472 -0.2335
13394SOL    HW143584   0.326   3.781   2.754  1.8537  0.3602 -1.0813
13394SOL    HW243585   0.372   3.705   2.877 -0.7521 -0.3428 -0.4899
13395SOL     OW43586   2.896   8.259   4.977  0.2147  0.0219  1.0023
13395SOL    HW143587   2.845   8.219   4.907  0.6648  0.1826  0.5748
13395SOL    HW243588   2.947   8.187   5.013  0.2107 -0.0010  0.9624
13396SOL     OW43589   8.453   3.841   0.149 -0.7747 -0.0253 -0.1105
13396SOL    HW143590   8.429   3.760   0.194  0.2260 -0.1947  0.1565
13396SOL    HW243591   8.423   3.828   0.059 -1.9817 -0.0577  0.2866
13397SOL     OW43592   5.465   5.459   2.646 -0.0479  0.0166 -0.6214
13397SOL    HW143593   5.494   5.545   2.616  2.2120 -0.7615 -0.8620
13397SOL    HW243594   5.535   5.399   2.619 -1.2079 -1.7939  0.1804
13398SOL     OW43595   7.755   4.729   1.670  0.1436 -0.0979  0.2012
13398SOL    HW143596   7.716   4.672   1.604 -0.6676  0.8789 -0.1831
13398SOL    HW243597   7.798   4.669   1.731 -0.7469 -1.1287 -0.1512
13399SOL     OW43598   6.380   3.316  10.225  0.3327  0.2784  1.0185
13399SOL    HW143599   6.371   3.233  10.272 -0.0087  0.9835  2.2451
13399SOL    HW243600   6.312   3.372  10.262  0.9451  1.2948  0.6373
13400SOL     OW43601   2.647   1.791   5.476  0.2292 -0.9567 -0.4855
13400SOL    HW143602   2.740   1.780   5.454  0.1215  0.7136 -1.9814
13400SOL    HW243603   2.644   1.873   5.525 -0.4226 -1.1875 -0.1390
13401SOL     OW43604   9.978   5.422   8.232 -0.1929  0.4064  0.0276
13401SOL    HW143605  10.022   5.340   8.255 -0.0028  0.6681  0.6067
13401SOL    HW243606   9.939   5.453   8.314 -0.3939  0.8176 -0.2184
13402SOL     OW43607  10.843   1.586   1.676  0.0742  0.7766 -0.1151
13402SOL    HW143608  10.899   1.557   1.748  0.2664  0.2227 -0.4751
13402SOL    HW243609  10.885   1.550   1.598 -1.5868 -0.9997 -0.2844
13403SOL     OW43610   6.619   0.874   9.230  0.3088 -0.3523 -0.2956
13403SOL    HW143611   6.587   0.871   9.140 -2.2151 -1.8047  0.5561
13403SOL    HW243612   6.596   0.962   9.261  0.3061 -0.1881 -0.7582
13404SOL     OW43613   8.383   5.318   2.699  1.0967  0.1171  0.3333
13404SOL    HW143614   8.326   5.392   2.679  2.1802  1.3106  1.4005
13404SOL    HW243615   8.326   5.254   2.741  0.4637  1.1086  1.0229
13405SOL     OW43616   7.816   7.735   3.979 -0.9300  0.0594  0.0332
13405SOL    HW143617   7.798   7.712   3.888 -1.3525  0.6012 -0.0233
13405SOL    HW243618   7.908   7.712   3.992 -0.4305  1.3838 -0.9828
13406SOL     OW43619   4.033   0.847   6.345 -0.4700  0.1267  0.4178
13406SOL    HW143620   4.046   0.755   6.367  1.1575  0.3005  0.2953
13406SOL    HW243621   3.938   0.856   6.333 -0.9331 -1.0011  2.7048
13407SOL     OW43622  10.169   3.614   1.458  0.0454 -0.2008  0.0569
13407SOL    HW143623  10.087   3.599   1.505 -0.2100 -0.7484 -0.5508
13407SOL    HW243624  10.186   3.708   1.468 -0.4634 -0.1541  0.4962
13408SOL     OW43625   4.183   8.729   8.169  0.0508 -0.1716 -0.2691
13408SOL    HW143626   4.215   8.806   8.121 -0.4500 -0.4394 -1.0517
13408SOL    HW243627   4.144   8.765   8.248  0.4005  0.3276 -0.3171
13409SOL     OW43628   3.171   4.347   9.267  0.5722  0.6738  0.1413
13409SOL    HW143629   3.186   4.309   9.180  0.4138 -0.4011  0.5667
13409SOL    HW243630   3.221   4.292   9.327 -1.5107 -0.3389  1.0504
13410SOL     OW43631   7.084   6.447   4.110  0.3009 -0.0984  0.2066
13410SOL    HW143632   7.138   6.516   4.073 -0.5573  0.7963  0.5660
13410SOL    HW243633   7.028   6.492   4.173 -1.4055 -0.8427 -0.7121
13411SOL     OW43634   0.126   6.469   2.745  0.3357 -0.3978 -0.1984
13411SOL    HW143635   0.221   6.478   2.742  0.1776  1.7792 -0.4952
13411SOL    HW243636   0.107   6.392   2.691  1.8810 -0.4080 -0.7574
13412SOL     OW43637   5.817   2.603   9.366 -0.6642  0.7697  0.0930
13412SOL    HW143638   5.909   2.628   9.375 -0.7010  1.8977 -1.9315
13412SOL    HW243639   5.773   2.645   9.439  0.2719  1.2048  0.4248
13413SOL     OW43640  10.756   6.555   1.886  0.8351 -0.1811 -0.0915
13413SOL    HW143641  10.772   6.649   1.880  1.9209 -0.3235  0.3525
13413SOL    HW243642  10.705   6.545   1.966  1.7745 -0.0854  0.5292
13414SOL     OW43643   9.438   6.151   4.737  0.1484  0.0074  0.2036
13414SOL    HW143644   9.436   6.068   4.688 -2.5855 -1.2042  2.0841
13414SOL    HW243645   9.488   6.131   4.816 -0.9364 -0.0261  0.8939
13415SOL     OW43646   7.893   6.022   9.744  0.0546 -0.2895 -0.4468
13415SOL    HW143647   7.850   5.983   9.820  0.9488 -1.2034 -0.3895
13415SOL    HW243648   7.929   6.105   9.776 -2.3315  0.9334 -0.7036
13416SOL     OW43649   6.628   9.527   4.240  0.5512 -0.4381  0.4547
13416SOL    HW143650   6.709   9.518   4.291  0.4297  1.0491  0.9671
13416SOL    HW243651   6.650   9.491   4.154  1.6620 -0.3467  0.6810
13417SOL     OW43652  10.552   3.342   6.947  0.4977  0.1892  0.0728
13417SOL    HW143653  10.634   3.391   6.949 -0.5997  2.1876 -0.6004
13417SOL    HW243654  10.533   3.331   6.854 -0.3825  0.4940  0.2005
13418SOL     OW43655   5.139   5.560   2.685 -0.0583 -0.0792 -0.5188
13418SOL    HW143656   5.225   5.561   2.643  0.4613 -1.0468  0.4702
13418SOL    HW243657   5.118   5.467   2.696 -0.1149  0.1134  1.4264
13419SOL     OW43658   6.246   4.972  10.593 -0.1550 -0.2378  0.0156
13419SOL    HW143659   6.192   4.915  10.647 -1.4083 -1.0475 -2.0083
13419SOL    HW243660   6.284   4.914  10.526  0.2523  0.9385 -0.8147
13420SOL     OW43661   2.038   3.067   8.841 -0.3692  0.3109  1.3311
13420SOL    HW143662   2.100   3.084   8.911  0.7940  2.3260 -0.0957
13420SOL    HW243663   2.026   3.151   8.798 -1.2719 -0.7803 -0.7071
13421SOL     OW43664   4.219   6.882   7.973  0.0240 -0.7026 -0.1528
13421SOL    HW143665   4.183   6.943   8.037  0.3914 -0.7025  0.0587
13421SOL    HW243666   4.314   6.890   7.983  0.0853 -0.5907 -0.8033
13422SOL     OW43667   2.681  10.349   7.547  0.5301 -0.4786  0.0018
13422SOL    HW143668   2.606  10.289   7.552 -0.0400  0.1724 -0.4619
13422SOL    HW243669   2.757  10.292   7.540  0.3300 -1.2277  2.6488
13423SOL     OW43670   9.978   6.822   3.471  0.0279 -0.0987 -0.3363
13423SOL    HW143671   9.919   6.884   3.513 -0.2243  0.0404 -0.8858
13423SOL    HW243672   9.966   6.837   3.377 -0.7696 -1.6592 -0.5137
13424SOL     OW43673   8.197   3.159   3.274  0.2003  0.1268  0.1992
13424SOL    HW143674   8.238   3.082   3.314  0.8163  0.6850  0.6659
13424SOL    HW243675   8.105   3.134   3.264  0.4472 -0.7746  0.0675
13425SOL     OW43676  10.447   6.785   5.482 -0.2496  0.7356  0.4297
13425SOL    HW143677  10.363   6.830   5.472  0.6327  2.7581  1.5556
13425SOL    HW243678  10.497   6.841   5.541  0.9458 -1.7752  1.9654
13426SOL     OW43679   3.547   1.259   7.752 -0.5097  0.5444 -0.8882
13426SOL    HW143680   3.636   1.246   7.786 -0.0885  3.4572 -0.6270
13426SOL    HW243681   3.560   1.289   7.662 -1.1168  1.9676 -0.5321
13427SOL     OW43682   5.279   8.090  10.368 -0.4358 -0.4102 -0.5534
13427SOL    HW143683   5.190   8.056  10.361 -0.4036 -0.8147  0.8652
13427SOL    HW243684   5.324   8.029  10.426  0.3651  0.5932 -0.0878
13428SOL     OW43685   7.718  10.024   1.621 -0.5534 -0.0235  0.2667
13428SOL    HW143686   7.671   9.945   1.648  0.8267 -0.8217  0.4089
13428SOL    HW243687   7.729  10.074   1.702  0.0239 -0.4864  0.4797
13429SOL     OW43688   9.195   8.398  10.124 -0.1831  0.0676  0.0776
13429SOL    HW143689   9.110   8.407  10.081  1.7616  3.7804 -3.7407
13429SOL    HW243690   9.228   8.313  10.095 -1.4784 -0.1813 -0.7351
13430SOL     OW43691   0.806   0.729   1.083 -0.8747 -0.2751 -0.5869
13430SOL    HW143692   0.719   0.753   1.113 -0.6131 -0.3832  0.3039
13430SOL    HW243693   0.832   0.799   1.024 -0.5985  1.0683  1.0374
13431SOL     OW43694  10.378   1.087   4.714 -0.4140  0.1504  0.0842
13431SOL    HW143695  10.446   1.093   4.646  0.5037  1.3190  1.0476
13431SOL    HW243696  10.364   0.993   4.725  0.5562 -0.1021 -0.6436
13432SOL     OW43697   1.439   0.240   2.422  0.1993  0.1515  0.4575
13432SOL    HW143698   1.519   0.292   2.433  0.4452  0.4545 -2.1107
13432SOL    HW243699   1.410   0.259   2.333 -1.4305 -1.7688  0.5021
13433SOL     OW43700   1.272  10.129   4.763 -0.0716 -0.3706 -0.1946
13433SOL    HW143701   1.242  10.113   4.853 -0.6173  1.0791 -0.0935
13433SOL    HW243702   1.204  10.183   4.724  0.3250 -0.7039 -1.3911
13434SOL     OW43703   3.459   6.624   5.022  0.2967 -0.0639 -0.0310
13434SOL    HW143704   3.405   6.599   5.097  2.1640 -3.1590  0.4752
13434SOL    HW243705   3.538   6.661   5.060  1.0282 -1.1662 -0.4102
13435SOL     OW43706   2.568   1.824   1.934 -0.3343 -0.8290  0.0816
13435SOL    HW143707   2.609   1.738   1.941 -1.0137 -1.5253 -2.9016
13435SOL    HW243708   2.477   1.809   1.958 -0.3130 -0.8139  0.1709
13436SOL     OW43709   1.726   8.767   4.815 -0.2416 -0.3655  0.0006
13436SOL    HW143710   1.682   8.684   4.832  0.1964 -0.1792  2.3331
13436SOL    HW243711   1.820   8.746   4.820 -0.1074  0.4543  2.0959
13437SOL     OW43712   5.435  10.759  10.047 -0.4824  0.5249  0.6332
13437SOL    HW143713   5.430  10.782  10.140 -0.2165  1.9053  0.3306
13437SOL    HW243714   5.522  10.790  10.019  0.2098 -1.5380  0.3262
13438SOL     OW43715   6.405   1.162   7.146  0.0548 -0.1084  0.0446
13438SOL    HW143716   6.366   1.109   7.076  0.8451 -0.6148 -0.0237
13438SOL    HW243717   6.451   1.099   7.202  2.0503  0.5774 -0.7119
13439SOL     OW43718   1.265   2.684   9.103 -0.2270 -0.2430  0.3794
13439SOL    HW143719   1.225   2.609   9.146 -0.4400  0.2874  1.1344
13439SOL    HW243720   1.335   2.711   9.162  0.3926 -0.3541 -0.2940
13440SOL     OW43721   4.769   8.938  10.483 -0.0627 -0.1382 -0.2300
13440SOL    HW143722   4.717   8.956  10.562  1.2961  0.7750  0.5037
13440SOL    HW243723   4.781   9.024  10.442  0.3051 -0.4265 -0.7401
13441SOL     OW43724  10.571   0.544   4.308  0.4034  0.5472  0.1457
13441SOL    HW143725  10.607   0.595   4.379  0.6850  1.9952 -0.9962
13441SOL    HW243726  10.516   0.479   4.351  1.0781  0.9600  1.6967
13442SOL     OW43727  10.070   6.790   2.152 -0.1316  0.1290 -0.3807
13442SOL    HW143728   9.997   6.752   2.202  0.1770  1.0338  0.8037
13442SOL    HW243729  10.114   6.847   2.215  1.1708  0.1548 -1.2882
13443SOL     OW43730   3.357   2.501   5.138 -0.1290 -0.4550 -0.1920
13443SOL    HW143731   3.339   2.581   5.187  0.6301 -0.8882  0.8048
13443SOL    HW243732   3.271   2.460   5.128 -0.3734 -0.0562  0.2309
13444SOL     OW43733   4.038   0.911   7.790 -0.2144  0.1384  0.4408
13444SOL    HW143734   3.955   0.883   7.829  0.7424 -2.3724  0.8559
13444SOL    HW243735   4.082   0.829   7.766  1.3753  1.4510 -1.4443
13445SOL     OW43736   2.018   5.911  10.285  0.1141  0.7244  0.0811
13445SOL    HW143737   2.043   5.998  10.254  1.3719  0.4232  0.2099
13445SOL    HW243738   2.078   5.851  10.240  0.1436  0.0497  0.9920
13446SOL     OW43739   5.442  10.376   4.992  0.2568  0.2924 -0.1831
13446SOL    HW143740   5.446  10.353   4.900  1.4461 -0.5275  0.0476
13446SOL    HW243741   5.350  10.395   5.009 -0.1106 -0.4086 -1.3284
13447SOL     OW43742   2.865  10.409   7.977 -0.2851 -0.0772  0.1233
13447SOL    HW143743   2.856  10.445   7.889  1.2240  1.5285  0.5535
13447SOL    HW243744   2.955  10.376   7.979 -0.2334  0.1141  1.1323
13448SOL     OW43745   0.085   4.699   0.756 -0.2767 -0.3464 -0.3916
13448SOL    HW143746   0.014   4.750   0.793 -0.2198 -1.2146  0.9762
13448SOL    HW243747   0.165   4.744   0.785 -0.2226 -1.2679  0.9631
13449SOL     OW43748   5.954   0.384   8.996 -0.4561 -0.2294  0.3731
13449SOL    HW143749   5.958   0.385   8.900  0.3170  0.6149  0.4083
13449SOL    HW243750   6.002   0.462   9.023 -2.4047  0.6931  1.4016
13450SOL     OW43751  10.393   1.597   7.677  0.2662 -0.4106 -0.2841
13450SOL    HW143752  10.340   1.676   7.685  0.6687  0.0194 -1.6206
13450SOL    HW243753  10.342   1.529   7.721 -0.6264  0.3449 -0.1390
13451SOL     OW43754   7.249   4.338   9.744 -0.2727 -0.3946 -0.1113
13451SOL    HW143755   7.253   4.427   9.709 -0.3318  0.5765  2.1852
13451SOL    HW243756   7.155   4.317   9.746 -0.2985 -0.2811 -0.1402
13452SOL     OW43757   2.866   7.840   3.931 -0.4385 -0.1830  0.4430
13452SOL    HW143758   2.792   7.816   3.987  0.3118  1.4239  2.2447
13452SOL    HW243759   2.920   7.896   3.987  2.6042 -1.9885 -0.5009
13453SOL     OW43760   5.605   3.574   4.800 -0.7305  0.4873 -0.0611
13453SOL    HW143761   5.658   3.643   4.760  0.8097 -0.5266  0.1795
13453SOL    HW243762   5.561   3.532   4.726  0.9768 -0.4292 -0.6137
13454SOL     OW43763   5.296   4.092   8.456 -0.2204 -0.3674  0.3338
13454SOL    HW143764   5.206   4.124   8.464  0.1158  1.0146 -0.9222
13454SOL    HW243765   5.300   4.017   8.515 -2.2693 -0.6356  0.2019
13455SOL     OW43766   7.364   4.379   3.803 -0.2644  0.0192  0.2886
13455SOL    HW143767   7.290   4.322   3.824 -0.8930  0.7721  0.1703
13455SOL    HW243768   7.405   4.339   3.727 -1.3018  0.2492 -0.4141
13456SOL     OW43769   3.641   9.043   2.152  0.3477 -0.4930  0.1016
13456SOL    HW143770   3.694   9.110   2.195 -0.5781 -0.1723  0.7777
13456SOL    HW243771   3.638   9.070   2.061  0.7039 -0.0920  0.2043
13457SOL     OW43772  10.500   5.030   1.593 -0.6479  0.4892  0.0870
13457SOL    HW143773  10.462   4.946   1.568  0.4594 -0.4729  1.4829
13457SOL    HW243774  10.428   5.077   1.635 -0.5388 -1.0478  2.1269
13458SOL     OW43775   2.062   7.982   8.191  0.4705 -0.2253  0.2511
13458SOL    HW143776   2.074   7.980   8.286  0.9597 -0.8146  0.1861
13458SOL    HW243777   1.970   7.963   8.177  0.0976  1.1769  0.6537
13459SOL     OW43778   7.969   6.119   4.474  0.0354  0.5490 -0.4374
13459SOL    HW143779   7.887   6.112   4.425 -0.0900 -1.7288 -0.0119
13459SOL    HW243780   8.031   6.064   4.426 -0.0874 -1.7363  1.8217
13460SOL     OW43781   1.862   2.615   4.858 -0.1873 -0.5004 -1.0956
13460SOL    HW143782   1.958   2.613   4.861 -0.1272  1.3663 -0.6593
13460SOL    HW243783   1.836   2.640   4.946 -1.1214 -1.3994 -1.1030
13461SOL     OW43784   1.993   3.411   7.926 -0.3598 -0.1423  0.7770
13461SOL    HW143785   2.054   3.448   7.990  0.1968 -0.1983  0.2981
13461SOL    HW243786   2.049   3.357   7.869 -0.9605 -0.7014  0.7040
13462SOL     OW43787   4.721   8.175   2.488 -0.3629 -0.2389 -0.1661
13462SOL    HW143788   4.636   8.209   2.460  0.5038  1.2688 -1.1944
13462SOL    HW243789   4.760   8.247   2.539  0.3829 -0.8017  0.0784
13463SOL     OW43790   1.949   9.982   2.074 -0.4336  0.3371 -0.5942
13463SOL    HW143791   1.951   9.904   2.131 -0.3999  0.5069 -0.3639
13463SOL    HW243792   1.968  10.055   2.133 -0.0124  0.4737 -0.8978
13464SOL     OW43793   7.665  10.146   5.311  0.2478  0.5660 -0.2478
13464SOL    HW143794   7.634  10.096   5.235 -0.0165  0.4223 -0.0469
13464SOL    HW243795   7.684  10.080   5.377 -0.4218  0.7496  0.1355
13465SOL     OW43796   5.051   5.722   4.220  0.3422 -0.0710  0.0133
13465SOL    HW143797   5.071   5.784   4.291 -0.7523  0.1626  0.1436
13465SOL    HW243798   5.013   5.777   4.151 -1.6119 -0.6833  0.5309
13466SOL     OW43799   2.034  10.602   9.375  0.2312  0.6573  0.1787
13466SOL    HW143800   2.012  10.657   9.450  0.7744  0.3068  0.5956
13466SOL    HW243801   1.956  10.607   9.319 -0.0016  1.2821  0.5444
13467SOL     OW43802   7.612   2.991   4.116 -1.0436 -0.5176 -0.1944
13467SOL    HW143803   7.520   2.973   4.131 -1.1011 -0.2770 -0.2618
13467SOL    HW243804   7.648   2.908   4.085 -1.1479 -0.7267  0.2370
13468SOL     OW43805   5.040   4.510   2.505 -0.1457  1.0489 -0.4588
13468SOL    HW143806   4.965   4.467   2.464 -0.6770  3.3664 -2.1942
13468SOL    HW243807   5.022   4.604   2.493  2.6845  1.6905 -0.3127
13469SOL     OW43808   1.395   7.981   7.494  0.2609 -0.0171 -0.1782
13469SOL    HW143809   1.424   7.950   7.408 -1.0268  3.9677 -2.3150
13469SOL    HW243810   1.475   8.012   7.536  0.5696  0.6970 -1.2400
13470SOL     OW43811   0.400   9.762   4.548  0.0126  0.0322  0.3216
13470SOL    HW143812   0.373   9.827   4.483 -2.0543 -0.6215  0.4470
13470SOL    HW243813   0.448   9.812   4.614 -0.2804  1.1657 -0.3055
13471SOL     OW43814   0.387   7.609   3.300  0.0265  0.3576 -0.1848
13471SOL    HW143815   0.292   7.621   3.296 -0.4076 -1.7512  1.5789
13471SOL    HW243816   0.407   7.552   3.226 -0.5511 -1.3610  0.9408
13472SOL     OW43817   7.922   3.050   4.053  0.0083 -0.1527 -0.0035
13472SOL    HW143818   7.831   3.035   4.030  0.2660 -1.7501 -0.0481
13472SOL    HW243819   7.938   3.141   4.027 -1.3625 -0.0668 -0.6443
13473SOL     OW43820   2.584   2.801   3.089  0.2881  0.1091 -0.1385
13473SOL    HW143821   2.524   2.875   3.081  0.7250  0.3866 -0.8932
13473SOL    HW243822   2.600   2.773   2.999 -0.5719 -1.4854  0.1678
13474SOL     OW43823   0.667   8.361   6.954 -0.1454  0.0439  0.2506
13474SOL    HW143824   0.711   8.278   6.937 -0.5152 -0.5674  2.0185
13474SOL    HW243825   0.735   8.418   6.989 -0.2782 -0.1599  0.8526
13475SOL     OW43826   0.571   3.844   7.519 -0.0350  0.0997  0.6752
13475SOL    HW143827   0.507   3.805   7.460 -0.1590  1.6886 -0.2959
13475SOL    HW243828   0.635   3.886   7.461 -0.3664  2.0212  1.6402
13476SOL     OW43829   6.602   6.406   9.329 -0.2540  0.3730 -0.3408
13476SOL    HW143830   6.523   6.375   9.286  0.6141 -1.1183 -0.9519
13476SOL    HW243831   6.674   6.376   9.273  0.8732 -0.8904  1.6486
13477SOL     OW43832   4.012   3.729   5.060  0.1613  0.5138 -0.4852
13477SOL    HW143833   3.949   3.712   4.989  0.4807  1.5447 -1.0257
13477SOL    HW243834   4.049   3.643   5.079 -1.1391 -0.0628 -0.4075
13478SOL     OW43835   5.915   6.612   1.794  0.0638  0.3622  0.0639
13478SOL    HW143836   5.977   6.550   1.756  0.0325  0.0029  0.6009
13478SOL    HW243837   5.963   6.655   1.864  0.2366  1.2890 -0.5903
13479SOL     OW43838   1.651  10.521   9.070  0.8501 -0.3803  0.5931
13479SOL    HW143839   1.725  10.563   9.114  1.1371 -1.5506  1.2511
13479SOL    HW243840   1.686  10.438   9.038  0.1821 -0.3203 -0.3434
13480SOL     OW43841  10.728   1.980   0.206  0.3711 -0.2751  0.1134
13480SOL    HW143842  10.720   1.885   0.202  2.2594 -0.5977  2.1379
13480SOL    HW243843  10.793   2.002   0.139  1.9250 -0.7911  1.3825
13481SOL     OW43844   3.418   4.047   7.365 -0.5614  0.1917  0.0322
13481SOL    HW143845   3.468   4.020   7.288 -0.8544 -0.2839  0.0066
13481SOL    HW243846   3.483   4.058   7.434 -0.2233  1.1924 -0.4306
13482SOL     OW43847   1.550   5.279   9.416 -0.2203  0.1190 -0.3447
13482SOL    HW143848   1.539   5.360   9.366 -1.5556  0.4070  0.3582
13482SOL    HW243849   1.523   5.210   9.355 -1.0047  0.3916 -0.3254
13483SOL     OW43850   9.170   5.344   7.443 -0.7087  0.4386  0.4605
13483SOL    HW143851   9.185   5.291   7.521 -0.4803 -1.9960 -1.1466
13483SOL    HW243852   9.256   5.350   7.401 -0.9777  1.0544 -0.0195
13484SOL     OW43853   2.814   7.407   0.721  0.0820  0.3313 -0.2861
13484SOL    HW143854   2.772   7.493   0.720  0.4542  0.6344  2.5074
13484SOL    HW243855   2.900   7.423   0.760 -0.1958 -1.3922  1.1518
13485SOL     OW43856   9.915   4.597   8.255 -0.8268  0.1567  0.1220
13485SOL    HW143857   9.940   4.515   8.298 -0.3132 -0.6914 -1.6854
13485SOL    HW243858   9.834   4.624   8.299 -0.3920 -0.7026  1.5014
13486SOL     OW43859   6.300   1.689   5.058 -0.0735  0.3738  0.3834
13486SOL    HW143860   6.326   1.773   5.019  1.3877 -0.0826  0.3378
13486SOL    HW243861   6.235   1.654   4.997  1.3984  0.1554 -1.1352
13487SOL     OW43862   2.870  10.227   9.332 -0.2848 -0.2893  0.1873
13487SOL    HW143863   2.935  10.296   9.346 -1.5608  0.7373  1.1879
13487SOL    HW243864   2.810  10.235   9.405 -1.5340 -1.2553 -0.6966
13488SOL     OW43865   5.729   0.217   6.941  0.1306 -0.0093  0.1023
13488SOL    HW143866   5.734   0.299   6.991 -0.9748  1.5050 -2.0974
13488SOL    HW243867   5.711   0.150   7.007 -2.8141  2.0970  1.6686
13489SOL     OW43868   2.676   6.706   3.375 -0.1942  0.6397 -0.0663
13489SOL    HW143869   2.584   6.726   3.358 -0.8688 -0.4353  1.9234
13489SOL    HW243870   2.715   6.790   3.398 -1.2394  0.8056  1.2255
13490SOL     OW43871   9.881   1.226   8.122 -0.0407 -0.1125 -0.5017
13490SOL    HW143872   9.970   1.241   8.092  0.2870  1.2771  1.0218
13490SOL    HW243873   9.883   1.139   8.163  0.9773  0.4454  0.6913
13491SOL     OW43874   4.627   7.267   1.751 -0.1976 -0.0284  0.0270
13491SOL    HW143875   4.649   7.335   1.687 -1.8639 -0.1545 -0.7199
13491SOL    HW243876   4.630   7.186   1.701 -0.3091 -0.2686  0.4052
13492SOL     OW43877   0.210   2.228   7.037 -0.5572  0.3209 -0.0579
13492SOL    HW143878   0.181   2.299   6.980 -1.8214 -0.3428 -0.2823
13492SOL    HW243879   0.303   2.218   7.018 -0.9270  0.1381 -2.0029
13493SOL     OW43880   0.425  10.502   6.837  0.5702  0.0352 -0.0528
13493SOL    HW143881   0.470  10.441   6.779  2.5560 -0.3146  1.7271
13493SOL    HW243882   0.386  10.447   6.904 -0.0864  0.5548  0.0053
13494SOL     OW43883   0.616   1.781   2.124  0.4390 -0.1225  0.4487
13494SOL    HW143884   0.672   1.746   2.193 -0.4016 -0.5137  0.9466
13494SOL    HW243885   0.630   1.722   2.050 -0.1493 -0.8746  0.9297
13495SOL     OW43886  10.864   5.696   4.501  0.0845  0.4865 -0.6489
13495SOL    HW143887  10.945   5.713   4.548 -1.2544  0.4299  1.8277
13495SOL    HW243888  10.832   5.782   4.474 -0.3350  0.7965  0.7478
13496SOL     OW43889   3.199   1.609   0.004  0.0750  0.0037 -0.1058
13496SOL    HW143890   3.191   1.540   0.070  2.6234 -1.7111 -1.4281
13496SOL    HW243891   3.271   1.664   0.034  0.8715 -0.4481 -1.1350
13497SOL     OW43892   0.163   3.126   6.607 -0.0803 -0.2905  0.6728
13497SOL    HW143893   0.121   3.068   6.544  0.2429 -1.5209  1.5411
13497SOL    HW243894   0.174   3.209   6.561 -0.9020 -0.8022 -0.4819
13498SOL     OW43895   3.557   8.125   7.646 -0.2182 -0.3956  0.6091
13498SOL    HW143896   3.629   8.181   7.675  0.6255 -1.1135 -0.0644
13498SOL    HW243897   3.480   8.181   7.651  0.3953  0.4194  1.2344
13499SOL     OW43898   1.014   1.087   9.334 -0.2454  0.5864  0.0455
13499SOL    HW143899   0.950   1.042   9.278 -0.1421  0.2438  0.2006
13499SOL    HW243900   0.964   1.159   9.374 -0.4292  0.5704 -0.1508
13500SOL     OW43901   3.509   3.397   7.121  0.2892  0.3446  0.3097
13500SOL    HW143902   3.569   3.425   7.191 -0.7069  1.1684  0.8747
13500SOL    HW243903   3.565   3.351   7.058  1.2435 -0.2914  1.5696
13501SOL     OW43904  10.736   0.034   0.081 -0.4125  0.0197 -0.2859
13501SOL    HW143905  10.656   0.071   0.043 -0.2719  2.3363  1.4469
13501SOL    HW243906  10.806   0.062   0.021 -0.5974  0.2930 -0.3754
13502SOL     OW43907   9.806   9.825   0.966 -0.1408  0.0529  0.0053
13502SOL    HW143908   9.895   9.830   0.932  0.0880 -0.6944  0.4584
13502SOL    HW243909   9.776   9.737   0.942 -0.2329 -0.2196  1.0911
13503SOL     OW43910   6.908   8.877   2.797  0.2043  0.4722  0.1863
13503SOL    HW143911   6.840   8.934   2.763  1.1615  0.8421 -1.2197
13503SOL    HW243912   6.907   8.801   2.739  1.4709  0.8469 -0.3868
13504SOL     OW43913   7.033   0.214   7.826  0.3428  0.3723  0.4767
13504SOL    HW143914   7.124   0.195   7.801  0.3276 -0.8631  1.2855
13504SOL    HW243915   7.030   0.195   7.920 -1.0037 -0.6020  0.2534
13505SOL     OW43916   8.273   0.724   3.976 -0.5221 -0.0155 -0.0801
13505SOL    HW143917   8.198   0.760   4.025 -1.1939 -1.3399 -0.0692
13505SOL    HW243918   8.266   0.762   3.889  1.1141  2.9625  0.9700
13506SOL     OW43919   5.151  10.523   6.550 -0.1378 -0.8595  0.0089
13506SOL    HW143920   5.195  10.607   6.538 -0.1887 -0.5956  1.4530
13506SOL    HW243921   5.188  10.467   6.482 -1.1765  0.6949 -1.9357
13507SOL     OW43922   5.605   3.005  10.897  0.8320  0.0877 -0.4922
13507SOL    HW143923   5.619   3.077  10.835  1.2302  0.6034  0.1751
13507SOL    HW243924   5.689   2.995  10.941 -0.3776  2.5593  2.8711
13508SOL     OW43925   2.358   4.455   2.185 -0.4777 -0.1757 -0.3480
13508SOL    HW143926   2.448   4.464   2.155 -1.0498  0.1682 -2.0828
13508SOL    HW243927   2.327   4.544   2.198 -1.3783 -0.1193 -2.4648
13509SOL     OW43928   7.974   9.401   9.812  0.4758  0.2338  0.1429
13509SOL    HW143929   7.959   9.496   9.815  0.0549  0.3177 -2.2069
13509SOL    HW243930   8.048   9.387   9.871  1.5924  2.3005 -0.6432
13510SOL     OW43931   0.196  10.591   1.150 -0.1675 -0.5435  0.8874
13510SOL    HW143932   0.242  10.674   1.159  0.7402 -1.1808  2.4596
13510SOL    HW243933   0.120  10.612   1.096  2.8771  0.2074 -3.6913
13511SOL     OW43934   4.050   7.207   5.762 -0.2822  0.1059 -0.3022
13511SOL    HW143935   4.060   7.207   5.667  0.7928 -0.2966 -0.1981
13511SOL    HW243936   3.980   7.145   5.779  0.4911 -0.9044 -0.7489
13512SOL     OW43937   9.809   8.094   8.983  0.0200 -0.0053  0.2493
13512SOL    HW143938   9.734   8.148   8.960 -0.5563 -1.1691 -0.6588
13512SOL    HW243939   9.772   8.019   9.029  0.8014  0.2495  1.3545
13513SOL     OW43940   7.726   9.086   9.922 -0.0860 -0.4648 -0.1024
13513SOL    HW143941   7.753   9.144   9.994  0.1279 -0.2490 -0.3572
13513SOL    HW243942   7.702   9.004   9.966 -2.3052  0.4176  0.5071
13514SOL     OW43943   7.182   4.258   8.506  0.3802 -0.4501  0.2140
13514SOL    HW143944   7.109   4.314   8.478  0.6896 -0.0471  0.2129
13514SOL    HW243945   7.259   4.294   8.462  0.6320 -0.6965  0.4481
13515SOL     OW43946   3.063  10.506   2.790  0.3473 -0.3194 -0.3635
13515SOL    HW143947   3.083  10.459   2.709  1.1495  0.9332 -0.9321
13515SOL    HW243948   3.144  10.553   2.811  0.0312 -0.3128  0.9652
13516SOL     OW43949   0.228   8.765   3.098  0.9836  0.2531 -0.0778
13516SOL    HW143950   0.313   8.775   3.140  0.9339 -1.7126  0.5874
13516SOL    HW243951   0.185   8.850   3.110  2.2163  0.7527  1.0355
13517SOL     OW43952   4.641   7.905   2.465 -0.0355  0.7714  0.6621
13517SOL    HW143953   4.678   7.993   2.462 -1.5650  1.4294 -0.2820
13517SOL    HW243954   4.690   7.854   2.400 -0.4339  1.4847 -0.2141
13518SOL     OW43955   1.775   2.943   8.921 -0.5714  0.4375  0.3769
13518SOL    HW143956   1.734   2.952   9.006 -2.3909  0.9825 -0.5179
13518SOL    HW243957   1.868   2.964   8.937 -0.8932  0.6580  2.1660
13519SOL     OW43958   9.340  10.104   4.150  0.7292 -0.2775  0.5516
13519SOL    HW143959   9.250  10.078   4.166  0.1903  1.4286  0.5507
13519SOL    HW243960   9.357  10.078   4.059  0.0844 -0.2117  0.4070
13520SOL     OW43961   8.561   4.019   0.760 -0.1418 -0.3627  0.1862
13520SOL    HW143962   8.604   4.097   0.726  1.1068 -0.9595  0.3175
13520SOL    HW243963   8.619   3.947   0.735 -1.4108 -1.2937 -0.1964
13521SOL     OW43964   3.642   5.020   4.427 -0.1894  0.2266 -0.4065
13521SOL    HW143965   3.572   5.013   4.362 -0.5590 -0.2585  0.0305
13521SOL    HW243966   3.714   4.969   4.390 -0.8935 -1.2670  0.1828
13522SOL     OW43967   9.757   2.835   4.669  0.1980  0.0078 -0.3986
13522SOL    HW143968   9.666   2.811   4.656  0.1808  0.5162 -1.3566
13522SOL    HW243969   9.787   2.781   4.742 -1.3845  1.1653  1.2095
13523SOL     OW43970   2.025   1.627   9.509  0.0209  0.0579  0.6750
13523SOL    HW143971   1.942   1.642   9.463 -0.3749 -0.9032  1.0484
13523SOL    HW243972   2.003   1.636   9.602  0.5214  0.6287  0.7415
13524SOL     OW43973   9.502   5.288   8.391 -0.0098 -0.1993  0.0004
13524SOL    HW143974   9.492   5.217   8.454  3.0670  1.8274  3.1471
13524SOL    HW243975   9.441   5.356   8.421 -0.4906 -0.2096 -0.9172
13525SOL     OW43976   6.038   0.041   9.778  0.2126  0.0182  0.4116
13525SOL    HW143977   6.008   0.062   9.689 -0.8604  0.6482  0.8995
13525SOL    HW243978   6.007   0.114   9.831 -0.6278 -1.1554  1.5946
13526SOL     OW43979   1.508   5.724   8.326  0.2169  0.2511  0.7540
13526SOL    HW143980   1.487   5.635   8.353 -0.3538 -0.2846 -1.2621
13526SOL    HW243981   1.464   5.735   8.242  2.0142  1.6795 -0.0844
13527SOL     OW43982   3.239   4.629   2.899 -0.3683 -0.4014  0.5180
13527SOL    HW143983   3.331   4.606   2.887  0.1873  0.6920  2.2871
13527SOL    HW243984   3.214   4.674   2.819  1.3042  1.2781  0.8833
13528SOL     OW43985   5.162   3.150   2.427  0.0549 -0.0471  0.0237
13528SOL    HW143986   5.141   3.234   2.387 -0.3662 -0.6394 -1.0503
13528SOL    HW243987   5.078   3.115   2.456  0.2691  0.0443  0.7718
13529SOL     OW43988   6.166   3.074   2.478  0.3474  0.0442 -0.2251
13529SOL    HW143989   6.113   3.046   2.404 -0.3614  0.8822 -0.0604
13529SOL    HW243990   6.104   3.079   2.551  0.1803  2.8424 -0.4378
13530SOL     OW43991  10.845   5.069   5.008 -0.4568  0.2664  0.2515
13530SOL    HW143992  10.919   5.124   5.035  0.5835 -0.3757 -1.2019
13530SOL    HW243993  10.804   5.042   5.090  2.3184 -1.2748  1.2285
13531SOL     OW43994   6.216   7.568   8.797 -0.7021  0.4250  0.1193
13531SOL    HW143995   6.196   7.548   8.706 -0.5317  0.3430  0.0984
13531SOL    HW243996   6.308   7.544   8.806 -1.0868 -0.9678  0.6964
13532SOL     OW43997   7.846   0.759   3.767 -0.1834  0.4735  0.7618
13532SOL    HW143998   7.903   0.688   3.736 -0.7076  1.2669 -2.3820
13532SOL    HW243999   7.793   0.719   3.835 -0.0796 -2.0493 -0.5057
13533SOL     OW44000   3.615   7.431  10.411 -0.5242  0.0933  0.3243
13533SOL    HW144001   3.686   7.481  10.373  1.2915 -2.3865  0.1771
13533SOL    HW244002   3.549   7.496  10.435  2.2849  2.6869  1.6536
13534SOL     OW44003   5.596  10.818   0.172  0.1425 -0.6452  0.5043
13534SOL    HW144004   5.617  10.726   0.191  2.0441 -0.7244 -1.6472
13534SOL    HW244005   5.511  10.832   0.215 -0.8347 -3.7705 -0.1615
13535SOL     OW44006   3.114   1.103   6.229  0.8051 -0.4748  0.2545
13535SOL    HW144007   3.023   1.132   6.219 -0.2097 -3.6006 -0.6280
13535SOL    HW244008   3.166   1.175   6.192 -1.5017  0.0604 -2.2819
13536SOL     OW44009   5.537   7.947   1.410 -0.1177 -0.0353  0.0339
13536SOL    HW144010   5.591   8.022   1.383 -0.2624 -0.6197 -2.0354
13536SOL    HW244011   5.601   7.882   1.438  0.0387  0.5974  1.2208
13537SOL     OW44012   1.713   3.399   5.132  0.0718 -0.1254  0.5685
13537SOL    HW144013   1.728   3.343   5.208  0.7523 -0.0947  0.4683
13537SOL    HW244014   1.791   3.386   5.078  0.9192  1.9202  1.1839
13538SOL     OW44015   8.551   9.589   7.200  0.1025 -0.0900 -0.0904
13538SOL    HW144016   8.522   9.600   7.291  1.8122  0.2330  0.4543
13538SOL    HW244017   8.541   9.676   7.162  0.4949  0.0658  0.1505
13539SOL     OW44018  10.747   0.808   3.855  0.3845 -0.1174 -0.0243
13539SOL    HW144019  10.841   0.792   3.841  0.5354  1.4364 -1.0881
13539SOL    HW244020  10.744   0.894   3.896 -0.6226  1.6137 -3.3513
13540SOL     OW44021   2.077   0.883   8.739  0.4143  0.6176  1.0499
13540SOL    HW144022   2.083   0.949   8.669 -0.8295 -0.0041  0.3288
13540SOL    HW244023   2.167   0.851   8.749  0.4258 -0.2193 -1.2236
13541SOL     OW44024   9.608   8.496   0.781  0.2596 -0.0781  0.0496
13541SOL    HW144025   9.574   8.562   0.841  2.0505  0.6434  0.3232
13541SOL    HW244026   9.628   8.420   0.836  2.4903  0.8015  0.5397
13542SOL     OW44027   6.932   0.146   6.689 -0.3275 -0.0933  0.0825
13542SOL    HW144028   6.844   0.162   6.654 -0.3128 -0.0688  0.0566
13542SOL    HW244029   6.955   0.227   6.734 -0.0231  0.1668 -0.5319
13543SOL     OW44030   7.967   2.394   8.618 -0.3022 -0.5076  0.5785
13543SOL    HW144031   8.053   2.353   8.610  1.0727  2.4843 -2.2632
13543SOL    HW244032   7.915   2.352   8.549 -0.3033 -0.5140  0.5832
13544SOL     OW44033   5.884   9.138  10.203 -1.3336  0.0799  0.7781
13544SOL    HW144034   5.863   9.045  10.207 -0.9000 -0.1331 -1.0237
13544SOL    HW244035   5.976   9.140  10.175 -1.8497  1.0335 -0.9528
13545SOL     OW44036   5.721   8.977   1.570  0.1636  0.3860  0.6306
13545SOL    HW144037   5.647   8.919   1.585 -0.0418  0.3372 -0.4686
13545SOL    HW244038   5.699   9.024   1.490  0.4460  1.8108  1.3548
13546SOL     OW44039   3.774   1.594   8.992 -0.0095  0.2411  0.2653
13546SOL    HW144040   3.822   1.676   8.977 -1.7411  1.0755 -1.0228
13546SOL    HW244041   3.812   1.532   8.930 -1.6615  1.3877 -2.0320
13547SOL     OW44042   1.721  10.071   4.076 -0.0412 -0.8040 -0.7173
13547SOL    HW144043   1.728   9.983   4.113 -1.1691 -0.4025  0.5209
13547SOL    HW244044   1.629  10.095   4.088  0.2958  0.6245 -0.8132
13548SOL     OW44045   3.567   8.737   7.166 -0.5327  0.7680 -0.2235
13548SOL    HW144046   3.633   8.669   7.181 -1.3930  0.1147  0.7610
13548SOL    HW244047   3.595   8.810   7.222 -1.4241 -0.0785  1.4074
13549SOL     OW44048   9.108   5.659   7.740 -0.3213  0.1561  0.3786
13549SOL    HW144049   9.188   5.607   7.747  0.5250  1.4273  0.3566
13549SOL    HW244050   9.060   5.619   7.666 -0.4448 -1.5382  1.3253
13550SOL     OW44051   2.434   8.346   9.425 -0.1234  0.4178  0.3050
13550SOL    HW144052   2.371   8.276   9.409  0.3543  0.3854 -1.6577
13550SOL    HW244053   2.466   8.329   9.514 -0.3699 -1.5812  0.0646
13551SOL     OW44054   9.120   2.854  10.289 -0.2094  0.5208 -0.2289
13551SOL    HW144055   9.061   2.838  10.363  0.3559 -2.1326 -0.2503
13551SOL    HW244056   9.062   2.887  10.220 -1.3296 -0.1266  0.3624
13552SOL     OW44057   2.668   3.275   0.021 -0.7715 -0.2067  0.0726
13552SOL    HW144058   2.637   3.223   0.095  0.2835  0.4259  0.9761
13552SOL    HW244059   2.640   3.364   0.041 -0.3526 -0.0044 -0.2297
13553SOL     OW44060   4.599  10.179   7.986 -0.2696 -0.3935  0.2159
13553SOL    HW144061   4.564  10.181   8.075 -0.9938 -1.2196 -0.0286
13553SOL    HW244062   4.693  10.193   7.997 -0.6243  1.8708  0.8929
13554SOL     OW44063   7.077   7.447   4.012 -0.1432  0.5780  0.2061
13554SOL    HW144064   7.171   7.432   4.023 -0.1415  0.8982  0.6773
13554SOL    HW244065   7.066   7.466   3.919  0.3810  1.3601  0.2967
13555SOL     OW44066   8.017  10.008   5.320  0.4127 -0.5738 -0.0899
13555SOL    HW144067   8.047   9.937   5.377  1.4089 -0.7130 -0.7552
13555SOL    HW244068   8.036  10.088   5.368 -0.1395 -0.7317  0.3993
13556SOL     OW44069   2.943   1.018   3.092  0.1775  0.1719 -0.0339
13556SOL    HW144070   2.980   0.997   3.007  0.9401  1.3011 -0.0023
13556SOL    HW244071   2.848   1.015   3.078  0.2280 -2.0989 -0.2744
13557SOL     OW44072   3.095   0.862   2.258 -0.3899 -0.0323 -0.0431
13557SOL    HW144073   3.099   0.925   2.186 -1.7997 -1.0556 -1.0744
13557SOL    HW244074   3.143   0.786   2.225 -2.0516 -0.9613 -0.4264
13558SOL     OW44075   5.486   9.395   4.092 -0.6514  0.0989  0.5620
13558SOL    HW144076   5.526   9.309   4.085 -0.9167  0.0672 -1.1694
13558SOL    HW244077   5.399   9.379   4.127 -0.9308 -0.4399 -0.3344
13559SOL     OW44078   6.726   9.755   3.405 -0.1265  0.2721 -0.1036
13559SOL    HW144079   6.760   9.774   3.317  1.2148 -0.8514  0.1395
13559SOL    HW244080   6.743   9.834   3.455 -1.6242  1.2257 -1.0238
13560SOL     OW44081   9.255   6.573   0.006 -0.4281 -0.0750  0.4776
13560SOL    HW144082   9.223   6.652   0.048  1.1160  0.8153  0.0300
13560SOL    HW244083   9.269   6.598  -0.086  1.1999 -0.4923  0.5768
13561SOL     OW44084   5.743  10.239   5.579  0.3299 -0.4257 -0.2202
13561SOL    HW144085   5.789  10.261   5.498  2.2802  0.6950  1.1093
13561SOL    HW244086   5.807  10.256   5.648 -0.0125 -4.6080  1.4254
13562SOL     OW44087   8.341   6.118   0.497 -0.2213  0.2957  0.3731
13562SOL    HW144088   8.261   6.124   0.551 -1.2461  0.9131 -1.1502
13562SOL    HW244089   8.394   6.052   0.541 -0.4010  1.6735  2.9045
13563SOL     OW44090  10.756   3.340   3.395 -0.3137  0.0375 -0.2692
13563SOL    HW144091  10.802   3.424   3.383  0.4570 -0.1056  1.4286
13563SOL    HW244092  10.697   3.356   3.469  1.5483 -1.5266  1.6748
13564SOL     OW44093   4.436   5.315  10.010 -0.3032  0.0566 -0.0413
13564SOL    HW144094   4.450   5.260  10.087 -0.4854 -0.1288 -0.1426
13564SOL    HW244095   4.342   5.329  10.006 -0.3559 -0.3968 -0.5496
13565SOL     OW44096   0.949   7.285   3.048  0.2139 -0.2689  0.1313
13565SOL    HW144097   0.982   7.255   2.963 -0.4446  0.4424 -0.3976
13565SOL    HW244098   1.026   7.317   3.094  0.8174 -1.9913  0.4076
13566SOL     OW44099   8.060   1.661   7.446  0.3788  0.0715 -0.0122
13566SOL    HW144100   8.114   1.638   7.522 -0.2479  0.6941  0.6385
13566SOL    HW244101   7.986   1.601   7.451  1.0404 -0.8623 -0.9721
13567SOL     OW44102   9.272   9.900   7.479 -0.1826  0.5449 -0.1191
13567SOL    HW144103   9.331   9.971   7.452 -0.5593  1.5396  1.5375
13567SOL    HW244104   9.237   9.929   7.563 -0.9208 -1.2899  0.2467
13568SOL     OW44105   3.620   9.940   9.441 -0.0099  0.3041 -0.2854
13568SOL    HW144106   3.594  10.021   9.485  0.2679  0.2555 -0.0238
13568SOL    HW244107   3.706   9.960   9.404  0.3636 -0.0770  0.3566
13569SOL     OW44108   8.997   5.656   7.982 -0.1308 -0.0123  0.4408
13569SOL    HW144109   9.023   5.658   7.890  0.4374 -0.2893  0.5904
13569SOL    HW244110   9.072   5.693   8.029 -0.4730  0.2585  0.7847
13570SOL     OW44111  10.728   6.853   0.068  0.1010  0.3995 -0.9665
13570SOL    HW144112  10.691   6.764   0.067 -0.1740  0.5035 -2.3624
13570SOL    HW244113  10.664   6.905   0.117  0.8775 -0.3960  0.9672
13571SOL     OW44114   7.946  10.450   1.443 -0.6550 -1.0146  0.0451
13571SOL    HW144115   7.888  10.421   1.372  0.1167 -1.0489 -0.5939
13571SOL    HW244116   7.893  10.445   1.522 -0.9431 -2.9953 -0.2126
13572SOL     OW44117   9.334   9.636   1.595  0.2299  0.2030 -0.8679
13572SOL    HW144118   9.367   9.655   1.683 -2.0585  1.4078 -0.1759
13572SOL    HW244119   9.392   9.568   1.561 -0.7726 -2.9569  2.9459
13573SOL     OW44120   1.889   3.314   1.508 -0.2136  0.0202  0.8576
13573SOL    HW144121   1.835   3.237   1.522 -0.6809 -0.1678 -1.5713
13573SOL    HW244122   1.915   3.310   1.415  3.0419  0.7041  1.5863
13574SOL     OW44123   0.044   5.401   6.577 -0.7870 -0.8783  0.1660
13574SOL    HW144124   0.031   5.351   6.496  0.2420  0.8294 -1.1243
13574SOL    HW244125   0.112   5.464   6.556 -1.8864  0.9795  1.7526
13575SOL     OW44126   9.300   4.214   1.162  0.0759  0.4406  0.5488
13575SOL    HW144127   9.380   4.179   1.124  0.3221 -0.1680  1.5927
13575SOL    HW244128   9.321   4.306   1.182  0.9703 -0.0609  2.0258
13576SOL     OW44129  10.524   7.870   7.869  0.0968  0.2734  0.4366
13576SOL    HW144130  10.479   7.942   7.827  0.1442  0.5866  0.9122
13576SOL    HW244131  10.454   7.819   7.911  0.1312  0.4517  0.7126
13577SOL     OW44132   1.294   0.438   9.023  0.0607  0.6561 -0.0268
13577SOL    HW144133   1.365   0.454   9.086 -0.7855  1.2645  0.8050
13577SOL    HW244134   1.338   0.401   8.946  1.1900  0.3898  0.7176
13578SOL     OW44135   3.566   6.766  10.092 -0.5484  0.4010  0.2868
13578SOL    HW144136   3.549   6.801  10.004 -2.1892 -0.6139  0.1699
13578SOL    HW244137   3.661   6.753  10.093 -0.5285  0.0113 -1.5274
13579SOL     OW44138   0.690   7.121   4.191 -0.1188  0.1039 -0.8934
13579SOL    HW144139   0.700   7.029   4.215  0.1936 -0.3125 -2.5284
13579SOL    HW244140   0.779   7.156   4.193 -0.3779  0.7804  1.1223
13580SOL     OW44141   4.768   4.198   1.233  0.2226  0.5826  0.1937
13580SOL    HW144142   4.702   4.266   1.220 -0.0465  0.4369  0.7670
13580SOL    HW244143   4.756   4.170   1.324 -0.6210 -1.2010 -0.4088
13581SOL     OW44144   4.993   7.026   5.060  0.0672 -0.5617  0.0088
13581SOL    HW144145   5.054   7.052   5.128  1.0601 -0.6594 -0.8092
13581SOL    HW244146   4.906   7.035   5.100  0.4707  1.6703  0.5207
13582SOL     OW44147   8.816   8.788   7.830 -0.2094 -0.4452 -0.2917
13582SOL    HW144148   8.831   8.732   7.907  0.9652 -0.6602 -0.6694
13582SOL    HW244149   8.812   8.727   7.757  0.7501 -0.0673 -0.6657
13583SOL     OW44150   0.259   8.264  10.426 -0.0123  0.1392  0.3659
13583SOL    HW144151   0.230   8.300  10.342 -1.8956 -0.5561  0.6851
13583SOL    HW244152   0.212   8.181  10.434  0.0824  0.2289  2.1417
13584SOL     OW44153   7.969   4.942   8.659  0.5057  0.3875 -0.0799
13584SOL    HW144154   7.887   4.893   8.658  1.1764 -1.0345  2.9213
13584SOL    HW244155   7.957   5.011   8.594 -2.5811 -0.4945 -0.5947
13585SOL     OW44156   2.827  10.178   1.664 -0.2516 -0.2540  0.1555
13585SOL    HW144157   2.747  10.207   1.708 -1.8845 -1.5285 -1.8075
13585SOL    HW244158   2.840  10.241   1.593 -0.0953 -0.6257 -0.1484
13586SOL     OW44159   2.969   7.645   5.318 -0.1465 -0.6435  0.4548
13586SOL    HW144160   2.944   7.614   5.405 -1.9237 -0.3915  0.0610
13586SOL    HW244161   2.942   7.737   5.316  2.6859  0.2972  0.6756
13587SOL     OW44162   5.734   1.505   4.620 -0.1071 -0.0336  0.0204
13587SOL    HW144163   5.681   1.448   4.564 -2.4963  1.2509  0.8570
13587SOL    HW244164   5.737   1.589   4.573  0.9024  0.0356  0.1805
13588SOL     OW44165   3.584   6.245   2.097  0.4767 -0.5363 -0.2852
13588SOL    HW144166   3.581   6.193   2.177 -1.5933  0.1201  0.1110
13588SOL    HW244167   3.677   6.244   2.072  1.3315 -0.0991  2.5263
13589SOL     OW44168   8.639   1.380   2.526 -0.0013  0.3126  0.5578
13589SOL    HW144169   8.700   1.416   2.591  1.4230  1.0829 -1.1312
13589SOL    HW244170   8.631   1.288   2.549  2.5420 -0.0309  0.3295
13590SOL     OW44171   5.981   0.091   7.683 -0.2704 -0.1074  0.3033
13590SOL    HW144172   5.942   0.178   7.689  0.0756  0.0345  0.5608
13590SOL    HW244173   6.063   0.098   7.733 -0.0555 -0.4754  0.0108
13591SOL     OW44174   2.153   5.284   0.053 -0.3539 -0.9867  0.8411
13591SOL    HW144175   2.140   5.261  -0.039 -0.8588 -0.8634  0.8824
13591SOL    HW244176   2.073   5.329   0.079 -0.1115 -0.7924  1.2726
13592SOL     OW44177   8.909   1.563   7.907  0.5472 -0.1641 -0.2902
13592SOL    HW144178   8.821   1.576   7.870  1.1248 -0.2868 -1.7748
13592SOL    HW244179   8.919   1.468   7.913  0.8238 -0.1678 -0.7640
13593SOL     OW44180  10.486   7.044   4.764  0.1360  0.7494 -0.0487
13593SOL    HW144181  10.575   7.061   4.733 -0.1558  3.9127  0.5880
13593SOL    HW244182  10.472   6.951   4.745  3.1950  0.3790 -1.0433
13594SOL     OW44183   2.985   9.245  10.504  0.3888 -0.0712 -0.8256
13594SOL    HW144184   3.049   9.197  10.556 -0.9437 -0.9361  0.0735
13594SOL    HW244185   2.926   9.178  10.471  0.0103  0.6943 -1.7619
13595SOL     OW44186   5.330   3.491   7.101  0.3860  0.0330  0.0262
13595SOL    HW144187   5.271   3.565   7.090  3.0582  2.1238 -1.5964
13595SOL    HW244188   5.383   3.513   7.177  0.9213 -0.4360 -0.2016
13596SOL     OW44189   4.912   2.990   8.150  0.3730 -0.0743 -0.5088
13596SOL    HW144190   4.894   2.915   8.094 -2.0070  0.4399 -0.5276
13596SOL    HW244191   4.847   3.056   8.125 -0.1700  0.5349  2.1480
13597SOL     OW44192   5.380  10.728   4.271 -0.0596 -0.1098 -0.6610
13597SOL    HW144193   5.357  10.811   4.230 -0.7419 -0.9971 -2.1537
13597SOL    HW244194   5.467  10.707   4.238 -0.1026 -0.2359 -0.6957
13598SOL     OW44195   8.061  10.909  10.301  0.0193 -0.0864  0.2318
13598SOL    HW144196   8.111  10.990  10.298  0.8294 -0.5354  1.0646
13598SOL    HW244197   8.025  10.906  10.390 -1.8817  0.4308 -0.4624
13599SOL     OW44198   2.200   5.683   9.716 -0.5892 -0.2527  0.1124
13599SOL    HW144199   2.201   5.641   9.802  0.1159 -0.7214 -0.1141
13599SOL    HW244200   2.269   5.639   9.667 -1.8688 -0.9367 -1.1575
13600SOL     OW44201   4.801   5.306   6.614 -0.2077  0.6031  0.1034
13600SOL    HW144202   4.846   5.279   6.534  1.9827  0.6471  1.2536
13600SOL    HW244203   4.770   5.225   6.653  1.8445  0.1496  0.9427
13601SOL     OW44204   5.178  10.084   6.924 -0.0821 -0.4235 -0.0597
13601SOL    HW144205   5.198  10.177   6.917 -2.4550  0.0817 -0.9932
13601SOL    HW244206   5.087  10.076   6.896  0.3879 -3.2046 -1.1571
13602SOL     OW44207   1.730   7.287   7.948 -0.4156  0.3278 -0.5852
13602SOL    HW144208   1.805   7.267   8.004 -0.8383  0.4590  0.0502
13602SOL    HW244209   1.761   7.272   7.859  0.6866  1.3819 -0.4082
13603SOL     OW44210   0.202   5.691   7.589 -0.0061 -0.2533  0.3081
13603SOL    HW144211   0.193   5.700   7.684  0.8956  1.6082  0.2476
13603SOL    HW244212   0.274   5.750   7.565  1.5681 -2.6028 -1.2217
13604SOL     OW44213   6.127   4.189   3.906  0.3796 -0.4635 -0.1367
13604SOL    HW144214   6.082   4.179   3.822 -0.9771  3.3702 -0.0213
13604SOL    HW244215   6.070   4.145   3.969  0.4575 -1.7130 -0.8819
13605SOL     OW44216   3.564   5.873   2.661 -0.5086  0.0372 -0.4212
13605SOL    HW144217   3.605   5.787   2.651 -0.2272  0.2479 -1.1928
13605SOL    HW244218   3.624   5.922   2.718 -0.6809 -0.2818  0.0356
13606SOL     OW44219   5.249   7.896   5.802  0.8061 -0.2815 -0.3318
13606SOL    HW144220   5.215   7.809   5.779 -1.5261  1.0289 -2.4033
13606SOL    HW244221   5.311   7.916   5.731 -0.0629  0.4407 -0.9044
13607SOL     OW44222   8.372   2.553   8.059  0.5486 -0.4863  0.5997
13607SOL    HW144223   8.310   2.514   8.121 -0.8999  0.7352 -0.0350
13607SOL    HW244224   8.455   2.509   8.078  0.1649 -0.2026  3.3749
13608SOL     OW44225   4.993   7.712   3.927 -0.0391 -0.1829  0.4670
13608SOL    HW144226   5.017   7.683   4.015 -1.7701  0.1017  1.0647
13608SOL    HW244227   4.972   7.805   3.937  0.0145 -0.0787 -0.3052
13609SOL     OW44228   3.461  10.506   5.522 -0.4496  0.5842 -0.6351
13609SOL    HW144229   3.368  10.496   5.540 -0.1122 -4.0504 -0.1901
13609SOL    HW244230   3.497  10.547   5.601 -1.8711  1.0032 -0.1802
13610SOL     OW44231   9.013   6.075   5.823 -0.1957  0.0537  0.7474
13610SOL    HW144232   8.968   5.993   5.804 -3.0702  1.0002  2.8301
13610SOL    HW244233   9.102   6.062   5.789 -1.3469 -2.7913 -1.5476
13611SOL     OW44234   7.645   4.487   0.753  0.0767 -0.1156 -0.1002
13611SOL    HW144235   7.557   4.470   0.720  0.1034  0.7230 -0.6463
13611SOL    HW244236   7.638   4.570   0.800 -0.0294 -1.4351  2.3906
13612SOL     OW44237   1.864   6.425   7.875 -0.0287 -0.2018 -0.1608
13612SOL    HW144238   1.788   6.389   7.919  0.4907 -1.0418  0.0764
13612SOL    HW244239   1.910   6.349   7.839 -0.3163  0.4270 -2.0019
13613SOL     OW44240   5.706   7.351   1.584  0.0740 -0.4390  0.0637
13613SOL    HW144241   5.760   7.274   1.571 -0.6170 -0.6468 -2.0558
13613SOL    HW244242   5.624   7.318   1.620  0.7927 -0.2852  1.9610
13614SOL     OW44243   1.389   6.787   9.747 -0.2131 -0.0759  0.7073
13614SOL    HW144244   1.300   6.797   9.715  0.3499 -0.2045 -0.9752
13614SOL    HW244245   1.393   6.697   9.779 -0.8746  0.1533  1.4703
13615SOL     OW44246   5.226   5.731   1.731 -0.3555  0.1999 -0.0139
13615SOL    HW144247   5.148   5.675   1.728 -0.4249  0.2933 -2.6751
13615SOL    HW244248   5.214   5.792   1.658 -0.1710  3.6752  2.5873
13616SOL     OW44249   0.174   0.162   2.665 -0.3648 -0.4794  0.3332
13616SOL    HW144250   0.254   0.114   2.643 -0.4001 -0.7530  0.7958
13616SOL    HW244251   0.135   0.112   2.737  0.0614  0.7354  1.4409
13617SOL     OW44252   1.597  10.754   9.385 -0.1986  0.1439 -0.0094
13617SOL    HW144253   1.574  10.724   9.473  0.6790  1.8538  0.8483
13617SOL    HW244254   1.513  10.754   9.338 -0.4529 -2.2885  0.2830
13618SOL     OW44255   9.525  10.676   6.939  0.0275  0.0386 -0.6945
13618SOL    HW144256   9.597  10.710   6.886  0.5823 -0.1643 -0.0834
13618SOL    HW244257   9.538  10.715   7.026  0.5720 -1.5568 -0.0277
13619SOL     OW44258   4.133   5.871   8.957 -0.3213 -0.0204 -0.3612
13619SOL    HW144259   4.086   5.789   8.970 -0.2963  0.0178 -0.0201
13619SOL    HW244260   4.084   5.935   9.009 -1.2361  0.5164 -1.8212
13620SOL     OW44261   5.566   6.448   0.216  0.3732 -1.2118  1.1604
13620SOL    HW144262   5.477   6.428   0.185  0.4231 -1.7336  1.3350
13620SOL    HW244263   5.598   6.364   0.249  1.6386 -1.4820 -0.6445
13621SOL     OW44264   4.657   7.324   7.895  0.7580  0.1015 -0.1652
13621SOL    HW144265   4.744   7.287   7.914  0.7126 -0.9617 -1.7638
13621SOL    HW244266   4.596   7.266   7.940  0.8042 -0.5075 -0.8481
13622SOL     OW44267   3.222   4.368   9.614 -0.3096  0.4513  0.4085
13622SOL    HW144268   3.314   4.375   9.638  0.0602 -1.4786 -0.3036
13622SOL    HW244269   3.185   4.453   9.638  1.2278  0.6228  2.4531
13623SOL     OW44270   9.890   0.479   3.494 -0.2765  0.5982 -0.1387
13623SOL    HW144271   9.876   0.547   3.559 -1.2159  1.2396 -0.9876
13623SOL    HW244272   9.880   0.397   3.543 -1.9325  1.0565  0.3635
13624SOL     OW44273   4.245   6.438   7.776  0.0042  0.3872 -0.5487
13624SOL    HW144274   4.284   6.351   7.766 -0.5036 -0.1295  1.4807
13624SOL    HW244275   4.313   6.490   7.820 -1.0432 -0.1806  1.9085
13625SOL     OW44276   3.705   3.745   0.187 -0.0948 -0.3490 -0.4571
13625SOL    HW144277   3.669   3.721   0.102 -1.4440 -1.2090  0.3016
13625SOL    HW244278   3.646   3.813   0.220 -1.9574 -2.6386  1.3417
13626SOL     OW44279   2.634   3.397   8.321 -0.0216  0.2350  0.1276
13626SOL    HW144280   2.672   3.409   8.408  0.2703  0.0426  0.0286
13626SOL    HW244281   2.677   3.319   8.286  0.5984  0.8673 -0.5797
13627SOL     OW44282   2.377   7.342   4.053  0.2458 -0.7167  0.3422
13627SOL    HW144283   2.321   7.288   3.998 -1.3717  0.8999  0.3029
13627SOL    HW244284   2.430   7.392   3.991 -1.7947  1.3332  0.1232
13628SOL     OW44285   4.097   4.874   5.894 -0.1734  0.0659 -0.0289
13628SOL    HW144286   4.129   4.844   5.809 -0.9356  0.9957 -0.6764
13628SOL    HW244287   4.177   4.897   5.943  0.2939 -0.9281 -0.3028
13629SOL     OW44288   0.306   7.388   6.348 -0.0239  0.1066 -0.1176
13629SOL    HW144289   0.240   7.341   6.398  2.4656 -0.1543  3.2950
13629SOL    HW244290   0.342   7.322   6.288 -0.5577 -0.6469  0.3694
13630SOL     OW44291   1.257   1.997   9.638 -0.2148  0.0261  0.1965
13630SOL    HW144292   1.317   1.929   9.670 -0.7380 -0.6015 -0.1371
13630SOL    HW244293   1.288   2.078   9.680  2.7473  0.3289 -2.2326
13631SOL     OW44294   3.557   1.803   3.554  0.0827  0.6357 -0.1682
13631SOL    HW144295   3.602   1.882   3.524  2.0881 -0.6229 -0.6127
13631SOL    HW244296   3.545   1.751   3.475 -0.2715  0.0233  0.2811
13632SOL     OW44297   3.577   0.053  10.353 -0.2308  0.4972 -0.1026
13632SOL    HW144298   3.547   0.144  10.353 -1.0213  0.2564 -1.4688
13632SOL    HW244299   3.497   0.002  10.366  0.1106 -0.0336 -0.0788
13633SOL     OW44300   9.855   5.537  10.191  0.1122  0.4755 -0.2245
13633SOL    HW144301   9.800   5.532  10.269  0.0496 -0.7578 -0.3352
13633SOL    HW244302   9.839   5.455  10.144 -0.6852  1.6504 -2.1208
13634SOL     OW44303   4.202   6.465   9.322  0.0559  0.1838  0.1172
13634SOL    HW144304   4.174   6.541   9.375 -0.1235  0.6061 -0.5720
13634SOL    HW244305   4.120   6.427   9.291  0.1369 -0.4683  0.6952
13635SOL     OW44306  10.414   3.784   4.249  0.9468 -0.1312  0.0447
13635SOL    HW144307  10.500   3.759   4.284  2.3809  0.7177 -2.5946
13635SOL    HW244308  10.420   3.878   4.236 -0.2278 -0.1325 -0.5767
13636SOL     OW44309   5.270   7.251  10.181 -0.0043  0.0316 -0.3508
13636SOL    HW144310   5.286   7.342  10.207 -3.7265  0.6958  0.1820
13636SOL    HW244311   5.279   7.253  10.085  1.1700  0.5984 -0.2596
13637SOL     OW44312   2.691   3.665   1.383 -0.2072 -0.3071  0.6133
13637SOL    HW144313   2.616   3.622   1.341 -0.7500  1.5325 -0.4522
13637SOL    HW244314   2.729   3.599   1.440 -0.6524 -2.3404 -1.3242
13638SOL     OW44315   0.705   0.198   9.340  0.1317 -0.0818  0.0086
13638SOL    HW144316   0.774   0.255   9.372  1.6833 -2.4863  1.3076
13638SOL    HW244317   0.713   0.118   9.392 -3.7428 -0.5109  0.3104
13639SOL     OW44318   1.290   1.759   4.794 -0.2807 -0.4624 -0.5286
13639SOL    HW144319   1.200   1.784   4.771 -0.3149  0.2053  0.3100
13639SOL    HW244320   1.321   1.709   4.718 -1.4715 -0.9835 -0.6904
13640SOL     OW44321   4.063  10.885   4.054  0.2492 -0.2648  0.1169
13640SOL    HW144322   4.105  10.825   3.993 -1.0278 -0.8058 -0.2543
13640SOL    HW244323   4.116  10.965   4.050  1.3096 -0.9670 -0.2263
13641SOL     OW44324   4.252   9.953   8.697 -0.0955 -0.2125  0.9381
13641SOL    HW144325   4.293   9.874   8.732  0.6302  0.7028  2.2450
13641SOL    HW244326   4.158   9.941   8.716 -0.0305 -0.8707  0.8809
13642SOL     OW44327   6.558   1.079   8.313  0.1512  0.0720  0.0067
13642SOL    HW144328   6.570   1.015   8.383  1.8144  0.3899  0.0523
13642SOL    HW244329   6.463   1.083   8.300  0.0008 -2.5483 -0.1449
13643SOL     OW44330   7.182   1.931   3.134 -0.1240 -0.3239 -0.1472
13643SOL    HW144331   7.274   1.906   3.144  0.4393  1.9611  1.1269
13643SOL    HW244332   7.184   2.026   3.121 -2.2126 -0.4962 -2.5331
13644SOL     OW44333   8.909   6.997  10.900 -0.4110 -0.1274  0.0159
13644SOL    HW144334   8.899   6.990  10.995 -2.0018  0.5431 -0.0618
13644SOL    HW244335   8.984   7.055  10.888  0.8902 -1.5693  0.8099
13645SOL     OW44336   2.312   4.387   2.614  0.1877  0.6303  0.2623
13645SOL    HW144337   2.407   4.391   2.609  0.2512 -1.3576 -2.6442
13645SOL    HW244338   2.293   4.299   2.647 -0.6827  1.0224  0.8641
13646SOL     OW44339  10.522   9.351   9.834 -0.4488  0.1543 -0.2012
13646SOL    HW144340  10.480   9.328   9.751 -0.3900  0.6479 -0.3673
13646SOL    HW244341  10.612   9.319   9.825 -0.3730  0.4259 -0.4235
13647SOL     OW44342   3.047   0.845   6.118 -0.4779  0.0205  0.1910
13647SOL    HW144343   2.966   0.889   6.092 -0.3710 -0.4979 -1.1230
13647SOL    HW244344   3.089   0.906   6.178 -1.8441  0.2939  0.9066
13648SOL     OW44345   5.502   8.925   4.365  0.5211 -0.5311 -0.4906
13648SOL    HW144346   5.488   9.011   4.324 -0.0997  0.4610  1.6530
13648SOL    HW244347   5.417   8.881   4.357  0.1614 -0.0224  0.3683
13649SOL     OW44348   1.215   1.355   1.000 -0.3707 -0.5963 -0.4926
13649SOL    HW144349   1.194   1.262   0.999 -0.5697 -0.5515 -0.4878
13649SOL    HW244350   1.147   1.396   0.946 -0.5837 -0.3906 -0.0713
13650SOL     OW44351   2.054   4.277   4.000 -0.7231  0.2249 -0.2589
13650SOL    HW144352   2.018   4.218   4.066 -0.8834  1.4277  0.7697
13650SOL    HW244353   2.006   4.359   4.013 -0.8460  0.4539 -1.9700
13651SOL     OW44354   3.313   4.860   7.017 -0.0148  0.5190 -0.6292
13651SOL    HW144355   3.391   4.814   6.986  1.0783  2.3746 -0.7600
13651SOL    HW244356   3.313   4.846   7.112 -0.3156 -0.6085 -0.7745
13652SOL     OW44357   6.280   2.275   8.916 -0.3361  0.0351 -0.5001
13652SOL    HW144358   6.252   2.269   9.007 -0.6843  0.1553 -0.5979
13652SOL    HW244359   6.369   2.309   8.921 -0.6278  0.7889 -0.2310
13653SOL     OW44360   3.839   0.634  10.540 -0.0404  0.0909 -0.0910
13653SOL    HW144361   3.901   0.613  10.470  0.6816  1.0911  0.2185
13653SOL    HW244362   3.869   0.718  10.573  0.2768 -0.8383  2.1341
13654SOL     OW44363   9.395   5.749   1.106  0.5096 -0.1830  0.6717
13654SOL    HW144364   9.348   5.762   1.188  1.1519 -1.2835  1.2349
13654SOL    HW244365   9.392   5.834   1.063  0.8041  0.6236  2.1837
13655SOL     OW44366   2.714   3.965   7.752  0.0814 -0.0747 -0.5516
13655SOL    HW144367   2.727   3.876   7.718  1.7729  0.0698 -0.3725
13655SOL    HW244368   2.628   3.963   7.792  0.6916 -2.0985  0.8100
13656SOL     OW44369   3.668   8.916   4.204 -0.0520  0.3752 -0.2329
13656SOL    HW144370   3.650   8.937   4.112  0.2196  0.1091 -0.3501
13656SOL    HW244371   3.619   8.981   4.254 -0.9268 -0.0261 -0.5536
13657SOL     OW44372   5.588   9.718   8.846 -0.0618  0.1294  0.5056
13657SOL    HW144373   5.531   9.718   8.769 -1.9262  0.7154  1.8208
13657SOL    HW244374   5.641   9.797   8.836 -0.9735  0.7359  0.2838
13658SOL     OW44375   9.044   1.655   4.657  0.2357  0.1589 -0.5818
13658SOL    HW144376   9.085   1.679   4.740  1.6386  2.1286 -1.7561
13658SOL    HW244377   9.072   1.565   4.642 -0.3743 -0.3812  1.2238
13659SOL     OW44378   4.164   2.154   8.134  0.1980  0.8379  0.0092
13659SOL    HW144379   4.135   2.064   8.144  1.4019  0.4799  0.4089
13659SOL    HW244380   4.242   2.161   8.190  0.8801  1.7563 -1.0124
13660SOL     OW44381   2.794   0.943   2.075  0.5048  0.3940  0.2096
13660SOL    HW144382   2.793   0.961   2.169  0.7550  0.3835  0.2131
13660SOL    HW244383   2.706   0.910   2.057  0.5184  0.2058  0.4773
13661SOL     OW44384   3.974   6.845   1.764  0.2273  0.1634 -0.4050
13661SOL    HW144385   3.881   6.825   1.771  0.3129  0.3805  2.7171
13661SOL    HW244386   3.980   6.939   1.782  1.0493  0.1374 -0.4815
13662SOL     OW44387   1.862   9.307   1.258  0.1464  0.4714  0.1717
13662SOL    HW144388   1.943   9.293   1.210 -0.1543 -0.2160 -0.1435
13662SOL    HW244389   1.875   9.260   1.341 -0.1771 -0.1906 -0.1492
13663SOL     OW44390   8.871   3.037   1.595 -0.1564  0.0152 -0.3404
13663SOL    HW144391   8.918   2.960   1.628  3.3255  1.9283 -0.3451
13663SOL    HW244392   8.845   3.083   1.675  2.3287  1.2784 -0.1582
13664SOL     OW44393   2.320   3.033   4.386 -0.3845  0.0200  0.6298
13664SOL    HW144394   2.300   3.097   4.318  2.3895 -0.0175 -0.3930
13664SOL    HW244395   2.362   3.084   4.456 -0.8208 -0.3094  1.1416
13665SOL     OW44396   6.624   3.205   5.063  0.4005 -0.4279  0.3140
13665SOL    HW144397   6.663   3.272   5.007 -0.3184  0.0881  0.4220
13665SOL    HW244398   6.695   3.181   5.123  0.7691 -0.0030  0.0570
13666SOL     OW44399   7.322  10.903   0.410  0.8512  0.4638 -0.3545
13666SOL    HW144400   7.284  10.854   0.483  1.8898 -0.2225 -0.2587
13666SOL    HW244401   7.282  10.990   0.416  1.8805  0.8635  1.8438
13667SOL     OW44402   2.388   3.506   4.858  0.6988 -0.7103 -0.4074
13667SOL    HW144403   2.298   3.473   4.849  1.0969 -2.0160  0.1681
13667SOL    HW244404   2.377   3.601   4.872 -0.5532 -0.7631 -0.8853
13668SOL     OW44405   5.353   5.456  10.214  0.2928  0.5889 -0.2202
13668SOL    HW144406   5.426   5.500  10.169  1.9126 -2.1103 -0.4326
13668SOL    HW244407   5.395   5.398  10.277 -1.8208  1.0136  1.7246
13669SOL     OW44408   2.770   2.926   2.522 -0.2381  0.5096 -0.3001
13669SOL    HW144409   2.836   2.873   2.568 -1.3044 -1.8717 -1.3480
13669SOL    HW244410   2.688   2.904   2.565 -0.6978  1.6119 -0.5682
13670SOL     OW44411   5.993   0.720   2.629 -0.5998  0.2316 -0.0475
13670SOL    HW144412   6.077   0.704   2.587 -0.4201 -1.4371  0.8535
13670SOL    HW244413   5.950   0.634   2.629 -1.5901  0.7064  0.9773
13671SOL     OW44414   6.480   9.520   3.561 -0.3556  0.2604  0.0871
13671SOL    HW144415   6.435   9.603   3.578  0.3970  0.9360 -1.0730
13671SOL    HW244416   6.568   9.546   3.532  0.0736 -0.9643  0.2393
13672SOL     OW44417   2.807   4.027   8.010 -0.4080 -0.3501 -0.5194
13672SOL    HW144418   2.837   3.947   8.055 -0.9468 -0.2872 -0.0304
13672SOL    HW244419   2.795   4.000   7.919  3.8648  0.2982 -1.4795
13673SOL     OW44420   6.158   4.701   2.826  0.6461  0.0739 -0.5436
13673SOL    HW144421   6.084   4.652   2.790  0.0384 -0.7957  1.6705
13673SOL    HW244422   6.228   4.690   2.762 -0.2264 -1.6867 -1.2725
13674SOL     OW44423   6.140   0.415   4.359 -0.1993 -0.3543  0.0389
13674SOL    HW144424   6.111   0.347   4.420 -1.4382  1.1974  1.2733
13674SOL    HW244425   6.108   0.497   4.398 -1.0069  0.7225 -2.6582
13675SOL     OW44426   4.044   3.882   0.425 -0.1429  0.4878  0.2942
13675SOL    HW144427   3.986   3.818   0.386  1.4725 -0.5097 -0.5727
13675SOL    HW244428   4.112   3.831   0.468  0.3581  1.6059  0.8903
13676SOL     OW44429   2.970   7.425   2.683 -0.1489 -0.4211  0.7997
13676SOL    HW144430   3.005   7.508   2.714  1.4028 -0.0674 -1.6263
13676SOL    HW244431   3.025   7.359   2.724  0.5075 -0.0843  0.4742
13677SOL     OW44432   2.140   9.075   8.614 -0.3262 -0.1762 -0.6761
13677SOL    HW144433   2.128   9.167   8.637 -0.2052 -0.3276  0.0349
13677SOL    HW244434   2.108   9.068   8.524 -0.2627  0.5743 -0.7654
13678SOL     OW44435   5.444   3.690   5.164 -0.1289 -0.4759 -0.5509
13678SOL    HW144436   5.462   3.748   5.238  1.7356 -1.9610  0.2485
13678SOL    HW244437   5.349   3.694   5.153 -0.4927 -0.2793  1.9897
13679SOL     OW44438   1.436   9.059   3.262 -0.3164 -0.3713  0.0620
13679SOL    HW144439   1.392   9.088   3.183 -0.0329  1.3283  0.4830
13679SOL    HW244440   1.373   9.076   3.333 -1.0152 -2.9171  0.1432
13680SOL     OW44441   2.210   5.736  10.879  0.7325 -0.8975 -0.6336
13680SOL    HW144442   2.136   5.762  10.824  0.8276 -0.2598 -0.4674
13680SOL    HW244443   2.243   5.657  10.838  0.0185 -1.1330 -0.7687
13681SOL     OW44444   2.949  10.781   0.595  0.0799  0.1029 -0.0605
13681SOL    HW144445   3.037  10.796   0.630 -0.5463  0.6016  1.3412
13681SOL    HW244446   2.892  10.782   0.671 -0.9611 -1.9774 -0.7339
13682SOL     OW44447   3.280   1.862   5.101 -0.1396 -0.1619  0.0810
13682SOL    HW144448   3.212   1.804   5.065  0.8295 -0.7215 -0.9316
13682SOL    HW244449   3.260   1.948   5.065  0.8115 -0.7138 -1.9337
13683SOL     OW44450   9.804   1.633   6.482  0.3731  0.2617  0.0675
13683SOL    HW144451   9.805   1.537   6.473 -0.0322  0.4155 -2.0054
13683SOL    HW244452   9.895   1.657   6.498  1.5263 -0.1321 -4.6231
13684SOL     OW44453   1.008   4.126   5.604  0.1718  0.4592  0.1751
13684SOL    HW144454   0.957   4.047   5.624 -0.0731  0.6141  0.1690
13684SOL    HW244455   1.061   4.141   5.682  1.9712 -1.0396 -0.6792
13685SOL     OW44456   3.398   4.070  10.772  0.0553  0.1788  0.2463
13685SOL    HW144457   3.335   3.998  10.777 -0.9952  1.1076  0.8079
13685SOL    HW244458   3.397   4.097  10.680 -1.0780  0.7869  0.4246
13686SOL     OW44459   9.788   8.861   9.672 -0.5000  0.0844 -0.1245
13686SOL    HW144460   9.709   8.912   9.682 -1.0925 -0.5614 -1.2992
13686SOL    HW244461   9.855   8.924   9.644 -0.7114  0.5390  0.3782
13687SOL     OW44462   8.962   8.843   4.683 -0.3477 -0.0337 -0.2965
13687SOL    HW144463   8.965   8.763   4.734 -0.0361 -0.3753 -0.8413
13687SOL    HW244464   8.930   8.816   4.597 -0.0822  0.3941 -0.5360
13688SOL     OW44465   2.073   0.402   4.908  0.3205  0.0062 -1.0270
13688SOL    HW144466   2.074   0.480   4.963  0.3469 -0.5762 -0.1863
13688SOL    HW244467   1.980   0.385   4.893  0.1945 -1.0498  0.6414
13689SOL     OW44468   7.397  10.744   5.635  0.1518  0.0293  0.1013
13689SOL    HW144469   7.444  10.664   5.614  0.7151  0.4959 -0.4389
13689SOL    HW244470   7.305  10.723   5.620  0.3042 -0.4920 -0.0984
13690SOL     OW44471  10.094   5.969   8.982  0.4298 -0.1483 -0.4788
13690SOL    HW144472   9.999   5.969   8.973  0.4658 -0.9652 -0.8954
13690SOL    HW244473  10.110   5.972   9.076 -0.0290 -1.6307 -0.3300
13691SOL     OW44474   2.828   0.328   8.679  0.0240  0.3149 -0.5168
13691SOL    HW144475   2.736   0.308   8.659  0.4043 -1.3519 -0.6851
13691SOL    HW244476   2.825   0.368   8.766 -0.7999 -0.4928 -0.1560
13692SOL     OW44477   7.482   4.078   3.331 -0.1893  0.2234  0.0251
13692SOL    HW144478   7.412   4.057   3.270 -0.7970  0.4316  0.6348
13692SOL    HW244479   7.544   4.130   3.280 -0.8501  0.6793 -0.3330
13693SOL     OW44480   4.868   5.217  10.338 -0.5173 -0.2424 -0.4639
13693SOL    HW144481   4.942   5.260  10.296 -0.1736 -0.8291 -0.4758
13693SOL    HW244482   4.817   5.288  10.377 -0.1273  0.1927 -0.7400
13694SOL     OW44483   0.292   8.089   8.366 -0.0504  0.2209  0.2472
13694SOL    HW144484   0.295   7.993   8.360  1.8756  0.2395  0.1896
13694SOL    HW244485   0.287   8.107   8.459 -0.9156  0.0852  0.2385
13695SOL     OW44486   2.612   3.579   5.771  1.2633  0.0311  0.0507
13695SOL    HW144487   2.627   3.488   5.749  0.9816  0.0055 -0.0427
13695SOL    HW244488   2.571   3.577   5.857  1.3227  0.0723  0.0799
13696SOL     OW44489   6.455   9.122   0.174 -0.0414  0.3038 -0.1411
13696SOL    HW144490   6.501   9.087   0.097  0.6020  1.5310 -0.3244
13696SOL    HW244491   6.508   9.195   0.204 -2.5017  2.7150 -1.2029
13697SOL     OW44492   1.116   0.474   0.242 -0.4413 -0.6638 -0.8986
13697SOL    HW144493   1.148   0.546   0.188 -0.0168  0.4734  0.7676
13697SOL    HW244494   1.022   0.489   0.249 -0.1934  0.5692  0.4924
13698SOL     OW44495   8.784   5.813   3.564 -0.2763  0.2947  0.5406
13698SOL    HW144496   8.708   5.825   3.507  0.0065 -0.5061 -0.0199
13698SOL    HW244497   8.831   5.740   3.526  0.7607  0.7510  0.9079
13699SOL     OW44498   9.310   9.247   7.683  0.0236  0.4744 -0.0911
13699SOL    HW144499   9.333   9.177   7.744 -0.2090  0.6948  0.2521
13699SOL    HW244500   9.258   9.204   7.616 -0.0766  0.3081  0.0914
13700SOL     OW44501   1.043   2.511   1.037  0.4158 -0.8050 -0.3156
13700SOL    HW144502   1.013   2.548   0.954  0.9615  1.6446  0.4704
13700SOL    HW244503   1.138   2.504   1.027  0.3009 -2.3856 -0.5423
13701SOL     OW44504   9.903   2.363  10.701  0.1439  0.2439  0.2947
13701SOL    HW144505   9.840   2.292  10.697 -0.9892  1.2792 -1.9079
13701SOL    HW244506   9.856   2.435  10.743  0.3666  0.5678 -0.0073
13702SOL     OW44507   4.708   8.432   5.323 -0.2463 -0.3262  0.1419
13702SOL    HW144508   4.803   8.422   5.323 -0.3168 -1.1328 -0.2175
13702SOL    HW244509   4.693   8.526   5.314  0.5157 -0.2275 -0.1542
13703SOL     OW44510   4.230   9.050   1.409  0.0785  0.4537  0.4184
13703SOL    HW144511   4.223   9.113   1.338  1.7102 -0.2595 -0.4387
13703SOL    HW244512   4.223   9.103   1.489 -0.4901  1.4443 -0.2696
13704SOL     OW44513   1.162   8.172   3.469 -0.3646  0.1388  0.3417
13704SOL    HW144514   1.086   8.196   3.416 -0.2274 -2.5753 -1.2370
13704SOL    HW244515   1.138   8.090   3.511  1.5431 -0.5957  0.0854
13705SOL     OW44516   5.056   9.337   2.980  0.1507 -0.3368 -0.1412
13705SOL    HW144517   5.009   9.264   2.941 -0.2943 -1.4296  2.2257
13705SOL    HW244518   5.032   9.413   2.927 -1.2139 -1.5272 -1.2949
13706SOL     OW44519   0.395   9.214   0.339  0.0237  0.0048 -0.1120
13706SOL    HW144520   0.486   9.187   0.343  0.2672  0.3701 -2.0502
13706SOL    HW244521   0.398   9.308   0.318 -0.8240  0.4320  1.4413
13707SOL     OW44522   2.842  10.222   6.139  0.0244  1.0814 -0.3991
13707SOL    HW144523   2.872  10.309   6.115  1.2074  1.0543  0.8596
13707SOL    HW244524   2.921  10.168   6.135 -0.7011  0.0332 -1.2213
13708SOL     OW44525  10.174   9.944   1.839  0.6102 -0.3065  0.2250
13708SOL    HW144526  10.176   9.866   1.784  1.2520  0.7336 -1.2695
13708SOL    HW244527  10.106   9.924   1.905 -0.0253 -1.6662 -0.7843
13709SOL     OW44528   0.160   9.275   3.139  0.5536  0.3170 -0.0541
13709SOL    HW144529   0.240   9.312   3.176  1.1356 -1.4428  0.5739
13709SOL    HW244530   0.092   9.338   3.161  1.2474  0.3549  2.2650
13710SOL     OW44531   8.228   4.048   5.079 -0.0545 -0.2542  0.3221
13710SOL    HW144532   8.315   4.015   5.061 -0.1028  0.0781 -0.5583
13710SOL    HW244533   8.241   4.120   5.141  0.4991  0.9933 -1.1769
13711SOL     OW44534   2.921   2.138   3.332 -0.3533  0.2407 -0.1992
13711SOL    HW144535   2.989   2.110   3.393  0.6983  0.4888 -1.2286
13711SOL    HW244536   2.902   2.228   3.358 -0.5974  0.0420  0.3415
13712SOL     OW44537   9.388   6.582   6.374  0.2464 -0.6719  0.0218
13712SOL    HW144538   9.406   6.528   6.451  3.4751  0.0007 -0.1300
13712SOL    HW244539   9.415   6.529   6.300  0.9547  0.1379 -0.3162
13713SOL     OW44540   8.429   5.115   1.431  0.2135  0.7955  0.2552
13713SOL    HW144541   8.394   5.200   1.460  0.7109  0.4041  2.1569
13713SOL    HW244542   8.468   5.077   1.510  0.4151 -1.0139 -0.6641
13714SOL     OW44543   3.838   7.331   4.574 -0.0346 -0.1650  0.2647
13714SOL    HW144544   3.859   7.352   4.483 -1.4945 -0.8742 -0.2621
13714SOL    HW244545   3.796   7.410   4.608 -0.0172 -0.1062  0.1498
13715SOL     OW44546  10.520   7.849   8.533 -0.3262 -0.7009 -0.6458
13715SOL    HW144547  10.477   7.764   8.524 -0.0524 -0.7913 -1.1215
13715SOL    HW244548  10.541   7.855   8.626 -0.3447 -1.1534 -0.6108
13716SOL     OW44549   4.426   2.370   4.557 -0.1299  0.5216  0.2501
13716SOL    HW144550   4.382   2.287   4.572  0.5401  0.1658  0.2850
13716SOL    HW244551   4.367   2.418   4.500  0.2063 -0.6200 -1.1064
13717SOL     OW44552   0.141   2.789   7.674 -0.2546 -0.1732 -0.1959
13717SOL    HW144553   0.109   2.803   7.585 -1.2912 -1.4287 -0.0489
13717SOL    HW244554   0.069   2.819   7.730 -0.7117 -1.8718  0.1664
13718SOL     OW44555   9.982   7.528   1.849  0.0295 -0.0473  0.2502
13718SOL    HW144556   9.915   7.574   1.900  1.3842 -0.1868  2.2354
13718SOL    HW244557  10.065   7.555   1.887  1.0618 -0.9564 -1.2526
13719SOL     OW44558   1.411   9.734   4.871  0.0120 -0.5386  0.5421
13719SOL    HW144559   1.410   9.784   4.952 -2.3715 -0.1384  0.3261
13719SOL    HW244560   1.434   9.798   4.803 -2.3086  0.1797  0.3660
13720SOL     OW44561   2.145   3.377   6.981 -0.2648 -0.4153 -0.4349
13720SOL    HW144562   2.104   3.361   7.066 -0.8317 -0.5460 -0.7299
13720SOL    HW244563   2.206   3.449   6.998 -3.0793  2.2435 -0.6843
13721SOL     OW44564   9.465   2.778   4.750  0.1722  0.1247  0.4508
13721SOL    HW144565   9.379   2.747   4.721 -0.0478 -0.2928  1.4803
13721SOL    HW244566   9.464   2.872   4.733 -1.0425  0.3660  1.6891
13722SOL     OW44567   5.478   5.761   1.826  0.1891 -0.1948 -0.4272
13722SOL    HW144568   5.520   5.826   1.769 -0.3024  0.0876 -0.4690
13722SOL    HW244569   5.384   5.778   1.817  0.1239  1.4983  2.3205
13723SOL     OW44570   7.065   2.609   5.688  0.0503  0.4846 -0.0782
13723SOL    HW144571   7.073   2.579   5.779  0.3071  0.6026 -0.0602
13723SOL    HW244572   6.974   2.637   5.680  0.0403  0.5204  0.1583
13724SOL     OW44573   3.096   6.750   7.186  0.7206 -0.0659  0.1365
13724SOL    HW144574   3.174   6.805   7.195  0.3122  0.5761 -0.1691
13724SOL    HW244575   3.026   6.812   7.167 -0.0059 -0.5677  1.1265
13725SOL     OW44576  10.051   0.280   0.957 -0.3654 -0.1744  0.7617
13725SOL    HW144577  10.052   0.259   1.051  2.9079 -1.3682  0.5798
13725SOL    HW244578  10.014   0.203   0.915  2.3677 -1.6733  0.8562
13726SOL     OW44579   5.435   7.889   5.562 -0.0828  0.4720  0.9761
13726SOL    HW144580   5.529   7.899   5.575  0.2257  0.2199 -0.8330
13726SOL    HW244581   5.424   7.802   5.525 -1.1616  0.0592  2.2171
13727SOL     OW44582   6.439   4.669  10.777 -0.0585  0.6630  0.1500
13727SOL    HW144583   6.384   4.591  10.766  0.5870  0.1119  0.6965
13727SOL    HW244584   6.508   4.659  10.712 -1.4722  2.1990 -1.7071
13728SOL     OW44585   0.453   1.842   5.567  0.3303 -0.0512 -0.1119
13728SOL    HW144586   0.501   1.893   5.501 -0.7585  1.6259  0.3510
13728SOL    HW244587   0.521   1.792   5.612  1.1907 -0.6338 -1.9412
13729SOL     OW44588   9.143   9.006   1.901  0.2379  0.6686 -0.2902
13729SOL    HW144589   9.117   9.080   1.844  0.3400  1.0438  0.1437
13729SOL    HW244590   9.172   9.048   1.982  0.7777  0.1684 -0.2219
13730SOL     OW44591   0.966   6.240   2.738  0.5471  0.2411 -0.2590
13730SOL    HW144592   1.054   6.275   2.728  1.2469 -1.1398  0.6203
13730SOL    HW244593   0.925   6.297   2.803  0.7944  0.8889 -0.6626
13731SOL     OW44594   4.077   9.815   9.583 -0.2600 -0.1766 -0.1850
13731SOL    HW144595   4.121   9.750   9.637  0.5164 -1.1036 -1.8562
13731SOL    HW244596   4.104   9.794   9.493 -2.3334  0.6297 -1.0547
13732SOL     OW44597   9.845   2.792   3.098 -0.2970  0.0896 -0.5822
13732SOL    HW144598   9.852   2.885   3.119 -0.2443 -0.1661  0.5921
13732SOL    HW244599   9.911   2.778   3.030  1.4630  0.4184  0.9652
13733SOL     OW44600   4.835   7.529   6.265 -0.2648  0.2960  0.1068
13733SOL    HW144601   4.908   7.574   6.307 -0.1925  1.4384 -1.1658
13733SOL    HW244602   4.872   7.495   6.183 -1.2610  1.3944 -0.8345
13734SOL     OW44603   8.116  10.411   0.678 -0.1588  0.6345  0.7769
13734SOL    HW144604   8.046  10.346   0.690 -1.0598  1.8114  2.3063
13734SOL    HW244605   8.073  10.495   0.692  1.0748  1.5679 -0.7303
13735SOL     OW44606   7.132   4.793   4.764 -0.1889  0.2018  0.6701
13735SOL    HW144607   7.088   4.708   4.761 -0.3095  0.1392  2.8763
13735SOL    HW244608   7.201   4.781   4.829  0.9560  1.2985 -0.2924
13736SOL     OW44609   4.579   5.167   9.828  0.2517 -0.0183  0.1735
13736SOL    HW144610   4.544   5.230   9.890 -0.5594 -1.2699  1.0342
13736SOL    HW244611   4.502   5.120   9.795  0.7417  0.0686 -1.1747
13737SOL     OW44612   7.170   5.747   0.519  0.1476 -0.4005  0.2647
13737SOL    HW144613   7.263   5.725   0.529  0.7095  2.1640  1.8501
13737SOL    HW244614   7.170   5.841   0.501 -2.1090 -0.7360 -2.0418
13738SOL     OW44615   5.576   9.776   5.912  0.0923  0.6082 -0.0590
13738SOL    HW144616   5.540   9.861   5.888  0.8101  0.5327 -1.5849
13738SOL    HW244617   5.602   9.737   5.828 -0.5774 -1.2805  0.5613
13739SOL     OW44618   8.745   7.752   7.955  0.1125 -0.1446  0.0441
13739SOL    HW144619   8.778   7.789   7.873 -0.1048 -0.2110 -0.0756
13739SOL    HW244620   8.703   7.825   8.000 -0.1107 -0.1908 -0.0852
13740SOL     OW44621   0.660   2.678   3.561 -0.6381 -0.4062  0.1239
13740SOL    HW144622   0.640   2.703   3.651  0.0399 -0.1494  0.2072
13740SOL    HW244623   0.631   2.752   3.508  2.1860  1.0570  0.4424
13741SOL     OW44624   6.292   3.950   4.552  0.2615  0.2501  0.0649
13741SOL    HW144625   6.327   4.005   4.482  1.1682  0.1169  0.3966
13741SOL    HW244626   6.276   3.865   4.510  0.5281  0.2530 -0.0434
13742SOL     OW44627   7.624   5.754   7.818 -0.1088 -0.1313 -0.2143
13742SOL    HW144628   7.551   5.781   7.873  1.0766 -1.1532  2.0377
13742SOL    HW244629   7.701   5.793   7.860  0.7777 -0.2177 -1.6993
13743SOL     OW44630   4.352   1.209   5.201  0.3847  0.7708 -0.2773
13743SOL    HW144631   4.383   1.214   5.111 -0.1551 -0.1222 -0.5176
13743SOL    HW244632   4.257   1.202   5.195  0.1627  2.4479  0.4325
13744SOL     OW44633   5.351   4.904   0.980 -0.2263  0.1438  0.1913
13744SOL    HW144634   5.422   4.877   0.921  0.1567 -0.8070  1.0509
13744SOL    HW244635   5.277   4.924   0.922  0.6452  0.8680 -0.6972
13745SOL     OW44636  10.190   5.604   9.130 -0.4991 -0.2038  0.1803
13745SOL    HW144637  10.144   5.586   9.048 -0.0640 -0.2054 -0.0672
13745SOL    HW244638  10.276   5.566   9.118  0.5987  2.2761 -0.5089
13746SOL     OW44639  10.420   7.333   0.749 -0.2914 -0.0648 -0.7145
13746SOL    HW144640  10.446   7.425   0.760  0.0740 -0.2638  0.2233
13746SOL    HW244641  10.502   7.286   0.735 -0.2681 -0.4770  0.6287
13747SOL     OW44642   4.080   2.118   9.581  0.1099  0.5413  0.0730
13747SOL    HW144643   4.022   2.106   9.655 -0.4175  1.4931 -0.1715
13747SOL    HW244644   4.132   2.195   9.603  1.1825 -0.1982  0.2169
13748SOL     OW44645   1.875  10.456   6.792  0.0981 -0.0886  0.6439
13748SOL    HW144646   1.914  10.408   6.720 -0.1232  0.2075  0.3260
13748SOL    HW244647   1.820  10.392   6.838  0.4191 -0.3329  0.6894
13749SOL     OW44648   3.418   4.974  10.153  0.4906 -0.1387 -0.1755
13749SOL    HW144649   3.462   4.977  10.068  1.2289  1.2773  0.2232
13749SOL    HW244650   3.383   4.885  10.159  1.6014 -0.6877 -1.3760
13750SOL     OW44651  10.759   1.491  10.429 -0.3230  0.3589 -0.3676
13750SOL    HW144652  10.777   1.572  10.478 -1.6589  0.2766  0.3128
13750SOL    HW244653  10.842   1.445  10.427  0.5579  1.8754 -1.0309
13751SOL     OW44654   7.778   2.757   5.377 -0.3106  0.8488 -0.1338
13751SOL    HW144655   7.705   2.761   5.315  0.0473  1.4351 -0.5264
13751SOL    HW244656   7.737   2.763   5.463 -0.8578 -0.5460 -0.2834
13752SOL     OW44657   4.683   1.486   2.777 -0.6768  0.2911 -0.2390
13752SOL    HW144658   4.600   1.532   2.764 -0.4810  0.6309 -0.2917
13752SOL    HW244659   4.665   1.424   2.848 -0.5910  1.3485  0.7380
13753SOL     OW44660   1.122  10.383   3.014  0.2361  0.2570  0.6673
13753SOL    HW144661   1.129  10.315   2.948  1.5684  1.8655 -0.9780
13753SOL    HW244662   1.030  10.409   3.014  0.3939  0.9682 -1.4102
13754SOL     OW44663   9.034   1.689   3.657 -0.0385 -0.7292  0.7266
13754SOL    HW144664   9.020   1.780   3.681  1.5082  0.0231 -1.0277
13754SOL    HW244665   8.962   1.668   3.598  1.4420  0.5296 -1.6779
13755SOL     OW44666   2.394   5.589   6.364  0.3430  0.2875  0.3676
13755SOL    HW144667   2.473   5.621   6.320 -0.0027 -0.4102 -0.8120
13755SOL    HW244668   2.424   5.513   6.413  0.3521 -0.2232 -0.4064
13756SOL     OW44669   5.340   1.642   0.147 -0.0222 -0.4213 -0.2076
13756SOL    HW144670   5.430   1.658   0.119  0.1498 -1.8643 -0.5567
13756SOL    HW244671   5.316   1.560   0.104 -2.3517  1.0963 -2.0878
13757SOL     OW44672   2.200   4.729   6.779  0.1247 -0.6357  0.0039
13757SOL    HW144673   2.137   4.731   6.707  1.2199  0.1812 -0.9658
13757SOL    HW244674   2.230   4.638   6.783  0.2324 -0.6398 -0.7469
13758SOL     OW44675   8.911   0.982   1.050  0.2785  0.0960 -0.0534
13758SOL    HW144676   8.911   0.975   0.954 -0.1851 -0.5770 -0.0104
13758SOL    HW244677   8.966   0.908   1.079 -0.3571 -0.2747  0.2286
13759SOL     OW44678   5.613   1.833   0.191  0.5191  0.4144 -0.1813
13759SOL    HW144679   5.652   1.829   0.103  1.6482 -1.5644  0.3393
13759SOL    HW244680   5.688   1.846   0.249 -0.2228  1.7540  0.5263
13760SOL     OW44681   9.532   9.744   3.164  0.1228  0.4647 -0.2106
13760SOL    HW144682   9.517   9.738   3.258  0.2809  0.2500 -0.1969
13760SOL    HW244683   9.627   9.753   3.156  0.2816 -1.1198 -0.4108
13761SOL     OW44684   9.365   9.722   9.378 -0.0545 -0.3734 -0.6872
13761SOL    HW144685   9.370   9.815   9.400 -0.5017 -0.1991 -1.3112
13761SOL    HW244686   9.369   9.678   9.463  0.0239  0.2178 -0.3737
13762SOL     OW44687   1.394   4.197   7.141  0.1849  0.1670  0.3053
13762SOL    HW144688   1.360   4.266   7.084 -0.2171 -0.2594  0.0262
13762SOL    HW244689   1.391   4.235   7.229  0.3299  0.6427  0.1058
13763SOL     OW44690   4.197   5.562   3.109 -0.2288  0.6033 -0.4396
13763SOL    HW144691   4.266   5.613   3.151 -0.8396  0.4581  0.7777
13763SOL    HW244692   4.151   5.519   3.181 -1.9335  1.1169 -1.1478
13764SOL     OW44693   2.543   9.104   3.159 -0.4994 -0.3612  0.4846
13764SOL    HW144694   2.501   9.021   3.140 -0.3387 -0.6815  1.4703
13764SOL    HW244695   2.629   9.098   3.116 -0.7716 -0.4028 -0.0582
13765SOL     OW44696   7.339   8.007   8.587  0.0292  0.3769  0.2823
13765SOL    HW144697   7.423   8.015   8.633  0.1553  2.9503 -0.2875
13765SOL    HW244698   7.275   7.991   8.657  0.8740 -1.1006  0.7691
13766SOL     OW44699   4.644  10.291  10.103  0.1644  0.6817  0.1844
13766SOL    HW144700   4.645  10.350  10.028  0.8824 -2.9599 -2.9713
13766SOL    HW244701   4.722  10.314  10.154  1.5031  1.2597 -2.0098
13767SOL     OW44702   3.430   3.285   5.351  0.0094 -0.1296  0.6226
13767SOL    HW144703   3.355   3.335   5.319 -0.6849 -2.0508 -0.9883
13767SOL    HW244704   3.433   3.304   5.445 -1.0432  1.7926  0.3297
13768SOL     OW44705  10.040   6.011   6.729  0.7054 -0.5322 -0.3282
13768SOL    HW144706  10.122   6.053   6.700  0.8822 -1.5174 -1.3087
13768SOL    HW244707  10.068   5.925   6.761  0.3184 -0.0252  1.4559
13769SOL     OW44708   8.184   6.609  10.157 -0.1292  0.2660 -0.1330
13769SOL    HW144709   8.234   6.552  10.099  0.0723  0.8021 -0.4872
13769SOL    HW244710   8.103   6.560  10.173  1.1737 -1.4273  1.8774
13770SOL     OW44711   4.159  10.763   5.335 -0.3057 -0.5825 -0.2269
13770SOL    HW144712   4.180  10.707   5.260 -1.0614  3.5443 -3.9095
13770SOL    HW244713   4.244  10.790   5.370  0.0512 -2.2095  0.2655
13771SOL     OW44714  10.375   1.682   5.719 -0.2379  0.1611 -0.1924
13771SOL    HW144715  10.409   1.612   5.663 -0.4269 -0.2288  0.1774
13771SOL    HW244716  10.286   1.696   5.688 -0.8649 -1.0894  0.9654
13772SOL     OW44717   3.559  10.583   5.172  0.1533 -0.1446 -0.0429
13772SOL    HW144718   3.598  10.644   5.235  2.3468 -1.1731 -0.2989
13772SOL    HW244719   3.469  10.613   5.162  0.5838  1.8142  1.3474
13773SOL     OW44720   8.059   2.579   0.257 -0.0587 -0.6194 -0.1262
13773SOL    HW144721   8.099   2.505   0.302  1.2556 -0.7751 -1.4740
13773SOL    HW244722   8.122   2.651   0.270 -0.1405 -0.4102 -0.8577
13774SOL     OW44723   8.724   3.621   3.884  0.0959 -0.4010 -0.2530
13774SOL    HW144724   8.721   3.549   3.821 -0.0261 -1.5787  1.0489
13774SOL    HW244725   8.816   3.629   3.907  0.3160  0.8239 -1.4097
13775SOL     OW44726   0.331   9.828   3.191 -0.1094  0.1172  0.0585
13775SOL    HW144727   0.384   9.748   3.189 -0.4281 -0.1530  1.4913
13775SOL    HW244728   0.249   9.802   3.232 -0.4446  1.0478  0.0003
13776SOL     OW44729   3.008   4.301   6.734  0.0200 -0.1401 -0.1463
13776SOL    HW144730   2.972   4.212   6.741  1.3992 -0.6288  1.2966
13776SOL    HW244731   2.951   4.354   6.791  0.2731 -0.4634  0.4091
13777SOL     OW44732   8.033   9.393   3.668  0.4481  0.0340 -0.7096
13777SOL    HW144733   8.116   9.441   3.673  0.1685  0.4636 -0.0146
13777SOL    HW244734   7.998   9.416   3.582  1.5173 -0.9626 -1.4489
13778SOL     OW44735   5.344   2.327   5.736  0.2913 -0.0177 -0.5453
13778SOL    HW144736   5.319   2.257   5.796  0.5941  0.4575  0.1497
13778SOL    HW244737   5.428   2.299   5.699  2.0180  1.3225  2.0596
13779SOL     OW44738   0.424   5.070   1.384 -0.0867  0.1511  0.4484
13779SOL    HW144739   0.474   5.042   1.308 -1.4722 -0.6794 -0.1990
13779SOL    HW244740   0.488   5.072   1.455  1.0755  0.1916 -0.5588
13780SOL     OW44741   2.077   4.469   3.745 -0.2713 -0.3515 -0.1008
13780SOL    HW144742   2.099   4.525   3.820  0.8845  0.2528 -0.8687
13780SOL    HW244743   2.037   4.391   3.785  1.0975 -0.4325  1.2145
13781SOL     OW44744   8.366   7.515  10.534  0.1017  0.3053  0.4332
13781SOL    HW144745   8.396   7.428  10.510 -1.1118 -0.1351  0.4799
13781SOL    HW244746   8.277   7.503  10.567  0.8363  1.1774  3.0394
13782SOL     OW44747   7.821   4.658   3.914 -0.1991  0.4425 -0.0904
13782SOL    HW144748   7.872   4.683   3.991 -0.9572  0.1140  0.5222
13782SOL    HW244749   7.884   4.610   3.859 -0.3143 -1.8286  1.6035
13783SOL     OW44750   6.918   5.354   7.809  0.0640 -0.3633  0.0691
13783SOL    HW144751   6.871   5.277   7.777 -1.3526  1.0808 -1.4621
13783SOL    HW244752   6.989   5.367   7.745 -0.2631  0.1315 -0.1966
13784SOL     OW44753   2.843   8.600   8.026  0.4357 -0.2980 -0.4358
13784SOL    HW144754   2.929   8.599   8.068  0.3624 -2.0282 -0.2700
13784SOL    HW244755   2.781   8.614   8.097  0.4440 -1.2236 -0.2409
13785SOL     OW44756   0.622   0.629   3.260 -0.5776  0.1156 -0.0012
13785SOL    HW144757   0.638   0.629   3.354 -0.2860 -1.7999  0.0050
13785SOL    HW244758   0.687   0.689   3.223  0.6896 -0.6916  0.8483
13786SOL     OW44759   0.871   1.538   8.285  0.0155 -0.2789  0.0034
13786SOL    HW144760   0.930   1.553   8.212  0.1737 -2.6818 -0.4529
13786SOL    HW244761   0.856   1.443   8.285 -1.6500 -0.0910  1.8038
13787SOL     OW44762   9.081   7.175   7.416 -0.5305  0.3224 -0.0823
13787SOL    HW144763   9.126   7.189   7.332  1.1564 -0.0893  0.7171
13787SOL    HW244764   9.150   7.177   7.481 -1.8630  0.9826  1.3720
13788SOL     OW44765   8.777   1.379   8.798 -0.2873 -0.2106 -0.2247
13788SOL    HW144766   8.829   1.300   8.811 -2.9184 -1.8279  1.3918
13788SOL    HW244767   8.778   1.392   8.703 -0.3086 -2.5980 -0.6312
13789SOL     OW44768   0.881   1.818   5.080  0.3395  0.1947  0.3548
13789SOL    HW144769   0.903   1.901   5.122  0.0333  0.6111 -0.2883
13789SOL    HW244770   0.825   1.843   5.006  0.8733 -0.5135 -0.2989
13790SOL     OW44771   3.910   8.974   4.032 -0.1477  0.1798 -0.0413
13790SOL    HW144772   3.881   8.993   3.943  0.6017  0.9000 -0.1449
13790SOL    HW244773   3.830   8.948   4.079 -0.2969 -2.0320 -1.3586
13791SOL     OW44774   4.942   8.032   2.326  0.2213  0.2772 -0.0607
13791SOL    HW144775   4.943   7.945   2.366 -1.8244 -0.0516 -0.6309
13791SOL    HW244776   4.900   8.088   2.391 -1.3253  0.1443 -0.8925
13792SOL     OW44777   3.604   3.323   1.847 -0.0574  0.1847 -0.3899
13792SOL    HW144778   3.672   3.352   1.786  0.5926 -0.0362  0.2265
13792SOL    HW244779   3.525   3.319   1.793  0.5725 -0.3326 -1.3068
13793SOL     OW44780   4.290   6.387  10.322 -0.0116  0.4973 -0.2184
13793SOL    HW144781   4.314   6.476  10.349  0.0536  0.2901  0.4261
13793SOL    HW244782   4.251   6.349  10.401 -0.9351  0.2789 -0.7763
13794SOL     OW44783   8.438   2.098   5.008  0.4340 -0.0212  0.0675
13794SOL    HW144784   8.418   2.068   5.097  0.6098 -0.1080  0.0793
13794SOL    HW244785   8.355   2.093   4.961  0.3307  0.0723  0.2409
13795SOL     OW44786   8.872   9.821   1.178 -0.8037  0.5779  0.2497
13795SOL    HW144787   8.822   9.899   1.157 -1.6498 -0.2412 -0.9206
13795SOL    HW244788   8.958   9.835   1.138 -0.4548  1.4720  1.2465
13796SOL     OW44789   5.699   7.989   5.649 -0.0352 -0.5691  0.6615
13796SOL    HW144790   5.733   8.033   5.572 -2.5247  0.6177  0.1304
13796SOL    HW244791   5.721   8.047   5.722 -1.3236  0.4951  0.2481
13797SOL     OW44792   4.667   8.659  10.066 -0.4025  0.0969  0.2563
13797SOL    HW144793   4.599   8.681  10.002 -0.0221 -0.5155 -0.3673
13797SOL    HW244794   4.729   8.732  10.062 -1.0945  0.7423  0.9519
13798SOL     OW44795   9.422   0.991   8.598  0.1485 -0.0009 -0.0027
13798SOL    HW144796   9.383   0.932   8.662  0.4887  0.4295  0.6038
13798SOL    HW244797   9.396   0.955   8.513 -0.9263 -0.1613  0.3800
13799SOL     OW44798   7.025   9.964   1.798 -0.3070 -0.2442  0.3153
13799SOL    HW144799   7.096   9.908   1.830  0.0133  0.4429  0.8232
13799SOL    HW244800   7.007  10.025   1.870  0.2473  1.1665 -0.6964
13800SOL     OW44801  10.613   7.760   0.624 -0.3198 -0.5385  0.3044
13800SOL    HW144802  10.708   7.773   0.620 -0.3413 -0.6765 -1.4314
13800SOL    HW244803  10.575   7.842   0.592 -0.6143 -1.8487 -3.1639
13801SOL     OW44804   2.909   0.709   9.842 -0.0002  0.2061  0.3211
13801SOL    HW144805   2.992   0.686   9.801 -0.9442 -2.6066 -0.2501
13801SOL    HW244806   2.932   0.730   9.933  1.5043  1.3582 -0.2923
13802SOL     OW44807   4.591   5.868   1.145  0.4849  0.6287  0.5721
13802SOL    HW144808   4.580   5.811   1.221  0.3102  1.4358  1.1637
13802SOL    HW244809   4.683   5.893   1.146  1.2991 -1.8310 -1.3027
13803SOL     OW44810   8.025   3.993   2.762 -0.1373 -0.3674 -0.0130
13803SOL    HW144811   7.983   4.030   2.683 -1.0859  0.8003  0.9913
13803SOL    HW244812   8.117   4.020   2.754 -0.8082  2.5357  0.7557
13804SOL     OW44813   4.272   9.333   9.341 -0.2905  0.3047 -0.1244
13804SOL    HW144814   4.178   9.313   9.343 -0.2651  0.2199  0.3322
13804SOL    HW244815   4.282   9.391   9.265 -0.6355 -0.0581 -0.4510
13805SOL     OW44816   1.146   3.036   9.308 -0.7986 -0.7279 -0.0669
13805SOL    HW144817   1.098   3.107   9.351 -2.5495 -3.1740  2.3610
13805SOL    HW244818   1.223   3.022   9.363 -0.7278 -1.0423 -0.2430
13806SOL     OW44819   3.304   1.205   2.075  0.5730 -0.3852  0.2144
13806SOL    HW144820   3.273   1.292   2.101  1.5934  0.1710 -0.3930
13806SOL    HW244821   3.232   1.146   2.098 -0.9288  0.8574 -1.1311
13807SOL     OW44822   2.229   8.351   3.005  0.2291 -0.1412  0.7044
13807SOL    HW144823   2.173   8.326   2.932  0.0474  2.4503 -0.1393
13807SOL    HW244824   2.259   8.267   3.042 -0.3158 -1.5397 -1.8036
13808SOL     OW44825   9.095  10.394   2.328 -0.1632  0.2435 -0.3488
13808SOL    HW144826   9.107  10.333   2.256  1.2124  1.1231 -0.9052
13808SOL    HW244827   9.016  10.443   2.306 -0.9124 -0.8865 -0.2082
13809SOL     OW44828   2.365   7.614   2.354  0.1404  0.3885 -0.1107
13809SOL    HW144829   2.457   7.589   2.357  0.0314  0.0503  1.3386
13809SOL    HW244830   2.366   7.709   2.366  0.2575  0.2093  1.4856
13810SOL     OW44831   6.096   4.403   8.819 -0.0089  0.4763  0.2846
13810SOL    HW144832   6.015   4.420   8.770 -0.3959  1.8293  1.3384
13810SOL    HW244833   6.073   4.334   8.880  0.7207 -1.8984 -1.9298
13811SOL     OW44834   0.021   1.055   3.923 -0.4797  0.9470 -0.1333
13811SOL    HW144835   0.035   1.086   3.833 -1.1967  1.5544 -0.0421
13811SOL    HW244836  -0.071   1.072   3.941 -0.9712 -1.4484 -0.1332
13812SOL     OW44837   4.619   0.381  10.245 -0.1658  0.3376  0.3380
13812SOL    HW144838   4.559   0.318  10.206 -0.0547 -0.0229  0.7383
13812SOL    HW244839   4.639   0.442  10.174 -0.5981  0.1633  0.0605
13813SOL     OW44840   2.894   0.056   5.968 -0.1288  0.3791 -0.4629
13813SOL    HW144841   2.808   0.055   6.010 -0.5625  1.0214 -1.3080
13813SOL    HW244842   2.877   0.025   5.879  0.9483 -2.0394  0.0930
13814SOL     OW44843   4.483   1.374   1.798  0.2695  0.3292  0.5888
13814SOL    HW144844   4.508   1.427   1.722 -0.5532  1.5041  1.1135
13814SOL    HW244845   4.562   1.373   1.853 -0.0123  1.9573  1.0819
13815SOL     OW44846   0.693   8.681   0.780 -0.4734  0.3348  0.1371
13815SOL    HW144847   0.674   8.734   0.857 -1.0828  0.8569 -0.3584
13815SOL    HW244848   0.645   8.724   0.709  0.2464 -0.0198 -0.5756
13816SOL     OW44849   0.867   7.395   6.894 -0.2611  0.4222  0.3499
13816SOL    HW144850   0.887   7.477   6.850  0.7389 -0.1218 -0.2453
13816SOL    HW244851   0.786   7.365   6.853 -0.6304  1.0984  0.5696
13817SOL     OW44852   8.423   4.920   8.160  0.4211  0.3802  0.3482
13817SOL    HW144853   8.387   4.921   8.071  0.5231  1.0616  0.3129
13817SOL    HW244854   8.377   4.848   8.203 -0.7668  1.0437  0.2130
13818SOL     OW44855   2.415  10.363  10.092  0.1938  0.1948  0.5514
13818SOL    HW144856   2.368  10.279  10.087 -0.7238  0.6846  0.7332
13818SOL    HW244857   2.436  10.383  10.001 -0.1380  0.0698  0.4448
13819SOL     OW44858   0.337   0.571   6.168 -0.0702  0.8232 -0.6428
13819SOL    HW144859   0.337   0.479   6.194 -0.5508  0.1011 -2.9347
13819SOL    HW244860   0.429   0.589   6.145 -0.0872  0.7318 -0.7820
13820SOL     OW44861   6.277   3.408   2.913 -0.3156  0.5451  0.2969
13820SOL    HW144862   6.289   3.320   2.949  0.3094 -0.4831 -2.2448
13820SOL    HW244863   6.194   3.403   2.865  0.0450  1.1171 -0.4165
13821SOL     OW44864   7.416   9.597   1.023 -0.2303 -0.2323 -0.4912
13821SOL    HW144865   7.329   9.563   1.002 -0.2819 -0.0436 -0.5895
13821SOL    HW244866   7.466   9.521   1.052 -1.2623  0.0558  2.3568
13822SOL     OW44867   8.223   6.819   0.248  0.1673  0.7700  0.2024
13822SOL    HW144868   8.172   6.812   0.329 -0.5513  0.7746 -0.2436
13822SOL    HW244869   8.164   6.789   0.179  0.0901  2.5599 -0.5746
13823SOL     OW44870   8.155   3.240   0.485 -0.0385  0.2560  0.3170
13823SOL    HW144871   8.193   3.209   0.567  1.3773  1.2258  0.0632
13823SOL    HW244872   8.192   3.183   0.418  3.5419  2.9490 -0.3058
13824SOL     OW44873   3.708   9.287   8.057  0.2238  0.5090  0.0914
13824SOL    HW144874   3.799   9.257   8.066 -0.7673 -2.6882  0.6361
13824SOL    HW244875   3.705   9.329   7.971  2.0424  0.0082 -0.2656
13825SOL     OW44876   9.262   0.246   4.324  0.5718  0.3584 -0.1826
13825SOL    HW144877   9.253   0.247   4.228  0.2761 -0.2431 -0.1633
13825SOL    HW244878   9.352   0.217   4.339  0.2613 -0.6687 -0.2642
13826SOL     OW44879   5.210   3.610  10.718 -0.4614  0.0685 -0.5461
13826SOL    HW144880   5.218   3.583  10.626 -0.3096  1.3586 -0.9321
13826SOL    HW244881   5.154   3.688  10.715 -2.0258 -0.9591  0.6769
13827SOL     OW44882   5.188   2.959   3.026  0.4304  1.1304 -0.5158
13827SOL    HW144883   5.200   2.927   3.115 -0.9311 -0.5379 -0.8694
13827SOL    HW244884   5.149   3.046   3.037 -1.5820  0.1619  0.5756
13828SOL     OW44885   7.251   1.502   8.243 -0.6842  0.6010  0.3531
13828SOL    HW144886   7.180   1.474   8.185 -0.7626  0.8299  0.3373
13828SOL    HW244887   7.259   1.431   8.307 -0.3517  0.1865 -0.1483
13829SOL     OW44888   4.633   7.835   0.942 -0.3407 -0.3031 -0.0496
13829SOL    HW144889   4.576   7.762   0.966 -1.6901  0.8104  0.2296
13829SOL    HW244890   4.652   7.879   1.024 -1.2476  0.8612 -0.4397
13830SOL     OW44891   7.833   2.509   1.749  0.3103 -0.6291 -0.0038
13830SOL    HW144892   7.919   2.529   1.787  0.6202  1.4718 -1.6103
13830SOL    HW244893   7.775   2.497   1.824  1.7249 -0.7387  1.1100
13831SOL     OW44894   6.239   8.116   9.186  0.5599 -0.4540  0.3165
13831SOL    HW144895   6.152   8.115   9.227  0.1520  0.2666 -0.4947
13831SOL    HW244896   6.241   8.198   9.137  1.6792 -0.4985  0.2621
13832SOL     OW44897   0.108   7.616   3.283  0.0127  0.3648 -0.1998
13832SOL    HW144898   0.036   7.580   3.232 -0.5514 -0.2050  0.9640
13832SOL    HW244899   0.086   7.709   3.292 -1.7197 -0.1675  1.8936
13833SOL     OW44900   2.907   7.938   2.251 -0.3030 -0.0901  0.0973
13833SOL    HW144901   2.960   7.889   2.313  0.3074 -1.4773 -1.4345
13833SOL    HW244902   2.825   7.888   2.246  0.1986 -0.8536 -1.2274
13834SOL     OW44903   8.987   9.836   6.405 -0.3100  0.3902 -0.1140
13834SOL    HW144904   8.981   9.748   6.368 -1.5713  1.0784 -1.6949
13834SOL    HW244905   8.960   9.893   6.333 -0.7831  1.9685  1.2706
13835SOL     OW44906   4.128   3.361   4.849  0.2225 -0.1637  0.7705
13835SOL    HW144907   4.101   3.424   4.782 -0.8023 -1.1967  0.1760
13835SOL    HW244908   4.202   3.315   4.810 -1.0015 -1.4531 -0.1044
13836SOL     OW44909   7.568  10.034   5.065  0.4275  0.4511 -0.0548
13836SOL    HW144910   7.519  10.110   5.032 -1.8186 -0.9196 -0.0876
13836SOL    HW244911   7.637  10.020   5.000  0.9528  2.4589 -0.0126
13837SOL     OW44912   8.454   2.515   5.532  0.1095 -0.6381  0.7204
13837SOL    HW144913   8.416   2.438   5.489 -0.6354  0.4267 -0.6168
13837SOL    HW244914   8.519   2.548   5.470  0.3948 -0.1747  1.2558
13838SOL     OW44915   6.334   9.905   5.864  0.0151  0.3688  0.2405
13838SOL    HW144916   6.293   9.835   5.915  1.6192 -1.1080 -0.3804
13838SOL    HW244917   6.393   9.859   5.804 -1.5061  2.0726 -2.7293
13839SOL     OW44918   7.585   2.713  10.733 -0.2685 -0.4051  0.0945
13839SOL    HW144919   7.517   2.777  10.715 -0.7121 -0.7281  0.5789
13839SOL    HW244920   7.537   2.634  10.758  0.2837 -0.6574  0.3719
13840SOL     OW44921   9.863   0.144   3.234  0.7125  0.2857  0.1913
13840SOL    HW144922   9.934   0.132   3.171 -1.0036 -1.6160 -1.5384
13840SOL    HW244923   9.819   0.224   3.206 -0.2613 -0.7382 -1.3767
13841SOL     OW44924  10.532   7.539   9.384 -0.0055 -0.5541  0.1100
13841SOL    HW144925  10.476   7.608   9.349  1.0954 -0.0014 -0.6157
13841SOL    HW244926  10.494   7.458   9.350 -1.0547 -0.2958  0.6227
13842SOL     OW44927  10.555   9.325   0.926  0.0132 -0.2409  0.0470
13842SOL    HW144928  10.593   9.243   0.893 -0.5678 -0.5054  0.0350
13842SOL    HW244929  10.536   9.306   1.018  2.2018  0.6846  0.7611
13843SOL     OW44930   8.633   4.777   5.168 -0.1702 -0.5108 -0.0841
13843SOL    HW144931   8.586   4.702   5.131 -1.4241  0.5168 -0.6428
13843SOL    HW244932   8.601   4.852   5.119  2.6481  0.1965 -1.0357
13844SOL     OW44933   7.244   5.054   0.000  0.1097  0.0843  0.0794
13844SOL    HW144934   7.313   5.071   0.066 -1.3371 -0.4573  1.8151
13844SOL    HW244935   7.199   5.138  -0.010 -0.3310 -0.0843  0.5984
13845SOL     OW44936   8.222   6.564  10.678 -0.0202 -0.0612  0.2094
13845SOL    HW144937   8.308   6.524  10.693  0.3467 -1.0349 -3.4295
13845SOL    HW244938   8.200   6.539  10.588 -4.1155  0.2600  0.9456
13846SOL     OW44939   4.799   9.796  10.840  1.0033 -0.1617 -0.0118
13846SOL    HW144940   4.749   9.724  10.802  0.2625  0.8668 -1.0372
13846SOL    HW244941   4.887   9.759  10.853  0.6513 -1.2369 -0.5333
13847SOL     OW44942   6.820   5.617   9.772  0.0700  0.2714 -0.0954
13847SOL    HW144943   6.893   5.678   9.760  2.1911 -1.6422  1.9668
13847SOL    HW244944   6.842   5.543   9.716 -0.9385  0.1621 -0.3570
13848SOL     OW44945   9.870   6.974   2.981 -0.2819 -0.0557 -0.4473
13848SOL    HW144946   9.901   7.058   3.015  1.3158 -0.7010 -0.2613
13848SOL    HW244947   9.949   6.925   2.961 -1.1926 -0.9230 -2.1089
13849SOL     OW44948   1.432   7.274   8.114 -0.5105  0.2803 -0.2075
13849SOL    HW144949   1.407   7.181   8.116  0.3904  0.0234 -0.3589
13849SOL    HW244950   1.526   7.273   8.097 -0.4494  1.2219  0.0172
13850SOL     OW44951   7.527   9.610   7.389 -0.2711  0.9518 -0.6409
13850SOL    HW144952   7.591   9.589   7.457  0.3279  4.0807 -0.0797
13850SOL    HW244953   7.563   9.571   7.309  0.2580 -0.6842  0.3484
13851SOL     OW44954   4.565   0.452   2.663  0.1432 -0.2000  0.0072
13851SOL    HW144955   4.650   0.442   2.619 -0.4558  0.5362 -1.3801
13851SOL    HW244956   4.529   0.363   2.665  0.5411 -0.3712 -0.2453
13852SOL     OW44957   0.742   2.356   7.509  0.3591 -0.1154 -0.0983
13852SOL    HW144958   0.756   2.361   7.604  1.1775 -3.1554  0.0292
13852SOL    HW244959   0.817   2.308   7.476 -0.4310 -0.0182 -2.1646
13853SOL     OW44960   3.842   8.971   3.461 -0.4078  0.0008 -0.3696
13853SOL    HW144961   3.935   8.970   3.481 -0.3896 -1.4992 -0.4368
13853SOL    HW244962   3.814   8.880   3.468 -1.1539 -0.1607 -3.6610
13854SOL     OW44963   1.789   5.123   5.794  1.0231  1.7287  0.5470
13854SOL    HW144964   1.801   5.028   5.790 -0.1957  1.6050 -0.8984
13854SOL    HW244965   1.848   5.152   5.864  2.3251  0.0675  0.1830
13855SOL     OW44966  10.655   3.304   7.755  0.0369  0.1769 -0.1131
13855SOL    HW144967  10.674   3.228   7.809 -0.4424 -0.1495 -0.3909
13855SOL    HW244968  10.571   3.284   7.714  1.0357 -0.2265 -2.1031
13856SOL     OW44969   3.028   2.543   6.752 -0.1697 -0.0410 -0.0218
13856SOL    HW144970   3.065   2.455   6.747 -2.3262 -0.9901 -0.1803
13856SOL    HW244971   3.012   2.568   6.661  0.4665  0.5495  0.0203
13857SOL     OW44972  10.207   9.716   1.722 -0.1272 -0.1469  0.2059
13857SOL    HW144973  10.186   9.643   1.781  1.3032 -0.2937  0.5780
13857SOL    HW244974  10.263   9.676   1.656  2.3251  0.9499  1.5087
13858SOL     OW44975   9.709   7.864   9.061 -0.0732  0.2383  0.4358
13858SOL    HW144976   9.633   7.870   9.119 -0.4757 -0.1052 -0.0365
13858SOL    HW244977   9.695   7.781   9.014 -0.7334  1.3715 -1.4773
13859SOL     OW44978   4.400   0.620   3.455  0.2828  0.4120  0.0754
13859SOL    HW144979   4.483   0.637   3.411  1.0039  0.1617  1.2748
13859SOL    HW244980   4.407   0.667   3.538 -0.6243  0.0876  0.3494
13860SOL     OW44981   5.199   3.247   4.610 -0.5700 -0.0568  0.2920
13860SOL    HW144982   5.260   3.182   4.645 -1.1797  0.5183  2.5349
13860SOL    HW244983   5.113   3.219   4.640 -1.1515  0.4760 -0.7921
13861SOL     OW44984   5.058   6.387   0.674 -0.2000 -0.8150  0.3955
13861SOL    HW144985   5.062   6.301   0.633  0.3725 -1.1133  1.0571
13861SOL    HW244986   4.996   6.436   0.620 -2.2944 -2.3267  1.3101
13862SOL     OW44987   5.808   7.825  10.788 -0.1750 -0.1114 -0.1478
13862SOL    HW144988   5.770   7.741  10.762 -1.0108 -0.0438  0.7978
13862SOL    HW244989   5.845   7.809  10.875  0.4491  0.2762 -0.3361
13863SOL     OW44990   8.646   0.655   5.298 -0.5468 -0.0517  0.3898
13863SOL    HW144991   8.731   0.613   5.308 -1.0366 -1.1305  0.1780
13863SOL    HW244992   8.651   0.734   5.352  0.8382  0.3053 -0.2089
13864SOL     OW44993   4.438   6.057   4.483  0.3576 -0.3854 -0.0789
13864SOL    HW144994   4.361   6.008   4.512  0.7336 -0.4385  0.9032
13864SOL    HW244995   4.405   6.122   4.422 -0.3301 -1.0257 -0.3938
13865SOL     OW44996   7.351   1.668   0.769  0.1318 -0.2702 -0.2997
13865SOL    HW144997   7.336   1.575   0.749 -0.7993 -0.5450  1.4411
13865SOL    HW244998   7.446   1.677   0.769  0.2275 -0.9547 -1.5335
13866SOL     OW44999   3.395   4.486   8.415 -0.0045 -0.1976  0.6851
13866SOL    HW145000   3.418   4.572   8.448 -0.1990  0.1334 -0.0342
13866SOL    HW245001   3.409   4.427   8.490 -0.2740  0.5115  1.3052
13867SOL     OW45002   9.919   8.272   9.181  0.1178  0.0922  0.1897
13867SOL    HW145003   9.984   8.297   9.116  1.0967 -2.0293  0.2939
13867SOL    HW245004   9.861   8.211   9.135  1.3084 -2.0888  1.4439
13868SOL     OW45005   0.005   8.234   9.902 -0.1934  0.4685 -0.0292
13868SOL    HW145006   0.030   8.143   9.888  0.6259  0.5212  1.0054
13868SOL    HW245007   0.073   8.270   9.958 -0.7297  1.6117 -0.0687
13869SOL     OW45008   4.845   8.490   1.359 -0.3486 -0.0783 -0.2094
13869SOL    HW145009   4.812   8.578   1.376 -3.5074 -1.4893  1.8679
13869SOL    HW245010   4.864   8.490   1.265  1.2546  3.1527 -0.0394
13870SOL     OW45011   3.898   6.278   1.145  0.7388  0.4287 -0.0107
13870SOL    HW145012   3.856   6.229   1.074  0.9182 -0.9023  0.7664
13870SOL    HW245013   3.992   6.260   1.135  0.7806  0.3675  0.4524
13871SOL     OW45014   6.972   9.058   9.417 -0.2836 -0.6138 -0.4248
13871SOL    HW145015   7.007   9.123   9.357  1.3310  0.4740  1.5422
13871SOL    HW245016   7.045   8.997   9.431 -0.6178 -0.8308  0.4290
13872SOL     OW45017   8.994   8.375   8.638  0.2016  0.3848 -0.0626
13872SOL    HW145018   8.900   8.358   8.649 -0.0443  1.2311 -0.6613
13872SOL    HW245019   9.036   8.323   8.705 -0.9033  2.2073  2.1840
13873SOL     OW45020   1.134   4.382   2.812  0.0321  0.2293  0.5537
13873SOL    HW145021   1.047   4.393   2.849 -0.2373 -1.6631  0.5646
13873SOL    HW245022   1.191   4.435   2.869 -1.0240  1.0841  0.8362
13874SOL     OW45023   1.686   1.180   1.281 -0.7235  0.0060  0.7925
13874SOL    HW145024   1.713   1.204   1.193 -1.1901 -4.1819 -0.7201
13874SOL    HW245025   1.767   1.178   1.332 -0.1222  0.3253 -0.1329
13875SOL     OW45026   2.877   7.195   4.772 -0.2236 -0.4288  0.7870
13875SOL    HW145027   2.958   7.204   4.822  1.1223  1.6292 -1.4996
13875SOL    HW245028   2.815   7.254   4.815  0.3456 -0.0214  1.0587
13876SOL     OW45029   9.306   0.078   1.051  0.5725 -0.2570 -0.1388
13876SOL    HW145030   9.336   0.131   1.125  1.6941 -0.3672 -0.4968
13876SOL    HW245031   9.300  -0.011   1.086  0.0028 -0.1258  0.1073
13877SOL     OW45032   6.925   8.913   4.275  0.1014 -0.4941 -0.1430
13877SOL    HW145033   6.841   8.950   4.248  0.0631  1.3658  2.2282
13877SOL    HW245034   6.989   8.954   4.216 -0.3096  0.7828  0.2769
13878SOL     OW45035   6.588   4.037   1.433  0.1889  0.4975 -0.1604
13878SOL    HW145036   6.496   4.065   1.423  0.5150  1.3343 -1.0223
13878SOL    HW245037   6.624   4.045   1.345  0.6367 -1.5712 -0.2003
13879SOL     OW45038   8.177  10.582   0.113 -0.4031  0.8556  0.1785
13879SOL    HW145039   8.226  10.563   0.033 -1.2764  0.4266 -0.2612
13879SOL    HW245040   8.220  10.529   0.180  1.7038  2.7881  0.5143
13880SOL     OW45041   7.611   0.387   2.818  0.0859  0.1763  0.3999
13880SOL    HW145042   7.701   0.354   2.817 -0.1363 -0.4471  0.0926
13880SOL    HW245043   7.609   0.454   2.749  0.2253 -0.0687  0.1536
13881SOL     OW45044   3.742   9.332  10.508 -0.0289 -0.1389  0.5822
13881SOL    HW145045   3.822   9.294  10.544 -0.2653  1.3171  2.8190
13881SOL    HW245046   3.691   9.256  10.479  1.5138 -1.1804  0.4783
13882SOL     OW45047   0.673   6.196   6.076  0.4663  0.3139  0.0491
13882SOL    HW145048   0.764   6.188   6.105  1.0760  2.9594 -0.8496
13882SOL    HW245049   0.624   6.215   6.156  0.5479 -1.7081  0.6304
13883SOL     OW45050  10.187   8.663   4.125  0.2849 -0.8047 -0.5705
13883SOL    HW145051  10.172   8.755   4.105  1.1912 -0.7965 -1.2541
13883SOL    HW245052  10.164   8.655   4.218  0.0768  0.0743 -0.5376
13884SOL     OW45053   8.584   0.980   2.402  0.0574  0.3709  0.0610
13884SOL    HW145054   8.658   1.037   2.425  1.6807 -1.2431 -0.9035
13884SOL    HW245055   8.555   0.944   2.486  0.7568  0.5740  0.3997
13885SOL     OW45056   6.538   8.286   4.577 -0.5955  0.2255 -0.0017
13885SOL    HW145057   6.448   8.289   4.547 -0.3244 -2.4362 -1.3701
13885SOL    HW245058   6.562   8.194   4.574  2.1369  0.8114  0.4556
13886SOL     OW45059  10.892   0.194   7.460 -0.3837  0.3711 -0.4462
13886SOL    HW145060  10.929   0.232   7.380  1.5783  1.7074  0.9744
13886SOL    HW245061  10.947   0.229   7.530 -0.5033 -2.5992  1.3109
13887SOL     OW45062   6.354   5.622  10.043  0.1142 -0.2152  0.4429
13887SOL    HW145063   6.262   5.647  10.047  0.1932  0.3540 -0.7830
13887SOL    HW245064   6.388   5.669   9.967  1.3088 -0.7760  0.6117
13888SOL     OW45065   6.037   5.642   5.346 -0.0506  0.2699 -0.1476
13888SOL    HW145066   5.950   5.607   5.328 -0.0335  0.0266  0.2336
13888SOL    HW245067   6.059   5.610   5.434  0.9232 -0.7073 -0.7160
13889SOL     OW45068   4.174   3.180   8.849 -0.2370 -0.2473  0.1479
13889SOL    HW145069   4.261   3.151   8.821 -0.3442  0.4399 -0.9436
13889SOL    HW245070   4.181   3.187   8.945  0.9835  0.0204  0.0604
13890SOL     OW45071   3.068   4.028   9.027  0.2841  0.1696 -0.5049
13890SOL    HW145072   2.984   4.026   9.073 -0.5854  1.2390 -1.9527
13890SOL    HW245073   3.127   3.977   9.083 -0.8942  0.7477  1.3794
13891SOL     OW45074   5.889   0.595   7.703  0.0702 -0.4313 -0.4883
13891SOL    HW145075   5.949   0.534   7.659  0.4778 -1.5864  1.5195
13891SOL    HW245076   5.857   0.652   7.633  1.2025 -1.6969 -2.1286
13892SOL     OW45077   5.363   3.094   2.260 -0.5358 -0.2176 -0.0200
13892SOL    HW145078   5.355   3.174   2.210 -0.0835 -0.1743 -0.0272
13892SOL    HW245079   5.294   3.100   2.326  0.9337  1.2730  1.4764
13893SOL     OW45080   3.197   9.752   7.490 -0.1210 -0.3555  0.1657
13893SOL    HW145081   3.124   9.726   7.434 -1.8629 -0.0723  2.2129
13893SOL    HW245082   3.187   9.846   7.502  1.3764 -0.0655 -0.5531
13894SOL     OW45083   2.749   1.240   0.179  0.3392  0.1120  0.4117
13894SOL    HW145084   2.659   1.232   0.147 -0.0152  2.1652  0.7233
13894SOL    HW245085   2.781   1.322   0.141  1.8849 -0.2790  0.7875
13895SOL     OW45086   4.632   8.273   5.123  0.5768  0.3702  0.1366
13895SOL    HW145087   4.694   8.321   5.177 -0.5815 -0.0181  1.9016
13895SOL    HW245088   4.551   8.323   5.129  0.5393  0.6064 -1.7360
13896SOL     OW45089   1.640   8.687   6.051 -0.3401 -0.2007  0.2797
13896SOL    HW145090   1.592   8.762   6.087  0.7828  0.4606  0.4478
13896SOL    HW245091   1.576   8.642   5.997 -1.1645  0.6319  0.5248
13897SOL     OW45092   4.452   9.247   6.659 -0.5892  0.5825 -0.3440
13897SOL    HW145093   4.427   9.194   6.583 -1.4617  0.5113 -0.0166
13897SOL    HW245094   4.516   9.309   6.624  0.7034 -0.8755 -0.6685
13898SOL     OW45095   9.549   4.565   0.927  0.4569  0.0827  0.1278
13898SOL    HW145096   9.492   4.496   0.892  1.5705 -2.5448  3.0380
13898SOL    HW245097   9.488   4.635   0.952 -0.7984 -0.0548 -2.2409
13899SOL     OW45098   8.704   6.315   9.229  0.3400 -0.4021 -0.6021
13899SOL    HW145099   8.628   6.288   9.177 -0.2628  0.9634 -0.4817
13899SOL    HW245100   8.685   6.284   9.317  0.3417 -0.8381 -0.7539
13900SOL     OW45101   7.194   5.929   2.261 -0.1675  0.4240 -0.5189
13900SOL    HW145102   7.275   5.879   2.264 -0.1176  0.4543 -1.2388
13900SOL    HW245103   7.126   5.865   2.242 -0.3983  0.3151  0.5954
13901SOL     OW45104   9.667   2.026   2.352  0.1471 -0.0415  0.4221
13901SOL    HW145105   9.752   1.994   2.382  0.5664 -0.8815 -1.5086
13901SOL    HW245106   9.658   1.990   2.264 -1.7111  0.9857  0.1480
13902SOL     OW45107   1.491   0.342   4.687  0.3202  0.1556 -0.3006
13902SOL    HW145108   1.581   0.365   4.662  0.8760 -1.0033  0.5924
13902SOL    HW245109   1.462   0.417   4.740  1.2022  0.0005  0.4342
13903SOL     OW45110   6.484   8.828   0.718  0.0403 -0.1624 -0.0983
13903SOL    HW145111   6.422   8.780   0.662 -0.3132  0.9904 -0.7180
13903SOL    HW245112   6.511   8.902   0.665  0.6884  0.2570  0.8004
13904SOL     OW45113   8.023   2.763   4.182 -0.5877  0.2201  0.0356
13904SOL    HW145114   8.032   2.853   4.152 -2.0012  0.9382  1.5413
13904SOL    HW245115   7.949   2.728   4.132 -1.2596  0.5636  0.7473
13905SOL     OW45116   7.108   0.193   8.383 -0.4822 -0.0292 -0.4012
13905SOL    HW145117   7.122   0.113   8.434  1.8402  0.3409 -0.3575
13905SOL    HW245118   7.180   0.251   8.407 -2.2316  2.2557 -0.2139
13906SOL     OW45119   0.911   4.559   3.387 -0.4516 -0.3436 -0.2185
13906SOL    HW145120   0.913   4.546   3.293  2.1372  1.8990 -0.6136
13906SOL    HW245121   0.873   4.646   3.399  0.4413 -0.0553  0.6873
13907SOL     OW45122   4.277   9.103   2.162  0.0179 -0.2840 -0.1541
13907SOL    HW145123   4.337   9.029   2.151  1.2866  0.9019 -1.7004
13907SOL    HW245124   4.207   9.086   2.100  0.9018  0.3307 -1.3689
13908SOL     OW45125   6.830   4.070   4.764 -0.2625 -0.5861  0.2382
13908SOL    HW145126   6.925   4.061   4.760 -0.2869 -0.9752  0.4356
13908SOL    HW245127   6.809   4.131   4.693  0.3221  1.1564  1.4908
13909SOL     OW45128   0.219   9.502   0.567  0.2093  0.2832  0.4863
13909SOL    HW145129   0.168   9.582   0.573 -0.6986 -0.3390  1.3506
13909SOL    HW245130   0.301   9.523   0.612 -0.0175  0.7193  0.7052
13910SOL     OW45131   1.220   1.645   8.669  0.7124  0.3289 -0.3562
13910SOL    HW145132   1.256   1.641   8.758  1.0062  0.8217 -0.4472
13910SOL    HW245133   1.294   1.673   8.614  0.9020 -1.3131 -0.9896
13911SOL     OW45134   6.985   9.998   6.238 -0.3784 -0.6704 -0.1558
13911SOL    HW145135   6.984   9.903   6.229  1.4078 -0.7281 -0.0774
13911SOL    HW245136   7.011  10.014   6.328 -1.3058 -0.0891  0.0222
13912SOL     OW45137   7.595   3.533   0.296 -0.0354 -0.4053 -0.4919
13912SOL    HW145138   7.542   3.612   0.304 -0.6489 -0.6842 -1.6061
13912SOL    HW245139   7.532   3.462   0.296  0.5892 -1.0397  1.8590
13913SOL     OW45140   4.039   5.053   4.651 -0.4285  0.4670  0.0445
13913SOL    HW145141   4.026   5.008   4.567  0.8310 -0.0753  0.1162
13913SOL    HW245142   4.050   5.145   4.628  0.7097  0.2142 -0.4779
13914SOL     OW45143  10.666   9.873   2.794 -0.6627 -0.2918  0.0404
13914SOL    HW145144  10.633   9.962   2.806 -0.1471 -0.3168  2.2117
13914SOL    HW245145  10.590   9.822   2.768 -2.1364 -0.0462  3.3996
13915SOL     OW45146   2.750   7.164   1.601 -0.0405 -0.0505  0.1367
13915SOL    HW145147   2.694   7.090   1.576  0.4674  0.1466 -1.7930
13915SOL    HW245148   2.820   7.125   1.652  1.1517 -1.2755 -2.2341
13916SOL     OW45149   9.972   2.794   0.062 -0.1446 -0.8150 -0.3105
13916SOL    HW145150   9.979   2.762  -0.028  1.3955 -0.1802 -0.4450
13916SOL    HW245151  10.016   2.727   0.114 -1.8324 -1.6379  0.1153
13917SOL     OW45152   4.413   3.401   1.885  0.2075  0.2563 -0.0164
13917SOL    HW145153   4.379   3.490   1.877 -0.0860  0.0609 -1.1188
13917SOL    HW245154   4.475   3.406   1.957 -2.0439  0.6428  2.0007
13918SOL     OW45155   5.436   0.521   5.520  0.0312  0.6145 -0.0431
13918SOL    HW145156   5.350   0.520   5.478  0.1179  0.9543 -0.2320
13918SOL    HW245157   5.468   0.610   5.509  0.0055  0.7413  0.8656
13919SOL     OW45158   7.586   5.532   3.843 -0.5717  0.4487 -0.4947
13919SOL    HW145159   7.520   5.470   3.875  1.7293 -1.8318  0.1536
13919SOL    HW245160   7.558   5.552   3.753 -0.5601 -2.9880 -1.4191
13920SOL     OW45161   1.969   3.277   7.526  0.0465 -0.2897 -0.4381
13920SOL    HW145162   2.000   3.339   7.459 -0.8375 -0.1299 -0.7068
13920SOL    HW245163   1.973   3.191   7.482  0.7119 -0.3561 -0.2587
13921SOL     OW45164   0.144   8.963   2.288 -0.0163 -0.1468 -0.6358
13921SOL    HW145165   0.140   8.896   2.356  1.3021  0.4000  0.0244
13921SOL    HW245166   0.212   9.024   2.319 -0.0117  0.5875 -2.0248
13922SOL     OW45167   7.423   0.656   8.067 -0.0458 -0.3512  0.0367
13922SOL    HW145168   7.431   0.750   8.085  0.1323 -0.6280  1.5391
13922SOL    HW245169   7.407   0.617   8.153 -2.7837 -1.4366 -0.8564
13923SOL     OW45170   7.310   9.756   1.234  0.5686 -0.9185 -0.3088
13923SOL    HW145171   7.352   9.738   1.150  2.3768  0.2877  0.2636
13923SOL    HW245172   7.296   9.670   1.273  0.3600 -1.4577 -1.5283
13924SOL     OW45173   1.972   6.911   5.469 -0.0182 -0.0052  0.3734
13924SOL    HW145174   1.958   6.991   5.520 -0.7148 -0.6923  1.2994
13924SOL    HW245175   1.988   6.942   5.380 -1.5044  1.1427  0.4532
13925SOL     OW45176   0.930   0.050   8.009  0.2525 -0.4102  0.5226
13925SOL    HW145177   1.010   0.092   7.979 -0.0375 -0.8248 -0.9037
13925SOL    HW245178   0.956   0.001   8.087  1.1954  0.1338  0.5591
13926SOL     OW45179   7.308   3.418   8.861 -0.6684  0.0472 -0.1309
13926SOL    HW145180   7.236   3.404   8.923 -0.3501  0.5607  0.3573
13926SOL    HW245181   7.266   3.449   8.781 -0.9169  1.2334  0.4454
13927SOL     OW45182   1.555   9.183  10.157  0.4351  0.0938  0.0689
13927SOL    HW145183   1.477   9.160  10.209 -0.3088 -0.1594 -1.1250
13927SOL    HW245184   1.614   9.108  10.168  0.5656  0.3244  1.0549
13928SOL     OW45185   7.800   5.463   7.799 -0.5121 -0.2067 -0.8104
13928SOL    HW145186   7.768   5.552   7.782 -0.4440  0.0727  0.4237
13928SOL    HW245187   7.886   5.460   7.758 -0.1501  0.5882 -0.1227
13929SOL     OW45188   7.057   2.334   4.544 -0.2590  0.7638  0.4742
13929SOL    HW145189   6.970   2.296   4.533  0.6073 -1.5791  1.2912
13929SOL    HW245190   7.103   2.313   4.463  1.1131 -2.6181  1.9707
13930SOL     OW45191   3.308   9.949   6.191  0.7781  0.3587  0.1565
13930SOL    HW145192   3.317   9.887   6.263  0.0633 -0.2210 -0.2390
13930SOL    HW245193   3.391   9.998   6.191  2.0467 -1.6661 -0.5167
13931SOL     OW45194   7.699   1.194   8.990  0.3154 -0.2676  0.5214
13931SOL    HW145195   7.727   1.285   8.990 -2.2444  0.6106  1.5512
13931SOL    HW245196   7.766   1.148   9.041  0.6136  1.4205  1.7447
13932SOL     OW45197   9.512   0.658   5.729 -0.1161  0.2558 -0.5986
13932SOL    HW145198   9.541   0.589   5.669 -3.0909  0.7189 -2.7783
13932SOL    HW245199   9.425   0.631   5.757  0.2672  1.2346  1.7456
13933SOL     OW45200   5.419  10.530   6.911  0.1233 -0.1777 -0.3635
13933SOL    HW145201   5.429  10.448   6.960  1.8225  0.2657  0.1054
13933SOL    HW245202   5.423  10.598   6.979 -0.6567  0.3160 -0.8084
13934SOL     OW45203   2.746   8.752   1.610  0.4209 -0.3777  0.3369
13934SOL    HW145204   2.788   8.722   1.529 -1.1322 -0.0960 -0.6050
13934SOL    HW245205   2.699   8.676   1.642  0.2193 -0.2110  0.4363
13935SOL     OW45206   5.187   3.372   4.337 -0.2100 -0.2460  0.4482
13935SOL    HW145207   5.194   3.322   4.418  0.7443  1.7347  1.6458
13935SOL    HW245208   5.115   3.330   4.289 -0.9002 -1.3657  2.3757
13936SOL     OW45209   5.502   4.902   3.187 -0.2539  0.0430  0.4103
13936SOL    HW145210   5.447   4.976   3.162 -1.4590 -1.1304 -0.5516
13936SOL    HW245211   5.513   4.912   3.282 -1.5471  0.7032  0.5161
13937SOL     OW45212   7.574   5.864   4.699 -0.1258 -0.1036  0.0013
13937SOL    HW145213   7.479   5.863   4.686 -0.1682  0.6237  0.1732
13937SOL    HW245214   7.595   5.957   4.710  0.5003 -0.3203  0.7092
13938SOL     OW45215   5.249   7.974   0.851  0.0874  0.1747 -0.0703
13938SOL    HW145216   5.267   7.897   0.798 -1.5756 -0.2921 -0.0128
13938SOL    HW245217   5.225   8.042   0.788  2.5369  1.0104 -0.2033
13939SOL     OW45218   8.384   1.012   0.116  0.8437  0.2246  0.4721
13939SOL    HW145219   8.447   0.955   0.161  0.1890  1.6538  3.4590
13939SOL    HW245220   8.302   0.963   0.117  0.9299  0.0783  0.4336
13940SOL     OW45221   3.261   7.768   1.664  0.4206 -0.4466 -0.4113
13940SOL    HW145222   3.327   7.746   1.730  0.2775 -1.5245 -0.6036
13940SOL    HW245223   3.308   7.820   1.599  0.7096  0.0943  0.2154
13941SOL     OW45224   5.909   1.514   9.832 -0.1501  0.4278  0.0659
13941SOL    HW145225   5.857   1.434   9.827  0.3566  0.1417 -0.7929
13941SOL    HW245226   5.911   1.536   9.925 -1.5677  0.2949  0.1471
13942SOL     OW45227   7.505   1.606   8.398  0.0804 -0.1542  0.4267
13942SOL    HW145228   7.453   1.582   8.475  0.5471 -1.8589  0.2521
13942SOL    HW245229   7.592   1.572   8.417  0.3709  0.0095 -0.5606
13943SOL     OW45230   1.029   2.494   3.723 -0.5940  0.2355  0.8589
13943SOL    HW145231   1.116   2.506   3.762 -0.1870  1.1042 -0.2570
13943SOL    HW245232   1.009   2.401   3.737  0.4254  0.0730  1.3195
13944SOL     OW45233   0.415  10.837   5.118  0.4079 -0.1270  0.3439
13944SOL    HW145234   0.496  10.820   5.071 -0.4912 -0.6831 -1.0831
13944SOL    HW245235   0.399  10.757   5.169  1.3041  0.4166  1.5151
13945SOL     OW45236   3.664   5.053  10.279  0.5231  0.8194  0.0024
13945SOL    HW145237   3.576   5.029  10.250  0.7377  1.0759 -0.8929
13945SOL    HW245238   3.663   5.148  10.283  0.6697  0.8091  0.3062
13946SOL     OW45239   6.103   2.906  10.105  0.5166 -0.0053 -0.0736
13946SOL    HW145240   6.040   2.973  10.079 -1.0068 -0.9356  1.0502
13946SOL    HW245241   6.141   2.875  10.023 -1.0821  0.0507 -0.8828
13947SOL     OW45242   1.310   7.319  10.132  0.1155  0.0173 -0.2498
13947SOL    HW145243   1.331   7.398  10.083 -0.8900 -1.0886 -2.6123
13947SOL    HW245244   1.377   7.256  10.105 -0.2218 -0.5005  0.0977
13948SOL     OW45245   5.926   1.577   2.914  0.2717  0.2337 -0.3052
13948SOL    HW145246   5.924   1.672   2.906  1.0108  0.1957 -1.1797
13948SOL    HW245247   5.860   1.556   2.979  0.4574  1.3867  0.2710
13949SOL     OW45248   9.224   9.346   7.357 -0.7029 -0.4482 -0.3453
13949SOL    HW145249   9.195   9.329   7.267 -1.9013  2.2788 -0.5885
13949SOL    HW245250   9.296   9.409   7.348 -1.6715  0.8571  0.5704
13950SOL     OW45251   5.444   9.107   0.993 -0.5838  0.1823  0.1356
13950SOL    HW145252   5.422   9.026   0.948 -0.1555  0.6844 -1.0127
13950SOL    HW245253   5.439   9.085   1.086  0.1442 -1.3295 -0.1582
13951SOL     OW45254   6.605   4.161  10.276 -0.2752 -0.0947  0.1747
13951SOL    HW145255   6.626   4.253  10.263  1.4287 -0.2014  1.8070
13951SOL    HW245256   6.515   4.161  10.307 -0.3957  0.9874 -0.1413
13952SOL     OW45257   1.795   2.083   1.532  0.0217  0.5550 -0.4887
13952SOL    HW145258   1.708   2.083   1.572  0.0683  0.3597 -0.3871
13952SOL    HW245259   1.780   2.054   1.442  0.1997 -1.2044  0.0113
13953SOL     OW45260   5.029  10.665  10.655 -0.8717  0.5020 -0.0193
13953SOL    HW145261   4.974  10.659  10.576  0.0615  0.1283 -0.6610
13953SOL    HW245262   5.118  10.661  10.621 -0.3537 -4.1997  1.3285
13954SOL     OW45263   1.572   2.343  10.237  0.2726  0.2495 -0.3111
13954SOL    HW145264   1.581   2.262  10.287 -1.9453  0.3489  0.3609
13954SOL    HW245265   1.628   2.406  10.282 -0.7794  0.0233  1.4147
13955SOL     OW45266   1.685   2.521   5.844 -0.0486 -0.3952  0.1730
13955SOL    HW145267   1.766   2.495   5.888  0.8451  1.0421 -0.5652
13955SOL    HW245268   1.679   2.462   5.768  0.2123 -0.6137  0.3179
13956SOL     OW45269   1.046   4.831   4.165 -0.3158  0.1953 -0.2317
13956SOL    HW145270   0.973   4.830   4.228 -0.1280  2.7581  0.1402
13956SOL    HW245271   1.004   4.817   4.080 -1.2598  1.3768 -0.0015
13957SOL     OW45272  10.191   6.418   2.667 -0.3338  0.1100  0.3384
13957SOL    HW145273  10.233   6.333   2.657  2.8340  1.4650  0.9912
13957SOL    HW245274  10.214   6.466   2.587  1.1242  1.5073  1.5115
13958SOL     OW45275   0.234   3.158   1.477  0.4292 -0.2045  0.2073
13958SOL    HW145276   0.237   3.101   1.401  1.8332 -1.5061  1.1759
13958SOL    HW245277   0.324   3.187   1.489 -0.0527  1.2980  0.4395
13959SOL     OW45278   6.354   0.154   6.997 -0.1614 -0.2459 -0.1257
13959SOL    HW145279   6.275   0.202   7.022  0.4299  1.3848 -1.2342
13959SOL    HW245280   6.322   0.070   6.963 -1.2161 -0.6953  1.8095
13960SOL     OW45281   9.795   2.573   6.054 -0.0588 -0.0825 -0.1422
13960SOL    HW145282   9.712   2.556   6.097  0.4583 -1.0395  0.5109
13960SOL    HW245283   9.808   2.668   6.063 -1.7433  0.3299 -1.5534
13961SOL     OW45284   3.690   8.017   8.082  0.1526  0.0961  0.0199
13961SOL    HW145285   3.771   7.968   8.067 -0.0225 -0.7033  1.4679
13961SOL    HW245286   3.626   7.975   8.026  0.1610 -0.9519  0.7688
13962SOL     OW45287   9.938   5.465   0.238 -0.3426  0.1510 -0.4346
13962SOL    HW145288   9.946   5.509   0.323  0.5804  1.2126 -1.0471
13962SOL    HW245289  10.028   5.448   0.211 -0.6550 -2.3311 -0.1525
13963SOL     OW45290   9.143   6.499   2.225 -0.2192  0.1629  0.5761
13963SOL    HW145291   9.137   6.424   2.284 -0.4186 -0.8484 -0.6977
13963SOL    HW245292   9.237   6.516   2.217 -0.2111  0.8665  1.8274
13964SOL     OW45293  10.389   4.653   2.682 -0.2824  0.2013 -0.1765
13964SOL    HW145294  10.365   4.571   2.725  1.6220 -0.5795 -0.4721
13964SOL    HW245295  10.482   4.664   2.703 -0.3173  1.9036 -0.7734
13965SOL     OW45296   1.092   7.822   8.051 -0.3882 -0.0321 -0.4024
13965SOL    HW145297   1.071   7.837   7.959 -0.1241 -0.9408 -0.6232
13965SOL    HW245298   1.008   7.830   8.096 -0.5068  0.4910 -0.7119
13966SOL     OW45299   8.632   7.406   4.245 -0.2922 -0.0582  0.3865
13966SOL    HW145300   8.607   7.395   4.337  0.0041  0.3111  0.5125
13966SOL    HW245301   8.724   7.433   4.248 -0.4545  0.5522  0.0040
13967SOL     OW45302   9.549   0.860   2.031 -0.1286  0.2494  0.3375
13967SOL    HW145303   9.642   0.843   2.050 -0.6934  0.1865  3.6657
13967SOL    HW245304   9.515   0.776   2.001  0.6503 -0.0477  0.2515
13968SOL     OW45305   5.946   2.186   5.977  0.1450  0.1439  0.0601
13968SOL    HW145306   5.919   2.176   5.885 -0.1094 -1.4212  0.2761
13968SOL    HW245307   6.017   2.250   5.974 -0.8328  1.2320 -1.0340
13969SOL     OW45308   3.639   7.909   5.099  0.0164 -0.4253 -0.5443
13969SOL    HW145309   3.723   7.955   5.092 -0.1811 -0.0527 -0.4280
13969SOL    HW245310   3.574   7.971   5.068 -0.2038 -0.7690 -0.7798
13970SOL     OW45311   2.174   1.788   1.533  0.0343 -0.5279  1.2514
13970SOL    HW145312   2.267   1.788   1.509  0.4664 -1.7929  2.7523
13970SOL    HW245313   2.129   1.760   1.454  0.6472  2.3300 -0.2457
13971SOL     OW45314   7.482   9.629   6.474 -0.1527  0.0583 -0.0205
13971SOL    HW145315   7.470   9.598   6.564 -2.5644 -2.5465 -1.0613
13971SOL    HW245316   7.505   9.550   6.425  2.1364  1.5888 -1.6014
13972SOL     OW45317   8.324   8.439   8.776 -0.1884  0.1409  0.1054
13972SOL    HW145318   8.391   8.379   8.806  0.8343  1.4292  0.4955
13972SOL    HW245319   8.249   8.423   8.834 -0.0690 -0.9780 -0.0344
13973SOL     OW45320   5.252   7.739   4.763  0.4703  0.1598  0.0506
13973SOL    HW145321   5.232   7.808   4.826 -2.9095 -1.7370  1.3094
13973SOL    HW245322   5.290   7.669   4.815  1.9044  0.2184 -0.8607
13974SOL     OW45323   1.638   0.382   8.595  0.3204 -0.1833  0.5002
13974SOL    HW145324   1.573   0.408   8.660 -1.4298  1.7341 -1.8354
13974SOL    HW245325   1.597   0.309   8.549  0.2896  0.3018 -0.2557
13975SOL     OW45326   4.591   0.145   1.743 -0.3175 -0.4850 -0.2683
13975SOL    HW145327   4.594   0.187   1.829 -0.4521  1.6233 -1.2142
13975SOL    HW245328   4.499   0.151   1.717  0.1251  1.5112 -1.6728
13976SOL     OW45329  10.398   1.651   8.201 -0.4133  0.0995  0.5684
13976SOL    HW145330  10.393   1.579   8.138  1.4267  0.1921  0.2715
13976SOL    HW245331  10.388   1.608   8.286 -0.1109 -0.4123  0.3550
13977SOL     OW45332   3.014   6.192   7.360  0.5699  0.0574 -0.7484
13977SOL    HW145333   2.925   6.212   7.330  0.5327  1.1454  0.0392
13977SOL    HW245334   3.069   6.204   7.282  0.0865 -0.2675 -1.1506
13978SOL     OW45335  10.504   5.051   6.337  0.3637  0.0184  0.1018
13978SOL    HW145336  10.584   5.093   6.368  1.2075  1.8867 -3.8985
13978SOL    HW245337  10.534   4.970   6.296 -0.2672 -0.7904  1.1866
13979SOL     OW45338   4.540   4.673   3.447 -0.6806  0.0822  0.5026
13979SOL    HW145339   4.617   4.717   3.410 -0.6430  1.9532  2.5966
13979SOL    HW245340   4.472   4.684   3.381  0.4182 -0.2848 -0.7369
13980SOL     OW45341   9.746   8.020   6.954  0.1134  0.1316  0.2372
13980SOL    HW145342   9.784   7.999   6.869  2.3786 -0.8216  1.4135
13980SOL    HW245343   9.657   7.984   6.950  0.2119  0.0060 -1.6536
13981SOL     OW45344   0.345   9.766  10.797 -1.0896 -0.0804  0.2601
13981SOL    HW145345   0.373   9.837  10.854 -0.2349  1.0591 -1.4946
13981SOL    HW245346   0.423   9.741  10.748 -2.2800  0.8031 -2.2803
13982SOL     OW45347   2.419   1.592   9.012 -0.3548  0.7639  0.2998
13982SOL    HW145348   2.498   1.622   9.056 -0.5042  1.7577 -0.0833
13982SOL    HW245349   2.388   1.668   8.963 -1.5903  0.4220  0.4998
13983SOL     OW45350   9.459   9.202   1.878 -0.1758 -0.3030  0.1854
13983SOL    HW145351   9.434   9.118   1.916 -0.1764 -0.1713  0.4778
13983SOL    HW245352   9.392   9.264   1.907 -0.8150 -0.4256 -0.9647
13984SOL     OW45353   3.801   7.953  10.045  0.0890  0.0138  0.0833
13984SOL    HW145354   3.755   7.884  10.094 -0.4342 -0.3134 -0.8433
13984SOL    HW245355   3.806   7.919   9.956  1.6751  0.2885  0.0468
13985SOL     OW45356   4.821   2.142   2.278 -0.1562 -0.0712  0.2785
13985SOL    HW145357   4.771   2.214   2.240  1.1182 -0.0620 -1.5024
13985SOL    HW245358   4.885   2.185   2.334  0.5912  0.2191 -0.7662
13986SOL     OW45359   8.863   6.924   9.598 -0.5973 -0.3609 -0.1899
13986SOL    HW145360   8.835   6.912   9.689 -0.4530 -0.0648 -0.1034
13986SOL    HW245361   8.793   6.976   9.558  0.0003  0.7464  0.1373
13987SOL     OW45362   7.278   6.460   0.169  0.5338  0.0743  1.0212
13987SOL    HW145363   7.358   6.482   0.120  0.8924  0.4882  1.7813
13987SOL    HW245364   7.234   6.544   0.182 -1.9197 -0.4368 -2.4942
13988SOL     OW45365   6.213   3.401   7.718 -0.1095 -0.1178  0.1977
13988SOL    HW145366   6.185   3.315   7.751  3.4812 -0.7632  1.9868
13988SOL    HW245367   6.223   3.388   7.624 -2.0632 -0.8504  0.0417
13989SOL     OW45368   3.268   0.973  10.807  0.0337 -0.0966 -0.7167
13989SOL    HW145369   3.315   0.927  10.876 -0.0108  1.0214  0.0800
13989SOL    HW245370   3.285   0.921  10.728  3.3881  0.7234 -0.6788
13990SOL     OW45371   6.140   0.287   7.121 -0.2145  0.1490 -0.3891
13990SOL    HW145372   6.150   0.362   7.179  3.2021 -0.2866 -0.2507
13990SOL    HW245373   6.118   0.214   7.179  2.4163 -0.1237  0.3662
13991SOL     OW45374  10.470   1.522   0.385 -0.4481 -1.2217  0.0037
13991SOL    HW145375  10.463   1.610   0.348  0.9778 -1.0860 -0.0008
13991SOL    HW245376  10.500   1.535   0.474  0.1212 -1.7132 -0.1080
13992SOL     OW45377   9.240   4.829   7.647  0.2388 -0.0967  0.1828
13992SOL    HW145378   9.256   4.800   7.558  0.0903 -0.5800  0.3080
13992SOL    HW245379   9.325   4.822   7.690  0.2180 -0.2993  0.1948
13993SOL     OW45380   8.636   1.023   9.806  0.4903  0.3588  0.5347
13993SOL    HW145381   8.578   1.047   9.878 -0.2905  1.1743 -0.3232
13993SOL    HW245382   8.692   1.101   9.794 -0.1357  0.6830 -0.4318
13994SOL     OW45383   4.236   6.354   0.261  0.0206  0.1948  0.1088
13994SOL    HW145384   4.249   6.379   0.353 -1.3080 -2.6014  1.1835
13994SOL    HW245385   4.141   6.356   0.250  0.1625  0.3546 -1.1922
13995SOL     OW45386  10.757   7.957   8.042 -0.0960  0.7081 -0.3315
13995SOL    HW145387  10.703   7.979   8.118  2.5902  0.2193  1.8694
13995SOL    HW245388  10.700   7.901   7.989 -1.1193 -1.8387  3.0422
13996SOL     OW45389   6.164   3.449   7.438  0.3412 -0.2995  0.0383
13996SOL    HW145390   6.102   3.450   7.365  2.0739 -0.8381 -1.5203
13996SOL    HW245391   6.169   3.540   7.466 -1.7452 -0.3544  0.7830
13997SOL     OW45392   4.392   7.113   0.038 -0.0397  0.0146  0.3925
13997SOL    HW145393   4.366   7.190  -0.013 -0.7618  0.0648  0.8094
13997SOL    HW245394   4.404   7.045  -0.027 -0.2385  0.2667  0.0850
13998SOL     OW45395   5.227   4.630   2.946  0.4569 -0.5522 -0.4761
13998SOL    HW145396   5.208   4.545   2.984 -0.6180 -1.2234 -2.3758
13998SOL    HW245397   5.160   4.688   2.982 -0.7047 -1.2297 -1.4839
13999SOL     OW45398   8.457   9.554   2.825  0.1692 -0.1137  0.6273
13999SOL    HW145399   8.469   9.592   2.738 -2.3501 -1.3157 -0.3316
13999SOL    HW245400   8.415   9.624   2.876 -0.6244 -0.2308  0.1339
14000SOL     OW45401   0.474   2.751   2.054  0.1706  0.2315 -0.0895
14000SOL    HW145402   0.446   2.835   2.092  0.7800  0.5273 -0.2874
14000SOL    HW245403   0.514   2.705   2.128  0.5771  0.4539 -0.1687
14001SOL     OW45404   6.837   7.924   3.487  0.3952 -0.5094  0.2717
14001SOL    HW145405   6.919   7.971   3.470  0.1494 -0.4809 -0.9135
14001SOL    HW245406   6.819   7.940   3.579  1.2074  0.3041  0.3028
14002SOL     OW45407   5.966   0.192   0.676  0.1497  0.2695  0.3131
14002SOL    HW145408   5.974   0.105   0.637  1.1706  0.4245  0.1447
14002SOL    HW245409   5.911   0.241   0.615  2.0181  0.6196 -1.1779
14003SOL     OW45410   8.766   2.976   2.308 -0.1670  0.3947 -0.2506
14003SOL    HW145411   8.833   3.043   2.298  0.9872 -0.7332 -0.3398
14003SOL    HW245412   8.814   2.897   2.334 -1.4160 -0.5301 -0.6288
14004SOL     OW45413   1.421   9.868   1.675  0.0042 -0.1053  0.6323
14004SOL    HW145414   1.507   9.827   1.665 -0.0693 -0.1415  0.1106
14004SOL    HW245415   1.417   9.895   1.767  0.6107 -0.0117  0.6322
14005SOL     OW45416   8.741   0.849   2.100 -0.0655  0.2770 -0.1887
14005SOL    HW145417   8.702   0.894   2.175  2.4091  1.5336  0.4393
14005SOL    HW245418   8.807   0.791   2.139 -0.7958 -1.3481 -1.2528
14006SOL     OW45419   7.907   3.905   8.499  0.2418  0.0675  0.1706
14006SOL    HW145420   7.922   3.926   8.407  1.7644  0.5252  0.4933
14006SOL    HW245421   7.812   3.914   8.510 -0.0037 -0.2262 -1.3927
14007SOL     OW45422  10.363  10.527   6.405  0.4815  0.3873 -0.4437
14007SOL    HW145423  10.316  10.588   6.461  0.2246  0.1104 -0.3522
14007SOL    HW245424  10.329  10.543   6.317  2.8164  2.7401 -1.0556
14008SOL     OW45425   9.194  10.014   5.111 -0.4459  0.4557 -0.4297
14008SOL    HW145426   9.283   9.990   5.138 -0.6198 -1.9734 -1.7343
14008SOL    HW245427   9.204  10.097   5.064  1.2933 -0.2071 -1.3022
14009SOL     OW45428   3.500  10.159  10.011 -0.1264 -0.1605 -0.2100
14009SOL    HW145429   3.575  10.102  10.031  0.0459 -0.6057 -1.9740
14009SOL    HW245430   3.433  10.099   9.978 -1.0601  0.3095  0.7916
14010SOL     OW45431   5.711   0.544   3.779  0.1906 -0.3806 -0.1963
14010SOL    HW145432   5.636   0.560   3.836  0.3883  1.3099 -0.3598
14010SOL    HW245433   5.721   0.625   3.729  0.5991 -1.4747 -1.9814
14011SOL     OW45434   7.606   5.787   0.402 -0.2344  0.1290 -0.0381
14011SOL    HW145435   7.539   5.806   0.469 -2.1102 -0.2625 -1.6922
14011SOL    HW245436   7.586   5.848   0.331  2.5339  1.4466  0.1922
14012SOL     OW45437   5.574   1.507   5.698  0.2555  0.1820  0.0301
14012SOL    HW145438   5.508   1.548   5.754  1.3862 -0.1171  1.6576
14012SOL    HW245439   5.537   1.422   5.675  0.5543 -0.5797  2.0709
14013SOL     OW45440   3.140   5.108   6.217  0.9529 -0.4934 -0.2204
14013SOL    HW145441   3.133   5.065   6.303  1.8689 -3.8076 -1.6293
14013SOL    HW245442   3.229   5.088   6.188  1.2188  1.9894 -1.2904
14014SOL     OW45443   7.098   2.177   2.012  0.1297  0.2475  0.3518
14014SOL    HW145444   7.084   2.082   2.013 -0.3665  0.3146 -0.2527
14014SOL    HW245445   7.112   2.199   1.920  0.4243  0.7404  0.5085
14015SOL     OW45446   6.494  10.264   2.440  0.0148  0.1663 -0.8248
14015SOL    HW145447   6.490  10.314   2.359  1.3096 -0.6938 -1.4414
14015SOL    HW245448   6.427  10.196   2.430 -0.8618  0.9645 -0.5195
14016SOL     OW45449   4.686   6.855  10.259  0.0865  0.6116 -0.0911
14016SOL    HW145450   4.591   6.850  10.245  0.1763 -1.7437 -0.3579
14016SOL    HW245451   4.715   6.764  10.251  2.5446  1.4321 -1.1568
14017SOL     OW45452  10.548   7.399   2.437 -0.4024  0.2513  0.0708
14017SOL    HW145453  10.600   7.454   2.496 -0.7148  1.3345 -0.6292
14017SOL    HW245454  10.463   7.442   2.433 -0.9669 -0.8199  0.2290
14018SOL     OW45455   2.521   3.844   6.982 -0.3372  0.0343 -0.1831
14018SOL    HW145456   2.588   3.806   6.927 -1.2251  0.6395 -1.7433
14018SOL    HW245457   2.446   3.785   6.973 -1.0861  1.0773 -1.1085
14019SOL     OW45458   0.317   6.391   1.553  0.6769  0.0408  0.5728
14019SOL    HW145459   0.343   6.326   1.618 -1.1895  0.0587  1.4246
14019SOL    HW245460   0.221   6.393   1.559  0.4525  0.1752 -2.0925
14020SOL     OW45461   2.010   0.990   3.514 -0.1241  0.3890  0.4190
14020SOL    HW145462   2.067   0.914   3.506 -1.6816 -0.9562  1.5058
14020SOL    HW245463   1.923   0.957   3.492 -0.6115  2.2461 -0.6289
14021SOL     OW45464   9.049   0.117   9.945 -0.4965  0.0549  0.3785
14021SOL    HW145465   9.041   0.212   9.937  2.4079  0.5120  1.7860
14021SOL    HW245466   9.121   0.094   9.885  0.0279 -0.9778  1.3800
14022SOL     OW45467   6.101   5.347   4.488 -0.4814  0.4527  0.2874
14022SOL    HW145468   6.055   5.264   4.501 -2.3581  1.0579 -1.9388
14022SOL    HW245469   6.139   5.340   4.401 -0.7955  1.9832  0.0023
14023SOL     OW45470   9.521   9.996   4.342 -0.4721 -0.6434  0.1221
14023SOL    HW145471   9.470   9.980   4.422 -0.8454  0.6227  0.1446
14023SOL    HW245472   9.456  10.019   4.276 -0.2326 -2.2840 -0.7457
14024SOL     OW45473   1.441   4.887   2.519 -0.3282 -0.7827 -0.8671
14024SOL    HW145474   1.526   4.877   2.477 -0.1609 -1.6197 -0.3517
14024SOL    HW245475   1.390   4.812   2.489 -0.1486 -1.4897  0.5252
14025SOL     OW45476   6.002   6.382   8.724 -0.3611  0.5283  0.1760
14025SOL    HW145477   6.068   6.434   8.678  0.2109 -1.5129 -1.4510
14025SOL    HW245478   6.042   6.365   8.810  1.8021 -1.4581 -1.0885
14026SOL     OW45479   9.406   4.014   5.652  0.0241  0.2604 -0.4941
14026SOL    HW145480   9.478   3.990   5.594  0.8384  0.9578  0.1991
14026SOL    HW245481   9.386   3.935   5.701  1.2868  0.4204  0.3126
14027SOL     OW45482   2.871   9.128   4.571  0.0643 -0.3921  0.2330
14027SOL    HW145483   2.872   9.216   4.608  0.2664 -0.1337 -0.3588
14027SOL    HW245484   2.947   9.084   4.610 -0.5083 -0.5742  1.1490
14028SOL     OW45485  10.916   1.297   2.858 -0.2787  0.1712 -0.1141
14028SOL    HW145486  10.930   1.296   2.953  1.1674  1.2907 -0.2842
14028SOL    HW245487  10.972   1.227   2.825 -1.2079 -0.5917 -0.1155
14029SOL     OW45488   1.298   1.805   2.858 -0.0865 -0.4804 -0.1487
14029SOL    HW145489   1.220   1.817   2.804 -1.4548 -0.1307  1.7858
14029SOL    HW245490   1.339   1.892   2.861 -0.5842 -0.2531  0.1935
14030SOL     OW45491   0.658   5.916   0.927 -0.0855 -0.2390  0.5533
14030SOL    HW145492   0.718   5.904   1.000  0.6314 -1.3794 -0.1954
14030SOL    HW245493   0.704   5.975   0.867  0.9849 -2.2303 -0.6973
14031SOL     OW45494   7.794   2.762   9.256  0.3195  0.3583  0.0868
14031SOL    HW145495   7.791   2.836   9.195  1.3221 -0.0132 -0.4510
14031SOL    HW245496   7.740   2.695   9.214  0.8392  0.1771 -0.3143
14032SOL     OW45497   8.726   4.679   7.478 -0.2434  0.1804 -0.1904
14032SOL    HW145498   8.779   4.627   7.539 -0.2578 -1.2442 -1.3540
14032SOL    HW245499   8.780   4.756   7.461  0.6533 -0.3691  0.0647
14033SOL     OW45500   5.436   4.370   8.062 -0.4369  0.4864 -0.4622
14033SOL    HW145501   5.454   4.354   7.970  0.9375 -1.2311  0.0439
14033SOL    HW245502   5.521   4.389   8.101 -0.7690 -0.2870  0.7031
14034SOL     OW45503   2.980   9.519   3.473 -0.3052 -0.4844  0.1023
14034SOL    HW145504   2.990   9.591   3.534  0.9125 -2.6583  2.6815
14034SOL    HW245505   2.897   9.537   3.429  0.9369  3.4950 -1.0205
14035SOL     OW45506   0.431   9.114   0.945 -0.3010  0.2100  0.3162
14035SOL    HW145507   0.349   9.142   0.986 -0.4783 -0.8001  0.6672
14035SOL    HW245508   0.417   9.022   0.922  1.6361 -0.8607  2.8400
14036SOL     OW45509   2.335   0.138   6.949  0.5467  0.4010  0.7514
14036SOL    HW145510   2.356   0.050   6.917 -0.9008 -0.5767  2.3146
14036SOL    HW245511   2.361   0.137   7.041  0.5389  1.6367  0.7835
14037SOL     OW45512   1.038   1.777   3.521  0.1745  0.4763  0.2738
14037SOL    HW145513   0.964   1.826   3.556  1.4068  2.7029 -0.0947
14037SOL    HW245514   1.093   1.842   3.479  1.5020 -1.3605 -1.0051
14038SOL     OW45515   0.159   7.027   6.653  0.4597  0.0172  0.4671
14038SOL    HW145516   0.076   6.980   6.645  0.6599 -0.2183 -0.2587
14038SOL    HW245517   0.225   6.965   6.624  1.0986 -0.3948  2.6621
14039SOL     OW45518   9.629   4.956   3.601  0.3320  0.0214 -0.4897
14039SOL    HW145519   9.608   4.903   3.524  0.0778 -0.7488  0.0993
14039SOL    HW245520   9.717   4.990   3.583 -0.1665  0.7648 -1.6108
14040SOL     OW45521   2.232   1.206   9.202 -0.5536 -0.0343  0.2014
14040SOL    HW145522   2.266   1.150   9.271 -3.1124 -0.0696  1.5481
14040SOL    HW245523   2.174   1.149   9.151 -1.4352  0.8337  0.2081
14041SOL     OW45524   7.470   4.029   6.687 -0.1037  0.2427  0.1130
14041SOL    HW145525   7.420   4.066   6.615  1.4837  1.4150 -0.4336
14041SOL    HW245526   7.433   3.941   6.699 -0.9202  0.3161 -1.5744
14042SOL     OW45527   7.681   6.043   8.362 -0.5043 -0.2612 -0.2775
14042SOL    HW145528   7.697   5.979   8.431 -0.4028 -0.6419 -0.6552
14042SOL    HW245529   7.654   5.992   8.286  0.3085  0.0716 -0.8114
14043SOL     OW45530   4.126   4.068   5.422  0.3681  0.0294  0.2339
14043SOL    HW145531   4.058   4.068   5.490  2.2607  0.4061  2.2699
14043SOL    HW245532   4.142   3.976   5.403  0.0788 -0.1007  0.6179
14044SOL     OW45533   1.656   8.475   4.126  0.0130  0.1497 -0.7261
14044SOL    HW145534   1.614   8.389   4.136  0.1841  0.1332 -0.0947
14044SOL    HW245535   1.590   8.528   4.082 -0.9745  0.3138  0.8565
14045SOL     OW45536   4.634   2.190   2.785  0.1752  0.2810 -0.4431
14045SOL    HW145537   4.620   2.280   2.816  1.0234 -0.1145  1.2271
14045SOL    HW245538   4.548   2.160   2.756 -0.2129  1.4484 -0.5508
14046SOL     OW45539   3.806   3.554   3.415  0.4326 -0.5133 -0.4967
14046SOL    HW145540   3.854   3.541   3.333  0.2528 -0.7861 -0.5593
14046SOL    HW245541   3.874   3.576   3.479  0.7699 -1.8977 -0.3566
14047SOL     OW45542   0.403   3.637   5.539 -0.3634 -0.5095 -0.0757
14047SOL    HW145543   0.367   3.601   5.459 -1.3691 -0.9760  0.5653
14047SOL    HW245544   0.467   3.572   5.568  1.5926  0.6346 -1.5724
14048SOL     OW45545   9.040  10.161   9.891 -0.1041 -0.8571  0.0316
14048SOL    HW145546   8.950  10.139   9.865 -0.6713  1.6007 -0.3347
14048SOL    HW245547   9.089  10.158   9.809 -0.2725 -0.4296 -0.0903
14049SOL     OW45548   6.634   2.557   9.296 -0.0098  0.3185 -0.6480
14049SOL    HW145549   6.587   2.474   9.295  0.1521  0.1331  1.6526
14049SOL    HW245550   6.703   2.547   9.231 -0.6234 -0.9408 -1.1397
14050SOL     OW45551   5.394   0.091   3.491  0.4949 -0.0566  0.0800
14050SOL    HW145552   5.417   0.172   3.446  1.8321  1.2835  2.9200
14050SOL    HW245553   5.311   0.064   3.452  0.1019  2.5957 -1.0901
14051SOL     OW45554   9.655   8.821   6.149 -0.1724  0.2025  0.7248
14051SOL    HW145555   9.739   8.776   6.160  0.0591  0.8013  1.5075
14051SOL    HW245556   9.646   8.874   6.228 -1.6102 -0.3501  0.9639
14052SOL     OW45557   8.455   2.632   7.578  0.5052 -0.2306 -0.2335
14052SOL    HW145558   8.514   2.582   7.522  0.7279  0.3498 -0.5279
14052SOL    HW245559   8.488   2.722   7.572  1.2119 -0.3218  1.6903
14053SOL     OW45560   9.418   8.614  10.695  0.1749  0.0692 -0.4463
14053SOL    HW145561   9.423   8.606  10.791 -0.6024 -1.3250 -0.4916
14053SOL    HW245562   9.390   8.704  10.680 -1.4944 -0.2117  0.7243
14054SOL     OW45563   0.472   2.526   4.181  0.1922 -0.3038  0.0429
14054SOL    HW145564   0.472   2.543   4.087 -1.2812  0.4651  0.1517
14054SOL    HW245565   0.439   2.437   4.189  0.9621 -0.6165 -0.1892
14055SOL     OW45566   2.591   2.746   4.248 -0.4308  0.1653  0.2321
14055SOL    HW145567   2.537   2.761   4.326 -2.4827 -0.5296 -1.0031
14055SOL    HW245568   2.546   2.677   4.200  2.1530 -1.2036 -0.3749
14056SOL     OW45569   3.455   0.550  10.806 -0.7583  0.0170  0.3150
14056SOL    HW145570   3.399   0.514  10.875 -0.4068 -0.7341  0.2227
14056SOL    HW245571   3.444   0.490  10.732 -0.7376  0.5277 -0.1069
14057SOL     OW45572   4.693   6.717   9.387  0.7869 -0.1937  0.1204
14057SOL    HW145573   4.687   6.767   9.468  0.0037  0.0093 -0.0559
14057SOL    HW245574   4.775   6.746   9.347  0.6751  0.4580  0.3508
14058SOL     OW45575  10.591   6.804   5.232 -0.1440 -0.3986  0.1289
14058SOL    HW145576  10.537   6.821   5.309  0.1053 -0.6226  0.3530
14058SOL    HW245577  10.652   6.735   5.259  1.2115  0.8372  0.3311
14059SOL     OW45578  10.768   8.841   5.695 -0.3703  0.5970  0.4295
14059SOL    HW145579  10.690   8.834   5.750 -0.0395  0.1498  0.8468
14059SOL    HW245580  10.764   8.764   5.638  0.6950 -0.4281  1.6759
14060SOL     OW45581   1.322   2.841  10.462 -0.2028 -0.0669  0.0739
14060SOL    HW145582   1.292   2.767  10.515 -0.5566 -0.3008 -0.4326
14060SOL    HW245583   1.372   2.800  10.391  1.6756  0.3406  1.1010
14061SOL     OW45584   9.784   8.398   1.998  0.0384  0.0603 -0.2078
14061SOL    HW145585   9.727   8.361   2.066 -1.0742 -1.0512 -1.6747
14061SOL    HW245586   9.845   8.328   1.978 -0.9865 -0.4362 -1.7921
14062SOL     OW45587   0.892   2.728   8.083  0.3943 -0.0327  0.2659
14062SOL    HW145588   0.815   2.764   8.127 -0.5325 -1.5590 -0.0149
14062SOL    HW245589   0.965   2.751   8.140 -0.4505  0.2342  1.2781
14063SOL     OW45590   0.372   1.810   9.324 -0.1254 -0.1367 -0.3114
14063SOL    HW145591   0.457   1.853   9.316  0.7957 -1.5443  1.1552
14063SOL    HW245592   0.365   1.788   9.417 -1.6959 -0.8319 -0.5595
14064SOL     OW45593   1.582  10.612   4.949 -0.9940  0.2187  0.1377
14064SOL    HW145594   1.537  10.534   4.983  0.2418  0.3014  2.1190
14064SOL    HW245595   1.553  10.683   5.005 -0.3809  0.7450 -0.1950
14065SOL     OW45596   5.443   1.697   9.113 -0.2595 -0.3602 -0.1973
14065SOL    HW145597   5.532   1.665   9.133  0.6714  1.1983 -1.5972
14065SOL    HW245598   5.387   1.649   9.173  1.5353 -1.4023  0.7458
14066SOL     OW45599  10.167   3.900  10.918  0.7572  0.8017  0.4073
14066SOL    HW145600  10.211   3.938  10.842  2.0142  1.7049  1.5313
14066SOL    HW245601  10.206   3.945  10.993  0.5984 -1.0562  1.6757
14067SOL     OW45602   1.280   6.303   0.478 -0.5054 -0.1126 -0.2232
14067SOL    HW145603   1.360   6.294   0.529 -0.9618 -0.2570  0.4762
14067SOL    HW245604   1.237   6.218   0.484 -0.7201 -0.0352 -0.5896
14068SOL     OW45605   4.314   0.176   1.608  0.4629  0.1771 -0.4131
14068SOL    HW145606   4.257   0.225   1.667 -1.0883 -2.1938  0.1946
14068SOL    HW245607   4.263   0.167   1.528  1.1192  0.3702 -0.8567
14069SOL     OW45608   5.358   1.532   6.362 -0.4375  0.2746 -0.3299
14069SOL    HW145609   5.332   1.440   6.357 -0.8294  0.3975 -0.6408
14069SOL    HW245610   5.347   1.555   6.454 -1.2603  0.2651 -0.4171
14070SOL     OW45611   8.628   5.292   4.631  0.2190  0.2754 -0.2417
14070SOL    HW145612   8.605   5.258   4.544 -0.3074 -2.3163  0.8090
14070SOL    HW245613   8.556   5.350   4.654 -0.2747 -0.0060 -1.0362
14071SOL     OW45614   8.401   5.977   3.070 -1.1587  0.1851  0.3125
14071SOL    HW145615   8.354   5.894   3.067 -0.3172 -0.3268  1.0201
14071SOL    HW245616   8.430   5.991   2.980  1.1763 -1.7709  0.6480
14072SOL     OW45617   9.143   6.818   0.031  0.1888 -0.6926  0.2509
14072SOL    HW145618   9.058   6.850   0.061  0.1573 -0.5617  0.0324
14072SOL    HW245619   9.146   6.843  -0.062  0.3042 -1.0358  0.1595
14073SOL     OW45620   7.719   7.068   0.945 -0.0489 -0.5655 -0.1435
14073SOL    HW145621   7.692   7.158   0.965  1.5059 -0.0092 -0.3774
14073SOL    HW245622   7.702   7.019   1.026 -0.9083 -0.0719 -0.0132
14074SOL     OW45623   5.598   0.069   1.911 -0.3025 -0.0103  0.3844
14074SOL    HW145624   5.564   0.123   1.982 -0.5451  2.4165 -1.4367
14074SOL    HW245625   5.692   0.083   1.912 -0.3000 -0.0132  0.2817
14075SOL     OW45626   1.361   1.423   0.395 -0.5435  0.2954 -0.2192
14075SOL    HW145627   1.328   1.425   0.485 -1.6238  0.3568 -0.6100
14075SOL    HW245628   1.456   1.428   0.405 -0.6805  1.0521  0.8877
14076SOL     OW45629   0.277   2.074   2.570  0.3598  0.0761 -0.3001
14076SOL    HW145630   0.193   2.034   2.551  0.6810  0.4458 -2.9253
14076SOL    HW245631   0.342   2.012   2.536  1.0620  0.6230  0.0029
14077SOL     OW45632   4.170   1.029   7.573  0.3705  0.5841 -0.3389
14077SOL    HW145633   4.145   0.945   7.533  1.3617 -0.1116  0.4510
14077SOL    HW245634   4.137   1.023   7.663  2.2581  0.1329  0.3642
14078SOL     OW45635   9.607   2.017   4.142 -0.0569 -0.0222  0.6443
14078SOL    HW145636   9.552   2.090   4.113  0.1492  0.2781  1.0001
14078SOL    HW245637   9.573   1.941   4.095  0.3792  0.4847 -0.5201
14079SOL     OW45638   7.228   0.333   6.481 -0.1514 -0.3275 -0.0912
14079SOL    HW145639   7.290   0.360   6.413  0.3192 -0.7838  0.1453
14079SOL    HW245640   7.284   0.312   6.556 -0.7195  1.5281  0.9317
14080SOL     OW45641   6.784   6.460  10.347  0.1481 -0.7664 -0.6575
14080SOL    HW145642   6.847   6.469  10.418 -1.8604  0.0661  1.1434
14080SOL    HW245643   6.723   6.533  10.359 -3.0183 -3.2388 -0.2172
14081SOL     OW45644   1.455   6.714  10.738 -0.1169  0.2062  0.1647
14081SOL    HW145645   1.393   6.660  10.787  0.1339  0.1941  0.4674
14081SOL    HW245646   1.540   6.674  10.754  0.1121  0.8718  0.6517
14082SOL     OW45647   7.207   1.390   2.600  0.5112  0.4415 -0.2996
14082SOL    HW145648   7.130   1.337   2.621 -0.7074  1.0232 -2.8580
14082SOL    HW245649   7.279   1.328   2.595 -0.0342 -0.3107  0.8348
14083SOL     OW45650  10.027   7.523   0.722 -0.3996  0.6380  0.0049
14083SOL    HW145651  10.055   7.436   0.691 -0.1730  0.4920  0.6043
14083SOL    HW245652   9.931   7.518   0.724 -0.3755 -0.4259  2.2512
14084SOL     OW45653   6.451   7.962  10.885  0.7331 -0.0122  0.1683
14084SOL    HW145654   6.421   7.944  10.796 -0.1110  1.3243  0.1532
14084SOL    HW245655   6.424   8.052  10.902  2.0079  0.1835  1.3318
14085SOL     OW45656   7.729   4.954  10.522 -0.3542  0.1507 -0.2520
14085SOL    HW145657   7.676   5.014  10.574 -1.0361  0.7526 -1.5928
14085SOL    HW245658   7.718   4.984  10.432 -0.2646 -1.6385 -0.9045
14086SOL     OW45659   3.670  10.906   9.075 -0.3487  0.0097 -0.1538
14086SOL    HW145660   3.587  10.932   9.035 -0.4766 -0.2567 -0.0612
14086SOL    HW245661   3.656  10.917   9.169  0.2285  1.4736 -0.2000
14087SOL     OW45662   8.136   9.680   2.265  0.1284  0.3544 -0.3413
14087SOL    HW145663   8.046   9.711   2.257 -0.1372  0.4751  2.2435
14087SOL    HW245664   8.143   9.649   2.355  2.7040  0.4215 -0.4344
14088SOL     OW45665   9.364   1.868   1.223 -0.9751  0.2302 -0.5842
14088SOL    HW145666   9.273   1.841   1.212 -0.8819 -0.3834  0.1116
14088SOL    HW245667   9.360   1.939   1.287 -1.0224  0.6451 -1.0362
14089SOL     OW45668   3.089   3.626   0.246 -0.2043 -0.0649 -0.2412
14089SOL    HW145669   3.052   3.700   0.196  0.6832  0.0084 -0.8082
14089SOL    HW245670   3.076   3.650   0.338 -0.7452  0.3743 -0.4267
14090SOL     OW45671   3.434   2.898  10.478  0.2871 -0.1319 -0.0444
14090SOL    HW145672   3.460   2.923  10.390  0.5036 -0.3610 -0.0480
14090SOL    HW245673   3.452   2.975  10.532  0.7227 -0.1955 -0.0956
14091SOL     OW45674   0.926   1.579   4.053  0.1947  0.4999 -0.2939
14091SOL    HW145675   0.934   1.492   4.014 -0.6652 -0.2083  1.0418
14091SOL    HW245676   0.833   1.589   4.071  0.2915  1.7021 -0.4122
14092SOL     OW45677   6.571   5.944  10.083  0.3380 -0.0201  0.0486
14092SOL    HW145678   6.545   6.035  10.102 -0.1983 -0.3105  0.7899
14092SOL    HW245679   6.539   5.928   9.995 -1.4381 -0.1259  0.6633
14093SOL     OW45680   4.289   7.593   2.287  0.0624 -0.0950 -0.3390
14093SOL    HW145681   4.340   7.649   2.230  0.7012 -2.0280 -1.7782
14093SOL    HW245682   4.344   7.581   2.365 -0.3048  1.6109  0.2159
14094SOL     OW45683   4.693   1.163   2.800  0.0059 -0.4765 -0.0364
14094SOL    HW145684   4.692   1.124   2.887 -0.2903 -1.7644 -0.5980
14094SOL    HW245685   4.606   1.143   2.763 -0.5212  1.5025 -0.0283
14095SOL     OW45686   9.488   9.225   3.554  1.0318 -0.0809 -0.8520
14095SOL    HW145687   9.395   9.219   3.579  0.7349  2.3629 -1.1364
14095SOL    HW245688   9.518   9.135   3.553 -1.4512 -0.9831 -1.1351
14096SOL     OW45689  10.561   5.699   9.985 -0.1162 -0.0336  0.4469
14096SOL    HW145690  10.640   5.661  10.022 -0.2674 -0.7177  0.0747
14096SOL    HW245691  10.592   5.775   9.936  0.3618 -0.5260 -0.0243
14097SOL     OW45692  10.410   5.381   0.239  0.1263  0.1568 -0.4119
14097SOL    HW145693  10.502   5.372   0.214 -0.0970 -1.6013 -0.7689
14097SOL    HW245694  10.412   5.430   0.321  1.6050 -1.7451  0.7706
14098SOL     OW45695   5.188   4.113   1.307  0.6802 -0.0916 -0.1518
14098SOL    HW145696   5.192   4.025   1.343  0.1916 -0.4731 -1.0063
14098SOL    HW245697   5.161   4.101   1.216  0.2934  0.9586 -0.1953
14099SOL     OW45698   1.307   5.133   4.410  0.1190  0.1386 -0.0471
14099SOL    HW145699   1.212   5.134   4.419  0.1532  0.3951  0.3052
14099SOL    HW245700   1.336   5.218   4.443  0.4728  0.0526 -0.1254
14100SOL     OW45701   9.832   6.592   3.351 -0.6324  0.1887 -0.3935
14100SOL    HW145702   9.798   6.632   3.271 -1.7566 -0.7645 -0.4054
14100SOL    HW245703   9.839   6.499   3.330 -0.9068 -0.0637  0.6000
14101SOL     OW45704   8.755   5.932  10.848  0.5084  0.4346  0.0549
14101SOL    HW145705   8.773   5.884  10.766 -0.0157  0.7677 -0.2569
14101SOL    HW245706   8.693   6.000  10.823  1.5553  1.5495  0.4140
14102SOL     OW45707  10.712   4.769   5.060 -0.0137 -0.3260 -0.2605
14102SOL    HW145708  10.764   4.731   4.988 -1.4255 -1.5542 -0.6839
14102SOL    HW245709  10.777   4.791   5.126  1.3965  1.3402 -2.0738
14103SOL     OW45710   1.881   9.875  10.893 -0.4675  0.7982 -0.1140
14103SOL    HW145711   1.922   9.864  10.978 -0.6286  0.2107 -0.1102
14103SOL    HW245712   1.798   9.919  10.911 -1.4720 -1.1631  0.2832
14104SOL     OW45713   0.730   9.205   5.095  0.3041 -0.3124  0.7512
14104SOL    HW145714   0.715   9.116   5.064  1.4489  0.1215 -1.2329
14104SOL    HW245715   0.653   9.254   5.065  0.5602 -0.2573  0.1835
14105SOL     OW45716   9.276   7.760   7.734 -0.2724  0.5217 -0.1601
14105SOL    HW145717   9.279   7.784   7.826 -1.2716  0.0142  0.0241
14105SOL    HW245718   9.191   7.791   7.704  0.9606  2.7781 -1.5496
14106SOL     OW45719   8.296   4.055   8.974  0.6670 -0.5516  0.7032
14106SOL    HW145720   8.243   4.006   8.911  1.4586  0.1907 -0.5944
14106SOL    HW245721   8.233   4.100   9.030 -0.0560 -1.1675  0.3956
14107SOL     OW45722   1.551  10.279   9.688 -0.2235  0.0315 -0.3782
14107SOL    HW145723   1.543  10.186   9.666 -0.3375  0.3939 -1.9520
14107SOL    HW245724   1.570  10.279   9.782 -0.7678 -1.5579 -0.2253
14108SOL     OW45725   5.632   3.019   4.062  0.4925  0.0567 -0.2491
14108SOL    HW145726   5.579   3.085   4.108  0.5490  0.2641 -0.4783
14108SOL    HW245727   5.578   2.940   4.063  0.8707 -0.2178  1.0021
14109SOL     OW45728   5.318   6.069  10.001 -0.3505  0.0096 -0.0269
14109SOL    HW145729   5.232   6.033  10.023 -0.0933 -0.9733 -0.5463
14109SOL    HW245730   5.327   6.054   9.907  0.0044  0.9696 -0.1508
14110SOL     OW45731   7.924   9.861   8.079  0.2192 -0.3281  0.6631
14110SOL    HW145732   7.853   9.898   8.130  0.2956  0.5940  0.1201
14110SOL    HW245733   7.948   9.780   8.125 -1.4032 -0.8345  0.6535
14111SOL     OW45734   7.793   4.586   6.016 -0.1775 -0.5898  0.1485
14111SOL    HW145735   7.753   4.662   5.974  0.4062  0.5513  1.5632
14111SOL    HW245736   7.806   4.613   6.107  1.7545 -1.7118  0.2559
14112SOL     OW45737   3.789   6.709   4.777  0.1409 -0.3570 -0.3050
14112SOL    HW145738   3.823   6.777   4.836 -1.1174 -0.4995  0.6254
14112SOL    HW245739   3.866   6.658   4.752  0.7068 -0.4101  1.4048
14113SOL     OW45740  10.657   2.811   1.293 -0.2551  1.0011 -0.2225
14113SOL    HW145741  10.750   2.794   1.308 -0.2419  1.2867  0.0428
14113SOL    HW245742  10.656   2.893   1.244 -0.3994  1.6764  0.8558
14114SOL     OW45743   8.097   2.300   4.368 -0.4209  0.1174 -0.4905
14114SOL    HW145744   8.073   2.392   4.358  0.1288  0.2644 -0.5036
14114SOL    HW245745   8.187   2.296   4.337  0.4547  0.0685  1.8521
14115SOL     OW45746   1.802   2.586   0.875  0.6816  0.6723  0.0634
14115SOL    HW145747   1.758   2.605   0.958 -0.5432 -2.1180  0.1510
14115SOL    HW245748   1.864   2.516   0.897 -1.7411 -2.2723 -1.7948
14116SOL     OW45749   4.794   2.027   6.219  0.2490  0.4130 -0.0268
14116SOL    HW145750   4.770   1.968   6.290 -1.4157  0.6280 -0.3548
14116SOL    HW245751   4.710   2.049   6.177  1.0400  1.4105 -1.1608
14117SOL     OW45752   1.908   9.645   5.103 -0.1068 -0.1529  0.4236
14117SOL    HW145753   1.832   9.594   5.074 -1.2058  0.9187  1.3425
14117SOL    HW245754   1.931   9.607   5.188 -0.3627  0.2915  0.6927
14118SOL     OW45755   8.703   5.108   3.065 -0.3818 -0.0575  0.2339
14118SOL    HW145756   8.720   5.046   3.136 -1.4355  0.2091  0.7355
14118SOL    HW245757   8.650   5.177   3.105  0.6939  1.1441 -0.3303
14119SOL     OW45758   4.845   3.533  10.690 -0.1236 -0.1209 -0.5240
14119SOL    HW145759   4.909   3.567  10.627 -0.7967  1.7042 -0.2803
14119SOL    HW245760   4.762   3.573  10.663 -1.1719 -2.3067 -0.7393
14120SOL     OW45761   4.353   4.522   0.931  0.1326  0.7329 -0.0173
14120SOL    HW145762   4.315   4.600   0.891  0.7951  0.7531 -0.6225
14120SOL    HW245763   4.412   4.555   0.998 -0.7562  0.7056  0.7970
14121SOL     OW45764   8.820   7.143   2.473 -0.2497 -0.2624 -0.0558
14121SOL    HW145765   8.916   7.139   2.467 -0.3455 -2.6281 -1.5806
14121SOL    HW245766   8.796   7.217   2.417  0.6690  0.0490 -0.0607
14122SOL     OW45767   9.304   2.604   5.199  0.3614 -0.0937 -0.4600
14122SOL    HW145768   9.385   2.654   5.206  0.1779  0.2486 -0.7601
14122SOL    HW245769   9.240   2.666   5.162 -0.3474 -0.0067  0.8387
14123SOL     OW45770   4.005   4.297   5.293  0.2472 -0.1304  0.1135
14123SOL    HW145771   4.002   4.298   5.198  0.7291 -0.1497  0.0956
14123SOL    HW245772   3.974   4.210   5.318  1.3148 -0.5827 -0.0782
14124SOL     OW45773   2.499   1.623   1.015  0.0608 -0.0898  0.2573
14124SOL    HW145774   2.559   1.561   0.974 -0.0880 -1.2892  1.7226
14124SOL    HW245775   2.553   1.698   1.039  0.8049 -0.7838  0.7851
14125SOL     OW45776   5.414   3.575   3.361 -0.1617 -0.5571 -0.5404
14125SOL    HW145777   5.353   3.589   3.433  0.2292 -3.9604  0.6363
14125SOL    HW245778   5.484   3.640   3.375  0.5253 -1.8611  2.9730
14126SOL     OW45779   5.463   1.436   2.152 -0.2190 -0.1393  0.5564
14126SOL    HW145780   5.408   1.373   2.104  0.1277  0.4031 -0.6015
14126SOL    HW245781   5.496   1.388   2.227 -2.0624 -0.5664  1.1533
14127SOL     OW45782   8.214   1.463   9.717 -1.1058 -0.0007 -0.1008
14127SOL    HW145783   8.294   1.456   9.770 -0.8310  1.9395 -0.1754
14127SOL    HW245784   8.155   1.399   9.754 -0.3038  0.1112  1.4642
14128SOL     OW45785   7.940  10.412   8.994  0.2857  0.0091 -0.0497
14128SOL    HW145786   7.992  10.418   8.914  0.0665 -1.0544 -0.2831
14128SOL    HW245787   7.886  10.334   8.982 -2.6696  1.9612 -0.5551
14129SOL     OW45788   1.721   3.867   5.495 -0.3942 -0.2419  0.3829
14129SOL    HW145789   1.705   3.832   5.408 -1.2259 -1.6445  1.0719
14129SOL    HW245790   1.731   3.961   5.482  2.1448 -0.6945 -1.5615
14130SOL     OW45791   3.950   9.595   1.884 -0.1829 -0.2748 -0.5111
14130SOL    HW145792   3.893   9.521   1.907  0.1466 -0.2787  0.3556
14130SOL    HW245793   4.013   9.599   1.956 -0.3082  0.9767 -0.4475
14131SOL     OW45794   2.861  10.241   9.876 -0.4268  0.2879 -0.0437
14131SOL    HW145795   2.875  10.332   9.899 -0.2009  0.4699 -0.8728
14131SOL    HW245796   2.948  10.201   9.878 -0.6876 -0.3088  1.8506
14132SOL     OW45797   9.895   5.440   5.724 -0.2197 -0.5817 -0.5345
14132SOL    HW145798   9.957   5.367   5.724  1.2732  0.6074 -1.4435
14132SOL    HW245799   9.832   5.418   5.656  0.0438 -1.1713 -0.5964
14133SOL     OW45800   6.946   0.405   4.909  0.2063  0.2558 -0.0235
14133SOL    HW145801   6.930   0.463   4.983  2.5121 -1.9391  2.4121
14133SOL    HW245802   7.023   0.443   4.866  1.0603 -0.3264  0.9317
14134SOL     OW45803   7.546   1.736   6.101  0.0143  0.2257  0.0125
14134SOL    HW145804   7.635   1.708   6.077  1.8083  2.5136  3.2157
14134SOL    HW245805   7.516   1.669   6.162  1.1590  1.1841  1.7340
14135SOL     OW45806   9.259   1.027   1.557 -0.2864 -0.0606 -0.0688
14135SOL    HW145807   9.171   1.054   1.531 -0.9095 -0.8784  1.0848
14135SOL    HW245808   9.289   1.098   1.614 -0.1115  0.3124 -0.6176
14136SOL     OW45809   1.381   3.805   2.769 -0.1223 -0.1867 -0.5958
14136SOL    HW145810   1.389   3.747   2.844  0.0216  0.2775 -0.2513
14136SOL    HW245811   1.446   3.873   2.784 -0.4794  0.2174 -0.8571
14137SOL     OW45812   9.643   4.898   7.307 -0.1878  0.4849  0.2075
14137SOL    HW145813   9.653   4.804   7.317 -0.7822  0.5290  1.2674
14137SOL    HW245814   9.605   4.928   7.390  2.4705  2.0258  0.9923
14138SOL     OW45815   6.891  10.568   3.653 -0.3710 -0.1189 -0.0628
14138SOL    HW145816   6.914  10.549   3.744 -0.3323 -0.3035 -0.1090
14138SOL    HW245817   6.949  10.512   3.602 -0.3288  0.0541 -0.2037
14139SOL     OW45818   3.610   4.857   6.119 -0.0805  0.0567 -0.4407
14139SOL    HW145819   3.590   4.766   6.097  0.4043  0.0226 -0.7452
14139SOL    HW245820   3.705   4.861   6.122 -0.0975  0.5686 -0.4772
14140SOL     OW45821   7.658   5.015   2.943 -0.7642 -0.3299 -0.4624
14140SOL    HW145822   7.657   5.079   3.014 -0.8939  0.4813 -1.1760
14140SOL    HW245823   7.746   4.977   2.946 -0.7120 -0.1762  0.0241
14141SOL     OW45824   2.402   9.968   7.215  0.2262  0.3184  0.5355
14141SOL    HW145825   2.441   9.883   7.238  0.3474 -0.1152 -1.1384
14141SOL    HW245826   2.468  10.032   7.241  0.5963 -0.1692  0.8347
14142SOL     OW45827   5.450   4.336   3.229 -0.2466 -0.3377  0.4565
14142SOL    HW145828   5.358   4.313   3.217  0.0692 -1.7871  0.7047
14142SOL    HW245829   5.448   4.410   3.290 -1.3666  1.4377 -1.6065
14143SOL     OW45830   1.819   9.535   6.284  1.1517  0.7488 -0.4094
14143SOL    HW145831   1.840   9.529   6.377  1.3666 -0.6148 -0.5174
14143SOL    HW245832   1.873   9.468   6.243 -0.2580  0.0686 -1.2585
14144SOL     OW45833   0.987   0.407   4.613  0.4265  0.1014  0.3455
14144SOL    HW145834   1.062   0.348   4.600 -0.0863 -0.5509  0.2656
14144SOL    HW245835   1.019   0.493   4.588  0.3246 -0.6110 -2.6413
14145SOL     OW45836   4.974   6.200   7.659  0.4834  0.5974 -0.5108
14145SOL    HW145837   4.934   6.207   7.745  0.9132  0.6084 -0.3118
14145SOL    HW245838   4.918   6.138   7.612  0.4528  0.3159 -0.1086
14146SOL     OW45839   5.682   0.595   2.047  0.0199 -0.2756  0.0789
14146SOL    HW145840   5.693   0.650   2.124 -0.5514  0.8458 -0.6234
14146SOL    HW245841   5.733   0.639   1.979 -0.7689 -0.4005 -0.5988
14147SOL     OW45842  10.148   0.572   1.551  0.4442 -0.1088 -0.4810
14147SOL    HW145843  10.181   0.527   1.629 -0.1964 -0.3072 -0.3175
14147SOL    HW245844  10.198   0.534   1.479  0.1362 -0.8636 -0.3112
14148SOL     OW45845  10.119   1.335   8.000  0.0277 -0.0393 -0.5371
14148SOL    HW145846  10.212   1.356   8.011  0.3652 -2.2294  1.7326
14148SOL    HW245847  10.113   1.301   7.910  1.5030 -0.1403 -0.6288
14149SOL     OW45848   4.196   5.882   9.820  0.0470 -0.3315 -0.7722
14149SOL    HW145849   4.145   5.876   9.740  1.1412  1.1804 -1.6243
14149SOL    HW245850   4.265   5.816   9.810 -0.3804 -0.8161 -0.6112
14150SOL     OW45851  10.643   4.691   0.674  0.0877  0.2984  0.0243
14150SOL    HW145852  10.581   4.760   0.649 -0.7363 -0.7419 -0.9264
14150SOL    HW245853  10.716   4.738   0.714  0.1199  1.8325 -1.7004
14151SOL     OW45854   8.840   9.377   0.776 -0.0599  0.1325 -0.1485
14151SOL    HW145855   8.772   9.436   0.743  0.2972  1.2870  1.1149
14151SOL    HW245856   8.795   9.293   0.787 -0.8205  0.4047 -1.0079
14152SOL     OW45857   7.802  10.696   2.317 -0.4775 -0.3724  0.0267
14152SOL    HW145858   7.734  10.727   2.377  2.2109  2.2111  2.0057
14152SOL    HW245859   7.836  10.617   2.357  0.6511  0.8153  1.5066
14153SOL     OW45860   0.589   5.207   7.338 -0.4539 -0.5678 -0.4129
14153SOL    HW145861   0.510   5.199   7.286  0.3902 -0.9866 -1.6696
14153SOL    HW245862   0.639   5.278   7.297 -0.2293 -0.2118  0.4437
14154SOL     OW45863   3.946   9.084   0.805 -0.0790 -0.1290  0.0100
14154SOL    HW145864   4.018   9.136   0.769  0.5176 -0.6804  0.3834
14154SOL    HW245865   3.900   9.049   0.729 -1.1891  1.8390 -0.2875
14155SOL     OW45866   2.646   0.678   3.368  0.3819  0.1277 -0.1606
14155SOL    HW145867   2.590   0.755   3.375  0.2768 -0.0632  1.3198
14155SOL    HW245868   2.686   0.686   3.281 -1.0176  0.8741 -0.7727
14156SOL     OW45869   0.851   0.545   0.252 -0.1751  0.3217 -0.3694
14156SOL    HW145870   0.831   0.528   0.344 -1.1661  0.6595 -0.5050
14156SOL    HW245871   0.766   0.565   0.213  0.2249  0.0760 -1.3826
14157SOL     OW45872   9.681   5.036   1.694  0.4238 -0.0849 -0.1804
14157SOL    HW145873   9.774   5.021   1.711  0.1870  0.5826  2.0764
14157SOL    HW245874   9.663   5.121   1.735 -0.9233  0.3825 -1.6479
14158SOL     OW45875   5.081   6.773   2.350  0.7354  0.5213 -0.4170
14158SOL    HW145876   5.107   6.682   2.335  0.1959  0.3023 -0.0556
14158SOL    HW245877   5.016   6.768   2.420 -0.8795  0.9673 -1.8218
14159SOL     OW45878   0.250   5.466  10.647 -0.0898 -0.1951 -0.4738
14159SOL    HW145879   0.333   5.505  10.674 -0.6365  0.5525  0.1633
14159SOL    HW245880   0.236   5.394  10.709  0.3729 -0.7167 -0.9627
14160SOL     OW45881   9.609   1.213   9.615  0.3604 -0.4033 -0.5537
14160SOL    HW145882   9.597   1.305   9.595 -0.9850 -0.8343 -1.8967
14160SOL    HW245883   9.551   1.196   9.689 -1.3980 -0.7003 -1.9429
14161SOL     OW45884   1.353  10.682   2.776  0.0681 -0.2664  0.5593
14161SOL    HW145885   1.446  10.664   2.759 -0.0943 -1.0267  0.4495
14161SOL    HW245886   1.352  10.721   2.863  0.3696 -1.4514  1.1040
14162SOL     OW45887   4.568   5.761   1.400 -0.1918 -0.1231  0.1838
14162SOL    HW145888   4.489   5.807   1.428  0.7958  2.0778 -0.4790
14162SOL    HW245889   4.542   5.669   1.397 -2.5300  0.4652  0.6150
14163SOL     OW45890   9.704   1.548   9.350  0.0218 -0.2964  0.5013
14163SOL    HW145891   9.780   1.491   9.356  0.2383 -0.2372 -1.2103
14163SOL    HW245892   9.654   1.530   9.430  0.6587 -2.0351  0.5544
14164SOL     OW45893   0.663   0.110   6.848  0.0199 -0.0519 -0.6585
14164SOL    HW145894   0.685   0.195   6.887  0.1845 -0.3398 -0.1121
14164SOL    HW245895   0.643   0.130   6.757 -0.8008  0.6968 -0.3262
14165SOL     OW45896   8.577   0.599   9.119 -0.0632 -0.6066 -0.4573
14165SOL    HW145897   8.608   0.521   9.074  0.0525  0.0277 -1.4835
14165SOL    HW245898   8.511   0.565   9.181  0.9696 -1.6714  0.1042
14166SOL     OW45899   3.228   9.498   2.203  0.1220 -0.4867 -0.5528
14166SOL    HW145900   3.182   9.415   2.194 -0.7752 -0.2186  1.1002
14166SOL    HW245901   3.279   9.488   2.284 -0.9606  0.9573  0.3677
14167SOL     OW45902   6.677   7.283   2.028 -0.4337 -0.0395 -0.3690
14167SOL    HW145903   6.735   7.335   1.972  0.9006 -1.2404 -0.1510
14167SOL    HW245904   6.669   7.199   1.982 -3.5795  0.6768 -1.3778
14168SOL     OW45905   9.467   3.774   6.681  0.1747 -0.2829  0.1261
14168SOL    HW145906   9.425   3.797   6.598  1.2209 -0.4430 -0.4720
14168SOL    HW245907   9.424   3.829   6.746 -2.2404 -1.7264 -0.1260
14169SOL     OW45908   0.077   3.824   6.092 -0.2740 -0.1464 -0.0066
14169SOL    HW145909   0.011   3.755   6.093  0.0396 -0.4490  0.2133
14169SOL    HW245910   0.039   3.893   6.039 -1.2775  0.1971  1.1268
14170SOL     OW45911   7.500   0.119   1.966 -0.1204 -0.0350 -0.1041
14170SOL    HW145912   7.562   0.151   1.900 -0.0004 -1.2774 -0.6146
14170SOL    HW245913   7.414   0.139   1.929 -0.0455  0.6558  0.0799
14171SOL     OW45914  10.541   8.674   1.318 -0.5166 -0.3719  0.0585
14171SOL    HW145915  10.462   8.692   1.268 -0.3975 -0.3774 -0.1303
14171SOL    HW245916  10.557   8.755   1.367 -0.8911 -0.5256  0.4437
14172SOL     OW45917   5.574   4.490   8.831  0.1312  0.8319 -0.0978
14172SOL    HW145918   5.547   4.441   8.908  3.0220  0.3277  0.7010
14172SOL    HW245919   5.499   4.486   8.772 -1.3840 -0.5687  1.8253
14173SOL     OW45920   0.799   5.785   2.570 -0.0143  0.6408  0.5970
14173SOL    HW145921   0.873   5.832   2.532 -0.7060  0.4776 -1.0467
14173SOL    HW245922   0.834   5.700   2.596  0.4152  0.6243 -0.0301
14174SOL     OW45923   2.770   9.131   8.005  0.0334 -0.3220  0.2071
14174SOL    HW145924   2.836   9.194   7.976 -0.4627 -0.7615 -2.0646
14174SOL    HW245925   2.812   9.046   7.993  0.6445 -0.5421  3.1055
14175SOL     OW45926   0.532   7.388   8.425 -0.0696  0.2417  0.5142
14175SOL    HW145927   0.611   7.433   8.457  0.7434  0.1136 -1.1835
14175SOL    HW245928   0.527   7.308   8.477  1.0252  0.1871  0.5578
14176SOL     OW45929   7.438   7.729   4.204 -0.1261  0.1454 -0.4453
14176SOL    HW145930   7.528   7.725   4.173  0.6054  1.0442  1.3999
14176SOL    HW245931   7.399   7.802   4.157  0.2015 -0.0511 -1.0261
14177SOL     OW45932   9.826  10.851   4.907 -0.1724  0.9306  0.1158
14177SOL    HW145933   9.856  10.940   4.887 -0.0479  0.9374  0.3348
14177SOL    HW245934   9.817  10.850   5.002  2.0467 -0.0003  0.3644
14178SOL     OW45935   1.147   4.643   3.104 -0.0047 -0.4060  0.2006
14178SOL    HW145936   1.125   4.704   3.174  1.5442  0.0110  0.3600
14178SOL    HW245937   1.074   4.581   3.102  0.0409 -0.6101  2.4006
14179SOL     OW45938   0.496   2.973   7.907 -0.4142  0.4999  0.9346
14179SOL    HW145939   0.403   2.976   7.927 -0.7493  1.7416 -0.5941
14179SOL    HW245940   0.538   2.944   7.989 -2.1562 -0.5242  1.4995
14180SOL     OW45941   3.156   4.491   6.502  0.2162  0.0380  0.8174
14180SOL    HW145942   3.061   4.485   6.511  0.1679 -0.7730 -0.2033
14180SOL    HW245943   3.177   4.578   6.536 -0.7320 -0.2410  2.2249
14181SOL     OW45944   9.486  10.323  10.411  0.0392 -0.3379 -0.1625
14181SOL    HW145945   9.512  10.315  10.503 -1.2223  1.1465  0.3699
14181SOL    HW245946   9.411  10.383  10.413  1.2668  1.3913 -2.3802
14182SOL     OW45947   2.803  10.025   8.568  0.1195 -0.5145 -0.6281
14182SOL    HW145948   2.729   9.975   8.601  0.2155 -0.2583  0.0020
14182SOL    HW245949   2.838  10.070   8.645 -0.7115  1.5037 -1.3520
14183SOL     OW45950   8.799   3.792  10.847 -0.0132 -0.4284  0.8073
14183SOL    HW145951   8.868   3.728  10.830  0.1429 -0.4199  1.3711
14183SOL    HW245952   8.740   3.746  10.907  1.1933  0.6401  2.9319
14184SOL     OW45953   6.266   1.709   8.665 -0.6762 -0.3661  0.0025
14184SOL    HW145954   6.320   1.633   8.641  0.4982  0.2372  0.6432
14184SOL    HW245955   6.272   1.767   8.589  0.6947  0.2805  0.5743
14185SOL     OW45956   5.369  10.052   2.378  0.5647  0.4630  0.5158
14185SOL    HW145957   5.453  10.077   2.418  1.2594  0.7674 -1.0491
14185SOL    HW245958   5.330  10.134   2.350  0.8088  0.1699 -0.7549
14186SOL     OW45959   5.358   6.614   1.570  0.6155  0.2286  0.5825
14186SOL    HW145960   5.425   6.545   1.566  1.3385  0.9400  0.3163
14186SOL    HW245961   5.363   6.657   1.485 -0.0923  0.3817  0.6155
14187SOL     OW45962   4.562   3.644  10.306 -0.2931 -0.3284 -0.5159
14187SOL    HW145963   4.566   3.567  10.249  1.1021  0.5276 -1.6389
14187SOL    HW245964   4.643   3.691  10.288 -0.4870  0.7138  1.1613
14188SOL     OW45965   0.836   3.420   8.725  0.0112 -0.2465 -0.1453
14188SOL    HW145966   0.876   3.387   8.805 -1.3733 -1.1533  0.2070
14188SOL    HW245967   0.859   3.513   8.723  0.4473 -0.3132  1.0537
14189SOL     OW45968   3.985   9.544   5.609  0.1362  0.0824 -0.1160
14189SOL    HW145969   3.932   9.469   5.583  0.5460 -0.0697 -0.5088
14189SOL    HW245970   4.054   9.549   5.544  1.2573 -0.3789  0.9991
14190SOL     OW45971   8.270   4.686   3.278  0.2005 -0.2864  0.2958
14190SOL    HW145972   8.244   4.752   3.213  1.2672  0.7924  0.9366
14190SOL    HW245973   8.269   4.604   3.229  2.7097  0.7003 -1.6758
14191SOL     OW45974  10.818   8.788   6.044 -0.0005  0.3071 -0.7350
14191SOL    HW145975  10.745   8.811   6.102 -0.3029 -2.3023  0.0656
14191SOL    HW245976  10.777   8.778   5.957 -0.2244  0.7689 -0.6836
14192SOL     OW45977   3.433   2.912   1.926  0.6965  0.2385 -0.7179
14192SOL    HW145978   3.409   2.852   1.855  1.5022 -0.3533 -0.5057
14192SOL    HW245979   3.524   2.936   1.908  0.7479  0.4859 -0.1618
14193SOL     OW45980   5.627  10.630  10.377 -0.6366 -0.1009  0.6298
14193SOL    HW145981   5.704  10.632  10.320 -0.8587 -0.3640  0.3193
14193SOL    HW245982   5.661  10.652  10.464  0.0232 -1.4958  0.7576
14194SOL     OW45983  10.245   1.576   5.201 -0.0113 -0.0705 -0.2828
14194SOL    HW145984  10.258   1.664   5.166 -1.7339  0.4844  0.3310
14194SOL    HW245985  10.251   1.518   5.125  1.6714  0.4882 -0.6143
14195SOL     OW45986   6.081   0.579   3.091  0.3205  0.5632 -0.4179
14195SOL    HW145987   6.085   0.675   3.093 -1.5959  0.6805  1.9808
14195SOL    HW245988   5.988   0.559   3.090  0.6924 -1.2829 -0.4028
14196SOL     OW45989  10.294   1.826   3.163 -0.3277 -0.3332 -0.9007
14196SOL    HW145990  10.326   1.873   3.086 -0.7810  2.8170  0.6976
14196SOL    HW245991  10.207   1.861   3.179 -0.2553 -0.9063  1.0476
14197SOL     OW45992   0.900  10.871  10.907  0.7126 -0.2820 -0.2349
14197SOL    HW145993   0.893  10.867  11.002 -1.4759  2.6961 -0.1305
14197SOL    HW245994   0.991  10.895  10.890  1.4331 -1.9923  0.9750
14198SOL     OW45995   5.320   0.377   2.594  0.5996 -0.2560 -0.2520
14198SOL    HW145996   5.391   0.377   2.657  1.1684  1.9864 -0.7893
14198SOL    HW245997   5.359   0.412   2.514 -1.3143  2.2913 -0.2111
14199SOL     OW45998   4.380   3.026   0.146  0.3003  0.0544  0.3530
14199SOL    HW145999   4.313   3.092   0.131  0.5975  0.0214 -1.3020
14199SOL    HW246000   4.423   3.015   0.061 -0.1575 -2.7483  0.3864
14200SOL     OW46001   4.303   6.649   6.725 -0.3768  0.6655  0.1376
14200SOL    HW146002   4.302   6.557   6.754 -1.5767  0.4933 -0.3907
14200SOL    HW246003   4.233   6.690   6.776 -1.2745  0.7846 -1.1359
14201SOL     OW46004   3.471   8.287   0.568 -0.1381  0.2099 -0.0428
14201SOL    HW146005   3.471   8.270   0.474 -0.4013  1.4355 -0.2829
14201SOL    HW246006   3.389   8.249   0.600 -0.9631  1.4381 -0.6462
14202SOL     OW46007   1.733   4.601   9.625  0.1532 -0.1757  0.2046
14202SOL    HW146008   1.772   4.566   9.545  1.3428 -1.3969  1.2688
14202SOL    HW246009   1.741   4.530   9.689 -1.8967  0.3306  1.0837
14203SOL     OW46010   1.900   4.491   1.142  0.0902  0.6603  0.6248
14203SOL    HW146011   1.854   4.455   1.066 -2.6269 -1.7362  3.1548
14203SOL    HW246012   1.831   4.520   1.200  1.7579 -1.2250  3.8294
14204SOL     OW46013  10.001   2.639   0.353  0.3157 -0.0651  0.0532
14204SOL    HW146014  10.049   2.720   0.365  1.6178 -0.9347  1.0770
14204SOL    HW246015  10.056   2.587   0.293  0.0629 -0.6059  0.2805
14205SOL     OW46016   6.687   6.301   9.592 -1.2145 -0.4072  0.1119
14205SOL    HW146017   6.644   6.345   9.519 -2.1630 -0.8759  0.3617
14205SOL    HW246018   6.657   6.210   9.587 -0.8358 -0.5805  0.7414
14206SOL     OW46019   2.651   6.654  10.764 -0.0639  0.4002  0.9324
14206SOL    HW146020   2.665   6.561  10.784  0.1611 -0.1453 -1.4146
14206SOL    HW246021   2.556   6.664  10.765 -0.2084 -0.4039 -0.7560
14207SOL     OW46022   3.362   3.331   0.799 -0.7870  0.0165  0.5300
14207SOL    HW146023   3.434   3.273   0.773 -0.6494 -0.6704  2.3202
14207SOL    HW246024   3.311   3.343   0.718  1.2337  0.4410 -0.7658
14208SOL     OW46025   4.223   2.587   0.554  0.0208  0.1384  0.2149
14208SOL    HW146026   4.160   2.531   0.599 -1.9723  2.8645  1.0999
14208SOL    HW246027   4.216   2.561   0.462  1.8193 -3.3540  0.8791
14209SOL     OW46028   9.786   0.297   1.182  0.3218 -0.1661  0.1802
14209SOL    HW146029   9.715   0.329   1.238  0.7995 -0.4682  0.9637
14209SOL    HW246030   9.762   0.327   1.094 -1.7873 -1.9055  0.0793
14210SOL     OW46031  10.085   1.725   2.135 -0.1477  0.4960  0.6389
14210SOL    HW146032  10.120   1.746   2.221 -2.7886  1.7775  1.4974
14210SOL    HW246033  10.009   1.781   2.125 -0.7326 -0.5968 -1.9832
14211SOL     OW46034   1.460   9.839   3.110  0.0429 -0.5480 -0.8816
14211SOL    HW146035   1.436   9.911   3.052 -0.9608  0.1263  0.3450
14211SOL    HW246036   1.385   9.827   3.167  1.2672 -0.7130  0.7689
14212SOL     OW46037   1.349   4.924   0.287 -0.4687 -0.3513  0.0848
14212SOL    HW146038   1.402   4.934   0.366 -0.4466  0.1640  0.0028
14212SOL    HW246039   1.282   4.859   0.312  0.0085 -0.7751  0.2797
14213SOL     OW46040   0.839   4.168   8.243  0.6454 -0.2817 -0.3293
14213SOL    HW146041   0.891   4.089   8.229  1.7943  0.5549 -0.9198
14213SOL    HW246042   0.861   4.196   8.332  0.4711 -0.4651 -0.2296
14214SOL     OW46043   3.602   5.376   5.287  0.1586  0.1605  0.0429
14214SOL    HW146044   3.664   5.305   5.306 -1.1246 -0.9312  0.3236
14214SOL    HW246045   3.636   5.451   5.335  1.3975 -0.3344 -0.0263
14215SOL     OW46046   1.592   6.214   8.239 -0.1199 -0.4308 -0.1618
14215SOL    HW146047   1.586   6.225   8.334 -0.9445  0.9595 -0.3444
14215SOL    HW246048   1.680   6.243   8.217  0.3632 -1.5175  0.2427
14216SOL     OW46049  10.698   6.772   2.419 -0.1129  0.1482  0.2209
14216SOL    HW146050  10.711   6.733   2.505  1.3077 -1.2022 -0.5479
14216SOL    HW246051  10.751   6.852   2.420 -1.5083  1.0964  1.1621
14217SOL     OW46052   5.035   6.095   4.159  0.0875  0.9127 -0.1736
14217SOL    HW146053   5.116   6.053   4.133  0.2126  1.8184 -1.3657
14217SOL    HW246054   5.038   6.182   4.118 -0.8321  1.5146  0.9432
14218SOL     OW46055   4.597   2.744   7.529 -0.0802 -0.3572  0.2297
14218SOL    HW146056   4.645   2.778   7.454 -0.6998  1.3745  0.5652
14218SOL    HW246057   4.504   2.759   7.507 -0.3904 -1.8917  0.3991
14219SOL     OW46058   7.903   1.241   2.374 -0.4659 -0.3888  0.6516
14219SOL    HW146059   7.956   1.166   2.347 -0.9580 -0.3855 -0.3723
14219SOL    HW246060   7.818   1.226   2.333 -0.7660  0.4215  0.9581
14220SOL     OW46061   0.475   6.060   6.537  0.5448  0.7112 -0.2148
14220SOL    HW146062   0.514   6.018   6.460  1.8016  0.6938  0.4082
14220SOL    HW246063   0.547   6.070   6.599 -0.3025  1.3260  0.7194
14221SOL     OW46064   5.116   0.314   2.965 -0.4510  0.2725  0.2312
14221SOL    HW146065   5.207   0.342   2.962 -0.1373 -0.6767  0.4428
14221SOL    HW246066   5.118   0.233   3.016 -1.2503 -0.3586 -0.7091
14222SOL     OW46067   3.926   7.882   4.121  0.1669  0.1202  0.2461
14222SOL    HW146068   3.894   7.823   4.189 -0.3329 -0.0618 -0.1429
14222SOL    HW246069   4.022   7.876   4.128  0.1226 -0.6847  0.2505
14223SOL     OW46070   1.743   6.567   3.149  0.5591 -0.0522  0.3261
14223SOL    HW146071   1.738   6.571   3.244  2.7459 -0.3623  0.5106
14223SOL    HW246072   1.689   6.491   3.125 -0.7247  0.5455  1.2053
14224SOL     OW46073   1.221   8.587   5.207  0.0509 -0.0330 -0.2950
14224SOL    HW146074   1.175   8.546   5.133  0.5959 -0.1535 -0.5676
14224SOL    HW246075   1.192   8.537   5.284 -0.8078  0.3266 -0.3678
14225SOL     OW46076   0.452   1.023   3.689 -0.0890  0.6700 -0.0269
14225SOL    HW146077   0.363   0.991   3.702  0.2087  0.2492  1.1229
14225SOL    HW246078   0.445   1.118   3.695 -0.2755  0.5952  1.5418
14226SOL     OW46079   2.903   2.349   5.663 -0.0171  0.0114  0.1301
14226SOL    HW146080   2.909   2.321   5.754 -3.5444 -2.3876 -0.1406
14226SOL    HW246081   2.853   2.431   5.666  1.7781  1.1393  0.3947
14227SOL     OW46082  10.531   9.910   4.574  0.3337 -0.0303  0.2853
14227SOL    HW146083  10.548   9.860   4.493  0.3685  0.2817  0.0989
14227SOL    HW246084  10.614   9.952   4.594  0.3481 -0.1766  0.5362
14228SOL     OW46085   9.707   2.046   1.342  0.6356 -0.2000  0.1560
14228SOL    HW146086   9.620   2.023   1.309 -0.6601 -2.5079  4.5340
14228SOL    HW246087   9.766   1.987   1.295 -0.2648  0.3447 -1.7838
14229SOL     OW46088   0.072   5.105   5.336 -1.0686  0.5656 -0.3644
14229SOL    HW146089   0.079   5.086   5.429  2.3308  0.6884 -0.4547
14229SOL    HW246090  -0.000   5.167   5.328 -2.3871 -0.5749  1.9468
14230SOL     OW46091   8.376   0.605   9.341 -0.0490  0.7199 -0.2508
14230SOL    HW146092   8.282   0.614   9.359 -0.2460 -1.2298 -0.0555
14230SOL    HW246093   8.418   0.614   9.427 -0.2589 -0.3949 -0.0157
14231SOL     OW46094   4.511  10.658  10.178 -0.5133 -0.4028  0.4059
14231SOL    HW146095   4.535  10.613  10.098  2.1609  1.9024 -0.2254
14231SOL    HW246096   4.534  10.596  10.248  0.5132 -1.0729 -0.4956
14232SOL     OW46097   8.248   8.361   3.842  0.1326  0.4049  0.2349
14232SOL    HW146098   8.257   8.269   3.819  0.1671  0.1853  1.0981
14232SOL    HW246099   8.153   8.378   3.839  0.1839  0.5844 -0.7935
14233SOL     OW46100   3.638   9.030   3.938 -0.2432  0.1473 -0.3073
14233SOL    HW146101   3.627   9.039   3.844  1.0027 -0.4172 -0.5190
14233SOL    HW246102   3.551   9.047   3.974 -1.1347 -1.3519 -1.6779
14234SOL     OW46103   0.630   1.999   0.108 -0.1988 -0.1469  0.3262
14234SOL    HW146104   0.591   2.066   0.164  0.8639  1.1946 -0.4725
14234SOL    HW246105   0.707   2.042   0.071 -1.0927 -0.8008 -2.5237
14235SOL     OW46106   6.482   1.908   2.416 -0.1233  0.4289 -0.1950
14235SOL    HW146107   6.478   1.852   2.494 -0.3680 -1.0647 -1.2325
14235SOL    HW246108   6.410   1.970   2.427 -0.8828 -0.5053  0.2322
14236SOL     OW46109   9.146   5.206   4.607  0.4075  0.1913 -0.3635
14236SOL    HW146110   9.168   5.287   4.653 -0.6052  0.0299  0.4423
14236SOL    HW246111   9.148   5.230   4.514 -2.1186  1.7954 -0.1018
14237SOL     OW46112   3.201   0.301   1.026 -0.1641  0.0430  0.0945
14237SOL    HW146113   3.256   0.224   1.008  0.7991  0.2374  1.8769
14237SOL    HW246114   3.260   0.375   1.017 -0.8214  0.4951 -0.5674
14238SOL     OW46115  10.223   0.922   8.660 -0.5385  0.5127  0.1836
14238SOL    HW146116  10.155   0.919   8.593  0.0281  1.2399 -0.4354
14238SOL    HW246117  10.237   1.015   8.677  1.2330  0.4359 -0.6857
14239SOL     OW46118   5.239  10.560   1.964  0.0411  0.1352  0.4944
14239SOL    HW146119   5.248  10.548   1.870 -1.9801  1.2996  0.0838
14239SOL    HW246120   5.185  10.486   1.993  0.2987  0.0118  0.6618
14240SOL     OW46121   2.714   2.984   1.887  0.2931  0.4891 -0.8643
14240SOL    HW146122   2.639   3.027   1.846 -0.3078 -0.1174 -0.4274
14240SOL    HW246123   2.731   2.907   1.832  0.8089  0.7948 -1.1445
14241SOL     OW46124   9.285  10.814   2.480  0.0125  0.0052 -0.2989
14241SOL    HW146125   9.331  10.740   2.440 -0.7994 -0.4513 -0.4098
14241SOL    HW246126   9.339  10.838   2.555  0.0347 -1.0073  0.0207
14242SOL     OW46127   3.821  10.233   2.973  0.1169 -0.3788 -0.0586
14242SOL    HW146128   3.828  10.146   2.935 -3.4836 -1.1613  0.7358
14242SOL    HW246129   3.831  10.293   2.899  0.6442 -1.5272 -0.9465
14243SOL     OW46130   1.683   0.885   9.292 -0.1248  0.2670 -0.3272
14243SOL    HW146131   1.715   0.973   9.313 -1.3384  0.6853 -0.1877
14243SOL    HW246132   1.620   0.898   9.221  1.6939 -0.8014 -2.2502
14244SOL     OW46133   0.816   4.171   9.573  0.0659  0.0906  0.0120
14244SOL    HW146134   0.847   4.147   9.660  0.0567 -0.2458 -0.0757
14244SOL    HW246135   0.890   4.151   9.515 -0.0045  0.1069 -0.0840
14245SOL     OW46136   9.958   3.509   6.660 -0.0884  0.2228  0.6420
14245SOL    HW146137  10.044   3.525   6.622  0.0201  1.9293  1.4903
14245SOL    HW246138   9.902   3.489   6.585  1.3043 -2.4263  0.2096
14246SOL     OW46139   0.928   1.197  10.789 -0.6078 -0.1957 -0.0888
14246SOL    HW146140   0.863   1.162  10.850 -0.6243  0.0091  0.0137
14246SOL    HW246141   0.938   1.289  10.815 -1.2750  0.1360 -0.9411
14247SOL     OW46142   4.063   7.316   6.869  0.6864 -0.3061  0.1584
14247SOL    HW146143   4.116   7.352   6.941  0.5515 -0.2915  0.2496
14247SOL    HW246144   4.091   7.365   6.792  2.4598 -1.7881 -0.2481
14248SOL     OW46145   5.526   6.993   3.050 -0.5270 -0.3446  0.6629
14248SOL    HW146146   5.507   6.899   3.052  0.2095 -0.4873  1.2195
14248SOL    HW246147   5.439   7.034   3.050 -0.9094 -1.0189 -1.7242
14249SOL     OW46148   6.572   6.382   3.924  0.6509 -0.1788 -0.5671
14249SOL    HW146149   6.615   6.447   3.869 -0.0248 -0.1705 -1.0906
14249SOL    HW246150   6.639   6.315   3.938  1.0477  0.1624 -0.8110
14250SOL     OW46151   7.469   5.945   5.322 -0.0867 -0.4087 -0.1602
14250SOL    HW146152   7.497   5.860   5.288  0.2614 -0.5424  0.4398
14250SOL    HW246153   7.551   5.991   5.342 -0.2621 -0.7498  1.4891
14251SOL     OW46154   1.819   4.850   2.742  0.0108  0.5029  0.5838
14251SOL    HW146155   1.823   4.770   2.795  0.7886 -0.0321 -0.2566
14251SOL    HW246156   1.795   4.919   2.805 -0.0412 -0.2733  1.4433
14252SOL     OW46157   7.162  10.208   7.679 -0.0262  1.0426  0.9054
14252SOL    HW146158   7.097  10.141   7.699 -0.3750  1.1761  0.2613
14252SOL    HW246159   7.110  10.287   7.663  0.1490  0.8362 -1.0170
14253SOL     OW46160   0.060   8.431   7.427  0.5526 -0.3685  0.5213
14253SOL    HW146161   0.040   8.418   7.520 -0.7472  0.6682  0.4028
14253SOL    HW246162   0.114   8.355   7.404  0.8917 -0.6497  2.1089
14254SOL     OW46163   5.663  10.278  10.409 -0.0993 -0.5255  0.4560
14254SOL    HW146164   5.750  10.238  10.399  0.2375  0.6689 -2.5030
14254SOL    HW246165   5.660  10.346  10.342 -3.3609 -0.5336  0.4228
14255SOL     OW46166   6.508   7.536   3.180  0.6883 -0.4341 -0.2670
14255SOL    HW146167   6.459   7.470   3.229  0.6260 -0.9690 -1.0330
14255SOL    HW246168   6.560   7.581   3.246 -2.6355  1.8730  1.0297
14256SOL     OW46169   3.334  10.841   5.950  0.7427 -0.4805 -0.2259
14256SOL    HW146170   3.345  10.936   5.946  2.8868 -0.6880 -0.3971
14256SOL    HW246171   3.257  10.828   6.006  0.2035  1.3493 -0.4866
14257SOL     OW46172  10.791   8.869   4.191 -0.2709 -0.4490 -0.5555
14257SOL    HW146173  10.789   8.917   4.109  2.1407 -0.4377 -0.6912
14257SOL    HW246174  10.707   8.822   4.195 -1.3020  1.1833 -1.9680
14258SOL     OW46175   9.485   1.827   6.911  0.0557 -0.2134 -0.2181
14258SOL    HW146176   9.527   1.901   6.867 -0.7804  0.5464  0.2390
14258SOL    HW246177   9.399   1.820   6.869  0.4298 -1.4562 -0.8232
14259SOL     OW46178   2.387   5.956  10.849  0.5042 -0.3670 -0.4548
14259SOL    HW146179   2.335   5.894  10.901 -0.9940  0.9634 -0.2739
14259SOL    HW246180   2.341   5.961  10.766 -0.5061  1.8387  0.1731
14260SOL     OW46181  10.823   1.454   9.124  0.1239  0.0405  0.0047
14260SOL    HW146182  10.874   1.413   9.195  1.2369  0.3791 -0.5679
14260SOL    HW246183  10.802   1.541   9.156 -1.0898 -0.4790  0.6893
14261SOL     OW46184   1.128   8.835   4.173 -0.7758  0.6152 -0.4072
14261SOL    HW146185   1.034   8.847   4.184 -0.3009  1.9197  4.5809
14261SOL    HW246186   1.165   8.923   4.184  1.0982 -0.3358  1.9465
14262SOL     OW46187   6.930   1.071   4.300 -0.1769 -0.1493 -0.3704
14262SOL    HW146188   6.841   1.089   4.270  0.5005  1.1098 -1.7520
14262SOL    HW246189   6.963   1.156   4.330  0.8097 -0.4470 -0.5787
14263SOL     OW46190   0.145   7.220   9.824 -0.1463  0.3496  0.3226
14263SOL    HW146191   0.055   7.244   9.800  0.1679 -0.7775 -2.3398
14263SOL    HW246192   0.189   7.304   9.839 -0.7580  1.1660 -2.0036
14264SOL     OW46193   6.891   1.814   1.910  0.1971 -0.0229  0.3655
14264SOL    HW146194   6.891   1.887   1.971 -0.0615  1.2309 -1.0786
14264SOL    HW246195   6.800   1.784   1.908  0.0536  0.4310  0.0266
14265SOL     OW46196   4.403   1.947   1.854  0.0607  0.7009 -0.5986
14265SOL    HW146197   4.364   1.860   1.858  0.4313  0.4895 -1.3432
14265SOL    HW246198   4.419   1.971   1.945  0.0596 -0.0509 -0.3933
14266SOL     OW46199   4.648   2.270  10.175 -0.0584 -0.0228 -0.5312
14266SOL    HW146200   4.677   2.308  10.258  0.7878 -1.1079 -0.3044
14266SOL    HW246201   4.726   2.270  10.120 -0.6990  1.0263 -1.4800
14267SOL     OW46202   2.912   0.104   6.644  0.0882  0.2859 -0.2468
14267SOL    HW146203   2.937   0.138   6.730 -0.8787 -1.0994  0.6202
14267SOL    HW246204   2.948   0.167   6.582  2.2472  0.4682  1.0881
14268SOL     OW46205  10.345   8.616   7.353  0.7195 -0.1908 -0.2932
14268SOL    HW146206  10.368   8.676   7.282  1.5449  0.0717  0.1793
14268SOL    HW246207  10.344   8.530   7.312  0.5793  0.0256 -0.7523
14269SOL     OW46208   8.607   6.624   0.201  0.3515 -0.0587  0.6979
14269SOL    HW146209   8.630   6.633   0.294  2.1362 -0.3177  0.3185
14269SOL    HW246210   8.690   6.634   0.155 -0.0180 -2.6273 -0.6953
14270SOL     OW46211   0.772   3.804   1.033 -0.3245 -0.3099  0.2253
14270SOL    HW146212   0.820   3.744   1.089  0.2567  0.0191  0.0896
14270SOL    HW246213   0.839   3.840   0.974 -0.6506  0.5200  0.3538
14271SOL     OW46214   3.080   0.317   3.610 -0.4915 -0.0717 -0.0735
14271SOL    HW146215   3.061   0.349   3.698 -1.4665 -0.7727 -0.0098
14271SOL    HW246216   3.171   0.291   3.612 -0.4848  0.0061  0.7022
14272SOL     OW46217   9.621   0.084   0.372 -0.7177  0.1531 -0.2273
14272SOL    HW146218   9.637   0.123   0.458 -0.1614  2.3237 -1.2491
14272SOL    HW246219   9.652   0.150   0.309 -0.2837 -1.7240 -2.1023
14273SOL     OW46220   9.399  10.192   4.993 -0.6140  0.3630 -0.0337
14273SOL    HW146221   9.410  10.209   4.899 -0.7045 -0.6277 -0.2313
14273SOL    HW246222   9.416  10.277   5.034 -1.8121  1.1260 -1.0246
14274SOL     OW46223   5.965  10.328   2.411 -0.1517 -0.1562 -0.0783
14274SOL    HW146224   5.914  10.358   2.487  1.7586  3.1667  0.1002
14274SOL    HW246225   6.042  10.385   2.410  0.7871 -1.2352 -3.5319
14275SOL     OW46226   4.513   7.922   2.709 -0.1265  0.0841 -0.5743
14275SOL    HW146227   4.545   7.916   2.619  2.5630 -1.3101  0.3395
14275SOL    HW246228   4.457   8.000   2.710 -0.2598  0.1112 -3.4277
14276SOL     OW46229   9.039   3.367   3.631  0.0826 -0.2663  0.1534
14276SOL    HW146230   8.958   3.323   3.604 -0.4655  0.2384  0.9380
14276SOL    HW246231   9.010   3.452   3.663  0.9125 -0.1408  0.5924
14277SOL     OW46232   3.421   9.532   3.200 -0.0710 -0.1130 -0.0215
14277SOL    HW146233   3.476   9.461   3.234 -1.9631 -1.4201  0.4606
14277SOL    HW246234   3.482   9.589   3.154  1.8182 -1.0317  1.1909
14278SOL     OW46235   6.491   1.605   7.661 -0.0539  0.1656  0.1368
14278SOL    HW146236   6.585   1.611   7.642  0.4155  0.4108  2.2624
14278SOL    HW246237   6.481   1.518   7.700 -0.3012  0.8728  1.7308
14279SOL     OW46238   3.437   3.717   7.847  0.6532 -0.5181  0.3365
14279SOL    HW146239   3.507   3.678   7.795  0.4328  0.9544 -1.1460
14279SOL    HW246240   3.424   3.804   7.809 -1.3171 -0.3791  1.1858
14280SOL     OW46241   0.225   5.029   4.787  0.7768 -0.0439  0.7861
14280SOL    HW146242   0.272   5.085   4.726  0.0886  0.6342  0.8670
14280SOL    HW246243   0.293   4.973   4.825  1.3411  0.1240  0.0587
14281SOL     OW46244   0.007   2.151   4.449  0.0552 -0.3514  0.2283
14281SOL    HW146245  -0.076   2.177   4.490 -0.2194  0.8358 -1.0111
14281SOL    HW246246   0.072   2.212   4.486 -0.3214  1.2217 -1.5450
14282SOL     OW46247   0.749   2.199   5.601  0.1508 -0.5622  0.2452
14282SOL    HW146248   0.687   2.154   5.544 -0.1459  0.8467 -0.5913
14282SOL    HW246249   0.808   2.245   5.541 -1.1585  2.3052  0.9734
14283SOL     OW46250   0.802   3.767   1.458 -0.0040 -0.1195  0.0006
14283SOL    HW146251   0.817   3.857   1.429 -1.4623  0.4589  0.9092
14283SOL    HW246252   0.889   3.728   1.463  0.5877  0.9553 -1.2678
14284SOL     OW46253   7.682   5.995   3.011 -0.5810 -0.3587  0.2928
14284SOL    HW146254   7.674   6.063   2.944  0.2531 -1.1075 -0.5995
14284SOL    HW246255   7.652   5.915   2.968 -1.4967 -0.5942  1.3131
14285SOL     OW46256   6.219   0.601   6.569  0.2436  0.1840 -0.6377
14285SOL    HW146257   6.194   0.517   6.608  0.4727 -0.0418 -0.9766
14285SOL    HW246258   6.296   0.629   6.619 -0.6756  0.9053  0.4435
14286SOL     OW46259   5.254   8.351   5.285 -0.4269  0.0213 -0.0855
14286SOL    HW146260   5.229   8.441   5.261  0.9305  0.5379  0.3818
14286SOL    HW246261   5.270   8.355   5.379  0.2404 -0.5807 -0.1704
14287SOL     OW46262   5.175   2.551   2.932  0.4207  1.2617 -0.1795
14287SOL    HW146263   5.088   2.579   2.903  0.6283  1.9059 -0.1913
14287SOL    HW246264   5.235   2.587   2.867  0.6512  0.2635 -0.5424
14288SOL     OW46265   5.242  10.406   0.126 -0.6081  0.1673  0.2698
14288SOL    HW146266   5.149  10.398   0.105 -0.6612 -0.3520  0.6890
14288SOL    HW246267   5.284  10.336   0.077 -0.8077 -1.4679  2.3208
14289SOL     OW46268  10.622   7.204   7.263  0.1960  0.3525 -0.2270
14289SOL    HW146269  10.597   7.210   7.355  1.2022 -0.8948  0.1473
14289SOL    HW246270  10.545   7.169   7.219 -1.0456  2.8568 -0.2674
14290SOL     OW46271   3.681   9.727  10.080  0.4830 -0.0326  0.0319
14290SOL    HW146272   3.605   9.715  10.023 -0.3395  0.7890  0.9197
14290SOL    HW246273   3.736   9.652  10.062 -0.8100 -0.9575 -0.2210
14291SOL     OW46274   3.472   9.713   8.069  0.5985  0.2228 -0.1719
14291SOL    HW146275   3.526   9.635   8.078  0.8509  0.5216  1.1046
14291SOL    HW246276   3.509   9.760   7.995  0.4691 -0.8352 -0.9201
14292SOL     OW46277   2.287   1.607   5.575  0.0453 -0.5364  0.1626
14292SOL    HW146278   2.374   1.596   5.614  0.0614 -0.7064  0.0818
14292SOL    HW246279   2.227   1.578   5.644 -0.0130  0.7657  0.6734
14293SOL     OW46280   9.257   8.852   6.983 -0.1690  0.4202 -0.2638
14293SOL    HW146281   9.239   8.759   6.999  0.0755  0.1843 -1.2551
14293SOL    HW246282   9.208   8.898   7.051 -1.5335 -0.3779 -0.6505
14294SOL     OW46283   0.688   9.596   5.291 -0.1993  0.0214 -0.4418
14294SOL    HW146284   0.607   9.619   5.337 -1.4044 -2.5775 -1.0511
14294SOL    HW246285   0.734   9.538   5.351  0.8240  0.8021 -0.4548
14295SOL     OW46286   2.613   5.578   1.758  0.1562 -0.2876 -0.3059
14295SOL    HW146287   2.677   5.584   1.829  1.4683 -0.4643 -1.4264
14295SOL    HW246288   2.662   5.604   1.680 -0.6870 -1.9408 -1.4386
14296SOL     OW46289   2.650   5.186  10.630  0.4279  0.1115  0.1669
14296SOL    HW146290   2.668   5.170  10.723  0.4393  0.8155  0.2931
14296SOL    HW246291   2.702   5.264  10.609 -1.1490  1.2056  0.1148
14297SOL     OW46292   1.038  10.620   6.945 -0.4222 -0.0647 -0.4945
14297SOL    HW146293   0.971  10.649   7.007 -0.2790 -0.4357 -0.1661
14297SOL    HW246294   1.002  10.539   6.908  0.3235 -0.8524  0.4762
14298SOL     OW46295   1.342   6.640   4.388  0.1903 -0.6777 -0.0838
14298SOL    HW146296   1.399   6.667   4.316  0.3624 -0.6895  0.0462
14298SOL    HW246297   1.400   6.638   4.465 -0.4571  1.7021  0.5585
14299SOL     OW46298   5.562   6.578   6.519 -1.0673 -0.2583  0.3349
14299SOL    HW146299   5.469   6.596   6.533 -1.0964  2.1900 -2.2046
14299SOL    HW246300   5.566   6.483   6.509 -3.3026 -0.4380  0.5446
14300SOL     OW46301   3.053   2.447   0.381  0.0551 -0.1454  0.1939
14300SOL    HW146302   3.116   2.430   0.451  0.7862  1.6367  0.0332
14300SOL    HW246303   2.971   2.468   0.426 -0.2823 -1.8338  0.4197
14301SOL     OW46304   7.290   3.604   5.937 -0.4296 -0.3741  0.1976
14301SOL    HW146305   7.310   3.530   5.994 -1.0594 -0.0950  0.7947
14301SOL    HW246306   7.195   3.604   5.931 -0.3650 -0.4921 -0.9916
14302SOL     OW46307   8.640   7.423   9.514  0.2275  0.0637 -0.8157
14302SOL    HW146308   8.701   7.386   9.451  0.6221  1.4164 -1.2744
14302SOL    HW246309   8.649   7.518   9.502 -0.6533  0.3127  0.3638
14303SOL     OW46310   5.496   9.880   5.446 -0.1224  0.0101 -0.2574
14303SOL    HW146311   5.550   9.900   5.369 -0.8280  1.0944 -0.4817
14303SOL    HW246312   5.465   9.965   5.477 -1.4991 -0.5720  0.0299
14304SOL     OW46313   3.999   1.482   2.032 -0.0965 -0.0176 -0.3835
14304SOL    HW146314   3.967   1.518   1.949 -2.7466 -2.0107 -0.3811
14304SOL    HW246315   4.033   1.557   2.080  0.0412  1.4394 -2.6302
14305SOL     OW46316   9.944   7.292   0.316 -0.3518 -0.9573  0.4178
14305SOL    HW146317   9.923   7.213   0.267 -0.0366 -2.2824  2.3485
14305SOL    HW246318  10.037   7.285   0.336 -0.6197 -0.8307  1.8345
14306SOL     OW46319   7.388   3.749   6.769  0.4254 -0.4660  0.4221
14306SOL    HW146320   7.431   3.737   6.854 -0.7097  0.0163  1.0844
14306SOL    HW246321   7.341   3.667   6.755  0.5696 -0.5251  0.2804
14307SOL     OW46322   4.693   9.740   8.366 -0.6621  0.0094 -0.0588
14307SOL    HW146323   4.773   9.784   8.393  0.3842 -2.2748  0.8113
14307SOL    HW246324   4.626   9.771   8.428 -0.5929  2.1430 -0.9659
14308SOL     OW46325  10.855   8.892   8.303  0.0484  0.1996 -0.5900
14308SOL    HW146326  10.915   8.819   8.285  1.5378  1.2774 -0.2301
14308SOL    HW246327  10.840   8.888   8.397 -0.6259 -0.1923 -0.7115
14309SOL     OW46328  10.827   1.035   6.783 -0.4024 -0.1995  0.0399
14309SOL    HW146329  10.904   0.984   6.759 -1.7136 -2.8522  1.0272
14309SOL    HW246330  10.796   0.995   6.865 -3.2891  0.1846 -0.7456
14310SOL     OW46331   8.983   7.628   6.004 -0.4251  0.0360 -0.0995
14310SOL    HW146332   8.954   7.611   5.914 -1.6587  0.7549  0.1401
14310SOL    HW246333   9.016   7.717   6.003  0.5735 -0.3278 -0.0711
14311SOL     OW46334   0.681   6.669   2.564 -0.1491  0.1621 -0.8194
14311SOL    HW146335   0.713   6.579   2.564 -0.4129  0.0314  0.8733
14311SOL    HW246336   0.740   6.715   2.624  0.5898  1.3876 -2.4021
14312SOL     OW46337   8.924   4.538   8.414  0.0767  0.2710  0.2476
14312SOL    HW146338   9.007   4.496   8.435  0.6034  1.6108  0.9806
14312SOL    HW246339   8.905   4.511   8.324  0.2937 -1.6103  0.7221
14313SOL     OW46340   9.564   9.909   0.435  0.7054 -0.2319  0.3772
14313SOL    HW146341   9.514   9.910   0.353 -2.2877 -2.3907  2.0138
14313SOL    HW246342   9.565  10.001   0.463  0.0027  0.2385 -1.0317
14314SOL     OW46343  10.399   9.611   7.576 -0.7049 -0.5580  0.3453
14314SOL    HW146344  10.328   9.550   7.557 -0.9857 -0.0909 -0.1152
14314SOL    HW246345  10.476   9.555   7.588 -1.2046 -1.0894  1.1787
14315SOL     OW46346   5.603   9.630   1.215  0.5283 -0.1353  0.0190
14315SOL    HW146347   5.545   9.631   1.139 -0.7593 -1.5728  0.9256
14315SOL    HW246348   5.584   9.712   1.261 -0.4684 -0.3733  0.0579
14316SOL     OW46349   3.977   7.719   4.350 -0.3428 -0.0532 -1.0217
14316SOL    HW146350   4.003   7.698   4.439 -0.4120  0.2917 -0.9212
14316SOL    HW246351   3.947   7.636   4.314 -0.7396 -0.1031 -0.5805
14317SOL     OW46352   2.210   4.872   7.706  0.0610  0.5210  0.7943
14317SOL    HW146353   2.229   4.838   7.618  0.2839 -0.4127  1.1957
14317SOL    HW246354   2.222   4.797   7.764  1.3541  1.4766  1.8130
14318SOL     OW46355   5.394   1.593   7.148 -0.3981  0.5075  0.1277
14318SOL    HW146356   5.446   1.522   7.111  0.6928  0.9248  0.8173
14318SOL    HW246357   5.458   1.656   7.182 -1.3130  2.1605 -1.0354
14319SOL     OW46358   3.753   8.450   4.900  0.1858 -0.2774 -0.6206
14319SOL    HW146359   3.716   8.502   4.972  0.0605  0.5446 -1.2650
14319SOL    HW246360   3.845   8.438   4.925 -0.1496 -1.0873  0.2840
14320SOL     OW46361   2.303   4.605   5.016  0.7862  0.7912 -0.9547
14320SOL    HW146362   2.233   4.627   5.077  0.0700 -3.5933  0.1444
14320SOL    HW246363   2.315   4.684   4.964 -1.3104  3.4748  2.2086
14321SOL     OW46364   8.404   1.540   4.494 -0.0287 -0.4466  0.0376
14321SOL    HW146365   8.371   1.581   4.414 -1.5481 -1.5454  0.0555
14321SOL    HW246366   8.392   1.606   4.562  1.1442  0.4470 -0.5818
14322SOL     OW46367   8.857  10.256   9.618 -0.0646 -0.2087  0.4708
14322SOL    HW146368   8.925  10.220   9.559  1.5637  3.0863  0.1288
14322SOL    HW246369   8.822  10.331   9.570 -0.5963  0.9700  2.6196
14323SOL     OW46370   1.112   8.284   2.130  1.1823 -0.2520 -0.4686
14323SOL    HW146371   1.124   8.209   2.071  1.2394 -1.1260  0.6156
14323SOL    HW246372   1.105   8.360   2.072  0.3012 -1.1944 -1.6431
14324SOL     OW46373  10.701   9.344   3.763 -0.1546  0.5518  0.1750
14324SOL    HW146374  10.657   9.391   3.692 -1.5066 -1.2053 -0.1973
14324SOL    HW246375  10.659   9.374   3.843  0.6078  1.6925  0.1741
14325SOL     OW46376   6.545   2.778   2.267 -1.2022 -0.6036  0.1042
14325SOL    HW146377   6.494   2.759   2.346 -1.7614 -2.1455 -0.5898
14325SOL    HW246378   6.487   2.830   2.212 -0.6018  0.9914  0.9171
14326SOL     OW46379   0.326  10.560   1.865  0.0780  0.0894  0.1852
14326SOL    HW146380   0.299  10.529   1.778 -1.0059  1.4489  0.0004
14326SOL    HW246381   0.247  10.601   1.901  0.7243  0.2166  1.5119
14327SOL     OW46382   3.699   4.417   4.680 -0.1848 -0.1402 -0.0440
14327SOL    HW146383   3.731   4.382   4.596 -0.6036 -1.3471  0.2730
14327SOL    HW246384   3.778   4.423   4.734 -0.0609 -0.3436 -0.1970
14328SOL     OW46385   3.988   1.699   4.846  0.2850 -0.5478 -0.4662
14328SOL    HW146386   3.977   1.731   4.756 -0.3995  0.5400 -0.0292
14328SOL    HW246387   3.898   1.685   4.877  0.4541  0.2446  0.4291
14329SOL     OW46388   8.034   1.507   1.189 -0.3369  0.6699 -0.0522
14329SOL    HW146389   8.003   1.419   1.166  0.4973  0.4678 -0.4420
14329SOL    HW246390   8.119   1.492   1.230 -0.3127  1.2760  0.1207
14330SOL     OW46391   9.562   3.862   5.161  0.5197 -0.1694 -0.0310
14330SOL    HW146392   9.585   3.815   5.241  0.1361 -0.4511 -0.0853
14330SOL    HW246393   9.643   3.862   5.110  0.7576 -0.0139  0.3403
14331SOL     OW46394   8.534   3.162   3.093 -0.0543 -0.2328  0.0616
14331SOL    HW146395   8.525   3.084   3.148  0.9403  0.0488  0.6438
14331SOL    HW246396   8.580   3.131   3.015 -2.3802 -0.8551 -1.1475
14332SOL     OW46397   5.903  10.230   5.838 -0.1467 -0.0473 -0.2874
14332SOL    HW146398   5.981  10.237   5.892 -0.4041  0.7456 -0.0062
14332SOL    HW246399   5.880  10.137   5.841 -0.5277  0.0797  1.4972
14333SOL     OW46400   3.751   3.959  10.831 -0.3474  0.6407 -0.3632
14333SOL    HW146401   3.685   3.940  10.765 -2.1272  1.8330  0.9788
14333SOL    HW246402   3.834   3.934  10.791 -1.1316  2.7214 -3.6726
14334SOL     OW46403   4.602   2.163   5.676 -0.5010  0.1630 -0.1181
14334SOL    HW146404   4.636   2.241   5.633 -0.6046 -0.1584 -0.8004
14334SOL    HW246405   4.678   2.124   5.719  0.3919 -1.3470 -2.8399
14335SOL     OW46406   0.438   5.650   0.369 -0.2602 -0.3477 -0.5170
14335SOL    HW146407   0.390   5.575   0.405  1.6314 -1.2073  0.4022
14335SOL    HW246408   0.529   5.619   0.364  0.3088  1.3878 -1.6103
14336SOL     OW46409   4.608  10.145   1.084  0.2081 -0.2387  0.0255
14336SOL    HW146410   4.700  10.169   1.075  1.4640 -4.3838 -0.4926
14336SOL    HW246411   4.595  10.136   1.179  0.1702  0.6911  0.1221
14337SOL     OW46412   4.953   9.641   0.558 -1.0628 -0.3948  0.0651
14337SOL    HW146413   5.027   9.584   0.537 -0.9547 -0.3621  0.3489
14337SOL    HW246414   4.956   9.648   0.654 -1.0893  0.0707  0.0309
14338SOL     OW46415   7.728   8.236   1.350  0.2411  0.6884 -0.6272
14338SOL    HW146416   7.777   8.316   1.369 -0.0626  0.4418  1.3909
14338SOL    HW246417   7.763   8.171   1.411 -1.3995  0.0396 -0.3259
14339SOL     OW46418   5.246   1.822   8.702 -0.5952 -0.4368  0.4468
14339SOL    HW146419   5.176   1.886   8.689  1.4414  2.1772  1.5475
14339SOL    HW246420   5.256   1.781   8.617 -2.2575  0.3808 -0.1990
14340SOL     OW46421   5.331   4.611   3.819  0.0642  0.0099  0.3837
14340SOL    HW146422   5.279   4.666   3.760  0.1947  0.0892  0.3444
14340SOL    HW246423   5.375   4.673   3.877 -1.6263 -0.1061  1.8941
14341SOL     OW46424   4.295   0.937   8.806 -0.2157 -0.4655 -0.1031
14341SOL    HW146425   4.296   1.032   8.809  0.1469 -0.3911 -1.8092
14341SOL    HW246426   4.364   0.913   8.744 -1.3009 -1.7725 -0.8631
14342SOL     OW46427   1.295   2.279   4.533 -0.7429 -0.1166  0.4025
14342SOL    HW146428   1.314   2.356   4.480  1.8213 -0.6721  0.3891
14342SOL    HW246429   1.222   2.236   4.489 -0.6992  1.0771 -0.8815
14343SOL     OW46430   4.143   0.573   4.831  0.1316 -0.5153 -0.4560
14343SOL    HW146431   4.125   0.665   4.812 -1.3562 -0.8561 -0.7753
14343SOL    HW246432   4.166   0.535   4.746  2.7234 -0.0737 -0.0583
14344SOL     OW46433   0.223   9.544   8.367  0.0953  0.1490  0.3319
14344SOL    HW146434   0.274   9.560   8.288 -1.2586  0.7405 -0.4644
14344SOL    HW246435   0.278   9.575   8.438  1.2564 -0.1994 -0.3911
14345SOL     OW46436   6.345   4.208   7.283 -0.9250  0.0026  0.0478
14345SOL    HW146437   6.327   4.252   7.366 -1.3579  0.7917 -0.4495
14345SOL    HW246438   6.381   4.276   7.227 -0.5205 -0.5545 -0.3795
14346SOL     OW46439   8.038   2.001   0.807  0.0567 -0.0171 -0.0763
14346SOL    HW146440   8.094   2.079   0.802  0.1538 -0.1231 -0.7228
14346SOL    HW246441   7.965   2.020   0.748 -0.0086 -0.3434 -0.1006
14347SOL     OW46442   3.638   8.380   2.842 -0.8941  0.0774 -0.2314
14347SOL    HW146443   3.675   8.421   2.920  1.9299 -1.1028 -0.8407
14347SOL    HW246444   3.616   8.452   2.784  1.9052  0.9021 -0.4031
14348SOL     OW46445   5.533   5.821   2.149 -0.5594 -0.1987  0.1309
14348SOL    HW146446   5.575   5.887   2.093  0.9102  0.0931  1.5009
14348SOL    HW246447   5.525   5.744   2.092  0.4481  0.2301 -0.6368
14349SOL     OW46448  10.282   5.072   3.283 -0.1633  0.2216  0.0734
14349SOL    HW146449  10.374   5.046   3.293 -0.4117 -0.9457 -0.5593
14349SOL    HW246450  10.275   5.097   3.190 -0.2456  1.3371  0.3648
14350SOL     OW46451  10.568   3.993  10.720  0.0690 -0.2214 -0.2245
14350SOL    HW146452  10.649   3.944  10.709  1.0714  1.4509 -0.5730
14350SOL    HW246453  10.596   4.083  10.739 -1.6938  0.0678  1.3486
14351SOL     OW46454   5.644   1.088   0.599 -0.0103 -0.4912  0.4309
14351SOL    HW146455   5.588   1.159   0.631 -0.0803 -0.5025  0.3345
14351SOL    HW246456   5.595   1.008   0.619 -1.3849 -0.4260 -2.1783
14352SOL     OW46457   5.671   5.385   2.227  0.0412 -0.5322 -0.0524
14352SOL    HW146458   5.698   5.408   2.316  1.3148  0.4723 -0.6650
14352SOL    HW246459   5.641   5.468   2.189 -0.2031 -0.8933 -0.6537
14353SOL     OW46460   0.485   6.571   6.357 -0.3541 -0.2976  0.0458
14353SOL    HW146461   0.578   6.564   6.377 -0.0764 -0.5117 -1.2292
14353SOL    HW246462   0.467   6.496   6.300 -0.8464  0.7741 -1.2743
14354SOL     OW46463   7.430   7.565   1.184 -0.0297  0.5022 -0.7414
14354SOL    HW146464   7.488   7.625   1.138 -0.3879  0.6408 -1.0192
14354SOL    HW246465   7.430   7.596   1.275  0.4072  0.4370 -0.7174
14355SOL     OW46466   0.153   5.024   7.659  0.2308  0.9931  0.5759
14355SOL    HW146467   0.151   5.016   7.754 -0.9012 -0.2652  0.4664
14355SOL    HW246468   0.164   4.935   7.627 -0.4616  1.2655 -0.4924
14356SOL     OW46469   9.265   9.856   9.916  0.3511 -0.0275  0.1530
14356SOL    HW146470   9.340   9.896   9.873 -0.0945  0.5268 -0.1217
14356SOL    HW246471   9.260   9.900  10.001  1.2934 -1.1939  0.8471
14357SOL     OW46472   5.717   5.017  10.428 -0.2066  0.4127 -0.6751
14357SOL    HW146473   5.736   5.032  10.520 -2.5162  1.5252 -0.2952
14357SOL    HW246474   5.796   4.977  10.393  1.6362  2.1216  1.2388
14358SOL     OW46475   9.272   5.454   0.164 -0.2843 -0.1635  0.1222
14358SOL    HW146476   9.280   5.476   0.257  0.4786 -0.9307  0.2506
14358SOL    HW246477   9.239   5.533   0.123  0.6098  0.6119  0.8570
14359SOL     OW46478   2.367  10.492   5.033  0.7108 -0.1742  0.4447
14359SOL    HW146479   2.415  10.508   4.951 -0.8568  1.3882 -0.2244
14359SOL    HW246480   2.328  10.406   5.020 -3.4193  1.8331 -2.6508
14360SOL     OW46481   7.685   5.748   2.168 -0.0597  0.4004  0.2623
14360SOL    HW146482   7.677   5.656   2.143 -0.7785  0.8782 -1.4319
14360SOL    HW246483   7.617   5.762   2.234  1.7022 -0.8461  2.4510
14361SOL     OW46484   4.520   2.866   0.767  0.0637  0.6945  0.0324
14361SOL    HW146485   4.585   2.854   0.698  0.9950 -0.4978  1.0854
14361SOL    HW246486   4.555   2.936   0.822 -0.4085  1.2576 -0.3694
14362SOL     OW46487   5.394   4.267   1.759  0.7576  0.2076  0.1367
14362SOL    HW146488   5.463   4.306   1.706  0.1189 -0.4283 -1.2138
14362SOL    HW246489   5.427   4.271   1.849  0.3294  4.7106  0.3006
14363SOL     OW46490   7.026   0.022   1.143  0.3564 -0.1897  0.4580
14363SOL    HW146491   7.005  -0.062   1.184 -0.4681 -1.0658 -1.6184
14363SOL    HW246492   6.947   0.075   1.157  1.0292  0.4183  2.1182
14364SOL     OW46493   6.858  10.916   8.523  0.2245 -0.4935  0.1063
14364SOL    HW146494   6.859  10.822   8.537 -1.8234 -0.6813 -0.6525
14364SOL    HW246495   6.870  10.927   8.429 -0.7853 -0.0830  0.0113
14365SOL     OW46496   1.957   7.711   1.398 -0.4575  0.2210  0.3841
14365SOL    HW146497   2.046   7.739   1.374  0.1320 -0.7081  1.3887
14365SOL    HW246498   1.965   7.682   1.489 -1.5089 -1.0871  0.0920
14366SOL     OW46499   8.579  10.442  10.730  0.1542  0.0405 -0.4608
14366SOL    HW146500   8.557  10.357  10.691 -0.1445  1.2180 -3.0405
14366SOL    HW246501   8.671  10.434  10.755  0.6279 -0.5208 -2.2537
14367SOL     OW46502   1.096   9.941   6.472 -0.2119 -0.0469  0.4455
14367SOL    HW146503   1.014   9.903   6.505 -1.4611  1.0449 -1.2212
14367SOL    HW246504   1.091  10.034   6.494  0.6732  0.0098  0.4625
14368SOL     OW46505   9.647   3.177   6.659  0.2689 -0.9004  0.0497
14368SOL    HW146506   9.632   3.205   6.569 -0.4405 -0.4677  0.2873
14368SOL    HW246507   9.610   3.248   6.712 -0.4317 -1.7122  0.6714
14369SOL     OW46508   4.791   5.086   4.792 -0.2873  0.4054 -0.5204
14369SOL    HW146509   4.784   5.180   4.775  1.0864  0.3105 -1.8341
14369SOL    HW246510   4.703   5.060   4.821 -1.3332  1.6979 -2.3342
14370SOL     OW46511  10.196   4.234   2.886 -0.3798  0.1780  0.3279
14370SOL    HW146512  10.264   4.239   2.953 -1.6001  0.5981  1.5988
14370SOL    HW246513  10.238   4.264   2.806 -0.0135  4.5558  1.8626
14371SOL     OW46514   7.719   4.319   6.038  0.2265  0.0737 -0.3494
14371SOL    HW146515   7.759   4.405   6.026 -0.2341  0.4666  0.7626
14371SOL    HW246516   7.686   4.295   5.951 -0.6215  1.5372 -0.4701
14372SOL     OW46517  10.851   9.259   5.999  0.3188  0.6210 -0.0278
14372SOL    HW146518  10.930   9.206   5.986 -0.7269 -1.1032  0.2061
14372SOL    HW246519  10.789   9.198   6.040 -1.3496  1.7084 -0.8417
14373SOL     OW46520   8.227   9.717   3.513  0.5193  0.2963  0.2457
14373SOL    HW146521   8.294   9.751   3.572  0.3767 -1.5018  1.5515
14373SOL    HW246522   8.196   9.637   3.556 -1.1641  0.0905 -1.2232
14374SOL     OW46523   8.738   6.142   3.251  0.4394  0.3218  0.3678
14374SOL    HW146524   8.689   6.219   3.279 -1.2998 -0.5087 -0.2394
14374SOL    HW246525   8.771   6.165   3.164  1.2539  0.9148  0.8136
14375SOL     OW46526   0.234   4.853   6.025  0.5453 -0.3751  0.4538
14375SOL    HW146527   0.273   4.821   5.944  0.6943 -2.5023  1.3154
14375SOL    HW246528   0.309   4.877   6.080  0.4446  1.0357  0.0360
14376SOL     OW46529   2.731   1.496   6.325 -0.0378  0.2501  0.2716
14376SOL    HW146530   2.695   1.459   6.244  0.7332  0.5263 -0.2129
14376SOL    HW246531   2.679   1.457   6.395  1.7914 -3.2356 -0.0642
14377SOL     OW46532   9.153   3.686   4.963  0.1608  0.1038  0.6472
14377SOL    HW146533   9.213   3.755   4.989  0.5496  0.0581 -0.0884
14377SOL    HW246534   9.209   3.618   4.925 -0.5063  1.1610 -2.4908
14378SOL     OW46535   0.842   2.954   5.192 -0.2352 -0.0939  0.1882
14378SOL    HW146536   0.844   2.968   5.286  0.1395  2.1102 -0.1054
14378SOL    HW246537   0.756   2.914   5.175 -0.9527  0.9491  1.2762
14379SOL     OW46538   0.717   0.374   4.610  0.4754  0.1776 -0.3703
14379SOL    HW146539   0.807   0.404   4.600  0.7251 -0.4822 -0.1104
14379SOL    HW246540   0.724   0.286   4.645 -0.2873  0.3971  0.3802
14380SOL     OW46541   1.128   0.784   6.393 -0.2044 -0.4881  0.8385
14380SOL    HW146542   1.185   0.861   6.394  0.6263 -1.0833  1.7564
14380SOL    HW246543   1.175   0.719   6.446 -1.1449 -1.4388  0.5432
14381SOL     OW46544   7.550   0.122   8.138 -0.2154  0.0579  0.2400
14381SOL    HW146545   7.462   0.131   8.100 -1.1512 -2.0665  1.7068
14381SOL    HW246546   7.605   0.179   8.085 -2.5956  2.0163 -0.3022
14382SOL     OW46547   8.403   7.251   8.518  0.6499 -0.3968 -0.4538
14382SOL    HW146548   8.328   7.287   8.472  0.2391 -0.9189 -0.2123
14382SOL    HW246549   8.473   7.314   8.504  0.0903  0.2326 -0.4581
14383SOL     OW46550  10.182   8.615   7.557  0.4763  0.2776 -0.3585
14383SOL    HW146551  10.166   8.709   7.565  1.7196  0.3713  1.4722
14383SOL    HW246552  10.225   8.606   7.472 -0.0726  1.2796 -0.7671
14384SOL     OW46553   4.138   3.684   6.781 -0.5569  0.5751  0.0463
14384SOL    HW146554   4.206   3.654   6.841 -0.4284  1.1076  0.1717
14384SOL    HW246555   4.185   3.704   6.700 -0.7270 -0.1250 -0.2308
14385SOL     OW46556   1.690   6.879   3.337  0.0204 -0.6346  0.4300
14385SOL    HW146557   1.651   6.959   3.302  0.2108  0.1255  1.8746
14385SOL    HW246558   1.777   6.875   3.297  0.0564 -0.0476  0.4369
14386SOL     OW46559   1.076  10.133   5.697  0.3832 -0.1288 -0.2166
14386SOL    HW146560   1.134  10.205   5.722  1.0212 -0.2304 -1.2899
14386SOL    HW246561   1.060  10.085   5.778 -2.0349  2.5347  1.0309
14387SOL     OW46562   5.647   2.623  10.168  0.2671  0.2325  0.1546
14387SOL    HW146563   5.728   2.572  10.170  0.2310  0.1548 -0.3008
14387SOL    HW246564   5.610   2.613  10.256  0.3775 -0.3286  0.1414
14388SOL     OW46565   2.452   6.437   9.197 -0.4900 -0.3303 -0.0054
14388SOL    HW146566   2.506   6.495   9.251 -1.9385  0.3247  0.8030
14388SOL    HW246567   2.478   6.349   9.225  0.2708 -0.0376  0.2487
14389SOL     OW46568   0.761   9.606   9.132 -0.0035 -0.5003 -0.6293
14389SOL    HW146569   0.782   9.524   9.086  0.9588 -3.4524  4.3259
14389SOL    HW246570   0.846   9.642   9.156 -0.4582  0.1335  0.0562
14390SOL     OW46571   2.121   4.357   5.630 -0.7154 -0.2206 -0.1266
14390SOL    HW146572   2.182   4.334   5.700 -1.6670 -1.8595  0.2143
14390SOL    HW246573   2.176   4.363   5.552  0.0682 -0.4630  0.3936
14391SOL     OW46574   7.362   2.087   1.408 -0.3106 -0.0201  0.0298
14391SOL    HW146575   7.377   2.018   1.342 -1.2978 -0.7776  0.5730
14391SOL    HW246576   7.347   2.166   1.356  0.1096 -0.3582 -0.6272
14392SOL     OW46577   3.321   9.445   4.802  0.1819  0.0424 -0.0426
14392SOL    HW146578   3.318   9.503   4.877  1.0167 -1.8478  1.5384
14392SOL    HW246579   3.377   9.490   4.739  0.9232  0.8804  1.1815
14393SOL     OW46580   9.467   3.827   0.545 -0.1994 -0.2813 -0.1304
14393SOL    HW146581   9.412   3.840   0.468 -2.5902 -2.6624  1.0211
14393SOL    HW246582   9.441   3.895   0.606 -0.5995 -0.3185 -0.2603
14394SOL     OW46583   3.967   7.696   6.715  0.1110  0.2582  0.5114
14394SOL    HW146584   3.916   7.616   6.729 -0.3226  0.6052  0.9214
14394SOL    HW246585   3.980   7.732   6.803 -0.3376  1.0361  0.2655
14395SOL     OW46586   2.740   0.332   7.731  0.4739  0.6140 -0.0880
14395SOL    HW146587   2.764   0.297   7.817 -2.9840  2.3010  1.7756
14395SOL    HW246588   2.676   0.270   7.697  1.0891  0.4803 -1.0541
14396SOL     OW46589   1.064   7.956   7.392 -0.6143  0.5850 -0.2674
14396SOL    HW146590   1.104   7.916   7.314 -0.5373  0.3935 -0.1305
14396SOL    HW246591   1.115   8.036   7.407 -0.6951  0.6769 -0.4738
14397SOL     OW46592   1.947   5.142   3.241  0.4587 -0.1127 -0.1674
14397SOL    HW146593   1.853   5.133   3.261  0.3959  1.1237  0.2064
14397SOL    HW246594   1.974   5.055   3.213 -0.9570 -0.3385 -0.9465
14398SOL     OW46595   5.566   4.762   8.928 -0.1233 -0.0577  0.0497
14398SOL    HW146596   5.604   4.679   8.897  0.0644  0.3875 -0.9294
14398SOL    HW246597   5.472   4.751   8.915 -0.1046 -0.1373 -0.0270
14399SOL     OW46598   0.175   4.027   2.431  0.0803 -0.2130  0.1535
14399SOL    HW146599   0.166   4.009   2.525 -1.9771 -1.5253 -0.2133
14399SOL    HW246600   0.159   3.942   2.390 -0.8626  0.6849 -1.4193
14400SOL     OW46601   1.390   0.612   5.620  0.0129  0.3279  0.3984
14400SOL    HW146602   1.440   0.678   5.571 -0.6138  0.6632  0.1979
14400SOL    HW246603   1.417   0.528   5.583  0.7271  0.4770  0.5731
14401SOL     OW46604   5.585  10.559   2.301  0.2160 -0.2933  0.2910
14401SOL    HW146605   5.579  10.651   2.276 -4.2361 -0.6411 -0.8173
14401SOL    HW246606   5.617  10.515   2.222  0.0154  0.0676  0.0051
14402SOL     OW46607   5.412   0.364   8.099  0.3864  0.3928  0.0360
14402SOL    HW146608   5.465   0.292   8.064 -0.6884 -0.7777  0.7052
14402SOL    HW246609   5.324   0.345   8.069  0.1393  1.6554 -0.0735
14403SOL     OW46610   4.520   5.565   6.350 -0.2407  0.1627 -0.3279
14403SOL    HW146611   4.457   5.624   6.309  0.0145 -0.8256 -2.2414
14403SOL    HW246612   4.478   5.479   6.346 -0.3166  0.0391  1.8049
14404SOL     OW46613   7.952   3.686   7.515 -0.5297 -0.3708 -0.3064
14404SOL    HW146614   7.973   3.740   7.591 -1.0138 -0.2904 -0.2248
14404SOL    HW246615   7.858   3.670   7.522 -0.2261 -2.1337  0.2550
14405SOL     OW46616   8.941   0.714   4.726 -0.6021 -0.0441  0.0957
14405SOL    HW146617   8.997   0.736   4.801 -2.8356  2.5718  1.1635
14405SOL    HW246618   8.993   0.738   4.649  0.9370 -0.7656  0.8659
14406SOL     OW46619   5.735  10.092  10.077  0.4275  0.2889  0.0201
14406SOL    HW146620   5.745  10.164  10.140  0.4335 -0.0627  0.4270
14406SOL    HW246621   5.739  10.013  10.130  1.3377 -0.0522 -0.5392
14407SOL     OW46622   0.334   7.159   5.369 -0.1840  0.0687  1.1899
14407SOL    HW146623   0.406   7.106   5.336  0.1142  0.8516  0.5463
14407SOL    HW246624   0.268   7.096   5.396  0.6018 -0.6481  1.4693
14408SOL     OW46625   2.114  10.861   9.093 -0.3201 -0.0335 -0.2581
14408SOL    HW146626   2.153  10.947   9.082 -2.1543  0.8153 -0.6054
14408SOL    HW246627   2.185  10.799   9.075  1.3313  1.3663  1.1094
14409SOL     OW46628   7.523   3.522  10.124  0.6189  0.0544  0.5040
14409SOL    HW146629   7.474   3.441  10.140  1.1110 -0.4566 -0.4718
14409SOL    HW246630   7.610   3.505  10.159  1.3214 -0.6091 -1.3989
14410SOL     OW46631   7.400   3.119   5.908  0.0448 -0.0336 -0.3731
14410SOL    HW146632   7.494   3.133   5.920 -0.3544  1.7785  1.1962
14410SOL    HW246633   7.383   3.034   5.948  0.6485  0.7647  1.6894
14411SOL     OW46634   9.227   0.745   9.564  0.2420 -0.4250 -0.6425
14411SOL    HW146635   9.135   0.719   9.560 -0.2425  0.8952  0.9334
14411SOL    HW246636   9.224   0.841   9.572  1.7455 -0.4077 -0.0563
14412SOL     OW46637   4.684   3.938   6.493  0.3586  0.2945 -0.3141
14412SOL    HW146638   4.636   3.857   6.511  0.2740  0.7770  2.0552
14412SOL    HW246639   4.725   3.924   6.408 -2.1544 -0.9971 -1.4335
14413SOL     OW46640   3.350   0.168   6.448  0.5293  0.7563  0.3295
14413SOL    HW146641   3.397   0.158   6.531 -0.0123  1.2828  0.7003
14413SOL    HW246642   3.271   0.114   6.458 -0.3803  2.1429  0.8073
14414SOL     OW46643   4.857   0.698  10.548  0.6487  0.1891  0.0775
14414SOL    HW146644   4.869   0.698  10.453 -0.2419 -1.0888 -0.0697
14414SOL    HW246645   4.763   0.716  10.561  0.1262 -2.4467  0.5300
14415SOL     OW46646   3.661   9.450   5.025 -0.0541  0.5845  0.3068
14415SOL    HW146647   3.684   9.534   4.985 -2.8401  0.9814 -0.6611
14415SOL    HW246648   3.572   9.432   4.995  0.1033 -2.2989  1.2371
14416SOL     OW46649   4.404   4.098   5.964  0.2580 -0.9079  0.2073
14416SOL    HW146650   4.385   4.056   5.880 -0.9705 -1.7228  0.8673
14416SOL    HW246651   4.370   4.187   5.954 -0.6102 -1.2405  0.0880
14417SOL     OW46652   1.353   9.784  10.571  0.7982  0.1389  0.3539
14417SOL    HW146653   1.439   9.791  10.613  0.0726  1.7980  1.7135
14417SOL    HW246654   1.344   9.692  10.549  2.7464 -0.1413  0.5813
14418SOL     OW46655   5.397   1.314   0.351 -0.0077  0.0358  0.0709
14418SOL    HW146656   5.431   1.305   0.262  0.1619 -0.4031  0.1763
14418SOL    HW246657   5.336   1.242   0.362  0.9765 -0.7295  0.7565
14419SOL     OW46658   5.132   6.396  10.252 -0.1523 -1.0076 -0.5951
14419SOL    HW146659   5.090   6.322  10.209 -1.6533 -0.5340 -0.0076
14419SOL    HW246660   5.205   6.419  10.195 -0.6997 -1.8479 -1.6661
14420SOL     OW46661   1.966   5.112   9.295 -0.5086  0.1179 -0.0701
14420SOL    HW146662   1.881   5.080   9.263 -0.5508 -0.8838  0.9996
14420SOL    HW246663   1.950   5.137   9.386  0.5675 -1.1495  0.5057
14421SOL     OW46664   7.008  10.199   3.933 -0.1639  0.1446  0.0829
14421SOL    HW146665   6.960  10.207   3.850 -0.8845  1.5246  0.6004
14421SOL    HW246666   6.948  10.151   3.991 -0.5642  1.0535  0.4426
14422SOL     OW46667  10.313   3.268   7.076 -0.1736 -0.3685 -0.0414
14422SOL    HW146668  10.376   3.268   7.004 -0.7016  0.8596 -0.5417
14422SOL    HW246669  10.283   3.359   7.081  1.4058  0.1134  3.1193
14423SOL     OW46670   7.162   2.966   9.975  0.0306  0.5752 -0.3778
14423SOL    HW146671   7.113   2.958  10.057 -0.1149  0.1509 -0.5055
14423SOL    HW246672   7.095   2.979   9.908  0.0729 -0.2682 -0.5896
14424SOL     OW46673   5.706   3.709   7.848 -0.0266  0.9305  0.0512
14424SOL    HW146674   5.722   3.738   7.938 -0.7402  0.2648  0.3991
14424SOL    HW246675   5.701   3.614   7.854 -0.1440  0.8870 -0.6882
14425SOL     OW46676   0.091   8.687   5.829  0.0535  0.6093 -0.4319
14425SOL    HW146677   0.013   8.680   5.884  0.1640 -0.3774 -0.3755
14425SOL    HW246678   0.161   8.650   5.882  0.1799 -0.2823 -1.1898
14426SOL     OW46679   8.344   3.219   5.149 -0.0140 -0.1997  0.3874
14426SOL    HW146680   8.397   3.274   5.205  1.4059  0.1368 -1.2110
14426SOL    HW246681   8.380   3.131   5.160 -0.4375 -0.3268  0.7966
14427SOL     OW46682   7.738  10.542   8.774 -0.1675  0.6910  0.4654
14427SOL    HW146683   7.767  10.455   8.747 -1.0297  0.3110  0.7635
14427SOL    HW246684   7.648  10.548   8.743  0.5182  2.2916 -1.4438
14428SOL     OW46685   7.858   6.897   6.230  0.0610 -0.0250 -0.0050
14428SOL    HW146686   7.805   6.865   6.157  1.5376  0.2325 -1.2286
14428SOL    HW246687   7.944   6.858   6.217 -0.1176 -1.5666  2.7241
14429SOL     OW46688   3.413   4.106   6.910  0.0697 -0.4003 -0.6590
14429SOL    HW146689   3.338   4.162   6.926  1.1488  1.0045 -0.3339
14429SOL    HW246690   3.435   4.071   6.997 -0.0103 -0.5667 -0.7047
14430SOL     OW46691   6.102   1.144   6.956  0.0969  0.1329 -0.4206
14430SOL    HW146692   6.146   1.209   6.902  1.9533 -1.0292 -0.3651
14430SOL    HW246693   6.080   1.073   6.896  0.0212 -0.1211 -0.0974
14431SOL     OW46694  10.393   0.873   5.709  0.9033  0.4496 -1.1900
14431SOL    HW146695  10.474   0.842   5.670  0.0653 -3.0715 -0.5089
14431SOL    HW246696  10.412   0.880   5.803  0.5604  0.0521 -1.0866
14432SOL     OW46697   1.367   7.071   6.832  0.0749 -0.2020  0.4827
14432SOL    HW146698   1.299   7.028   6.883 -0.4724  0.4105  0.2890
14432SOL    HW246699   1.395   7.145   6.886  1.2117 -0.9403  0.9394
14433SOL     OW46700   3.076   6.887   9.368 -0.2933  0.1212  0.3320
14433SOL    HW146701   3.131   6.858   9.295  1.4415 -1.3697  2.1066
14433SOL    HW246702   3.132   6.943   9.421 -1.4173  0.9431  0.6937
14434SOL     OW46703  10.237   6.679  10.184 -0.2630  0.2319 -0.0435
14434SOL    HW146704  10.259   6.589  10.209 -0.7736 -0.1327 -0.8795
14434SOL    HW246705  10.249   6.730  10.265 -2.5928 -1.0220  1.1821
14435SOL     OW46706   9.343   0.441   9.216 -0.4911 -0.8238  0.0982
14435SOL    HW146707   9.357   0.485   9.300 -1.2531 -1.3575  0.5224
14435SOL    HW246708   9.430   0.436   9.176  0.0257 -1.3012  1.2346
14436SOL     OW46709   5.064  10.687   8.273 -0.2447 -0.1910 -0.0554
14436SOL    HW146710   5.069  10.676   8.368 -1.7260 -0.6785 -0.0049
14436SOL    HW246711   5.072  10.782   8.261  0.4936 -0.1691  0.4998
14437SOL     OW46712   4.074   3.602   1.304  0.2696  0.3163 -0.1615
14437SOL    HW146713   4.076   3.507   1.309  1.2693  0.3683  0.6987
14437SOL    HW246714   4.050   3.621   1.213 -0.1528 -0.7465 -0.2831
14438SOL     OW46715   7.996   8.020   3.796  0.3265 -0.4113  0.3677
14438SOL    HW146716   7.986   7.970   3.715  0.2098  1.0004 -0.5243
14438SOL    HW246717   8.091   8.024   3.810  0.4638  0.9399 -0.7683
14439SOL     OW46718   9.761   5.969   3.815  0.4998 -0.3936  0.1750
14439SOL    HW146719   9.795   6.006   3.897 -1.0211 -1.4834  1.3710
14439SOL    HW246720   9.816   5.893   3.798  1.0237  0.0202 -0.0040
14440SOL     OW46721   1.756   0.983   8.802 -0.2162 -0.0811  0.1223
14440SOL    HW146722   1.753   1.032   8.884 -0.1338  0.1387 -0.0057
14440SOL    HW246723   1.691   0.913   8.814  0.7756 -0.9115  0.9224
14441SOL     OW46724   7.551   3.322   9.846  0.3952 -0.3282 -0.3087
14441SOL    HW146725   7.479   3.359   9.897 -1.2224 -2.3612 -0.9857
14441SOL    HW246726   7.561   3.381   9.771  0.7800  1.0137  0.7542
14442SOL     OW46727   3.056   2.353   6.985  0.3200  0.2384 -0.2606
14442SOL    HW146728   3.147   2.378   6.969 -0.1959  1.4939 -1.4617
14442SOL    HW246729   3.007   2.434   6.976 -0.7492 -0.0128  2.3511
14443SOL     OW46730   4.113   7.884   3.513 -0.0231 -0.5358 -0.0684
14443SOL    HW146731   4.060   7.910   3.587  1.3132 -0.0905  0.7654
14443SOL    HW246732   4.196   7.855   3.551  0.9016  0.2260 -1.3986
14444SOL     OW46733   4.450  10.360   7.536 -0.3253 -0.4553  0.3129
14444SOL    HW146734   4.378  10.423   7.531 -0.3909 -0.5157  0.4975
14444SOL    HW246735   4.467  10.335   7.445  1.3755  1.6961 -0.0375
14445SOL     OW46736   2.082   9.009   2.331 -0.4088 -0.0026  0.0203
14445SOL    HW146737   1.994   9.027   2.365 -0.6787  0.6364 -0.9675
14445SOL    HW246738   2.130   9.090   2.347 -0.6476  0.4384 -1.4244
14446SOL     OW46739   9.004   9.956   2.797  0.1259  0.0758  0.2431
14446SOL    HW146740   8.975   9.874   2.757 -1.0017  0.1918  0.7955
14446SOL    HW246741   9.091   9.935   2.832 -0.1282 -0.8766  0.3457
14447SOL     OW46742   2.143   9.538   4.092  0.0103 -0.4703  0.1744
14447SOL    HW146743   2.153   9.559   3.999 -0.3749 -1.9715 -0.2328
14447SOL    HW246744   2.101   9.615   4.130  0.1793  0.1622 -0.8851
14448SOL     OW46745   3.373   5.050   6.706  0.4655  0.0217 -0.4094
14448SOL    HW146746   3.286   5.017   6.680  1.2799 -2.1827 -0.5797
14448SOL    HW246747   3.397   5.111   6.636 -0.8291  0.4391 -0.5111
14449SOL     OW46748  10.231   0.171   3.547 -0.8847 -0.1734 -0.6667
14449SOL    HW146749  10.136   0.178   3.550 -0.9310 -0.9539  1.1947
14449SOL    HW246750  10.249   0.102   3.483 -1.6421 -0.8490 -0.1664
14450SOL     OW46751   9.274   3.950   7.248 -0.6522  0.4294  0.5107
14450SOL    HW146752   9.184   3.956   7.278 -1.1351 -1.1392 -0.4813
14450SOL    HW246753   9.290   3.856   7.238  1.1920  0.6453  0.9276
14451SOL     OW46754   6.947   4.349   7.362  0.1898  0.0196 -0.0691
14451SOL    HW146755   6.883   4.360   7.291  0.1540  0.8594  0.0853
14451SOL    HW246756   7.022   4.309   7.319  0.1144  0.3920 -0.5646
14452SOL     OW46757   1.387   8.914   1.812  0.2786  0.8124 -0.2892
14452SOL    HW146758   1.383   8.958   1.897 -0.4315 -0.5380  0.4095
14452SOL    HW246759   1.322   8.959   1.758  0.3648  1.3381  0.0392
14453SOL     OW46760   2.596   2.654   8.356 -0.3295  0.1624  0.4227
14453SOL    HW146761   2.655   2.598   8.306 -1.2779  1.4797 -2.4185
14453SOL    HW246762   2.510   2.612   8.346 -0.8328  1.3886 -0.6700
14454SOL     OW46763   9.185   1.028   9.081  0.0851  0.1506  0.0729
14454SOL    HW146764   9.162   0.938   9.103 -1.5060  0.7848  1.2749
14454SOL    HW246765   9.255   1.050   9.142  0.3108 -0.1981 -0.0572
14455SOL     OW46766  10.625   3.261   0.139 -0.2608  0.5334  0.4183
14455SOL    HW146767  10.694   3.306   0.091  0.6036  0.2383  1.3543
14455SOL    HW246768  10.649   3.270   0.231  0.4526 -2.5162  0.6513
14456SOL     OW46769   4.412   5.067   2.924 -0.2962 -0.2423 -0.1283
14456SOL    HW146770   4.414   5.130   2.996  1.4915  0.4287 -0.7236
14456SOL    HW246771   4.484   5.007   2.942 -1.0513 -1.2564 -0.3622
14457SOL     OW46772   2.867   9.459   8.772  0.4850  0.0166  0.2672
14457SOL    HW146773   2.792   9.427   8.821 -1.4126  2.2300 -0.9701
14457SOL    HW246774   2.887   9.388   8.710 -2.3224  0.2920 -1.1205
14458SOL     OW46775   1.807   6.400   0.092 -0.2427 -0.2331  0.3434
14458SOL    HW146776   1.839   6.421   0.004 -0.8466 -0.7046  0.0037
14458SOL    HW246777   1.712   6.401   0.083 -0.3724 -3.6192  0.1475
14459SOL     OW46778   5.342   0.755   3.080 -0.3002 -0.1332  0.2970
14459SOL    HW146779   5.396   0.728   3.154 -0.7763 -0.3952  0.5546
14459SOL    HW246780   5.362   0.848   3.068  1.6606 -0.6268 -0.8367
14460SOL     OW46781   9.915   8.025   7.741 -0.1138  0.2649 -0.2583
14460SOL    HW146782   9.947   7.941   7.707  1.5071  1.4986 -1.9704
14460SOL    HW246783   9.820   8.013   7.749  0.1405 -1.8996  0.1515
14461SOL     OW46784   5.821   4.889   8.600  0.0080 -0.3074  0.1480
14461SOL    HW146785   5.730   4.917   8.594  0.2281  0.3977  0.0254
14461SOL    HW246786   5.817   4.793   8.601 -0.9177 -0.3429  3.1169
14462SOL     OW46787   9.412   9.974   4.585  0.6565 -0.7346 -0.0763
14462SOL    HW146788   9.504   9.957   4.609  0.4192 -0.6178  0.9846
14462SOL    HW246789   9.389  10.053   4.634  0.0118 -0.7185 -0.4011
14463SOL     OW46790   0.384   7.293   1.655  0.4361  0.3612 -0.1153
14463SOL    HW146791   0.411   7.210   1.695 -0.8602 -0.2666 -0.4821
14463SOL    HW246792   0.452   7.311   1.590 -0.0364 -1.2361 -1.1233
14464SOL     OW46793   1.044   4.156   2.500  0.2812  0.3540  0.7545
14464SOL    HW146794   1.102   4.080   2.500  0.3670  0.3957 -1.1442
14464SOL    HW246795   1.032   4.178   2.408 -2.3388  0.6617  1.0755
14465SOL     OW46796   7.505   0.640   0.411  0.2186 -0.7449  0.1539
14465SOL    HW146797   7.577   0.582   0.434 -0.4278 -1.5968  0.0994
14465SOL    HW246798   7.505   0.707   0.479 -0.2816 -1.9715  1.4320
14466SOL     OW46799   3.142   9.579   1.349 -0.3209 -0.3828  0.3315
14466SOL    HW146800   3.071   9.642   1.342  0.5590  0.7137  0.8197
14466SOL    HW246801   3.153   9.566   1.443  0.0043 -0.6699  0.2577
14467SOL     OW46802   4.768   9.710   9.645 -0.0039  0.1710 -0.0435
14467SOL    HW146803   4.696   9.703   9.581  0.3259  1.2151 -0.5456
14467SOL    HW246804   4.724   9.718   9.729 -0.4555 -2.8705  0.1116
14468SOL     OW46805  10.234   7.118   0.239 -0.0307  0.2685 -0.4766
14468SOL    HW146806  10.316   7.072   0.255  0.7175  1.5231 -0.5033
14468SOL    HW246807  10.176   7.089   0.309  0.2499 -1.0403 -0.7634
14469SOL     OW46808   0.776   1.514   0.491  0.1702 -0.2343  0.2062
14469SOL    HW146809   0.786   1.482   0.580 -1.7651 -0.4406  0.3774
14469SOL    HW246810   0.692   1.559   0.490  1.4323  2.3511 -0.7982
14470SOL     OW46811   1.368   8.962   4.640 -0.0969  0.0910  0.4610
14470SOL    HW146812   1.422   8.885   4.622 -1.7252 -0.3513 -3.6008
14470SOL    HW246813   1.431   9.034   4.646  1.1600 -0.5439 -3.0305
14471SOL     OW46814   1.589   1.514   8.061  0.0607 -0.5973  0.1961
14471SOL    HW146815   1.554   1.572   8.129  0.6023 -0.4597  0.3658
14471SOL    HW246816   1.643   1.572   8.006  1.7933 -1.1783  1.2048
14472SOL     OW46817   2.917   3.095   9.260  0.1990 -0.5238 -0.2063
14472SOL    HW146818   2.850   3.141   9.210 -3.4170 -1.2369  3.5062
14472SOL    HW246819   3.000   3.128   9.224 -1.9839  1.1812 -4.4302
14473SOL     OW46820  10.882   9.516   5.900  0.1390  0.4496 -0.2941
14473SOL    HW146821  10.837   9.567   5.967 -1.0513  0.5725 -1.1630
14473SOL    HW246822  10.886   9.427   5.935 -0.6417  0.4744 -0.1250
14474SOL     OW46823   0.188   2.914   5.284  0.0403  0.0871 -0.1305
14474SOL    HW146824   0.221   2.974   5.217 -1.0302  0.7690 -0.0754
14474SOL    HW246825   0.250   2.923   5.356 -0.6222  1.9361  0.2845
14475SOL     OW46826   7.273   7.939   8.182  0.5263 -0.0322  0.3041
14475SOL    HW146827   7.245   8.024   8.217 -0.1962 -0.5827  1.0954
14475SOL    HW246828   7.247   7.941   8.090  2.6927  1.5438 -0.3664
14476SOL     OW46829   9.706   4.254   3.688  0.1483 -0.5210  0.1179
14476SOL    HW146830   9.699   4.348   3.675 -0.7736 -0.6711 -0.5817
14476SOL    HW246831   9.697   4.242   3.783 -0.2636  0.0642  0.1592
14477SOL     OW46832  10.250   2.518   0.630  0.1418 -0.1752 -0.1582
14477SOL    HW146833  10.170   2.477   0.662  0.7117 -0.2786  1.2009
14477SOL    HW246834  10.316   2.450   0.634  0.5294  0.1882 -0.2705
14478SOL     OW46835   7.676   4.540   7.095  0.0145 -0.1587  0.0919
14478SOL    HW146836   7.595   4.547   7.046 -1.0579  0.0314  1.8215
14478SOL    HW246837   7.705   4.449   7.081 -0.5597 -0.2699 -0.4196
14479SOL     OW46838   4.138   1.092  10.205  0.2440 -0.3446 -0.0178
14479SOL    HW146839   4.119   1.125  10.118  1.3591 -1.4410 -0.7280
14479SOL    HW246840   4.147   1.170  10.260 -0.2793  0.3630 -0.9208
14480SOL     OW46841   4.926   9.687   0.844 -0.5730 -0.5709  0.1292
14480SOL    HW146842   4.836   9.705   0.874  0.2724  1.0775  1.9717
14480SOL    HW246843   4.968   9.646   0.920  1.1736  2.0886  0.7698
14481SOL     OW46844   6.323  10.392   7.813 -0.0173  0.1136  0.7872
14481SOL    HW146845   6.338  10.303   7.784 -1.4246  0.0644  0.1349
14481SOL    HW246846   6.387  10.445   7.765  0.1726 -0.4241  0.4488
14482SOL     OW46847   8.801   6.420   1.145  0.0708 -0.9072 -0.3148
14482SOL    HW146848   8.720   6.391   1.187 -1.1456 -1.4617 -2.8803
14482SOL    HW246849   8.791   6.396   1.053  1.6942  2.0111 -1.4000
14483SOL     OW46850   7.853   0.736   8.802 -0.0606  0.2122  0.1580
14483SOL    HW146851   7.830   0.806   8.741  1.4547 -0.4290 -1.2249
14483SOL    HW246852   7.783   0.671   8.791  0.0916  0.1939 -0.7751
14484SOL     OW46853   8.143   0.216   1.160 -0.2381 -0.1176 -0.3259
14484SOL    HW146854   8.109   0.173   1.081  0.7568 -0.3812 -0.6256
14484SOL    HW246855   8.072   0.273   1.188 -0.6925 -0.1823 -1.2903
14485SOL     OW46856   6.914   0.557   9.742  0.2795 -0.3368  0.3396
14485SOL    HW146857   6.999   0.557   9.698  0.1918 -0.8140  0.1627
14485SOL    HW246858   6.907   0.470   9.780 -1.1742 -1.1890 -1.7055
14486SOL     OW46859  10.559   4.786   6.269  0.8038  0.8725  0.0835
14486SOL    HW146860  10.472   4.793   6.308 -0.2388 -0.5531 -1.8006
14486SOL    HW246861  10.604   4.722   6.324 -1.0305 -1.9857 -1.4527
14487SOL     OW46862   7.850   2.306   3.621  0.1630 -0.0260  0.4907
14487SOL    HW146863   7.928   2.267   3.582 -0.4067 -0.0035 -0.7060
14487SOL    HW246864   7.881   2.390   3.655  1.1306 -0.9559  2.0279
14488SOL     OW46865   1.801   3.305   3.434 -0.2805  0.4123 -0.8895
14488SOL    HW146866   1.715   3.327   3.398 -1.1785  0.3588  1.0957
14488SOL    HW246867   1.813   3.366   3.507  0.0837 -1.3927  0.6359
14489SOL     OW46868   7.150   1.562   9.729 -0.3378  0.3211  0.1573
14489SOL    HW146869   7.155   1.492   9.664 -0.3601  0.7884 -0.3470
14489SOL    HW246870   7.232   1.611   9.717  0.8602 -1.0352  2.1445
14490SOL     OW46871   9.856   0.101   0.883 -0.2947  0.0728 -0.3980
14490SOL    HW146872   9.780   0.058   0.920  0.6630 -1.0577  0.3413
14490SOL    HW246873   9.929   0.040   0.899  0.7883  1.1640 -0.9484
14491SOL     OW46874   8.761  10.245   4.961 -0.0319  0.2544  0.6436
14491SOL    HW146875   8.756  10.153   4.988 -1.1878  1.3075  4.7999
14491SOL    HW246876   8.669  10.274   4.958  0.3661  1.7132  1.5222
14492SOL     OW46877   7.099   9.146   0.207  0.3000  0.8052 -0.5803
14492SOL    HW146878   7.132   9.191   0.284 -1.1688  1.1394 -0.1020
14492SOL    HW246879   7.072   9.060   0.240 -0.7334  1.1036 -0.6048
14493SOL     OW46880   5.132   6.828   7.289  0.4222  0.2911 -0.3052
14493SOL    HW146881   5.186   6.757   7.255 -1.7440 -1.0566 -1.1837
14493SOL    HW246882   5.160   6.840   7.379  0.9595 -1.5964 -0.1853
14494SOL     OW46883   0.576  10.219   4.538  0.3763  0.0919 -0.1677
14494SOL    HW146884   0.638  10.166   4.589  0.4166 -0.1350 -0.4483
14494SOL    HW246885   0.513  10.155   4.504  0.8786  0.1184 -1.1648
14495SOL     OW46886   2.643   0.289   6.984  0.5333 -0.2010 -0.2726
14495SOL    HW146887   2.604   0.256   6.903  0.4204  0.6082 -0.5574
14495SOL    HW246888   2.674   0.210   7.029  0.9258 -0.6400 -1.2662
14496SOL     OW46889   0.255   5.558   6.527 -0.7387 -0.3421 -0.0879
14496SOL    HW146890   0.233   5.638   6.573  0.0913 -0.5052  0.6336
14496SOL    HW246891   0.348   5.568   6.505 -0.4645 -1.3402  0.5392
14497SOL     OW46892   3.198   1.322   0.565  0.4941  0.6560  0.4418
14497SOL    HW146893   3.152   1.387   0.618 -0.1610  1.9412 -1.5629
14497SOL    HW246894   3.133   1.255   0.546  0.4347  0.7143  0.4387
14498SOL     OW46895   0.277   0.468   8.747  0.2363  0.1042  0.8413
14498SOL    HW146896   0.188   0.457   8.714  0.3765  1.8492 -0.2117
14498SOL    HW246897   0.317   0.531   8.688  1.7045  0.4835  2.1797
14499SOL     OW46898   8.324   0.526   1.923  0.1496 -0.3067  0.5388
14499SOL    HW146899   8.299   0.566   1.839  0.0776 -0.1237  0.6469
14499SOL    HW246900   8.337   0.434   1.902  1.3602 -0.0489  0.0529
14500SOL     OW46901   8.913   1.391   5.583 -0.1308  0.4190 -0.1780
14500SOL    HW146902   8.939   1.478   5.553  1.5658  0.4942  1.3182
14500SOL    HW246903   8.841   1.406   5.644  1.7586  1.1268  2.0464
14501SOL     OW46904   3.463   7.480   0.122 -0.3541  0.3656  0.7159
14501SOL    HW146905   3.447   7.572   0.141  0.6387  0.3556  1.7448
14501SOL    HW246906   3.418   7.433   0.192 -1.3457  0.0193 -0.1274
14502SOL     OW46907   9.490   9.182   4.000  0.0017  0.3685 -0.8016
14502SOL    HW146908   9.498   9.209   4.092  0.5131 -0.1267 -0.6884
14502SOL    HW246909   9.396   9.175   3.985 -0.1232 -2.1509  0.5063
14503SOL     OW46910   4.658   1.144   8.164  0.1538 -0.5127 -0.3906
14503SOL    HW146911   4.674   1.050   8.172 -1.1209 -0.6738  0.7063
14503SOL    HW246912   4.739   1.185   8.193  0.2131 -1.2816  0.5894
14504SOL     OW46913   1.847   5.484   1.168 -0.2477 -0.5689 -0.5155
14504SOL    HW146914   1.936   5.484   1.134 -0.9808  2.4872 -2.9664
14504SOL    HW246915   1.831   5.393   1.194  3.8880 -1.0029  1.2355
14505SOL     OW46916   0.819  10.692   8.982  0.0579  0.2858  0.1126
14505SOL    HW146917   0.856  10.761   9.036  1.8458  0.4774 -1.2245
14505SOL    HW246918   0.782  10.737   8.906  0.6180 -0.1449 -0.4339
14506SOL     OW46919   0.276   7.421  10.266  0.3054  0.0512  0.4511
14506SOL    HW146920   0.342   7.365  10.226  1.5178 -0.1567  2.6044
14506SOL    HW246921   0.314   7.509  10.263  0.5935 -0.0235  1.4199
14507SOL     OW46922   0.732   8.090   1.817 -0.3954 -0.2889  0.3251
14507SOL    HW146923   0.687   8.166   1.780  0.4941  0.5076  0.8263
14507SOL    HW246924   0.771   8.123   1.898  0.6524 -1.0773  0.1552
14508SOL     OW46925   2.151   1.353   7.264 -0.1613  0.2483 -0.5007
14508SOL    HW146926   2.202   1.346   7.183 -0.2046  2.3118 -0.7632
14508SOL    HW246927   2.069   1.394   7.237 -0.6665 -0.1495  0.4105
14509SOL     OW46928   9.623  10.130   6.095 -0.4375 -0.1116 -0.3094
14509SOL    HW146929   9.564  10.178   6.152 -0.9227  0.6486 -1.4193
14509SOL    HW246930   9.657  10.195   6.034  0.7317 -0.7392 -0.3632
14510SOL     OW46931   7.173   9.257   6.177  0.2136 -0.1007 -0.1240
14510SOL    HW146932   7.231   9.278   6.250  1.1300 -1.2504 -0.4908
14510SOL    HW246933   7.179   9.332   6.119 -0.8771  1.0424  1.1466
14511SOL     OW46934   6.640   0.918  10.556  0.0324 -0.2551  0.4186
14511SOL    HW146935   6.699   0.843  10.564 -0.4628 -0.6413  0.5194
14511SOL    HW246936   6.583   0.912  10.633 -1.3462 -0.9704 -0.5968
14512SOL     OW46937   4.976   9.436   9.205  1.0002  0.0774 -0.2588
14512SOL    HW146938   4.941   9.428   9.294  0.4584 -0.2234 -0.4926
14512SOL    HW246939   5.062   9.394   9.209  1.2144  0.5544  0.2529
14513SOL     OW46940   2.322  10.783   5.447  0.2743 -0.8323  0.0635
14513SOL    HW146941   2.360  10.718   5.388 -1.8913  0.7580 -3.5019
14513SOL    HW246942   2.248  10.820   5.397  0.6267  3.4947  2.2173
14514SOL     OW46943   3.183   1.060   1.621 -0.0051 -0.6156 -0.1677
14514SOL    HW146944   3.179   0.985   1.680  0.6624 -0.4751  0.0662
14514SOL    HW246945   3.198   1.135   1.679 -1.2068 -0.2185 -0.3463
14515SOL     OW46946   8.809   5.881   7.892 -0.2578  0.0176  0.0727
14515SOL    HW146947   8.838   5.972   7.887  2.0693 -0.6036  0.9279
14515SOL    HW246948   8.886   5.833   7.923 -1.6001 -2.1617  0.2463
14516SOL     OW46949   9.064   0.696   5.524 -0.4571 -0.0741 -0.0171
14516SOL    HW146950   9.118   0.766   5.487  1.6980 -1.0882  1.0451
14516SOL    HW246951   8.988   0.691   5.465  0.5652  1.4530 -1.5568
14517SOL     OW46952   0.435  10.163   0.160 -0.4164 -0.2439 -0.0028
14517SOL    HW146953   0.398  10.198   0.079  0.0771 -0.7922 -0.4659
14517SOL    HW246954   0.472  10.079   0.136  1.5481  0.4753  0.3379
14518SOL     OW46955   9.917   1.865   4.207  0.1942  0.0098 -0.4577
14518SOL    HW146956   9.886   1.818   4.284 -1.0350  0.0308 -0.9222
14518SOL    HW246957   9.915   1.800   4.137 -0.8891  0.5605 -0.9578
14519SOL     OW46958   0.507   4.651   7.986 -0.1761  0.0920 -0.7010
14519SOL    HW146959   0.567   4.684   7.919  0.0294 -2.0074 -1.6155
14519SOL    HW246960   0.426   4.632   7.939  0.3053 -2.3999 -0.6318
14520SOL     OW46961   9.309   5.117   3.900  0.4294  0.2799  0.1535
14520SOL    HW146962   9.367   5.190   3.921  3.2670 -2.0011  0.9481
14520SOL    HW246963   9.365   5.057   3.851 -0.7257 -2.8111  2.3333
14521SOL     OW46964   7.777   5.967   0.629  0.2084 -0.1237  0.1702
14521SOL    HW146965   7.751   5.885   0.671  1.2897 -0.6998 -0.2433
14521SOL    HW246966   7.708   5.984   0.565  1.5538 -2.5444 -2.1415
14522SOL     OW46967   9.630   4.111   2.467  0.4831 -0.1004 -0.0996
14522SOL    HW146968   9.665   4.195   2.499 -0.9728  0.6183 -0.2815
14522SOL    HW246969   9.555   4.094   2.524 -0.1293 -0.5096 -1.0062
14523SOL     OW46970   8.834   4.024   5.455 -0.2113 -0.0172  0.0804
14523SOL    HW146971   8.874   3.966   5.390 -0.0107  0.8169 -0.5624
14523SOL    HW246972   8.903   4.040   5.519 -0.0774 -0.0142 -0.0642
14524SOL     OW46973   0.974   9.471   5.227  0.1680 -0.1276 -0.0643
14524SOL    HW146974   1.025   9.509   5.298 -0.7628 -0.3193  0.7325
14524SOL    HW246975   0.974   9.377   5.245 -1.9308  0.0167  0.9937
14525SOL     OW46976   3.632   5.019   0.586  0.0240  0.3152 -0.0876
14525SOL    HW146977   3.551   5.046   0.629  0.1023  0.3441  0.0420
14525SOL    HW246978   3.693   5.003   0.657  0.2552  0.6880 -0.2001
14526SOL     OW46979   9.143   3.802   1.026 -0.4236  0.3779  0.1783
14526SOL    HW146980   9.185   3.724   1.064 -1.6426 -0.1545  0.4695
14526SOL    HW246981   9.205   3.873   1.042  1.0686 -0.6493 -0.7728
14527SOL     OW46982   2.265   7.503   6.266 -0.7156  0.3169 -0.1467
14527SOL    HW146983   2.236   7.500   6.357 -1.0248  0.2821 -0.2464
14527SOL    HW246984   2.211   7.570   6.226 -0.0017  0.9273 -0.1039
14528SOL     OW46985   9.124   4.757   8.567  0.2014  0.1577  0.6796
14528SOL    HW146986   9.219   4.744   8.562  0.4474  0.7913  2.8827
14528SOL    HW246987   9.087   4.679   8.526  1.6133  0.8532 -2.2359
14529SOL     OW46988   2.823   4.080   8.458 -0.0173  0.3527 -0.0124
14529SOL    HW146989   2.899   4.121   8.418  0.2396 -0.1674 -0.0690
14529SOL    HW246990   2.770   4.051   8.383  0.4077 -0.5181  0.0080
14530SOL     OW46991   0.380   2.272   6.681  0.2165 -0.1824 -0.8086
14530SOL    HW146992   0.291   2.247   6.656 -0.3510  0.3735  0.5336
14530SOL    HW246993   0.413   2.323   6.607 -1.7082  2.1619 -0.1854
14531SOL     OW46994   4.269   2.642   9.574 -0.2106 -0.0219  0.0068
14531SOL    HW146995   4.346   2.697   9.558  0.1906 -1.1378 -2.1380
14531SOL    HW246996   4.281   2.611   9.664 -0.1595  2.8537  1.1015
14532SOL     OW46997   1.726   6.158   1.028 -0.4770 -0.2560 -0.3466
14532SOL    HW146998   1.779   6.121   0.958  1.9465  0.8211  0.8138
14532SOL    HW246999   1.760   6.247   1.039 -1.2714 -0.1605  1.7152
14533SOL     OW47000  10.225  10.423   4.044 -0.1483 -0.5010  0.1684
14533SOL    HW147001  10.187  10.434   3.956 -1.1705  0.5519  0.7062
14533SOL    HW247002  10.163  10.368   4.090 -0.2745  0.0002  0.6080
14534SOL     OW47003  10.858   8.380   8.844 -0.9066 -0.1400 -0.2153
14534SOL    HW147004  10.931   8.438   8.823 -0.2288 -0.2768  1.5970
14534SOL    HW247005  10.782   8.421   8.802 -0.4353  2.0336  0.8913
14535SOL     OW47006   4.640  10.774   3.843 -0.5475 -0.2470  0.2109
14535SOL    HW147007   4.688  10.737   3.918  0.3435  0.5527  0.0556
14535SOL    HW247008   4.584  10.841   3.882  0.1325  0.3737  0.1468
14536SOL     OW47009   5.274   2.883   4.909  0.3123  0.0882 -0.1553
14536SOL    HW147010   5.272   2.969   4.951  0.2608  0.3411 -0.6794
14536SOL    HW247011   5.184   2.867   4.883 -0.2186 -1.2246  2.1413
14537SOL     OW47012   3.604   1.418  10.677  0.0256 -0.4089  0.2700
14537SOL    HW147013   3.542   1.349  10.701 -1.7464  0.7494 -0.7549
14537SOL    HW247014   3.626   1.401  10.585 -0.7375  0.5705 -0.1168
14538SOL     OW47015   5.242   0.032  10.032  0.1312 -0.7574 -0.7465
14538SOL    HW147016   5.222   0.044  10.125  0.0961 -2.3776 -0.5194
14538SOL    HW247017   5.320  -0.022  10.031  1.5702  1.2092 -1.6837
14539SOL     OW47018   2.105   7.483   8.504 -0.0743 -0.0023  0.1210
14539SOL    HW147019   2.042   7.442   8.563 -0.1471 -1.4658 -0.9187
14539SOL    HW247020   2.163   7.533   8.562 -0.4676 -0.9351  1.3744
14540SOL     OW47021   3.958   6.030   0.692 -0.4016 -0.2284  0.2859
14540SOL    HW147022   3.876   6.078   0.681  0.1082  0.4818 -0.5136
14540SOL    HW247023   3.931   5.940   0.707 -1.3123 -0.2507 -1.2713
14541SOL     OW47024   0.503   1.317   2.115  0.0104 -0.2342 -0.3271
14541SOL    HW147025   0.472   1.314   2.025  0.5279 -2.0924 -0.4868
14541SOL    HW247026   0.595   1.292   2.110 -0.1941 -1.3657  0.7728
14542SOL     OW47027   0.283   9.048   4.557  0.4685 -0.6353  0.6133
14542SOL    HW147028   0.200   9.012   4.526  0.5345  0.4809 -0.9966
14542SOL    HW247029   0.350   8.993   4.515  0.5441  0.1521 -0.3388
14543SOL     OW47030  10.631  10.441   7.432 -0.6065  0.5248  0.0360
14543SOL    HW147031  10.609  10.529   7.400 -0.5668  0.1361 -1.1125
14543SOL    HW247032  10.648  10.391   7.352  1.8585  0.0990  0.7556
14544SOL     OW47033  10.682  10.835   2.915  0.4406 -0.2352 -0.1476
14544SOL    HW147034  10.705  10.830   3.008 -1.6068  1.5043  0.5222
14544SOL    HW247035  10.742  10.900   2.879 -1.3934  2.2714  0.9870
14545SOL     OW47036   2.334  10.721   9.981 -0.4260 -0.2215  0.3098
14545SOL    HW147037   2.413  10.683  10.020 -0.1427 -0.7066 -0.7280
14545SOL    HW247038   2.353  10.725   9.888 -1.7754 -0.6829  0.0018
14546SOL     OW47039   4.471   1.690   0.871 -0.4164 -0.6877 -0.3833
14546SOL    HW147040   4.511   1.637   0.940 -1.4173 -1.9323 -0.7184
14546SOL    HW247041   4.501   1.779   0.889  0.4245 -1.1929  0.8603
14547SOL     OW47042   8.933   1.477   8.322 -0.3442 -0.0108 -0.4480
14547SOL    HW147043   8.959   1.504   8.410 -0.6167  0.8888 -0.6265
14547SOL    HW247044   8.944   1.556   8.269 -0.1115 -0.5626 -1.2372
14548SOL     OW47045   6.233  10.118   4.946  0.0068  0.2631 -0.0474
14548SOL    HW147046   6.208  10.180   4.877  1.4882 -0.5082 -1.3449
14548SOL    HW247047   6.321  10.144   4.972  0.8541 -1.5038 -0.9458
14549SOL     OW47048  10.722   3.017   0.079 -0.7654  0.4800 -0.2909
14549SOL    HW147049  10.662   2.954   0.118 -0.9561  0.2668 -0.9186
14549SOL    HW247050  10.686   3.103   0.104 -0.6376  0.3475  0.3620
14550SOL     OW47051   1.792   0.654   4.408 -0.7785 -0.4280 -0.5980
14550SOL    HW147052   1.700   0.638   4.390 -0.7084 -0.1684 -1.2423
14550SOL    HW247053   1.795   0.682   4.499 -1.3407 -0.3936 -0.5865
14551SOL     OW47054   9.581   9.396   7.568  0.3516  0.1296  0.6773
14551SOL    HW147055   9.516   9.329   7.589 -0.1000 -0.0443 -1.1439
14551SOL    HW247056   9.560   9.468   7.628 -0.2561 -0.6816  1.4663
14552SOL     OW47057   4.242   3.753   9.004 -0.3100 -0.1942  0.3872
14552SOL    HW147058   4.297   3.708   8.940 -0.0904  0.8151 -0.1636
14552SOL    HW247059   4.153   3.732   8.978 -0.2132 -0.0976 -0.0404
14553SOL     OW47060   6.324   1.090   3.852  0.2449  0.0456  0.7412
14553SOL    HW147061   6.328   1.148   3.776 -0.6215  0.3510  0.9113
14553SOL    HW247062   6.230   1.076   3.866  0.4335 -1.2284  0.8383
14554SOL     OW47063   8.399   9.477   8.485 -0.3186  0.1301  0.4298
14554SOL    HW147064   8.388   9.396   8.535 -0.3905  0.3142  0.7116
14554SOL    HW247065   8.466   9.455   8.420  0.7447  0.2775  1.4466
14555SOL     OW47066   1.568   8.044   8.200  0.2466  0.0662  0.5884
14555SOL    HW147067   1.564   7.958   8.241  1.0147 -1.0601 -1.5524
14555SOL    HW247068   1.485   8.052   8.153  1.0041 -0.4216 -0.8739
14556SOL     OW47069   1.047   1.613   3.788  0.5230  0.2488  0.1818
14556SOL    HW147070   1.035   1.627   3.882  0.9850  0.9762  0.1432
14556SOL    HW247071   1.037   1.700   3.749  0.0801 -0.0849 -0.4789
14557SOL     OW47072   7.788   3.646   8.836 -0.7190 -0.0377 -0.2620
14557SOL    HW147073   7.709   3.676   8.789 -0.6513 -0.2299 -0.5013
14557SOL    HW247074   7.754   3.596   8.910 -0.8509  1.2468  0.5705
14558SOL     OW47075   0.084   5.557   7.808  0.0012  0.3236  0.4669
14558SOL    HW147076   0.141   5.549   7.885 -0.4719  0.8113  0.8732
14558SOL    HW247077   0.057   5.467   7.790 -0.2329  0.2530  1.1374
14559SOL     OW47078   9.217   7.594   3.461  0.2863  0.4111 -0.0650
14559SOL    HW147079   9.242   7.579   3.552  1.7033 -0.6253 -0.5799
14559SOL    HW247080   9.297   7.576   3.411 -1.4400 -3.2395 -1.8769
14560SOL     OW47081   4.675   7.486   0.852 -0.3764  0.0677 -0.0337
14560SOL    HW147082   4.599   7.517   0.901 -1.6255  0.0724 -1.8667
14560SOL    HW247083   4.639   7.432   0.782  1.4394 -1.3112  0.0167
14561SOL     OW47084   6.803   9.930   3.623 -0.5265 -0.6490  0.0207
14561SOL    HW147085   6.770   9.859   3.678 -0.6188  0.6826  1.7807
14561SOL    HW247086   6.751  10.006   3.649 -0.3212  0.1280 -1.6941
14562SOL     OW47087   0.964   5.090   7.508  0.1775  0.4848  0.5312
14562SOL    HW147088   0.983   5.148   7.581 -0.5483 -0.2200  1.3064
14562SOL    HW247089   1.043   5.036   7.498  0.5171  1.0085  0.3730
14563SOL     OW47090   7.933   2.410   2.123  0.5228  0.7863 -0.0316
14563SOL    HW147091   7.988   2.430   2.048 -0.6375 -0.4035 -1.2459
14563SOL    HW247092   7.843   2.420   2.092 -0.0318 -1.6676  0.5427
14564SOL     OW47093   8.227   4.910  10.199 -0.0783  0.3465  0.7354
14564SOL    HW147094   8.291   4.850  10.236  0.0613  0.7156  1.1037
14564SOL    HW247095   8.272   4.952  10.126  0.0136  0.4320  0.8429
14565SOL     OW47096   6.318   8.104   8.702  0.2481 -0.1486 -0.4129
14565SOL    HW147097   6.407   8.113   8.668  0.8231 -0.1042  1.0471
14565SOL    HW247098   6.290   8.016   8.676  0.4573  0.0680 -1.4229
14566SOL     OW47099   8.810   1.436   1.864 -0.1780  0.0642  0.1750
14566SOL    HW147100   8.773   1.520   1.836 -0.8840 -0.4053 -0.3215
14566SOL    HW247101   8.802   1.437   1.959 -0.8949  0.2364  0.1173
14567SOL     OW47102   6.228   9.590   3.282 -0.1849 -0.3858  0.3222
14567SOL    HW147103   6.293   9.534   3.240  0.1573 -0.9303  1.5390
14567SOL    HW247104   6.271   9.675   3.290  0.0974 -0.5383  0.4280
14568SOL     OW47105   7.895   8.909   4.095  0.5012  0.0920 -0.0785
14568SOL    HW147106   7.911   8.905   4.189  0.2368  0.2468 -0.0265
14568SOL    HW247107   7.823   8.848   4.080  0.6814 -0.0894 -0.2113
14569SOL     OW47108   6.987   2.122   5.949 -0.7292  0.4298 -0.1769
14569SOL    HW147109   7.034   2.158   6.024  0.0022  1.0415 -0.9122
14569SOL    HW247110   6.907   2.085   5.987  0.6742 -1.3627  1.2136
14570SOL     OW47111   4.744   2.242   7.613  0.0421 -0.4251 -0.0191
14570SOL    HW147112   4.703   2.328   7.617  0.1938 -0.2341 -1.9094
14570SOL    HW247113   4.760   2.219   7.705  1.8820  2.4406  0.4855
14571SOL     OW47114   3.687   0.781   2.642 -0.4639 -0.1114  0.0092
14571SOL    HW147115   3.612   0.727   2.670 -0.3282  0.1858  1.0059
14571SOL    HW247116   3.648   0.848   2.586 -0.6242 -1.2686 -1.3213
14572SOL     OW47117   6.342   3.788   9.962  0.1098 -0.4094 -0.1046
14572SOL    HW147118   6.352   3.700   9.925  3.2077  0.0220 -0.5304
14572SOL    HW247119   6.396   3.789  10.040 -1.0392  0.7402  0.7399
14573SOL     OW47120   9.651   6.661   3.548  0.3441  0.2350 -0.2814
14573SOL    HW147121   9.717   6.646   3.480  0.1261 -1.8560 -0.0949
14573SOL    HW247122   9.567   6.646   3.504  0.1035  0.6213  0.0352
14574SOL     OW47123   6.188   6.682   8.564  0.3747 -0.2740 -0.4149
14574SOL    HW147124   6.143   6.761   8.592  1.2718  1.0280 -2.4285
14574SOL    HW247125   6.215   6.639   8.645  1.3783  2.3765  0.7488
14575SOL     OW47126   0.182   2.820   4.000 -0.0037  0.4188 -0.2020
14575SOL    HW147127   0.160   2.850   4.088  1.4874  0.8917  0.0378
14575SOL    HW247128   0.130   2.875   3.942  0.8655  1.8476  0.3168
14576SOL     OW47129   7.602   2.659   3.149  0.5346 -0.4723 -0.3406
14576SOL    HW147130   7.528   2.598   3.152 -1.2054  1.5593  0.9972
14576SOL    HW247131   7.662   2.628   3.217 -0.2459 -0.7879  0.2130
14577SOL     OW47132   7.099   5.295   8.268  0.3489 -0.3082 -0.4191
14577SOL    HW147133   7.105   5.327   8.178 -1.0677 -0.5963 -0.6286
14577SOL    HW247134   7.090   5.374   8.321 -2.0644 -0.2272 -0.8436
14578SOL     OW47135   5.401   4.306   6.601  0.0908  0.8213 -0.3872
14578SOL    HW147136   5.479   4.352   6.572  0.2230  0.8078 -0.0541
14578SOL    HW247137   5.433   4.223   6.637 -0.0887  0.7480 -0.3944
14579SOL     OW47138  10.790   8.980   3.077 -0.0003  0.1774  0.3630
14579SOL    HW147139  10.878   9.016   3.067  0.2199 -0.7565 -1.2912
14579SOL    HW247140  10.780   8.969   3.172  0.2340  3.6874  0.9091
14580SOL     OW47141  10.338   2.216  10.212 -0.0094  0.3302  0.5814
14580SOL    HW147142  10.258   2.235  10.262 -0.0687  0.5116  0.4175
14580SOL    HW247143  10.399   2.182  10.277 -1.0109 -2.1567  0.3583
14581SOL     OW47144   5.282   6.248   7.178 -0.2098 -0.1704  0.0605
14581SOL    HW147145   5.220   6.305   7.224  0.9923  1.0906  0.1645
14581SOL    HW247146   5.274   6.274   7.086 -1.1147 -1.2642 -0.1923
14582SOL     OW47147   9.597   9.896   8.830 -0.1380 -0.2592  0.5819
14582SOL    HW147148   9.577   9.884   8.923  1.1193  0.6864  1.0089
14582SOL    HW247149   9.559   9.980   8.807  0.6190  0.0931  0.5852
14583SOL     OW47150   7.733   0.153   5.661 -0.2955 -0.5172 -0.1012
14583SOL    HW147151   7.717   0.081   5.600 -1.1333 -1.0721  0.7611
14583SOL    HW247152   7.656   0.209   5.653 -0.7085 -0.9262  0.8982
14584SOL     OW47153   2.245   8.105   8.528  0.0545  0.2368  0.1672
14584SOL    HW147154   2.179   8.046   8.491  0.3842  0.4725 -0.8212
14584SOL    HW247155   2.196   8.184   8.551  0.0424  0.5534 -0.9087
14585SOL     OW47156   3.283  10.719   9.117 -0.7627 -0.2135  0.3154
14585SOL    HW147157   3.192  10.737   9.142 -0.3228  1.9915  0.4773
14585SOL    HW247158   3.319  10.804   9.094  1.1085 -1.1401 -0.3701
14586SOL     OW47159  10.104   3.709   2.578  0.3468  0.0702 -0.5079
14586SOL    HW147160  10.042   3.724   2.650  0.4627  0.5802 -0.5088
14586SOL    HW247161  10.187   3.745   2.609  0.3768  0.3776 -0.9285
14587SOL     OW47162   9.564   8.159   2.055 -0.2130 -0.7008  0.1249
14587SOL    HW147163   9.579   8.226   2.122 -0.3785 -1.5250  1.0066
14587SOL    HW247164   9.555   8.078   2.104 -0.9294 -1.2391 -0.8629
14588SOL     OW47165   3.059   1.749   2.172 -0.6862  0.5564 -0.2251
14588SOL    HW147166   2.965   1.758   2.187 -0.8612  0.8542 -1.3699
14588SOL    HW247167   3.066   1.687   2.099 -0.0550  1.3230 -0.8374
14589SOL     OW47168  10.279   8.012   1.010 -0.5485  0.2583  0.0595
14589SOL    HW147169  10.337   7.962   1.068 -0.3646 -0.6973 -0.9164
14589SOL    HW247170  10.195   7.966   1.014  0.2566 -1.6293 -2.6614
14590SOL     OW47171   6.673   2.583   2.894 -0.1059 -0.1150  0.2129
14590SOL    HW147172   6.646   2.583   2.802  2.9744  2.2302 -0.8703
14590SOL    HW247173   6.644   2.668   2.927  0.3784 -0.1972  0.8655
14591SOL     OW47174  10.678   2.145   8.697 -0.3272  1.0618 -0.0851
14591SOL    HW147175  10.745   2.213   8.698  0.0276  0.7359 -0.8263
14591SOL    HW247176  10.647   2.141   8.787  0.8442  1.0226  0.3308
14592SOL     OW47177   3.843   2.055   0.880  0.4181  0.4060 -0.4824
14592SOL    HW147178   3.923   2.058   0.933  0.2623  0.1985 -0.2313
14592SOL    HW247179   3.871   2.084   0.793  0.4995  1.6460 -0.0710
14593SOL     OW47180   1.690   5.030   2.913 -0.2667  0.0394 -0.6765
14593SOL    HW147181   1.609   5.040   2.863  0.6471  1.2693 -1.9816
14593SOL    HW247182   1.661   5.000   2.999 -2.1055  0.4392 -1.1085
14594SOL     OW47183   3.955   8.169   4.061 -0.2020 -0.5280  0.4721
14594SOL    HW147184   3.888   8.102   4.049  1.0646 -2.0093  1.3817
14594SOL    HW247185   4.031   8.122   4.093  1.0338  1.2322  0.2731
14595SOL     OW47186   9.813   1.454   6.847 -0.2749 -0.3748 -0.1272
14595SOL    HW147187   9.833   1.463   6.754 -2.6260  1.7584 -0.5543
14595SOL    HW247188   9.816   1.359   6.863  1.4408 -0.7086 -2.0201
14596SOL     OW47189   6.452   8.088   5.396  0.4068  0.1386  0.0162
14596SOL    HW147190   6.399   8.146   5.342 -1.4415 -2.0255 -0.6185
14596SOL    HW247191   6.539   8.091   5.357 -0.0059  1.3641 -0.8486
14597SOL     OW47192   9.704   2.722   5.683 -0.5685 -0.1344 -0.0659
14597SOL    HW147193   9.736   2.633   5.697 -1.6374 -0.3053  1.6209
14597SOL    HW247194   9.632   2.731   5.745 -0.5614  1.8754 -0.2943
14598SOL     OW47195   4.896   0.240   0.428 -0.8261  0.1362 -0.4780
14598SOL    HW147196   4.860   0.277   0.508 -1.7241 -0.5133 -0.5631
14598SOL    HW247197   4.972   0.295   0.407 -0.7037  0.4365  0.6963
14599SOL     OW47198   8.217   4.285   4.820  0.2823 -0.0837 -0.3821
14599SOL    HW147199   8.165   4.255   4.745  1.1882 -1.9549 -0.3301
14599SOL    HW247200   8.152   4.311   4.885 -0.5537 -0.5546 -1.0019
14600SOL     OW47201   7.608   6.844   1.073  0.0282  0.1159 -0.2525
14600SOL    HW147202   7.543   6.789   1.116  1.5433 -1.1904  0.4604
14600SOL    HW247203   7.596   6.826   0.979 -0.2344 -0.5707 -0.0941
14601SOL     OW47204   1.055   1.044   4.298 -0.2064 -0.7042 -0.4890
14601SOL    HW147205   1.003   1.097   4.359  0.5359  1.1178 -1.3592
14601SOL    HW247206   1.069   0.962   4.344 -2.3806 -0.6081  0.4621
14602SOL     OW47207   4.172   7.139  10.409  0.2234 -0.4201  0.3111
14602SOL    HW147208   4.102   7.093  10.362  1.1657 -1.1722 -0.4088
14602SOL    HW247209   4.138   7.150  10.497 -1.0508 -0.2052 -0.1769
14603SOL     OW47210  10.363   7.049   0.875  0.3099  0.0565 -0.2514
14603SOL    HW147211  10.325   7.029   0.790  0.6181  1.2553 -0.6888
14603SOL    HW247212  10.320   7.131   0.902  0.8001  0.1164  0.3718
14604SOL     OW47213   2.681   9.743   2.742  0.0837  0.1197  0.1920
14604SOL    HW147214   2.659   9.836   2.743  1.2500  0.4250 -0.4600
14604SOL    HW247215   2.598   9.698   2.729 -0.4042  1.1136 -0.1970
14605SOL     OW47216   8.167   7.295   1.545 -0.7106 -0.2128  0.2176
14605SOL    HW147217   8.161   7.217   1.600  0.0605 -0.5496 -0.1630
14605SOL    HW247218   8.082   7.338   1.555 -0.8476 -0.6602  1.0839
14606SOL     OW47219   8.139   3.513   8.230 -0.4150 -0.5865 -0.2899
14606SOL    HW147220   8.150   3.425   8.267 -1.1286 -0.8559 -0.6892
14606SOL    HW247221   8.076   3.556   8.288  0.6126 -0.0016  0.4320
14607SOL     OW47222   9.261   6.915  10.123  0.3916  0.1758  0.3731
14607SOL    HW147223   9.223   6.829  10.102 -1.0971  0.6664  0.8872
14607SOL    HW247224   9.310   6.940  10.045 -0.3493 -0.5168 -0.3355
14608SOL     OW47225   8.986   5.482   7.551 -0.4446 -0.3799  0.2899
14608SOL    HW147226   8.951   5.425   7.620 -1.6098 -0.3242 -0.2432
14608SOL    HW247227   9.067   5.438   7.523  0.9213  0.3832  2.7296
14609SOL     OW47228   8.488  10.774   8.331  0.3320  0.2170 -0.7451
14609SOL    HW147229   8.430  10.784   8.407 -0.0801 -0.0425 -1.0205
14609SOL    HW247230   8.442  10.819   8.260 -0.5565 -1.7255 -1.4858
14610SOL     OW47231   7.218   2.046   4.014  0.3534 -0.6622 -0.1667
14610SOL    HW147232   7.263   1.984   3.957 -0.2258 -1.7705  0.5355
14610SOL    HW247233   7.251   2.026   4.102  0.3646  0.2320  0.0486
14611SOL     OW47234   6.920   6.728   3.491  0.0938 -0.0792  0.9511
14611SOL    HW147235   6.925   6.738   3.396  0.1377  0.0735  0.9704
14611SOL    HW247236   6.851   6.788   3.518  0.0839 -0.1202  1.0162
14612SOL     OW47237   1.430   7.109   8.980 -0.1117  0.0773  0.3732
14612SOL    HW147238   1.445   7.024   9.022  1.0296  0.6643  1.2097
14612SOL    HW247239   1.518   7.142   8.960 -0.5431  1.0248 -0.0171
14613SOL     OW47240   4.393   6.633   4.855  0.4598  0.2278 -0.5416
14613SOL    HW147241   4.352   6.687   4.787 -1.7154  0.2526  0.6935
14613SOL    HW247242   4.460   6.690   4.894 -1.8490  2.2091  0.8192
14614SOL     OW47243   6.036   1.130   7.732 -0.8693  0.0255 -0.5808
14614SOL    HW147244   6.093   1.056   7.709 -1.4648 -0.5500 -0.2505
14614SOL    HW247245   6.016   1.171   7.648  1.5202  1.3982 -0.5629
14615SOL     OW47246  10.347   4.358   4.457 -0.8660  0.2975 -0.0947
14615SOL    HW147247  10.345   4.277   4.405 -4.6255  1.4590 -2.1865
14615SOL    HW247248  10.397   4.419   4.403 -0.1152  0.0635  0.3217
14616SOL     OW47249   9.912   1.039   4.399 -0.0725 -0.3621  0.2352
14616SOL    HW147250   9.962   1.121   4.392 -0.0458 -0.4716 -0.9394
14616SOL    HW247251   9.821   1.066   4.388  0.0824 -0.7478 -2.8314
14617SOL     OW47252   3.728   8.266   6.168  0.1542  0.1749 -0.1000
14617SOL    HW147253   3.788   8.191   6.167  0.9799  0.8017  0.8851
14617SOL    HW247254   3.785   8.343   6.166 -0.4263  0.8315  2.8736
14618SOL     OW47255   3.778   9.470   0.097 -0.1983  0.2789  0.5650
14618SOL    HW147256   3.769   9.376   0.117 -0.0010  0.3143  0.8236
14618SOL    HW247257   3.707   9.511   0.146 -1.5470  0.0686 -1.1156
14619SOL     OW47258   4.415   1.859   7.799 -0.2492 -0.1399 -0.5931
14619SOL    HW147259   4.414   1.764   7.808  2.1226 -0.2618 -0.9973
14619SOL    HW247260   4.353   1.890   7.866 -0.4777 -1.9305  0.0751
14620SOL     OW47261   8.881   2.819  10.455  0.0918 -0.4156 -0.2911
14620SOL    HW147262   8.887   2.762  10.531  0.0944 -0.7470 -0.5386
14620SOL    HW247263   8.796   2.863  10.465  0.9803  1.1267  0.9994
14621SOL     OW47264   3.944   3.241   3.272 -0.1333  0.1526 -0.5491
14621SOL    HW147265   3.957   3.274   3.183 -0.5154  0.1471 -0.6097
14621SOL    HW247266   3.856   3.202   3.270  0.3481 -0.9855 -0.5280
14622SOL     OW47267   7.581   6.649   8.933  0.0279 -0.6645 -0.0426
14622SOL    HW147268   7.507   6.599   8.901 -0.8025  0.3440  0.2318
14622SOL    HW247269   7.593   6.620   9.024 -1.2231  0.4346  0.5152
14623SOL     OW47270   0.767   8.010   4.263 -0.5834  0.1134  0.5906
14623SOL    HW147271   0.792   7.917   4.267 -0.4923  0.0614 -0.5735
14623SOL    HW247272   0.830   8.054   4.319 -1.5159 -0.6785  2.3368
14624SOL     OW47273   9.532   9.456   6.235  0.2770  0.2468  0.1506
14624SOL    HW147274   9.566   9.483   6.150  1.0902 -3.2357 -0.8272
14624SOL    HW247275   9.451   9.409   6.214 -0.6206  1.1106  1.5466
14625SOL     OW47276   5.316   5.824   4.831 -0.5340 -0.9564 -0.0063
14625SOL    HW147277   5.374   5.756   4.866  0.4778  0.5176  1.3608
14625SOL    HW247278   5.301   5.883   4.905 -0.1452  1.1013 -1.4677
14626SOL     OW47279   7.211   7.974   2.030  0.1939  0.7409 -0.3945
14626SOL    HW147280   7.252   7.977   1.944 -1.8150 -1.1338 -1.5278
14626SOL    HW247281   7.256   7.903   2.075 -0.8366 -0.4450 -1.1561
14627SOL     OW47282  10.542   0.559  10.492 -0.2253 -0.5114 -0.0315
14627SOL    HW147283  10.455   0.536  10.461 -0.6417 -1.4001  1.6721
14627SOL    HW247284  10.600   0.540  10.418 -1.3786 -0.6696 -0.9157
14628SOL     OW47285   0.237   6.561   8.212 -0.2627  0.5283 -0.0413
14628SOL    HW147286   0.295   6.486   8.227 -0.9202 -0.4421 -1.9770
14628SOL    HW247287   0.288   6.620   8.156 -0.0349  1.2030  0.8439
14629SOL     OW47288   3.690   3.774   9.124 -0.5582 -0.4429 -0.4303
14629SOL    HW147289   3.623   3.762   9.057 -2.6638 -0.7944  1.5949
14629SOL    HW247290   3.654   3.841   9.182  0.5605 -1.0711  1.0686
14630SOL     OW47291   1.804   2.245   9.119  0.1935  0.4020 -0.3732
14630SOL    HW147292   1.865   2.208   9.056  0.3447 -0.4371  0.2486
14630SOL    HW247293   1.827   2.204   9.202  0.3186  1.8411  0.3406
14631SOL     OW47294   7.045   1.536   5.139 -0.7412  0.4642 -0.3050
14631SOL    HW147295   6.972   1.474   5.135  1.4991 -2.4832  0.5044
14631SOL    HW247296   7.105   1.507   5.070  1.3276  0.3597  1.4428
14632SOL     OW47297   3.502   9.357   6.704  0.1976 -0.1093  0.2981
14632SOL    HW147298   3.559   9.378   6.778 -0.6473 -2.0364  1.5650
14632SOL    HW247299   3.418   9.336   6.743 -0.5768 -0.1504 -1.3052
14633SOL     OW47300   2.891   7.102   0.654  0.1392 -0.8198 -0.6602
14633SOL    HW147301   2.985   7.119   0.652 -0.2850  1.9723 -2.3976
14633SOL    HW247302   2.852   7.183   0.687 -1.7125 -1.3769 -1.3369
14634SOL     OW47303  10.457   1.383   3.121  0.4722  0.5724 -0.4091
14634SOL    HW147304  10.531   1.330   3.091  0.2341 -0.0021  0.0198
14634SOL    HW247305  10.391   1.373   3.052  0.7670  1.0513 -0.7716
14635SOL     OW47306   5.327   8.507   4.857 -0.2630  0.5501  0.0669
14635SOL    HW147307   5.385   8.470   4.923  0.0797 -0.0835 -0.5772
14635SOL    HW247308   5.381   8.516   4.779 -0.1026  3.2079  0.3949
14636SOL     OW47309   7.824   3.684   8.230  0.0707 -0.3266  0.5859
14636SOL    HW147310   7.753   3.620   8.241 -0.5700  0.0151 -1.1449
14636SOL    HW247311   7.861   3.663   8.144  1.3442  0.2199  0.9813
14637SOL     OW47312   9.726  10.337   5.921 -0.3573 -0.2041  0.0164
14637SOL    HW147313   9.798  10.331   5.983 -1.4649 -0.4283  1.3454
14637SOL    HW247314   9.755  10.398   5.854  0.0918  1.7325  1.8956
14638SOL     OW47315   6.552   2.635   5.315 -0.2177  0.2342  0.0959
14638SOL    HW147316   6.556   2.724   5.350 -0.2868  0.4085 -0.3309
14638SOL    HW247317   6.512   2.645   5.228 -0.3784 -0.2321  0.1124
14639SOL     OW47318   5.408   5.540   5.466 -0.7236 -0.3211  0.4789
14639SOL    HW147319   5.343   5.557   5.535 -1.1444  0.0517 -0.0055
14639SOL    HW247320   5.378   5.592   5.392  1.0612  1.2296  0.7755
14640SOL     OW47321   4.884   5.101   1.023  0.0520  0.2579  0.4420
14640SOL    HW147322   4.818   5.073   1.087 -0.1500 -0.2889 -0.0016
14640SOL    HW247323   4.968   5.080   1.064 -0.0459  0.9682  1.0154
14641SOL     OW47324   3.752   9.813   8.667 -0.5138  0.6960 -1.0946
14641SOL    HW147325   3.743   9.855   8.582 -0.1347  1.2960 -0.8479
14641SOL    HW247326   3.757   9.719   8.648 -0.2282  0.8407 -1.7446
14642SOL     OW47327   2.253   6.552   8.897  0.0218 -0.2106  0.0809
14642SOL    HW147328   2.311   6.624   8.874 -1.9114  1.3144 -0.2663
14642SOL    HW247329   2.197   6.586   8.966 -1.9036 -0.8485 -1.0949
14643SOL     OW47330  10.073   5.987   0.710  0.0141  0.2392 -0.3109
14643SOL    HW147331  10.088   5.987   0.615 -0.6575 -0.1089 -0.4233
14643SOL    HW247332   9.977   5.986   0.719  0.0663  0.7881  0.3738
14644SOL     OW47333   3.428   6.276  10.866  0.3691  0.6245  0.6044
14644SOL    HW147334   3.336   6.266  10.887  0.7080 -0.1949  1.7972
14644SOL    HW247335   3.472   6.208  10.917  1.3348 -1.1671 -2.3564
14645SOL     OW47336   9.964   9.656   0.637 -0.0777 -0.5141  0.5978
14645SOL    HW147337   9.940   9.608   0.717 -0.5586 -0.5142  0.4598
14645SOL    HW247338  10.052   9.625   0.616  0.0963 -0.4380  1.1850
14646SOL     OW47339  10.419   9.052   8.866  0.0351  0.3237 -0.2655
14646SOL    HW147340  10.489   8.999   8.827 -0.6904 -1.1768  0.3481
14646SOL    HW247341  10.465   9.117   8.920  0.9699  0.4577 -1.1932
14647SOL     OW47342   9.077   4.806   2.847 -0.0478 -0.1983  0.3799
14647SOL    HW147343   9.143   4.792   2.914  1.0423 -3.2401 -1.1272
14647SOL    HW247344   9.001   4.839   2.895  1.0118 -1.2157  2.9361
14648SOL     OW47345   9.130   7.705   5.057  0.2128  0.3020  0.1891
14648SOL    HW147346   9.164   7.641   5.120  0.6989  0.7310  0.3710
14648SOL    HW247347   9.199   7.771   5.052  0.7367 -0.3325 -1.7209
14649SOL     OW47348   1.326   5.534  10.340  0.2614  0.0175  0.3489
14649SOL    HW147349   1.361   5.621  10.321  0.3801 -0.1620 -0.2635
14649SOL    HW247350   1.393   5.473  10.309  1.3172 -0.3084  2.9678
14650SOL     OW47351   1.990   4.523   0.587 -0.1865  0.3568  0.3831
14650SOL    HW147352   2.037   4.481   0.515 -1.2531 -1.8068  0.8718
14650SOL    HW247353   1.961   4.607   0.551 -1.1766 -0.8939 -1.9226
14651SOL     OW47354   5.448   9.328   0.218  0.1350  0.1157  0.0280
14651SOL    HW147355   5.424   9.262   0.153  0.7296 -0.0329 -0.0457
14651SOL    HW247356   5.540   9.310   0.238  0.0810  0.4292  0.5899
14652SOL     OW47357  10.838  10.737   3.598 -0.5086 -0.5126  0.3070
14652SOL    HW147358  10.781  10.662   3.617 -1.4490  0.2051  0.3618
14652SOL    HW247359  10.891  10.708   3.523 -2.0165 -0.6420 -0.7514
14653SOL     OW47360   7.286   0.423   0.021  0.1770  0.2500 -0.2798
14653SOL    HW147361   7.337   0.391  -0.054  0.9575 -1.0189  0.7587
14653SOL    HW247362   7.342   0.489   0.062  0.3271 -0.0241 -0.0410
14654SOL     OW47363   6.215   5.432   3.494 -0.2403  0.2004 -0.2338
14654SOL    HW147364   6.123   5.435   3.467  0.5997  0.8534 -3.4342
14654SOL    HW247365   6.254   5.510   3.454  2.0638 -1.0363 -0.5590
14655SOL     OW47366   5.595   2.411   7.018  0.2030  0.1442  0.0169
14655SOL    HW147367   5.690   2.420   7.009  0.2578  0.2153  0.6129
14655SOL    HW247368   5.581   2.319   7.039  0.1537  0.1607  0.0587
14656SOL     OW47369   4.874   2.121   5.187 -0.4102 -0.1149 -0.2917
14656SOL    HW147370   4.854   2.030   5.164 -1.8951  0.5697 -1.9659
14656SOL    HW247371   4.788   2.162   5.197  0.2316  0.8262  1.7865
14657SOL     OW47372   3.893   9.744   1.152 -0.3252  0.1831  0.3790
14657SOL    HW147373   3.841   9.807   1.202 -0.4840 -0.4056  0.9675
14657SOL    HW247374   3.828   9.686   1.112 -0.1445 -0.1386  0.5512
14658SOL     OW47375   7.622   3.955   9.814 -0.3442 -0.3264 -0.2907
14658SOL    HW147376   7.538   3.989   9.783 -1.0780 -1.3395  0.5139
14658SOL    HW247377   7.598   3.890   9.880  0.9700 -2.5399 -1.8795
14659SOL     OW47378   1.761   7.975   5.485  0.2406  0.3236 -0.1732
14659SOL    HW147379   1.815   7.898   5.467  0.2469 -0.0845  1.4334
14659SOL    HW247380   1.811   8.024   5.551 -0.2755  1.1569 -0.3874
14660SOL     OW47381   5.009   5.530   8.865 -0.0884  0.5935  1.0049
14660SOL    HW147382   4.924   5.524   8.821  1.4900 -3.5462 -2.1930
14660SOL    HW247383   4.994   5.497   8.953 -1.7351 -0.6863  0.2941
14661SOL     OW47384   4.066   9.212   4.079  0.1309  0.6481  0.2029
14661SOL    HW147385   3.996   9.157   4.044 -0.2335  0.2214  1.5814
14661SOL    HW247386   4.115   9.156   4.138  1.0758  1.2107 -0.0188
14662SOL     OW47387   3.355   3.493   6.104  0.2326 -0.1773  0.0345
14662SOL    HW147388   3.405   3.492   6.186  0.5157  2.1170 -0.0344
14662SOL    HW247389   3.375   3.409   6.062 -1.2461 -2.2185  3.0383
14663SOL     OW47390   8.210   7.349   0.989  0.4278 -0.1268 -0.1520
14663SOL    HW147391   8.144   7.390   0.933 -1.4235 -2.8027 -0.1292
14663SOL    HW247392   8.180   7.367   1.078 -0.1264 -1.0207 -0.1399
14664SOL     OW47393   4.687   8.822   7.416  0.4580 -0.3050 -0.0015
14664SOL    HW147394   4.667   8.862   7.331  0.2920 -2.2167 -0.9062
14664SOL    HW247395   4.618   8.856   7.474  0.2411  0.5985 -0.7501
14665SOL     OW47396   5.614   9.468   5.456  0.4384  0.0924 -0.6142
14665SOL    HW147397   5.537   9.424   5.491  2.0146 -2.2750  0.1361
14665SOL    HW247398   5.631   9.426   5.372  0.3131  1.3620 -1.3008
14666SOL     OW47399  10.186   1.210   3.745 -0.5128 -0.1693  0.3477
14666SOL    HW147400  10.192   1.177   3.655 -2.8545 -0.1238  0.1145
14666SOL    HW247401  10.148   1.297   3.735 -2.6512 -0.9096  1.4420
14667SOL     OW47402   1.797   7.531   9.498 -0.4842  0.0406  0.2076
14667SOL    HW147403   1.737   7.605   9.488 -1.9234 -1.0355  0.5565
14667SOL    HW247404   1.763   7.465   9.438  0.5470 -0.4831  0.1894
14668SOL     OW47405   4.220   2.905   3.032 -0.2716  0.7611 -0.0672
14668SOL    HW147406   4.152   2.906   3.099  0.9800  0.9689  1.2411
14668SOL    HW247407   4.241   2.813   3.020 -0.1191  0.7550  0.2370
14669SOL     OW47408   3.333  10.755   1.105  0.0115  0.1763  0.2062
14669SOL    HW147409   3.410  10.735   1.158 -0.4731  0.2616  0.9726
14669SOL    HW247410   3.305  10.671   1.070  0.5220  0.1643 -0.1827
14670SOL     OW47411   4.606   4.675   3.846 -0.1346 -0.2857  0.0266
14670SOL    HW147412   4.550   4.649   3.773 -1.6571  1.1495  0.5984
14670SOL    HW247413   4.629   4.766   3.828 -0.1895 -0.0408  1.1101
14671SOL     OW47414   0.349   0.922   1.452 -0.1318  0.5585  0.1484
14671SOL    HW147415   0.312   0.892   1.535 -0.0998 -1.1404 -0.4263
14671SOL    HW247416   0.439   0.948   1.474  0.3026 -1.0818  0.4482
14672SOL     OW47417   7.108   5.244   1.038  0.1930 -0.9926  0.2684
14672SOL    HW147418   7.176   5.310   1.049  0.0005 -0.9972  1.8173
14672SOL    HW247419   7.045   5.263   1.108 -0.0499 -2.5871  0.5244
14673SOL     OW47420   5.812   7.056   9.627 -0.7884 -0.4725 -0.4214
14673SOL    HW147421   5.899   7.016   9.621 -0.7790 -0.6657  0.7487
14673SOL    HW247422   5.759   6.992   9.674 -1.0845  0.3899  0.4528
14674SOL     OW47423   9.660  10.352   0.025  0.3234 -0.2625  0.2793
14674SOL    HW147424   9.632  10.282   0.084 -0.1449 -0.2517  0.0739
14674SOL    HW247425   9.730  10.313  -0.026 -0.1743 -0.6997 -0.0795
14675SOL     OW47426   4.336   1.392   1.488  0.0594 -0.1458  0.0715
14675SOL    HW147427   4.432   1.392   1.486  0.0503 -0.0754 -1.3091
14675SOL    HW247428   4.312   1.300   1.480  0.0083 -0.1887  0.6921
14676SOL     OW47429   3.241   2.835   4.388 -0.3174 -0.3165 -0.5507
14676SOL    HW147430   3.239   2.741   4.407 -3.3375 -0.0734  0.8508
14676SOL    HW247431   3.290   2.873   4.461  0.4569 -0.7249 -0.8465
14677SOL     OW47432   8.977   2.788   8.779  0.0555  0.4098 -0.2772
14677SOL    HW147433   8.912   2.753   8.718  0.6277  0.8995 -1.1841
14677SOL    HW247434   8.946   2.760   8.865  0.8676 -2.9399 -0.9605
14678SOL     OW47435   9.074   7.558   5.498  0.2984 -0.1658  0.5477
14678SOL    HW147436   9.107   7.500   5.429 -1.7090 -0.8532  0.1105
14678SOL    HW247437   9.103   7.646   5.472  2.0502 -0.7497  0.4048
14679SOL     OW47438   5.048   5.758  10.234  0.0715  0.3073 -0.3891
14679SOL    HW147439   4.982   5.771  10.167 -0.6357  0.4092  0.3199
14679SOL    HW247440   4.999   5.746  10.315  0.8994 -0.2034  0.0540
14680SOL     OW47441   3.667   9.973   7.581 -0.1394  0.9317  0.3655
14680SOL    HW147442   3.734  10.014   7.526 -0.1627  0.3770 -0.0805
14680SOL    HW247443   3.585  10.014   7.553 -0.2729  0.0017 -0.6672
14681SOL     OW47444   1.496  10.495  10.217  0.0409  0.7884 -0.2837
14681SOL    HW147445   1.590  10.491  10.198  0.2935  0.4195  0.9727
14681SOL    HW247446   1.491  10.498  10.313 -1.2575 -0.2082 -0.2908
14682SOL     OW47447   3.269   4.181   3.768  0.3955  0.0475  0.3588
14682SOL    HW147448   3.314   4.102   3.798  0.0934 -0.0030  0.6865
14682SOL    HW247449   3.223   4.214   3.846 -1.8369 -1.0581 -0.3857
14683SOL     OW47450   0.128   0.481   6.019 -0.1604 -0.2075 -0.0800
14683SOL    HW147451   0.187   0.543   6.061 -1.6320 -0.1120  1.9873
14683SOL    HW247452   0.186   0.417   5.976  1.3808  1.5608 -0.7752
14684SOL     OW47453   8.222   6.356   2.897 -0.1776 -0.0914 -0.4200
14684SOL    HW147454   8.276   6.433   2.878 -2.1604  1.4647 -0.0456
14684SOL    HW247455   8.213   6.356   2.993 -2.5667  0.9828 -0.5810
14685SOL     OW47456   6.609   5.678   4.010 -0.1155 -0.3722  0.0117
14685SOL    HW147457   6.525   5.633   4.024  1.5360 -3.0685  2.2512
14685SOL    HW247458   6.651   5.629   3.939  0.1152  0.1330 -0.2047
14686SOL     OW47459   1.476   4.243   7.637  0.1797 -0.5502  0.0714
14686SOL    HW147460   1.425   4.180   7.688  2.3291 -1.8757  0.7647
14686SOL    HW247461   1.415   4.278   7.573 -2.2568  0.0160  2.5007
14687SOL     OW47462   1.990   6.646   8.803  0.7971  0.5034 -0.1402
14687SOL    HW147463   1.970   6.615   8.891 -0.5876 -0.9422 -0.9157
14687SOL    HW247464   2.069   6.598   8.778  0.9013  0.5415  0.1137
14688SOL     OW47465   5.056   9.254   7.449 -0.3519 -0.1210  0.6833
14688SOL    HW147466   5.120   9.214   7.509 -1.4303 -1.6931  0.8604
14688SOL    HW247467   5.102   9.260   7.366  1.1086  1.9007  1.5513
14689SOL     OW47468   0.497   2.262   7.364  0.3196  1.0798 -0.1589
14689SOL    HW147469   0.549   2.303   7.432  1.3294  0.5303 -0.5725
14689SOL    HW247470   0.504   2.168   7.382 -1.6450  1.0279  0.5620
14690SOL     OW47471   5.353   4.625   9.723  0.2398 -0.1330  0.1198
14690SOL    HW147472   5.353   4.530   9.726 -0.6996 -0.1788 -0.7764
14690SOL    HW247473   5.391   4.652   9.806  2.5694 -1.2922 -0.4959
14691SOL     OW47474   9.806   2.602   4.839 -0.0503 -0.1370 -0.0949
14691SOL    HW147475   9.757   2.618   4.920 -1.7328  0.9650 -1.2412
14691SOL    HW247476   9.751   2.540   4.790  0.6417 -0.3319 -0.6313
14692SOL     OW47477   7.439   5.514   8.015  0.1820  0.0133 -0.0191
14692SOL    HW147478   7.468   5.599   7.981  1.0158 -0.1064  0.3721
14692SOL    HW247479   7.517   5.476   8.055  0.5545 -2.1215 -2.4769
14693SOL     OW47480   5.513   4.609   0.245  0.2560 -0.0991 -0.2224
14693SOL    HW147481   5.577   4.645   0.307 -1.7459  4.1375 -0.3124
14693SOL    HW247482   5.555   4.618   0.159  0.5041  0.2209 -0.0694
14694SOL     OW47483   5.050   5.902   7.997 -0.1662 -0.3289 -0.2208
14694SOL    HW147484   5.087   5.948   7.922  0.4779  1.0948  0.9270
14694SOL    HW247485   5.042   5.969   8.065 -2.3339 -1.1916  0.4582
14695SOL     OW47486  10.163   7.527   4.981  0.1548 -0.4044  0.5882
14695SOL    HW147487  10.219   7.530   5.058  1.1036  0.5168 -0.0977
14695SOL    HW247488  10.223   7.544   4.908 -1.2135  2.2165 -0.0463
14696SOL     OW47489   3.294   5.641   3.068  0.2900 -0.3570 -0.0720
14696SOL    HW147490   3.268   5.732   3.078 -1.6449 -0.6648 -1.7259
14696SOL    HW247491   3.321   5.614   3.156 -0.9541  1.2518  0.8551
14697SOL     OW47492   9.596   6.076   4.991  0.3247  0.3546  0.4255
14697SOL    HW147493   9.544   6.037   5.061  1.7212  0.4130  1.5435
14697SOL    HW247494   9.659   6.008   4.968 -0.6980 -0.0095 -1.4713
14698SOL     OW47495   9.244   6.369   8.030 -0.2113  0.0812  0.5280
14698SOL    HW147496   9.243   6.440   7.967 -0.9666 -1.6521 -1.5509
14698SOL    HW247497   9.289   6.297   7.985 -2.0543 -1.7069  1.3526
14699SOL     OW47498  10.286   9.933   5.899  0.0182  0.2061 -0.7412
14699SOL    HW147499  10.227   9.971   5.834  1.1849  0.5009 -1.6694
14699SOL    HW247500  10.301   9.844   5.868 -0.2994 -0.0186 -0.2541
14700SOL     OW47501   7.420   4.612   7.937  0.6755  0.1844  1.0592
14700SOL    HW147502   7.452   4.522   7.940  1.6737  0.2996 -2.2582
14700SOL    HW247503   7.483   4.662   7.989  1.3766 -0.6985  1.0816
14701SOL     OW47504  10.824   6.164  10.079 -0.4709  0.0306 -0.4256
14701SOL    HW147505  10.826   6.229  10.010  0.6942 -0.4067 -0.8223
14701SOL    HW247506  10.744   6.184  10.129 -1.6525 -0.0169 -2.2230
14702SOL     OW47507   5.107   6.038   3.507 -0.3206 -0.1438  0.5491
14702SOL    HW147508   5.102   6.125   3.467  0.7037  0.3849  1.5189
14702SOL    HW247509   5.052   6.043   3.584  0.7959  0.0869  1.3525
14703SOL     OW47510   2.204   4.842   9.140 -0.0972 -0.0271  0.1913
14703SOL    HW147511   2.216   4.912   9.076 -2.0282  0.3968  0.2450
14703SOL    HW247512   2.222   4.762   9.091  0.8159  0.4205 -0.2302
14704SOL     OW47513   1.389   6.070   2.038 -0.4113 -0.0002 -0.6281
14704SOL    HW147514   1.483   6.086   2.024 -0.7314  2.2601 -0.5093
14704SOL    HW247515   1.366   6.005   1.971  0.7775  1.1277 -2.2158
14705SOL     OW47516   3.208  10.556   1.479  0.2684 -0.2638  0.0149
14705SOL    HW147517   3.285  10.613   1.480  0.6589 -0.7832  0.4804
14705SOL    HW247518   3.135  10.615   1.463  0.8100  0.1806 -0.9071
14706SOL     OW47519   9.063   4.890   6.078 -0.0817 -0.1668  0.2038
14706SOL    HW147520   8.990   4.923   6.130 -1.4277 -0.9544 -1.0795
14706SOL    HW247521   9.087   4.807   6.119  0.0574  0.0624  0.5904
14707SOL     OW47522   9.858   2.868   9.344  0.1266 -0.4293  0.1026
14707SOL    HW147523   9.948   2.869   9.375  0.8596 -1.8123 -1.7771
14707SOL    HW247524   9.823   2.954   9.367  0.9890 -0.7914  3.3131
14708SOL     OW47525   8.157   5.737   3.645  0.3396 -0.3150  0.0619
14708SOL    HW147526   8.137   5.823   3.683  0.1411  1.4273 -3.5837
14708SOL    HW247527   8.252   5.730   3.649  0.2850 -0.6280  1.5885
14709SOL     OW47528   2.720   2.165   3.647  0.3946  0.0718 -0.1001
14709SOL    HW147529   2.641   2.155   3.701 -0.6646 -1.1006 -1.7526
14709SOL    HW247530   2.708   2.249   3.604  0.3165  0.1552  0.0823
14710SOL     OW47531   9.805  10.638   9.663  0.1376  0.1228  0.3539
14710SOL    HW147532   9.811  10.709   9.727  1.2568 -0.2924  0.7391
14710SOL    HW247533   9.806  10.558   9.715 -1.9187 -0.1950 -0.0295
14711SOL     OW47534   5.949   3.893   0.134  0.1390  0.0452  0.5365
14711SOL    HW147535   5.881   3.843   0.091  0.4814  1.0212 -1.2202
14711SOL    HW247536   6.022   3.831   0.144 -0.1203 -0.3242  0.1646
14712SOL     OW47537   2.761   0.869   4.805 -0.1208  0.5066 -0.2165
14712SOL    HW147538   2.838   0.824   4.841  0.8404  2.2593  0.0317
14712SOL    HW247539   2.792   0.907   4.723 -1.3219 -0.4662 -1.1554
14713SOL     OW47540   2.396   3.390   3.975 -0.1880 -0.1684  0.3347
14713SOL    HW147541   2.303   3.413   3.979  0.1712  1.5617 -0.4124
14713SOL    HW247542   2.440   3.470   3.948  1.2628 -1.5685 -1.8634
14714SOL     OW47543   8.051   0.519   8.044 -0.2900 -0.0641  0.5414
14714SOL    HW147544   8.065   0.432   8.082  0.3779  0.6531  1.9879
14714SOL    HW247545   8.017   0.572   8.116 -0.8765  0.8429 -0.3694
14715SOL     OW47546   8.119   2.941   9.347 -0.3740 -0.9465 -0.6200
14715SOL    HW147547   8.144   2.918   9.258 -0.7205  0.2457 -1.0541
14715SOL    HW247548   8.028   2.973   9.339 -0.1206 -0.0163 -0.0024
14716SOL     OW47549   3.944   1.307   3.594  0.5947  0.3941  0.2526
14716SOL    HW147550   3.997   1.232   3.621  0.1972  0.0203  0.0108
14716SOL    HW247551   3.999   1.383   3.610  0.2365  0.2323  2.4821
14717SOL     OW47552   3.725   9.965   2.569  0.6356 -0.6587  0.9356
14717SOL    HW147553   3.681   9.919   2.498  0.6107  1.2769 -0.3843
14717SOL    HW247554   3.664  10.034   2.595  0.8567 -1.0153  2.5342
14718SOL     OW47555   8.669   7.691   3.060  0.4462 -0.2994  0.0300
14718SOL    HW147556   8.607   7.699   3.133 -0.6290 -0.1113 -0.8629
14718SOL    HW247557   8.646   7.607   3.019  0.3389  0.0741 -0.6959
14719SOL     OW47558   2.034   6.834   0.935  0.0403  0.5666 -0.3350
14719SOL    HW147559   2.086   6.886   0.875  0.0133 -0.7195 -1.5250
14719SOL    HW247560   2.087   6.756   0.953 -0.5988  0.2141  0.0837
14720SOL     OW47561   0.018   6.494   7.940 -0.2433  0.5422  0.5487
14720SOL    HW147562   0.105   6.489   7.981  0.1329  0.4915 -0.2395
14720SOL    HW247563   0.033   6.466   7.850 -1.1918 -0.0562  0.5623
14721SOL     OW47564   9.040   2.065   8.508  0.5374  0.5738  0.1803
14721SOL    HW147565   8.981   2.049   8.582  1.0852 -0.4603  0.4203
14721SOL    HW247566   9.113   2.113   8.546  0.0632  1.4865 -0.0335
14722SOL     OW47567   8.172   5.500   7.037 -0.1383 -0.5179  0.2294
14722SOL    HW147568   8.105   5.458   6.982 -0.3985 -1.8521  1.4819
14722SOL    HW247569   8.133   5.500   7.125  0.6899  0.5835  0.6086
14723SOL     OW47570  10.755   8.995   6.735 -0.7432  1.1571  0.1400
14723SOL    HW147571  10.803   8.983   6.818 -1.9658 -3.6753  0.4173
14723SOL    HW247572  10.796   9.072   6.696  3.7683  0.4458  2.6677
14724SOL     OW47573   3.672   5.285   4.381 -0.0307 -0.2299 -0.0490
14724SOL    HW147574   3.681   5.190   4.388 -0.7798 -0.4777 -1.9048
14724SOL    HW247575   3.756   5.320   4.411  0.6282 -1.5168 -0.3323
14725SOL     OW47576   7.592   4.740   8.104 -0.1847 -0.3278  0.3689
14725SOL    HW147577   7.632   4.792   8.033  2.5301 -2.5896  0.0471
14725SOL    HW247578   7.657   4.743   8.174 -0.1915 -2.7177  0.5438
14726SOL     OW47579   3.391   7.786   1.230 -0.3621 -0.1254 -0.0852
14726SOL    HW147580   3.312   7.733   1.232 -0.0129 -0.6969 -0.9366
14726SOL    HW247581   3.365   7.870   1.267 -1.2334 -0.4838  0.1171
14727SOL     OW47582   8.146   4.263   6.279  0.1759 -0.1393  0.2974
14727SOL    HW147583   8.078   4.199   6.299  0.5957 -0.1772  1.7408
14727SOL    HW247584   8.100   4.347   6.282 -0.4679 -0.3390 -2.0336
14728SOL     OW47585   7.320   9.512   1.401  0.3650  0.1659  0.9515
14728SOL    HW147586   7.272   9.438   1.365 -0.5463  1.4338 -0.5468
14728SOL    HW247587   7.258   9.553   1.462 -1.3446  2.8217 -2.2440
14729SOL     OW47588   6.032   0.180   6.561  0.1295  0.3957  0.4917
14729SOL    HW147589   6.054   0.088   6.549 -0.7384  0.3424 -0.7631
14729SOL    HW247590   5.944   0.179   6.598  0.3852  0.7254  1.1376
14730SOL     OW47591  10.413   9.783   1.000  0.4481 -0.2884  0.3032
14730SOL    HW147592  10.342   9.720   1.017  0.1645 -0.9463 -2.6392
14730SOL    HW247593  10.368   9.867   0.990  0.2314 -0.4459 -0.1019
14731SOL     OW47594   0.044   0.894   1.468 -0.0866 -0.8911 -0.0418
14731SOL    HW147595  -0.040   0.852   1.488 -0.1665 -0.4912  0.4662
14731SOL    HW247596   0.096   0.882   1.547 -0.5302  1.0156  0.5955
14732SOL     OW47597   4.231   9.518   7.520  0.0068  0.0472  0.5263
14732SOL    HW147598   4.208   9.425   7.527  0.3442 -0.2340 -1.4874
14732SOL    HW247599   4.147   9.563   7.513 -0.1267 -0.2883 -0.1067
14733SOL     OW47600   3.970   4.288   2.736  0.5277  0.0868  0.0824
14733SOL    HW147601   3.992   4.303   2.828  0.3205  0.1109  0.1278
14733SOL    HW247602   3.981   4.194   2.724 -2.1896 -0.4211  0.8705
14734SOL     OW47603   7.354  10.051   6.688 -0.1294 -0.5501 -0.4117
14734SOL    HW147604   7.316  10.052   6.600 -3.0671  0.6868  0.7264
14734SOL    HW247605   7.319   9.972   6.728  0.1353 -0.4377  0.0536
14735SOL     OW47606  10.753   9.187   1.155  0.1353  0.0261  0.1641
14735SOL    HW147607  10.679   9.248   1.158  1.1278  1.2687 -0.1340
14735SOL    HW247608  10.796   9.198   1.240 -0.1863 -0.9322  0.4664
14736SOL     OW47609   1.405   5.245   8.886  0.4425  0.0209 -0.0309
14736SOL    HW147610   1.415   5.217   8.795  0.6557  0.5130 -0.1596
14736SOL    HW247611   1.333   5.309   8.884 -0.2360 -0.7036  0.3059
14737SOL     OW47612   0.749   2.448   8.305  0.2183 -0.2023 -0.3224
14737SOL    HW147613   0.791   2.449   8.219  0.5412 -1.2590 -0.1856
14737SOL    HW247614   0.813   2.487   8.364  0.2867 -0.1503 -0.4322
14738SOL     OW47615   1.622   4.418   8.200  0.0561  0.3404  0.2412
14738SOL    HW147616   1.700   4.468   8.223  0.5296  0.7665 -2.0486
14738SOL    HW247617   1.646   4.372   8.120 -1.2470 -1.5159  0.8647
14739SOL     OW47618   0.606   1.575   3.722  0.4447 -0.5483  0.3542
14739SOL    HW147619   0.648   1.590   3.637  2.6467  1.6540  1.6609
14739SOL    HW247620   0.513   1.588   3.705  1.0829  3.7861 -1.1482
14740SOL     OW47621   0.130   1.082   3.039 -0.2059  0.4884  0.2887
14740SOL    HW147622   0.197   1.116   2.980  0.5198 -1.5581 -0.1616
14740SOL    HW247623   0.179   1.031   3.104 -1.3078 -1.3219 -0.2453
14741SOL     OW47624   9.866   7.314   9.691 -0.1226  0.5192 -0.2476
14741SOL    HW147625   9.809   7.237   9.700 -0.0245  0.5010  0.2564
14741SOL    HW247626   9.951   7.278   9.665  0.1636  0.3689  0.8636
14742SOL     OW47627   9.484   7.815  10.240 -0.3852  0.2632 -0.6103
14742SOL    HW147628   9.457   7.727  10.214 -0.0810 -0.3761  1.1155
14742SOL    HW247629   9.430   7.835  10.316  0.8005  0.8478  0.1022
14743SOL     OW47630   5.155   9.933   3.264 -0.4040  0.6178  0.4118
14743SOL    HW147631   5.142   9.946   3.358 -0.2042  1.3383  0.3467
14743SOL    HW247632   5.144   9.839   3.251  0.4066  0.3863  1.2908
14744SOL     OW47633   0.899   9.183   0.966  0.5503 -0.3544 -0.1324
14744SOL    HW147634   0.933   9.149   1.049  2.1669  1.1865 -0.0847
14744SOL    HW247635   0.868   9.270   0.987  2.7891  0.8523 -1.4243
14745SOL     OW47636   9.425   8.309   0.591  0.2669 -0.4381  0.1877
14745SOL    HW147637   9.520   8.306   0.594  0.4768  2.1789 -0.8832
14745SOL    HW247638   9.398   8.219   0.574  2.6862 -0.9215 -1.6609
14746SOL     OW47639   5.359   5.164   6.637  0.5498 -0.2286 -0.2268
14746SOL    HW147640   5.314   5.190   6.556 -0.2503 -0.6667  0.0759
14746SOL    HW247641   5.311   5.088   6.668  0.9008 -0.1078  0.6323
14747SOL     OW47642   4.762   5.352   9.027 -0.4311  0.1135  0.2045
14747SOL    HW147643   4.830   5.414   9.053  0.3540 -1.1012  1.2020
14747SOL    HW247644   4.681   5.403   9.026  0.2749  1.2573  0.4929
14748SOL     OW47645   0.577   2.755  10.613 -0.2335  0.2318 -0.7549
14748SOL    HW147646   0.568   2.850  10.626  1.4302  0.4171 -0.8352
14748SOL    HW247647   0.552   2.741  10.522  2.4139  1.0816 -1.7009
14749SOL     OW47648   4.039   9.510   5.088  0.1869 -0.1963  0.9677
14749SOL    HW147649   4.055   9.448   5.016  0.0342  0.4545  0.3669
14749SOL    HW247650   4.019   9.593   5.044  0.0089  0.1864  1.7646
14750SOL     OW47651   1.956   1.773   8.249 -0.3745 -0.2262 -0.6298
14750SOL    HW147652   2.002   1.836   8.193 -0.0875 -0.0054 -0.1484
14750SOL    HW247653   1.996   1.689   8.228 -0.5454 -0.2098 -1.0495
14751SOL     OW47654   3.300   1.105   8.045 -0.5866 -0.4410  0.1839
14751SOL    HW147655   3.285   1.129   7.953 -1.6581 -0.7453  0.2584
14751SOL    HW247656   3.296   1.188   8.092  0.7191 -0.1860 -0.1106
14752SOL     OW47657  10.910   1.494   1.172 -0.1903  0.1412 -0.2680
14752SOL    HW147658  10.962   1.575   1.169  0.3052 -0.1923 -0.7651
14752SOL    HW247659  10.936   1.446   1.093  0.4809 -1.0994  0.6752
14753SOL     OW47660   6.053   6.685   2.779 -0.5037  0.0027  0.2981
14753SOL    HW147661   6.139   6.687   2.822  0.2747  0.5231 -1.2069
14753SOL    HW247662   6.026   6.777   2.777  0.4259  0.2918 -2.0630
14754SOL     OW47663  10.225   0.881   2.024  0.1226  0.1462  0.3947
14754SOL    HW147664  10.205   0.975   2.023 -0.9748 -0.0727 -0.1274
14754SOL    HW247665  10.286   0.870   2.097 -0.1449  1.1922  0.7911
14755SOL     OW47666   7.071   9.329   4.500  0.1498  0.0340 -0.5436
14755SOL    HW147667   7.105   9.344   4.412 -1.5123 -0.9466 -1.4133
14755SOL    HW247668   6.977   9.341   4.491 -0.1380 -0.9279  0.8962
14756SOL     OW47669   1.319   7.328   0.460  0.2316 -0.4216 -0.1367
14756SOL    HW147670   1.364   7.299   0.380 -1.1763  0.1738 -1.2014
14756SOL    HW247671   1.313   7.249   0.514  3.3654 -0.3155  0.5260
14757SOL     OW47672   7.586   6.978   1.404 -0.3091 -0.2432  0.6212
14757SOL    HW147673   7.628   7.033   1.471  0.6808 -2.1466  1.6532
14757SOL    HW247674   7.658   6.951   1.347 -0.9840  0.4949 -0.6134
14758SOL     OW47675   1.736   3.079   3.662 -0.1259  0.2128 -0.1483
14758SOL    HW147676   1.677   3.123   3.723 -0.7671 -1.5062  0.5380
14758SOL    HW247677   1.737   3.135   3.585 -2.4142  0.4835 -0.0505
14759SOL     OW47678   0.057  10.914   5.575  0.4169 -0.3153 -0.6726
14759SOL    HW147679   0.069  10.973   5.649 -0.4546 -0.9995  0.0391
14759SOL    HW247680   0.108  10.953   5.504 -0.6535  1.6352 -0.4382
14760SOL     OW47681   5.001   2.999   5.482 -0.2395  0.4125  0.1476
14760SOL    HW147682   4.993   2.986   5.387 -0.1473 -1.6562  0.3772
14760SOL    HW247683   4.926   3.054   5.505 -0.1751  1.0752 -1.1302
14761SOL     OW47684   0.894   0.247   3.286  0.1810 -0.2365  0.1159
14761SOL    HW147685   0.915   0.303   3.361 -0.7143 -1.3371  1.2226
14761SOL    HW247686   0.974   0.197   3.271  0.4434  0.1587  0.1701
14762SOL     OW47687   4.997   2.561   5.720  0.3405 -0.0200  0.6947
14762SOL    HW147688   5.033   2.603   5.643 -0.7275  2.0110  1.2268
14762SOL    HW247689   5.060   2.579   5.790 -0.5372  1.6047  1.1265
14763SOL     OW47690   7.538   1.366   0.585 -0.3255  0.1097 -0.7670
14763SOL    HW147691   7.554   1.458   0.609  0.0084 -0.3070  0.7020
14763SOL    HW247692   7.583   1.356   0.500  1.2198  0.8324 -0.0863
14764SOL     OW47693  10.293   9.379   6.918 -0.3597 -0.6623 -0.5250
14764SOL    HW147694  10.246   9.389   6.835  0.0930 -1.0674 -0.8345
14764SOL    HW247695  10.379   9.346   6.893 -0.2971 -1.0057  0.1306
14765SOL     OW47696   6.835   9.612   0.922  0.3834  0.0276  0.4427
14765SOL    HW147697   6.854   9.575   1.008  0.9156  2.6347  1.5328
14765SOL    HW247698   6.765   9.675   0.938  0.6001  0.6845 -1.0063
14766SOL     OW47699  10.358   7.911   6.092 -0.1197 -0.3421 -0.4291
14766SOL    HW147700  10.444   7.883   6.124 -0.1545 -1.0689 -0.9526
14766SOL    HW247701  10.300   7.838   6.111 -0.8278  0.4797  0.6986
14767SOL     OW47702   8.258   0.596  10.511 -0.0667  0.7357 -0.8543
14767SOL    HW147703   8.223   0.507  10.507  0.0027  0.7476 -1.8710
14767SOL    HW247704   8.352   0.586  10.493 -0.1041  1.0407 -1.2294
14768SOL     OW47705   3.591   8.194   6.980  0.3628  0.4987  0.3872
14768SOL    HW147706   3.596   8.220   7.072 -1.1872 -1.6603  1.1802
14768SOL    HW247707   3.656   8.124   6.970  0.1848  0.3835 -0.0167
14769SOL     OW47708   4.339   5.740   1.689  0.0058  0.2816 -0.2615
14769SOL    HW147709   4.317   5.784   1.607 -1.2410 -0.6895 -0.4819
14769SOL    HW247710   4.294   5.790   1.756 -0.1565  0.2293 -0.3324
14770SOL     OW47711   2.225   1.952  10.446  0.1039  0.1309  0.1929
14770SOL    HW147712   2.319   1.944  10.459  0.0172 -2.4647 -0.3480
14770SOL    HW247713   2.188   1.873  10.484 -1.6709  0.2734 -1.1094
14771SOL     OW47714   6.107   9.563  10.196 -0.0233 -0.5724 -0.3587
14771SOL    HW147715   6.062   9.647  10.194  0.0895 -0.4720  0.7947
14771SOL    HW247716   6.045   9.502  10.235  0.2323 -0.8160 -0.3240
14772SOL     OW47717  10.655   6.390   1.350 -0.0407  0.1376  0.0871
14772SOL    HW147718  10.617   6.448   1.417 -0.7824 -0.5039  0.2413
14772SOL    HW247719  10.665   6.446   1.273  0.6549  0.8426  0.6649
14773SOL     OW47720   8.333   8.570   9.133  0.0162  0.1391  0.3246
14773SOL    HW147721   8.260   8.555   9.072 -0.5678 -0.2765  1.1001
14773SOL    HW247722   8.396   8.622   9.084  1.0790 -2.8442 -1.7750
14774SOL     OW47723   4.819   1.122   9.983 -0.5745 -0.3018  0.2315
14774SOL    HW147724   4.765   1.189  10.025  0.1824  0.4535  0.0284
14774SOL    HW247725   4.761   1.047   9.974 -1.4008  0.2754  0.6033
14775SOL     OW47726   9.278   2.368   7.312 -0.4865 -0.0196 -0.9298
14775SOL    HW147727   9.304   2.437   7.373  0.9844 -1.8531  0.6687
14775SOL    HW247728   9.184   2.378   7.304 -0.5864  0.9940  0.7931
14776SOL     OW47729   9.632   4.471   8.185 -0.3656  0.0424  0.6537
14776SOL    HW147730   9.601   4.517   8.264  0.4632  0.2725  0.8573
14776SOL    HW247731   9.627   4.378   8.208 -0.9140  0.0733  0.6741
14777SOL     OW47732  10.364   5.292   0.544 -0.7771 -0.2384  0.1287
14777SOL    HW147733  10.404   5.361   0.598  0.2408  0.4215 -1.3670
14777SOL    HW247734  10.435   5.229   0.530 -1.4345 -1.1281  0.6910
14778SOL     OW47735   2.704   5.120   9.276 -0.4485  0.2098 -0.3501
14778SOL    HW147736   2.670   5.071   9.351 -1.2122  1.5202  0.1934
14778SOL    HW247737   2.769   5.062   9.237 -0.3417 -0.6860  1.0817
14779SOL     OW47738   2.933   5.907   4.829  0.1242  0.3734  0.0699
14779SOL    HW147739   2.981   5.839   4.876  0.4040  0.5181 -0.0101
14779SOL    HW247740   2.866   5.859   4.780  0.6980  0.1068 -0.4520
14780SOL     OW47741   7.091   9.021   4.063 -0.4455 -0.0369  0.6535
14780SOL    HW147742   7.039   8.977   3.995 -2.1536  0.3399  1.6886
14780SOL    HW247743   7.147   8.951   4.098  1.6668  0.0718 -2.1580
14781SOL     OW47744   9.619   6.377   5.006 -0.6431 -0.4541 -0.0487
14781SOL    HW147745   9.618   6.281   5.005 -0.2883 -0.4684 -1.2968
14781SOL    HW247746   9.558   6.402   4.937 -0.2170  0.1992 -0.1982
14782SOL     OW47747  10.505   7.746   8.244  0.0233 -0.1792  0.2254
14782SOL    HW147748  10.515   7.841   8.239  0.5766 -0.0954  2.1202
14782SOL    HW247749  10.462   7.722   8.162  0.6657  1.5860 -0.6782
14783SOL     OW47750   1.632   5.340   4.451 -0.5610 -0.7036  0.7585
14783SOL    HW147751   1.540   5.337   4.476 -0.9817 -1.3298 -0.7822
14783SOL    HW247752   1.668   5.413   4.501 -2.5097  1.3511 -0.6641
14784SOL     OW47753   3.555   2.810   2.686 -0.0938  0.0030 -0.2056
14784SOL    HW147754   3.482   2.869   2.702  0.2208  0.4391 -0.3514
14784SOL    HW247755   3.574   2.820   2.593 -0.4799 -0.8453 -0.3850
14785SOL     OW47756   4.474   1.902   8.846 -0.6652 -0.0361 -0.2933
14785SOL    HW147757   4.487   1.995   8.824 -0.0729 -0.3343 -1.2507
14785SOL    HW247758   4.403   1.903   8.910 -0.7290  1.0784 -0.3539
14786SOL     OW47759   0.818   6.484   8.379 -0.5598 -0.2609  0.6766
14786SOL    HW147760   0.876   6.411   8.400  0.9248  0.2239 -1.4481
14786SOL    HW247761   0.850   6.557   8.432 -1.4963 -0.8514  2.1367
14787SOL     OW47762   7.808   9.840  10.034  0.1074 -0.7418 -0.3594
14787SOL    HW147763   7.855   9.806  10.110 -0.3102 -0.8589 -0.1456
14787SOL    HW247764   7.731   9.883  10.071 -0.5770 -1.5908 -0.7638
14788SOL     OW47765   9.758   5.897   1.376  0.2077 -0.2004 -0.3215
14788SOL    HW147766   9.699   5.969   1.352 -0.3760 -0.5616 -0.0104
14788SOL    HW247767   9.751   5.835   1.304  2.4617  1.0381 -1.7275
14789SOL     OW47768   1.479   7.854   0.803 -0.2693  0.0522 -0.4718
14789SOL    HW147769   1.444   7.766   0.820  1.0622 -0.5457 -0.7429
14789SOL    HW247770   1.422   7.912   0.854  0.3544 -1.1891  1.8183
14790SOL     OW47771   0.422   2.694   3.022  0.1028  0.4780  0.0000
14790SOL    HW147772   0.346   2.745   3.051 -0.7454 -0.3498 -0.7091
14790SOL    HW247773   0.394   2.603   3.030  0.8453  0.1776 -0.7467
14791SOL     OW47774   6.583   1.383   1.186 -0.3691  0.2637  0.0678
14791SOL    HW147775   6.633   1.433   1.250  2.0808 -0.2277 -1.3529
14791SOL    HW247776   6.558   1.448   1.120  0.3652  0.1268 -0.3520
14792SOL     OW47777  10.047   9.786   3.042  0.5307  0.0176 -0.2259
14792SOL    HW147778  10.051   9.862   3.101  1.7634  1.0975 -1.6141
14792SOL    HW247779  10.133   9.746   3.047  0.8205  0.4069 -1.6015
14793SOL     OW47780   1.514   0.826   2.459  0.2968 -0.6240  0.7312
14793SOL    HW147781   1.476   0.754   2.409  0.8166 -0.3113 -0.1224
14793SOL    HW247782   1.461   0.903   2.435  2.1360  0.0639 -1.3852
14794SOL     OW47783   8.728  10.066   6.454 -0.1951  0.0228  0.9603
14794SOL    HW147784   8.644  10.095   6.419  0.4402  1.5422  0.6563
14794SOL    HW247785   8.748   9.987   6.404 -0.8140  0.3865  0.1069
14795SOL     OW47786   4.866   2.382  10.036  0.6790  0.3376 -0.0610
14795SOL    HW147787   4.955   2.359  10.062 -0.3466 -1.7989  1.8811
14795SOL    HW247788   4.854   2.343   9.950  1.3912 -0.0095 -0.0027
14796SOL     OW47789   6.413   4.484  10.460 -0.5649  0.2738 -0.5276
14796SOL    HW147790   6.371   4.433  10.530 -0.4948  0.5185 -0.3054
14796SOL    HW247791   6.371   4.454  10.380 -0.9082  0.2525 -0.3415
14797SOL     OW47792   7.802   1.667   8.304 -0.0787 -0.7312 -0.1339
14797SOL    HW147793   7.770   1.749   8.265  0.2181  1.0467  2.9711
14797SOL    HW247794   7.808   1.606   8.231 -2.1039  1.4500 -2.3126
14798SOL     OW47795   8.230   5.780   3.063 -0.5971 -0.2139 -0.4666
14798SOL    HW147796   8.158   5.840   3.079 -2.7227 -2.8212  0.4906
14798SOL    HW247797   8.188   5.698   3.035  1.9530 -1.9163  0.2719
14799SOL     OW47798   0.316   8.836   5.783 -0.4139 -0.0160  1.0231
14799SOL    HW147799   0.232   8.791   5.775  0.2454 -1.1828  0.4005
14799SOL    HW247800   0.363   8.787   5.850  1.1256 -1.6406 -1.1322
14800SOL     OW47801   7.419   1.713   2.199 -0.0804  0.5216  0.3631
14800SOL    HW147802   7.405   1.664   2.280 -0.6542  2.1891  1.3296
14800SOL    HW247803   7.451   1.648   2.137  2.8083 -0.3917  2.5837
14801SOL     OW47804   5.018   2.422   7.449  0.2969  0.3930 -0.2506
14801SOL    HW147805   4.982   2.509   7.465 -0.3435  0.1439 -0.2860
14801SOL    HW247806   5.037   2.421   7.355  1.8554  1.0511  0.0364
14802SOL     OW47807   6.403   6.998   3.755  0.0896 -0.1150 -0.2207
14802SOL    HW147808   6.391   7.085   3.793 -0.8492 -0.5431  0.5301
14802SOL    HW247809   6.318   6.978   3.715  0.7348 -0.1168 -1.6281
14803SOL     OW47810   0.595   5.170   0.234  0.0699  0.0681  0.2081
14803SOL    HW147811   0.572   5.133   0.150 -0.8886  1.7700 -0.3303
14803SOL    HW247812   0.682   5.209   0.221 -1.0149  2.3794 -0.7757
14804SOL     OW47813  10.832   2.617   5.348  0.4012  0.3833  0.1504
14804SOL    HW147814  10.820   2.538   5.401 -1.1494  0.6297  0.2051
14804SOL    HW247815  10.747   2.631   5.306  0.6182  2.0524  0.1910
14805SOL     OW47816   2.919   5.738   0.831 -0.1001  0.1125  0.0752
14805SOL    HW147817   2.995   5.706   0.880  0.7638 -1.0027 -1.8908
14805SOL    HW247818   2.846   5.684   0.863 -0.1964  1.3922  2.1942
14806SOL     OW47819   6.473   7.999   1.952 -0.3210 -0.0319 -0.0651
14806SOL    HW147820   6.420   7.994   1.872 -0.8209  0.7168  0.2099
14806SOL    HW247821   6.431   7.938   2.012 -2.0113  1.8368  0.7760
14807SOL     OW47822   2.226   1.590   6.604  0.5773 -0.3302  0.3433
14807SOL    HW147823   2.158   1.549   6.550  0.1283  0.6134  0.1676
14807SOL    HW247824   2.191   1.677   6.624  0.4152 -0.8719  2.7500
14808SOL     OW47825   4.506   5.289   2.720  0.5291  0.1165 -0.2091
14808SOL    HW147826   4.543   5.201   2.709 -0.1459 -0.2806  0.5476
14808SOL    HW247827   4.415   5.273   2.746 -0.1428  1.0638 -1.8806
14809SOL     OW47828   4.072   2.002   4.322  0.1543 -0.7186  0.0020
14809SOL    HW147829   4.059   1.914   4.285  1.2091 -0.8260 -0.1431
14809SOL    HW247830   3.989   2.047   4.307 -1.0351 -2.2216  1.5781
14810SOL     OW47831   8.228   8.839   3.112  0.1306  0.2179  0.2814
14810SOL    HW147832   8.214   8.927   3.145 -1.7226  0.7988 -1.7831
14810SOL    HW247833   8.146   8.792   3.131  0.9165 -0.9292  0.9438
14811SOL     OW47834   9.207   1.026   9.575 -0.7943  0.5711 -0.0829
14811SOL    HW147835   9.260   1.056   9.501  2.2199  3.2602  2.8602
14811SOL    HW247836   9.131   1.083   9.575 -2.3694 -1.3081 -2.5551
14812SOL     OW47837   5.849   0.799   5.924  0.3456 -0.0966  0.3600
14812SOL    HW147838   5.788   0.841   5.863  1.6558  2.5007  0.7180
14812SOL    HW247839   5.793   0.742   5.978 -1.4515  0.7353 -0.5479
14813SOL     OW47840   8.939   9.351   1.298  0.2295  0.3576 -0.1853
14813SOL    HW147841   8.945   9.351   1.393  0.5192  2.5478 -0.1679
14813SOL    HW247842   8.853   9.312   1.280 -0.4296  1.1737  1.0391
14814SOL     OW47843   3.889   1.895   0.405  0.2871 -0.1002  0.6657
14814SOL    HW147844   3.933   1.969   0.362 -2.0196 -0.9805 -3.8012
14814SOL    HW247845   3.946   1.820   0.387 -0.3057 -0.3413 -0.2850
14815SOL     OW47846   9.219   9.664   1.359  0.0183 -0.1660 -0.0333
14815SOL    HW147847   9.254   9.749   1.332 -0.2974  0.5718  1.7396
14815SOL    HW247848   9.266   9.643   1.439 -0.5455 -1.2480  0.0353
14816SOL     OW47849   7.328   0.307   2.845 -0.0867 -0.1960  0.2631
14816SOL    HW147850   7.394   0.375   2.850  0.5350 -0.6851 -1.0126
14816SOL    HW247851   7.299   0.307   2.754 -1.6246 -0.2181  0.7154
14817SOL     OW47852   5.515   5.907   8.302  0.4186  0.0340  0.8000
14817SOL    HW147853   5.549   5.971   8.364  2.2996 -1.3936  1.3229
14817SOL    HW247854   5.563   5.924   8.221 -0.0248  0.1103  0.5506
14818SOL     OW47855  10.723   1.401   3.574 -0.3449 -0.5362  0.3902
14818SOL    HW147856  10.682   1.488   3.565 -0.6803 -0.7726 -0.4915
14818SOL    HW247857  10.681   1.364   3.651 -1.0417 -0.3497  0.1209
14819SOL     OW47858   0.078   5.221   0.832  0.0478 -0.1529 -0.6367
14819SOL    HW147859   0.128   5.253   0.906 -0.6160 -0.8560  0.1529
14819SOL    HW247860   0.020   5.293   0.808  0.9722  0.4309 -1.1398
14820SOL     OW47861   0.315   6.635   2.410 -1.0621 -0.4996  0.1482
14820SOL    HW147862   0.277   6.577   2.344 -2.0886 -0.0661  0.3412
14820SOL    HW247863   0.322   6.582   2.489  1.1083 -1.3333 -0.5075
14821SOL     OW47864   1.982  10.702   3.306 -0.3278  0.5378  0.2875
14821SOL    HW147865   1.907  10.691   3.364 -0.7784  1.2679 -0.1347
14821SOL    HW247866   2.004  10.613   3.278 -0.5484  0.2482  1.0157
14822SOL     OW47867   5.916   0.319   7.327 -0.3692  0.2871  0.0120
14822SOL    HW147868   5.945   0.250   7.267  0.3506  0.5346  0.0683
14822SOL    HW247869   5.841   0.281   7.373  0.5902 -0.8053  0.7161
14823SOL     OW47870   9.449   4.496   4.158  0.4803 -0.4084  0.2745
14823SOL    HW147871   9.490   4.480   4.074  1.1819 -0.5446  0.6378
14823SOL    HW247872   9.454   4.591   4.171 -0.7700 -0.2203 -0.3986
14824SOL     OW47873   0.585   4.265   9.948  0.3675  0.1524 -0.5185
14824SOL    HW147874   0.574   4.176   9.982 -0.1697  0.9385  1.5451
14824SOL    HW247875   0.678   4.285   9.964  0.0177  0.6828  1.0566
14825SOL     OW47876   1.244   9.268   5.294  0.0097 -0.0802  0.0664
14825SOL    HW147877   1.167   9.250   5.240  0.4943 -0.6997 -0.4398
14825SOL    HW247878   1.299   9.324   5.239  1.5207 -2.4765 -1.0489
14826SOL     OW47879   0.973   8.767   2.710 -0.0508  0.3644 -0.1428
14826SOL    HW147880   0.963   8.816   2.629  0.4960  1.6038  0.5120
14826SOL    HW247881   1.065   8.741   2.711 -0.0263  0.4562  0.1239
14827SOL     OW47882   0.825   2.456   2.118  0.3592 -0.3289  0.2502
14827SOL    HW147883   0.869   2.540   2.135  0.2160 -0.1442 -0.2719
14827SOL    HW247884   0.762   2.447   2.190 -0.6025  0.6922 -0.4230
14828SOL     OW47885   2.993   0.847   4.099  0.4387 -0.2193 -0.3785
14828SOL    HW147886   3.028   0.876   4.015  5.9149 -0.3655  1.4483
14828SOL    HW247887   2.956   0.760   4.081 -2.0757  1.2524 -3.1244
14829SOL     OW47888   1.698   4.369   0.297  0.2447  0.7106 -0.0009
14829SOL    HW147889   1.786   4.332   0.282 -0.0136 -0.1599  0.5800
14829SOL    HW247890   1.695   4.387   0.391 -0.1181  0.9683 -0.0600
14830SOL     OW47891   5.145   8.504   9.983 -0.4976  0.1638 -0.2521
14830SOL    HW147892   5.231   8.530   9.950 -0.1124 -0.2546  0.4035
14830SOL    HW247893   5.158   8.416  10.017 -1.2476  0.0077 -0.3688
14831SOL     OW47894   0.509   0.626   7.448  0.4034  0.2502  0.1567
14831SOL    HW147895   0.529   0.567   7.375 -0.1661 -0.1172  0.2958
14831SOL    HW247896   0.519   0.571   7.526  0.0449  0.3833  0.2959
14832SOL     OW47897   6.586   5.177   7.924  0.0651  0.0387  0.0377
14832SOL    HW147898   6.636   5.255   7.948  0.5661 -0.7451  1.7247
14832SOL    HW247899   6.590   5.121   8.002  1.1493 -2.4421 -1.6702
14833SOL     OW47900   4.478   1.573   8.730 -0.6676 -0.3824 -0.5979
14833SOL    HW147901   4.391   1.544   8.756 -1.0462  0.0358 -1.3572
14833SOL    HW247902   4.535   1.499   8.749 -1.0313 -0.3546  0.7269
14834SOL     OW47903   8.765  10.546   6.174 -0.2470  0.2201 -0.3824
14834SOL    HW147904   8.758  10.527   6.268  0.2394 -0.3002 -0.4476
14834SOL    HW247905   8.707  10.621   6.161 -0.2519  0.3571  0.3523
14835SOL     OW47906   7.366   4.833   4.578  0.2181 -0.3481 -0.3033
14835SOL    HW147907   7.278   4.798   4.589  0.8067 -1.9485 -0.3972
14835SOL    HW247908   7.373   4.901   4.645 -1.1997  0.0703 -0.5431
14836SOL     OW47909   6.319   7.260   3.897  0.2280  0.6280  0.1701
14836SOL    HW147910   6.235   7.288   3.935  0.2601 -0.1855  0.8732
14836SOL    HW247911   6.336   7.323   3.827 -1.7981 -0.1396 -1.1041
14837SOL     OW47912   7.059   9.976   6.536 -0.1674  0.5826 -0.4227
14837SOL    HW147913   7.022   9.909   6.594  0.7389  1.4874  1.2565
14837SOL    HW247914   7.046  10.059   6.582  0.1399  1.4035 -1.7448
14838SOL     OW47915  10.305   4.233   1.190 -0.6168  0.2097 -0.1590
14838SOL    HW147916  10.294   4.320   1.229 -0.2356  1.1282 -1.9734
14838SOL    HW247917  10.225   4.219   1.140 -0.6284 -0.4411  0.0331
14839SOL     OW47918   1.258   1.619   7.188 -0.3815 -0.9399 -0.6048
14839SOL    HW147919   1.323   1.627   7.119 -0.2729 -3.1471 -0.8179
14839SOL    HW247920   1.222   1.531   7.178 -0.5320 -1.2649  1.9937
14840SOL     OW47921  10.683   6.328   4.068 -0.7078  0.5400  0.3903
14840SOL    HW147922  10.741   6.390   4.112 -1.4806  0.8067  1.0656
14840SOL    HW247923  10.596   6.348   4.102 -1.0005 -0.7824  0.4894
14841SOL     OW47924  10.476   7.782   5.460 -0.3321  0.5397  0.4221
14841SOL    HW147925  10.460   7.783   5.555  0.0929 -1.8619  0.5802
14841SOL    HW247926  10.478   7.689   5.437 -0.9918  1.0665 -2.0743
14842SOL     OW47927   9.547   1.092   1.549 -0.0360  0.2330  0.8162
14842SOL    HW147928   9.476   1.101   1.485  0.4920  0.9022  0.3157
14842SOL    HW247929   9.538   1.169   1.605  0.9477  0.9027  0.0855
14843SOL     OW47930   3.767   5.733   8.217  0.3962 -0.0570 -0.4222
14843SOL    HW147931   3.718   5.740   8.135  0.9359  0.8530 -0.6788
14843SOL    HW247932   3.759   5.819   8.258  0.1706 -0.4870  0.4695
14844SOL     OW47933   4.176   4.345   2.941 -0.2451  0.1141  0.5942
14844SOL    HW147934   4.245   4.371   3.001 -0.1301 -1.4313  1.1761
14844SOL    HW247935   4.095   4.360   2.989 -0.1691 -0.7483  1.0188
14845SOL     OW47936   8.152   7.119   0.368  0.6541 -0.1662  0.2091
14845SOL    HW147937   8.163   7.025   0.378  1.9184  0.0635  1.1603
14845SOL    HW247938   8.214   7.144   0.300  0.5062  0.0250  0.1406
14846SOL     OW47939   7.299   5.624   7.612  0.1787 -0.2506  0.1440
14846SOL    HW147940   7.385   5.591   7.637  0.4930  0.5644  0.1711
14846SOL    HW247941   7.316   5.677   7.534 -0.2186  0.2993  0.4207
14847SOL     OW47942   1.078   2.486  10.144  0.0568 -0.2923  0.3877
14847SOL    HW147943   1.054   2.572  10.110 -1.5873 -0.8105  0.1661
14847SOL    HW247944   1.166   2.498  10.178  0.6227  0.9970 -1.3702
14848SOL     OW47945   3.660   7.160   4.732  0.1298  0.5622 -0.0827
14848SOL    HW147946   3.733   7.181   4.675  0.0012  1.5062  0.0906
14848SOL    HW247947   3.607   7.099   4.681  0.4911  0.6898 -0.6157
14849SOL     OW47948   1.502   3.691   5.282 -0.2022  0.0953  0.0961
14849SOL    HW147949   1.450   3.622   5.240  0.1471 -1.3642  1.9051
14849SOL    HW247950   1.449   3.770   5.273 -1.7538 -0.9091  0.0206
14850SOL     OW47951   3.674   8.906   4.581 -0.1167 -0.5378 -0.6032
14850SOL    HW147952   3.615   8.977   4.605  0.1295 -0.9778  1.6080
14850SOL    HW247953   3.745   8.948   4.533 -0.3120  0.6088  0.0788
14851SOL     OW47954   5.874   6.929   1.115  0.3160 -0.0393  0.0617
14851SOL    HW147955   5.800   6.885   1.155 -0.3273  0.4327 -0.5778
14851SOL    HW247956   5.875   6.898   1.024 -0.1356  1.1957 -0.3937
14852SOL     OW47957   3.259   5.814   8.277 -0.9165  0.6648  0.6505
14852SOL    HW147958   3.303   5.898   8.263  1.8488 -0.9849 -1.6740
14852SOL    HW247959   3.234   5.784   8.189 -1.5744 -1.0946  1.3770
14853SOL     OW47960  10.529   2.777   0.214 -0.1865 -0.2591 -0.3241
14853SOL    HW147961  10.559   2.691   0.241 -1.5996 -1.0025 -1.0057
14853SOL    HW247962  10.539   2.832   0.293  3.6174 -0.1561 -0.6982
14854SOL     OW47963   8.642   9.359   5.113  0.3439  0.0195 -0.0593
14854SOL    HW147964   8.728   9.396   5.131 -0.1460  1.2848 -0.2295
14854SOL    HW247965   8.583   9.403   5.174 -0.2171 -0.7296 -0.0416
14855SOL     OW47966   2.006   4.608   7.630 -0.1226 -0.5776 -0.2873
14855SOL    HW147967   1.920   4.569   7.618 -0.8749  0.4959  1.3055
14855SOL    HW247968   1.989   4.694   7.670  1.6026  0.2943 -1.2860
14856SOL     OW47969   2.778   1.871   2.383 -0.4148 -0.4102 -0.6364
14856SOL    HW147970   2.771   1.823   2.466  0.4729 -0.5497 -0.6323
14856SOL    HW247971   2.722   1.823   2.323 -0.5315 -0.7155 -0.2914
14857SOL     OW47972   2.203   2.477   4.342 -0.2079  0.6228 -0.1437
14857SOL    HW147973   2.263   2.523   4.284 -0.9019  0.3002 -1.1605
14857SOL    HW247974   2.214   2.384   4.319 -1.7452  0.6264 -1.0415
14858SOL     OW47975   6.445   9.174   5.473  0.0013  0.1680 -0.0636
14858SOL    HW147976   6.421   9.096   5.423  0.4089  0.5458 -0.8788
14858SOL    HW247977   6.540   9.167   5.485 -0.2009 -0.3360  1.4150
14859SOL     OW47978   3.491   5.223   7.861 -0.4280  0.7763  0.7383
14859SOL    HW147979   3.562   5.181   7.909  0.1676 -0.6641 -1.2748
14859SOL    HW247980   3.528   5.243   7.775 -2.0670  1.1862  0.0807
14860SOL     OW47981   2.076  10.194   4.141 -0.4990  0.1316 -0.1304
14860SOL    HW147982   2.129  10.116   4.123  0.7757  0.9433 -0.0799
14860SOL    HW247983   1.986  10.167   4.124 -0.0750 -1.3191 -0.1982
14861SOL     OW47984  10.322   2.458   5.594 -0.7537  0.1503  0.2741
14861SOL    HW147985  10.314   2.426   5.504 -0.3239  0.1786  0.2243
14861SOL    HW247986  10.360   2.384   5.641 -2.4843 -0.4763  0.7977
14862SOL     OW47987   8.831   3.087   4.421 -0.0245 -0.2028 -0.3916
14862SOL    HW147988   8.915   3.063   4.382 -0.2796  0.7513 -1.6093
14862SOL    HW247989   8.853   3.147   4.492  0.3840 -0.9250  0.0977
14863SOL     OW47990   2.200   4.213   8.541  0.0014  0.1423 -0.1651
14863SOL    HW147991   2.289   4.194   8.510 -0.3737 -0.2860 -1.0006
14863SOL    HW247992   2.210   4.226   8.636  1.0166  0.5010 -0.3094
14864SOL     OW47993   6.897   9.912   2.255 -0.0593 -0.0351 -0.3102
14864SOL    HW147994   6.841   9.882   2.183 -1.3037  0.0410  0.5815
14864SOL    HW247995   6.843   9.899   2.333  0.9010  0.7634  0.5028
14865SOL     OW47996   0.030   4.048   8.467 -0.2025  0.2699  0.2551
14865SOL    HW147997   0.125   4.052   8.482 -0.1374  0.3966 -0.1819
14865SOL    HW247998   0.020   4.070   8.375 -0.6076 -0.3702  0.1400
14866SOL     OW47999   8.181  10.532   7.403  0.2425  0.1484  0.5113
14866SOL    HW148000   8.136  10.481   7.470  0.3234 -0.5124  0.0741
14866SOL    HW248001   8.137  10.508   7.321  0.8930  0.0804  0.1786
14867SOL     OW48002   7.708   8.510   0.954 -0.3112  0.4459 -0.3267
14867SOL    HW148003   7.687   8.494   1.046 -0.0697  0.1652 -0.3210
14867SOL    HW248004   7.674   8.598   0.937 -0.5142  0.4300 -0.0181
14868SOL     OW48005   2.701  10.346   1.158  0.1326  0.6458  0.3272
14868SOL    HW148006   2.739  10.273   1.109  1.1708  2.8088 -2.3568
14868SOL    HW248007   2.609  10.348   1.132 -0.3380 -0.7080  1.7864
14869SOL     OW48008   9.648   7.449   2.262 -0.1724 -0.3197 -0.3458
14869SOL    HW148009   9.714   7.417   2.323  0.2272 -0.3084 -0.7667
14869SOL    HW248010   9.588   7.501   2.316 -0.0568 -0.6494  0.1036
14870SOL     OW48011   4.159   1.742   5.126  0.0017 -0.3184  0.9931
14870SOL    HW148012   4.228   1.740   5.059 -3.4658  0.2843 -3.0386
14870SOL    HW248013   4.140   1.650   5.144  0.5881 -0.5052  0.6761
14871SOL     OW48014   8.616   6.898   0.334 -0.8004  0.3891  0.3597
14871SOL    HW148015   8.563   6.885   0.255 -1.6138 -0.3847  1.0226
14871SOL    HW248016   8.702   6.922   0.301 -1.2878  0.6771 -0.7576
14872SOL     OW48017   2.603   6.470   6.466 -0.0278 -0.0968  0.3600
14872SOL    HW148018   2.628   6.545   6.413 -1.0965  0.0537  0.0600
14872SOL    HW248019   2.530   6.501   6.520 -0.5535 -0.9438  0.1573
14873SOL     OW48020  10.366   9.522   8.362  0.2479  0.0143  0.6290
14873SOL    HW148021  10.370   9.604   8.313 -0.2722 -0.3173  0.0163
14873SOL    HW248022  10.442   9.525   8.421 -0.1545  1.2585  1.1285
14874SOL     OW48023  10.035   6.088   3.838 -0.2739 -0.2052  0.1462
14874SOL    HW148024  10.110   6.036   3.866  0.0024  0.0327 -0.1408
14874SOL    HW248025   9.971   6.079   3.908  0.8013  1.2407  1.3765
14875SOL     OW48026   9.960   8.811  10.912 -0.5878  0.3122  0.4671
14875SOL    HW148027  10.029   8.862  10.870 -0.2763 -0.5768 -0.1487
14875SOL    HW248028  10.006   8.735  10.950 -1.4526 -1.7744 -2.3042
14876SOL     OW48029   6.161   9.498   4.164 -0.1643  0.2643 -0.1906
14876SOL    HW148030   6.233   9.481   4.225  1.7533  2.4911 -1.6712
14876SOL    HW248031   6.112   9.569   4.203  0.2763  0.7958 -0.5901
14877SOL     OW48032   4.957  10.735   3.827 -0.1632  0.3663  0.0069
14877SOL    HW148033   4.875  10.707   3.785 -1.0126  0.0218  1.7685
14877SOL    HW248034   4.934  10.818   3.870  0.5100  0.4215  0.2654
14878SOL     OW48035   3.173   1.668   5.480  0.1884 -0.0545 -0.5918
14878SOL    HW148036   3.117   1.617   5.539  1.2284 -0.9287 -0.3377
14878SOL    HW248037   3.227   1.721   5.539 -0.1533  0.5627 -0.8288
14879SOL     OW48038   0.585   4.922   6.690  0.3717 -0.0623  0.0002
14879SOL    HW148039   0.557   5.013   6.685  1.3930  0.4109  1.9082
14879SOL    HW248040   0.536   4.877   6.621  2.4604  2.5565 -3.4828
14880SOL     OW48041   3.111   4.923   4.694  0.3536  0.2811  0.4867
14880SOL    HW148042   3.041   4.863   4.716  0.1962 -0.2716 -1.3268
14880SOL    HW248043   3.187   4.867   4.676 -0.0925  0.4325 -2.3424
14881SOL     OW48044   6.603   7.606   3.437 -0.3866 -0.3953 -0.2340
14881SOL    HW148045   6.663   7.626   3.509 -2.2397  1.8134  0.8678
14881SOL    HW248046   6.559   7.690   3.420 -1.0253 -1.2160 -3.0094
14882SOL     OW48047   9.353   2.550   8.921  0.9302  0.1093  0.0675
14882SOL    HW148048   9.268   2.504   8.924  0.7146  0.3975 -1.2282
14882SOL    HW248049   9.338   2.631   8.970  0.6111 -0.0760  0.2836
14883SOL     OW48050  10.899   8.754  10.698 -0.1324  0.5319 -0.1183
14883SOL    HW148051  10.815   8.716  10.724 -0.8015  1.7139 -0.4643
14883SOL    HW248052  10.948   8.760  10.779 -0.5454  0.2263  0.1616
14884SOL     OW48053   7.620   4.834  10.099  0.1748  0.4514  0.3011
14884SOL    HW148054   7.687   4.833  10.030  1.5248 -0.2344  1.5623
14884SOL    HW248055   7.560   4.764  10.075  1.1948 -0.4585  0.3223
14885SOL     OW48056   5.449   8.786  10.364  0.4215 -0.8333 -0.2253
14885SOL    HW148057   5.541   8.764  10.350 -0.0191 -2.9191 -0.1214
14885SOL    HW248058   5.401   8.724  10.310 -0.9433  0.0477 -0.0623
14886SOL     OW48059   3.747   3.736   2.575  0.0747 -0.0611 -0.2193
14886SOL    HW148060   3.655   3.720   2.599  0.6583 -0.3441  2.0663
14886SOL    HW248061   3.797   3.697   2.646  1.9845  0.3932 -1.2554
14887SOL     OW48062   9.835   0.564  10.822  0.2008  0.2421 -0.0997
14887SOL    HW148063   9.750   0.538  10.787 -1.1027 -0.5650  3.2015
14887SOL    HW248064   9.871   0.483  10.860  1.0319  1.1410  1.1297
14888SOL     OW48065  10.917   8.326   2.862 -0.4235 -0.0830 -0.1758
14888SOL    HW148066  10.942   8.347   2.952 -1.4063 -0.2116  0.1414
14888SOL    HW248067  10.932   8.231   2.854  1.3935  0.2158 -0.7407
14889SOL     OW48068   7.125   1.215  10.656 -0.0106  0.1678  0.2193
14889SOL    HW148069   7.076   1.133  10.652  2.1880 -1.1916 -1.5008
14889SOL    HW248070   7.093   1.265  10.581  1.4190 -0.9230 -1.1961
14890SOL     OW48071   2.426   5.641   1.442  0.3634  0.7672 -0.4457
14890SOL    HW148072   2.400   5.551   1.463  1.1047  0.5618 -0.3879
14890SOL    HW248073   2.443   5.681   1.527  0.9936  0.6653 -0.5212
14891SOL     OW48074   6.434   1.916   5.799  0.4942  0.1394 -0.4242
14891SOL    HW148075   6.514   1.882   5.760  0.9200  0.7572 -0.1116
14891SOL    HW248076   6.416   1.997   5.750  0.5647  0.4768  0.1050
14892SOL     OW48077   0.531   9.491   2.053 -0.2886  0.1685 -0.1082
14892SOL    HW148078   0.561   9.468   2.141 -1.1251 -0.4242  0.0341
14892SOL    HW248079   0.605   9.537   2.014  0.3265 -0.1293  0.6747
14893SOL     OW48080   5.805   4.165   2.392  0.2900  0.5023 -0.8943
14893SOL    HW148081   5.847   4.242   2.353  1.2442 -0.5736 -2.0777
14893SOL    HW248082   5.778   4.112   2.317 -0.2809 -0.3673 -0.0948
14894SOL     OW48083   2.659   6.049  10.490 -0.2111  0.5435  0.4511
14894SOL    HW148084   2.739   6.041  10.541 -1.5163  0.3267  2.5925
14894SOL    HW248085   2.656   6.140  10.462 -0.0511  0.9848  1.8355
14895SOL     OW48086   9.608   1.399   0.272 -0.4025 -0.2934  0.0093
14895SOL    HW148087   9.690   1.358   0.243 -0.1634  0.7353 -0.8276
14895SOL    HW248088   9.630   1.492   0.281 -0.9429 -0.2987  1.8196
14896SOL     OW48089   3.455   8.428   7.650  0.4273  0.8845  0.0684
14896SOL    HW148090   3.373   8.427   7.601  1.0764 -0.2342 -1.0542
14896SOL    HW248091   3.464   8.519   7.679 -0.6026  1.2989 -0.8282
14897SOL     OW48092  10.060   8.599   5.412  0.2857  0.5932 -0.1836
14897SOL    HW148093  10.091   8.614   5.323 -0.0639  0.8609 -0.2619
14897SOL    HW248094  10.074   8.683   5.457  1.2696  0.2162  0.2645
14898SOL     OW48095   3.165   9.900   1.808  0.2897 -0.6499  0.0573
14898SOL    HW148096   3.206   9.863   1.730 -1.0072 -1.0858 -0.4461
14898SOL    HW248097   3.071   9.893   1.792 -0.0771 -2.5928  2.4884
14899SOL     OW48098   9.018   1.371   1.017 -0.5538 -0.1374 -0.0973
14899SOL    HW148099   8.948   1.402   1.075  1.0353 -1.0795  2.4892
14899SOL    HW248100   8.991   1.400   0.930 -4.0236 -0.2444  0.7757
14900SOL     OW48101   0.549   8.566   5.176  0.3123 -0.0201  0.0868
14900SOL    HW148102   0.459   8.536   5.163  0.4268  0.2450 -1.5653
14900SOL    HW248103   0.573   8.606   5.092  2.5784 -1.6612 -0.1307
14901SOL     OW48104  10.341   1.981   1.237  0.4305  0.2358 -0.0334
14901SOL    HW148105  10.434   2.003   1.233  0.3098  0.9666  0.6844
14901SOL    HW248106  10.333   1.921   1.312  0.3691 -0.0864 -0.2964
14902SOL     OW48107   5.065   8.824   5.250 -1.1373 -0.5598 -0.1252
14902SOL    HW148108   5.037   8.904   5.205 -1.8378  0.0851  1.3667
14902SOL    HW248109   5.074   8.851   5.342  1.3629 -1.5285 -0.0028
14903SOL     OW48110   3.357   4.059   6.199 -0.3233  0.2988 -0.5849
14903SOL    HW148111   3.348   4.126   6.131 -0.6303  1.8843  0.9629
14903SOL    HW248112   3.451   4.051   6.213 -0.2631  0.0406 -1.0919
14904SOL     OW48113   0.280   5.772   1.934  0.3424  0.1419 -0.3551
14904SOL    HW148114   0.269   5.810   2.021  1.4468  0.7355 -0.4602
14904SOL    HW248115   0.374   5.778   1.917  0.3766 -1.4792 -0.9119
14905SOL     OW48116  10.769   1.599   5.632 -0.3856  0.2377  0.1680
14905SOL    HW148117  10.783   1.584   5.725 -0.7380  0.4960  0.2667
14905SOL    HW248118  10.724   1.520   5.601  2.7038 -1.4021 -0.5318
14906SOL     OW48119   7.097   3.196   6.920  0.1055 -0.1994 -0.5616
14906SOL    HW148120   7.183   3.173   6.956  0.8464  0.2303 -1.9954
14906SOL    HW248121   7.105   3.178   6.827 -1.2223  0.3068 -0.7892
14907SOL     OW48122   3.266   5.518   6.247 -0.3003 -0.3621  0.3480
14907SOL    HW148123   3.215   5.481   6.175  2.4056 -2.6773 -0.5602
14907SOL    HW248124   3.273   5.611   6.226 -0.4023 -0.8000 -1.8846
14908SOL     OW48125   8.956   0.112   1.894  0.4699  0.0230 -0.0986
14908SOL    HW148126   8.919   0.090   1.809 -1.1566  1.7902  0.0950
14908SOL    HW248127   8.881   0.138   1.948  1.5154 -0.5151  1.7177
14909SOL     OW48128   7.886   0.202   7.743  0.8603 -0.0240 -0.2535
14909SOL    HW148129   7.908   0.294   7.735  3.0645 -0.4502  0.3136
14909SOL    HW248130   7.880   0.186   7.837 -2.3289  0.0652 -0.3100
14910SOL     OW48131   2.101   9.306   6.662  0.2180  0.3892 -0.0496
14910SOL    HW148132   2.030   9.328   6.601  1.2061 -1.4438 -2.0073
14910SOL    HW248133   2.139   9.390   6.686 -0.7093  1.2351 -1.3778
14911SOL     OW48134   4.257   3.924   8.314  0.4484  0.1663  0.2690
14911SOL    HW148135   4.293   3.913   8.402  0.9627 -2.5026 -0.1881
14911SOL    HW248136   4.330   3.958   8.263  0.8377 -0.4498  0.4053
14912SOL     OW48137   8.013   3.529   4.475  0.1956 -0.3492  0.6257
14912SOL    HW148138   8.068   3.597   4.436  1.0290 -0.5163  1.4752
14912SOL    HW248139   8.060   3.447   4.458  0.9740 -0.3662  2.5582
14913SOL     OW48140   7.715   1.910   0.355 -0.0014 -0.3160  0.3799
14913SOL    HW148141   7.749   1.954   0.277 -0.8095  1.3602  0.9096
14913SOL    HW248142   7.620   1.920   0.347 -0.0677  0.3844  1.8404
14914SOL     OW48143   0.922   6.148   6.521 -0.0710  0.7519  0.3586
14914SOL    HW148144   0.928   6.073   6.462 -0.3122  2.0537 -1.3940
14914SOL    HW248145   1.005   6.146   6.570  0.7464  0.3931 -0.9761
14915SOL     OW48146   3.330  10.070   8.434 -0.0810 -0.1205 -0.2375
14915SOL    HW148147   3.372  10.125   8.499  2.0781  0.4843 -2.0249
14915SOL    HW248148   3.394  10.000   8.417 -0.9635 -0.7466 -1.0875
14916SOL     OW48149   9.681   3.225   4.597  0.0271 -0.5211  0.4935
14916SOL    HW148150   9.653   3.284   4.527 -1.2605 -1.4145  0.2317
14916SOL    HW248151   9.603   3.210   4.650  0.4304 -1.6347  0.8138
14917SOL     OW48152   1.055   4.308   6.766  0.0761  0.5705  0.4183
14917SOL    HW148153   1.083   4.330   6.677 -0.0641 -0.8613 -0.0002
14917SOL    HW248154   0.983   4.370   6.784 -0.4412  0.3493 -0.7815
14918SOL     OW48155   9.987   1.662   6.957  0.3277 -0.6005  0.0799
14918SOL    HW148156   9.955   1.590   6.903 -1.5152 -0.5497  1.0377
14918SOL    HW248157  10.035   1.718   6.896 -0.6795 -1.1528 -1.2682
14919SOL     OW48158   5.014   2.707   7.375  0.3116 -0.6909  0.0371
14919SOL    HW148159   4.999   2.702   7.470  1.5271  1.8179  0.4322
14919SOL    HW248160   4.934   2.745   7.340  0.2755 -0.6155  0.2011
14920SOL     OW48161   2.512   6.725   7.684 -0.1018 -0.1855  0.3352
14920SOL    HW148162   2.535   6.790   7.751 -0.7333  0.0636  0.3269
14920SOL    HW248163   2.418   6.739   7.670  0.1561  0.2711 -1.1354
14921SOL     OW48164   3.590   1.664   0.944 -0.5298 -0.0728  0.5195
14921SOL    HW148165   3.582   1.575   0.909 -0.0146 -0.3789  1.1754
14921SOL    HW248166   3.683   1.676   0.961 -0.4174  1.0260 -0.6469
14922SOL     OW48167   4.583   8.686   6.073 -0.4720  0.2523  0.2303
14922SOL    HW148168   4.669   8.663   6.109 -0.8318  0.4832  1.2747
14922SOL    HW248169   4.565   8.773   6.108 -0.9815  0.3476 -0.2619
14923SOL     OW48170   4.517   9.640  10.183  0.2680  0.1999  0.1742
14923SOL    HW148171   4.543   9.592  10.104 -0.0999 -0.3947  0.4040
14923SOL    HW248172   4.443   9.590  10.217 -0.9372  1.6240 -0.2513
14924SOL     OW48173   1.009   2.371   8.606 -0.5738 -0.1210 -0.1612
14924SOL    HW148174   0.923   2.330   8.593 -0.2156 -0.5829 -1.0923
14924SOL    HW248175   1.030   2.411   8.522  0.7508 -1.2072 -0.3756
14925SOL     OW48176   9.822   7.700   3.877  0.2987 -0.3874 -0.1312
14925SOL    HW148177   9.798   7.673   3.788  1.7381 -0.7161 -0.4359
14925SOL    HW248178   9.909   7.738   3.869 -0.2872  1.3019  0.8612
14926SOL     OW48179   5.220   8.827   6.274 -0.2483  0.0196  0.0630
14926SOL    HW148180   5.179   8.786   6.351  0.3239  0.4856  0.6276
14926SOL    HW248181   5.314   8.823   6.293  0.0973 -2.0661 -1.7133
14927SOL     OW48182   5.856   1.690   7.921  0.0312  0.4395  0.2724
14927SOL    HW148183   5.799   1.629   7.968 -0.0359 -0.8316 -1.3700
14927SOL    HW248184   5.808   1.711   7.840  0.3521  2.1806  0.4864
14928SOL     OW48185   5.094   8.436   1.515  0.3710  0.0176 -0.4618
14928SOL    HW148186   5.021   8.450   1.456  2.1110 -0.2919 -2.8571
14928SOL    HW248187   5.130   8.351   1.489  1.2814 -0.0771  0.9894
14929SOL     OW48188   3.593   6.168   1.608  0.4539 -0.2803 -0.2686
14929SOL    HW148189   3.610   6.153   1.515  0.2222 -2.2828 -0.0463
14929SOL    HW248190   3.641   6.098   1.652  1.4766  1.2865  1.2288
14930SOL     OW48191   0.567   9.233   8.790 -0.6033  0.2441 -0.0508
14930SOL    HW148192   0.554   9.165   8.723  0.7075 -2.2563  2.0652
14930SOL    HW248193   0.500   9.215   8.856  0.2710  0.4806  0.9273
14931SOL     OW48194   0.478   5.129   0.506 -0.0618 -0.7421 -0.0330
14931SOL    HW148195   0.520   5.137   0.421  1.3691 -0.3024  0.6800
14931SOL    HW248196   0.403   5.072   0.491  1.0639 -1.9549 -1.2820
14932SOL     OW48197   5.777   1.433   8.461 -0.1165 -0.2791  0.3039
14932SOL    HW148198   5.767   1.342   8.491  0.4368  0.1151  1.7767
14932SOL    HW248199   5.820   1.477   8.534 -0.5897  1.2347 -0.3011
14933SOL     OW48200   1.432   3.308   4.340  0.1071  0.0963 -0.8567
14933SOL    HW148201   1.451   3.254   4.263  1.4212 -0.1070 -0.4167
14933SOL    HW248202   1.471   3.260   4.413  0.5516  1.2316 -0.3324
14934SOL     OW48203   9.323   6.570   5.378 -0.0679  0.0896  0.2443
14934SOL    HW148204   9.231   6.546   5.372  0.0795 -0.6846  0.8869
14934SOL    HW248205   9.369   6.496   5.338  0.2023  1.4355 -2.1444
14935SOL     OW48206   7.914   1.823   4.172  0.0341 -0.2659 -0.4463
14935SOL    HW148207   7.897   1.917   4.166  0.0109 -0.3433 -2.1459
14935SOL    HW248208   7.979   1.806   4.104  1.6454 -1.1572  1.2347
14936SOL     OW48209   0.516   7.122   8.087  0.5535 -0.5330  0.3227
14936SOL    HW148210   0.546   7.095   8.000  1.0154 -1.9097  0.8869
14936SOL    HW248211   0.522   7.043   8.140  1.0180  0.4773  1.8208
14937SOL     OW48212   2.711   9.993   6.328 -0.3306  0.4576 -0.5688
14937SOL    HW148213   2.747   9.949   6.250 -0.3762 -1.3549  0.3834
14937SOL    HW248214   2.775  10.061   6.348  0.4122  0.0219 -1.3756
14938SOL     OW48215   7.394   5.853   7.985  0.1722  0.2786  0.1357
14938SOL    HW148216   7.422   5.924   7.927  2.1377  0.9238  1.7515
14938SOL    HW248217   7.300   5.868   7.997  0.0016  0.9531 -1.7081
14939SOL     OW48218   5.577  10.606   7.539  0.4573  0.1479  0.2996
14939SOL    HW148219   5.615  10.525   7.506  2.0494 -0.2283  2.7794
14939SOL    HW248220   5.564  10.660   7.461  2.7159 -1.1356 -1.0673
14940SOL     OW48221   1.373   9.249   3.710 -0.0085 -0.2739  0.2846
14940SOL    HW148222   1.460   9.212   3.696  0.7176  1.8573 -1.3686
14940SOL    HW248223   1.373   9.274   3.803  2.4111  2.5217 -0.3223
14941SOL     OW48224   4.489   4.925   1.864  0.4160  0.2033 -0.1218
14941SOL    HW148225   4.554   4.855   1.854 -1.0935 -1.2605 -0.3019
14941SOL    HW248226   4.480   4.936   1.959  0.1078 -0.4320 -0.0698
14942SOL     OW48227   9.101   9.569   0.929 -0.6358  0.6539  0.6131
14942SOL    HW148228   9.118   9.534   1.017  0.3957 -0.7938 -0.1303
14942SOL    HW248229   9.178   9.545   0.878 -2.4132 -1.1170 -1.4283
14943SOL     OW48230   8.641   1.564   0.097 -0.2663 -0.6082  0.2270
14943SOL    HW148231   8.612   1.482   0.057 -0.4580 -0.7329  0.6138
14943SOL    HW248232   8.605   1.632   0.040  0.5457 -0.7931 -0.5398
14944SOL     OW48233   8.875   6.421   0.474 -0.5309  0.1020  0.5295
14944SOL    HW148234   8.963   6.421   0.436 -1.1274 -1.4045 -0.9959
14944SOL    HW248235   8.837   6.505   0.447  0.1956  0.4724  0.6328
14945SOL     OW48236   0.458   8.065   9.375  0.9439  0.5740  0.4560
14945SOL    HW148237   0.508   8.111   9.442 -0.1778  0.5871  1.3081
14945SOL    HW248238   0.366   8.083   9.396  0.5605  1.0848 -1.4390
14946SOL     OW48239   5.001   6.400   5.067  0.0023  0.2684  0.0252
14946SOL    HW148240   4.907   6.395   5.049 -0.0121 -1.1543  0.4222
14946SOL    HW248241   5.015   6.491   5.095 -1.9177 -0.3365  3.5048
14947SOL     OW48242   7.609  10.903   8.935 -0.0211  0.0835  0.5374
14947SOL    HW148243   7.676  10.870   8.875  1.4035  1.3924  1.3222
14947SOL    HW248244   7.533  10.847   8.919  1.7003 -2.4991  0.6820
14948SOL     OW48245   5.660   2.524   6.360  0.2939 -0.2135 -0.2190
14948SOL    HW148246   5.587   2.472   6.392 -0.1448  0.9719  0.8190
14948SOL    HW248247   5.666   2.504   6.267 -1.0888 -0.6326 -0.2347
14949SOL     OW48248   3.910   1.928   5.075 -0.2989 -0.3003  0.6280
14949SOL    HW148249   3.875   1.848   5.114 -1.6299 -1.1851 -2.0969
14949SOL    HW248250   3.999   1.904   5.046 -0.7175 -0.8624 -0.2370
14950SOL     OW48251  10.751   0.191   5.879  0.0527  0.7104  0.3736
14950SOL    HW148252  10.708   0.141   5.810  1.9509  0.1362 -0.4644
14950SOL    HW248253  10.767   0.127   5.948  0.2441  0.7474  0.3631
14951SOL     OW48254   9.869   0.653   2.297  0.9233 -0.1975 -0.0711
14951SOL    HW148255   9.815   0.725   2.330  0.2902  0.5139 -2.4463
14951SOL    HW248256   9.808   0.596   2.251  1.8993 -0.3111 -1.2879
14952SOL     OW48257   7.606   7.347   0.961 -0.2682  0.2630  0.3336
14952SOL    HW148258   7.630   7.440   0.956 -1.7138  0.6909  1.0208
14952SOL    HW248259   7.558   7.331   0.880 -0.6576  0.3065  0.5557
14953SOL     OW48260   2.385   3.488   8.286 -0.3332 -0.5171  0.1054
14953SOL    HW148261   2.476   3.459   8.288  0.3796  1.5659  1.1558
14953SOL    HW248262   2.347   3.453   8.367  0.0780  0.1433  0.5930
14954SOL     OW48263   7.449   1.249   0.196  0.1433  0.3176  0.1644
14954SOL    HW148264   7.538   1.218   0.210  0.0372 -0.1664 -0.1939
14954SOL    HW248265   7.460   1.329   0.145  0.3433 -0.2635 -0.7325
14955SOL     OW48266   8.421   6.814  10.474 -0.4278 -0.8562 -0.1445
14955SOL    HW148267   8.380   6.823  10.560 -1.1038 -0.4161 -0.4966
14955SOL    HW248268   8.477   6.891  10.466 -0.1699 -1.0272 -0.0006
14956SOL     OW48269   3.318   0.323   9.936 -0.3357  0.5128 -0.0746
14956SOL    HW148270   3.301   0.350  10.026 -3.9820  0.4620 -0.6096
14956SOL    HW248271   3.346   0.232   9.943  0.6646  0.8780  1.0429
14957SOL     OW48272   8.073   1.083   5.808  0.5148  0.2994 -0.4914
14957SOL    HW148273   8.023   1.002   5.811  0.1963  0.4420 -1.3973
14957SOL    HW248274   8.165   1.056   5.810  0.4029 -0.0140  0.3495
14958SOL     OW48275  10.697   0.046   1.703  0.1427  0.8309  0.3173
14958SOL    HW148276  10.749  -0.033   1.684 -1.1651  0.3129 -1.3408
14958SOL    HW248277  10.646   0.022   1.781  0.8324  0.6078  0.7205
14959SOL     OW48278   1.576   6.443   2.548 -0.0467  0.0849 -0.4700
14959SOL    HW148279   1.497   6.462   2.498 -1.8268  0.8212  2.3694
14959SOL    HW248280   1.639   6.414   2.483 -2.1730  0.8606 -3.0722
14960SOL     OW48281   2.456   5.083   9.123  0.2853 -0.0447 -0.2434
14960SOL    HW148282   2.502   5.083   9.039  0.2791 -1.5729 -0.2895
14960SOL    HW248283   2.526   5.089   9.189  0.7717 -3.1196 -0.2864
14961SOL     OW48284   5.215   2.955   1.164  0.7175  0.1042 -0.8112
14961SOL    HW148285   5.272   3.024   1.198 -0.0540  0.7662 -0.8164
14961SOL    HW248286   5.126   2.987   1.182  0.3464 -1.1411 -0.3315
14962SOL     OW48287   3.754   1.194   1.558  0.0320 -0.4682 -0.2265
14962SOL    HW148288   3.767   1.111   1.512 -0.5447 -0.9539  0.4578
14962SOL    HW248289   3.843   1.221   1.582  0.3340 -0.2211 -1.5704
14963SOL     OW48290   2.238   5.405   1.375  0.2971  1.0070 -0.3293
14963SOL    HW148291   2.180   5.357   1.316  0.8000  1.6363 -1.3608
14963SOL    HW248292   2.190   5.406   1.458 -0.2972 -0.1371 -0.6301
14964SOL     OW48293   6.322  10.227   2.831  0.0262 -0.4476  0.0400
14964SOL    HW148294   6.274  10.304   2.860 -1.6453 -0.3588 -2.5980
14964SOL    HW248295   6.279  10.154   2.874 -0.6997 -0.1515 -0.1629
14965SOL     OW48296   5.915   3.237   0.117 -0.2449  0.1386 -0.1351
14965SOL    HW148297   6.008   3.220   0.132  0.3821  2.7905 -0.5400
14965SOL    HW248298   5.898   3.203   0.029  1.1516  2.2274 -1.2864
14966SOL     OW48299   3.643   1.693   5.672  0.1957  0.1242 -0.5286
14966SOL    HW148300   3.572   1.628   5.675 -0.2856  0.6827  0.9269
14966SOL    HW248301   3.716   1.646   5.632  0.2301 -1.7266  1.4878
14967SOL     OW48302   9.415   6.765   7.997 -0.1201  0.5127  0.1135
14967SOL    HW148303   9.504   6.765   8.031  0.5448  2.7914 -1.4452
14967SOL    HW248304   9.376   6.684   8.032  2.8340 -1.0969 -0.0058
14968SOL     OW48305   7.046   6.583   2.385 -0.4996 -0.9563 -0.5979
14968SOL    HW148306   7.057   6.676   2.406 -0.2710 -0.8363 -1.2326
14968SOL    HW248307   7.041   6.581   2.290  1.7670 -1.8270 -0.7433
14969SOL     OW48308   5.788   8.057   1.376 -0.1497  0.6640 -0.0680
14969SOL    HW148309   5.834   8.047   1.459 -1.1234 -3.2305  0.1727
14969SOL    HW248310   5.840   8.007   1.313 -1.1801  0.7601 -1.0326
14970SOL     OW48311   9.485   9.970   9.838 -0.1567  0.3216  0.3098
14970SOL    HW148312   9.542  10.040   9.872  0.0617 -0.6928  2.1255
14970SOL    HW248313   9.541   9.893   9.836 -1.1915 -0.4899  1.2810
14971SOL     OW48314  10.428   2.169   3.816  0.6881  0.0788 -0.0564
14971SOL    HW148315  10.385   2.145   3.898  0.4785 -2.2946 -0.7819
14971SOL    HW248316  10.367   2.228   3.773  0.0002 -0.0419  0.7347
14972SOL     OW48317   4.960   9.994   2.654  0.1857  0.0319 -0.2870
14972SOL    HW148318   4.965   9.994   2.749 -2.7715  1.2167 -0.0220
14972SOL    HW248319   5.008   9.915   2.627  0.0584 -0.9981  2.2457
14973SOL     OW48320   9.095   3.057   5.114 -0.5516 -0.3199 -0.1649
14973SOL    HW148321   9.138   3.124   5.166 -0.8063  0.9675 -1.5408
14973SOL    HW248322   9.002   3.064   5.137 -0.4614 -0.8737  0.3950
14974SOL     OW48323   2.617   8.483   8.552 -0.4169  0.3034 -0.5538
14974SOL    HW148324   2.635   8.428   8.476  1.5163 -1.2934  0.9558
14974SOL    HW248325   2.563   8.429   8.609  3.2074 -1.0994  1.8976
14975SOL     OW48326   8.191   6.480   4.564 -0.0507 -0.2763  0.2253
14975SOL    HW148327   8.245   6.448   4.636 -0.1321  0.2064  0.4994
14975SOL    HW248328   8.190   6.575   4.574  0.3782 -0.1608 -0.7295
14976SOL     OW48329  10.461   3.926   8.714  0.0105  0.2791  0.5391
14976SOL    HW148330  10.508   3.855   8.670 -1.1972 -0.1750 -0.0807
14976SOL    HW248331  10.370   3.896   8.716 -0.9220  2.6116 -1.4692
14977SOL     OW48332   3.178   7.047  10.183  0.0992  0.6998  0.8251
14977SOL    HW148333   3.180   7.042  10.278  1.8627  2.1104  0.9100
14977SOL    HW248334   3.087   7.064  10.161 -0.2680  0.6621  2.2781
14978SOL     OW48335   2.779   3.743   3.851  0.4571 -0.4967 -0.2810
14978SOL    HW148336   2.764   3.747   3.946  1.5856 -0.9809 -0.0690
14978SOL    HW248337   2.864   3.699   3.842  0.0233 -1.1012 -1.5492
14979SOL     OW48338  10.600   1.902   7.159  0.1959 -0.1254  0.2595
14979SOL    HW148339  10.513   1.876   7.128 -0.0555 -0.1536  0.9686
14979SOL    HW248340  10.660   1.872   7.090 -0.3830  0.2202 -0.4076
14980SOL     OW48341   2.929   9.443   3.794  0.6471 -0.2658  0.4101
14980SOL    HW148342   2.849   9.415   3.751 -0.6217 -0.4128  2.7480
14980SOL    HW248343   2.906   9.524   3.839  2.0128  0.0896  0.5329
14981SOL     OW48344  10.213   5.855   3.930 -0.0990 -0.5100  0.0067
14981SOL    HW148345  10.139   5.863   3.992  0.5352 -2.4172  1.1206
14981SOL    HW248346  10.196   5.772   3.885  0.5538 -0.1616 -0.8936
14982SOL     OW48347   8.569   5.537   1.855 -0.3766 -0.3475 -0.1033
14982SOL    HW148348   8.478   5.553   1.879 -0.5180 -0.5538 -0.4887
14982SOL    HW248349   8.619   5.553   1.935 -0.8930 -1.6818  0.5180
14983SOL     OW48350  10.139   9.283   9.465 -0.2741  0.0682  0.3433
14983SOL    HW148351  10.166   9.316   9.379  0.6207  0.3050  0.7008
14983SOL    HW248352  10.046   9.303   9.471  0.1310  2.0978  0.3479
14984SOL     OW48353   1.113   4.851   6.136 -0.2996  0.0301  0.2495
14984SOL    HW148354   1.130   4.932   6.088 -1.2908  0.5387  0.7168
14984SOL    HW248355   1.084   4.881   6.223 -1.3024 -0.8000  0.2239
14985SOL     OW48356   4.799   6.560   8.260 -0.0356 -0.1115 -0.5591
14985SOL    HW148357   4.875   6.546   8.204  1.7366 -2.0277  2.1435
14985SOL    HW248358   4.831   6.616   8.331 -2.0426  1.6518 -0.9193
14986SOL     OW48359   8.618   8.674   6.953 -0.5448 -0.6119  0.1298
14986SOL    HW148360   8.569   8.595   6.978 -1.2247  0.1643  1.3722
14986SOL    HW248361   8.585   8.696   6.866  0.2460 -2.1364 -0.5912
14987SOL     OW48362   7.359   6.458   4.742 -0.5726 -0.0485 -0.3647
14987SOL    HW148363   7.438   6.430   4.788 -1.7944  0.5624  2.2653
14987SOL    HW248364   7.307   6.378   4.734 -1.5183  0.3005  1.8359
14988SOL     OW48365   9.511   4.344   0.552  0.0428 -0.1467 -0.3225
14988SOL    HW148366   9.524   4.405   0.480  1.4859 -0.9981 -0.8296
14988SOL    HW248367   9.513   4.257   0.511  0.5355 -0.6349  0.6854
14989SOL     OW48368   3.881   0.421   0.701 -0.2359 -0.3499 -0.1705
14989SOL    HW148369   3.913   0.336   0.670 -1.0281 -0.2729 -1.2524
14989SOL    HW248370   3.796   0.401   0.741  0.2986 -0.2888  1.0272
14990SOL     OW48371   4.960   2.963   1.879  0.4834 -0.0616  0.3514
14990SOL    HW148372   5.054   2.961   1.863  0.4548 -2.5289  0.2454
14990SOL    HW248373   4.952   2.994   1.969  1.3135  1.0168  0.0821
14991SOL     OW48374   1.197   9.963   0.525 -0.3800 -0.1856 -0.1132
14991SOL    HW148375   1.166   9.928   0.608  1.9704  0.3528  1.0982
14991SOL    HW248376   1.173   9.897   0.460  1.1874 -2.6186  1.6146
14992SOL     OW48377   9.518   8.600   6.035 -0.6514  0.6571  0.1987
14992SOL    HW148378   9.578   8.600   5.960 -0.2458  1.0961  0.5181
14992SOL    HW248379   9.523   8.689   6.069 -0.9161  0.4872  0.6839
14993SOL     OW48380   5.109   0.518  10.170  0.4068  0.0047  0.3168
14993SOL    HW148381   5.173   0.447  10.177  1.3282  0.5953 -1.4585
14993SOL    HW248382   5.035   0.479  10.124  0.3495 -0.1567  0.5468
14994SOL     OW48383   5.861   1.641  10.491  0.2122  0.4737 -0.3720
14994SOL    HW148384   5.856   1.613  10.582 -0.9097  0.8219 -0.3129
14994SOL    HW248385   5.880   1.560  10.443 -0.6393  0.0172  0.0318
14995SOL     OW48386   1.616   5.322   6.122  0.4120 -0.5407 -0.8223
14995SOL    HW148387   1.683   5.379   6.085  1.7630 -1.7296 -0.3119
14995SOL    HW248388   1.590   5.266   6.049 -0.6249  0.4181 -1.2196
14996SOL     OW48389  10.505   4.447   2.501  0.2793  0.0932  0.5303
14996SOL    HW148390  10.431   4.466   2.444  0.4397 -1.3502 -0.1969
14996SOL    HW248391  10.541   4.533   2.522 -0.9723  0.7549  0.0571
14997SOL     OW48392   9.326   0.637   8.985  0.2135  0.4906 -0.2651
14997SOL    HW148393   9.361   0.562   8.937  1.3491  1.3590 -0.8520
14997SOL    HW248394   9.353   0.622   9.076  0.4919  0.2242 -0.3910
14998SOL     OW48395   4.612   5.882   3.168 -0.2222 -0.3011 -0.2239
14998SOL    HW148396   4.626   5.948   3.101 -1.5354 -1.1797 -1.4282
14998SOL    HW248397   4.699   5.846   3.184  0.6604  2.1640  1.0210
14999SOL     OW48398   2.736   7.678   0.682 -0.4968  0.2844 -0.1977
14999SOL    HW148399   2.794   7.752   0.700 -1.8055  0.8980  1.7956
14999SOL    HW248400   2.649   7.708   0.707 -0.7856 -2.5440  2.9148
15000SOL     OW48401   8.165  10.234   6.639 -0.4956 -0.4168 -0.3325
15000SOL    HW148402   8.251  10.242   6.597 -0.3451  0.6214  0.1302
15000SOL    HW248403   8.103  10.234   6.567 -0.0842 -2.0778 -0.7315
15001SOL     OW48404   1.164   9.457   8.734  0.3466  0.1558  0.5212
15001SOL    HW148405   1.242   9.472   8.680 -0.0334 -2.0027 -0.7187
15001SOL    HW248406   1.198   9.419   8.815  0.6258 -0.3022  0.1905
15002SOL     OW48407   6.414  10.727   6.491  0.1253 -0.0954 -0.0917
15002SOL    HW148408   6.417  10.768   6.405  2.5883  0.9307  0.3826
15002SOL    HW248409   6.424  10.799   6.553  0.0988 -0.9655  0.9640
15003SOL     OW48410   3.377   2.235   5.531  0.7858 -0.2184 -0.5882
15003SOL    HW148411   3.468   2.218   5.555  0.1876  0.7147  2.8744
15003SOL    HW248412   3.361   2.325   5.558 -1.7056 -1.0500  1.1248
15004SOL     OW48413   3.748  10.015   1.477  0.2889  0.1359  0.3994
15004SOL    HW148414   3.816  10.028   1.543  0.8964 -1.2122  0.0952
15004SOL    HW248415   3.669  10.052   1.515  1.0962  1.3827  0.9350
15005SOL     OW48416   9.371  10.348   2.328  0.0116  0.3860 -0.8588
15005SOL    HW148417   9.277  10.360   2.331 -0.0641 -0.4065  0.4204
15005SOL    HW248418   9.396  10.375   2.239 -1.5712 -0.5953 -1.6494
15006SOL     OW48419   1.359   0.899   5.264  0.1083  0.2543  0.1046
15006SOL    HW148420   1.359   0.803   5.264 -1.9129  0.1946 -0.3699
15006SOL    HW248421   1.345   0.923   5.356 -2.1049 -0.0452 -0.0832
15007SOL     OW48422  10.053   9.220  10.313  0.4303  0.0681 -0.2873
15007SOL    HW148423  10.021   9.189  10.398 -1.3879 -0.5486 -1.1477
15007SOL    HW248424  10.124   9.160  10.291 -0.9202 -1.5568 -0.4325
15008SOL     OW48425   2.717   4.161   1.236  0.3068 -0.6540 -0.0402
15008SOL    HW148426   2.709   4.078   1.189  1.5284  0.3259 -2.1282
15008SOL    HW248427   2.808   4.161   1.268  0.3710 -0.0537 -0.2149
15009SOL     OW48428   2.048   9.486   0.047 -0.0565  0.4102  0.8001
15009SOL    HW148429   1.972   9.429   0.032  0.7571 -0.4192 -0.4022
15009SOL    HW248430   2.012   9.562   0.093 -1.4706 -0.3090  0.9632
15010SOL     OW48431   2.161   4.386   6.007  0.2047  0.0910 -0.2809
15010SOL    HW148432   2.195   4.373   6.096 -0.3914  0.9505  0.0861
15010SOL    HW248433   2.166   4.299   5.967  1.8259 -0.0163  0.1062
15011SOL     OW48434   8.150   0.117   7.369 -0.0318  0.8334  0.1344
15011SOL    HW148435   8.197   0.128   7.286  0.8505  0.2449  0.5383
15011SOL    HW248436   8.212   0.147   7.436 -0.6439  1.0798  0.6014
15012SOL     OW48437   4.859   0.353   2.845  0.1089 -0.0883  0.1253
15012SOL    HW148438   4.842   0.446   2.860 -0.5485 -0.1104 -0.4119
15012SOL    HW248439   4.947   0.339   2.879 -0.7091  0.1667  2.5379
15013SOL     OW48440   5.181   1.731   1.748  0.0361 -0.0680 -0.0546
15013SOL    HW148441   5.105   1.692   1.704 -0.4007 -0.0829  0.6876
15013SOL    HW248442   5.162   1.825   1.750  1.1915  0.2623 -2.0423
15014SOL     OW48443   1.856   3.446   3.642  0.2561  0.1505  0.2407
15014SOL    HW148444   1.878   3.537   3.623 -0.0533  0.6653  2.0812
15014SOL    HW248445   1.820   3.448   3.731  1.6699 -1.9867  0.9396
15015SOL     OW48446   9.752   6.521   2.563  0.2086  0.0270  0.0840
15015SOL    HW148447   9.795   6.589   2.615  1.7596 -0.1030 -0.9522
15015SOL    HW248448   9.793   6.439   2.592 -0.4647 -0.2869  0.1663
15016SOL     OW48449   1.681   9.994  10.118  0.3000 -0.3544 -0.2661
15016SOL    HW148450   1.634   9.911  10.116 -0.0378 -0.1973  0.5922
15016SOL    HW248451   1.746   9.987  10.048 -1.5199 -0.2557 -2.0788
15017SOL     OW48452   4.313   3.013  10.788 -0.0808  0.1943 -0.0538
15017SOL    HW148453   4.297   3.089  10.732 -0.3105  0.6405  0.6114
15017SOL    HW248454   4.245   3.018  10.855  0.9148  0.3422  0.9637
15018SOL     OW48455  10.822   5.812   0.616 -0.5135  0.3598  0.0491
15018SOL    HW148456  10.766   5.837   0.542  1.1729  0.4705 -1.2482
15018SOL    HW248457  10.792   5.867   0.688 -2.7018 -0.2744 -0.2945
15019SOL     OW48458   5.259   9.366   6.361  0.2087  0.6303 -0.1921
15019SOL    HW148459   5.261   9.443   6.303 -2.7530  0.4549 -0.7082
15019SOL    HW248460   5.278   9.292   6.304 -0.2417  0.6986 -0.4394
15020SOL     OW48461   4.594  10.498   3.772  0.6535 -0.2578  0.0056
15020SOL    HW148462   4.501  10.479   3.764  0.5321  0.8254 -1.9262
15020SOL    HW248463   4.599  10.592   3.788  1.4161 -0.4290  0.8809
15021SOL     OW48464   9.671   2.953   0.459 -0.5096 -0.0336  0.1996
15021SOL    HW148465   9.766   2.953   0.446 -0.4268  1.7601  0.5248
15021SOL    HW248466   9.636   2.990   0.378 -0.4817  4.3981  1.9310
15022SOL     OW48467   7.615   4.412   8.537 -0.6097  0.4287  0.3255
15022SOL    HW148468   7.531   4.459   8.538 -0.6041  0.5533 -1.6863
15022SOL    HW248469   7.630   4.392   8.445  0.7026 -1.2055  0.8519
15023SOL     OW48470   2.612   2.093   9.539  0.2798 -0.0367  0.2613
15023SOL    HW148471   2.592   2.174   9.492  1.0021  0.1638  0.2823
15023SOL    HW248472   2.687   2.056   9.491  1.0990  0.2311  1.2950
15024SOL     OW48473   5.841   5.056  10.694 -0.1587 -0.0531 -0.0020
15024SOL    HW148474   5.925   5.046  10.649  0.0298  3.2385 -0.6229
15024SOL    HW248475   5.861   5.036  10.786  0.6770 -1.7472 -0.5230
15025SOL     OW48476   5.414   1.063   2.343 -0.2968 -0.0422 -0.1178
15025SOL    HW148477   5.425   0.987   2.399  2.4171  0.8610  0.7553
15025SOL    HW248478   5.320   1.081   2.345 -0.6831 -1.8572  1.6652
15026SOL     OW48479   9.280  10.162   7.916 -0.3031 -0.6482  0.6371
15026SOL    HW148480   9.329  10.151   7.998 -1.3367 -0.0351  1.3516
15026SOL    HW248481   9.193  10.191   7.943  0.3320  3.1502 -0.8074
15027SOL     OW48482   7.808   1.442   5.164 -0.3042  0.4602  0.1087
15027SOL    HW148483   7.720   1.419   5.135  0.1912 -0.4890 -0.7028
15027SOL    HW248484   7.794   1.498   5.240 -1.6168 -1.1011  1.0913
15028SOL     OW48485   9.818   8.405   4.101  0.1151  0.2518 -0.1382
15028SOL    HW148486   9.828   8.313   4.079 -1.2409  0.0386  0.0078
15028SOL    HW248487   9.903   8.431   4.136  0.9026 -0.5938 -1.3608
15029SOL     OW48488   7.592   1.528   9.516  0.1391  0.2905 -0.4070
15029SOL    HW148489   7.541   1.447   9.514 -0.0660  0.2719  2.1433
15029SOL    HW248490   7.528   1.597   9.497 -0.3290  0.0502  0.2262
15030SOL     OW48491   8.475   8.675   7.577 -0.2438  0.2731  0.4203
15030SOL    HW148492   8.443   8.679   7.667  1.1196  0.1531  0.9454
15030SOL    HW248493   8.422   8.739   7.529 -0.9619  0.3622  1.3181
15031SOL     OW48494   1.031   6.361   9.486 -0.2529  0.1904  0.2247
15031SOL    HW148495   0.977   6.374   9.564 -1.2851  0.8505 -0.5754
15031SOL    HW248496   1.010   6.435   9.429  0.6231 -0.1749 -0.6089
15032SOL     OW48497   3.099   0.156  10.918  0.0426  0.1581  0.0986
15032SOL    HW148498   3.062   0.148  10.831  0.4781  0.4242 -0.1149
15032SOL    HW248499   3.086   0.248  10.941  0.0416  0.1179  0.2616
15033SOL     OW48500  10.900   2.607   4.959 -0.0901 -0.2625  0.1590
15033SOL    HW148501  10.943   2.651   4.886  0.0211 -1.1530 -0.3206
15033SOL    HW248502  10.971   2.563   5.006 -0.0969  0.6686  1.0787
15034SOL     OW48503   8.768   4.577   2.034  0.2635  0.3142 -0.6796
15034SOL    HW148504   8.832   4.590   1.964 -1.3121  1.2525 -1.9992
15034SOL    HW248505   8.821   4.571   2.114  1.9288  2.1120 -1.5817
15035SOL     OW48506   2.704   5.379   0.335 -0.1656 -0.7683 -0.4598
15035SOL    HW148507   2.653   5.324   0.395 -0.4071 -2.2314 -1.9329
15035SOL    HW248508   2.663   5.465   0.341 -0.4017 -0.9560  1.1803
15036SOL     OW48509   7.703   4.449   4.028 -0.1975  0.0639  0.0622
15036SOL    HW148510   7.622   4.467   4.076 -0.0911  1.0144 -0.1010
15036SOL    HW248511   7.715   4.524   3.970  1.2895  0.4174  0.7568
15037SOL     OW48512  10.583   8.360   0.046 -0.5144 -0.4177 -0.2640
15037SOL    HW148513  10.510   8.358   0.109  1.9476 -1.0016  2.8575
15037SOL    HW248514  10.587   8.271   0.012 -0.8591 -0.5787  0.0996
15038SOL     OW48515   4.459   7.264  10.720 -0.7411  0.0716  0.2419
15038SOL    HW148516   4.395   7.292  10.655 -0.4059 -2.2638 -1.1977
15038SOL    HW248517   4.448   7.169  10.725  1.6690 -0.2276  1.0079
15039SOL     OW48518  10.731   9.515  10.471 -0.3015 -0.2085 -0.2670
15039SOL    HW148519  10.659   9.501  10.532  0.4156 -1.0131  0.4342
15039SOL    HW248520  10.810   9.511  10.526  0.3813 -1.1350 -1.2554
15040SOL     OW48521   4.878   6.576   1.870  0.0776 -0.6424  0.2622
15040SOL    HW148522   4.912   6.524   1.797  0.8344  1.3103 -0.8651
15040SOL    HW248523   4.818   6.518   1.916 -0.3124 -2.0000 -1.8451
15041SOL     OW48524   0.553   3.439   0.877  0.2836  0.1718 -0.1456
15041SOL    HW148525   0.476   3.441   0.819 -0.3923  1.0885  0.7474
15041SOL    HW248526   0.536   3.365   0.935  1.1595 -1.0116 -1.3247
15042SOL     OW48527   3.908   3.249   1.446  0.0888  0.5252 -0.1483
15042SOL    HW148528   3.966   3.255   1.522 -0.8996  0.7895  0.6054
15042SOL    HW248529   3.888   3.156   1.438  0.6716  0.4201 -0.4702
15043SOL     OW48530   5.121   1.030   2.375  0.7383 -0.1640 -0.2351
15043SOL    HW148531   5.080   1.054   2.458 -0.3492  1.1775 -1.1140
15043SOL    HW248532   5.088   0.942   2.357  0.4159 -0.1831  0.4244
15044SOL     OW48533   9.858   6.001   2.690  0.6903  0.2297 -0.1217
15044SOL    HW148534   9.889   5.954   2.613 -1.3639  1.1490 -1.6279
15044SOL    HW248535   9.823   5.933   2.747 -3.1021 -0.2798 -2.6688
15045SOL     OW48536   6.133   6.866   9.255  0.7362 -0.0961  0.0300
15045SOL    HW148537   6.093   6.803   9.316  0.4688 -0.6551 -0.7012
15045SOL    HW248538   6.151   6.943   9.308  0.1867 -0.4449  0.7409
15046SOL     OW48539   5.356   2.336   9.322 -0.2681 -0.3514  0.1547
15046SOL    HW148540   5.304   2.304   9.397  0.9471 -0.5359  0.9547
15046SOL    HW248541   5.435   2.282   9.324  1.1621  1.6475  0.5909
15047SOL     OW48542   2.910   1.776   6.666 -0.0811 -0.0596  0.1811
15047SOL    HW148543   2.855   1.703   6.637 -0.1661 -0.5616  1.5136
15047SOL    HW248544   2.928   1.758   6.758  1.3131  0.7388  0.1047
15048SOL     OW48545   6.028  10.892   5.964 -0.4236 -0.6488  0.2708
15048SOL    HW148546   6.068  10.963   5.914  1.2057 -2.5985 -1.3892
15048SOL    HW248547   5.975  10.844   5.900  0.3677 -2.2485  0.7493
15049SOL     OW48548   1.674   8.300   1.115 -0.0588  0.6170  0.3899
15049SOL    HW148549   1.672   8.329   1.024  0.7425 -0.8493 -0.1376
15049SOL    HW248550   1.605   8.233   1.121  1.8513 -1.4945 -0.0019
15050SOL     OW48551   7.739   9.546   7.991 -0.0414  0.2953 -0.5793
15050SOL    HW148552   7.726   9.504   8.076  2.1143 -2.3423 -1.4137
15050SOL    HW248553   7.670   9.612   7.987 -1.0447 -0.3446  2.6354
15051SOL     OW48554   6.298   0.994   9.132  0.0418  0.3024  0.3117
15051SOL    HW148555   6.362   1.063   9.116 -0.6164  0.5563 -1.3666
15051SOL    HW248556   6.255   1.019   9.213  0.3525  1.4368  0.1374
15052SOL     OW48557  10.134  10.060   3.242 -0.1918  0.2421  0.0876
15052SOL    HW148558  10.070  10.131   3.241 -1.4768 -0.8622 -0.0006
15052SOL    HW248559  10.190  10.078   3.317  0.5468  2.1904 -0.8696
15053SOL     OW48560   2.382   5.847   1.048 -0.1870  0.4335  0.0468
15053SOL    HW148561   2.448   5.806   1.104  2.5342  4.0887 -0.1386
15053SOL    HW248562   2.388   5.800   0.965  0.6588 -0.6857  0.7181
15054SOL     OW48563   2.067   3.603   1.097 -0.1531  0.0098 -0.2178
15054SOL    HW148564   2.120   3.527   1.074  2.1324  1.9443 -1.8302
15054SOL    HW248565   2.102   3.632   1.181  1.0198  0.9424 -1.0021
15055SOL     OW48566   3.955   4.272   1.801 -0.2974 -0.3262  0.8096
15055SOL    HW148567   3.951   4.236   1.712  0.3123 -1.5055  1.2377
15055SOL    HW248568   3.964   4.195   1.857 -0.7733  0.4033  1.9107
15056SOL     OW48569  10.485   0.546   2.249  0.4005  0.3778 -0.2165
15056SOL    HW148570  10.432   0.525   2.326  1.9569 -2.3478  0.2381
15056SOL    HW248571  10.567   0.580   2.284  1.0174 -0.6325 -0.6121
15057SOL     OW48572   9.580   0.758   7.233  0.1674 -0.0980 -0.0268
15057SOL    HW148573   9.572   0.853   7.226  0.8467 -0.0054  0.3526
15057SOL    HW248574   9.508   0.724   7.180 -0.7573  0.6253  0.7263
15058SOL     OW48575   0.272   6.841   9.066  0.8517  0.3448 -0.2431
15058SOL    HW148576   0.208   6.824   8.997  0.7450 -0.3275  0.0134
15058SOL    HW248577   0.290   6.755   9.104  1.9830  0.5139 -0.3746
15059SOL     OW48578   8.952   0.268   6.931  0.2321  0.7271 -0.2932
15059SOL    HW148579   9.009   0.226   6.867  0.1478  1.1368 -0.6387
15059SOL    HW248580   8.969   0.221   7.013 -1.0925 -1.1211 -1.0078
15060SOL     OW48581   1.776   8.128   1.323  0.3702 -0.3627 -0.3694
15060SOL    HW148582   1.687   8.125   1.358 -0.5138 -0.8155 -2.4674
15060SOL    HW248583   1.775   8.200   1.260  1.5532 -0.2650 -0.3019
15061SOL     OW48584   9.582   8.793  10.236 -1.0481 -0.2405 -0.1431
15061SOL    HW148585   9.538   8.714  10.204 -1.2872 -0.0075 -0.3830
15061SOL    HW248586   9.627   8.763  10.316  0.2596 -1.0329 -1.1297
15062SOL     OW48587   4.775   8.001   5.393 -0.6231 -0.1363  0.0498
15062SOL    HW148588   4.804   8.015   5.303 -0.0577  2.8514  0.6022
15062SOL    HW248589   4.855   8.002   5.445 -1.0695 -0.0298  0.7502
15063SOL     OW48590   3.549   8.129  10.721  0.2154 -0.0643 -0.0921
15063SOL    HW148591   3.483   8.074  10.679 -1.1995  1.1899  0.3986
15063SOL    HW248592   3.622   8.131  10.659 -1.2004  0.4729 -1.8171
15064SOL     OW48593   3.477   4.790   5.679 -0.0800 -0.4744  0.2048
15064SOL    HW148594   3.512   4.873   5.712  1.5057  0.0812 -2.4899
15064SOL    HW248595   3.548   4.727   5.691 -0.6894 -1.0545  0.8079
15065SOL     OW48596   4.607   8.346   2.119 -0.1586 -0.0457  0.1207
15065SOL    HW148597   4.538   8.289   2.153  0.1334  0.8808  2.4236
15065SOL    HW248598   4.560   8.414   2.070 -0.5860 -1.3845 -1.4316
15066SOL     OW48599   4.048   2.731   9.702  0.5246  0.2826  0.6711
15066SOL    HW148600   4.128   2.783   9.712  2.1076 -1.1472 -2.6700
15066SOL    HW248601   4.021   2.747   9.611 -1.5443 -1.2697  0.9351
15067SOL     OW48602   8.275   0.087   2.567 -0.1651 -0.4797  0.5231
15067SOL    HW148603   8.290   0.180   2.549  0.9176 -0.6412  0.5486
15067SOL    HW248604   8.302   0.077   2.659 -1.3049 -0.6071  0.8599
15068SOL     OW48605   6.740   4.185   3.937  0.1182 -0.2295 -0.3588
15068SOL    HW148606   6.654   4.204   3.901  1.5374  2.7890 -2.6298
15068SOL    HW248607   6.726   4.174   4.031 -2.6596  0.7800 -0.5749
15069SOL     OW48608   9.918  10.451   0.536 -0.5591 -0.0722 -0.1038
15069SOL    HW148609   9.906  10.453   0.631 -2.4892 -1.4094 -0.2531
15069SOL    HW248610   9.994  10.395   0.521 -0.4966 -0.1907  0.6457
15070SOL     OW48611   1.759   7.089   1.109 -0.5128  0.0244 -0.4082
15070SOL    HW148612   1.673   7.067   1.071 -0.5067  0.1361 -0.4894
15070SOL    HW248613   1.739   7.152   1.178 -0.5703 -0.5612  0.1126
15071SOL     OW48614   1.138   8.507   8.093 -0.3940  0.2036 -0.5471
15071SOL    HW148615   1.199   8.435   8.105  0.7247  1.2952  0.6726
15071SOL    HW248616   1.181   8.564   8.029 -0.4121  0.6610 -0.1586
15072SOL     OW48617   0.067   1.648  10.246 -0.3873 -0.3324 -0.1140
15072SOL    HW148618   0.105   1.724  10.203 -0.5088 -1.4197 -2.3078
15072SOL    HW248619   0.062   1.672  10.338 -0.7436  2.4217 -0.7688
15073SOL     OW48620   9.330   5.478   8.433 -0.3754 -0.2448 -0.0653
15073SOL    HW148621   9.267   5.438   8.493 -0.6531 -0.7364 -0.6716
15073SOL    HW248622   9.294   5.565   8.415 -0.1725 -0.0048  0.6473
15074SOL     OW48623   7.832   9.381   4.585  0.0495 -0.2951  0.0099
15074SOL    HW148624   7.864   9.404   4.672 -0.0773 -0.6702  0.1577
15074SOL    HW248625   7.868   9.294   4.567  0.0539 -0.2325 -0.3006
15075SOL     OW48626   8.759   6.097  10.289  0.1191  0.0104 -0.4923
15075SOL    HW148627   8.749   6.145  10.372  0.4539  1.7026 -1.3937
15075SOL    HW248628   8.845   6.054  10.298  0.8859  1.4572 -0.5473
15076SOL     OW48629   4.351  10.188   2.453  0.5117 -0.3353  0.5994
15076SOL    HW148630   4.412  10.243   2.403 -0.0622  0.6481  0.9643
15076SOL    HW248631   4.383  10.193   2.543  1.2283 -1.6771  0.4391
15077SOL     OW48632   4.199   6.024   0.552  0.2859  0.1483 -0.3787
15077SOL    HW148633   4.116   6.023   0.598  0.3967 -0.3366 -0.1787
15077SOL    HW248634   4.193   5.950   0.490  1.2581 -1.0586  0.9042
15078SOL     OW48635   2.079   8.806   4.246  0.1964  0.0938 -0.0528
15078SOL    HW148636   2.141   8.756   4.194  1.4895  0.9364  0.6210
15078SOL    HW248637   2.117   8.809   4.334 -2.0373 -1.4759  1.0619
15079SOL     OW48638   7.446   9.184   1.620  0.0756  0.1331  0.0819
15079SOL    HW148639   7.380   9.199   1.552 -0.9063 -0.1698  0.9451
15079SOL    HW248640   7.468   9.092   1.613 -0.6978 -0.1154  0.7394
15080SOL     OW48641   1.985   2.094   0.660 -0.2345  0.3277  0.2455
15080SOL    HW148642   2.008   2.038   0.586  0.4511 -1.1772  1.5646
15080SOL    HW248643   2.069   2.127   0.693 -0.4956  0.5940  0.6592
15081SOL     OW48644   4.893   1.815   4.456 -0.0386  0.9894 -0.2733
15081SOL    HW148645   4.857   1.794   4.369 -1.1490 -1.3858  0.6566
15081SOL    HW248646   4.986   1.794   4.448 -0.1720  0.5733 -0.8465
15082SOL     OW48647  10.080   0.039   2.390  0.7066  0.2709 -0.2447
15082SOL    HW148648  10.024  -0.020   2.440  2.0459 -3.1897 -2.5009
15082SOL    HW248649  10.021   0.106   2.357 -0.9893  0.0146  2.0277
15083SOL     OW48650  10.146   7.531   6.818 -0.3556 -0.0504  0.1340
15083SOL    HW148651  10.139   7.521   6.723  1.0557  2.1966 -0.2876
15083SOL    HW248652  10.106   7.616   6.836 -0.3514 -0.3186  1.5331
15084SOL     OW48653   8.384   0.335   2.493 -0.5252  0.3256 -0.9188
15084SOL    HW148654   8.312   0.398   2.485 -1.3189 -0.7189 -2.7144
15084SOL    HW248655   8.463   0.386   2.475 -1.0206  1.0848 -0.9901
15085SOL     OW48656   5.311   5.617  10.570  0.0352 -0.3799  0.2586
15085SOL    HW148657   5.379   5.593  10.633  0.9759 -0.9330 -0.9207
15085SOL    HW248658   5.260   5.685  10.614  1.3618  0.0618  1.1840
15086SOL     OW48659   0.372   4.779   4.439  0.0838 -0.2094 -0.2329
15086SOL    HW148660   0.307   4.850   4.433 -2.3635 -2.2183  0.4183
15086SOL    HW248661   0.337   4.722   4.508  3.8436 -0.2674  1.8622
15087SOL     OW48662   8.716   9.848   2.927 -0.4280  0.2817  0.4144
15087SOL    HW148663   8.673   9.924   2.890 -1.3813  0.2746  1.4465
15087SOL    HW248664   8.791   9.883   2.975 -1.6700  0.7587  2.0874
15088SOL     OW48665   1.185   2.554   5.110  0.0552 -0.0249  0.1905
15088SOL    HW148666   1.131   2.633   5.106 -0.3853 -0.3509 -0.3955
15088SOL    HW248667   1.234   2.554   5.028 -1.5846 -1.4977 -0.8685
15089SOL     OW48668  10.409   7.487   3.394  0.1742  0.2934  0.3067
15089SOL    HW148669  10.325   7.456   3.361  0.8847 -1.1981 -0.1752
15089SOL    HW248670  10.403   7.583   3.390 -1.7171  0.2313  0.8963
15090SOL     OW48671   9.439   3.084   5.050  0.4029 -0.4001 -0.0862
15090SOL    HW148672   9.481   3.130   5.123  1.8972  0.1817 -1.2673
15090SOL    HW248673   9.356   3.129   5.038  0.0731 -0.5889  1.3338
15091SOL     OW48674   0.974   6.861   8.767  0.4566 -0.2796 -0.8632
15091SOL    HW148675   0.921   6.934   8.736 -0.3721 -0.9758 -1.1245
15091SOL    HW248676   1.057   6.901   8.792 -0.3474  0.9012  0.0223
15092SOL     OW48677   3.365   6.577  10.882 -0.5905 -0.5381  0.4378
15092SOL    HW148678   3.299   6.645  10.868 -0.1232 -0.3908 -1.2106
15092SOL    HW248679   3.323   6.496  10.853 -0.4421 -0.6309  0.4791
15093SOL     OW48680   4.992   2.888   3.860  0.6769  0.2363  0.3485
15093SOL    HW148681   4.948   2.948   3.800 -0.2561  0.9628  1.7036
15093SOL    HW248682   5.040   2.828   3.803 -0.7742  0.4204 -1.1550
15094SOL     OW48683   7.575   6.778  10.411  0.3583 -0.0843  0.0838
15094SOL    HW148684   7.615   6.731  10.484 -0.6390 -2.4787 -0.8119
15094SOL    HW248685   7.644   6.836  10.379  2.8893 -3.2759 -0.7577
15095SOL     OW48686   0.416   3.852   8.731  0.0474 -0.2120 -0.4003
15095SOL    HW148687   0.403   3.902   8.650  0.1326  0.6265  0.0810
15095SOL    HW248688   0.365   3.900   8.796  2.4690  1.0182  0.7317
15096SOL     OW48689   2.932   4.278   5.858 -0.3256  0.2869  0.1986
15096SOL    HW148690   2.933   4.351   5.797 -0.7840 -1.2406 -1.7425
15096SOL    HW248691   3.024   4.250   5.864 -0.6199 -1.7715 -2.7452
15097SOL     OW48692   9.236   7.348   4.535 -0.0320  0.6204 -0.1114
15097SOL    HW148693   9.301   7.413   4.510 -0.0240  0.7522  0.2536
15097SOL    HW248694   9.155   7.397   4.548 -0.0978  0.5181 -0.1275
15098SOL     OW48695   2.493   6.032   6.452  0.0664 -0.1283 -0.4179
15098SOL    HW148696   2.521   6.085   6.377  0.9077  1.2242  0.8131
15098SOL    HW248697   2.567   6.034   6.512 -0.7970 -0.7274  0.6976
15099SOL     OW48698   0.470   3.079   8.489  0.4478 -0.3527  0.1623
15099SOL    HW148699   0.564   3.094   8.480  0.3852 -0.2114 -0.2427
15099SOL    HW248700   0.431   3.117   8.411  0.1443 -1.2869 -0.1614
15100SOL     OW48701   2.282   5.789   4.756  0.1652 -0.3633  0.2933
15100SOL    HW148702   2.224   5.782   4.831 -0.3327  4.4478  0.6844
15100SOL    HW248703   2.224   5.781   4.680 -0.3853  0.4541  0.6084
15101SOL     OW48704   2.082   2.958   0.016  0.5376  0.3574  0.1054
15101SOL    HW148705   2.001   2.963  -0.035  2.2261 -1.3401 -2.9869
15101SOL    HW248706   2.150   2.987  -0.044  2.5705 -0.6605  1.8025
15102SOL     OW48707   8.556   5.910   2.489 -0.3027 -0.4683  0.4139
15102SOL    HW148708   8.640   5.955   2.475 -0.6477  0.2084  0.5017
15102SOL    HW248709   8.524   5.945   2.572 -0.1603 -1.5345  0.9294
15103SOL     OW48710   6.404   1.470   4.810 -0.2591 -0.3403  0.0980
15103SOL    HW148711   6.310   1.489   4.817  0.1536  1.4950  1.4946
15103SOL    HW248712   6.433   1.519   4.733  0.0367  1.5142  1.3293
15104SOL     OW48713   5.892   8.593   4.817 -0.5372 -0.0879  0.4842
15104SOL    HW148714   5.984   8.581   4.795 -0.5761  0.1261  0.2034
15104SOL    HW248715   5.864   8.507   4.848 -0.3567 -0.2752  0.1426
15105SOL     OW48716   2.505   2.720  10.052 -0.0661 -0.1033  0.3821
15105SOL    HW148717   2.497   2.766  10.135  0.7222 -1.1816  1.0855
15105SOL    HW248718   2.592   2.746  10.019 -0.3242  0.2239 -0.0575
15106SOL     OW48719   1.914   5.866   1.599  0.0693 -0.2354 -0.2927
15106SOL    HW148720   1.825   5.838   1.578 -0.2154  1.7069 -1.9605
15106SOL    HW248721   1.969   5.821   1.535 -0.0645  0.7027 -1.0915
15107SOL     OW48722  10.369   7.840   0.722 -0.1954  0.0052 -0.4714
15107SOL    HW148723  10.362   7.752   0.758  1.3388 -0.6364 -1.6308
15107SOL    HW248724  10.458   7.845   0.687 -0.4294  1.8307 -0.9280
15108SOL     OW48725   1.809   1.783   6.661 -0.1836 -0.0604 -0.1160
15108SOL    HW148726   1.845   1.784   6.751  0.1478 -0.3959 -0.2405
15108SOL    HW248727   1.885   1.801   6.606 -0.0824 -1.3533 -0.4247
15109SOL     OW48728   9.896   7.161   6.682 -0.2508  0.3334 -0.1425
15109SOL    HW148729   9.882   7.236   6.625 -2.1097  0.2299  0.0941
15109SOL    HW248730   9.880   7.195   6.770  1.2226  0.1825  0.2004
15110SOL     OW48731   2.167   7.632   2.520  0.3873  0.4759 -0.1574
15110SOL    HW148732   2.234   7.593   2.466 -0.6057  0.1066 -1.1604
15110SOL    HW248733   2.114   7.684   2.460 -0.7571  0.0378  0.4369
15111SOL     OW48734   2.023  10.563   1.631  0.0942  0.2791  0.0568
15111SOL    HW148735   2.092  10.499   1.647 -0.4322  0.0810  1.7150
15111SOL    HW248736   2.013  10.564   1.536  2.6359  0.6179 -0.2832
15112SOL     OW48737   7.287   5.338   0.771  0.5512 -0.0098  0.0483
15112SOL    HW148738   7.364   5.285   0.794  0.5986 -0.4502 -1.0832
15112SOL    HW248739   7.220   5.274   0.747  0.0381  0.3965  0.3746
15113SOL     OW48740   4.010   6.392  10.169  0.2243  0.3124 -0.1897
15113SOL    HW148741   4.048   6.472  10.206  0.3325 -0.4483  1.4165
15113SOL    HW248742   4.047   6.321  10.222 -0.6426 -0.7261 -0.9400
15114SOL     OW48743   5.194   1.751   7.550  0.0031 -0.3833 -0.1485
15114SOL    HW148744   5.216   1.702   7.629  0.0199  0.1568  0.1891
15114SOL    HW248745   5.265   1.732   7.489 -0.1955 -1.0883 -0.1604
15115SOL     OW48746   3.214   1.939   6.056 -0.0423  0.2192  0.5537
15115SOL    HW148747   3.219   2.033   6.077  0.8678  0.3465 -0.1798
15115SOL    HW248748   3.216   1.896   6.142  0.9908  0.8319  0.8607
15116SOL     OW48749  10.567   3.998   4.187  0.1592  0.4673  0.3616
15116SOL    HW148750  10.636   3.943   4.151 -0.1784 -0.3846  0.9592
15116SOL    HW248751  10.613   4.064   4.238  0.5750  0.7230 -0.3396
15117SOL     OW48752   3.937   1.203   6.697  0.1520 -0.0218  0.4680
15117SOL    HW148753   3.896   1.126   6.658  0.4795  0.9408 -2.0083
15117SOL    HW248754   4.023   1.172   6.727 -0.8942 -1.2369  2.3890
15118SOL     OW48755   3.480   8.659   6.467 -0.0297  0.4046 -0.3528
15118SOL    HW148756   3.449   8.580   6.423 -1.8127  1.2712 -0.7468
15118SOL    HW248757   3.539   8.627   6.535  1.5996 -1.0496 -2.3466
15119SOL     OW48758  10.086   2.814   2.835 -0.1333 -0.1561 -0.7958
15119SOL    HW148759  10.072   2.904   2.804  0.7326  0.0268 -0.6742
15119SOL    HW248760  10.035   2.760   2.775 -1.8657  0.5096 -0.0132
15120SOL     OW48761   9.778   6.449   6.553  0.3515 -0.4100  0.1080
15120SOL    HW148762   9.849   6.452   6.616  1.3468  0.1171 -0.9912
15120SOL    HW248763   9.730   6.369   6.574  2.1503 -1.5959 -0.0501
15121SOL     OW48764   3.191   3.938   3.270 -0.1946  0.0458 -0.7974
15121SOL    HW148765   3.263   3.943   3.333 -1.2153  0.5171  0.3925
15121SOL    HW248766   3.153   4.026   3.270  0.1189  0.2014 -2.5190
15122SOL     OW48767   3.939   5.353   5.676 -0.1987  0.0015 -0.6498
15122SOL    HW148768   3.921   5.433   5.726 -2.3067  0.2010 -1.6597
15122SOL    HW248769   3.965   5.289   5.743 -3.2548  0.1605  0.8541
15123SOL     OW48770   8.571   9.503   4.433 -0.3040 -0.0787  0.0201
15123SOL    HW148771   8.504   9.469   4.492  1.7925 -1.3986  1.7872
15123SOL    HW248772   8.634   9.432   4.425  2.3709  2.0495  0.8248
15124SOL     OW48773   0.289   4.137  10.740  0.0071  0.6778  0.1946
15124SOL    HW148774   0.245   4.054  10.724  1.7522 -0.0207 -1.4209
15124SOL    HW248775   0.259   4.194  10.669  0.5244  0.6657 -0.0430
15125SOL     OW48776   9.681   3.039  10.195  0.3653 -0.0675  0.1527
15125SOL    HW148777   9.647   3.111  10.141 -1.0437 -1.0703 -0.3373
15125SOL    HW248778   9.738   3.082  10.259  0.7087  1.3311 -1.0413
15126SOL     OW48779   4.672   1.995   1.881  0.2395 -0.0541  0.1069
15126SOL    HW148780   4.668   2.084   1.918 -0.8816  0.4456 -1.1381
15126SOL    HW248781   4.582   1.976   1.855  0.5470 -1.4216  0.0033
15127SOL     OW48782   9.374   8.714   8.445 -0.2160 -0.4206  0.3417
15127SOL    HW148783   9.453   8.686   8.398 -1.2729 -0.8061 -1.3047
15127SOL    HW248784   9.359   8.804   8.415  0.5929  0.3368  2.0825
15128SOL     OW48785   1.824   6.748   0.332  0.3097 -0.6864 -0.7357
15128SOL    HW148786   1.890   6.803   0.290 -0.9722  1.4640 -0.0409
15128SOL    HW248787   1.863   6.660   0.332  2.0887  0.0270 -2.5850
15129SOL     OW48788   9.004  10.711   4.684 -0.1348 -0.5596 -0.1521
15129SOL    HW148789   9.082  10.765   4.673 -0.9076  0.2533 -2.0207
15129SOL    HW248790   8.957  10.718   4.601 -1.7066 -1.8305  0.5605
15130SOL     OW48791   0.352   5.052   8.571  1.1178 -0.2176 -0.1604
15130SOL    HW148792   0.436   5.050   8.527  0.9616  1.8429 -0.6604
15130SOL    HW248793   0.296   4.995   8.518  1.0611  1.8174 -2.4545
15131SOL     OW48794   3.246   7.853   9.615 -0.1895 -0.1209 -0.4517
15131SOL    HW148795   3.158   7.881   9.589 -0.1676  1.7423  1.3058
15131SOL    HW248796   3.234   7.813   9.701  0.4579 -1.5976 -1.0138
15132SOL     OW48797   9.395   2.098  10.225 -0.0839  0.7595  0.1800
15132SOL    HW148798   9.406   2.192  10.243 -1.0733  0.7685  0.7623
15132SOL    HW248799   9.484   2.063  10.231  0.4581  1.8121 -1.0247
15133SOL     OW48800   6.494   0.421   5.162  0.0873 -0.1795  0.2871
15133SOL    HW148801   6.536   0.504   5.140  0.0713 -0.3897 -0.5685
15133SOL    HW248802   6.413   0.445   5.207 -0.9805  0.3462 -1.8086
15134SOL     OW48803  10.258   6.459   1.084  0.0372  0.1875 -0.4016
15134SOL    HW148804  10.344   6.440   1.046 -0.7242 -2.7525 -0.8651
15134SOL    HW248805  10.195   6.429   1.019 -1.3120 -1.3810  1.5208
15135SOL     OW48806   3.154   7.721   4.531 -0.5886  0.1977  0.4283
15135SOL    HW148807   3.133   7.811   4.508  1.2145  0.7251  0.7115
15135SOL    HW248808   3.078   7.690   4.579 -1.3395  1.4767  0.1160
15136SOL     OW48809   3.788  10.655   9.003 -0.5857 -0.6408 -0.2303
15136SOL    HW148810   3.864  10.671   9.059 -3.0490 -0.1697  3.2587
15136SOL    HW248811   3.746  10.741   8.994 -1.7086 -1.2082 -0.5496
15137SOL     OW48812   5.956   3.482   7.246  0.0116 -0.5225 -0.2529
15137SOL    HW148813   5.946   3.402   7.194 -0.3073 -1.0440  0.5888
15137SOL    HW248814   5.889   3.475   7.314 -0.4881  0.7982 -0.5736
15138SOL     OW48815   1.378   6.191   9.909  0.7636  0.3488 -0.0062
15138SOL    HW148816   1.456   6.227   9.951  0.7139 -0.5480  0.9081
15138SOL    HW248817   1.305   6.228   9.958  0.6066  1.0715 -0.7667
15139SOL     OW48818  10.092   3.101   3.689 -0.2548 -0.2850  0.1329
15139SOL    HW148819  10.044   3.131   3.766 -1.3193 -0.7135 -0.3528
15139SOL    HW248820  10.154   3.172   3.671 -0.8920  0.4075  0.6061
15140SOL     OW48821   1.058   2.759   4.089 -0.7595  0.2841 -0.1854
15140SOL    HW148822   1.136   2.762   4.144 -0.9015  0.9301 -0.0044
15140SOL    HW248823   1.079   2.814   4.013 -0.6442 -0.4248 -0.6732
15141SOL     OW48824   6.129  10.791   8.284  0.6692 -0.1332 -0.6712
15141SOL    HW148825   6.137  10.742   8.202  0.6154  0.0828 -0.8082
15141SOL    HW248826   6.182  10.870   8.270  1.8614 -0.7714  0.0368
15142SOL     OW48827   1.766  10.635   1.440  0.1277 -0.1846 -1.2228
15142SOL    HW148828   1.846  10.593   1.408 -0.6174 -2.0473 -0.7957
15142SOL    HW248829   1.731  10.574   1.505  0.6218  2.6200  1.9517
15143SOL     OW48830   3.112   2.446   3.086  0.3807  0.1435 -0.2372
15143SOL    HW148831   3.104   2.354   3.061 -2.4360  0.6291 -1.5867
15143SOL    HW248832   3.131   2.492   3.004 -0.2574  0.9379  0.0475
15144SOL     OW48833   4.078   1.300   3.987  0.0404 -0.4939  0.1440
15144SOL    HW148834   4.129   1.379   3.969 -1.0560 -0.2305 -2.1385
15144SOL    HW248835   4.119   1.232   3.933 -1.5197 -0.4373 -1.1918
15145SOL     OW48836   4.814   9.145  10.173  0.1713 -0.2535  0.3499
15145SOL    HW148837   4.867   9.186  10.241 -0.9000  1.9312 -0.0510
15145SOL    HW248838   4.871   9.078  10.135  1.4669 -0.1694  2.0621
15146SOL     OW48839   9.158   8.886   8.762 -0.4328 -0.1298 -0.3589
15146SOL    HW148840   9.127   8.797   8.750 -3.4444  0.6539  0.6848
15146SOL    HW248841   9.210   8.883   8.842 -0.1116 -1.0070 -0.5927
15147SOL     OW48842  10.737   9.056   2.033  0.0019  0.6970 -0.9285
15147SOL    HW148843  10.790   9.077   2.110  0.6976 -1.6008 -0.6961
15147SOL    HW248844  10.668   9.122   2.033 -0.1098  0.7125  1.7942
15148SOL     OW48845   3.392   3.516   0.497  0.3171  0.2953  0.2509
15148SOL    HW148846   3.485   3.498   0.504  0.5929  1.9448  1.3521
15148SOL    HW248847   3.387   3.600   0.452 -0.4506  1.6391  2.6609
15149SOL     OW48848   7.298   4.971   2.293  0.3903 -0.3768 -0.4418
15149SOL    HW148849   7.243   4.896   2.270 -0.1992  0.3616 -1.4975
15149SOL    HW248850   7.246   5.021   2.356  0.7074 -0.7400  0.1196
15150SOL     OW48851   7.040   5.069   7.637  0.0272  0.2768 -0.3463
15150SOL    HW148852   6.946   5.051   7.644 -0.1121  1.0055 -0.2752
15150SOL    HW248853   7.074   4.998   7.583 -0.6620  0.3013 -0.8247
15151SOL     OW48854   3.205   3.496   3.248 -0.2565 -0.8710  0.2785
15151SOL    HW148855   3.146   3.422   3.258 -0.7842 -1.0130 -3.0230
15151SOL    HW248856   3.176   3.559   3.314 -1.8137 -2.3191  1.0501
15152SOL     OW48857   2.525   0.022   1.475  0.6808 -0.3542 -0.4187
15152SOL    HW148858   2.510  -0.072   1.483  0.6912 -0.5026 -1.7861
15152SOL    HW248859   2.464   0.062   1.537  1.1779 -1.2824  0.6824
15153SOL     OW48860   5.825   2.792   8.987 -0.1068 -0.2401 -0.9733
15153SOL    HW148861   5.917   2.790   8.960  0.1775  0.0194 -0.0581
15153SOL    HW248862   5.784   2.857   8.931  0.1124 -0.8283 -1.8397
15154SOL     OW48863   9.788   5.047  10.516  0.2085  0.2477 -0.5298
15154SOL    HW148864   9.836   5.070  10.596 -0.3184  0.5018 -0.2805
15154SOL    HW248865   9.821   4.961  10.492 -0.8554 -0.6132  0.9355
15155SOL     OW48866   0.401  10.410   4.565 -0.3728  0.1571 -0.1632
15155SOL    HW148867   0.314  10.373   4.574 -0.3823  0.4581  1.2924
15155SOL    HW248868   0.458  10.335   4.547 -0.8529 -0.1041 -0.5978
15156SOL     OW48869  10.595   9.733   7.382  0.3095 -0.7478  0.7411
15156SOL    HW148870  10.660   9.780   7.435  0.2379  0.2421 -0.0184
15156SOL    HW248871  10.546   9.681   7.445  1.6812 -1.3453  1.3700
15157SOL     OW48872   2.248   8.399   6.154 -0.3828  0.0991 -0.3213
15157SOL    HW148873   2.298   8.379   6.233  1.7916 -0.0816 -1.6748
15157SOL    HW248874   2.197   8.476   6.177  0.9357  0.6280  0.9887
15158SOL     OW48875   8.423   6.856   1.159 -0.2361  0.5585 -0.4651
15158SOL    HW148876   8.379   6.920   1.216 -0.4804  0.0841 -0.1186
15158SOL    HW248877   8.375   6.774   1.173 -0.2680  0.4229 -1.3238
15159SOL     OW48878   8.871   1.072   2.423 -0.6557  0.2464 -0.3497
15159SOL    HW148879   8.881   1.076   2.518  0.4837 -0.5448 -0.4139
15159SOL    HW248880   8.942   1.014   2.394 -1.4275 -0.1058 -1.6089
15160SOL     OW48881   0.866   0.932   5.662  0.0877 -0.5176 -0.2180
15160SOL    HW148882   0.927   0.995   5.699 -2.4932  1.0106  1.8478
15160SOL    HW248883   0.792   0.985   5.631 -2.1830 -2.3912  1.5623
15161SOL     OW48884   1.310   7.894   9.470 -0.1023 -0.0703  0.1234
15161SOL    HW148885   1.230   7.940   9.444 -1.0215 -0.9967  1.2521
15161SOL    HW248886   1.359   7.885   9.389 -0.9764  0.8045 -0.5338
15162SOL     OW48887   1.413   9.501   1.481  0.2182 -0.1812  0.6878
15162SOL    HW148888   1.347   9.553   1.528 -2.2919 -0.3501 -2.2921
15162SOL    HW248889   1.380   9.411   1.484  1.3737 -0.6171  0.7862
15163SOL     OW48890   2.928   0.385   2.186 -0.3322  0.1786  0.3227
15163SOL    HW148891   2.985   0.454   2.151 -1.3796  0.4676 -0.9174
15163SOL    HW248892   2.912   0.328   2.111 -0.3500 -0.8251  1.0750
15164SOL     OW48893  10.750  10.562   1.355 -0.2648  0.0560  0.2685
15164SOL    HW148894  10.844  10.555   1.370 -0.3809 -0.1402  0.9760
15164SOL    HW248895  10.713  10.486   1.400 -0.7765  0.2175  0.1341
15165SOL     OW48896   6.831   0.652   6.605  0.3236 -0.5653 -0.2637
15165SOL    HW148897   6.878   0.574   6.574  1.4591 -0.2251  0.5299
15165SOL    HW248898   6.780   0.620   6.680 -0.0672 -0.7673 -0.6142
15166SOL     OW48899   8.778   6.289   5.468  0.0056 -0.0715 -0.1169
15166SOL    HW148900   8.817   6.209   5.433 -0.4942 -0.3236 -0.0978
15166SOL    HW248901   8.828   6.360   5.426 -1.0233 -0.3378 -1.9215
15167SOL     OW48902   9.637   5.083   4.016 -0.1589  0.3285 -0.1388
15167SOL    HW148903   9.643   5.124   3.930 -0.0508 -1.1212 -0.8619
15167SOL    HW248904   9.727   5.082   4.049  0.3259 -1.7364 -1.3424
15168SOL     OW48905   1.826   4.750   9.311  0.2110 -0.6184  0.0181
15168SOL    HW148906   1.922   4.750   9.316  0.3487 -0.4901 -1.7686
15168SOL    HW248907   1.805   4.671   9.261 -0.5089  0.0332 -0.7394
15169SOL     OW48908   5.036   7.663   8.809 -0.0090  0.3692 -0.3458
15169SOL    HW148909   5.116   7.710   8.834 -0.0963 -0.1704  1.0347
15169SOL    HW248910   4.965   7.722   8.836 -0.1302 -0.6317  1.7425
15170SOL     OW48911   0.235   9.139   2.610 -0.6621  0.1726  0.6294
15170SOL    HW148912   0.207   9.223   2.576 -1.1224 -0.1691  0.1547
15170SOL    HW248913   0.326   9.130   2.582 -0.9026  0.0900 -0.1377
15171SOL     OW48914   4.491   8.924   1.603  0.0499 -0.5367  0.8320
15171SOL    HW148915   4.476   9.005   1.554 -0.7611 -1.1718 -0.0137
15171SOL    HW248916   4.568   8.943   1.657 -0.6061  1.0560  1.2645
15172SOL     OW48917   3.446   0.984   3.685 -0.1980  0.3015 -0.5686
15172SOL    HW148918   3.414   1.051   3.745  0.6875 -0.2988  0.6183
15172SOL    HW248919   3.425   1.018   3.598 -2.1000  0.9048  0.0641
15173SOL     OW48920   3.450   0.029   9.669  0.6236  0.3481  0.1161
15173SOL    HW148921   3.543   0.048   9.658  0.6158  1.0608  1.1784
15173SOL    HW248922   3.441  -0.063   9.642  1.6888  0.1745  0.3193
15174SOL     OW48923   5.636   5.625   0.679 -0.1947 -0.1221 -0.4833
15174SOL    HW148924   5.573   5.615   0.609  1.2272  1.8752 -2.1686
15174SOL    HW248925   5.662   5.535   0.701 -1.7181 -0.8429 -1.4888
15175SOL     OW48926   7.599   4.883   7.661  0.0297  0.0430 -0.4644
15175SOL    HW148927   7.600   4.913   7.752 -1.0124 -0.7862 -0.1477
15175SOL    HW248928   7.520   4.923   7.623  0.3602  0.2406 -0.9566
15176SOL     OW48929   0.392   0.019   1.442  0.2750 -0.1820  0.2208
15176SOL    HW148930   0.482   0.026   1.411  0.8590 -1.1248  1.6340
15176SOL    HW248931   0.372   0.107   1.476  0.1319  0.4392 -1.3961
15177SOL     OW48932   1.837   6.705   7.006  0.0665  0.2267  0.2474
15177SOL    HW148933   1.796   6.771   6.951 -0.1421  0.5055  0.7265
15177SOL    HW248934   1.763   6.658   7.046  0.1248 -1.8368 -1.8095
15178SOL     OW48935   6.184   9.749   1.218  0.1373 -0.5266  0.5038
15178SOL    HW148936   6.178   9.672   1.161 -0.4345 -0.4905  0.5084
15178SOL    HW248937   6.094   9.782   1.223 -0.6875 -2.7309  4.4572
15179SOL     OW48938   3.948   5.140   9.832  0.2284 -0.2367  0.3065
15179SOL    HW148939   3.958   5.187   9.749  0.5221 -1.6090 -0.4583
15179SOL    HW248940   3.901   5.202   9.889  2.2646  1.7257  0.0030
15180SOL     OW48941  10.879   7.745   0.558  0.7311 -0.2381 -0.1824
15180SOL    HW148942  10.899   7.829   0.517  2.0146 -0.8990 -0.9750
15180SOL    HW248943  10.923   7.747   0.643 -0.5848  0.4947  0.5169
15181SOL     OW48944   8.456   3.274   0.535 -0.0458  0.4214  0.0406
15181SOL    HW148945   8.552   3.265   0.539  0.0002  1.1964  1.0818
15181SOL    HW248946   8.425   3.187   0.511  0.9354  0.2300 -0.6070
15182SOL     OW48947   6.196   6.536   9.985  0.2289  0.2909 -0.8022
15182SOL    HW148948   6.217   6.521  10.077  0.2800 -1.9679 -1.1263
15182SOL    HW248949   6.278   6.566   9.946 -0.4156  3.9941  0.3206
15183SOL     OW48950   7.664   5.791   3.744 -0.1264 -0.2832 -0.7315
15183SOL    HW148951   7.626   5.749   3.821 -2.8539  0.2807 -1.6556
15183SOL    HW248952   7.614   5.871   3.733  1.3388  0.5067 -2.1416
15184SOL     OW48953   7.656   4.214   0.262 -0.6230 -0.5843  0.4400
15184SOL    HW148954   7.658   4.126   0.300  0.3997 -0.7751 -0.0430
15184SOL    HW248955   7.688   4.202   0.173  1.5984  0.5906  1.0254
15185SOL     OW48956   9.119   4.283   3.509 -0.1537  0.5983 -0.3503
15185SOL    HW148957   9.108   4.339   3.587  1.3245  1.4037 -0.6897
15185SOL    HW248958   9.196   4.319   3.465 -0.5599 -0.2922 -1.8237
15186SOL     OW48959   1.651   8.240   9.829  0.5288  0.0494  0.5903
15186SOL    HW148960   1.733   8.210   9.868  0.8843  1.3606  0.8921
15186SOL    HW248961   1.614   8.299   9.894  1.1118  2.2621 -0.9632
15187SOL     OW48962   7.927   7.154   2.549  0.6091 -0.3565 -0.0815
15187SOL    HW148963   7.851   7.104   2.579  0.3407  0.8638  1.3767
15187SOL    HW248964   7.984   7.159   2.626  1.5828 -0.1937 -0.8065
15188SOL     OW48965   0.667   1.568   4.130 -0.4734 -0.5531  0.0513
15188SOL    HW148966   0.601   1.501   4.150  0.1809 -0.3856  3.4294
15188SOL    HW248967   0.627   1.650   4.159  0.2872 -0.0705 -0.2349
15189SOL     OW48968   5.061   2.573   5.125 -0.5145  0.4934  0.0646
15189SOL    HW148969   5.156   2.567   5.129 -0.6398 -1.3271  2.0136
15189SOL    HW248970   5.035   2.504   5.065 -0.7023 -1.2057  2.0109
15190SOL     OW48971   9.132   5.991   4.768 -0.0648  0.6374  0.3143
15190SOL    HW148972   9.077   5.913   4.780  0.7019  0.2451  1.4728
15190SOL    HW248973   9.155   5.990   4.675 -2.9326  1.4642 -0.4916
15191SOL     OW48974  10.748   2.710   4.009 -0.4577  0.5043  0.7667
15191SOL    HW148975  10.811   2.661   3.957 -2.2094 -1.4571  0.3592
15191SOL    HW248976  10.770   2.690   4.100 -0.2200  0.2038  0.6419
15192SOL     OW48977   7.896   5.514   8.911 -0.8090 -0.1422 -0.0592
15192SOL    HW148978   7.967   5.472   8.957 -0.4976 -1.5282 -1.6970
15192SOL    HW248979   7.866   5.583   8.970 -0.8141 -2.1168  2.4129
15193SOL     OW48980   7.021   4.786   4.137 -0.0112 -0.0876  0.5148
15193SOL    HW148981   6.949   4.749   4.087 -0.1131  2.8288 -1.6852
15193SOL    HW248982   7.100   4.747   4.099 -0.2332 -0.2571  0.2310
15194SOL     OW48983   4.266   2.534   3.704 -0.4086 -0.1092  0.5412
15194SOL    HW148984   4.345   2.587   3.689 -0.5290  0.8559  2.9729
15194SOL    HW248985   4.196   2.585   3.662 -0.0818  0.1518  0.2962
15195SOL     OW48986   3.776   1.130   5.405  0.5217  0.2608  0.2774
15195SOL    HW148987   3.866   1.113   5.379  0.7143  0.2289  0.9635
15195SOL    HW248988   3.735   1.044   5.409  1.1938 -0.0049  2.6307
15196SOL     OW48989   1.405   9.682   1.162 -0.2699 -0.0605  0.1584
15196SOL    HW148990   1.341   9.700   1.231 -1.7285  0.2804 -1.2057
15196SOL    HW248991   1.375   9.600   1.123 -0.0999  0.2775 -0.7180
15197SOL     OW48992   3.570   0.615   5.054 -0.0670 -0.2019 -0.0206
15197SOL    HW148993   3.572   0.524   5.023 -1.7288 -0.7339  1.2857
15197SOL    HW248994   3.647   0.622   5.111 -1.6836 -1.8927  2.5712
15198SOL     OW48995   1.932   2.804   0.724  0.2204  0.0641  0.5925
15198SOL    HW148996   1.952   2.897   0.739 -0.0661  0.4130 -0.9809
15198SOL    HW248997   1.955   2.761   0.806  0.0139  1.5807  1.4936
15199SOL     OW48998   4.371   2.359  10.838 -0.5819 -0.3533 -0.3301
15199SOL    HW148999   4.410   2.272  10.846 -0.6242 -0.4065 -0.6782
15199SOL    HW249000   4.431   2.407  10.780  0.7882  0.6454  1.7942
15200SOL     OW49001   0.964   0.996   2.271  0.3509 -0.2065 -0.5502
15200SOL    HW149002   0.985   0.924   2.330  0.8342 -0.5869 -1.1788
15200SOL    HW249003   0.985   0.963   2.184 -0.3836  0.3371 -0.9471
15201SOL     OW49004   5.076   5.618   0.881 -0.2300  0.7759  0.4977
15201SOL    HW149005   5.049   5.674   0.954 -0.7913 -0.3001  1.1489
15201SOL    HW249006   5.023   5.539   0.892  0.6173  0.0786 -0.3344
15202SOL     OW49007   7.133   9.254   3.361 -0.4286 -0.2255 -0.1751
15202SOL    HW149008   7.057   9.307   3.384 -0.2288  0.9641 -2.0280
15202SOL    HW249009   7.167   9.294   3.281  1.9515 -0.9265  0.3967
15203SOL     OW49010  10.905   4.790   3.600  0.3274  0.2945 -0.6277
15203SOL    HW149011  10.884   4.855   3.534  1.1236  0.9200 -0.2820
15203SOL    HW249012  10.919   4.840   3.680 -1.9624 -0.5467  0.3994
15204SOL     OW49013   6.310   5.229  10.894 -0.4616  0.0128  0.2755
15204SOL    HW149014   6.268   5.146  10.917 -0.8172  0.1420  0.0964
15204SOL    HW249015   6.298   5.237  10.800  0.2616 -0.1089  0.1614
15205SOL     OW49016   3.375   3.869   9.891 -0.3056 -0.0873 -0.0525
15205SOL    HW149017   3.444   3.822   9.937 -0.5197  2.3044  3.0890
15205SOL    HW249018   3.421   3.940   9.845 -0.3836 -0.8298 -1.3425
15206SOL     OW49019  10.718   1.385   0.273  0.0972  0.2839 -0.5366
15206SOL    HW149020  10.655   1.434   0.220  0.1325 -0.0181 -0.8650
15206SOL    HW249021  10.695   1.406   0.364 -0.7385 -0.1347 -0.6415
15207SOL     OW49022   3.085   8.364   6.797  0.5392  0.1161  0.6990
15207SOL    HW149023   3.016   8.362   6.863  0.5251 -0.7559  0.6631
15207SOL    HW249024   3.119   8.275   6.794  1.9294  0.6125  0.9817
15208SOL     OW49025   9.633   3.530   5.679  0.4434  0.0990  0.3470
15208SOL    HW149026   9.579   3.501   5.753 -0.3917  0.2087 -0.2063
15208SOL    HW249027   9.670   3.449   5.643  0.5330  0.0111  0.6303
15209SOL     OW49028   3.214   9.938   1.353  0.2256  0.4820  0.1159
15209SOL    HW149029   3.208   9.903   1.442  1.6265  1.9090  0.8320
15209SOL    HW249030   3.142  10.001   1.347  0.7830  1.1844  0.6516
15210SOL     OW49031   1.810   0.658  10.577 -0.0749  0.9346 -0.0623
15210SOL    HW149032   1.878   0.724  10.562  1.7198 -0.1953  2.4764
15210SOL    HW249033   1.856   0.575  10.572 -1.5779  0.0446  0.3058
15211SOL     OW49034   4.791   1.931  10.497  0.2419 -0.1909  0.1004
15211SOL    HW149035   4.698   1.907  10.488 -0.5003  1.7820  1.7556
15211SOL    HW249036   4.819   1.952  10.408 -1.3174  0.5200 -0.2605
15212SOL     OW49037  10.877   4.205   7.528 -0.2037 -0.3806 -0.0187
15212SOL    HW149038  10.915   4.179   7.444 -0.7284 -0.3359 -0.2741
15212SOL    HW249039  10.953   4.219   7.585  0.2048  0.4262 -0.7214
15213SOL     OW49040   7.466   0.639   9.012 -0.0776  0.1123 -0.1719
15213SOL    HW149041   7.463   0.571   9.080 -1.7853  1.0899  0.7986
15213SOL    HW249042   7.447   0.592   8.931 -0.5884 -0.6844  0.3953
15214SOL     OW49043   1.356   4.388   5.857 -0.2514 -0.0248  0.5375
15214SOL    HW149044   1.416   4.402   5.930  0.1511  0.5434  0.1041
15214SOL    HW249045   1.334   4.295   5.860  1.5594 -0.4933 -0.0091
15215SOL     OW49046  10.118   3.872   0.344 -0.4212  0.0218  1.3105
15215SOL    HW149047  10.106   3.958   0.305 -0.2189 -0.8469 -0.7974
15215SOL    HW249048  10.063   3.873   0.423  0.1652  2.2907  1.7432
15216SOL     OW49049   4.537   2.106   5.162 -0.0370  0.0674 -0.7296
15216SOL    HW149050   4.492   2.178   5.207  0.7593  0.5291 -0.6527
15216SOL    HW249051   4.575   2.055   5.233  1.7750  1.1585 -0.8447
15217SOL     OW49052   9.044   5.022   2.218 -0.5472 -0.1853 -0.4902
15217SOL    HW149053   9.103   4.958   2.178 -1.1664 -1.2491  0.2621
15217SOL    HW249054   9.078   5.033   2.307 -1.5059 -0.8809 -0.0181
15218SOL     OW49055   6.719   0.578   7.290 -0.0037  0.1863  0.3998
15218SOL    HW149056   6.638   0.617   7.258 -0.9535  1.2839  3.7750
15218SOL    HW249057   6.691   0.514   7.355  1.7928  0.6456  1.6976
15219SOL     OW49058   9.082   7.409   0.388  0.1123  0.0840  0.0240
15219SOL    HW149059   9.018   7.361   0.336 -1.3430  1.0636  0.8677
15219SOL    HW249060   9.109   7.347   0.456  0.4774 -0.5040 -0.6393
15220SOL     OW49061   2.133   2.604   6.559 -0.7717  0.4306  0.3831
15220SOL    HW149062   2.053   2.655   6.566 -1.0757 -0.1549  1.3752
15220SOL    HW249063   2.183   2.626   6.638 -0.5191 -0.1468  0.3891
15221SOL     OW49064   3.354   7.112   1.541  0.4327  0.3971  0.0366
15221SOL    HW149065   3.355   7.080   1.632  1.0054 -2.6035 -0.9169
15221SOL    HW249066   3.445   7.133   1.522  0.2945  1.1410  0.1640
15222SOL     OW49067   0.967   8.870   8.938 -1.1293  0.0873 -0.1423
15222SOL    HW149068   1.018   8.949   8.919  0.6532 -1.3815 -1.8683
15222SOL    HW249069   0.951   8.875   9.032 -0.8394  2.3341 -0.1380
15223SOL     OW49070   6.945   8.945   0.303  0.1167 -0.1756  0.0311
15223SOL    HW149071   6.926   8.988   0.387  0.0565  1.2366 -0.6843
15223SOL    HW249072   6.861   8.910   0.274 -0.0993  0.3848 -0.0168
15224SOL     OW49073   2.319   0.418   9.201  0.8278  0.5096  0.1582
15224SOL    HW149074   2.373   0.458   9.269  0.8514  2.1051 -0.7572
15224SOL    HW249075   2.291   0.491   9.146  0.4453 -0.6823 -1.2975
15225SOL     OW49076   5.921   4.096   0.930 -0.4805 -0.0425  0.3804
15225SOL    HW149077   5.965   4.011   0.930  0.1321  0.2401 -1.3065
15225SOL    HW249078   5.991   4.160   0.915 -0.9989  0.7328  1.1215
15226SOL     OW49079   4.067   7.589   0.097 -0.1203  0.6429  0.2560
15226SOL    HW149080   4.036   7.538   0.022 -0.5157  1.3824 -0.0860
15226SOL    HW249081   4.158   7.564   0.107 -0.8566 -1.9167  1.5441
15227SOL     OW49082   6.669  10.698   8.174 -0.8787 -0.2326 -0.1118
15227SOL    HW149083   6.635  10.646   8.247 -0.5665 -0.6756 -0.2730
15227SOL    HW249084   6.656  10.643   8.097  0.6864 -0.6667 -0.1090
15228SOL     OW49085  10.238   4.508   9.954  0.8117  0.0749 -0.1827
15228SOL    HW149086  10.325   4.504   9.994  0.5475  2.2098  0.7815
15228SOL    HW249087  10.181   4.462  10.016  1.0047  0.0624 -0.0118
15229SOL     OW49088   1.358   7.163  10.372 -0.5412  0.4331 -0.3883
15229SOL    HW149089   1.447   7.130  10.363 -1.3459 -1.4221 -2.0544
15229SOL    HW249090   1.347   7.224  10.299  0.0447  2.4883  1.1369
15230SOL     OW49091   0.355   1.259  10.574  0.2443  0.2031 -0.2041
15230SOL    HW149092   0.288   1.193  10.553  0.0624  0.5865 -0.8413
15230SOL    HW249093   0.419   1.252  10.503  1.2483 -0.6252  0.7528
15231SOL     OW49094   9.211   0.883  10.708  0.0103  0.0845  0.6012
15231SOL    HW149095   9.219   0.942  10.783 -1.9533  1.8938 -0.5064
15231SOL    HW249096   9.118   0.861  10.706 -0.2741  1.1935 -2.0504
15232SOL     OW49097   3.530  10.167   3.037 -0.2961 -0.1683  0.1493
15232SOL    HW149098   3.559  10.076   3.035  1.8663  0.4169 -2.8562
15232SOL    HW249099   3.453  10.169   2.981 -0.9850 -0.2797  1.0712
15233SOL     OW49100   9.403   4.829   1.071 -0.3009  0.2992 -0.7171
15233SOL    HW149101   9.376   4.850   1.161 -1.3408 -1.5107 -0.5501
15233SOL    HW249102   9.485   4.876   1.059  0.2505  0.0091  1.4719
15234SOL     OW49103   3.818   4.120   7.739 -0.4382  0.5617 -0.2033
15234SOL    HW149104   3.797   4.042   7.790 -2.0761  1.2962  0.3296
15234SOL    HW249105   3.869   4.088   7.665 -1.4126 -1.0722 -0.2075
15235SOL     OW49106   6.683   4.000   1.171  0.1622  0.4908  0.1544
15235SOL    HW149107   6.759   4.021   1.116  1.5161  0.0563  1.7768
15235SOL    HW249108   6.643   3.924   1.129  1.6832 -0.3733  0.1807
15236SOL     OW49109   4.745   3.609   1.615 -0.3995 -0.2124  0.4031
15236SOL    HW149110   4.671   3.664   1.589 -1.3633 -0.6440  2.0650
15236SOL    HW249111   4.705   3.537   1.664  0.9982 -1.3830 -0.1010
15237SOL     OW49112  10.283   7.093   6.522  0.0416 -0.2939 -0.0353
15237SOL    HW149113  10.374   7.076   6.549 -0.4290 -1.5219  0.8643
15237SOL    HW249114  10.231   7.065   6.597 -1.0637  1.1799 -0.2054
15238SOL     OW49115   1.183   9.633   7.616  0.4454  0.3968  0.2744
15238SOL    HW149116   1.090   9.654   7.619 -0.4174 -2.8538  3.0331
15238SOL    HW249117   1.198   9.599   7.528 -1.1960  0.1741  0.0654
15239SOL     OW49118   9.625   9.225   3.170 -0.3053 -0.3864  0.0157
15239SOL    HW149119   9.554   9.220   3.106 -0.2650  0.1621 -0.0778
15239SOL    HW249120   9.587   9.271   3.245  0.5420  1.9607 -0.8994
15240SOL     OW49121   3.590   2.095  10.590 -0.3948  0.2783  0.2878
15240SOL    HW149122   3.585   2.001  10.575  0.6909  0.4467 -1.2734
15240SOL    HW249123   3.520   2.131  10.535 -0.8058  0.4102  0.8807
15241SOL     OW49124   9.806   4.682   7.518  0.1368  0.5148 -0.6642
15241SOL    HW149125   9.896   4.658   7.499  0.5879  1.8722 -0.3165
15241SOL    HW249126   9.805   4.777   7.519 -0.8981  0.5465  1.1782
15242SOL     OW49127   6.813  10.037   7.641 -0.3512  0.3919 -0.6501
15242SOL    HW149128   6.806  10.083   7.557  0.5599  2.5120  0.3578
15242SOL    HW249129   6.879   9.969   7.626  0.2504  1.1377 -1.5148
15243SOL     OW49130  10.246  10.032   8.563 -0.3022  0.2353  0.6722
15243SOL    HW149131  10.222  10.123   8.546  0.5588  0.4603  0.5888
15243SOL    HW249132  10.323  10.017   8.508 -1.7941 -1.2679 -1.0897
15244SOL     OW49133   2.237   8.907   5.014 -0.1602 -0.3121  0.1225
15244SOL    HW149134   2.145   8.923   4.990  0.5758  0.9275 -2.0838
15244SOL    HW249135   2.263   8.986   5.061 -0.0197 -0.3819  0.1611
15245SOL     OW49136   4.798   0.941   3.661 -0.1465 -0.2440  0.4298
15245SOL    HW149137   4.833   0.857   3.631 -0.1876 -0.6711  1.5462
15245SOL    HW249138   4.869   1.004   3.645 -0.0295 -0.5265 -0.1888
15246SOL     OW49139   3.012   6.681   9.088 -0.0399 -0.3603 -0.0127
15246SOL    HW149140   3.011   6.587   9.070 -0.0935 -0.5541  0.9362
15246SOL    HW249141   2.920   6.706   9.090 -0.0202 -0.2512 -0.4336
15247SOL     OW49142   9.762   4.522   3.661 -0.3846 -0.5249 -0.9249
15247SOL    HW149143   9.754   4.599   3.717 -0.2066 -0.5955 -0.8026
15247SOL    HW249144   9.698   4.537   3.591  0.3077  0.1800 -1.4216
15248SOL     OW49145   3.815   9.453   5.255  0.0332  0.5176 -0.3968
15248SOL    HW149146   3.748   9.453   5.187 -0.1148  1.8576 -0.2776
15248SOL    HW249147   3.894   9.484   5.211  0.7007 -1.3692 -0.6164
15249SOL     OW49148  10.911   7.296   0.121  0.3147 -0.2329 -0.0355
15249SOL    HW149149  10.991   7.330   0.080  0.4141 -0.3189  0.0873
15249SOL    HW249150  10.846   7.365   0.107  0.2022 -0.4937 -0.8112
15250SOL     OW49151  10.867   5.807   6.307 -0.4376  0.2750 -0.3687
15250SOL    HW149152  10.835   5.768   6.388  1.4320 -0.7493 -0.0645
15250SOL    HW249153  10.867   5.736   6.243  0.7328  0.3514 -0.4786
15251SOL     OW49154  10.528   5.214  10.400  0.4150  0.2964 -0.0350
15251SOL    HW149155  10.450   5.162  10.416 -1.7442  2.7939 -1.5914
15251SOL    HW249156  10.572   5.169  10.328 -0.6561 -0.1214 -0.4531
15252SOL     OW49157   9.936   4.552   7.111  0.4585  0.0669  0.1715
15252SOL    HW149158   9.969   4.631   7.069 -0.5923 -0.0652 -0.9423
15252SOL    HW249159   9.859   4.580   7.160 -0.1043 -0.3010 -0.4845
15253SOL     OW49160   4.985   8.781   9.364 -0.1147  0.3211 -0.6094
15253SOL    HW149161   4.893   8.804   9.360 -0.2130  0.1568  0.3444
15253SOL    HW249162   4.990   8.694   9.326 -0.7550 -0.6634  1.3904
15254SOL     OW49163   8.662   5.815   7.383  0.1064 -0.0153 -0.1747
15254SOL    HW149164   8.613   5.789   7.305  0.5516  0.8826 -0.7581
15254SOL    HW249165   8.750   5.835   7.351  0.5051 -0.3631  0.6729
15255SOL     OW49166   9.089   0.017   3.352  0.0922 -0.1744  0.3209
15255SOL    HW149167   9.140  -0.049   3.398  0.6488 -0.9178 -1.3083
15255SOL    HW249168   9.145   0.095   3.352  1.0337 -0.8196 -0.9657
15256SOL     OW49169   5.087   6.355   5.919 -0.0043  0.1003  0.3323
15256SOL    HW149170   5.000   6.317   5.925  0.5450 -1.0939  1.1668
15256SOL    HW249171   5.116   6.337   5.830 -0.0107 -0.8816  0.5234
15257SOL     OW49172   5.736   1.512   8.215  0.7350  0.1642 -0.1647
15257SOL    HW149173   5.768   1.603   8.215 -0.6423  0.6791  0.7534
15257SOL    HW249174   5.755   1.480   8.303  1.0179 -0.3736 -0.4199
15258SOL     OW49175   6.530   1.583   1.877 -0.0762  0.3746  0.0688
15258SOL    HW149176   6.507   1.563   1.968  1.0801  0.0217  0.3009
15258SOL    HW249177   6.553   1.676   1.879 -1.9357  0.8971 -0.2858
15259SOL     OW49178   6.863   0.989   9.865  0.7401 -0.8318  0.1421
15259SOL    HW149179   6.926   0.925   9.897  1.8775  0.6310  0.9730
15259SOL    HW249180   6.833   1.034   9.944  1.7779  1.2298 -0.5574
15260SOL     OW49181   9.443   1.185   7.634  0.2315 -0.1947 -0.1188
15260SOL    HW149182   9.404   1.239   7.703  0.7776 -0.1749  0.1804
15260SOL    HW249183   9.440   1.096   7.669 -1.0513 -0.4382 -0.7829
15261SOL     OW49184   4.135  10.399   0.394 -0.0225  0.1136 -0.1736
15261SOL    HW149185   4.121  10.360   0.480  1.5740  1.7426  0.8944
15261SOL    HW249186   4.177  10.330   0.342 -0.3484 -0.6524  0.5702
15262SOL     OW49187   7.435   2.571   6.521 -0.0409 -0.4930 -0.0694
15262SOL    HW149188   7.350   2.528   6.533  0.7696 -2.3667 -0.7179
15262SOL    HW249189   7.463   2.545   6.433  1.0814  0.3290  0.0229
15263SOL     OW49190   9.387   2.853   6.252  0.2776 -0.5582  0.3867
15263SOL    HW149191   9.334   2.824   6.326  1.3100 -0.2215  1.2751
15263SOL    HW249192   9.447   2.917   6.288 -1.6199  2.5283 -1.4155
15264SOL     OW49193   3.626   0.180   1.355  0.3533  0.0294 -0.2795
15264SOL    HW149194   3.663   0.117   1.293 -1.7208 -1.8699  0.2663
15264SOL    HW249195   3.647   0.143   1.441  0.1087  0.7363  0.0902
15265SOL     OW49196   9.348   3.786   5.846  0.1934  0.1202 -0.2381
15265SOL    HW149197   9.344   3.877   5.877 -0.0366 -0.4548  1.5871
15265SOL    HW249198   9.264   3.749   5.873  1.4466 -1.4143  1.8486
15266SOL     OW49199   0.187   7.891   2.982  0.3522  0.8645 -0.8524
15266SOL    HW149200   0.259   7.910   2.922 -0.9975  0.8238 -2.5754
15266SOL    HW249201   0.141   7.817   2.941  0.0502  0.0665  0.8555
15267SOL     OW49202   2.826   2.036   1.134 -0.2888  0.1121  0.2790
15267SOL    HW149203   2.784   2.078   1.209 -3.1274  0.0099 -1.0779
15267SOL    HW249204   2.830   2.105   1.068  0.4453 -0.2688 -0.0836
15268SOL     OW49205   6.900  10.750   2.505 -0.6678  0.6723  0.2490
15268SOL    HW149206   6.977  10.757   2.448 -0.9685  2.5536  0.0069
15268SOL    HW249207   6.937  10.749   2.594 -0.3167  0.1597  0.1049
15269SOL     OW49208  10.790   4.689   9.703 -0.4421  0.7849 -0.5878
15269SOL    HW149209  10.732   4.633   9.753  1.8931 -0.0471  1.3461
15269SOL    HW249210  10.783   4.775   9.744 -0.1326  0.6145 -0.1678
15270SOL     OW49211   4.030   8.330   1.291 -0.1921 -0.4114 -0.2106
15270SOL    HW149212   4.018   8.425   1.291 -1.6804 -0.5556  0.7495
15270SOL    HW249213   4.077   8.312   1.372 -1.2604 -0.5964  0.3918
15271SOL     OW49214   1.795   0.087   5.585  0.4254  0.0884  0.4475
15271SOL    HW149215   1.824   0.008   5.630 -1.9586 -0.5428  0.9861
15271SOL    HW249216   1.810   0.069   5.492  0.7395 -0.6256  0.6341
15272SOL     OW49217   7.849   2.067  10.297  0.0282  0.0746  0.0661
15272SOL    HW149218   7.941   2.091  10.289 -0.1370  1.4948  1.8129
15272SOL    HW249219   7.849   1.989  10.352  0.1941  0.2545  0.3262
15273SOL     OW49220   3.203   2.037   8.254  0.4788  0.7682  0.0553
15273SOL    HW149221   3.289   1.997   8.261 -0.0489 -0.2829  0.9488
15273SOL    HW249222   3.169   2.035   8.344 -1.4219 -1.0776 -0.6112
15274SOL     OW49223   1.718   0.270   6.398 -0.7970  0.2366 -0.0137
15274SOL    HW149224   1.728   0.177   6.416  0.2946  0.3621  0.1301
15274SOL    HW249225   1.806   0.306   6.410 -0.9144  1.0517 -1.3597
15275SOL     OW49226   8.573   7.367   8.115 -0.0394 -0.6237  0.1128
15275SOL    HW149227   8.500   7.430   8.120  1.0403  0.5905  1.3502
15275SOL    HW249228   8.617   7.389   8.034 -0.4973 -0.7280 -0.1684
15276SOL     OW49229   4.285   8.854   7.239  0.5347  0.2652  0.0200
15276SOL    HW149230   4.328   8.933   7.270  1.8337 -0.6558  0.6716
15276SOL    HW249231   4.316   8.844   7.149 -1.7649  1.9102 -1.0755
15277SOL     OW49232   2.474   5.218   4.652  0.4772  0.2641  0.6461
15277SOL    HW149233   2.529   5.292   4.625 -0.5018  1.7756  2.5622
15277SOL    HW249234   2.428   5.193   4.572  2.3573  0.3126 -0.5290
15278SOL     OW49235   2.598   6.328  10.427  0.6449  0.2218  0.0124
15278SOL    HW149236   2.552   6.378  10.494  0.3023  0.8421 -0.6661
15278SOL    HW249237   2.674   6.382  10.405  0.2194  0.5070 -0.7969
15279SOL     OW49238   3.838   8.989   0.514  0.8374 -0.6756 -0.2196
15279SOL    HW149239   3.773   8.923   0.538  0.5381 -0.7797 -1.2636
15279SOL    HW249240   3.901   8.942   0.459 -0.8269  0.3798 -3.2946
15280SOL     OW49241   8.839  10.631   5.419 -0.0453 -0.1730  0.0288
15280SOL    HW149242   8.748  10.615   5.442 -0.2758 -0.2257 -0.9146
15280SOL    HW249243   8.889  10.596   5.493 -0.7622 -0.5985  0.3181
15281SOL     OW49244   3.840   1.802   0.981  0.1875 -0.1829  0.3344
15281SOL    HW149245   3.831   1.881   0.928 -0.0162 -0.2860  0.2178
15281SOL    HW249246   3.934   1.782   0.978  0.1403 -0.3435 -0.2088
15282SOL     OW49247   3.102   5.099   9.430 -0.0595 -0.3929 -0.5471
15282SOL    HW149248   3.110   5.159   9.504  0.6692  2.6487 -2.8845
15282SOL    HW249249   3.015   5.059   9.441  0.4663 -0.9700  2.4453
15283SOL     OW49250   7.085   3.158   9.318 -0.2117  0.3990 -0.0992
15283SOL    HW149251   7.095   3.251   9.295 -0.3479  0.8276  1.4744
15283SOL    HW249252   7.125   3.111   9.245 -0.9329  1.6567 -1.3610
15284SOL     OW49253   7.735   1.447   8.477 -0.5484 -0.2414 -0.1455
15284SOL    HW149254   7.707   1.397   8.401  0.3103  0.1000 -0.6942
15284SOL    HW249255   7.797   1.511   8.443  1.7608 -1.6559  1.1463
15285SOL     OW49256   0.274   6.853   9.384 -0.3404  0.4942  0.3059
15285SOL    HW149257   0.236   6.874   9.299  0.3463 -0.3519 -0.2303
15285SOL    HW249258   0.369   6.865   9.372 -0.1710 -0.3194  0.7349
15286SOL     OW49259   3.452   4.976   4.863 -0.4548  0.9191 -0.2279
15286SOL    HW149260   3.361   4.949   4.855 -0.9637  1.8610  1.7677
15286SOL    HW249261   3.459   5.013   4.951  1.4627  2.3292 -0.8836
15287SOL     OW49262   5.426   6.125   6.069  0.0074 -0.5446 -0.1010
15287SOL    HW149263   5.377   6.168   6.138  0.6278 -0.8007  0.5095
15287SOL    HW249264   5.417   6.032   6.088  0.6282 -0.5965 -0.0482
15288SOL     OW49265   4.048   2.402   5.306 -0.2216  0.0492 -0.3857
15288SOL    HW149266   4.076   2.493   5.302  1.6959 -0.3439  1.6453
15288SOL    HW249267   4.065   2.368   5.218 -0.3475  1.4811 -0.9877
15289SOL     OW49268   4.228   3.208   2.620 -0.1406 -0.1025  0.7389
15289SOL    HW149269   4.147   3.259   2.614 -0.9257 -1.4597 -1.7655
15289SOL    HW249270   4.236   3.186   2.712 -0.3977  3.3974  1.7633
15290SOL     OW49271   3.439   3.890   6.506 -0.1509 -0.4099  0.0351
15290SOL    HW149272   3.513   3.830   6.514 -0.7507 -1.1126  0.3855
15290SOL    HW249273   3.479   3.977   6.501  0.8003 -0.8993 -1.7626
15291SOL     OW49274   4.006   3.001   1.839  0.0449  0.4477 -0.0606
15291SOL    HW149275   3.979   2.997   1.930 -1.6649  0.2530 -0.5490
15291SOL    HW249276   3.965   2.924   1.798  0.8888  0.4553 -0.9691
15292SOL     OW49277   3.305   6.813  10.641 -0.2328  0.1918 -0.2439
15292SOL    HW149278   3.256   6.748  10.591 -1.7052  1.2600 -0.2364
15292SOL    HW249279   3.259   6.819  10.725 -0.2882  1.4110 -0.3367
15293SOL     OW49280   5.310   3.767   6.099  0.0115  0.4802 -0.1455
15293SOL    HW149281   5.272   3.854   6.088 -1.4082  0.1528  1.7873
15293SOL    HW249282   5.404   3.783   6.108 -0.1715  1.7500 -0.3548
15294SOL     OW49283   2.499   5.333   1.274 -0.4732  0.3204  0.2528
15294SOL    HW149284   2.487   5.308   1.183 -0.3185  1.8333 -0.2179
15294SOL    HW249285   2.411   5.334   1.311 -0.7440  1.3559 -0.3700
15295SOL     OW49286   2.765   7.443   7.545  0.4099  0.3801  0.4450
15295SOL    HW149287   2.739   7.535   7.549 -2.5954 -0.3544 -0.2751
15295SOL    HW249288   2.736   7.406   7.628 -1.4196 -0.5586 -0.5515
15296SOL     OW49289  10.254   3.339  10.479  0.1937  0.2753 -0.0960
15296SOL    HW149290  10.158   3.343  10.475  0.1956  0.8276  0.3655
15296SOL    HW249291  10.273   3.253  10.517 -0.2025  1.0892  2.1076
15297SOL     OW49292   6.250  10.360   9.697  0.4839  0.1998 -0.1592
15297SOL    HW149293   6.337  10.333   9.667  0.5532 -0.2530  0.4391
15297SOL    HW249294   6.249  10.340   9.790 -0.0633  0.7307 -0.0436
15298SOL     OW49295   9.167   1.925   0.418  0.3885  0.4440  0.5785
15298SOL    HW149296   9.214   2.006   0.435  1.7674  0.1472 -1.4268
15298SOL    HW249297   9.123   1.939   0.334  0.9189 -0.9490  0.0319
15299SOL     OW49298   1.936   4.853   1.907 -0.3281 -0.1085  0.2520
15299SOL    HW149299   1.938   4.938   1.950 -1.9926  0.4578 -0.6940
15299SOL    HW249300   1.872   4.802   1.958  0.0965 -0.5487  0.3560
15300SOL     OW49301   8.833   2.254   2.205  0.7055 -0.7882 -0.6781
15300SOL    HW149302   8.788   2.329   2.166  1.6213 -0.1614 -0.5577
15300SOL    HW249303   8.926   2.272   2.191  0.9637 -1.5300  0.0177
15301SOL     OW49304   5.035   9.623   1.590  1.0543 -0.2066  0.3007
15301SOL    HW149305   5.130   9.624   1.603  1.2792  0.2598 -1.2621
15301SOL    HW249306   5.012   9.714   1.575  0.5035 -0.4429 -0.3264
15302SOL     OW49307   4.704   5.703   7.565  0.2188 -0.6696  0.2717
15302SOL    HW149308   4.719   5.640   7.635  0.9779 -1.0253 -0.1947
15302SOL    HW249309   4.791   5.719   7.528  0.3249  1.9413  1.4252
15303SOL     OW49310   8.070   9.622   9.004 -0.2091  0.0702 -0.8871
15303SOL    HW149311   8.005   9.617   9.073  0.5075  1.2007 -0.1063
15303SOL    HW249312   8.079   9.532   8.973 -0.0714 -0.5751  0.9304
15304SOL     OW49313   0.075   3.902  10.838  0.2176  0.8224 -0.2250
15304SOL    HW149314   0.041   3.823  10.881 -0.8360  0.9676 -0.7448
15304SOL    HW249315   0.016   3.915  10.763  0.9318  1.5859 -0.6651
15305SOL     OW49316   2.395   8.603   9.917  0.2668  0.1763  0.2804
15305SOL    HW149317   2.422   8.624   9.827  1.3123 -0.2574  0.4810
15305SOL    HW249318   2.362   8.686   9.952 -0.7478  0.2089 -0.6998
15306SOL     OW49319   5.468   3.920   4.033 -0.4537  0.2524  0.1229
15306SOL    HW149320   5.523   3.967   4.095 -0.9320  0.6323  0.2624
15306SOL    HW249321   5.437   3.986   3.972 -0.4898 -0.0154 -0.1541
15307SOL     OW49322   3.092  10.226   3.981  0.3634  0.3785 -0.1955
15307SOL    HW149323   3.113  10.200   4.071  4.2809  3.0516 -0.0690
15307SOL    HW249324   3.021  10.290   3.991 -0.2728 -0.4488  0.8113
15308SOL     OW49325  10.725   4.091   0.492  0.2044  0.0772 -0.1052
15308SOL    HW149326  10.670   4.167   0.475  0.0703 -0.3457 -1.7277
15308SOL    HW249327  10.688   4.051   0.570 -0.9642  0.5625 -0.3899
15309SOL     OW49328   3.898   0.765   1.224  0.2722  0.1811 -0.2533
15309SOL    HW149329   3.844   0.686   1.234  0.1854 -0.1529 -2.7467
15309SOL    HW249330   3.892   0.809   1.309 -0.5748 -1.9195  0.8461
15310SOL     OW49331   7.226   4.161   9.495  0.1298  0.3477  0.2935
15310SOL    HW149332   7.232   4.256   9.492 -0.3349  0.3631 -0.3607
15310SOL    HW249333   7.317   4.131   9.493  0.2578  0.7634 -0.1107
15311SOL     OW49334   5.600   2.620   9.845 -0.2946  0.2171 -0.2214
15311SOL    HW149335   5.636   2.604   9.933 -1.1739  0.3499  0.1838
15311SOL    HW249336   5.615   2.713   9.829 -0.7779  0.3577  0.1083
15312SOL     OW49337   8.588   5.777   0.639  0.6398 -0.2805 -0.1695
15312SOL    HW149338   8.552   5.689   0.651 -1.2242  0.5687  0.8478
15312SOL    HW249339   8.610   5.780   0.546 -0.0973 -1.5289 -0.4181
15313SOL     OW49340   1.965   3.073   8.439  0.0027  0.0383 -0.4707
15313SOL    HW149341   2.039   3.135   8.432  0.8633 -0.8243  0.7055
15313SOL    HW249342   1.940   3.056   8.348 -0.1515  1.9709 -0.8325
15314SOL     OW49343   7.252   2.454   3.977 -0.6370 -0.1395 -0.3138
15314SOL    HW149344   7.217   2.421   3.895 -1.0697  0.5380 -0.4091
15314SOL    HW249345   7.255   2.549   3.966  0.6619 -0.1358 -0.0780
15315SOL     OW49346   8.680   4.018   2.441 -0.2651  0.3071 -0.2478
15315SOL    HW149347   8.703   4.110   2.447 -0.2578  0.3003 -0.1683
15315SOL    HW249348   8.627   4.001   2.519  0.2779  0.0923  0.0810
15316SOL     OW49349   7.342   0.400   9.104  0.0363 -0.3830 -0.0355
15316SOL    HW149350   7.266   0.459   9.102  0.7022  0.5065 -0.0967
15316SOL    HW249351   7.360   0.383   9.011 -0.5072 -1.1753 -0.0068
15317SOL     OW49352  10.293   2.914   0.108  0.2570 -0.4252  0.7524
15317SOL    HW149353  10.354   2.844   0.128 -0.5038 -0.8496  1.6531
15317SOL    HW249354  10.210   2.885   0.145 -0.1228  0.8582  0.9551
15318SOL     OW49355   1.409   3.783   6.460 -0.2218 -0.3055  0.4736
15318SOL    HW149356   1.352   3.711   6.434  0.7005 -0.0223 -2.7609
15318SOL    HW249357   1.470   3.743   6.522 -1.1526 -1.7145  0.5433
15319SOL     OW49358   1.223   1.513   9.689  0.1407  0.3246  0.2130
15319SOL    HW149359   1.239   1.588   9.746  0.2432 -0.1136  0.7678
15319SOL    HW249360   1.192   1.444   9.748  1.8695 -0.6830  0.0240
15320SOL     OW49361   3.553   0.644  10.119  0.4764 -0.1187 -0.4687
15320SOL    HW149362   3.467   0.685  10.124  0.4134 -0.2684 -0.2737
15320SOL    HW249363   3.558   0.590  10.198  1.4466  1.2240  0.4428
15321SOL     OW49364   6.960   6.947   2.729 -0.3454 -0.3483 -0.7830
15321SOL    HW149365   6.986   6.855   2.729 -2.3394 -0.9819  1.2539
15321SOL    HW249366   6.990   6.981   2.813 -0.5352  0.6195 -1.0898
15322SOL     OW49367   5.544   5.279   4.527  0.0553  0.3346 -0.3326
15322SOL    HW149368   5.591   5.210   4.481 -0.6568 -0.9422  0.7914
15322SOL    HW249369   5.452   5.266   4.503 -0.0055  1.4818 -0.8190
15323SOL     OW49370   9.239   4.474   8.903  0.2591  0.4113 -0.2813
15323SOL    HW149371   9.166   4.426   8.863  1.4569 -1.1068 -0.7605
15323SOL    HW249372   9.294   4.498   8.829  0.3828  1.3104  0.0975
15324SOL     OW49373   9.246   2.318   9.468 -0.5934 -0.0106 -0.7329
15324SOL    HW149374   9.159   2.352   9.491 -0.8455 -1.0142 -0.1273
15324SOL    HW249375   9.257   2.342   9.376 -0.5878  2.0028 -0.2570
15325SOL     OW49376   6.995   8.851   1.453 -0.6348  0.3905 -0.2074
15325SOL    HW149377   7.023   8.842   1.544 -2.6680  2.4481  0.7396
15325SOL    HW249378   6.900   8.834   1.456 -0.4667 -1.3936 -2.3293
15326SOL     OW49379  10.699   6.153   3.837  0.0126  0.0851 -0.1735
15326SOL    HW149380  10.724   6.202   3.915 -0.0943 -2.9783  1.9782
15326SOL    HW249381  10.606   6.171   3.826  0.7941  3.8477 -2.3311
15327SOL     OW49382   8.340   5.924   1.270  0.2578 -0.1648 -0.0391
15327SOL    HW149383   8.313   6.015   1.283  0.5293 -0.0762 -0.0797
15327SOL    HW249384   8.314   5.880   1.351  0.6390  0.0726  0.2192
15328SOL     OW49385   7.790   1.875   1.584 -0.1262  0.2332 -0.3959
15328SOL    HW149386   7.700   1.885   1.615 -0.0744 -1.0153  0.2134
15328SOL    HW249387   7.786   1.802   1.522  0.7891 -1.3322  1.2656
15329SOL     OW49388   0.888  10.250   0.215  0.1789  0.4533  0.6538
15329SOL    HW149389   0.891  10.192   0.138 -2.1852  1.4253 -0.2530
15329SOL    HW249390   0.857  10.194   0.286 -1.1065  0.3259  0.0239
15330SOL     OW49391   3.019   5.782   3.995 -1.2448 -0.4919  0.2818
15330SOL    HW149392   2.935   5.766   3.952 -2.1227 -1.9505  2.3810
15330SOL    HW249393   3.000   5.847   4.062 -0.6679 -0.6958  0.6524
15331SOL     OW49394   9.388   1.922  10.839  0.4130 -0.4898  0.0377
15331SOL    HW149395   9.404   1.870  10.760 -0.5012 -1.4122  0.4316
15331SOL    HW249396   9.334   1.995  10.809  1.2680 -0.0348 -0.4294
15332SOL     OW49397   3.067   3.006  10.009 -0.2265  0.1131 -0.2586
15332SOL    HW149398   3.085   2.916   9.982 -1.3293 -0.0678 -0.4620
15332SOL    HW249399   3.046   2.999  10.102 -1.5608 -0.0465 -0.5528
15333SOL     OW49400   0.892  10.315   5.013  0.4874 -0.1009 -0.4594
15333SOL    HW149401   0.904  10.410   5.017 -0.3000 -0.0278  1.1599
15333SOL    HW249402   0.847  10.301   4.929 -2.7750  1.4642  0.8136
15334SOL     OW49403   9.918   7.991  10.183  0.0767 -0.5725 -0.5688
15334SOL    HW149404   9.993   7.951  10.139  0.5435  0.1456 -0.4448
15334SOL    HW249405   9.859   7.918  10.200  0.2029 -0.9672 -1.7487
15335SOL     OW49406   7.903  10.012   4.117  0.0820 -0.0043 -0.3173
15335SOL    HW149407   7.934   9.954   4.047  0.8637 -0.5935  0.4976
15335SOL    HW249408   7.981  10.058   4.147 -0.4166  0.9630 -0.4751
15336SOL     OW49409   1.286   0.153  10.553  0.7132 -0.4494 -0.9004
15336SOL    HW149410   1.226   0.224  10.528  1.5662  0.9842  0.9096
15336SOL    HW249411   1.231   0.075  10.554 -0.1055 -0.0174 -3.6453
15337SOL     OW49412   8.533   3.050   7.064 -0.4555 -0.4502  0.2361
15337SOL    HW149413   8.508   3.139   7.042  1.9615 -0.3062 -2.4528
15337SOL    HW249414   8.625   3.055   7.088 -0.2318 -2.2320 -0.0595
15338SOL     OW49415   7.028   2.764   2.165 -0.1536 -0.0997 -0.0907
15338SOL    HW149416   7.085   2.797   2.095  1.3841  1.0301  1.5928
15338SOL    HW249417   7.086   2.756   2.241 -1.4950 -2.4856  0.7726
15339SOL     OW49418   7.521   1.995   6.562 -0.2899 -0.0956  0.0111
15339SOL    HW149419   7.594   1.941   6.531  1.7989  2.4205  0.1420
15339SOL    HW249420   7.516   1.976   6.656 -0.1660 -0.6907 -0.0985
15340SOL     OW49421   7.776   9.649   1.198  0.1438  0.1805  0.3642
15340SOL    HW149422   7.825   9.678   1.275  1.3362  0.2435 -0.3953
15340SOL    HW249423   7.717   9.582   1.231  0.6988  0.1455  1.3190
15341SOL     OW49424   3.215   2.403   1.471  0.2359  0.2223  0.7844
15341SOL    HW149425   3.219   2.416   1.565  2.2701 -1.1226  0.9489
15341SOL    HW249426   3.208   2.308   1.460  0.6506  0.3112 -0.4160
15342SOL     OW49427   0.919   3.900   9.634 -0.0507 -0.0748  0.2567
15342SOL    HW149428   0.988   3.841   9.662  0.0536  0.4397  1.1184
15342SOL    HW249429   0.952   3.942   9.554 -0.7097 -2.2143 -1.2266
15343SOL     OW49430   5.304   5.437   3.943 -0.5895 -0.4838 -0.2598
15343SOL    HW149431   5.392   5.427   3.906 -1.1294  0.5238 -1.9393
15343SOL    HW249432   5.314   5.413   4.035  1.4858 -0.2241 -0.3636
15344SOL     OW49433   4.309   4.246  10.410  0.5720  0.0066  0.0795
15344SOL    HW149434   4.254   4.214  10.339 -1.3115  2.3386  0.3739
15344SOL    HW249435   4.362   4.315  10.369 -0.3618  1.2044  0.8370
15345SOL     OW49436   0.485   8.276   6.758 -0.1494  0.4760  0.6729
15345SOL    HW149437   0.517   8.300   6.845  0.8756  0.4806  0.3117
15345SOL    HW249438   0.538   8.329   6.698  0.6107 -1.0328 -0.0382
15346SOL     OW49439   0.496  10.256   5.075  0.2712 -0.1409  0.0208
15346SOL    HW149440   0.446  10.216   5.146 -2.6847  0.7612 -1.3994
15346SOL    HW249441   0.531  10.181   5.026 -0.0893 -0.8223  0.7759
15347SOL     OW49442   1.558   0.321   1.995  0.5179 -0.1048  0.2909
15347SOL    HW149443   1.477   0.352   2.036  0.3118 -1.9877  1.3958
15347SOL    HW249444   1.551   0.226   1.997  1.5755 -0.2974 -2.0694
15348SOL     OW49445   2.090   4.581  10.156  0.2316 -0.4573  0.2470
15348SOL    HW149446   2.117   4.510  10.098 -0.5589  0.1635 -0.9077
15348SOL    HW249447   2.159   4.648  10.146  0.4177 -0.6030  0.5199
15349SOL     OW49448  10.363   4.775   5.014 -0.2667  0.1265 -0.0881
15349SOL    HW149449  10.394   4.685   5.001  0.4855  0.5325 -1.3462
15349SOL    HW249450  10.274   4.775   4.978 -0.0991 -0.0070 -0.5084
15350SOL     OW49451  10.494   7.528  10.507  0.6836  0.4622  0.1954
15350SOL    HW149452  10.485   7.612  10.464 -1.4196 -0.5887 -1.6351
15350SOL    HW249453  10.567   7.485  10.461 -1.0240 -0.3300 -1.9979
15351SOL     OW49454   2.988   4.222   9.667 -0.3628 -0.2658  0.0502
15351SOL    HW149455   2.991   4.189   9.577  1.0548 -3.1265  1.0389
15351SOL    HW249456   3.071   4.267   9.679 -0.9164  0.8820 -0.2927
15352SOL     OW49457   6.525   9.431  10.196 -0.5390  0.4143 -0.4998
15352SOL    HW149458   6.603   9.467  10.153  0.2457 -0.2684  0.2927
15352SOL    HW249459   6.561   9.369  10.260 -1.8028 -1.1569 -1.2604
15353SOL     OW49460   8.037   9.208   3.282 -0.0899  0.2904  0.2568
15353SOL    HW149461   8.083   9.191   3.364 -1.6279  1.1533  1.3720
15353SOL    HW249462   8.094   9.173   3.214  0.3230 -2.3422  1.8105
15354SOL     OW49463   3.243   0.621   6.986  0.1976  0.0331  0.1445
15354SOL    HW149464   3.272   0.620   6.895 -0.0422 -0.2196  0.0687
15354SOL    HW249465   3.291   0.549   7.027 -0.4240 -0.4785 -0.0152
15355SOL     OW49466   5.767   8.692   6.162 -0.2140 -0.4660  0.4779
15355SOL    HW149467   5.693   8.737   6.202  0.4742  0.7923  0.4173
15355SOL    HW249468   5.824   8.669   6.235  0.1964  0.2299  0.3868
15356SOL     OW49469   4.409   8.423   8.120 -0.3365 -0.4517 -0.1559
15356SOL    HW149470   4.361   8.355   8.073  1.3687 -1.7965 -0.0150
15356SOL    HW249471   4.500   8.396   8.117  0.1792  0.9188  1.4539
15357SOL     OW49472   9.091   2.993   4.384 -0.0307 -0.7726  0.1131
15357SOL    HW149473   9.134   2.912   4.412  1.1772 -0.7882 -1.5793
15357SOL    HW249474   9.160   3.042   4.340 -1.4463 -0.2291 -1.6129
15358SOL     OW49475   8.277   5.704   4.024  0.3091 -0.3002 -0.3191
15358SOL    HW149476   8.199   5.655   3.996  0.9101 -1.7745  0.4772
15358SOL    HW249477   8.263   5.792   3.990 -0.8015 -1.0183 -1.8722
15359SOL     OW49478   7.038   5.001   0.266  0.5120  0.4951 -0.0776
15359SOL    HW149479   7.113   5.042   0.308  0.6796 -0.7269  0.8850
15359SOL    HW249480   7.053   4.907   0.276 -0.2313  0.1916 -1.5208
15360SOL     OW49481   9.288   1.612   9.909  0.6254 -0.3529 -0.2042
15360SOL    HW149482   9.323   1.648   9.828  0.0501 -0.6766 -0.6003
15360SOL    HW249483   9.243   1.685   9.951  1.5327  0.0046  0.1883
15361SOL     OW49484   2.679   5.300   2.252 -0.2061 -0.2081  0.3002
15361SOL    HW149485   2.724   5.324   2.334 -2.2136  1.3504  1.0339
15361SOL    HW249486   2.644   5.383   2.220 -0.1941 -0.9398 -1.7325
15362SOL     OW49487   6.820   0.482   5.574 -0.0399 -0.4360  0.1022
15362SOL    HW149488   6.857   0.569   5.587 -0.6082  0.0505 -1.3372
15362SOL    HW249489   6.728   0.491   5.597  0.1327 -0.9496  1.0247
15363SOL     OW49490   3.817  10.156   7.446  0.2324 -0.1984  0.1770
15363SOL    HW149491   3.765  10.233   7.469 -0.9237 -0.2980 -1.8608
15363SOL    HW249492   3.843  10.171   7.355  1.8188 -1.2635  0.4116
15364SOL     OW49493   2.066   0.035   1.245  0.3699  0.1750  0.1158
15364SOL    HW149494   1.990   0.093   1.251 -0.1476 -0.6044  1.2430
15364SOL    HW249495   2.074  -0.005   1.331  2.8125  1.1460  0.4225
15365SOL     OW49496  10.236   5.419   3.308 -0.2755  0.5226 -0.1626
15365SOL    HW149497  10.307   5.374   3.263 -0.3930 -1.4736  1.4821
15365SOL    HW249498  10.178   5.449   3.238  0.1575 -1.3560 -1.3998
15366SOL     OW49499  10.675   5.734   5.987  0.3654  0.1657  1.1291
15366SOL    HW149500  10.693   5.695   5.901  0.1484 -0.3224  1.3017
15366SOL    HW249501  10.696   5.826   5.976  0.4065  0.0940  0.5684
15367SOL     OW49502   3.233   1.375   4.702 -0.0873 -0.2362 -0.3576
15367SOL    HW149503   3.263   1.375   4.611  0.1373  0.9181 -0.2894
15367SOL    HW249504   3.313   1.370   4.754 -0.0973  0.9548 -0.2048
15368SOL     OW49505  10.400   8.504   6.425  0.1275 -0.8545 -0.1894
15368SOL    HW149506  10.399   8.501   6.521  1.9836 -2.0906 -0.1489
15368SOL    HW249507  10.487   8.537   6.403 -0.5329  0.1181 -1.4668
15369SOL     OW49508   5.484   0.339   0.122 -0.6488 -0.2473  0.0441
15369SOL    HW149509   5.480   0.351   0.217 -2.9395 -2.7553  0.3924
15369SOL    HW249510   5.547   0.267   0.110 -1.0433 -0.5491 -0.2438
15370SOL     OW49511   8.194   6.809   1.903  0.2475  0.2459  0.6649
15370SOL    HW149512   8.108   6.777   1.877  0.9912 -1.3428  0.0199
15370SOL    HW249513   8.233   6.737   1.953  0.8988  1.2439  1.6526
15371SOL     OW49514   7.817   1.655   6.096  0.2992  0.0110 -0.2295
15371SOL    HW149515   7.812   1.597   6.172  0.7572  0.4558  0.1490
15371SOL    HW249516   7.882   1.615   6.039 -1.0543 -1.0986 -1.0865
15372SOL     OW49517   3.738   6.706   7.939  0.9650 -0.1084 -0.3235
15372SOL    HW149518   3.812   6.679   7.884  0.2468  1.5021 -2.2361
15372SOL    HW249519   3.770   6.784   7.985  1.1414 -0.6904  0.5526
15373SOL     OW49520   3.174  10.445   2.548 -0.8641  0.1722  0.3477
15373SOL    HW149521   3.258  10.408   2.521 -1.2787 -0.6077  0.1037
15373SOL    HW249522   3.183  10.539   2.532  0.3099  0.2348  1.2483
15374SOL     OW49523   0.810   2.524   2.512 -0.0383  0.0923  0.4769
15374SOL    HW149524   0.780   2.447   2.560 -2.4781  0.3530 -0.5198
15374SOL    HW249525   0.796   2.597   2.573  1.2020 -0.0630  0.9926
15375SOL     OW49526   7.543   7.307   1.858  0.0014  0.2468  0.3800
15375SOL    HW149527   7.582   7.360   1.928  0.4808  0.4310 -0.0185
15375SOL    HW249528   7.484   7.247   1.903 -2.5198  2.7356  0.6557
15376SOL     OW49529   1.763   8.485   3.303 -0.1687  0.3860 -0.4677
15376SOL    HW149530   1.808   8.489   3.387  0.1695 -0.0004 -0.6296
15376SOL    HW249531   1.829   8.511   3.239  0.8899 -3.3343 -1.0984
15377SOL     OW49532   8.168   2.791   8.139 -0.0754  0.2031  0.1132
15377SOL    HW149533   8.082   2.757   8.115 -0.6790  1.7331  0.0082
15377SOL    HW249534   8.220   2.782   8.059 -0.4211  0.1519 -0.1079
15378SOL     OW49535   9.819   4.564   1.848  0.0081  0.0854 -0.0563
15378SOL    HW149536   9.730   4.559   1.883  0.1951  1.1004  0.6373
15378SOL    HW249537   9.874   4.577   1.925  0.7083 -0.0530 -0.5225
15379SOL     OW49538   5.181   2.588  10.264  0.3678  0.0970  0.2339
15379SOL    HW149539   5.225   2.624  10.188  1.9327 -0.3297  0.8895
15379SOL    HW249540   5.088   2.609  10.251  0.7460  1.0016 -1.2117
15380SOL     OW49541   0.590   5.315   5.532  0.0786  0.4038 -0.2664
15380SOL    HW149542   0.609   5.223   5.549  1.2095  0.5717 -0.5415
15380SOL    HW249543   0.625   5.331   5.444 -2.6035  0.4018 -1.4373
15381SOL     OW49544  10.112   8.261   0.262  0.4194  0.5013  0.0609
15381SOL    HW149545  10.077   8.220   0.341  0.7783  0.3789  0.1588
15381SOL    HW249546  10.036   8.277   0.208 -0.0584  2.1267  1.1329
15382SOL     OW49547   9.663   9.299   1.713 -0.3568 -0.8002 -0.3315
15382SOL    HW149548   9.746   9.262   1.742 -1.0244 -1.8065  0.3516
15382SOL    HW249549   9.597   9.252   1.763 -1.3018  0.6775 -0.1363
15383SOL     OW49550   0.283   1.275   0.561 -0.0405  0.4446  0.1040
15383SOL    HW149551   0.199   1.257   0.519 -0.2906  3.0076 -0.6791
15383SOL    HW249552   0.260   1.303   0.649 -0.1511  2.0494 -0.3982
15384SOL     OW49553   5.668   1.032   1.256  0.4318 -0.0107 -0.0656
15384SOL    HW149554   5.754   1.072   1.268 -0.1879  1.0824  0.9717
15384SOL    HW249555   5.679   0.972   1.183  1.8963  0.6495 -0.4171
15385SOL     OW49556   3.183   3.783   7.464  0.2234  0.5473  0.0829
15385SOL    HW149557   3.116   3.809   7.527  0.8337  1.1779  0.4761
15385SOL    HW249558   3.266   3.795   7.510  0.5901 -1.3509  0.0159
15386SOL     OW49559   6.030   1.872   4.842 -0.3618 -0.6727  0.7359
15386SOL    HW149560   6.044   1.924   4.921 -0.4204  0.4570  0.0273
15386SOL    HW249561   6.033   1.935   4.771 -1.2656 -1.5247 -0.0950
15387SOL     OW49562  10.180   1.424   8.591  0.0308 -0.5800 -0.4384
15387SOL    HW149563  10.214   1.340   8.621 -1.2673 -0.0068  3.1394
15387SOL    HW249564  10.088   1.408   8.572 -0.1645 -0.0162  0.0167
15388SOL     OW49565   6.126  10.416   5.595 -0.2242 -0.2081 -0.5497
15388SOL    HW149566   6.202  10.452   5.640 -0.2448 -0.8386 -0.0075
15388SOL    HW249567   6.111  10.331   5.635 -3.9342  1.6007  2.6810
15389SOL     OW49568   6.100   4.245   6.652 -0.0292 -0.1029  0.1122
15389SOL    HW149569   6.070   4.154   6.645 -0.9395  0.2036 -0.0081
15389SOL    HW249570   6.060   4.289   6.577  1.3312  0.1565 -0.4932
15390SOL     OW49571   2.484   5.773   2.589 -0.1394 -0.3726  0.0336
15390SOL    HW149572   2.544   5.826   2.642  0.9577 -1.4753 -0.0479
15390SOL    HW249573   2.421   5.738   2.652  0.7044 -1.0566  0.5340
15391SOL     OW49574   8.781   4.927   7.378 -0.4445 -0.4260  0.1246
15391SOL    HW149575   8.832   5.008   7.381 -0.8692 -0.1655  2.2481
15391SOL    HW249576   8.745   4.924   7.290 -1.1601  2.1956  0.2593
15392SOL     OW49577   8.582  10.044   0.692  0.7290 -0.3465 -0.1701
15392SOL    HW149578   8.575  10.057   0.598  0.4032 -0.2014 -0.1275
15392SOL    HW249579   8.629  10.121   0.724  1.5931 -0.7969 -0.3168
15393SOL     OW49580  10.016   9.549   2.236 -1.1338 -0.3675 -0.7938
15393SOL    HW149581   9.935   9.508   2.205 -0.5658 -2.0774 -0.0903
15393SOL    HW249582  10.082   9.526   2.170 -0.7468 -0.8377 -0.2523
15394SOL     OW49583  10.153   7.032   3.664 -0.0895  0.4188 -0.1313
15394SOL    HW149584  10.084   7.031   3.731 -1.2802 -0.4864 -1.3069
15394SOL    HW249585  10.213   7.101   3.693 -0.8578  0.4556  1.5512
15395SOL     OW49586   4.963   3.014   2.187 -0.0620  0.5498 -0.6640
15395SOL    HW149587   4.883   3.043   2.230 -0.2044  0.2420 -0.7190
15395SOL    HW249588   5.028   3.080   2.210  0.3442 -0.5322  1.5795
15396SOL     OW49589   0.018   2.266   3.437  0.0855  0.4613  0.1557
15396SOL    HW149590   0.010   2.291   3.529 -0.0392  1.2772 -0.0703
15396SOL    HW249591  -0.070   2.240   3.411 -0.0082  0.8273  0.1021
15397SOL     OW49592   1.455   3.717  10.146  0.0678 -0.3141 -0.1263
15397SOL    HW149593   1.367   3.680  10.154  0.6062 -1.4896  0.6853
15397SOL    HW249594   1.448   3.779  10.073 -1.3437 -0.6112 -0.2866
15398SOL     OW49595   0.900  10.294   7.891  0.2298  0.9368 -0.0223
15398SOL    HW149596   0.861  10.349   7.959  0.7070  0.3630  0.7364
15398SOL    HW249597   0.939  10.356   7.829 -0.1580  1.4694  0.2630
15399SOL     OW49598   0.803   6.850   7.445  0.5110  0.3037  0.4111
15399SOL    HW149599   0.720   6.896   7.453  0.5019  0.0996  1.6402
15399SOL    HW249600   0.815   6.840   7.351 -1.5399 -0.8746  0.2017
15400SOL     OW49601   1.507   0.749   9.912 -0.2843  0.2322  0.0571
15400SOL    HW149602   1.420   0.710   9.900 -0.7376  0.7686  1.4595
15400SOL    HW249603   1.539   0.712   9.994  0.9228 -0.1134 -0.5468
15401SOL     OW49604   8.794   3.471   8.466  0.2170 -0.3791  0.4251
15401SOL    HW149605   8.788   3.404   8.398 -3.2116  1.8430 -1.8045
15401SOL    HW249606   8.884   3.503   8.460  1.7349 -4.0836  1.0772
15402SOL     OW49607   5.706  10.382   9.521  0.0342  0.1047  0.2044
15402SOL    HW149608   5.635  10.318   9.512 -1.3190  1.3754  1.3786
15402SOL    HW249609   5.693  10.442   9.447 -0.3971  0.5741  0.6506
15403SOL     OW49610   4.252   8.629   4.411  0.2626  0.1447 -0.2735
15403SOL    HW149611   4.197   8.562   4.452 -0.7434  0.5007 -0.9859
15403SOL    HW249612   4.337   8.586   4.400 -0.0356 -0.6314  0.3144
15404SOL     OW49613   9.595  10.648  10.296  0.0631  0.0115  0.5216
15404SOL    HW149614   9.645  10.657  10.376  1.2009 -3.6642  0.3880
15404SOL    HW249615   9.655  10.606  10.234 -2.0069 -1.0076 -0.9119
15405SOL     OW49616  10.201   5.412   9.971  0.6997 -0.0863 -0.3687
15405SOL    HW149617  10.234   5.486  10.022  3.3132 -1.5809  0.2866
15405SOL    HW249618  10.206   5.443   9.880  2.0769  0.4875 -0.1349
15406SOL     OW49619   7.218  10.129   5.871  0.4876  0.2532 -0.2479
15406SOL    HW149620   7.155  10.061   5.895  0.3242  0.2168 -0.7483
15406SOL    HW249621   7.265  10.149   5.952  1.4961 -1.4376 -0.3600
15407SOL     OW49622   8.186   7.016   0.954  0.4887  0.5171 -0.2193
15407SOL    HW149623   8.206   7.109   0.940 -0.0696  1.1996  2.8351
15407SOL    HW249624   8.184   7.006   1.049 -0.3094 -2.4777 -0.4536
15408SOL     OW49625   6.223   0.093   3.215 -0.0103 -0.0210  0.0539
15408SOL    HW149626   6.275   0.040   3.155  0.9232  0.2778  0.5800
15408SOL    HW249627   6.184   0.030   3.275 -0.3915 -0.2591 -0.4355
15409SOL     OW49628   0.716   9.515   8.479  0.0585  0.4813  0.5942
15409SOL    HW149629   0.686   9.585   8.421 -2.0268 -2.2503 -1.9402
15409SOL    HW249630   0.647   9.507   8.545 -0.2117  0.2222  0.2875
15410SOL     OW49631   1.914   2.720   9.054  0.2174  0.0237  0.1880
15410SOL    HW149632   1.819   2.717   9.066  0.5117 -0.6455  3.0300
15410SOL    HW249633   1.930   2.662   8.980 -1.4381 -1.8879  1.2048
15411SOL     OW49634   0.888  10.847   7.711 -0.3964  0.4317  0.2628
15411SOL    HW149635   0.977  10.817   7.691 -0.3268  0.4612  0.5254
15411SOL    HW249636   0.899  10.934   7.747 -0.4696  0.1513  0.9824
15412SOL     OW49637   6.767   5.700   2.726 -0.2919 -0.3812  0.5285
15412SOL    HW149638   6.755   5.774   2.786 -2.0047 -0.0581 -0.1777
15412SOL    HW249639   6.698   5.709   2.661  1.5480 -0.6631 -1.6136
15413SOL     OW49640   1.778   4.494   7.557 -0.5727 -0.0166  0.2556
15413SOL    HW149641   1.697   4.486   7.508 -0.4945 -2.4741  0.3941
15413SOL    HW249642   1.803   4.403   7.578  1.1155  0.7629  1.9940
15414SOL     OW49643   7.641   1.222   6.664 -0.1169  0.6080 -0.4512
15414SOL    HW149644   7.572   1.203   6.727 -0.4010  0.2313 -0.8689
15414SOL    HW249645   7.609   1.186   6.582  1.1606 -0.8244 -0.3790
15415SOL     OW49646   8.078   0.197   2.838 -0.0223  0.5035 -0.3295
15415SOL    HW149647   8.019   0.141   2.787  1.5006 -2.1542  0.6157
15415SOL    HW249648   8.118   0.256   2.773 -0.5999 -0.5061 -1.6513
15416SOL     OW49649  10.622   0.128   5.430 -0.3953 -0.0955 -0.5345
15416SOL    HW149650  10.664   0.071   5.366 -0.5549 -1.6064  0.6577
15416SOL    HW249651  10.530   0.103   5.428 -0.3292 -0.4840  0.5855
15417SOL     OW49652   2.774   1.155   1.401  0.0097 -0.0438  0.6378
15417SOL    HW149653   2.718   1.213   1.454 -0.2930  0.8094 -0.5634
15417SOL    HW249654   2.789   1.079   1.457  1.7279  1.8314  2.9475
15418SOL     OW49655   8.408   0.706   5.929  0.3289 -0.1191  0.1240
15418SOL    HW149656   8.413   0.780   5.868  0.5374 -0.4734 -0.2896
15418SOL    HW249657   8.456   0.735   6.007 -2.2333  1.4377  1.2885
15419SOL     OW49658  10.593   6.555   8.739  0.4519  0.0861  0.5703
15419SOL    HW149659  10.567   6.463   8.734 -0.1399  0.1743  1.7268
15419SOL    HW249660  10.581   6.589   8.651 -0.6501 -0.5980  0.4455
15420SOL     OW49661   5.697   5.862   0.843 -0.0300 -0.1400 -0.0684
15420SOL    HW149662   5.626   5.869   0.907  0.2428  1.1393  0.1079
15420SOL    HW249663   5.681   5.778   0.800 -1.7366  0.1764 -0.1233
15421SOL     OW49664   4.348   8.022   7.828 -0.3474  0.0752 -0.3518
15421SOL    HW149665   4.342   7.968   7.749  1.3266 -0.8410  0.0948
15421SOL    HW249666   4.313   7.965   7.898  0.1443  0.0781 -0.1014
15422SOL     OW49667   9.898   7.093   0.139 -0.4255 -0.4166  0.1495
15422SOL    HW149668   9.947   7.050   0.069 -1.2715 -1.5220  0.2097
15422SOL    HW249669   9.821   7.037   0.152 -0.5971  0.1078  1.5290
15423SOL     OW49670   1.275   3.528   6.348  0.5578 -0.3505 -0.3070
15423SOL    HW149671   1.263   3.461   6.281 -0.0002  1.5698 -2.2393
15423SOL    HW249672   1.196   3.523   6.401 -1.2487  1.0820 -2.6681
15424SOL     OW49673   1.025   8.082   6.430 -0.2782  0.2317  0.3256
15424SOL    HW149674   1.010   8.007   6.373 -1.4474  1.2791 -0.7961
15424SOL    HW249675   1.120   8.093   6.431  0.0933 -2.3397  1.9984
15425SOL     OW49676   4.840   0.070   1.890 -0.3744 -0.1465 -0.1323
15425SOL    HW149677   4.800   0.126   1.823  4.0451  1.3428 -1.8951
15425SOL    HW249678   4.827  -0.019   1.857 -0.7300  0.3774 -1.5154
15426SOL     OW49679   3.243   4.777   3.170  0.1659  0.3892  0.3717
15426SOL    HW149680   3.249   4.707   3.105 -1.0181  1.0091 -0.4290
15426SOL    HW249681   3.293   4.849   3.132 -2.3244  1.5233 -0.9342
15427SOL     OW49682  10.554   3.283   3.089  0.3911  0.1270 -0.2009
15427SOL    HW149683  10.556   3.334   3.170  1.1314  0.0587 -0.1656
15427SOL    HW249684  10.557   3.192   3.118 -1.6922  0.0057 -0.2352
15428SOL     OW49685  10.625   7.930   6.253  0.0032  0.2397  0.5925
15428SOL    HW149686  10.663   8.009   6.291  0.2001  0.4534 -0.0350
15428SOL    HW249687  10.640   7.862   6.319 -0.9088  0.8896  1.5047
15429SOL     OW49688   3.867   6.028   0.309  0.3372  0.0188  0.2688
15429SOL    HW149689   3.860   5.933   0.309 -1.0428  0.1028  0.9038
15429SOL    HW249690   3.960   6.045   0.320  0.6296 -1.2531 -0.0755
15430SOL     OW49691   5.561   8.803   6.643 -0.1939 -1.0198  0.0707
15430SOL    HW149692   5.619   8.749   6.696 -0.2403 -0.8415  0.3001
15430SOL    HW249693   5.522   8.865   6.704 -3.4912 -3.4382  0.7554
15431SOL     OW49694   3.975   0.213   1.676 -0.0545  0.2356  0.4431
15431SOL    HW149695   3.960   0.265   1.755 -0.3909  0.4540  0.2351
15431SOL    HW249696   4.008   0.276   1.612  1.3353 -0.1454  0.7516
15432SOL     OW49697   2.511   5.100   5.804  0.1356  0.2022  0.4969
15432SOL    HW149698   2.548   5.058   5.881  0.2442 -0.8948 -0.1262
15432SOL    HW249699   2.554   5.185   5.799  1.6140 -0.5193  0.5169
15433SOL     OW49700   5.658  10.407   9.236  0.2647 -0.1047  0.0751
15433SOL    HW149701   5.732  10.351   9.213  0.1763  0.0597 -0.6186
15433SOL    HW249702   5.665  10.481   9.176  0.2601  0.5327  0.8435
15434SOL     OW49703   5.799   9.952   1.813  0.3297  0.2595 -0.4994
15434SOL    HW149704   5.841   9.867   1.804 -0.7590 -0.3766  0.2413
15434SOL    HW249705   5.776   9.977   1.723 -1.6690 -1.4578 -0.5292
15435SOL     OW49706   0.382   7.409   3.485 -0.0829  0.4967  0.7549
15435SOL    HW149707   0.414   7.438   3.570  0.0107  2.0984  0.2151
15435SOL    HW249708   0.393   7.485   3.428 -1.0117 -0.2397 -0.4679
15436SOL     OW49709   9.325   3.709  10.004 -0.1640 -0.2965 -0.6251
15436SOL    HW149710   9.378   3.761   9.943  0.7198 -0.3913  0.0423
15436SOL    HW249711   9.265   3.772  10.044 -0.9122 -0.2729 -1.7446
15437SOL     OW49712   7.243   6.840   1.058 -0.1444 -0.1790  0.8219
15437SOL    HW149713   7.273   6.926   1.088  0.3149  0.0159 -0.1438
15437SOL    HW249714   7.305   6.778   1.097  0.6240  0.0942  0.0549
15438SOL     OW49715   4.468   6.806   9.231 -0.7525 -0.1460 -0.0580
15438SOL    HW149716   4.495   6.732   9.176 -0.0372 -2.1867  2.7848
15438SOL    HW249717   4.545   6.826   9.284 -1.3086  1.9111  0.0474
15439SOL     OW49718   7.503   5.978  10.556  0.2636  0.3049  0.3223
15439SOL    HW149719   7.598   5.971  10.565  0.3893  1.4916 -0.0124
15439SOL    HW249720   7.484   5.935  10.473  0.5341  0.3075  0.2587
15440SOL     OW49721   9.713  10.179   1.334 -0.5078  0.8298 -0.2266
15440SOL    HW149722   9.733  10.169   1.427 -0.1784  1.7792 -0.1829
15440SOL    HW249723   9.762  10.109   1.291  0.5953  1.3383  0.1708
15441SOL     OW49724   5.818   9.134   5.277 -0.5906  0.0489 -0.0299
15441SOL    HW149725   5.869   9.135   5.357 -1.8005 -0.7206  0.7875
15441SOL    HW249726   5.747   9.197   5.292 -0.8770 -0.1589 -0.4574
15442SOL     OW49727  10.193   3.538   3.316 -0.2828  0.0369  0.5956
15442SOL    HW149728  10.141   3.517   3.238 -0.1265 -0.6772  0.6783
15442SOL    HW249729  10.150   3.616   3.353  0.9337  1.7812 -1.4154
15443SOL     OW49730  10.128   1.780   8.248 -0.3969 -0.4952  0.3901
15443SOL    HW149731  10.216   1.741   8.247 -0.0383  0.1649 -2.3099
15443SOL    HW249732  10.102   1.779   8.340  2.9306  0.3825  1.4907
15444SOL     OW49733   1.407   6.201   2.506  0.4192  0.2282 -0.1038
15444SOL    HW149734   1.483   6.258   2.512 -0.1550  0.9879  0.2401
15444SOL    HW249735   1.382   6.203   2.414  1.0282 -0.3214 -0.2848
15445SOL     OW49736   9.591   1.032   0.490  0.1122  0.5035 -0.5693
15445SOL    HW149737   9.561   1.013   0.579 -0.9538  0.3390 -0.9581
15445SOL    HW249738   9.598   0.946   0.449 -1.9682  0.6955 -1.4479
15446SOL     OW49739   9.573   0.693   8.207  0.0816  0.3630  0.4071
15446SOL    HW149740   9.542   0.781   8.231  1.2793  0.1754  2.9481
15446SOL    HW249741   9.635   0.708   8.136 -0.9393  1.3717 -0.3117
15447SOL     OW49742   7.954   5.801   1.593  0.3126 -0.7290  0.0561
15447SOL    HW149743   7.994   5.714   1.601 -0.3650 -1.4630 -3.0843
15447SOL    HW249744   8.009   5.847   1.530 -0.0653  0.6861  0.7226
15448SOL     OW49745   6.390   3.933   4.796  0.1750 -0.1938  0.3316
15448SOL    HW149746   6.350   3.917   4.710  1.2025  0.5529 -0.3075
15448SOL    HW249747   6.319   3.918   4.859 -0.6331 -0.6038 -0.6570
15449SOL     OW49748   8.118   1.930   7.139 -0.2786  0.5431  0.0167
15449SOL    HW149749   8.045   1.882   7.178 -0.5582 -1.2217 -2.4498
15449SOL    HW249750   8.187   1.864   7.128  0.6341  1.5247 -0.3188
15450SOL     OW49751   8.553   5.920  10.250 -0.2911 -0.4670  0.1373
15450SOL    HW149752   8.566   6.001  10.301 -0.4559  0.2700 -0.9736
15450SOL    HW249753   8.616   5.928  10.178  0.8778 -2.1181  0.9153
15451SOL     OW49754   2.050   5.247   5.422 -0.1602  0.0632  0.1360
15451SOL    HW149755   2.001   5.326   5.399  1.0364  0.6190 -0.5872
15451SOL    HW249756   2.141   5.276   5.431  0.2243 -1.1360  0.3831
15452SOL     OW49757   9.535   8.308   1.167 -0.0247  0.1279  0.5674
15452SOL    HW149758   9.458   8.356   1.137 -0.7711 -1.1395  0.3914
15452SOL    HW249759   9.507   8.267   1.249  0.2965 -0.7559  0.2437
15453SOL     OW49760   3.196   4.954   3.389  0.1344 -0.3132  0.2248
15453SOL    HW149761   3.181   4.897   3.314  1.0504  0.9972 -0.9917
15453SOL    HW249762   3.186   4.896   3.465  0.0743 -1.8618 -0.9147
15454SOL     OW49763   5.531   5.723   9.515 -0.0369 -0.2221 -0.5201
15454SOL    HW149764   5.501   5.654   9.455 -0.4854 -0.0669 -0.4774
15454SOL    HW249765   5.516   5.804   9.467  0.4800 -0.1500 -0.5640
15455SOL     OW49766  10.318   3.240   0.928 -0.2553  0.5113  0.1062
15455SOL    HW149767  10.381   3.176   0.895  1.1896  0.0811  3.2894
15455SOL    HW249768  10.367   3.322   0.933 -0.8091  0.8537  0.0297
15456SOL     OW49769   4.648   7.097   6.037  0.5450 -0.3138 -0.3430
15456SOL    HW149770   4.701   7.102   6.116 -0.6632  0.1222  0.4678
15456SOL    HW249771   4.557   7.095   6.068 -0.0280  1.1703 -1.7226
15457SOL     OW49772   3.145   5.222   9.145 -0.2673  0.1821  0.3847
15457SOL    HW149773   3.124   5.309   9.177 -3.0554 -0.2362 -0.0796
15457SOL    HW249774   3.115   5.163   9.214  2.1006 -0.4845  0.9547
15458SOL     OW49775   5.614   3.861   0.361 -0.0673 -0.0284 -0.6448
15458SOL    HW149776   5.544   3.891   0.302  0.8315 -0.2564 -1.8590
15458SOL    HW249777   5.645   3.779   0.323  0.0091 -0.6027  0.6018
15459SOL     OW49778   9.127   9.962   5.519 -0.1118  0.1750 -0.2745
15459SOL    HW149779   9.068  10.012   5.462 -0.4030 -1.8174 -1.8202
15459SOL    HW249780   9.113   9.871   5.493  1.3304 -0.6158  1.5591
15460SOL     OW49781   7.302  10.511   1.585 -0.4704  0.1005  0.5966
15460SOL    HW149782   7.364  10.496   1.514 -0.9764 -0.8075  0.3243
15460SOL    HW249783   7.336  10.458   1.658 -0.6760 -0.0340  0.5951
15461SOL     OW49784  10.907   9.876   4.776 -0.6365  0.5156 -0.1996
15461SOL    HW149785  10.983   9.852   4.723 -2.2832 -1.1874 -1.9477
15461SOL    HW249786  10.925   9.837   4.862  0.7132  0.6354 -0.4044
15462SOL     OW49787   4.308  10.661   8.972  0.1008 -0.1468  0.5241
15462SOL    HW149788   4.352  10.746   8.964  1.4072 -0.8461 -0.1232
15462SOL    HW249789   4.376  10.602   9.005 -0.5538 -1.1198  0.1826
15463SOL     OW49790   2.618   8.513   1.657  0.7997  0.3248 -0.4366
15463SOL    HW149791   2.656   8.441   1.607  1.1746  0.2372 -0.0270
15463SOL    HW249792   2.580   8.471   1.734  1.1048  0.5771 -0.1489
15464SOL     OW49793   7.758   5.220   7.871  0.3791 -0.3502 -0.0551
15464SOL    HW149794   7.852   5.228   7.890  0.3315  0.3918 -0.0971
15464SOL    HW249795   7.727   5.310   7.865 -0.4946 -0.5912  0.6879
15465SOL     OW49796  10.686  10.343   7.188 -0.3474  0.2353  0.1473
15465SOL    HW149797  10.736  10.283   7.132  0.4448 -0.1336  1.2262
15465SOL    HW249798  10.602  10.352   7.143  0.4817  0.4478 -1.4230
15466SOL     OW49799   5.131   1.979   9.014  0.6679 -0.4385 -0.3959
15466SOL    HW149800   5.223   1.960   9.028  0.6693  0.3166  0.7206
15466SOL    HW249801   5.130   2.057   8.959  0.6544 -2.4274 -3.4635
15467SOL     OW49802   2.854   7.128   8.767 -0.3230 -0.0789  0.4616
15467SOL    HW149803   2.844   7.033   8.762  0.1644 -0.2056  1.5741
15467SOL    HW249804   2.935   7.146   8.720 -0.1725 -0.2675  0.6475
15468SOL     OW49805   0.374   5.922   7.191  0.5146  0.0608 -0.2668
15468SOL    HW149806   0.451   5.969   7.222  0.8284  0.0523 -1.0211
15468SOL    HW249807   0.366   5.946   7.099  0.9340 -1.6907 -0.8019
15469SOL     OW49808   4.914   6.157   3.089  0.4230 -0.3316 -0.1553
15469SOL    HW149809   4.831   6.114   3.067 -0.3911 -0.4107  2.6935
15469SOL    HW249810   4.916   6.235   3.034 -1.7279 -0.1315 -0.0332
15470SOL     OW49811   6.799   1.489   6.101 -0.9134 -0.8405 -0.0377
15470SOL    HW149812   6.752   1.568   6.075  0.0303  0.2635  1.4499
15470SOL    HW249813   6.832   1.452   6.020  0.3662  1.4320 -0.6050
15471SOL     OW49814   0.890   5.390   3.170 -0.1714 -0.4422  0.4467
15471SOL    HW149815   0.831   5.411   3.098 -1.2624  0.2803  1.4999
15471SOL    HW249816   0.918   5.300   3.153 -0.4477 -0.3049 -0.8240
15472SOL     OW49817   5.431   0.590   2.393  0.3288  0.3235 -0.4755
15472SOL    HW149818   5.421   0.535   2.315  0.2045 -0.4887  0.1000
15472SOL    HW249819   5.512   0.561   2.433 -0.4493 -0.4431  0.6029
15473SOL     OW49820   7.850   1.070  10.120 -0.3189  0.2645 -0.3385
15473SOL    HW149821   7.776   1.011  10.133 -2.0285  2.7168  2.2243
15473SOL    HW249822   7.927   1.019  10.146 -1.3596 -1.5731 -0.7185
15474SOL     OW49823   1.852   4.134   5.365 -0.2030 -0.4279  0.1684
15474SOL    HW149824   1.921   4.166   5.307 -1.5100  2.2187 -0.0859
15474SOL    HW249825   1.843   4.202   5.431 -1.1366 -1.7262  1.4443
15475SOL     OW49826   5.148   9.073   0.478  0.4612 -0.3218 -0.6859
15475SOL    HW149827   5.206   9.019   0.532 -2.0930 -2.5622  0.0643
15475SOL    HW249828   5.108   9.135   0.540  1.1264  0.4190 -0.9799
15476SOL     OW49829   2.553  10.178   1.832 -0.8135 -0.3316 -0.1857
15476SOL    HW149830   2.534  10.089   1.803 -1.2732 -0.3324  0.1021
15476SOL    HW249831   2.601  10.167   1.914 -1.4085 -0.3119  0.1686
15477SOL     OW49832   5.798   4.559   4.256 -0.1097  0.3059 -0.4393
15477SOL    HW149833   5.824   4.525   4.171  1.0842  1.6234 -0.6340
15477SOL    HW249834   5.785   4.481   4.310 -2.2937 -0.6425 -2.1504
15478SOL     OW49835   8.445   2.653   7.249 -0.0234 -0.0421 -0.0979
15478SOL    HW149836   8.377   2.699   7.298  0.4644  0.8761 -0.2496
15478SOL    HW249837   8.514   2.719   7.236  1.3156 -1.1906  0.8586
15479SOL     OW49838   1.118   9.654   1.294  0.3768 -0.1069 -0.6988
15479SOL    HW149839   1.173   9.691   1.363  0.6316 -0.6643 -0.6021
15479SOL    HW249840   1.039   9.624   1.340  0.5050 -0.3907 -0.6638
15480SOL     OW49841   5.860   2.311   9.513 -0.2181  0.1474  0.3251
15480SOL    HW149842   5.950   2.335   9.534  1.3150 -1.4930 -3.4527
15480SOL    HW249843   5.814   2.395   9.506  1.6989  1.2202 -0.1439
15481SOL     OW49844   9.504   9.445   1.529 -0.6312 -0.1242  0.0807
15481SOL    HW149845   9.579   9.483   1.484 -1.3397  0.3291 -0.7545
15481SOL    HW249846   9.542   9.386   1.593  0.4162 -1.6930 -1.8633
15482SOL     OW49847   9.153   9.844   8.881  0.5803  0.0360  0.2646
15482SOL    HW149848   9.123   9.773   8.823 -1.4691  1.1044 -0.0706
15482SOL    HW249849   9.131   9.924   8.834  2.8188  0.9620  0.6545
15483SOL     OW49850   2.226   3.367   9.568  0.2174  0.1316  0.5011
15483SOL    HW149851   2.169   3.443   9.581 -1.4647 -0.6294 -1.7092
15483SOL    HW249852   2.186   3.298   9.620 -0.8963 -0.3511 -0.9051
15484SOL     OW49853   9.727   5.492   9.164 -0.2459 -0.5482 -0.1649
15484SOL    HW149854   9.803   5.545   9.188 -1.2130  0.8067  0.0308
15484SOL    HW249855   9.675   5.486   9.244  0.3281 -2.7351  0.1203
15485SOL     OW49856   2.528   0.790   5.921  0.2360  0.3269  0.0070
15485SOL    HW149857   2.478   0.858   5.874  0.9671  0.7285 -0.2039
15485SOL    HW249858   2.522   0.713   5.864  0.5363  0.6124 -0.4166
15486SOL     OW49859  10.224   0.080   7.931 -0.2437  0.0371 -0.5747
15486SOL    HW149860  10.317   0.087   7.952 -0.4636  1.5399  0.0103
15486SOL    HW249861  10.210  -0.014   7.918  0.8378 -0.5086  1.6935
15487SOL     OW49862   1.061   4.559   0.206  0.3468  0.1448  0.3551
15487SOL    HW149863   1.035   4.634   0.153  0.8918 -0.3641 -0.6496
15487SOL    HW249864   1.057   4.484   0.147  0.7834 -0.4714  1.0781
15488SOL     OW49865  10.836  10.804   7.389 -0.5816  0.2781  0.2891
15488SOL    HW149866  10.857  10.890   7.426 -0.0750  0.2859 -0.0047
15488SOL    HW249867  10.767  10.822   7.325  0.3817  0.6637 -0.6743
15489SOL     OW49868   6.170  10.653   7.484  0.2972 -0.3559 -0.4360
15489SOL    HW149869   6.086  10.632   7.442  0.3747 -2.0394  0.1902
15489SOL    HW249870   6.222  10.693   7.414 -1.2350  1.3600 -0.6637
15490SOL     OW49871   0.620   5.820   6.951 -0.0127 -0.1802 -0.6791
15490SOL    HW149872   0.584   5.761   7.018 -2.5454  0.7327 -1.1195
15490SOL    HW249873   0.655   5.761   6.884 -0.2443 -1.1446  0.0223
15491SOL     OW49874   4.463   0.186   0.806 -0.6166  0.0921 -0.0661
15491SOL    HW149875   4.511   0.225   0.879 -1.5300 -1.0863  1.1992
15491SOL    HW249876   4.461   0.093   0.825 -0.7651 -0.2709 -1.6785
15492SOL     OW49877   0.747   3.596   6.916  0.1594  0.1646 -0.7072
15492SOL    HW149878   0.660   3.630   6.899 -0.1926 -0.7896 -0.8738
15492SOL    HW249879   0.773   3.637   6.998 -0.1232  1.0399 -1.0376
15493SOL     OW49880  10.286   9.569   1.126  0.2841  0.0226  0.9947
15493SOL    HW149881  10.330   9.596   1.207  0.5541  0.6481  0.6488
15493SOL    HW249882  10.278   9.474   1.133 -0.4049  0.1408  2.1201
15494SOL     OW49883   4.472   3.375   5.558 -0.3362 -0.1763 -0.5553
15494SOL    HW149884   4.565   3.386   5.577 -0.2935  1.2142 -1.4408
15494SOL    HW249885   4.464   3.284   5.530  0.6473 -0.4741  0.0846
15495SOL     OW49886   5.914   2.103   3.025 -0.2856  0.2863 -0.0612
15495SOL    HW149887   6.010   2.103   3.028 -0.2488  0.4367 -0.9867
15495SOL    HW249888   5.890   2.196   3.020 -0.4427  0.2225 -0.5759
15496SOL     OW49889   9.657   2.126   3.024 -0.1225  0.1076  0.1115
15496SOL    HW149890   9.614   2.045   2.997  0.4998 -0.9029  1.9705
15496SOL    HW249891   9.685   2.110   3.114  0.4259  2.2440  0.3868
15497SOL     OW49892   9.942   0.765   1.506  0.1142 -0.1695 -0.4468
15497SOL    HW149893  10.018   0.710   1.526 -0.9114 -1.4767 -0.0442
15497SOL    HW249894   9.908   0.791   1.591 -2.0381 -2.6480 -0.4447
15498SOL     OW49895   8.439   6.625   7.307 -0.5003 -0.3454 -0.7640
15498SOL    HW149896   8.384   6.693   7.270 -0.8176  0.2122  0.6637
15498SOL    HW249897   8.379   6.572   7.360  0.1497 -0.2965  0.0482
15499SOL     OW49898   7.393   1.351   4.564 -0.2592 -0.3348 -0.2634
15499SOL    HW149899   7.430   1.389   4.643 -1.3262  1.1654 -0.4518
15499SOL    HW249900   7.425   1.261   4.564  5.1070  1.1877 -1.4117
15500SOL     OW49901   4.713   5.317   7.397  1.1382  0.2755 -0.5371
15500SOL    HW149902   4.754   5.363   7.323 -1.5713  0.3755 -2.1239
15500SOL    HW249903   4.663   5.247   7.355 -0.7171  0.5105  1.1754
15501SOL     OW49904   1.753   7.998   2.899 -0.2584  0.4228  0.4913
15501SOL    HW149905   1.763   8.061   2.970 -0.7707 -0.0715  1.0187
15501SOL    HW249906   1.714   7.921   2.941  2.3802 -1.1121  0.3303
15502SOL     OW49907   0.919   4.474   0.682  0.4246 -0.2030  0.0731
15502SOL    HW149908   0.923   4.397   0.740  0.7583  0.0437  0.3867
15502SOL    HW249909   0.906   4.438   0.595 -2.2941 -0.5157  0.5072
15503SOL     OW49910   6.000   1.434   7.278  0.1776 -0.2484 -0.0885
15503SOL    HW149911   6.004   1.413   7.371 -0.3593  2.9884  0.7764
15503SOL    HW249912   6.087   1.414   7.244  0.9173  0.1867  1.5091
15504SOL     OW49913  10.660   5.995   1.510  0.2600  0.5476  0.5018
15504SOL    HW149914  10.630   5.972   1.422 -0.1234  0.1659  0.7267
15504SOL    HW249915  10.702   5.915   1.542 -0.6827  0.2792  1.1193
15505SOL     OW49916   4.066   1.664   0.384 -0.6581  0.2863  0.3649
15505SOL    HW149917   4.078   1.678   0.478  1.0777 -1.5895  0.4892
15505SOL    HW249918   4.144   1.614   0.357 -0.8394  1.2224 -2.1839
15506SOL     OW49919   9.755   0.533  10.528  0.2010  0.3469  0.2758
15506SOL    HW149920   9.818   0.582  10.580 -0.3949  1.4679 -0.0352
15506SOL    HW249921   9.745   0.450  10.575  0.6842  0.8019  1.2136
15507SOL     OW49922   6.099   1.444   5.635  0.2177  0.2310 -0.7058
15507SOL    HW149923   6.157   1.487   5.572  0.0075 -0.9625 -1.7580
15507SOL    HW249924   6.138   1.358   5.648 -0.2877  0.1051  0.0494
15508SOL     OW49925   5.165   9.055   1.901 -0.6223  0.4775 -0.1353
15508SOL    HW149926   5.087   9.068   1.956 -0.2669  0.0002  0.4995
15508SOL    HW249927   5.134   9.000   1.829 -0.8114  0.0332  0.2769
15509SOL     OW49928   6.067   3.873   0.838 -0.0377 -0.0406 -0.0659
15509SOL    HW149929   6.103   3.959   0.816  1.3745 -0.1554  1.5826
15509SOL    HW249930   6.033   3.840   0.755 -0.1643  1.8841 -0.8403
15510SOL     OW49931   8.708  10.554   6.437 -0.0587 -0.3032  0.2264
15510SOL    HW149932   8.653  10.514   6.505  0.2985 -0.2728  0.5377
15510SOL    HW249933   8.694  10.648   6.448  1.3868 -0.1943  1.4720
15511SOL     OW49934   0.132   9.618   5.481  0.1453  0.1882 -0.6015
15511SOL    HW149935   0.072   9.653   5.546 -0.1455 -0.3568 -0.5721
15511SOL    HW249936   0.103   9.528   5.468  1.9579 -0.6445  0.6580
15512SOL     OW49937   7.155   3.951   0.903  0.0745 -0.0985 -0.3253
15512SOL    HW149938   7.112   3.894   0.839  0.6508 -2.0451  0.9310
15512SOL    HW249939   7.157   3.899   0.983 -0.0550  2.0112  1.1282
15513SOL     OW49940   6.409   8.259   2.789 -0.2965 -0.3316 -0.0179
15513SOL    HW149941   6.440   8.301   2.709 -0.4848 -1.2246 -0.5669
15513SOL    HW249942   6.394   8.332   2.849 -0.8622  0.4237 -1.0357
15514SOL     OW49943   4.251   1.551   6.914  0.1745 -0.9589  1.1146
15514SOL    HW149944   4.308   1.521   6.985  0.4312 -0.1561  1.2501
15514SOL    HW249945   4.264   1.487   6.844  0.8887 -1.0360  1.3151
15515SOL     OW49946   1.687   4.361   9.228  0.7219 -0.2158 -0.2041
15515SOL    HW149947   1.592   4.365   9.229  0.7053 -0.1249 -1.3272
15515SOL    HW249948   1.708   4.269   9.243  0.4607 -0.2408  0.0078
15516SOL     OW49949   3.438   1.165   0.748  0.1380  0.2559 -0.3797
15516SOL    HW149950   3.500   1.124   0.688 -0.3279 -0.8959 -0.1168
15516SOL    HW249951   3.372   1.206   0.692 -0.1585 -0.5956 -0.6777
15517SOL     OW49952   4.795   1.521   2.362 -0.4219  0.4423 -0.6752
15517SOL    HW149953   4.882   1.481   2.356 -0.5661  0.2043 -1.1929
15517SOL    HW249954   4.774   1.547   2.273 -0.7256  0.8424 -0.4891
15518SOL     OW49955   6.419   9.532   5.749 -0.1830  0.4020 -0.1128
15518SOL    HW149956   6.419   9.480   5.668 -0.1397  0.1919  0.0223
15518SOL    HW249957   6.444   9.620   5.721 -1.7304  0.7263 -0.5814
15519SOL     OW49958   0.153   8.411   2.551  0.1201 -0.1828  0.0845
15519SOL    HW149959   0.134   8.504   2.560  0.1287 -0.2120  0.4009
15519SOL    HW249960   0.121   8.371   2.631  0.5087 -0.3912  0.1418
15520SOL     OW49961   9.733   2.529   3.750  0.4425 -0.6031 -0.4036
15520SOL    HW149962   9.804   2.561   3.694  0.1291 -0.2793 -0.6173
15520SOL    HW249963   9.670   2.491   3.689  0.8789 -1.8007 -0.1482
15521SOL     OW49964  10.184   3.579   7.779 -0.2776 -0.1330 -0.0754
15521SOL    HW149965  10.186   3.645   7.848  0.1957  0.6435 -0.8075
15521SOL    HW249966  10.236   3.506   7.813 -0.1277  0.2027  0.4218
15522SOL     OW49967   9.984   2.033   2.804  0.5404  0.0835  0.0165
15522SOL    HW149968  10.070   2.025   2.762 -0.4945  1.7290 -2.6805
15522SOL    HW249969   9.966   2.127   2.806 -1.0502 -0.1920  0.9151
15523SOL     OW49970   4.074   5.605   6.294 -0.1318 -0.3038  0.3579
15523SOL    HW149971   4.014   5.531   6.305 -0.6521 -0.2289 -1.5939
15523SOL    HW249972   4.112   5.618   6.381 -3.2112 -0.1092  1.8044
15524SOL     OW49973   2.444   5.469   2.564  0.3371 -0.2788  0.3544
15524SOL    HW149974   2.516   5.449   2.624  0.0200 -0.1513  0.7773
15524SOL    HW249975   2.458   5.560   2.540  0.0823 -0.1321  0.7597
15525SOL     OW49976   2.434   6.130   9.621 -0.0829 -0.7215  0.2229
15525SOL    HW149977   2.479   6.108   9.703 -1.2482  1.0325  1.4077
15525SOL    HW249978   2.344   6.099   9.635 -1.3338  2.8661  1.2757
15526SOL     OW49979   8.473   1.260   0.218  0.0214 -0.0031 -0.3488
15526SOL    HW149980   8.521   1.229   0.295  0.2990  0.8310 -0.1820
15526SOL    HW249981   8.428   1.182   0.186 -0.2288 -0.3357  0.7534
15527SOL     OW49982   9.142   2.082   9.614 -0.5107  0.0507  0.5026
15527SOL    HW149983   9.136   2.177   9.606  0.3355  0.0886  0.2348
15527SOL    HW249984   9.108   2.049   9.530  1.6682  0.2208 -0.5058
15528SOL     OW49985   7.719   8.502   8.757  0.1852  0.2546 -0.1905
15528SOL    HW149986   7.679   8.446   8.691  0.5458 -0.3162  0.0706
15528SOL    HW249987   7.647   8.553   8.793 -0.1981 -0.2995 -0.1762
15529SOL     OW49988  10.295  10.192   1.289 -0.0692 -0.0071  0.1326
15529SOL    HW149989  10.341  10.229   1.365  1.7775  2.0590 -1.8360
15529SOL    HW249990  10.330  10.240   1.214 -1.2635 -2.4490 -2.1543
15530SOL     OW49991   5.840   4.017   1.517 -0.5048  0.2242  0.0179
15530SOL    HW149992   5.752   4.043   1.544  0.0182 -1.0246  3.4527
15530SOL    HW249993   5.897   4.086   1.552  0.1045 -0.5853  0.6489
15531SOL     OW49994  10.753   8.019   0.968 -0.2808 -0.0709 -0.3998
15531SOL    HW149995  10.812   8.089   0.940 -2.3712  1.6855 -0.7015
15531SOL    HW249996  10.665   8.055   0.955 -1.4746 -1.2814  3.0104
15532SOL     OW49997   7.844   1.099   7.342  0.5019 -0.6268 -0.1975
15532SOL    HW149998   7.863   1.041   7.269 -0.5291  1.3605 -2.1721
15532SOL    HW249999   7.835   1.186   7.302 -2.4680  0.2067  1.8901
15533SOL     OW50000   6.893   7.702   4.627  0.2604 -0.1955  0.5217
15533SOL    HW150001   6.846   7.785   4.616 -1.2742 -1.0345  0.4265
15533SOL    HW250002   6.929   7.684   4.540 -1.0265 -0.5288  0.0226
15534SOL     OW50003   5.333   0.423   7.449 -0.6631  0.1295  0.1406
15534SOL    HW150004   5.401   0.417   7.517 -0.2571 -0.5961 -0.3191
15534SOL    HW250005   5.285   0.503   7.471  0.8340  1.1077  0.0236
15535SOL     OW50006  10.701   8.182   9.147  0.0367 -0.5946  0.1944
15535SOL    HW150007  10.725   8.275   9.150 -1.8609 -0.0632 -0.0874
15535SOL    HW250008  10.746   8.148   9.070  0.0547  0.2898 -0.1925
15536SOL     OW50009   3.874   6.005   7.332 -0.4556 -0.0061 -0.0188
15536SOL    HW150010   3.807   5.939   7.349 -0.3969 -0.2118 -0.5519
15536SOL    HW250011   3.955   5.955   7.321 -0.5909  0.0424 -1.4457
15537SOL     OW50012   7.486   0.196  10.457 -0.2004  0.2912 -0.9669
15537SOL    HW150013   7.512   0.253  10.529  0.0461 -0.4952 -0.4145
15537SOL    HW250014   7.554   0.128  10.455 -1.6537 -1.2650 -0.1367
15538SOL     OW50015   2.324   1.486   0.034 -0.2808 -0.5174 -0.4676
15538SOL    HW150016   2.266   1.514   0.104 -1.8271 -2.2937 -0.9615
15538SOL    HW250017   2.312   1.550  -0.036  2.2839  2.0814  1.2119
15539SOL     OW50018   9.128   2.803   2.535  0.6863  0.0967 -0.2542
15539SOL    HW150019   9.125   2.765   2.623 -0.6146 -0.9394 -0.6972
15539SOL    HW250020   9.170   2.888   2.546 -0.4161  0.4548  1.5515
15540SOL     OW50021   2.835   2.504   0.518  0.9282  0.1592  0.1536
15540SOL    HW150022   2.788   2.585   0.500  0.1525 -0.2431  0.3217
15540SOL    HW250023   2.778   2.455   0.578  1.1078 -0.7556 -0.3930
15541SOL     OW50024   6.622   7.792   6.809 -0.4289 -0.2354 -0.1172
15541SOL    HW150025   6.634   7.698   6.798  0.4235 -0.3772  1.7760
15541SOL    HW250026   6.542   7.800   6.861 -0.2618  0.0816  0.0905
15542SOL     OW50027   3.544   4.247   1.854 -0.4265  0.5302 -0.0134
15542SOL    HW150028   3.513   4.157   1.847 -0.3766  0.2448  2.3826
15542SOL    HW250029   3.559   4.275   1.764 -1.1855 -1.5825 -0.8591
15543SOL     OW50030   0.809   5.593   7.696 -0.5046 -0.4269 -0.2240
15543SOL    HW150031   0.718   5.606   7.669  0.2382 -0.1228 -2.8157
15543SOL    HW250032   0.808   5.513   7.748 -1.9124 -1.9438 -2.4172
15544SOL     OW50033   0.927   9.187   7.627  0.2223 -0.2450  0.4432
15544SOL    HW150034   0.878   9.265   7.655 -1.9839 -0.5455 -2.1375
15544SOL    HW250035   0.861   9.117   7.625  1.6797 -1.6668  0.6213
15545SOL     OW50036   8.315   4.967   3.133  0.3124 -0.2795  0.0564
15545SOL    HW150037   8.381   4.973   3.201  0.0834  0.3637  0.2299
15545SOL    HW250038   8.325   5.048   3.082  0.7434 -0.9227 -0.9134
15546SOL     OW50039   1.266   6.345   3.191 -0.8330 -0.0358  0.0746
15546SOL    HW150040   1.216   6.354   3.110 -0.5811 -0.1800 -0.0966
15546SOL    HW250041   1.236   6.263   3.229  0.7936 -1.2354 -1.0967
15547SOL     OW50042   6.168   0.341   1.025  0.2676 -0.6563 -0.3828
15547SOL    HW150043   6.077   0.326   0.998 -0.1942 -0.0705  0.7901
15547SOL    HW250044   6.191   0.263   1.075  0.0422 -0.3294  0.2352
15548SOL     OW50045   7.583   8.546   3.640  0.0665  0.4304 -0.0933
15548SOL    HW150046   7.515   8.489   3.605  0.2681 -0.2355  0.5738
15548SOL    HW250047   7.628   8.581   3.563  0.3548 -0.8211 -0.5115
15549SOL     OW50048   1.025   3.562   9.887  0.0180  0.1980 -0.3179
15549SOL    HW150049   1.069   3.480   9.908 -1.7684 -0.6156  0.4297
15549SOL    HW250050   0.986   3.547   9.800  1.9271  1.2630 -1.4380
15550SOL     OW50051   9.710   6.197   9.198 -0.2849  0.5279  0.4955
15550SOL    HW150052   9.788   6.211   9.252 -0.3926 -0.2088  0.8490
15550SOL    HW250053   9.653   6.144   9.252 -1.3011  1.5650  0.4720
15551SOL     OW50054   5.026   2.853   4.843 -0.3915  0.6382  0.4070
15551SOL    HW150055   4.941   2.837   4.883 -0.5204 -0.2985 -0.1922
15551SOL    HW250056   5.016   2.822   4.753  0.4613  0.8891  0.2175
15552SOL     OW50057   7.653   1.244   4.084  0.8008  0.2145 -0.0873
15552SOL    HW150058   7.616   1.214   4.167 -0.8951  0.1267 -0.8286
15552SOL    HW250059   7.598   1.203   4.017 -0.9127  3.8845 -1.1836
15553SOL     OW50060   9.477   8.963  10.039  0.4256 -0.2716 -0.1159
15553SOL    HW150061   9.495   9.056  10.021  1.4347 -0.8803 -2.7159
15553SOL    HW250062   9.521   8.946  10.123  0.2213  1.5633  0.4147
15554SOL     OW50063   3.306   8.284   3.147  0.3770 -0.2121  0.1187
15554SOL    HW150064   3.312   8.380   3.152 -0.2719 -0.2142  1.2213
15554SOL    HW250065   3.349   8.262   3.065 -0.1961  1.1065 -0.5751
15555SOL     OW50066   1.855   0.254  10.267  0.1195 -0.1436  0.2245
15555SOL    HW150067   1.865   0.343  10.302 -0.2168 -0.5781  1.4660
15555SOL    HW250068   1.890   0.197  10.335 -0.0613 -0.9963 -0.3811
15556SOL     OW50069  10.750   5.572   2.405 -0.0856  0.4533 -0.0576
15556SOL    HW150070  10.679   5.618   2.359 -0.4730  0.3304  0.4066
15556SOL    HW250071  10.708   5.494   2.440  1.0462 -1.4685 -2.7125
15557SOL     OW50072   8.039   2.804   9.596  0.2112  0.3048  0.5175
15557SOL    HW150073   7.970   2.870   9.588  0.6625  0.7605  0.3290
15557SOL    HW250074   8.105   2.830   9.531 -0.1697 -1.0346 -0.4282
15558SOL     OW50075   3.505   2.191   2.510  0.1233 -0.1242 -0.5537
15558SOL    HW150076   3.491   2.207   2.417  1.1688  0.3819 -0.6448
15558SOL    HW250077   3.600   2.182   2.519  0.0616  0.0629  0.4984
15559SOL     OW50078   3.643   5.101   3.525  0.1793 -0.0130 -0.0501
15559SOL    HW150079   3.549   5.087   3.540  0.2693 -0.5268  0.0643
15559SOL    HW250080   3.680   5.110   3.613  0.3290 -0.4697 -0.0611
15560SOL     OW50081   5.653  10.774   7.771 -0.6294 -0.3349  0.1596
15560SOL    HW150082   5.638  10.849   7.714  1.7632 -1.3186 -1.9829
15560SOL    HW250083   5.645  10.698   7.713  1.0474 -1.4548  1.2975
15561SOL     OW50084   4.705   2.866   0.538  0.2342 -0.0817 -0.8219
15561SOL    HW150085   4.757   2.864   0.458 -1.3386  0.2620 -1.8870
15561SOL    HW250086   4.625   2.913   0.514 -0.0040  0.5888  1.1216
15562SOL     OW50087   7.624   2.734  10.002  0.0287  0.2396 -0.2286
15562SOL    HW150088   7.660   2.694  10.082 -1.3845 -0.4679  0.0936
15562SOL    HW250089   7.690   2.798   9.976  4.1073 -4.2403 -2.5378
15563SOL     OW50090   9.673   1.525   7.487 -0.2892 -0.4604 -0.2604
15563SOL    HW150091   9.629   1.563   7.563  1.3425  1.8451 -0.3467
15563SOL    HW250092   9.607   1.530   7.417 -1.6111 -2.0867  0.7839
15564SOL     OW50093   4.680   0.878   8.088  0.4914 -0.6329 -0.0625
15564SOL    HW150094   4.615   0.924   8.034  0.8635 -0.5213 -0.4261
15564SOL    HW250095   4.656   0.786   8.081  0.7919 -0.6620 -0.7787
15565SOL     OW50096   5.129   1.495   8.122 -0.0387  0.0215 -0.2372
15565SOL    HW150097   5.126   1.420   8.063  0.8908  0.5685 -1.0152
15565SOL    HW250098   5.190   1.469   8.191 -0.4800 -0.3043  0.0336
15566SOL     OW50099   5.470   8.510   9.528  0.4074  0.4683 -0.1227
15566SOL    HW150100   5.436   8.593   9.494  0.5202  0.2756 -0.7208
15566SOL    HW250101   5.561   8.509   9.499  0.3414  0.0296 -0.3236
15567SOL     OW50102   8.791   8.612  10.045  0.2889  0.6946 -0.4647
15567SOL    HW150103   8.806   8.705  10.028  0.0433  0.4781 -2.0260
15567SOL    HW250104   8.710   8.592   9.999  1.5550 -0.8040 -2.1810
15568SOL     OW50105   5.449  10.152   3.834  0.1581 -0.2731  0.4474
15568SOL    HW150106   5.404  10.079   3.790  1.2536 -0.1003 -1.0342
15568SOL    HW250107   5.542  10.134   3.820  0.4583  1.7305 -0.5498
15569SOL     OW50108   4.029   9.026   7.841 -0.6790  0.0028  0.7040
15569SOL    HW150109   4.049   8.948   7.789 -0.1718  0.8581 -0.3910
15569SOL    HW250110   3.934   9.022   7.853 -0.7479 -0.4070  0.0610
15570SOL     OW50111   7.970   6.191   7.310  0.1346  0.1267 -0.0528
15570SOL    HW150112   7.994   6.172   7.401 -0.9005  0.8631  0.3878
15570SOL    HW250113   8.053   6.215   7.269  0.4411  0.9844  1.0119
15571SOL     OW50114   5.410   9.588   4.546  0.3294 -0.6822 -0.6335
15571SOL    HW150115   5.392   9.500   4.515 -0.0955 -0.7922 -0.0949
15571SOL    HW250116   5.334   9.610   4.600  0.5113 -0.0526 -0.6307
15572SOL     OW50117   6.302   6.560   1.817  0.8900 -0.4110 -0.3933
15572SOL    HW150118   6.231   6.522   1.765  2.0650 -2.0689 -0.8548
15572SOL    HW250119   6.358   6.486   1.839  1.6252  0.6033  1.3667
15573SOL     OW50120  10.449   2.302   4.243 -0.2685  0.6282 -1.1524
15573SOL    HW150121  10.406   2.347   4.315 -1.2409  0.3851 -1.5588
15573SOL    HW250122  10.512   2.243   4.285 -1.4308 -0.1476 -0.4334
15574SOL     OW50123   2.759   0.581   0.014 -0.1478  0.4296 -0.6352
15574SOL    HW150124   2.747   0.487   0.004  2.9887 -0.0975 -0.3710
15574SOL    HW250125   2.675   0.613   0.049 -1.2201 -2.2473 -0.5660
15575SOL     OW50126   5.201   2.264   6.575  0.3863  0.5045  0.1680
15575SOL    HW150127   5.179   2.198   6.509  2.4870  0.1905 -0.2781
15575SOL    HW250128   5.123   2.319   6.580 -1.7256 -2.2768  0.9710
15576SOL     OW50129   2.716  10.668  10.074  0.0936 -0.7627 -0.4888
15576SOL    HW150130   2.676  10.632   9.995  0.1232 -0.0453 -0.8387
15576SOL    HW250131   2.806  10.634  10.073 -0.0015 -1.0107 -0.5976
15577SOL     OW50132   6.029   7.359   0.061  0.2768 -0.0075 -0.4566
15577SOL    HW150133   5.961   7.309   0.107  1.1739 -1.4787 -0.6754
15577SOL    HW250134   6.086   7.293   0.023 -0.2510  1.1322 -3.5349
15578SOL     OW50135   3.113   4.004   8.769 -0.1604 -0.1432  0.1901
15578SOL    HW150136   3.132   3.977   8.859 -0.2362 -1.5390 -0.1890
15578SOL    HW250137   3.018   4.010   8.764 -0.2280 -1.3572 -0.1376
15579SOL     OW50138   3.212   8.162   7.658  0.0824  0.4653 -0.5027
15579SOL    HW150139   3.215   8.068   7.640  0.1933  0.6023 -1.2536
15579SOL    HW250140   3.214   8.169   7.753  0.6448 -0.2688 -0.4575
15580SOL     OW50141   9.574   0.425   7.950  0.2389  0.2187 -0.0021
15580SOL    HW150142   9.502   0.473   7.991  1.6490  2.6854 -0.2136
15580SOL    HW250143   9.549   0.333   7.958 -2.8258  0.9504  0.0838
15581SOL     OW50144   0.033   6.484   5.220 -0.1594 -0.2678  0.2165
15581SOL    HW150145   0.095   6.548   5.186 -0.2538  0.0738  0.6788
15581SOL    HW250146   0.082   6.401   5.221 -0.6152 -0.6261 -2.1675
15582SOL     OW50147   2.540   2.380   6.660 -0.4164 -0.7836 -0.1484
15582SOL    HW150148   2.464   2.369   6.716 -0.3493  0.5755  0.2580
15582SOL    HW250149   2.504   2.401   6.574 -0.5255  0.4722  0.1835
15583SOL     OW50150   5.829   3.122   7.781 -0.0229  0.2903  0.0254
15583SOL    HW150151   5.746   3.146   7.740 -0.4021  0.3499  0.8042
15583SOL    HW250152   5.844   3.031   7.752 -0.7357  0.0232  0.4659
15584SOL     OW50153   3.369   4.353   8.691  0.3320  0.4757  0.1322
15584SOL    HW150154   3.284   4.312   8.678 -0.5966  2.3208  0.1723
15584SOL    HW250155   3.372   4.374   8.784 -0.1535  2.3841 -0.2309
15585SOL     OW50156   1.953   7.948   7.213  0.2620  0.1484 -0.2430
15585SOL    HW150157   1.988   8.015   7.272 -0.7666  1.3346 -0.9285
15585SOL    HW250158   1.982   7.975   7.126 -1.8919  0.9277 -0.7863
15586SOL     OW50159   9.548   7.771   7.770  0.0793  0.1271  0.2247
15586SOL    HW150160   9.576   7.720   7.846  1.8716  0.4514 -0.1872
15586SOL    HW250161   9.458   7.741   7.754 -1.1145  1.3596  3.5634
15587SOL     OW50162   6.719   9.913   6.839 -0.5927 -0.0698  0.5225
15587SOL    HW150163   6.782   9.980   6.866 -0.8963  1.5233 -2.3439
15587SOL    HW250164   6.640   9.934   6.888  0.4134 -0.7885  2.5612
15588SOL     OW50165   5.148   4.018   6.554 -0.0564  0.3184 -0.2561
15588SOL    HW150166   5.055   4.026   6.579  0.1029  2.0521 -0.1083
15588SOL    HW250167   5.195   4.019   6.637  0.1107 -0.9018 -0.3103
15589SOL     OW50168   8.032   4.815   9.870 -0.1052 -0.4560 -0.4981
15589SOL    HW150169   8.108   4.783   9.822  0.9341  0.8535  0.2088
15589SOL    HW250170   8.057   4.809   9.962 -2.0198 -2.8300 -0.0125
15590SOL     OW50171   3.729   7.288   8.862 -0.1497 -0.1261  0.2429
15590SOL    HW150172   3.776   7.307   8.781 -1.2484  1.8990  0.0061
15590SOL    HW250173   3.787   7.319   8.932 -0.0163 -0.1029  0.1214
15591SOL     OW50174   7.069   6.907   3.048 -0.3539  0.1407  0.3975
15591SOL    HW150175   6.993   6.951   3.084 -0.8289  0.5338 -1.0161
15591SOL    HW250176   7.086   6.834   3.108 -2.1039 -0.2185  0.5050
15592SOL     OW50177   4.480  10.020   0.399 -0.6600  0.4066 -0.1614
15592SOL    HW150178   4.554  10.045   0.455  0.7732 -0.9433 -1.3344
15592SOL    HW250179   4.504   9.934   0.366 -1.6151  0.9700 -2.5146
15593SOL     OW50180   5.849   9.280   3.380  0.0371  0.0998  0.1862
15593SOL    HW150181   5.907   9.352   3.404 -0.0192  0.2011  0.0223
15593SOL    HW250182   5.856   9.274   3.285  1.4400 -1.2927  0.3419
15594SOL     OW50183  10.763   0.431   2.783 -0.0342 -0.3677 -0.2224
15594SOL    HW150184  10.850   0.454   2.816  0.4303 -1.7880 -0.3927
15594SOL    HW250185  10.707   0.434   2.860  0.1636  0.5411 -0.1076
15595SOL     OW50186  10.898   7.337   2.492 -0.7491 -0.7813  0.2932
15595SOL    HW150187  10.832   7.269   2.504 -0.3139 -1.2986 -0.1854
15595SOL    HW250188  10.848   7.419   2.487 -1.3564 -1.1677 -0.0815
15596SOL     OW50189   5.628   7.218   6.647 -0.0463 -0.1299  0.1938
15596SOL    HW150190   5.596   7.201   6.558  0.8287 -2.3306  0.2414
15596SOL    HW250191   5.711   7.264   6.634 -0.6899  1.0051 -0.0525
15597SOL     OW50192   8.566   3.830   4.571 -0.2086 -0.2615  0.0906
15597SOL    HW150193   8.511   3.907   4.555  0.3900  0.0441 -0.5452
15597SOL    HW250194   8.504   3.762   4.599 -0.8409  0.2256 -0.0925
15598SOL     OW50195   5.043   6.031   2.320 -0.0525 -0.1790  0.5463
15598SOL    HW150196   5.114   5.980   2.359  0.1848  0.4146  0.9081
15598SOL    HW250197   4.967   5.973   2.323  0.7162 -1.3500 -1.1200
15599SOL     OW50198   2.376   8.518   6.637 -0.3495  0.2878 -0.8352
15599SOL    HW150199   2.352   8.427   6.654  2.5436 -0.3115  0.7728
15599SOL    HW250200   2.363   8.562   6.721  2.0797  0.3124 -0.3783
15600SOL     OW50201   8.305   6.902   1.488 -0.1171 -0.1461 -0.3362
15600SOL    HW150202   8.254   6.859   1.419 -1.3741  0.9539 -0.1291
15600SOL    HW250203   8.385   6.850   1.494 -1.0620 -1.7526 -0.8968
15601SOL     OW50204   4.749   6.111   6.508 -0.1493 -0.5106 -0.0623
15601SOL    HW150205   4.778   6.051   6.577 -2.0768  0.6039  1.8372
15601SOL    HW250206   4.811   6.184   6.512  0.4795 -1.0123 -0.3992
15602SOL     OW50207   1.568   3.094   6.792 -0.1850  0.0060  0.7096
15602SOL    HW150208   1.653   3.109   6.834  0.2271 -0.7565  0.1720
15602SOL    HW250209   1.571   3.003   6.763 -1.5440 -0.2997  1.4521
15603SOL     OW50210   8.891   3.514   6.850  0.3515  0.1026  0.3479
15603SOL    HW150211   8.816   3.455   6.861  1.2927 -0.9948  1.0957
15603SOL    HW250212   8.854   3.602   6.860 -0.7894 -0.4291  1.0322
15604SOL     OW50213   6.500   3.838  10.363  0.7037 -0.6106  0.0854
15604SOL    HW150214   6.434   3.906  10.352  1.6189  0.2355 -0.3454
15604SOL    HW250215   6.514   3.833  10.457  0.7503 -0.0771  0.1075
15605SOL     OW50216   4.504   9.078   9.135 -0.2282 -0.2425  0.7422
15605SOL    HW150217   4.443   9.036   9.075 -1.3087  1.4821  0.5690
15605SOL    HW250218   4.468   9.061   9.222 -1.2317  1.0881  0.6235
15606SOL     OW50219   3.939   5.717   0.792 -0.1459 -0.2885  0.8513
15606SOL    HW150220   4.025   5.680   0.809  0.7554  1.2930 -0.0629
15606SOL    HW250221   3.913   5.680   0.708  1.8800  2.8498 -1.3616
15607SOL     OW50222  10.070   1.866   8.507 -0.0183 -0.5709 -0.4017
15607SOL    HW150223  10.101   1.837   8.593  4.8530  0.6235 -1.4579
15607SOL    HW250224  10.054   1.959   8.518 -0.2824 -0.5931 -0.5935
15608SOL     OW50225  10.011   3.367   8.288 -0.3553  0.1806  0.1835
15608SOL    HW150226   9.918   3.352   8.305 -0.9839 -0.7836 -3.2817
15608SOL    HW250227  10.052   3.283   8.309 -0.3472  0.4401  1.2184
15609SOL     OW50228   0.673   2.699  10.897  0.1599 -0.3999  0.1033
15609SOL    HW150229   0.634   2.687  10.810  1.7284  0.1758 -0.7244
15609SOL    HW250230   0.647   2.787  10.923  0.3108 -0.2809 -0.1400
15610SOL     OW50231   8.991  10.602   8.158 -0.0411 -0.4373 -0.5678
15610SOL    HW150232   8.963  10.668   8.222  0.8911  0.4593 -1.0484
15610SOL    HW250233   9.085  10.596   8.170  0.3587  0.6644 -2.6521
15611SOL     OW50234   6.801   2.739   7.259  0.5227  0.1517 -0.2110
15611SOL    HW150235   6.883   2.748   7.212  0.9940 -0.0651  0.5521
15611SOL    HW250236   6.738   2.712   7.192  1.2066 -0.3001 -0.6880
15612SOL     OW50237   5.364   6.403   9.776  0.3414  0.0817 -0.2082
15612SOL    HW150238   5.278   6.362   9.784 -0.1498  0.9609 -0.7103
15612SOL    HW250239   5.395   6.412   9.866 -0.8072  1.1686  0.1094
15613SOL     OW50240   3.613  10.386   4.195  0.3632 -0.3494  0.1782
15613SOL    HW150241   3.546  10.320   4.178  0.8527 -1.2011  1.3943
15613SOL    HW250242   3.696  10.339   4.184  0.7543  0.4880 -0.5260
15614SOL     OW50243   3.777   5.859   5.430 -0.0046  0.4324  0.4627
15614SOL    HW150244   3.748   5.923   5.365  1.1771  0.3259 -0.2029
15614SOL    HW250245   3.710   5.792   5.430 -0.1649  0.5868 -0.4464
15615SOL     OW50246   7.088   5.855   8.452  0.0081 -0.2108 -0.2452
15615SOL    HW150247   7.062   5.911   8.380 -1.7143 -2.0003 -1.0872
15615SOL    HW250248   7.124   5.777   8.410  1.5182 -0.1738  0.8860
15616SOL     OW50249  10.781   1.782  10.534  0.5582  0.5805 -0.0795
15616SOL    HW150250  10.780   1.810  10.626 -0.7110  1.5650 -0.3663
15616SOL    HW250251  10.778   1.863  10.484  0.0745  0.0150 -0.9883
15617SOL     OW50252   3.931   4.846   2.709  0.5841 -0.3965  0.2595
15617SOL    HW150253   3.883   4.895   2.776 -0.9336  2.0955 -2.3713
15617SOL    HW250254   4.022   4.872   2.721  0.3808 -0.2135  1.5129
15618SOL     OW50255   9.023   0.214   8.327 -0.4170 -0.5078  0.0286
15618SOL    HW150256   8.968   0.224   8.250 -0.7993  1.1624  0.4824
15618SOL    HW250257   9.073   0.295   8.331  1.3384 -1.5408  0.2328
15619SOL     OW50258  10.432   4.253   3.014 -0.2364 -0.9093 -0.1225
15619SOL    HW150259  10.507   4.242   3.072 -0.2377  0.4924  0.1973
15619SOL    HW250260  10.462   4.219   2.929  1.3736  0.9883 -0.4192
15620SOL     OW50261   1.929   7.958   1.031 -0.4608  0.1705  0.5472
15620SOL    HW150262   1.882   7.954   1.114 -1.0562  2.2063  0.3696
15620SOL    HW250263   1.997   8.023   1.044 -0.1066 -0.0015 -0.3462
15621SOL     OW50264   1.856   2.809   6.881 -0.6891 -0.0696 -0.1788
15621SOL    HW150265   1.912   2.828   6.806 -1.2565  0.1733 -0.5479
15621SOL    HW250266   1.792   2.881   6.882  0.7558  1.3211  1.9781
15622SOL     OW50267  10.245   2.411   1.152 -0.1857 -0.3012  0.2091
15622SOL    HW150268  10.301   2.339   1.126  1.9483  1.0962  0.6965
15622SOL    HW250269  10.228   2.397   1.245  0.0462 -0.3069  0.2509
15623SOL     OW50270   3.939   1.065   9.061  0.3136  0.0267  0.4268
15623SOL    HW150271   3.945   0.990   9.001  0.2433 -0.4313  0.9805
15623SOL    HW250272   3.893   1.030   9.137  1.8735  0.1527  1.4527
15624SOL     OW50273   6.884   4.046   0.998  1.4345  0.5651  0.8575
15624SOL    HW150274   6.877   3.991   0.920  0.2895  1.7177  0.0997
15624SOL    HW250275   6.969   4.090   0.990  1.6752  0.0739  0.6912
15625SOL     OW50276   1.956   9.385   8.168  0.3044 -0.4740  0.1478
15625SOL    HW150277   2.019   9.380   8.241  0.1714  0.2370  0.3141
15625SOL    HW250278   1.997   9.444   8.105 -0.7570  1.0472  0.8346
15626SOL     OW50279   9.983   3.805   6.769 -0.2443 -0.1145  0.5362
15626SOL    HW150280  10.017   3.760   6.692  1.5604 -0.3361  1.4298
15626SOL    HW250281  10.060   3.838   6.814 -1.2587  0.0023  2.2664
15627SOL     OW50282   7.264  10.475   1.198 -0.6221 -0.4998 -0.2553
15627SOL    HW150283   7.228  10.390   1.169  0.2177 -0.8782 -0.2238
15627SOL    HW250284   7.359  10.461   1.198 -0.5466 -0.3916  2.2821
15628SOL     OW50285   5.619   5.709   2.696  0.2586 -0.2298 -0.4058
15628SOL    HW150286   5.645   5.629   2.741 -0.2096 -0.7730 -1.0970
15628SOL    HW250287   5.576   5.761   2.764  0.3778 -0.6496 -0.0031
15629SOL     OW50288  10.007   2.739   5.111  0.2412 -0.4350  0.4223
15629SOL    HW150289   9.914   2.718   5.102  0.0429  0.3659  0.5009
15629SOL    HW250290  10.051   2.655   5.110 -0.4428 -0.7924 -0.1755
15630SOL     OW50291   5.821   0.491   6.627  0.3138  0.7472 -0.2849
15630SOL    HW150292   5.820   0.414   6.684  0.8018  2.1413  1.7194
15630SOL    HW250293   5.841   0.456   6.540 -2.1142 -1.6654 -0.0086
15631SOL     OW50294  10.053   3.582   0.884  0.2325  0.2760 -0.0457
15631SOL    HW150295  10.022   3.530   0.810  0.7923  0.0525 -0.1278
15631SOL    HW250296   9.993   3.656   0.888 -0.6577 -0.4468  0.1583
15632SOL     OW50297   9.277   4.214   3.216 -0.1738 -0.2805  0.1970
15632SOL    HW150298   9.358   4.228   3.168 -0.0394 -0.3014  0.4190
15632SOL    HW250299   9.214   4.186   3.149 -0.2722  0.7058 -0.1464
15633SOL     OW50300   0.305   5.363   3.339  0.1001 -0.8699 -0.1068
15633SOL    HW150301   0.226   5.411   3.315 -0.0267 -0.8908  0.2610
15633SOL    HW250302   0.293   5.277   3.299  0.1249 -0.7371 -0.3979
15634SOL     OW50303   0.314   6.503   6.979  0.3580  0.0197 -0.2772
15634SOL    HW150304   0.266   6.420   6.979 -0.1712  0.3034  0.8144
15634SOL    HW250305   0.360   6.504   6.895 -0.3393 -0.9632 -0.6951
15635SOL     OW50306   8.486   3.448   5.677 -0.0268 -0.1659  0.1432
15635SOL    HW150307   8.535   3.389   5.619 -0.7538 -0.9695  0.3274
15635SOL    HW250308   8.548   3.518   5.697  0.6191 -0.4811 -0.6680
15636SOL     OW50309   9.883   1.178  10.149  0.8390 -0.0841  0.1336
15636SOL    HW150310   9.818   1.163  10.217 -0.8630 -1.6081 -1.7036
15636SOL    HW250311   9.943   1.241  10.187 -0.3067 -0.4806  2.8328
15637SOL     OW50312   3.851   3.535   2.792  0.3600  0.8757  0.4985
15637SOL    HW150313   3.777   3.481   2.768  1.3326 -0.6969  0.8876
15637SOL    HW250314   3.816   3.597   2.856 -1.3343  2.4325 -1.7915
15638SOL     OW50315   8.789   2.536   0.984 -0.0988  0.2785  0.0555
15638SOL    HW150316   8.694   2.552   0.984  0.1522  1.9543 -0.2742
15638SOL    HW250317   8.802   2.466   1.049 -1.5103  0.2953  0.3875
15639SOL     OW50318   5.890   8.398   3.864  0.2684 -0.0621 -0.1250
15639SOL    HW150319   5.976   8.427   3.834  1.1953 -1.3222  1.2229
15639SOL    HW250320   5.866   8.460   3.932 -0.3874  0.8833 -1.1699
15640SOL     OW50321   5.152   5.199   9.123 -0.4388 -0.0769  0.1156
15640SOL    HW150322   5.058   5.218   9.128 -0.6557 -1.3230  1.7188
15640SOL    HW250323   5.194   5.282   9.145 -1.1987  0.1500  0.7766
15641SOL     OW50324  10.564  10.694   4.694  0.2551  0.4333 -0.6488
15641SOL    HW150325  10.641  10.646   4.665 -0.1607  0.2352 -1.4464
15641SOL    HW250326  10.585  10.786   4.678  0.5066  0.4147 -0.4253
15642SOL     OW50327   6.229  10.252   9.956 -0.0565 -0.1277 -0.0957
15642SOL    HW150328   6.190  10.251  10.043 -0.4726 -1.2068 -0.2837
15642SOL    HW250329   6.180  10.186   9.906  0.8856 -0.3011 -0.8275
15643SOL     OW50330   2.301   9.634   7.383 -0.4114  0.1383 -0.1043
15643SOL    HW150331   2.368   9.701   7.398 -0.1544  0.6322 -2.8735
15643SOL    HW250332   2.219   9.683   7.384 -0.1600  0.7928 -3.0198
15644SOL     OW50333   2.623   2.488   5.730 -0.1663 -0.2145  0.8800
15644SOL    HW150334   2.530   2.465   5.736 -0.1056 -1.0291 -0.8033
15644SOL    HW250335   2.641   2.492   5.636  1.4704  0.0769  1.1807
15645SOL     OW50336   1.713   5.524   5.048  0.0538  0.9508 -0.4922
15645SOL    HW150337   1.689   5.568   4.967 -2.2985  0.9639  0.1376
15645SOL    HW250338   1.633   5.525   5.101  1.2605  0.1557  1.4768
15646SOL     OW50339   5.899   9.698   4.759  0.4166  0.1744 -0.9436
15646SOL    HW150340   5.892   9.644   4.680  0.5853 -0.7666 -0.3275
15646SOL    HW250341   5.954   9.647   4.819 -0.5698  0.3852  0.1886
15647SOL     OW50342   7.743   2.157   4.581  0.3212 -0.2350 -0.1271
15647SOL    HW150343   7.705   2.173   4.667  0.8291  0.8807 -0.0933
15647SOL    HW250344   7.745   2.062   4.574 -1.0582 -0.3447  0.4844
15648SOL     OW50345   0.710   8.742   6.806  0.1450  0.5262  0.5746
15648SOL    HW150346   0.622   8.734   6.768  0.0820  1.5572  0.4994
15648SOL    HW250347   0.710   8.826   6.850  0.5226 -0.2406  2.1116
15649SOL     OW50348   2.470   8.569   0.481  0.4298  0.1997 -0.1742
15649SOL    HW150349   2.416   8.614   0.545 -2.0904 -2.6189 -0.1262
15649SOL    HW250350   2.557   8.567   0.521 -0.3499  1.2132  1.7085
15650SOL     OW50351   4.999   0.250  10.075 -0.6512 -0.5011 -0.0036
15650SOL    HW150352   4.955   0.283   9.996  0.2883  0.3178 -0.2119
15650SOL    HW250353   4.983   0.156  10.074 -0.7081 -0.4979 -1.1586
15651SOL     OW50354   3.593   2.131   6.583  0.0798 -0.3469  0.5549
15651SOL    HW150355   3.558   2.043   6.598  0.6823 -0.4088  1.7283
15651SOL    HW250356   3.688   2.121   6.590  0.1267  0.5220  1.5220
15652SOL     OW50357   9.262   3.886   6.431  0.0492  0.2200 -0.1602
15652SOL    HW150358   9.300   3.966   6.468  0.4661  0.8440 -1.8719
15652SOL    HW250359   9.332   3.849   6.378 -1.0392  0.2566 -1.6777
15653SOL     OW50360   2.730   8.620   3.825  0.1464  0.0290 -0.0642
15653SOL    HW150361   2.723   8.711   3.853  1.1945  0.1886 -0.2514
15653SOL    HW250362   2.792   8.580   3.887  1.4669  0.0524 -1.3127
15654SOL     OW50363   2.809   1.988   8.235 -0.3492  0.5459  0.1727
15654SOL    HW150364   2.870   1.914   8.242  1.6239  2.1607  1.4195
15654SOL    HW250365   2.852   2.058   8.284 -2.8818  2.0570  0.3948
15655SOL     OW50366  10.869   6.440   6.857  0.4020 -0.0072  0.3391
15655SOL    HW150367  10.779   6.470   6.872  0.6362  1.5376 -1.0305
15655SOL    HW250368  10.919   6.520   6.845  1.6804 -0.8757 -0.3741
15656SOL     OW50369   8.481   4.599   7.775  0.0990  0.0895 -0.2382
15656SOL    HW150370   8.516   4.513   7.752  1.6275  0.6802 -0.2218
15656SOL    HW250371   8.492   4.605   7.870 -1.3175 -0.2328 -0.0234
15657SOL     OW50372   4.709   9.207   3.592  0.0583 -0.7755  0.1428
15657SOL    HW150373   4.725   9.118   3.561  0.4355 -0.7349  0.2104
15657SOL    HW250374   4.685   9.257   3.514 -0.6729 -1.0525  0.1854
15658SOL     OW50375   3.719   1.646   4.787  0.1264 -0.1514 -0.4104
15658SOL    HW150376   3.665   1.685   4.857 -0.8224  2.6881 -2.5056
15658SOL    HW250377   3.661   1.582   4.746 -0.4935  0.5009 -0.5788
15659SOL     OW50378   6.472   2.875   0.124 -0.0564 -0.0429  0.3288
15659SOL    HW150379   6.515   2.800   0.167  0.5104 -0.5101 -0.9917
15659SOL    HW250380   6.510   2.952   0.167  0.4773 -0.4884  0.6825
15660SOL     OW50381   9.188   7.667   3.831  0.1416  0.2057 -0.0508
15660SOL    HW150382   9.210   7.593   3.775 -0.9848 -1.0065  1.0502
15660SOL    HW250383   9.127   7.632   3.895 -0.6476  2.1622  0.3516
15661SOL     OW50384   3.151   9.471   3.248 -0.1879  0.6329  0.3466
15661SOL    HW150385   3.235   9.515   3.235  0.4867 -0.4092  0.9812
15661SOL    HW250386   3.106   9.523   3.315  0.7064  0.2398  1.2742
15662SOL     OW50387   5.604   5.597   5.189  0.2279  0.3800 -0.2699
15662SOL    HW150388   5.511   5.576   5.202  0.9977 -1.4890  3.5663
15662SOL    HW250389   5.616   5.681   5.233  0.4328  0.3852 -0.3340
15663SOL     OW50390   2.895   2.394  10.108 -0.0792 -0.0183 -0.2471
15663SOL    HW150391   2.865   2.303  10.100  1.4083 -0.3680 -2.6097
15663SOL    HW250392   2.826   2.445  10.066 -0.4262 -0.1417  0.1624
15664SOL     OW50393   0.891   4.035   2.900  0.0822  0.5173  0.8073
15664SOL    HW150394   0.838   4.027   2.821  1.1553 -1.3103  0.2200
15664SOL    HW250395   0.981   4.047   2.868  0.3518  1.3156  1.7746
15665SOL     OW50396   5.465   6.024   1.612  0.0851  0.1695 -0.4360
15665SOL    HW150397   5.397   5.968   1.576  0.4959 -0.1316 -0.7570
15665SOL    HW250398   5.479   6.091   1.546  0.6720 -0.2477 -0.7494
15666SOL     OW50399   5.590  10.133   6.133  0.0746 -0.1747 -0.7195
15666SOL    HW150400   5.584  10.125   6.229  0.0461 -1.0313 -0.7866
15666SOL    HW250401   5.684  10.132   6.115  0.0715 -0.3393 -0.7270
15667SOL     OW50402   3.152   4.476   3.148  0.4831  0.0852 -0.3212
15667SOL    HW150403   3.171   4.532   3.072 -0.6004  1.8419  0.6248
15667SOL    HW250404   3.059   4.489   3.164  0.3663 -1.4732  0.4026
15668SOL     OW50405   8.179   9.423  10.708  0.1543  0.3482 -0.1405
15668SOL    HW150406   8.085   9.437  10.695 -0.0513  0.0200  0.9199
15668SOL    HW250407   8.217   9.510  10.709 -0.0320  0.4574 -1.2638
15669SOL     OW50408   5.951   8.511   5.730 -0.8231  0.5557  0.3478
15669SOL    HW150409   5.975   8.540   5.818 -1.3402 -1.4552  1.2008
15669SOL    HW250410   5.859   8.537   5.720 -1.4316 -1.0651  1.2992
15670SOL     OW50411  10.281   1.948  10.056  0.0393  0.1525 -0.2589
15670SOL    HW150412  10.332   2.019  10.097  1.2800  0.8192 -2.7168
15670SOL    HW250413  10.347   1.896  10.010 -1.2149 -0.7681 -1.0531
15671SOL     OW50414   7.356   2.219   3.447  0.1073  0.4371  0.2032
15671SOL    HW150415   7.360   2.290   3.383  0.2941  0.1217 -0.1426
15671SOL    HW250416   7.296   2.250   3.514 -1.4569  0.1081 -0.9831
15672SOL     OW50417   8.742   1.166   0.919 -0.2641 -0.0969  0.9102
15672SOL    HW150418   8.781   1.157   1.006  1.2385 -0.6150  0.2116
15672SOL    HW250419   8.806   1.216   0.869 -0.9081 -0.1840 -0.0314
15673SOL     OW50420   8.268   5.299   0.801  0.1051 -0.2971 -0.0659
15673SOL    HW150421   8.217   5.288   0.722 -0.6269  0.8542  0.2334
15673SOL    HW250422   8.308   5.213   0.816  2.4484  0.0976 -3.1195
15674SOL     OW50423   8.288   6.798   3.837 -0.2131  0.3335  0.5548
15674SOL    HW150424   8.225   6.831   3.773  2.5638  1.3883 -1.8966
15674SOL    HW250425   8.333   6.877   3.869  2.0902 -0.5098 -0.3905
15675SOL     OW50426   4.876   9.597  10.242  0.1901  0.3933  0.5374
15675SOL    HW150427   4.948   9.573  10.299  1.2725 -0.9166 -1.2725
15675SOL    HW250428   4.798   9.562  10.285  1.2396 -2.8045  0.0780
15676SOL     OW50429   1.484   3.648   5.769  0.0227 -0.3989 -0.1030
15676SOL    HW150430   1.536   3.657   5.849 -0.8278 -0.3468  0.4622
15676SOL    HW250431   1.393   3.650   5.799 -0.3110 -0.8296 -1.0274
15677SOL     OW50432   3.830   4.814   6.798 -0.2541  0.2394 -0.0472
15677SOL    HW150433   3.756   4.812   6.737  0.0532  1.0440 -0.4582
15677SOL    HW250434   3.867   4.901   6.788 -0.4748  0.5759  1.6308
15678SOL     OW50435   7.218   2.126  10.170  0.4268 -0.2943 -0.0044
15678SOL    HW150436   7.285   2.189  10.196  1.5914 -0.7446 -1.7822
15678SOL    HW250437   7.168   2.172  10.102  0.3304 -0.7554 -0.2438
15679SOL     OW50438   2.065   9.457   3.721 -0.0069  0.0089 -0.1359
15679SOL    HW150439   2.135   9.422   3.664  1.9374  2.1665  0.7824
15679SOL    HW250440   2.108   9.526   3.771 -2.4408  0.2488  1.7506
15680SOL     OW50441   3.156   2.164   6.379 -0.4582 -0.2389 -0.2933
15680SOL    HW150442   3.158   2.086   6.433  0.8053  0.8835  1.3774
15680SOL    HW250443   3.067   2.199   6.389 -0.6088 -0.7212  0.0512
15681SOL     OW50444   4.419   7.340   3.697  0.4739  0.0432  0.0643
15681SOL    HW150445   4.394   7.406   3.632 -0.9124  0.7319  1.2253
15681SOL    HW250446   4.496   7.377   3.740  0.2965  0.4535  0.0387
15682SOL     OW50447   3.211   0.696   9.876 -0.4401  0.3199 -0.3408
15682SOL    HW150448   3.262   0.775   9.860  1.6331 -0.7230  0.6545
15682SOL    HW250449   3.194   0.660   9.788 -0.6739  1.3983 -0.7461
15683SOL     OW50450   9.619  10.607   5.017  0.2879  0.2614  0.1205
15683SOL    HW150451   9.548  10.667   5.040 -0.6794 -0.5520 -0.6464
15683SOL    HW250452   9.644  10.633   4.928 -0.0444 -0.3653 -0.1636
15684SOL     OW50453  10.479   4.630   7.381  0.0813 -0.2204  0.4090
15684SOL    HW150454  10.542   4.583   7.437  1.7288  3.4692  1.9866
15684SOL    HW250455  10.526   4.642   7.299  1.4752  2.1452  1.4384
15685SOL     OW50456   3.440   1.352   9.785 -0.3283  0.2722 -0.0589
15685SOL    HW150457   3.472   1.435   9.820 -0.2315  0.0021  0.4927
15685SOL    HW250458   3.348   1.370   9.764  0.3398  1.3322 -2.5247
15686SOL     OW50459   2.404   8.832   0.888  0.3682 -0.2101  0.8301
15686SOL    HW150460   2.336   8.859   0.950  1.5036  0.5629  1.8094
15686SOL    HW250461   2.406   8.737   0.895 -0.2478 -0.2048  1.1779
15687SOL     OW50462   2.867   9.923   1.751 -0.3284  0.0065 -0.0523
15687SOL    HW150463   2.863  10.013   1.718 -1.1729  0.0428  0.1160
15687SOL    HW250464   2.810   9.923   1.828 -0.8084 -0.8084 -0.3917
15688SOL     OW50465   1.757   0.559   6.510  0.5680  0.1875  0.3001
15688SOL    HW150466   1.772   0.624   6.578  0.0163  0.6624 -0.0181
15688SOL    HW250467   1.826   0.495   6.522 -0.1636 -0.3256  2.0131
15689SOL     OW50468   2.713   0.388   2.778 -0.4308  0.4481 -0.3821
15689SOL    HW150469   2.698   0.294   2.784 -1.7083  0.6379 -0.2039
15689SOL    HW250470   2.698   0.410   2.686 -2.2442  0.7676 -0.0508
15690SOL     OW50471   8.479   1.407   6.935 -0.2337  0.1572  0.1823
15690SOL    HW150472   8.488   1.348   7.010  1.3820  0.1501  0.0346
15690SOL    HW250473   8.522   1.488   6.962  1.9550 -0.4107 -1.2501
15691SOL     OW50474   2.773   1.187  10.793  0.2287 -0.0637  0.2735
15691SOL    HW150475   2.694   1.206  10.843 -0.2938 -2.2745  0.4283
15691SOL    HW250476   2.821   1.123  10.847  0.3228 -1.4768 -1.3855
15692SOL     OW50477   6.488   7.836   5.523 -0.1853  0.1547 -0.1594
15692SOL    HW150478   6.489   7.791   5.438 -0.4620 -0.3699  0.1059
15692SOL    HW250479   6.487   7.929   5.501  1.2212  0.0584 -0.7162
15693SOL     OW50480   9.813   7.941   0.587  0.1141  0.1673 -0.2853
15693SOL    HW150481   9.761   7.971   0.512 -0.5866  1.1242  0.5662
15693SOL    HW250482   9.817   7.846   0.576  0.0691  0.2947 -1.5583
15694SOL     OW50483  10.850   3.747   1.892 -0.2665  0.3203 -0.6298
15694SOL    HW150484  10.789   3.756   1.819 -1.7147  1.2328  0.6414
15694SOL    HW250485  10.888   3.659   1.881 -0.4368  0.4283 -2.4412
15695SOL     OW50486   2.583   0.684   6.571 -0.0745 -0.6938 -0.2122
15695SOL    HW150487   2.625   0.678   6.656 -1.5663  0.3022  0.6479
15695SOL    HW250488   2.588   0.776   6.547 -0.4233 -0.8139 -0.7893
15696SOL     OW50489   5.782   1.220   6.751 -0.5643 -0.2817  0.7953
15696SOL    HW150490   5.773   1.291   6.687 -1.3820 -0.6641  0.4704
15696SOL    HW250491   5.788   1.140   6.697  0.7688 -0.4419  1.1364
15697SOL     OW50492   4.143   2.917   7.943  0.3081  0.2997  0.0735
15697SOL    HW150493   4.211   2.945   8.004 -0.5855  0.3437  1.0853
15697SOL    HW250494   4.072   2.887   7.999 -0.4833  0.1909 -0.9583
15698SOL     OW50495   3.366   1.235   5.029  0.0006 -0.3282 -0.4401
15698SOL    HW150496   3.362   1.228   5.124  0.3432 -1.0953 -0.4806
15698SOL    HW250497   3.274   1.230   5.001  0.0365 -2.5123 -0.2995
15699SOL     OW50498   2.358   4.616   7.134  0.1956 -0.5150  0.1127
15699SOL    HW150499   2.370   4.603   7.228  1.0751 -1.1953 -0.0728
15699SOL    HW250500   2.329   4.706   7.126 -2.3754 -1.1444  1.2025
15700SOL     OW50501  10.814   6.010  10.551  0.3062 -0.0596  0.9110
15700SOL    HW150502  10.779   6.090  10.590 -1.5896 -0.2398 -0.3324
15700SOL    HW250503  10.886   5.985  10.610  0.4556  2.1059  1.7447
15701SOL     OW50504   2.136   1.519   3.160 -0.2579  0.3459  0.0081
15701SOL    HW150505   2.227   1.506   3.184 -0.2790 -0.7361 -0.4194
15701SOL    HW250506   2.120   1.454   3.091 -1.2348  0.7957 -0.2120
15702SOL     OW50507   3.310   1.822  10.593 -0.1781  0.6206  0.3364
15702SOL    HW150508   3.225   1.781  10.609 -0.4602  0.9242 -0.3608
15702SOL    HW250509   3.372   1.767  10.640 -0.6401 -0.1627  0.0469
15703SOL     OW50510   9.167   1.785   4.468 -0.1621 -0.4386 -0.1171
15703SOL    HW150511   9.107   1.736   4.525 -0.0722 -1.3454 -0.7888
15703SOL    HW250512   9.110   1.844   4.419 -0.5329 -1.3636 -0.8199
15704SOL     OW50513   1.822   0.332   7.051 -0.1602 -0.5208 -0.0887
15704SOL    HW150514   1.853   0.242   7.046 -2.4078 -1.3290 -1.2121
15704SOL    HW250515   1.726   0.323   7.056 -0.3904  1.7894  0.5273
15705SOL     OW50516   9.935   3.642   2.374 -0.1716 -0.3581 -0.4191
15705SOL    HW150517   9.976   3.570   2.326 -0.0777 -0.6518  0.0945
15705SOL    HW250518   9.996   3.661   2.446  0.6872  1.4345 -1.5582
15706SOL     OW50519   3.874   4.874   7.072  0.7124  0.1870  0.0387
15706SOL    HW150520   3.783   4.846   7.084  0.3065  0.7952 -1.3825
15706SOL    HW250521   3.887   4.872   6.977  1.0934  3.3793 -0.0768
15707SOL     OW50522   6.263   4.145   3.186 -0.7052  0.3941  0.3150
15707SOL    HW150523   6.220   4.080   3.130 -0.9456 -1.1036  2.1476
15707SOL    HW250524   6.201   4.217   3.190 -1.2759 -0.0430 -0.2644
15708SOL     OW50525   0.261  10.684   6.569  0.1148  0.3936 -0.0443
15708SOL    HW150526   0.189  10.734   6.531 -0.5402 -0.4884  0.0006
15708SOL    HW250527   0.226  10.649   6.651  0.8266  0.5351  0.3288
15709SOL     OW50528   8.986   0.190  10.500  0.2865  0.0878 -0.1337
15709SOL    HW150529   9.049   0.193  10.427 -0.1069 -0.1555 -0.4894
15709SOL    HW250530   8.957   0.099  10.502 -1.2250  0.5023 -0.9930
15710SOL     OW50531  10.053   5.185   8.344 -0.1606 -0.6266 -0.3774
15710SOL    HW150532   9.965   5.186   8.382 -0.2202  1.2883 -0.4555
15710SOL    HW250533  10.077   5.092   8.341 -1.9210 -1.1419  0.2106
15711SOL     OW50534   5.135   5.263   1.430  0.7577 -0.1451 -0.4844
15711SOL    HW150535   5.132   5.355   1.403 -0.1831 -0.1347 -0.3690
15711SOL    HW250536   5.103   5.263   1.520 -1.9681 -0.8823 -1.3661
15712SOL     OW50537   2.918   8.510   4.002  0.0115  0.4339 -0.4697
15712SOL    HW150538   2.919   8.441   3.936  1.2268  0.2896 -0.3257
15712SOL    HW250539   2.999   8.497   4.052 -0.1831  1.4123  0.1375
15713SOL     OW50540   5.400   7.626   5.464 -0.1759 -0.2921  0.3838
15713SOL    HW150541   5.404   7.563   5.536 -0.2343 -0.9626 -0.1857
15713SOL    HW250542   5.345   7.584   5.398  1.9960 -0.8908 -1.1624
15714SOL     OW50543   2.577   8.525   7.627  0.0782  0.3687  0.2451
15714SOL    HW150544   2.642   8.581   7.670  0.7655  0.5692 -1.0248
15714SOL    HW250545   2.533   8.582   7.565  1.2053 -0.6000 -1.5161
15715SOL     OW50546   4.308   5.622  10.330  0.7382  0.0605 -0.3334
15715SOL    HW150547   4.373   5.651  10.266  1.7690  0.6683  0.9704
15715SOL    HW250548   4.276   5.538  10.295  1.3618  0.3207 -1.5746
15716SOL     OW50549   6.260   2.452  10.735 -0.1212 -0.1007  0.0465
15716SOL    HW150550   6.233   2.360  10.733 -0.5124  0.0000  0.4465
15716SOL    HW250551   6.305   2.462  10.819  1.0238 -0.2202 -0.5272
15717SOL     OW50552   3.029   7.978   3.571  0.4404  0.7437 -0.5141
15717SOL    HW150553   3.014   7.980   3.665 -1.3287  1.2016 -0.7859
15717SOL    HW250554   2.943   7.992   3.531  0.9299 -0.6208 -2.2177
15718SOL     OW50555   9.909  10.772   7.389 -0.5108  0.2556  0.2212
15718SOL    HW150556   9.899  10.744   7.298  0.0462  1.1902 -0.1449
15718SOL    HW250557   9.917  10.867   7.384 -1.0108  0.3681  1.3007
15719SOL     OW50558   9.584   0.006   4.248  0.1513  0.5938 -0.0479
15719SOL    HW150559   9.601  -0.088   4.255  2.9362  1.0027 -0.3379
15719SOL    HW250560   9.490   0.012   4.229 -0.3822 -2.0356  1.3089
15720SOL     OW50561   4.084   4.448   4.376 -0.4163 -0.1605 -0.2285
15720SOL    HW150562   4.105   4.369   4.425  1.1989  0.5692  0.3367
15720SOL    HW250563   4.127   4.518   4.425 -0.9818  0.9406 -1.2587
15721SOL     OW50564   6.367   2.249   6.623 -0.0843  0.1809  0.0675
15721SOL    HW150565   6.413   2.218   6.701 -1.3338 -0.7622  0.4558
15721SOL    HW250566   6.398   2.192   6.553  2.0799  1.8806 -0.4911
15722SOL     OW50567   6.903   5.402   3.028  0.0199 -0.1362 -0.5622
15722SOL    HW150568   6.952   5.343   3.084 -0.3825  0.4705  0.4487
15722SOL    HW250569   6.812   5.376   3.038 -0.0912  0.2058 -0.6541
15723SOL     OW50570   2.055   1.311   1.801  0.3565 -0.5059 -0.2328
15723SOL    HW150571   1.960   1.304   1.804  0.3617 -0.4238  0.1930
15723SOL    HW250572   2.073   1.389   1.749  0.2030 -0.8682 -0.8324
15724SOL     OW50573   0.662   7.463   2.329 -0.1388  0.3302  0.0649
15724SOL    HW150574   0.740   7.498   2.284 -0.6814 -0.5778 -1.6716
15724SOL    HW250575   0.599   7.449   2.259 -1.3419 -0.3827  1.2585
15725SOL     OW50576   2.373   2.308   6.941  0.4479 -0.1868 -0.3844
15725SOL    HW150577   2.391   2.227   6.990  0.5458  0.6317  0.9779
15725SOL    HW250578   2.282   2.299   6.912  0.9268 -1.4481 -1.5815
15726SOL     OW50579   6.531   9.915  10.590  0.1398 -0.3281  0.0767
15726SOL    HW150580   6.589   9.854  10.635 -0.6886 -0.0495  1.5862
15726SOL    HW250581   6.521   9.988  10.650 -1.0398  0.0423 -0.5380
15727SOL     OW50582   3.329  10.427   6.192 -0.0465 -0.0964  0.0632
15727SOL    HW150583   3.325  10.346   6.141 -0.2424 -0.8754  1.2852
15727SOL    HW250584   3.419  10.458   6.180 -0.2630  0.0695 -1.2350
15728SOL     OW50585   8.652  10.761   1.232 -0.0923  0.2827 -0.2747
15728SOL    HW150586   8.630  10.761   1.139 -1.9703 -0.0163  0.1333
15728SOL    HW250587   8.598  10.692   1.270 -3.2338  3.5551  1.8362
15729SOL     OW50588   0.709   2.945   6.957  0.1732  0.1703 -0.4759
15729SOL    HW150589   0.696   2.873   7.019  1.9526  0.5510  0.3880
15729SOL    HW250590   0.642   2.931   6.890  0.5412 -2.3861 -0.4026
15730SOL     OW50591   6.967   2.358   2.194 -0.0666 -0.1237 -0.1118
15730SOL    HW150592   6.916   2.361   2.112 -0.7514  0.2741  0.3177
15730SOL    HW250593   7.027   2.285   2.182  0.5123  0.5195 -1.3585
15731SOL     OW50594   4.470   7.509   7.860  0.3958  0.6064 -0.3646
15731SOL    HW150595   4.434   7.458   7.787 -0.2930 -0.0843  0.4397
15731SOL    HW250596   4.540   7.454   7.895  0.0280  0.4726  0.1532
15732SOL     OW50597   2.141   6.794   4.869 -0.5086  0.4388 -0.2467
15732SOL    HW150598   2.130   6.877   4.915  3.4959  0.7657  0.5036
15732SOL    HW250599   2.171   6.819   4.782  0.4964 -0.1893 -0.0935
15733SOL     OW50600   4.629   6.014   5.642 -0.1219 -0.0566 -0.2898
15733SOL    HW150601   4.594   6.024   5.553  1.9998  1.1505 -1.0538
15733SOL    HW250602   4.637   6.104   5.674 -0.5846 -0.4713  1.0463
15734SOL     OW50603   7.225  10.162   5.611  0.1904  0.5062  0.0497
15734SOL    HW150604   7.216  10.149   5.705  1.0317  0.3852  0.1202
15734SOL    HW250605   7.194  10.080   5.572  0.0739  0.4628  0.2315
15735SOL     OW50606   0.893   8.855   0.553 -0.2391  0.4337  0.2611
15735SOL    HW150607   0.804   8.826   0.533 -0.5852  1.2717  0.5455
15735SOL    HW250608   0.949   8.794   0.506 -0.9710  0.1054 -0.2045
15736SOL     OW50609   7.473   7.583  10.192  0.2447 -0.6127 -0.3898
15736SOL    HW150610   7.465   7.583  10.097 -1.7482  1.9848 -0.3194
15736SOL    HW250611   7.432   7.665  10.220  3.0145 -0.0157  2.5574
15737SOL     OW50612   3.904   3.156  10.531 -0.1890 -0.2039  0.2792
15737SOL    HW150613   3.829   3.201  10.570 -1.4039 -1.9197  0.0343
15737SOL    HW250614   3.956   3.127  10.606  0.5376  1.4223  0.4410
15738SOL     OW50615  10.218   9.882   6.747 -0.5054  0.2364  0.0954
15738SOL    HW150616  10.230   9.951   6.683 -2.2065 -0.8474 -1.4874
15738SOL    HW250617  10.254   9.917   6.828  3.9220  0.8086 -1.8654
15739SOL     OW50618   4.782   3.071   4.101 -0.8075  0.5668  0.1653
15739SOL    HW150619   4.803   2.977   4.098 -0.3264  0.6609  0.5809
15739SOL    HW250620   4.758   3.088   4.192 -0.1895  0.9947  0.2545
15740SOL     OW50621   2.291  10.725   9.434 -0.0532  0.2687 -0.3253
15740SOL    HW150622   2.233  10.656   9.403  0.0321  0.1398 -0.1946
15740SOL    HW250623   2.233  10.800   9.447  0.4872  1.9919 -5.5527
15741SOL     OW50624   1.182   4.350   0.789  0.4619  0.0531 -0.4708
15741SOL    HW150625   1.114   4.392   0.842  0.7321  0.9158 -0.7865
15741SOL    HW250626   1.157   4.258   0.786 -0.1222  0.1761  0.2831
15742SOL     OW50627   4.492   1.868   2.987  0.5745 -0.0281 -0.3054
15742SOL    HW150628   4.514   1.805   3.056  1.1438 -0.3056 -0.7289
15742SOL    HW250629   4.573   1.918   2.975 -0.3431  1.9893  1.2429
15743SOL     OW50630   0.618   6.829   3.798 -0.4523  0.4916 -0.5086
15743SOL    HW150631   0.689   6.773   3.766 -0.9468  0.6601 -1.9659
15743SOL    HW250632   0.539   6.790   3.761 -1.0126  0.9446  0.1958
15744SOL     OW50633   7.117   4.247   1.862 -0.9139  0.0773 -0.1642
15744SOL    HW150634   7.156   4.192   1.793  1.2853 -0.4905  1.4314
15744SOL    HW250635   7.062   4.186   1.912  0.4349 -0.4485  0.7629
15745SOL     OW50636   6.068   5.731  10.725  0.4009 -0.0182 -0.7313
15745SOL    HW150637   5.999   5.682  10.681  0.1406 -2.0184  1.6553
15745SOL    HW250638   6.148   5.679  10.712  0.8398  0.7110 -0.9974
15746SOL     OW50639   4.693   9.374   8.715  0.4418 -0.8837 -0.5778
15746SOL    HW150640   4.764   9.352   8.775 -0.3803 -1.1957  0.3032
15746SOL    HW250641   4.707   9.466   8.694 -0.0583 -0.3583  1.2316
15747SOL     OW50642   8.040   7.278   3.648  0.0749  0.3100  0.2096
15747SOL    HW150643   8.124   7.251   3.609 -1.2672 -1.1385 -1.9097
15747SOL    HW250644   8.004   7.196   3.683 -1.6111  0.3181 -1.3546
15748SOL     OW50645   2.835   0.551   6.425 -0.4853  0.4647  0.5403
15748SOL    HW150646   2.744   0.581   6.432  0.0637  2.1772  0.8104
15748SOL    HW250647   2.854   0.554   6.331 -1.2618 -1.7640  0.2609
15749SOL     OW50648   1.574   0.536   5.320 -0.2509  0.0477  0.1875
15749SOL    HW150649   1.599   0.566   5.407 -0.9584 -0.1235  0.4632
15749SOL    HW250650   1.489   0.577   5.304  0.6067  1.3791 -1.1178
15750SOL     OW50651   4.899   2.835   5.805 -0.2032 -0.2963  0.8443
15750SOL    HW150652   4.971   2.782   5.772 -0.7350 -2.0474  2.3706
15750SOL    HW250653   4.828   2.821   5.742  0.4542  0.6940 -0.1512
15751SOL     OW50654   3.931   8.071   9.663 -0.3122  0.3417  0.2587
15751SOL    HW150655   3.997   8.027   9.610 -2.2589  0.6714 -2.6693
15751SOL    HW250656   3.867   8.003   9.684 -1.7095  1.0225 -1.5692
15752SOL     OW50657   6.244  10.540   6.554 -0.4819 -0.1416 -0.1776
15752SOL    HW150658   6.296  10.613   6.519 -1.6497  0.1734 -1.3215
15752SOL    HW250659   6.154  10.565   6.536 -0.9868 -1.1589  0.8523
15753SOL     OW50660  10.128   0.885   6.403  0.3406  0.5283  0.3544
15753SOL    HW150661  10.165   0.973   6.402 -1.7631  1.4565  0.1236
15753SOL    HW250662  10.107   0.868   6.494  0.4843  0.3665  0.3590
15754SOL     OW50663   3.976   5.639   0.493  0.1723 -0.4891 -0.0027
15754SOL    HW150664   4.029   5.701   0.442  0.0263 -1.1362 -0.9562
15754SOL    HW250665   3.978   5.558   0.442 -2.5647 -0.2612 -0.6182
15755SOL     OW50666   9.336  10.244   2.700 -0.1380  0.0591 -0.5946
15755SOL    HW150667   9.376  10.170   2.653 -0.5119 -0.1344 -0.6090
15755SOL    HW250668   9.246  10.247   2.669 -0.6374 -0.5859  0.6933
15756SOL     OW50669  10.197   6.423   5.134 -0.4995  0.4760 -0.0251
15756SOL    HW150670  10.216   6.332   5.111  0.6180  1.0322 -1.4677
15756SOL    HW250671  10.107   6.422   5.165 -0.7134 -1.0184 -0.6232
15757SOL     OW50672   8.759   6.717   6.987  0.2751  0.4843  0.2158
15757SOL    HW150673   8.759   6.686   7.078  0.8807 -0.1685 -0.0009
15757SOL    HW250674   8.667   6.711   6.960  0.2795 -0.5096  0.3890
15758SOL     OW50675   9.061  10.561  10.278  0.2810 -0.0051 -0.0185
15758SOL    HW150676   8.990  10.509  10.240 -1.1447  0.6298  1.6590
15758SOL    HW250677   9.047  10.649  10.242 -0.7580  0.4754  1.4771
15759SOL     OW50678   2.894   3.484   8.802 -0.0837  0.1616  0.0380
15759SOL    HW150679   2.829   3.496   8.872 -0.3752 -0.5921 -0.0966
15759SOL    HW250680   2.945   3.408   8.830 -0.6681 -0.6069 -0.9089
15760SOL     OW50681   7.759   7.925   8.776 -0.0564  1.1225 -0.4876
15760SOL    HW150682   7.716   7.881   8.702  0.4290 -0.5449  0.1779
15760SOL    HW250683   7.853   7.919   8.756  0.0453  1.3167 -0.0749
15761SOL     OW50684   7.593   3.849   3.100 -0.4720 -0.0676  0.3606
15761SOL    HW150685   7.572   3.923   3.043  0.1980  0.6835  1.0722
15761SOL    HW250686   7.508   3.816   3.128 -0.7749  0.6669  0.3295
15762SOL     OW50687   0.323   6.290   0.862  0.2974 -0.0369  0.2577
15762SOL    HW150688   0.341   6.244   0.780 -0.3752 -1.2136  0.7436
15762SOL    HW250689   0.361   6.233   0.930  1.4917  1.2693  0.7356
15763SOL     OW50690   9.176   3.831   5.548 -0.6567 -0.0527 -0.0552
15763SOL    HW150691   9.158   3.833   5.642 -0.0319  2.4560  0.0800
15763SOL    HW250692   9.268   3.806   5.541  0.2680  2.8516  0.2962
15764SOL     OW50693   7.703   0.088   0.803  0.2085 -0.5891 -0.0568
15764SOL    HW150694   7.660   0.036   0.736 -0.0129 -1.2013  0.5517
15764SOL    HW250695   7.633   0.140   0.842  0.5977  1.0574 -1.4228
15765SOL     OW50696   3.684  10.569   4.912  0.3948  0.1829  0.2669
15765SOL    HW150697   3.649  10.549   4.999 -0.3319 -0.1413 -0.0922
15765SOL    HW250698   3.665  10.662   4.898  0.2534  0.1634  0.3343
15766SOL     OW50699   6.187   2.748   7.595  0.3473  0.2360  0.2320
15766SOL    HW150700   6.255   2.681   7.594  0.4068  0.2868  0.7002
15766SOL    HW250701   6.195   2.792   7.510  2.6057  1.9702  1.2527
15767SOL     OW50702   5.028  10.459   8.105 -0.2947  0.6353  0.6038
15767SOL    HW150703   5.048  10.537   8.157 -0.0226  0.7667  0.3101
15767SOL    HW250704   5.030  10.490   8.015  1.6641 -0.0591  0.3456
15768SOL     OW50705   4.359   4.974   6.002 -0.4855 -0.4125  0.4010
15768SOL    HW150706   4.353   5.015   6.088  2.2433 -2.4140  1.7122
15768SOL    HW250707   4.443   4.928   6.004 -0.4167 -0.7164 -3.2953
15769SOL     OW50708   9.958   8.067   9.354  0.3213  0.1241  0.1317
15769SOL    HW150709   9.948   8.158   9.326 -0.5049  0.0252  0.0854
15769SOL    HW250710   9.989   8.021   9.276 -3.0689 -0.3776 -1.0810
15770SOL     OW50711  10.487   6.547   0.559 -0.3459 -0.3694 -0.4557
15770SOL    HW150712  10.445   6.578   0.639 -2.1923  1.3604 -2.0001
15770SOL    HW250713  10.535   6.468   0.586 -1.0546  0.0437  2.2787
15771SOL     OW50714   4.616   8.037   9.900  0.1415 -0.2073 -0.3797
15771SOL    HW150715   4.556   7.982   9.851 -2.2115  0.9398  1.0657
15771SOL    HW250716   4.669   8.081   9.833 -2.3064  0.6012 -1.8947
15772SOL     OW50717   7.100   3.711   7.594  0.2639 -0.0570 -0.1108
15772SOL    HW150718   7.027   3.685   7.538  0.0827 -0.9684  0.5340
15772SOL    HW250719   7.172   3.654   7.568  0.5196  0.2971 -0.1913
15773SOL     OW50720   5.146   9.937   5.479 -0.1908  0.3614 -0.4331
15773SOL    HW150721   5.212   9.975   5.421 -0.3764  0.4386 -0.5950
15773SOL    HW250722   5.196   9.880   5.538 -0.0285  0.0852 -0.8295
15774SOL     OW50723   7.234  10.239   4.102 -0.4046 -0.4690  0.1551
15774SOL    HW150724   7.259  10.147   4.102  0.4155 -0.2568 -0.1569
15774SOL    HW250725   7.144  10.239   4.067 -0.3869 -1.1347  0.0902
15775SOL     OW50726   7.883   0.808   4.143 -1.2262  0.0611  0.1074
15775SOL    HW150727   7.912   0.876   4.082 -2.8571  0.1998 -0.5466
15775SOL    HW250728   7.963   0.758   4.162 -0.6925 -0.1732 -2.3634
15776SOL     OW50729   5.318   9.950   6.713  0.0579 -0.0665  0.8240
15776SOL    HW150730   5.281  10.003   6.785 -0.5482 -0.2783  0.6776
15776SOL    HW250731   5.250   9.951   6.646 -0.3847 -1.8404  1.2078
15777SOL     OW50732   0.658   4.369   3.322 -0.2755 -0.2035 -0.1705
15777SOL    HW150733   0.576   4.322   3.309 -1.2831  1.4825 -0.2591
15777SOL    HW250734   0.636   4.440   3.382  1.3416 -0.2345  0.5086
15778SOL     OW50735   0.556   4.599   8.544  0.2581 -0.1664 -0.3184
15778SOL    HW150736   0.649   4.591   8.527  0.4848 -1.2195  1.1929
15778SOL    HW250737   0.530   4.514   8.578 -0.9072  0.5703  0.7581
15779SOL     OW50738   8.069   1.273   3.924  0.9110  0.1024 -0.7303
15779SOL    HW150739   7.988   1.323   3.926 -0.1215 -1.3979 -2.3166
15779SOL    HW250740   8.042   1.183   3.908  2.9224 -0.1632 -3.5545
15780SOL     OW50741   6.903   6.108   3.454 -0.3724  0.0984  0.0703
15780SOL    HW150742   6.938   6.024   3.423 -0.1260 -0.5819  2.0483
15780SOL    HW250743   6.973   6.170   3.439 -0.3523 -0.1575 -0.9227
15781SOL     OW50744   1.636   5.371   4.190 -0.1004 -0.5698  0.2730
15781SOL    HW150745   1.688   5.447   4.164 -0.2157 -1.2563 -2.2532
15781SOL    HW250746   1.641   5.370   4.285  0.3904  2.2344  0.3562
15782SOL     OW50747   5.630   4.476   0.683 -0.2901 -0.0146 -0.6768
15782SOL    HW150748   5.667   4.425   0.755  1.1552  2.0794  0.1413
15782SOL    HW250749   5.536   4.472   0.697 -0.1498 -1.3186  0.1160
15783SOL     OW50750   1.265   7.459   8.001 -0.1386  0.4298 -0.4929
15783SOL    HW150751   1.304   7.373   8.018 -0.8165  0.0202 -0.9421
15783SOL    HW250752   1.173   7.448   8.022 -0.0878  1.2827  0.2011
15784SOL     OW50753   9.094   0.790   4.538 -0.1703  0.2216  0.3174
15784SOL    HW150754   9.090   0.806   4.444  2.0743 -1.6104 -0.1732
15784SOL    HW250755   9.183   0.813   4.563  0.0064 -1.5121  1.5083
15785SOL     OW50756   4.750   7.537   7.096  0.3325  0.3715 -0.0039
15785SOL    HW150757   4.666   7.578   7.077  0.1458  0.0915  0.2046
15785SOL    HW250758   4.732   7.479   7.171  0.7297  0.3820  0.1016
15786SOL     OW50759   8.551   6.805   5.843  0.8685  0.2433 -0.3386
15786SOL    HW150760   8.620   6.747   5.809  1.0085  1.9424 -3.3471
15786SOL    HW250761   8.599   6.874   5.888  0.9683  0.1178 -0.2512
15787SOL     OW50762   5.385   8.716   9.380  0.2586  0.3900 -0.4448
15787SOL    HW150763   5.439   8.788   9.347  3.6429 -1.8946 -0.4344
15787SOL    HW250764   5.351   8.674   9.301 -0.7188  1.2441 -0.4947
15788SOL     OW50765   4.320   4.295   7.077 -0.1247  0.5504 -0.4089
15788SOL    HW150766   4.408   4.304   7.113 -0.5094 -1.1026  1.0930
15788SOL    HW250767   4.333   4.255   6.991  0.5619 -0.4576  0.1485
15789SOL     OW50768   9.654  10.510   6.611 -0.3837  0.0063 -0.8740
15789SOL    HW150769   9.672  10.421   6.583 -0.5223  0.2083 -1.6282
15789SOL    HW250770   9.579  10.503   6.669 -0.3476 -0.3755 -0.8733
15790SOL     OW50771   2.988   3.905   6.380  0.3965  0.3745  0.5402
15790SOL    HW150772   2.917   3.842   6.387 -2.0578  2.7152 -1.0486
15790SOL    HW250773   2.979   3.961   6.457  1.1206  0.1664  0.7864
15791SOL     OW50774   0.312   3.062   0.310 -0.2409 -0.2011 -0.5887
15791SOL    HW150775   0.330   3.106   0.227  0.4993  1.2651  0.2861
15791SOL    HW250776   0.371   3.105   0.372 -0.2000 -1.8071  0.5408
15792SOL     OW50777   8.128  10.467   8.789 -0.3997  0.5782  0.2074
15792SOL    HW150778   8.108  10.391   8.734 -0.5685  1.1992 -0.6049
15792SOL    HW250779   8.200  10.510   8.743  0.4341  0.3146  1.2418
15793SOL     OW50780   5.042   6.965   0.204  0.4818 -0.0588  0.3927
15793SOL    HW150781   4.959   6.955   0.158  0.1312 -0.5929  1.1302
15793SOL    HW250782   5.055   7.060   0.211 -1.7127  0.1746  3.1398
15794SOL     OW50783   7.716   6.646  10.803  0.0703 -0.2827 -0.1230
15794SOL    HW150784   7.630   6.609  10.823  1.7150 -3.7015  1.5983
15794SOL    HW250785   7.733   6.623  10.712 -0.4674 -0.4542 -0.1780
15795SOL     OW50786  10.254   8.340   1.830 -0.1386  0.1961 -0.8541
15795SOL    HW150787  10.167   8.326   1.792  0.3925 -0.7944 -1.7747
15795SOL    HW250788  10.313   8.288   1.774  0.9382  0.2223  0.2159
15796SOL     OW50789   4.391   6.125   3.582  0.1067  0.5099 -0.1566
15796SOL    HW150790   4.329   6.069   3.629 -0.2363 -0.1662 -1.3672
15796SOL    HW250791   4.477   6.101   3.618  0.0586 -1.3643 -1.1520
15797SOL     OW50792   0.261   8.268   5.695 -0.1784  1.1305 -0.3954
15797SOL    HW150793   0.335   8.226   5.739 -1.2966  1.5485  2.1224
15797SOL    HW250794   0.200   8.196   5.677  0.5299  0.8781 -1.8435
15798SOL     OW50795   2.283   1.645   7.210 -0.0609 -0.1473 -0.0730
15798SOL    HW150796   2.361   1.692   7.182  0.0050 -0.2322 -0.0289
15798SOL    HW250797   2.314   1.583   7.276  0.0034 -0.9727 -0.8715
15799SOL     OW50798   4.136   4.922   7.748 -0.1294 -0.8178 -0.0796
15799SOL    HW150799   4.125   4.873   7.667  1.6254  0.9485 -1.4733
15799SOL    HW250800   4.223   4.962   7.740 -1.1736  1.9156  1.2633
15800SOL     OW50801   8.532  10.019   9.380  0.0639  0.3664  0.1710
15800SOL    HW150802   8.568   9.934   9.406 -0.9488  0.3430  1.6770
15800SOL    HW250803   8.608  10.071   9.354  0.7991 -0.7028  0.1213
15801SOL     OW50804   7.771   1.283   2.780 -0.6263 -0.6105 -0.3742
15801SOL    HW150805   7.675   1.282   2.785 -0.6640 -0.3359 -0.9360
15801SOL    HW250806   7.798   1.197   2.813 -0.9579  0.0032  1.6160
15802SOL     OW50807   0.552   5.572   7.585 -0.1224  0.1878 -0.2667
15802SOL    HW150808   0.502   5.653   7.574 -0.9403  0.2778  3.1765
15802SOL    HW250809   0.488   5.508   7.613  1.3190 -0.1322  2.6185
15803SOL     OW50810   6.670   7.871   9.614 -0.2417 -0.0856 -0.5135
15803SOL    HW150811   6.676   7.839   9.524  0.6883  3.4549 -1.8868
15803SOL    HW250812   6.595   7.931   9.614  0.2821  0.6184  0.8396
15804SOL     OW50813   1.222   2.090   2.489 -0.3470 -0.0206  0.5287
15804SOL    HW150814   1.127   2.085   2.492 -0.2708 -1.7743  1.7360
15804SOL    HW250815   1.251   1.999   2.501  1.4671  0.7773  3.0631
15805SOL     OW50816   7.949   3.290   6.073 -0.4976 -0.0491 -1.0458
15805SOL    HW150817   7.863   3.295   6.031 -1.4631 -0.9770  0.6859
15805SOL    HW250818   7.991   3.373   6.052 -1.1136 -0.2456 -3.3389
15806SOL     OW50819   3.461   8.162   9.083  0.1225  0.0642 -0.0668
15806SOL    HW150820   3.499   8.082   9.047  1.8879  1.3401 -1.1736
15806SOL    HW250821   3.405   8.196   9.013  0.7862  0.7112 -0.2939
15807SOL     OW50822   7.867   7.915  10.734 -0.0408  0.3577  0.5886
15807SOL    HW150823   7.808   7.985  10.760  0.0890 -0.0548  2.0960
15807SOL    HW250824   7.915   7.950  10.659 -1.3935  1.1089  0.0373
15808SOL     OW50825   6.702   0.741   4.012 -0.1436  0.0679 -0.0651
15808SOL    HW150826   6.713   0.669   3.949  1.6934  0.0849  0.1843
15808SOL    HW250827   6.693   0.819   3.957 -1.5843 -0.2451 -0.3256
15809SOL     OW50828  10.151   5.267   5.418  0.1025 -0.1260  0.7144
15809SOL    HW150829  10.151   5.247   5.512  0.4367  2.1505  1.2637
15809SOL    HW250830  10.242   5.260   5.391  0.1360  0.0309  0.7808
15810SOL     OW50831   3.668   0.981   2.874 -0.9675  0.3818  0.0023
15810SOL    HW150832   3.676   0.888   2.853 -1.6219  0.4217 -0.4415
15810SOL    HW250833   3.663   0.984   2.969  0.8376  0.1031  0.1498
15811SOL     OW50834   8.518   9.763   5.664  0.0608  0.5235 -0.4517
15811SOL    HW150835   8.595   9.812   5.690  0.2755  0.6989 -1.4019
15811SOL    HW250836   8.515   9.771   5.569 -1.0871  0.4581 -0.4333
15812SOL     OW50837   4.977   6.972   6.243  0.4454  0.2230  0.1410
15812SOL    HW150838   5.056   7.024   6.255 -0.4064  1.4409  0.6597
15812SOL    HW250839   4.905   7.033   6.258 -0.6002 -1.0975  0.7649
15813SOL     OW50840   0.403   5.691   7.976 -0.4540 -0.1676 -0.1596
15813SOL    HW150841   0.458   5.627   7.932  0.3560  0.4450 -0.0536
15813SOL    HW250842   0.323   5.643   7.999  0.0808 -1.0906 -0.2120
15814SOL     OW50843   5.817   8.911   9.355 -0.3365 -0.4746 -0.5346
15814SOL    HW150844   5.840   8.880   9.443  0.9496 -1.0501 -1.0494
15814SOL    HW250845   5.862   8.996   9.348  1.5599 -1.5026 -1.4644
15815SOL     OW50846   6.505   3.181   7.634  1.0060 -0.2683  1.0766
15815SOL    HW150847   6.431   3.204   7.579  2.2194  0.5610 -0.2689
15815SOL    HW250848   6.493   3.234   7.713  0.4810  0.3118  0.6210
15816SOL     OW50849   9.019   4.101   5.644  0.0034 -0.1318 -0.3971
15816SOL    HW150850   9.048   4.037   5.709  0.2484  1.1306  0.7806
15816SOL    HW250851   9.100   4.130   5.601  0.2000  1.1358  0.7622
15817SOL     OW50852   3.409   2.810   5.185  0.4295 -0.3499 -0.4777
15817SOL    HW150853   3.441   2.778   5.101  1.4008  2.1040 -1.1394
15817SOL    HW250854   3.314   2.814   5.175  0.6202  1.7597 -2.2921
15818SOL     OW50855   1.167   8.952  10.607  0.0843  0.3467 -0.5583
15818SOL    HW150856   1.126   8.873  10.641 -0.0935  0.1609 -1.1945
15818SOL    HW250857   1.163   9.015  10.680 -0.7714  0.1331 -0.4153
15819SOL     OW50858   5.263   3.834   5.512  0.2659 -0.1116 -0.1528
15819SOL    HW150859   5.210   3.907   5.543  0.2574  0.4235 -1.4079
15819SOL    HW250860   5.337   3.875   5.467  0.8705 -0.8712  0.1185
15820SOL     OW50861   1.729   3.556   7.847  0.0727  0.0624  0.4121
15820SOL    HW150862   1.806   3.507   7.876 -0.2328  0.3082  1.7033
15820SOL    HW250863   1.666   3.488   7.822  0.1159 -0.1952  0.9648
15821SOL     OW50864   5.800   8.114  10.849  0.1926 -0.2518  0.2989
15821SOL    HW150865   5.857   8.170  10.797  2.1463 -0.9055  1.6178
15821SOL    HW250866   5.800   8.030  10.803  3.7068 -1.5460  2.2216
15822SOL     OW50867   9.527   7.021   0.838  0.5040 -0.0021  0.5967
15822SOL    HW150868   9.441   7.055   0.864  0.9686  0.7145  1.2515
15822SOL    HW250869   9.508   6.941   0.789 -0.5971  0.7152 -0.2060
15823SOL     OW50870   9.940   9.140   1.290 -0.2174  0.3338  0.2479
15823SOL    HW150871  10.014   9.141   1.351 -0.1022  0.1162  0.1118
15823SOL    HW250872   9.935   9.230   1.257  1.3588 -0.1114 -1.3918
15824SOL     OW50873   0.836   6.849   8.150 -0.8033  0.3136 -0.1065
15824SOL    HW150874   0.800   6.771   8.192  1.3836  0.0331  1.3884
15824SOL    HW250875   0.883   6.815   8.074  0.6383  0.0567  0.8667
15825SOL     OW50876   3.061   3.285   4.249  0.3048  0.3364 -0.0055
15825SOL    HW150877   3.020   3.207   4.287 -0.9210  0.4794 -0.9842
15825SOL    HW250878   3.152   3.280   4.278  0.2065 -1.3416  0.1317
15826SOL     OW50879   6.298   4.457   3.675  0.2074 -0.0307  0.0851
15826SOL    HW150880   6.392   4.447   3.685  0.2536 -0.3767 -0.6528
15826SOL    HW250881   6.264   4.456   3.765  1.1148  2.5794  0.5329
15827SOL     OW50882   6.853   7.698  10.902 -0.6721 -0.0300 -0.6164
15827SOL    HW150883   6.935   7.685  10.855 -0.9810  0.2631 -1.2464
15827SOL    HW250884   6.846   7.623  10.960  1.0718  0.9430  0.9717
15828SOL     OW50885   7.800   5.772   6.807 -0.2102  0.0270 -0.1357
15828SOL    HW150886   7.724   5.829   6.792 -0.3546 -0.4704 -1.4102
15828SOL    HW250887   7.842   5.764   6.722  0.5707 -0.7236  0.2952
15829SOL     OW50888   3.647   8.380   1.882  0.0919 -0.3338  0.1722
15829SOL    HW150889   3.605   8.437   1.818  0.6812  0.8122  0.7829
15829SOL    HW250890   3.655   8.295   1.837  0.2113  0.3621 -1.1654
15830SOL     OW50891   7.231   8.847   9.680 -0.4200  0.0414 -0.3386
15830SOL    HW150892   7.205   8.864   9.771 -1.4605  1.1322 -0.8157
15830SOL    HW250893   7.288   8.920   9.657  0.9838 -0.9544 -0.1550
15831SOL     OW50894   1.135   6.717   3.819  0.3565 -0.3052  0.1972
15831SOL    HW150895   1.160   6.773   3.745  1.9762 -1.6213 -0.3267
15831SOL    HW250896   1.113   6.633   3.778  0.1016 -0.6977  1.1177
15832SOL     OW50897   7.169   3.949   2.714 -0.0763  0.0797 -0.5889
15832SOL    HW150898   7.118   3.916   2.640 -0.2104  2.0808 -1.4528
15832SOL    HW250899   7.253   3.974   2.676  0.6936 -0.9447  0.3780
15833SOL     OW50900   9.185   4.022   0.109  0.0840  0.2779  0.3037
15833SOL    HW150901   9.099   4.046   0.141  0.0262  0.9922 -0.3614
15833SOL    HW250902   9.226   4.105   0.084  2.1227  0.3350  3.3328
15834SOL     OW50903  10.208  10.413   3.051 -0.0057  0.4933 -0.6476
15834SOL    HW150904  10.280  10.365   3.011  0.2352  0.8873 -0.6867
15834SOL    HW250905  10.242  10.441   3.136  0.5471  2.2620 -1.3959
15835SOL     OW50906   2.762   1.320   3.739 -0.2987 -0.6824 -0.5905
15835SOL    HW150907   2.788   1.383   3.672  1.1604 -0.0914  0.4699
15835SOL    HW250908   2.688   1.360   3.783  1.4526  1.0388  0.9769
15836SOL     OW50909   2.591   5.048   8.876  0.0893  0.1094  0.1709
15836SOL    HW150910   2.590   4.954   8.894  0.9343  0.2977  1.3196
15836SOL    HW250911   2.662   5.060   8.813 -0.0213 -0.0180  0.0213
15837SOL     OW50912   2.594   7.892   5.454 -0.3445  0.3675  0.0961
15837SOL    HW150913   2.512   7.934   5.481  0.1744 -0.1861  2.8884
15837SOL    HW250914   2.662   7.947   5.492  0.4491 -1.0011  0.7254
15838SOL     OW50915   8.638   9.531   8.712 -0.6281 -0.5781  0.3592
15838SOL    HW150916   8.658   9.588   8.786 -2.3414  1.4752 -0.6274
15838SOL    HW250917   8.542   9.527   8.710 -0.7301  0.7507 -2.6096
15839SOL     OW50918   5.483   2.507   1.734  0.1831 -0.4744 -0.2617
15839SOL    HW150919   5.565   2.514   1.684  1.1334  1.7901  1.4279
15839SOL    HW250920   5.476   2.591   1.780 -2.4249 -1.1290  0.7140
15840SOL     OW50921   3.088   6.877   1.649 -0.3360 -0.0585 -0.0967
15840SOL    HW150922   3.058   6.811   1.712 -1.0336  0.1766 -0.1726
15840SOL    HW250923   3.175   6.846   1.621 -0.8407 -1.2037 -0.4738
15841SOL     OW50924   5.529   5.974   4.720 -0.2822 -0.0410 -0.5146
15841SOL    HW150925   5.592   5.901   4.715  0.0077  0.0197  1.6484
15841SOL    HW250926   5.449   5.934   4.751  0.1434  0.6679  1.6198
15842SOL     OW50927  10.506  10.473   9.635 -0.1070  0.4564 -0.1084
15842SOL    HW150928  10.491  10.484   9.729 -0.1879  1.1335 -0.1930
15842SOL    HW250929  10.600  10.487   9.624  0.4383 -2.3582  0.2263
15843SOL     OW50930   6.352   2.495   9.520 -0.1254  0.6548  0.5010
15843SOL    HW150931   6.399   2.438   9.581 -0.3275 -0.1540 -0.0764
15843SOL    HW250932   6.370   2.584   9.552  1.1480  0.3369  0.7503
15844SOL     OW50933   3.043   8.916   5.126 -0.6618 -0.8138  0.0796
15844SOL    HW150934   3.057   8.858   5.201  0.3679 -0.6073  0.0611
15844SOL    HW250935   3.114   8.980   5.131  0.0428 -1.3924 -1.6297
15845SOL     OW50936   1.125   2.202   0.889 -0.2061 -0.0301 -0.3266
15845SOL    HW150937   1.187   2.208   0.962  1.3444 -0.4904 -1.5615
15845SOL    HW250938   1.084   2.117   0.900  1.5386 -1.0224 -1.1113
15846SOL     OW50939   3.099   3.582  10.668  0.3106 -0.2070  0.1352
15846SOL    HW150940   3.135   3.493  10.675 -0.3815 -0.5031 -0.0208
15846SOL    HW250941   3.026   3.584  10.730  0.6473  0.4238  0.5188
15847SOL     OW50942   6.858   5.623   7.891 -0.1922 -0.1740  0.1067
15847SOL    HW150943   6.936   5.677   7.897  0.2350 -0.6532 -0.8407
15847SOL    HW250944   6.876   5.564   7.818 -2.1783  0.9345 -1.3686
15848SOL     OW50945  10.188   1.245  10.373  0.1070 -0.1488 -0.3464
15848SOL    HW150946  10.225   1.160  10.348  1.0819  0.0468  0.3917
15848SOL    HW250947  10.160   1.234  10.464 -0.1550  0.1910 -0.3824
15849SOL     OW50948   9.079  10.693   9.393  0.3243  0.5821 -0.5870
15849SOL    HW150949   8.998  10.698   9.443 -0.4038  0.5094 -1.7331
15849SOL    HW250950   9.062  10.627   9.325  1.3296  0.5791 -0.8555
15850SOL     OW50951   3.991   4.448  10.478  0.2313 -0.0330 -0.6505
15850SOL    HW150952   3.934   4.514  10.516 -0.3131 -1.1077  0.4879
15850SOL    HW250953   3.943   4.414  10.402  0.5008  0.8253 -1.2175
15851SOL     OW50954   7.761   0.902   3.163  0.2727 -0.0669  0.1159
15851SOL    HW150955   7.803   0.959   3.227 -2.6998  0.9759  1.3536
15851SOL    HW250956   7.757   0.817   3.206  1.5983 -0.3433 -0.2763
15852SOL     OW50957  10.319   5.835   9.237  0.1540 -0.6635  0.0033
15852SOL    HW150958  10.405   5.834   9.194  0.1315  0.8992 -0.1065
15852SOL    HW250959  10.276   5.755   9.205  1.2070 -0.9920 -0.6567
15853SOL     OW50960   0.997   6.970   0.577 -0.3524 -0.1582 -0.0709
15853SOL    HW150961   1.016   7.055   0.616 -0.0682 -0.1467 -0.2293
15853SOL    HW250962   1.033   6.906   0.638 -2.0191 -0.2460  0.8894
15854SOL     OW50963  10.033   1.585   4.802  0.5462 -0.1301  0.5273
15854SOL    HW150964  10.115   1.588   4.753 -0.1055  2.0481 -0.5652
15854SOL    HW250965  10.036   1.662   4.859 -1.5486  1.2507 -1.0522
15855SOL     OW50966   9.503   1.590   7.305 -0.2005  0.0117  0.1550
15855SOL    HW150967   9.437   1.532   7.268  1.1489 -1.8680  0.5312
15855SOL    HW250968   9.508   1.663   7.244 -1.9921 -0.2139 -0.3223
15856SOL     OW50969   3.977   5.079   5.744 -0.0530 -0.5024  0.2980
15856SOL    HW150970   3.991   5.005   5.803 -0.7630 -1.4246 -0.6336
15856SOL    HW250971   3.900   5.053   5.692  0.3666  0.3983 -0.8152
15857SOL     OW50972   3.928   4.388   7.590  0.1636 -0.1196  0.4467
15857SOL    HW150973   3.998   4.325   7.605 -1.3081 -1.5521  1.7266
15857SOL    HW250974   3.879   4.352   7.516  0.1888  0.3377  0.2054
15858SOL     OW50975   8.622   4.844   2.803 -0.2718  0.5061  0.3855
15858SOL    HW150976   8.682   4.774   2.829 -0.0272  0.4217 -0.3820
15858SOL    HW250977   8.536   4.814   2.830 -0.1306  0.0335  0.3151
15859SOL     OW50978   0.697   2.350   0.235 -0.4501  0.0010 -0.4506
15859SOL    HW150979   0.761   2.297   0.188 -0.3136  0.0832 -0.3583
15859SOL    HW250980   0.749   2.401   0.297 -0.5319  0.5009 -0.7783
15860SOL     OW50981   6.396   0.791   1.131  0.0752  0.6832  0.2315
15860SOL    HW150982   6.303   0.806   1.151 -0.1292 -0.3695  0.1133
15860SOL    HW250983   6.418   0.710   1.176  0.5576  0.1714 -0.8825
15861SOL     OW50984   7.389   5.294   4.745 -0.3937 -0.0512  0.1622
15861SOL    HW150985   7.410   5.305   4.652 -0.5260  1.3529  0.2758
15861SOL    HW250986   7.349   5.207   4.751  1.6823 -1.1565 -0.7000
15862SOL     OW50987   2.959  10.228   0.582  0.8597  0.1628  0.3935
15862SOL    HW150988   3.026  10.265   0.640 -0.0592 -0.1690  1.7276
15862SOL    HW250989   2.982  10.259   0.495  1.6697  1.6174  1.0880
15863SOL     OW50990   2.585   4.834  10.887  0.1168  0.1251  0.5553
15863SOL    HW150991   2.520   4.824  10.817 -0.2282  1.6823  0.6170
15863SOL    HW250992   2.652   4.891  10.849  0.6692 -0.2082  1.0218
15864SOL     OW50993   9.965   3.931   2.335 -0.0108 -0.1566  0.3536
15864SOL    HW150994   9.988   3.839   2.349  3.5448  0.2396 -1.5771
15864SOL    HW250995   9.941   3.936   2.243 -2.7118  0.5351  1.0171
15865SOL     OW50996   3.458   9.094   6.006  0.7904 -0.0651  0.2096
15865SOL    HW150997   3.499   9.179   5.992  0.6720 -0.0071  0.2155
15865SOL    HW250998   3.464   9.051   5.921 -1.7563  1.0791 -0.6444
15866SOL     OW50999   4.740   7.810   2.233 -0.4805 -0.3149 -0.2896
15866SOL    HW151000   4.798   7.865   2.181  2.7943 -1.3479  1.9528
15866SOL    HW251001   4.767   7.720   2.213 -2.2557 -0.9362 -0.1213
15867SOL     OW51002   9.962   0.447   7.959  0.6350  0.5233  0.0570
15867SOL    HW151003   9.896   0.483   8.019 -0.2966 -0.1525 -0.5415
15867SOL    HW251004  10.011   0.524   7.929 -1.4834  1.3886 -1.4001
15868SOL     OW51005   3.287   2.740   9.255 -0.2867  0.4541  0.3282
15868SOL    HW151006   3.308   2.646   9.250  1.2677  0.8183 -0.4398
15868SOL    HW251007   3.320   2.767   9.340  0.0218  0.4743  0.2038
15869SOL     OW51008   1.159   0.349   4.315  0.3103 -0.0684  0.1552
15869SOL    HW151009   1.211   0.325   4.391  1.9013 -2.0410 -1.4167
15869SOL    HW251010   1.206   0.421   4.275 -1.0051  1.5710  1.4357
15870SOL     OW51011   6.151   0.840   3.140 -0.1592 -0.7116 -0.3590
15870SOL    HW151012   6.124   0.932   3.143  1.0666 -0.2701  4.2171
15870SOL    HW251013   6.229   0.840   3.085  0.4209  1.2635  0.3722
15871SOL     OW51014   7.953   1.047   0.553  0.2655  0.2041 -0.2642
15871SOL    HW151015   7.921   1.138   0.555 -2.6529 -0.7260  0.5741
15871SOL    HW251016   7.989   1.032   0.640 -1.2134 -0.0130  0.3415
15872SOL     OW51017   3.621   3.156   2.581  0.1252  0.3082  0.1817
15872SOL    HW151018   3.596   3.103   2.505 -2.8620 -1.9947  2.5065
15872SOL    HW251019   3.645   3.092   2.648  0.1198  2.0885  1.9845
15873SOL     OW51020   6.668   9.966   6.410  0.1675  0.9775 -0.2666
15873SOL    HW151021   6.623   9.947   6.493 -0.3254  1.7241 -0.3565
15873SOL    HW251022   6.722  10.043   6.429  0.9147  0.4828 -0.3423
15874SOL     OW51023   4.326   9.986   6.038 -0.7433  0.7429  0.3982
15874SOL    HW151024   4.387  10.050   6.002  0.1361 -0.0098  0.5147
15874SOL    HW251025   4.294  10.026   6.119  1.0606  0.3743  1.3314
15875SOL     OW51026   5.489   8.330   6.675 -0.5178 -0.2856 -0.6268
15875SOL    HW151027   5.538   8.321   6.757  2.2714  0.4478 -2.0556
15875SOL    HW251028   5.444   8.414   6.683 -3.1365 -1.7442  1.4019
15876SOL     OW51029   2.739   6.755   9.103  0.1859  0.1870 -0.0469
15876SOL    HW151030   2.682   6.730   9.176  0.0778  3.2547  1.0697
15876SOL    HW251031   2.682   6.750   9.026 -0.2981 -1.0653  0.3664
15877SOL     OW51032   3.076   7.247   4.943  0.3069  0.4016 -0.3017
15877SOL    HW151033   3.080   7.253   5.039 -1.4570  3.1616 -0.2890
15877SOL    HW251034   3.066   7.338   4.914 -0.6536 -0.4832 -3.0157
15878SOL     OW51035   9.543  10.655   7.616  0.1224  0.4762  0.1845
15878SOL    HW151036   9.553  10.739   7.659  1.5149  0.7124 -0.5255
15878SOL    HW251037   9.633  10.622   7.608 -0.2318 -0.2353 -1.1620
15879SOL     OW51038   4.071   5.170   3.270  0.5929 -0.1237 -0.0320
15879SOL    HW151039   4.100   5.257   3.300  0.3123  0.1479 -0.5462
15879SOL    HW251040   4.090   5.169   3.177 -0.1376 -0.3119 -0.1884
15880SOL     OW51041   3.215   3.967   5.756  0.3683  0.3032  0.3027
15880SOL    HW151042   3.301   4.007   5.747 -0.4169  1.7052 -1.3333
15880SOL    HW251043   3.170   4.021   5.821 -0.4185  1.6591 -1.3270
15881SOL     OW51044   8.058   7.075  10.170 -0.6164  0.6674 -0.3974
15881SOL    HW151045   8.119   7.017  10.215 -0.1942  0.4895 -1.1734
15881SOL    HW251046   8.051   7.038  10.081 -0.2679  1.8387 -0.9342
15882SOL     OW51047   1.905   2.263   6.624 -0.3299 -0.5639 -0.1245
15882SOL    HW151048   1.887   2.288   6.533 -1.4813 -0.4369  0.1252
15882SOL    HW251049   1.978   2.201   6.618  0.3988  0.3419 -1.0294
15883SOL     OW51050   2.376   2.666   5.100  0.0536  0.1433  0.3711
15883SOL    HW151051   2.376   2.571   5.090  4.5170 -0.0225 -0.1512
15883SOL    HW251052   2.376   2.699   5.010  0.7434  0.5095  0.4996
15884SOL     OW51053   0.161   5.819   9.570  0.1284  0.0203  0.0650
15884SOL    HW151054   0.089   5.852   9.516  0.3728 -0.2965 -0.4610
15884SOL    HW251055   0.240   5.860   9.533  0.4124 -0.9721 -0.4671
15885SOL     OW51056   4.261   7.599   9.893  0.0543  0.0139  0.2637
15885SOL    HW151057   4.353   7.622   9.879 -0.8886  4.3794 -0.1694
15885SOL    HW251058   4.225   7.588   9.804 -0.1614 -0.1192  0.3663
15886SOL     OW51059   5.384   2.777   6.909 -0.6256 -0.3724  0.4354
15886SOL    HW151060   5.295   2.803   6.932 -0.7377  1.3596 -1.6216
15886SOL    HW251061   5.380   2.758   6.815  1.5349  1.8988 -0.2382
15887SOL     OW51062   7.648   3.679   9.212 -0.0727 -0.0970 -0.1822
15887SOL    HW151063   7.564   3.667   9.170 -1.4976  1.2307  2.0522
15887SOL    HW251064   7.672   3.770   9.193  1.8962 -0.9799 -2.4019
15888SOL     OW51065   1.782   8.444   7.491  0.3051 -0.3924  0.4582
15888SOL    HW151066   1.838   8.424   7.566  0.0369 -3.7223 -0.0803
15888SOL    HW251067   1.738   8.361   7.471 -0.4319  0.6250 -2.7032
15889SOL     OW51068   2.458   2.685   8.996  0.2228 -0.2081 -0.4371
15889SOL    HW151069   2.453   2.736   9.077 -1.7990 -0.9452 -0.0428
15889SOL    HW251070   2.395   2.726   8.938  1.5228  0.1939 -1.6205
15890SOL     OW51071   2.577   1.626   3.252 -0.5087 -0.5416 -0.1139
15890SOL    HW151072   2.555   1.557   3.189  0.7934 -0.6645 -0.4672
15890SOL    HW251073   2.618   1.695   3.199  0.2530 -0.4795  0.5354
15891SOL     OW51074   1.693   7.274   3.537  0.2271  0.0056  0.2098
15891SOL    HW151075   1.741   7.287   3.618  0.8415  1.4322 -0.3593
15891SOL    HW251076   1.759   7.275   3.468 -0.5246  1.6156 -0.5517
15892SOL     OW51077   9.365   7.363  10.309  0.1450  0.1918  1.0429
15892SOL    HW151078   9.348   7.370  10.403  1.3303 -0.0136  1.2867
15892SOL    HW251079   9.334   7.276  10.285 -0.1251  0.2299  1.2554
15893SOL     OW51080   1.486   2.202   2.665  0.1127  0.2349  0.2528
15893SOL    HW151081   1.488   2.170   2.575  0.8710 -0.1397  0.3884
15893SOL    HW251082   1.455   2.292   2.659 -1.2591 -0.2448 -0.2287
15894SOL     OW51083   2.909   6.223  10.770  0.1651 -0.1275 -0.0389
15894SOL    HW151084   2.897   6.129  10.782 -2.7567 -0.0457 -1.4983
15894SOL    HW251085   2.894   6.238  10.677 -0.5987  1.9044  0.3495
15895SOL     OW51086   9.003   3.928   2.785  0.1766 -0.0185  0.2482
15895SOL    HW151087   9.076   3.872   2.811  0.1594  0.1971  0.7724
15895SOL    HW251088   9.041   3.987   2.719 -0.1338 -1.5220 -1.3766
15896SOL     OW51089   2.365   7.290   5.275  0.1864  0.0530 -0.0921
15896SOL    HW151090   2.410   7.373   5.288 -0.2934  0.4921 -1.1527
15896SOL    HW251091   2.410   7.249   5.201  0.3107 -0.5595  0.3131
15897SOL     OW51092   1.982   7.645   7.946  0.0380  0.2408  0.6529
15897SOL    HW151093   1.969   7.651   7.851  1.5550 -0.0253  0.3991
15897SOL    HW251094   1.914   7.585   7.976  0.6059 -1.0581 -0.5418
15898SOL     OW51095   2.711   9.140   3.816  0.8751  0.4147 -0.6302
15898SOL    HW151096   2.708   9.231   3.785 -1.0421  1.4257  2.0910
15898SOL    HW251097   2.621   9.109   3.811  0.8278 -0.0358  1.7202
15899SOL     OW51098   8.517   5.766  10.770  0.2198 -0.3379 -0.1477
15899SOL    HW151099   8.476   5.839  10.724 -1.8283 -0.9674  0.5588
15899SOL    HW251100   8.477   5.688  10.731  1.7945 -1.0706 -0.3647
15900SOL     OW51101   7.621   5.385   4.927 -0.1636 -0.4327 -0.2503
15900SOL    HW151102   7.572   5.348   5.001 -0.4068 -0.1592 -0.2719
15900SOL    HW251103   7.572   5.356   4.850  1.5101 -2.9108 -0.4880
15901SOL     OW51104   7.994  10.283   8.452  0.2256 -0.3843 -0.0184
15901SOL    HW151105   8.057  10.340   8.408 -1.3870  1.7053  0.2287
15901SOL    HW251106   7.988  10.206   8.396  3.4120 -0.9834  0.2864
15902SOL     OW51107   9.194   0.229  10.295 -0.4019 -0.3821 -0.7428
15902SOL    HW151108   9.257   0.204  10.227  1.6590 -0.5014  1.0862
15902SOL    HW251109   9.243   0.287  10.352 -1.6165 -1.3318  1.3637
15903SOL     OW51110   9.334   7.089   1.167 -0.5994 -0.1632 -0.5326
15903SOL    HW151111   9.251   7.129   1.195 -0.1196  0.0169  0.7073
15903SOL    HW251112   9.349   7.019   1.230  1.4034  1.3729  0.8336
15904SOL     OW51113   3.903   8.854   5.198  0.3130 -0.3873 -0.0083
15904SOL    HW151114   3.952   8.811   5.269 -0.0640  0.0402  0.5208
15904SOL    HW251115   3.967   8.907   5.153  0.6725 -1.0794 -0.3319
15905SOL     OW51116   2.507   1.325   1.119  0.6439  0.4295 -0.1615
15905SOL    HW151117   2.554   1.377   1.185 -0.3894  1.9765 -0.5822
15905SOL    HW251118   2.562   1.330   1.041  1.6386 -1.0123  0.4137
15906SOL     OW51119   7.134   2.204   7.379  0.1929 -0.7272  0.5093
15906SOL    HW151120   7.147   2.231   7.470  1.5854 -2.1825  0.7819
15906SOL    HW251121   7.211   2.236   7.333 -1.5297  1.9889 -0.7207
15907SOL     OW51122   3.088   0.378   6.754 -0.5603  0.0683  0.7492
15907SOL    HW151123   2.999   0.364   6.721 -0.2272 -2.1767  0.6374
15907SOL    HW251124   3.076   0.435   6.831 -2.0510  0.0516  0.5674
15908SOL     OW51125   1.075   2.927  10.645 -0.4175 -0.0413 -0.1026
15908SOL    HW151126   1.133   2.919  10.569 -1.2251 -1.6033 -0.5859
15908SOL    HW251127   1.027   2.844  10.648 -0.7121  0.1582  1.8724
15909SOL     OW51128   1.372   9.186   1.646 -0.0171  0.1130  0.0426
15909SOL    HW151129   1.362   9.246   1.719 -0.7089 -1.6348  1.4722
15909SOL    HW251130   1.299   9.206   1.588  0.0657  0.9774  0.2277
15910SOL     OW51131   1.421   9.867   9.141 -0.2851 -0.2365 -0.4013
15910SOL    HW151132   1.415   9.926   9.066 -0.7711 -0.5294 -0.5930
15910SOL    HW251133   1.331   9.851   9.167 -0.1655  2.4354  2.2852
15911SOL     OW51134   9.750   1.615   5.326 -0.1823 -0.5340 -0.0352
15911SOL    HW151135   9.755   1.710   5.337  0.7506 -0.4911 -0.7408
15911SOL    HW251136   9.657   1.597   5.313 -0.5307  0.1237  1.3853
15912SOL     OW51137   0.710   4.929  10.874  0.1232  0.3112 -0.6927
15912SOL    HW151138   0.729   5.014  10.835 -1.5418  2.5432  2.8628
15912SOL    HW251139   0.763   4.925  10.953 -1.9733 -0.5429  0.7877
15913SOL     OW51140   8.509   2.596   0.988 -0.2270 -0.3496 -0.3179
15913SOL    HW151141   8.501   2.638   0.902 -3.3559 -3.6515 -1.8790
15913SOL    HW251142   8.445   2.643   1.043 -1.0933 -0.7067 -0.9916
15914SOL     OW51143   1.139   1.519   7.442 -0.1234 -0.0564  0.2994
15914SOL    HW151144   1.158   1.593   7.384  0.8347 -0.3724  0.1925
15914SOL    HW251145   1.203   1.452   7.418  0.8091  0.0771  2.2145
15915SOL     OW51146   7.742   6.711   8.728  0.0099 -0.4172  0.0327
15915SOL    HW151147   7.691   6.694   8.807 -1.1384  0.2500 -0.5348
15915SOL    HW251148   7.798   6.786   8.751  1.8713 -2.0295  1.1198
15916SOL     OW51149   1.423   4.482   9.257 -1.1207 -1.0203 -0.1428
15916SOL    HW151150   1.343   4.514   9.299 -0.8498 -0.6665  0.1114
15916SOL    HW251151   1.392   4.429   9.184 -1.5999  1.8153 -2.1515
15917SOL     OW51152   7.251   2.846   5.740 -0.9598  0.0807  0.2291
15917SOL    HW151153   7.277   2.850   5.648 -1.6591  1.6028  0.0591
15917SOL    HW251154   7.183   2.779   5.743 -0.6846 -0.2282 -0.2881
15918SOL     OW51155   9.074   3.465   2.277 -0.2459 -0.3203  0.4272
15918SOL    HW151156   9.130   3.542   2.268 -0.6964 -0.0633 -0.2307
15918SOL    HW251157   9.122   3.407   2.336  0.0978  0.4623  0.9320
15919SOL     OW51158   9.550   0.643   1.595  0.0323 -0.1745 -0.1376
15919SOL    HW151159   9.576   0.667   1.506  2.4106  1.1733  0.8210
15919SOL    HW251160   9.610   0.573   1.620 -1.9508 -2.0160 -0.2242
15920SOL     OW51161   1.331   4.905   1.800 -0.0654 -0.0813  0.2323
15920SOL    HW151162   1.399   4.861   1.749  0.7703 -0.9747  2.0446
15920SOL    HW251163   1.368   4.915   1.887 -1.5472  1.1830  0.7637
15921SOL     OW51164   2.754   5.549   7.048 -0.0210 -0.3949 -0.0014
15921SOL    HW151165   2.709   5.623   7.088  0.8019  0.3094 -0.3579
15921SOL    HW251166   2.695   5.475   7.063 -0.6796  0.2489  0.6867
15922SOL     OW51167   7.078   2.482   1.581  0.2258  0.2466  0.7270
15922SOL    HW151168   6.993   2.515   1.610  0.3792  0.9870  0.3644
15922SOL    HW251169   7.097   2.531   1.501  1.4399  0.8272  1.3377
15923SOL     OW51170   3.890   8.336   3.471  0.2136 -0.1618  0.2797
15923SOL    HW151171   3.948   8.412   3.474  0.9552 -0.6991 -0.0209
15923SOL    HW251172   3.870   8.318   3.563  0.1926  0.2748  0.3625
15924SOL     OW51173   2.693   6.338   1.039  0.6990  0.2771  0.6125
15924SOL    HW151174   2.635   6.309   0.969  1.6210 -1.8744  0.6468
15924SOL    HW251175   2.781   6.318   1.007  1.5592  3.7337  0.4192
15925SOL     OW51176   0.397   1.462   6.922  0.0972  0.2302 -0.0768
15925SOL    HW151177   0.442   1.546   6.928  0.4710  0.0938 -0.7971
15925SOL    HW251178   0.451   1.401   6.973  1.5098 -0.2316 -2.0020
15926SOL     OW51179   9.113   5.075   5.389 -0.3984  0.5229 -0.4595
15926SOL    HW151180   9.056   5.002   5.367 -0.4664  0.4386 -0.0175
15926SOL    HW251181   9.166   5.043   5.461  0.2237  0.5955 -0.8771
15927SOL     OW51182   1.710  10.571   5.378  0.1897 -0.6972  1.1692
15927SOL    HW151183   1.800  10.562   5.410  1.2026  2.3542 -0.4246
15927SOL    HW251184   1.707  10.515   5.300  1.4995  0.7142  0.0075
15928SOL     OW51185   9.408   9.639   9.636  0.2431 -0.0784 -0.0232
15928SOL    HW151186   9.368   9.579   9.700  2.2424  0.3090  1.6939
15928SOL    HW251187   9.402   9.725   9.677  3.6803 -0.1228  0.9122
15929SOL     OW51188   4.793   4.565   2.773  0.4506  0.1491  0.2809
15929SOL    HW151189   4.795   4.481   2.820 -1.5002 -0.5499 -0.7869
15929SOL    HW251190   4.714   4.560   2.719  1.9647  1.3972 -2.2038
15930SOL     OW51191   2.319   0.034   2.989  0.6414 -0.3706  0.5663
15930SOL    HW151192   2.287  -0.023   2.919  1.2824 -0.3110  0.2096
15930SOL    HW251193   2.264   0.013   3.064 -0.2698 -0.2201 -0.0340
15931SOL     OW51194   4.915   1.696   5.617 -0.0660 -0.3075  0.6491
15931SOL    HW151195   4.842   1.751   5.646  0.1962  0.7375 -0.6413
15931SOL    HW251196   4.874   1.630   5.561 -0.1520 -0.3816  0.7975
15932SOL     OW51197   7.964   1.077   1.992 -0.5425  0.5756  0.0545
15932SOL    HW151198   8.020   1.089   2.069  1.7852  0.7177 -1.5737
15932SOL    HW251199   7.941   0.984   1.993 -0.2317  0.5021  0.7045
15933SOL     OW51200   8.251   0.272   2.174 -0.0063  0.2738 -0.4405
15933SOL    HW151201   8.178   0.214   2.195  0.0732 -0.1555 -1.2945
15933SOL    HW251202   8.280   0.307   2.258 -0.7168 -0.1304 -0.0243
15934SOL     OW51203   8.867   9.129   7.298 -0.3268  0.0475 -0.1967
15934SOL    HW151204   8.831   9.179   7.225  0.8812  1.3694  0.0769
15934SOL    HW251205   8.805   9.144   7.370 -0.6361  0.1058 -0.4720
15935SOL     OW51206   5.484   1.254   6.556 -0.2202 -0.0848  0.1468
15935SOL    HW151207   5.578   1.264   6.540 -0.5329  0.3933 -1.5887
15935SOL    HW251208   5.457   1.339   6.592 -0.3401  0.5410 -1.3529
15936SOL     OW51209   8.633   4.021   2.146 -0.0848  0.1635  0.5521
15936SOL    HW151210   8.728   4.016   2.148 -0.0890 -1.9270 -0.5252
15936SOL    HW251211   8.606   4.011   2.237  0.7096  1.3499  0.9372
15937SOL     OW51212   9.810   7.835  10.572  0.3099 -0.0551 -0.0958
15937SOL    HW151213   9.825   7.821  10.478  0.2083 -0.0957 -0.1063
15937SOL    HW251214   9.881   7.787  10.615  0.3399 -0.0614 -0.1515
15938SOL     OW51215   9.912  10.879   1.871  0.0955 -0.1048  0.2285
15938SOL    HW151216   9.971  10.895   1.798 -0.9714 -0.7401 -0.8064
15938SOL    HW251217   9.834  10.931   1.852  0.5449  1.3464  1.9664
15939SOL     OW51218  10.309   6.140   6.064 -0.2122  0.2474 -0.5200
15939SOL    HW151219  10.311   6.055   6.021 -1.8362 -0.3858  0.5628
15939SOL    HW251220  10.217   6.157   6.080  0.1681  1.6650  0.3611
15940SOL     OW51221   5.281   1.487   8.369  0.1241  0.4563 -0.3939
15940SOL    HW151222   5.344   1.419   8.393 -0.5654  0.4083  1.4768
15940SOL    HW251223   5.311   1.565   8.415 -1.8738  0.0840  1.7436
15941SOL     OW51224   3.819   9.206   5.034 -0.1290 -0.3143  0.0251
15941SOL    HW151225   3.784   9.295   5.034  0.3714 -0.1015  1.0922
15941SOL    HW251226   3.752   9.154   4.989 -0.5442  0.5462 -0.3831
15942SOL     OW51227   8.371   7.679   6.815 -0.2422  0.1802 -0.3122
15942SOL    HW151228   8.396   7.766   6.784 -1.4844  1.2656  1.5309
15942SOL    HW251229   8.276   7.674   6.799 -0.4465 -0.2280  0.9116
15943SOL     OW51230   7.504   0.795   3.268 -1.1535 -0.2700 -0.5353
15943SOL    HW151231   7.540   0.854   3.201 -1.7328  1.4963  0.6233
15943SOL    HW251232   7.554   0.815   3.347 -0.7642 -2.0193 -0.2977
15944SOL     OW51233   4.697   3.242   7.858  0.2361 -0.4131  0.1832
15944SOL    HW151234   4.721   3.230   7.950  1.7318 -1.5338 -0.3200
15944SOL    HW251235   4.638   3.169   7.840  1.0233 -0.9828 -0.1019
15945SOL     OW51236   2.362   0.204   5.960  0.4545 -0.7825 -1.0791
15945SOL    HW151237   2.350   0.185   5.867 -1.2927  0.0218 -1.0700
15945SOL    HW251238   2.273   0.201   5.996  0.2994  3.8367 -0.4670
15946SOL     OW51239   9.930   3.470   8.005  0.5191  0.3196 -0.0441
15946SOL    HW151240  10.023   3.485   8.019  0.7502 -2.0062  1.5087
15946SOL    HW251241   9.926   3.384   7.962 -0.7878  2.3218 -4.4727
15947SOL     OW51242   2.732   0.890   8.633  0.3871 -0.3778  0.0150
15947SOL    HW151243   2.682   0.831   8.577 -0.4947  0.8603 -0.5332
15947SOL    HW251244   2.747   0.968   8.580 -0.6162  0.9157  1.5267
15948SOL     OW51245   7.798   0.305   4.989 -0.1547 -0.0143 -0.2620
15948SOL    HW151246   7.735   0.236   5.009 -1.3273  1.3209  0.8006
15948SOL    HW251247   7.821   0.290   4.897 -0.7432 -1.5048 -0.2000
15949SOL     OW51248   1.346   5.148   1.228 -0.1262 -0.2354 -0.2111
15949SOL    HW151249   1.278   5.129   1.294 -0.0499  1.5568  0.4424
15949SOL    HW251250   1.381   5.233   1.255  2.8319 -1.3687 -0.1668
15950SOL     OW51251   3.156   6.905   5.662  0.1858  0.1752  0.5441
15950SOL    HW151252   3.092   6.970   5.632  0.0555 -1.2583 -2.7979
15950SOL    HW251253   3.131   6.824   5.616  3.4501 -0.8361  0.2876
15951SOL     OW51254   1.729   3.859   2.201 -0.0019 -0.2558 -0.8558
15951SOL    HW151255   1.715   3.944   2.242  2.7200  0.1013 -0.5097
15951SOL    HW251256   1.800   3.819   2.252  1.5293 -1.0230 -3.4042
15952SOL     OW51257   5.570   4.298   4.554 -0.1808  0.3225  0.0755
15952SOL    HW151258   5.632   4.301   4.481  0.0167  1.2638  0.2694
15952SOL    HW251259   5.540   4.388   4.564 -2.0665 -0.2244 -0.3935
15953SOL     OW51260   3.404   3.524   2.104 -0.1780  0.7244  0.2444
15953SOL    HW151261   3.488   3.535   2.147 -0.3404  1.5073  0.3800
15953SOL    HW251262   3.344   3.500   2.174 -0.2183  0.9010  0.2704
15954SOL     OW51263   4.035   7.587   4.573  0.2083 -0.0586  0.3973
15954SOL    HW151264   3.987   7.506   4.560  1.7835 -1.0024  0.2290
15954SOL    HW251265   4.010   7.616   4.661  1.6517 -2.1925  1.5806
15955SOL     OW51266   0.937   5.006   5.156  0.2509  0.0849 -0.4158
15955SOL    HW151267   0.920   5.085   5.207 -1.1731  0.5676 -1.5693
15955SOL    HW251268   1.028   5.013   5.130  0.1092  1.4405 -0.6104
15956SOL     OW51269   6.728   0.372   2.935  0.0490 -0.3779  0.3857
15956SOL    HW151270   6.677   0.448   2.962  1.1816 -0.5081  3.3385
15956SOL    HW251271   6.812   0.408   2.905 -1.0508 -0.2683 -2.9661
15957SOL     OW51272  10.855  10.693   0.868 -0.1717  0.4654  0.2715
15957SOL    HW151273  10.877  10.633   0.939 -1.8481  0.3105  0.7126
15957SOL    HW251274  10.789  10.645   0.817  0.8236  0.6665 -1.2695
15958SOL     OW51275   4.005   8.001   3.228 -0.0016 -0.2632  0.2323
15958SOL    HW151276   3.958   8.083   3.234  1.1666  0.3489  1.6274
15958SOL    HW251277   3.940   7.937   3.198 -1.1809  0.9286  0.1917
15959SOL     OW51278   3.462   2.386   6.616  0.4808 -0.6154 -0.5458
15959SOL    HW151279   3.520   2.426   6.681 -0.1461 -2.2140  1.0931
15959SOL    HW251280   3.496   2.298   6.604 -0.1373 -0.7438 -1.4903
15960SOL     OW51281   8.444   0.037  10.221 -0.3262  0.0770  0.7339
15960SOL    HW151282   8.514   0.067  10.164 -0.7957 -1.4614 -0.7013
15960SOL    HW251283   8.485   0.027  10.307  0.5830  1.6120  0.5077
15961SOL     OW51284   3.186   0.661   8.684  0.1857  0.9679 -0.2433
15961SOL    HW151285   3.092   0.649   8.677  0.3583 -2.2212  1.1188
15961SOL    HW251286   3.219   0.647   8.595 -0.4773 -0.2481 -0.3193
15962SOL     OW51287   9.710   2.403   0.153 -0.5663 -0.2164  0.2112
15962SOL    HW151288   9.731   2.493   0.181  0.2138 -0.2573 -0.2066
15962SOL    HW251289   9.764   2.348   0.209 -0.1159 -0.3646 -0.3603
15963SOL     OW51290   2.737   6.590   8.060 -0.5555  0.1036  0.0708
15963SOL    HW151291   2.782   6.653   8.004 -0.0475  1.4170  1.8400
15963SOL    HW251292   2.807   6.530   8.089 -1.0691 -1.4529 -1.7527
15964SOL     OW51293   9.245   2.402   0.833 -0.5615  0.6185  0.3110
15964SOL    HW151294   9.248   2.342   0.758 -1.3910  0.9377  0.0138
15964SOL    HW251295   9.152   2.422   0.844 -0.3816  1.1182  0.9969
15965SOL     OW51296   6.675   2.116   7.042 -0.1607 -0.5382 -0.9598
15965SOL    HW151297   6.665   2.194   6.987  2.3985 -0.1041 -0.9240
15965SOL    HW251298   6.626   2.136   7.121  0.0138  0.8221 -1.1715
15966SOL     OW51299  10.091   7.922   0.121  0.0274 -0.0579  0.3711
15966SOL    HW151300  10.152   7.966   0.062 -0.7160  1.8944  0.9871
15966SOL    HW251301  10.006   7.933   0.080 -0.3094 -0.0006  1.0680
15967SOL     OW51302   9.783  10.698   4.397  0.0230 -0.5778  0.0292
15967SOL    HW151303   9.728  10.772   4.426 -0.3340 -0.6859 -0.3508
15967SOL    HW251304   9.736  10.620   4.428  0.1970 -0.6545  0.0949
15968SOL     OW51305   6.779   9.763   1.717  0.1435 -0.1892 -0.1014
15968SOL    HW151306   6.758   9.791   1.628 -1.8041  1.7199  0.8666
15968SOL    HW251307   6.852   9.818   1.743  2.1676 -2.1990 -1.1399
15969SOL     OW51308   5.902   4.868   8.894  0.2162  0.5419  0.1410
15969SOL    HW151309   5.826   4.834   8.847  1.2937 -0.8804 -0.6199
15969SOL    HW251310   5.913   4.957   8.860 -0.0810  0.1515 -1.0174
15970SOL     OW51311   3.652   3.439   4.646 -0.0032 -0.2334 -0.1841
15970SOL    HW151312   3.577   3.485   4.684 -1.2826 -1.4058 -1.2381
15970SOL    HW251313   3.720   3.507   4.639 -1.0453  0.9200  0.5000
15971SOL     OW51314   1.012   8.890   3.231 -0.1815 -0.4398  0.2710
15971SOL    HW151315   0.921   8.920   3.225 -0.2857 -0.8384 -0.2695
15971SOL    HW251316   1.058   8.940   3.163  1.0320  3.2168  3.4728
15972SOL     OW51317   4.236  10.369   9.875  0.2207  0.2682  0.2497
15972SOL    HW151318   4.217  10.295   9.818  0.0618  0.2798  0.2857
15972SOL    HW251319   4.151  10.391   9.915  0.0798  1.0292 -0.4394
15973SOL     OW51320   5.619   5.671  10.416  0.1997 -0.0793  0.2139
15973SOL    HW151321   5.630   5.749  10.471 -1.4380  0.5231 -0.2497
15973SOL    HW251322   5.535   5.634  10.444 -0.8829  0.4743 -2.0922
15974SOL     OW51323   9.472   9.065   8.517  0.4523  0.6610 -0.0628
15974SOL    HW151324   9.561   9.031   8.521 -0.2628 -1.6046 -1.3003
15974SOL    HW251325   9.461   9.114   8.599  1.5851 -2.4012  2.1259
15975SOL     OW51326   2.536   6.326   8.185  0.5466  0.0088 -0.2212
15975SOL    HW151327   2.472   6.279   8.130 -1.3212 -0.3561  2.0766
15975SOL    HW251328   2.524   6.418   8.162 -1.8429  0.0863  1.0379
15976SOL     OW51329   1.505   7.651   5.446  0.5879  0.0607 -0.1558
15976SOL    HW151330   1.453   7.571   5.453 -0.2430  0.4559 -1.4383
15976SOL    HW251331   1.563   7.635   5.372 -0.6671  1.1842 -1.4487
15977SOL     OW51332   6.690   3.000   2.647 -0.0945  0.1485  0.3449
15977SOL    HW151333   6.617   2.987   2.708 -0.3344  0.5353  0.1443
15977SOL    HW251334   6.765   2.959   2.690 -0.4144 -0.1974  0.5847
15978SOL     OW51335   7.438  10.787   2.135 -0.0304  0.3409  0.0549
15978SOL    HW151336   7.457  10.825   2.049 -1.6430 -0.2817 -0.6090
15978SOL    HW251337   7.360  10.832   2.165 -0.8142 -1.0111  0.1416
15979SOL     OW51338   5.499   0.150   0.386 -0.8490 -0.0284  0.2464
15979SOL    HW151339   5.488   0.229   0.439 -1.7834 -0.0620  0.1319
15979SOL    HW251340   5.412   0.135   0.348 -0.6284 -0.9777  0.0880
15980SOL     OW51341   5.901   4.703   0.300  0.7012  0.4446  0.8992
15980SOL    HW151342   5.820   4.697   0.351  0.8858 -0.8883  1.0575
15980SOL    HW251343   5.925   4.796   0.305 -1.1782  1.0044  0.2780
15981SOL     OW51344   3.417   5.899   5.409 -0.6847  0.3193 -0.2078
15981SOL    HW151345   3.463   5.932   5.487 -1.0428 -1.2403  0.7068
15981SOL    HW251346   3.478   5.917   5.337 -0.0605  1.2131  0.5042
15982SOL     OW51347   4.182   0.799   5.515  0.0438 -0.2481 -0.9190
15982SOL    HW151348   4.251   0.852   5.556  0.2247 -0.3593 -1.0786
15982SOL    HW251349   4.211   0.709   5.525  0.7564 -0.2280 -2.4537
15983SOL     OW51350   5.512   5.981   3.376  0.8479 -0.3069  0.2509
15983SOL    HW151351   5.452   6.022   3.313 -0.4800 -1.2042  0.8763
15983SOL    HW251352   5.455   5.951   3.447  2.2733  0.3600  1.7215
15984SOL     OW51353   9.261   1.074  10.892  0.0009  0.1169 -0.0004
15984SOL    HW151354   9.284   1.143  10.830 -0.5773  1.1890  0.9508
15984SOL    HW251355   9.329   1.079  10.959  0.1813 -0.5139 -0.1288
15985SOL     OW51356   4.122   8.623   8.886 -0.1038 -0.2888 -0.1998
15985SOL    HW151357   4.053   8.667   8.936 -0.8216 -1.0507 -0.4784
15985SOL    HW251358   4.116   8.662   8.799 -0.9976 -1.1740 -0.5537
15986SOL     OW51359   0.317   5.801   0.572 -0.4679  0.5769 -0.4081
15986SOL    HW151360   0.376   5.770   0.641  1.0158  0.9144 -1.5007
15986SOL    HW251361   0.352   5.765   0.491 -2.8249 -0.7472 -0.9557
15987SOL     OW51362   3.841   2.880  10.135 -0.0896  0.0368 -0.5414
15987SOL    HW151363   3.813   2.933  10.061  1.8527 -0.0582 -1.3914
15987SOL    HW251364   3.873   2.943  10.199  2.8945  0.0003 -1.8352
15988SOL     OW51365   9.314   7.888   2.336 -0.4082 -0.6389 -0.4044
15988SOL    HW151366   9.321   7.983   2.343  1.0141 -0.7531  0.2189
15988SOL    HW251367   9.223   7.871   2.312 -0.8783  0.8387  0.2540
15989SOL     OW51368   2.432   9.036   4.112 -0.2072  0.5730 -0.1608
15989SOL    HW151369   2.444   9.005   4.202  2.1599  0.0894 -0.5747
15989SOL    HW251370   2.479   9.119   4.109  1.2416 -0.2268 -1.3254
15990SOL     OW51371   5.869   3.870   6.069 -0.2517  0.2306 -0.6093
15990SOL    HW151372   5.959   3.849   6.047 -0.3166  0.1112 -0.7577
15990SOL    HW251373   5.870   3.885   6.164 -0.2012 -0.4121 -0.5053
15991SOL     OW51374   0.321   7.775   5.014  0.3209  0.1017 -0.0198
15991SOL    HW151375   0.353   7.737   5.096 -1.9545 -1.1676  0.3740
15991SOL    HW251376   0.384   7.843   4.993  1.9731 -0.7569  1.8108
15992SOL     OW51377   0.224   6.921   0.774  0.2879 -0.4548  0.1914
15992SOL    HW151378   0.270   6.837   0.764 -1.1547 -1.2590  0.0995
15992SOL    HW251379   0.132   6.897   0.781 -0.0681  1.0789  1.0596
15993SOL     OW51380   2.421   8.753   4.046  0.4858 -0.5157  0.2720
15993SOL    HW151381   2.371   8.717   4.119 -1.4560 -1.6034 -1.4616
15993SOL    HW251382   2.432   8.846   4.067 -0.4674 -0.6978  1.6986
15994SOL     OW51383   4.508   0.133   9.117  0.1210  1.1842  0.1418
15994SOL    HW151384   4.438   0.112   9.178 -0.2181  2.0757  0.0779
15994SOL    HW251385   4.545   0.215   9.150  0.8280  0.9641 -0.0883
15995SOL     OW51386   1.614  10.652   2.678 -0.5532 -0.0708 -0.2960
15995SOL    HW151387   1.666  10.609   2.611 -0.2403  0.8527 -0.6648
15995SOL    HW251388   1.666  10.646   2.758  0.3146  1.1479 -0.7362
15996SOL     OW51389   2.495   8.791   8.842  0.1370 -0.0253 -0.0113
15996SOL    HW151390   2.563   8.852   8.871 -0.4683  0.3424  0.6884
15996SOL    HW251391   2.490   8.804   8.747 -0.1114  1.1702  0.1477
15997SOL     OW51392   9.355   4.768   5.034 -0.7798 -0.5452  0.3414
15997SOL    HW151393   9.313   4.853   5.017 -1.1989 -0.9946 -1.0139
15997SOL    HW251394   9.378   4.771   5.127  1.4733  2.0651 -0.1473
15998SOL     OW51395   4.540   1.353   5.379  0.3702  0.3511 -0.0151
15998SOL    HW151396   4.484   1.343   5.302 -1.5406 -1.4052  1.4854
15998SOL    HW251397   4.507   1.432   5.422 -1.0384 -0.6328  0.8226
15999SOL     OW51398   0.781   3.193  10.523 -0.5147 -0.4984 -0.2575
15999SOL    HW151399   0.734   3.255  10.468  1.0091  1.2720  0.3300
15999SOL    HW251400   0.839   3.248  10.577 -0.3945 -2.3011  1.5728
16000SOL     OW51401   2.896   5.390   5.840  0.2728  0.0633 -0.3762
16000SOL    HW151402   2.959   5.461   5.825  0.4884 -0.2361 -0.9392
16000SOL    HW251403   2.940   5.312   5.806 -0.1965 -0.2406 -0.2961
16001SOL     OW51404  10.896   3.912   4.628  0.3920  0.7565 -0.4640
16001SOL    HW151405  10.833   3.844   4.651 -2.2293  3.2350  0.1108
16001SOL    HW251406  10.976   3.886   4.674 -0.9917 -1.0535  1.0781
16002SOL     OW51407   6.242  10.756   0.888 -0.0772 -0.2003 -0.0699
16002SOL    HW151408   6.317  10.765   0.828 -0.0350  0.1321  0.0323
16002SOL    HW251409   6.264  10.679   0.941  0.7789  0.5982  0.7831
16003SOL     OW51410   1.339   0.184   1.098  0.1266 -0.1061 -0.9537
16003SOL    HW151411   1.358   0.222   1.183  0.0491 -1.7566 -0.1632
16003SOL    HW251412   1.247   0.205   1.082  0.9783  3.2099 -2.2987
16004SOL     OW51413   1.073   8.311   5.857 -0.0048 -0.4888 -0.2677
16004SOL    HW151414   0.993   8.280   5.900 -0.5862 -0.9601 -1.6303
16004SOL    HW251415   1.047   8.393   5.815  1.2595  1.4840  2.4646
16005SOL     OW51416   5.529  10.803   1.739  0.1226  0.3377 -0.3360
16005SOL    HW151417   5.436  10.801   1.714 -0.2918  1.3424  1.0241
16005SOL    HW251418   5.533  10.867   1.810  1.8692  0.3020 -0.3728
16006SOL     OW51419   5.465   0.890   0.653  0.1292  0.6175 -0.3178
16006SOL    HW151420   5.454   0.812   0.707  0.8008  0.8139  0.1228
16006SOL    HW251421   5.390   0.945   0.674 -0.1316  0.2682 -0.3258
16007SOL     OW51422  10.744   7.932   8.419 -0.4695 -0.1043 -0.1182
16007SOL    HW151423  10.660   7.905   8.458  0.7074 -0.2189  2.5660
16007SOL    HW251424  10.725   8.015   8.376 -2.0410 -0.2665  0.1945
16008SOL     OW51425  10.595   1.255   3.773 -0.6252 -0.2609  0.1136
16008SOL    HW151426  10.630   1.178   3.817 -0.0461 -0.6940 -1.0580
16008SOL    HW251427  10.526   1.287   3.831  1.6491  0.6392  2.5172
16009SOL     OW51428   1.679   8.085   9.515  0.0643 -0.1320 -0.2908
16009SOL    HW151429   1.772   8.066   9.523  0.0459 -0.0972  0.0047
16009SOL    HW251430   1.646   8.085   9.605 -0.1347  0.2920 -0.3599
16010SOL     OW51431   6.014   4.563   0.099  0.2369 -0.1250  0.1598
16010SOL    HW151432   5.966   4.622   0.157  0.2854  0.2811 -0.2117
16010SOL    HW251433   6.038   4.489   0.155 -1.3988 -0.6618  0.1933
16011SOL     OW51434   2.389   6.771  10.805 -0.0224  0.4245  0.0497
16011SOL    HW151435   2.365   6.843  10.746  0.8507  0.2915 -0.4720
16011SOL    HW251436   2.352   6.693  10.764  1.8395  0.1172 -1.1262
16012SOL     OW51437   5.277   2.322   1.769  0.7152  0.4006  0.0463
16012SOL    HW151438   5.341   2.393   1.773  1.6259 -0.4451  1.2391
16012SOL    HW251439   5.278   2.294   1.677  2.2163  0.2783  0.0756
16013SOL     OW51440   2.325   0.134  10.668 -0.1182  0.0622  0.0416
16013SOL    HW151441   2.402   0.191  10.674  0.7780 -0.8796 -1.6050
16013SOL    HW251442   2.338   0.070  10.738  0.1064  0.4738  0.3809
16014SOL     OW51443   3.093   6.658   3.388  0.1086 -0.4678  0.5327
16014SOL    HW151444   3.117   6.751   3.384  1.8162 -0.9094 -2.7379
16014SOL    HW251445   3.041   6.643   3.309 -1.4845 -2.0505  1.7797
16015SOL     OW51446   6.424   4.984   7.793 -0.3804  0.0814 -0.1872
16015SOL    HW151447   6.454   5.047   7.859 -0.7845 -0.4580  0.5253
16015SOL    HW251448   6.441   5.027   7.710 -0.2393  0.9519  0.2766
16016SOL     OW51449  10.479   0.303   2.046 -0.0392 -0.6388  0.3418
16016SOL    HW151450  10.464   0.381   2.099  0.0231 -2.1798  2.7536
16016SOL    HW251451  10.523   0.336   1.968  0.1066  1.7264  1.3412
16017SOL     OW51452   0.194   6.297   1.296 -0.4303  0.4246 -0.3746
16017SOL    HW151453   0.213   6.367   1.358 -0.9464  0.6229 -0.4313
16017SOL    HW251454   0.178   6.342   1.213  0.1288  0.1719 -0.6243
16018SOL     OW51455   1.609   5.512  10.499  0.0833 -0.2045 -0.0392
16018SOL    HW151456   1.559   5.578  10.451 -0.8584  0.3112  1.5595
16018SOL    HW251457   1.551   5.486  10.571  1.3791 -1.0178  0.7546
16019SOL     OW51458   7.421   7.662   2.412  0.1152 -0.2082 -0.3471
16019SOL    HW151459   7.464   7.739   2.448 -0.6406 -0.7272  1.7822
16019SOL    HW251460   7.480   7.589   2.431 -0.2574 -0.4832 -0.2229
16020SOL     OW51461   0.552   1.582   1.455 -0.1394  0.3888  0.2822
16020SOL    HW151462   0.479   1.604   1.397 -0.3714  0.9464  0.7715
16020SOL    HW251463   0.529   1.498   1.493 -0.2182  0.2546 -0.0623
16021SOL     OW51464   9.925   3.057   3.171  0.1584 -0.0741  0.2194
16021SOL    HW151465   9.965   3.108   3.241 -0.2927 -0.1214  0.5193
16021SOL    HW251466   9.856   3.114   3.137 -0.3165 -0.4577  0.5234
16022SOL     OW51467   3.705  10.269   2.286  0.1449 -0.0200  0.5225
16022SOL    HW151468   3.716  10.191   2.232 -0.8164  0.5320 -0.5073
16022SOL    HW251469   3.794  10.302   2.300  0.3605  0.6188 -1.9361
16023SOL     OW51470   1.022   2.875   9.126 -0.1525 -0.0278  0.1204
16023SOL    HW151471   1.075   2.796   9.130 -1.9942 -1.2564  1.3323
16023SOL    HW251472   1.079   2.944   9.160  0.3718 -1.5079  2.4585
16024SOL     OW51473   4.599   7.991   7.717 -0.3811  0.2274  0.4508
16024SOL    HW151474   4.540   8.009   7.791 -0.3808  0.8822  0.2990
16024SOL    HW251475   4.637   7.905   7.737 -1.1002 -0.0346  0.7377
16025SOL     OW51476  10.343   3.885   2.391  0.0535 -0.6146 -0.3833
16025SOL    HW151477  10.373   3.945   2.323 -1.9548  0.2498 -0.5872
16025SOL    HW251478  10.423   3.847   2.427  1.3225  1.0760 -1.2714
16026SOL     OW51479   3.709   0.080   7.921 -0.2317  0.0706 -0.4733
16026SOL    HW151480   3.735  -0.011   7.910 -2.1302 -0.5109 -0.5714
16026SOL    HW251481   3.657   0.081   8.001  2.4667  1.7454  1.3967
16027SOL     OW51482  10.499   2.202  10.421  0.3596 -0.1160 -0.2016
16027SOL    HW151483  10.508   2.235  10.510 -0.0727 -0.7312  0.0764
16027SOL    HW251484  10.511   2.279  10.365 -0.7377  0.5423  0.4285
16028SOL     OW51485   9.562   6.363   4.571  0.2393  0.1876  0.3451
16028SOL    HW151486   9.655   6.345   4.577  0.1829 -1.0263 -1.6339
16028SOL    HW251487   9.520   6.293   4.621  0.3529  0.4337  0.7905
16029SOL     OW51488   1.432   5.420  10.665 -0.7266 -0.0411 -0.6174
16029SOL    HW151489   1.370   5.404  10.594  0.5992 -2.0012 -1.4073
16029SOL    HW251490   1.457   5.333  10.695 -0.3670  0.7372  1.5027
16030SOL     OW51491   4.982   9.074   8.431  0.1145  0.0144  0.2466
16030SOL    HW151492   4.897   9.085   8.386  0.6575  0.5280 -0.6859
16030SOL    HW251493   4.962   9.091   8.523 -0.5133  1.7288 -0.1505
16031SOL     OW51494   9.073   2.152  10.510 -0.3369 -0.2249  0.4791
16031SOL    HW151495   9.097   2.074  10.460 -0.4527  0.1645 -0.1930
16031SOL    HW251496   9.073   2.223  10.446 -0.8256  0.2220  0.9605
16032SOL     OW51497   6.362  10.122   0.972 -0.0817 -0.0312 -0.1418
16032SOL    HW151498   6.379  10.161   0.887 -0.0222  0.0702 -0.0848
16032SOL    HW251499   6.413  10.176   1.033  0.5716 -0.6359 -0.1481
16033SOL     OW51500   9.661   7.146   5.684  0.1064 -0.3589  0.0215
16033SOL    HW151501   9.736   7.144   5.744  0.2474 -1.3293 -0.1785
16033SOL    HW251502   9.621   7.060   5.692  0.1308 -0.5090 -1.2658
16034SOL     OW51503   4.935   6.667   9.888  0.2379  0.7320 -0.2226
16034SOL    HW151504   4.847   6.698   9.910  0.1073  1.1437 -1.2569
16034SOL    HW251505   4.966   6.624   9.968 -1.4350 -0.6725 -0.2636
16035SOL     OW51506   8.433   1.850   9.950  0.4818  0.0694  0.1426
16035SOL    HW151507   8.354   1.796   9.957 -1.0278  1.8509 -1.8990
16035SOL    HW251508   8.485   1.807   9.882  0.6775 -0.3601  0.5505
16036SOL     OW51509   0.191  10.230   1.889  0.0659 -0.5995 -0.1242
16036SOL    HW151510   0.100  10.207   1.907  0.2340 -1.9096 -0.8014
16036SOL    HW251511   0.211  10.299   1.952 -1.1256 -0.9150  0.6481
16037SOL     OW51512   6.711   5.119   3.053 -0.6842  0.2149 -0.3638
16037SOL    HW151513   6.633   5.099   3.105  0.2283  1.5390  1.6537
16037SOL    HW251514   6.784   5.099   3.111  0.4686  0.0434 -1.8131
16038SOL     OW51515   0.517   7.411   2.061 -0.5565  0.4408  0.2241
16038SOL    HW151516   0.512   7.315   2.062  0.9730  0.2919 -1.7579
16038SOL    HW251517   0.429   7.439   2.035 -1.4245 -0.3216  2.1863
16039SOL     OW51518   2.601   3.552  10.915  0.3313  0.2401 -0.3458
16039SOL    HW151519   2.615   3.594  11.000 -0.2331  2.0388 -1.0884
16039SOL    HW251520   2.676   3.579  10.862  1.0244 -1.4008 -0.2749
16040SOL     OW51521   0.802   2.457   3.508 -0.3563  0.2801  0.0639
16040SOL    HW151522   0.894   2.481   3.512 -0.5751  1.0149  2.2703
16040SOL    HW251523   0.755   2.540   3.519 -1.2387 -0.2727  0.6855
16041SOL     OW51524   5.335   0.519   2.925 -0.2279  0.0748 -0.2905
16041SOL    HW151525   5.328   0.570   3.005  0.7732 -1.4803  0.8374
16041SOL    HW251526   5.256   0.541   2.876 -0.1846  2.1261  0.4438
16042SOL     OW51527   6.926   0.892   7.827 -0.5539  0.3047 -0.2455
16042SOL    HW151528   6.960   0.900   7.916 -0.6426 -0.4765 -0.1364
16042SOL    HW251529   7.000   0.913   7.770 -1.0390  3.0713 -0.0178
16043SOL     OW51530   2.446   1.046   5.829  0.0449  0.3346  0.1728
16043SOL    HW151531   2.367   1.072   5.783 -0.2962 -0.3449  0.3581
16043SOL    HW251532   2.509   1.116   5.811 -0.6097  0.9000  0.0654
16044SOL     OW51533   4.410   6.049   7.516  0.0260  0.6127 -0.3788
16044SOL    HW151534   4.438   6.041   7.425 -0.3054  2.6348 -0.7008
16044SOL    HW251535   4.365   6.133   7.521  1.1639  1.1818  1.9453
16045SOL     OW51536   5.701  10.000   3.137  0.5215  0.4751  0.3320
16045SOL    HW151537   5.613   9.964   3.149  0.2749  1.3829  1.3917
16045SOL    HW251538   5.700  10.082   3.186  1.1309  1.8310 -1.7838
16046SOL     OW51539   7.799   7.278   4.628 -0.2304  0.4600  0.1043
16046SOL    HW151540   7.790   7.363   4.584  0.6615  0.4135 -0.1861
16046SOL    HW251541   7.890   7.276   4.658 -1.1768  1.2310  3.5037
16047SOL     OW51542   8.424  10.840   9.895  0.2079  0.3524  0.6263
16047SOL    HW151543   8.353  10.813   9.954  0.1341 -0.5183  0.1523
16047SOL    HW251544   8.503  10.833   9.948  0.1609 -0.5722  0.5952
16048SOL     OW51545   1.571   8.382   7.074  1.1756 -0.5759 -0.0616
16048SOL    HW151546   1.634   8.318   7.039  1.3017  0.1445 -1.2138
16048SOL    HW251547   1.559   8.444   7.003 -1.8387 -1.3834 -0.3963
16049SOL     OW51548  10.814   9.378   8.033  0.0032 -0.2767 -0.8919
16049SOL    HW151549  10.854   9.362   7.947  1.2080 -0.3498 -0.3511
16049SOL    HW251550  10.844   9.465   8.057 -0.3582 -0.2433 -0.5643
16050SOL     OW51551   7.204   0.516   7.039  0.1419  0.0514  0.2860
16050SOL    HW151552   7.202   0.421   7.035 -0.4171  0.0585  0.3912
16050SOL    HW251553   7.295   0.537   7.059  0.7467 -0.3825 -1.7514
16051SOL     OW51554   2.407   9.721   1.299  0.3180 -0.4887  0.2920
16051SOL    HW151555   2.463   9.647   1.322 -0.9816 -1.3088  0.9007
16051SOL    HW251556   2.320   9.683   1.286 -0.5404  1.0050  1.3143
16052SOL     OW51557   1.183   5.488   7.699  0.0719  0.4257  0.5063
16052SOL    HW151558   1.265   5.535   7.684  1.9673 -2.7573 -0.0331
16052SOL    HW251559   1.142   5.533   7.773  1.2150  3.3904 -0.5368
16053SOL     OW51560  10.161   4.795   0.143  0.4247  0.0873 -0.5055
16053SOL    HW151561  10.231   4.750   0.189  0.3413 -0.1971 -0.6526
16053SOL    HW251562  10.189   4.795   0.051  0.7867  1.0147 -0.4051
16054SOL     OW51563   0.185   8.398   6.777  0.1073 -0.9044 -0.4942
16054SOL    HW151564   0.186   8.341   6.854 -0.2781 -0.5814 -0.2462
16054SOL    HW251565   0.266   8.377   6.731  0.9372 -0.2368  0.6282
16055SOL     OW51566   3.536  10.707   1.293  0.4654 -0.4764  0.0761
16055SOL    HW151567   3.487  10.703   1.375  0.9210  0.1092  0.3886
16055SOL    HW251568   3.628  10.717   1.321  0.6710 -0.7370 -0.4999
16056SOL     OW51569   1.117   3.710   4.735  0.2205  0.1138  0.6233
16056SOL    HW151570   1.042   3.693   4.678  0.4416  1.1154  0.0095
16056SOL    HW251571   1.194   3.696   4.680  0.4235  2.0799  0.3168
16057SOL     OW51572   7.276   3.240   0.595 -0.0084 -0.7118 -0.3768
16057SOL    HW151573   7.350   3.206   0.645 -0.6564 -0.5822  0.6932
16057SOL    HW251574   7.209   3.172   0.601 -0.2471 -0.5109 -0.7169
16058SOL     OW51575   5.587   8.382   5.718 -0.2166  0.3826  0.4279
16058SOL    HW151576   5.520   8.354   5.780 -0.9370 -1.0147 -0.8987
16058SOL    HW251577   5.615   8.468   5.749 -0.4826 -0.2926  2.6864
16059SOL     OW51578   9.555   8.725   2.335  0.0451 -0.4981 -0.0304
16059SOL    HW151579   9.500   8.649   2.355  0.5934 -0.5571  1.3849
16059SOL    HW251580   9.506   8.774   2.269 -0.5381 -1.8193 -0.6086
16060SOL     OW51581   2.202   0.194   9.080  0.4801 -0.4358 -0.5907
16060SOL    HW151582   2.255   0.256   9.131 -0.6958 -0.9010  1.2849
16060SOL    HW251583   2.151   0.249   9.020  0.5995  0.2818 -0.0461
16061SOL     OW51584   4.982  10.242   6.000 -0.1141 -0.2209 -0.5070
16061SOL    HW151585   5.070  10.255   6.036  0.8285 -1.1694 -2.3147
16061SOL    HW251586   4.928  10.221   6.076  1.1421  0.6616  0.6893
16062SOL     OW51587   4.806   7.146   3.391 -0.8567  0.1935  0.4248
16062SOL    HW151588   4.745   7.146   3.316  0.1536  2.7045 -0.5257
16062SOL    HW251589   4.761   7.197   3.458 -1.1621 -0.8429  1.0309
16063SOL     OW51590   4.884   6.984   9.785 -0.2745  0.3581 -0.1046
16063SOL    HW151591   4.893   7.072   9.749  1.1060 -0.6174 -2.3422
16063SOL    HW251592   4.851   6.998   9.874  1.5909  3.2279  0.2815
16064SOL     OW51593   1.610   7.313   6.706  0.0553  0.1474  0.0537
16064SOL    HW151594   1.555   7.249   6.661  1.2875 -0.1720 -1.0230
16064SOL    HW251595   1.589   7.396   6.664  2.7965 -0.4377 -2.8137
16065SOL     OW51596   0.384   1.377   9.830 -0.1532  0.2244 -0.2328
16065SOL    HW151597   0.374   1.282   9.838  2.4623 -0.0586  0.4989
16065SOL    HW251598   0.380   1.409   9.921  0.6588  0.5826 -0.3153
16066SOL     OW51599   0.152   5.037   6.924  0.1555 -0.4817 -0.0323
16066SOL    HW151600   0.115   5.122   6.900 -2.2482 -1.3670  0.2751
16066SOL    HW251601   0.164   4.991   6.841  2.2315  0.3640 -0.2772
16067SOL     OW51602   4.482   3.311   9.590  0.1301 -0.2082 -0.4939
16067SOL    HW151603   4.409   3.327   9.529  0.2792 -1.3699 -1.0048
16067SOL    HW251604   4.455   3.354   9.671 -0.5813  0.4034 -1.0346
16068SOL     OW51605   6.050  10.138   6.952 -0.0743 -0.0894 -0.1264
16068SOL    HW151606   6.142  10.114   6.961  0.3899  1.8006  0.5727
16068SOL    HW251607   6.023  10.165   7.039 -1.0105  0.3321 -0.5313
16069SOL     OW51608   2.479   9.989   7.863  0.2352 -0.4384 -0.9587
16069SOL    HW151609   2.563  10.031   7.842  0.0682  0.8506  0.6646
16069SOL    HW251610   2.491   9.957   7.953 -0.8654 -0.6051 -0.8657
16070SOL     OW51611   8.835   5.623   9.228 -0.2291 -0.8530 -0.3067
16070SOL    HW151612   8.913   5.575   9.200  0.5657  0.7079 -0.9083
16070SOL    HW251613   8.869   5.689   9.289 -0.3063  2.5072 -3.4909
16071SOL     OW51614   1.364   5.044   3.082 -0.6905 -0.4415 -0.1261
16071SOL    HW151615   1.378   5.038   2.988 -3.2813 -0.6850 -0.5585
16071SOL    HW251616   1.356   4.953   3.111 -2.5845 -0.3437 -0.1979
16072SOL     OW51617   7.798   9.605   0.472  0.3003 -0.1788 -0.2861
16072SOL    HW151618   7.863   9.534   0.473 -1.1758 -1.5828  0.8047
16072SOL    HW251619   7.808   9.647   0.558 -0.8490 -1.0087  0.2664
16073SOL     OW51620   0.326   6.336   0.321  0.2632 -0.2699  0.0968
16073SOL    HW151621   0.338   6.423   0.283 -0.6540 -0.0300  0.3337
16073SOL    HW251622   0.284   6.285   0.251  0.3394 -0.3734  0.1272
16074SOL     OW51623  10.453   4.545   1.029 -0.4021  0.1927  0.1540
16074SOL    HW151624  10.437   4.591   0.946  0.2285 -1.9026 -1.2034
16074SOL    HW251625  10.366   4.535   1.068 -0.6330  1.8141  0.1382
16075SOL     OW51626   2.315   2.769   7.996 -0.7823 -0.0579  0.1325
16075SOL    HW151627   2.388   2.782   8.056 -1.8025  0.7708  1.2492
16075SOL    HW251628   2.301   2.856   7.957  0.4446 -0.7593 -2.0717
16076SOL     OW51629   6.426   3.423   8.249 -0.2107  0.3998  0.0501
16076SOL    HW151630   6.343   3.382   8.273 -0.5695 -0.0473 -1.7910
16076SOL    HW251631   6.402   3.498   8.195  0.5651 -1.0855 -2.5148
16077SOL     OW51632   1.379   0.797   9.482 -0.2327 -0.4040  0.4563
16077SOL    HW151633   1.322   0.873   9.496  0.6963  0.5035 -0.5433
16077SOL    HW251634   1.364   0.772   9.391  1.8674  0.6438 -0.2207
16078SOL     OW51635  10.765  10.043   4.197  0.2769 -0.5153 -0.0267
16078SOL    HW151636  10.780  10.089   4.280  0.2088  0.0492 -0.3203
16078SOL    HW251637  10.842  10.063   4.144  0.0394 -0.3705 -0.3207
16079SOL     OW51638   8.232   2.249   4.599  0.1653  0.7914  0.2490
16079SOL    HW151639   8.159   2.260   4.659  0.2357  0.9611  0.3030
16079SOL    HW251640   8.193   2.259   4.512  0.2051  1.3481  0.2900
16080SOL     OW51641   7.337   9.657   2.299  0.4157  0.6888 -0.0382
16080SOL    HW151642   7.303   9.580   2.252  0.8498  0.3978  0.1131
16080SOL    HW251643   7.425   9.630   2.327  0.1274  0.8144  1.0328
16081SOL     OW51644   0.412   2.498   6.458  0.0179 -0.4677 -0.3305
16081SOL    HW151645   0.334   2.441   6.458  1.4110 -2.4923 -0.9121
16081SOL    HW251646   0.466   2.464   6.386  2.1368 -0.1429  1.0241
16082SOL     OW51647   2.996   9.217   7.594  0.0372 -0.0707  0.5547
16082SOL    HW151648   3.047   9.292   7.564 -0.3238 -0.4108 -1.0372
16082SOL    HW251649   2.918   9.255   7.635  0.8805  0.4250  1.7384
16083SOL     OW51650   2.171   4.428   7.696 -0.0099  1.2071 -0.1736
16083SOL    HW151651   2.163   4.434   7.791 -0.4559 -0.4716 -0.0739
16083SOL    HW251652   2.115   4.498   7.663 -2.3262 -0.0635  0.7959
16084SOL     OW51653   8.941   4.577  10.458 -0.5199  0.0518  0.0114
16084SOL    HW151654   9.002   4.562  10.530  0.9513  0.2077 -1.1614
16084SOL    HW251655   8.862   4.530  10.483  0.0102 -0.0150  1.6516
16085SOL     OW51656   8.945   9.215   4.838 -0.4396  0.2988  0.5772
16085SOL    HW151657   9.026   9.169   4.861 -0.0850  0.5906 -0.0565
16085SOL    HW251658   8.875   9.161   4.876 -0.2098 -1.9984 -1.9150
16086SOL     OW51659   5.462   5.992   9.711 -0.2360  0.1687  0.3821
16086SOL    HW151660   5.458   5.898   9.725  1.3580 -0.6080 -3.3858
16086SOL    HW251661   5.387   6.011   9.654  0.4614  0.8472 -0.3226
16087SOL     OW51662   7.529   4.950   3.725 -0.0238  0.3258  0.4643
16087SOL    HW151663   7.575   5.032   3.710 -1.0115  0.6127 -1.3852
16087SOL    HW251664   7.540   4.932   3.818  2.0784  1.3873  0.4760
16088SOL     OW51665   1.985   1.249   6.992  0.4101 -0.0956  0.2826
16088SOL    HW151666   2.010   1.175   7.047 -0.7188 -0.1663  0.7290
16088SOL    HW251667   1.891   1.238   6.978  0.3689  0.8420 -0.2707
16089SOL     OW51668   9.185   5.544   6.755  0.4870  0.2040  0.3229
16089SOL    HW151669   9.150   5.565   6.842  1.7812 -0.5315  1.0534
16089SOL    HW251670   9.269   5.590   6.752 -0.1057  1.2559 -1.0641
16090SOL     OW51671   4.416   2.453   8.224 -0.4513  0.2796  0.9339
16090SOL    HW151672   4.496   2.487   8.184 -0.8965 -0.1825 -0.4051
16090SOL    HW251673   4.357   2.435   8.150 -1.4496 -0.2709  1.8221
16091SOL     OW51674   4.284   0.481   2.334  0.0849  0.3618 -0.2561
16091SOL    HW151675   4.215   0.416   2.347  0.0778  0.4296  0.0639
16091SOL    HW251676   4.254   0.534   2.260  1.4052 -1.7522 -2.4715
16092SOL     OW51677   7.606   7.810   8.581 -0.0563 -0.5114 -0.2949
16092SOL    HW151678   7.619   7.870   8.507 -0.3921  0.1852  0.1923
16092SOL    HW251679   7.556   7.737   8.545 -1.5192  0.5157 -0.4737
16093SOL     OW51680   2.503   5.524   3.341 -0.3308  0.2549 -0.0202
16093SOL    HW151681   2.450   5.447   3.324 -0.9537  0.6996 -0.1363
16093SOL    HW251682   2.448   5.580   3.396  0.6332  0.0189  1.2131
16094SOL     OW51683  10.004   3.980   9.492  0.5700 -0.3865  0.3565
16094SOL    HW151684  10.063   4.055   9.489  0.8934 -0.6524 -0.0385
16094SOL    HW251685   9.978   3.966   9.401 -0.5187  0.0471  0.5806
16095SOL     OW51686   1.574   7.782   9.809  0.1690  0.3017  0.2679
16095SOL    HW151687   1.557   7.705   9.755  0.0158  1.2839 -1.1227
16095SOL    HW251688   1.495   7.835   9.802  0.3259  0.6642  1.0916
16096SOL     OW51689   2.421   9.729   5.507 -0.1591 -0.3301  0.2356
16096SOL    HW151690   2.368   9.805   5.484  1.9516  1.0006 -0.4632
16096SOL    HW251691   2.475   9.713   5.430  0.0954 -1.9904  0.7204
16097SOL     OW51692   3.913   4.776   4.736  0.7132  0.4407 -0.5304
16097SOL    HW151693   3.820   4.776   4.717  0.7822 -1.1861 -1.0192
16097SOL    HW251694   3.941   4.685   4.723  2.3457  0.8657 -0.3063
16098SOL     OW51695   5.566   5.999   0.466 -0.4117  0.1346 -0.0410
16098SOL    HW151696   5.517   5.967   0.541  0.2483  0.1635  0.4174
16098SOL    HW251697   5.564   5.928   0.403  0.4895 -0.5862  0.7032
16099SOL     OW51698   9.674   8.429   8.187 -0.8220  0.3245  0.2801
16099SOL    HW151699   9.624   8.398   8.112  1.1566  0.6991 -1.2767
16099SOL    HW251700   9.730   8.356   8.211 -0.7438  0.5389  0.7744
16100SOL     OW51701   1.086   6.522   5.932 -0.3431  0.1171 -0.2731
16100SOL    HW151702   1.091   6.591   5.998 -0.0896  1.0734 -1.2584
16100SOL    HW251703   1.157   6.543   5.871 -0.1326 -1.1429 -0.4844
16101SOL     OW51704   4.622   9.263   4.844  0.3072  0.4042  0.2340
16101SOL    HW151705   4.711   9.283   4.873 -0.4903  1.0102  2.4587
16101SOL    HW251706   4.594   9.190   4.899 -0.7913  0.6046 -0.0243
16102SOL     OW51707   8.700   9.287   7.958 -0.1988  0.6060 -0.7082
16102SOL    HW151708   8.750   9.279   8.039 -1.0188  2.3512  0.0210
16102SOL    HW251709   8.765   9.314   7.893  0.3838 -0.3774 -0.5520
16103SOL     OW51710   5.379   8.102   0.280 -0.7009  0.3919 -0.5295
16103SOL    HW151711   5.434   8.092   0.358  0.3193 -0.9878 -1.3646
16103SOL    HW251712   5.437   8.142   0.215 -1.5500  1.5521 -0.6052
16104SOL     OW51713   4.816   3.506   4.074  0.2560 -0.3057 -0.2099
16104SOL    HW151714   4.886   3.570   4.064  1.8850 -1.7475  1.1789
16104SOL    HW251715   4.816   3.457   3.992  0.3066  0.2415 -0.5389
16105SOL     OW51716   7.618   3.289   9.502 -0.0426  0.5173  0.1409
16105SOL    HW151717   7.528   3.271   9.530  0.2115  0.9267  1.2625
16105SOL    HW251718   7.615   3.282   9.407 -0.4695 -3.2929  0.2603
16106SOL     OW51719   3.613   0.654   8.737  0.1889 -0.6900  0.4631
16106SOL    HW151720   3.543   0.717   8.720  1.1545  0.0533 -0.9206
16106SOL    HW251721   3.674   0.700   8.794  0.7629 -0.4589 -0.3296
16107SOL     OW51722   6.952   9.936   1.082  0.1574 -0.0296  0.0045
16107SOL    HW151723   6.886   9.920   1.015  1.0460  1.7517 -1.3826
16107SOL    HW251724   6.938  10.027   1.108  1.4831  0.1026  0.3253
16108SOL     OW51725   2.487   3.671   8.803 -0.3902 -0.1755 -0.0444
16108SOL    HW151726   2.394   3.679   8.784 -0.1786  1.2698 -0.5269
16108SOL    HW251727   2.531   3.687   8.720  0.3126 -0.9120  0.1596
16109SOL     OW51728   6.095   1.299   0.613 -0.2232  0.0562 -0.8892
16109SOL    HW151729   6.021   1.273   0.668  1.0478 -1.6745  0.1297
16109SOL    HW251730   6.118   1.220   0.564  1.3140  0.3600 -0.7111
16110SOL     OW51731   9.878   9.884   6.664  0.3300  0.3558  0.7863
16110SOL    HW151732   9.931   9.804   6.660  0.6727  0.6553 -1.3483
16110SOL    HW251733   9.941   9.955   6.651 -0.4095  0.7817 -0.5859
16111SOL     OW51734   9.789   4.676   6.478 -0.0011 -0.1051 -0.5137
16111SOL    HW151735   9.734   4.753   6.462 -1.6404 -1.1886 -0.3552
16111SOL    HW251736   9.832   4.694   6.561 -0.9550  0.3499 -0.0957
16112SOL     OW51737   2.842   3.042   2.109  0.2409  0.1313 -0.2451
16112SOL    HW151738   2.911   3.105   2.086 -1.2756  1.7753 -0.5454
16112SOL    HW251739   2.797   3.024   2.026 -1.1647  0.9817  0.2898
16113SOL     OW51740   9.082   2.976   5.797 -0.6125 -0.0818  0.0642
16113SOL    HW151741   9.051   2.946   5.882 -0.7511 -2.5778 -0.8007
16113SOL    HW251742   9.010   3.029   5.762 -1.5548 -1.0657  0.4847
16114SOL     OW51743   9.520   6.286   9.915  0.5200 -0.2090 -0.1081
16114SOL    HW151744   9.585   6.218   9.936 -0.2470 -1.1683 -0.7355
16114SOL    HW251745   9.566   6.344   9.854  0.9650 -0.5786 -0.1328
16115SOL     OW51746   4.254   7.680   6.893  0.5642  0.1032  1.0387
16115SOL    HW151747   4.170   7.717   6.922  0.1042  1.2872 -1.5289
16115SOL    HW251748   4.230   7.619   6.824  1.8011  0.5491  0.1842
16116SOL     OW51749  10.119   8.410   6.719 -0.4376  0.0354  0.0265
16116SOL    HW151750  10.112   8.367   6.634  0.5067 -1.0585  0.4771
16116SOL    HW251751  10.072   8.353   6.780  0.1422  0.0408  0.4916
16117SOL     OW51752   0.220   3.719   3.371  1.0008 -0.4121  0.9600
16117SOL    HW151753   0.280   3.680   3.434  0.8633 -1.2299  0.5929
16117SOL    HW251754   0.273   3.784   3.325  1.5581 -0.9867  0.7773
16118SOL     OW51755   2.715   7.298   3.924  0.0737  0.3299  0.3102
16118SOL    HW151756   2.730   7.346   4.006  0.2836 -0.1797  0.5746
16118SOL    HW251757   2.673   7.362   3.866 -2.2030  0.0725  1.5585
16119SOL     OW51758   9.650   8.953   9.393 -0.9615 -0.0164  0.4782
16119SOL    HW151759   9.587   8.906   9.339 -0.0221 -0.7000 -0.0459
16119SOL    HW251760   9.702   8.885   9.435  0.0001  0.5292  0.2134
16120SOL     OW51761   3.704   1.291   8.502  0.3104 -0.0721  0.1667
16120SOL    HW151762   3.685   1.360   8.439  0.4049 -0.7152 -0.5879
16120SOL    HW251763   3.727   1.337   8.583  0.5611  0.7708 -0.3726
16121SOL     OW51764   2.007   6.664   8.434 -0.3303  0.1533 -0.0619
16121SOL    HW151765   2.086   6.610   8.444  1.1859  2.2898 -0.0038
16121SOL    HW251766   2.007   6.690   8.343 -1.5471 -0.5905 -0.3048
16122SOL     OW51767   1.182   4.544   1.577 -0.3235  0.3684  0.4256
16122SOL    HW151768   1.098   4.544   1.532 -0.0154 -0.3603 -0.1639
16122SOL    HW251769   1.191   4.633   1.611 -0.9454  0.6923 -0.2311
16123SOL     OW51770   6.001   7.726   2.478 -0.8679  0.2942 -0.1979
16123SOL    HW151771   5.987   7.777   2.558  1.5506  0.1782  0.3932
16123SOL    HW251772   5.975   7.637   2.502 -1.4476  0.5152  0.0081
16124SOL     OW51773   9.076   2.511  10.462  0.3764  0.4565  0.0823
16124SOL    HW151774   9.096   2.512  10.368  3.9912 -3.3399  0.4790
16124SOL    HW251775   9.149   2.559  10.502  0.3884 -0.3032  1.0124
16125SOL     OW51776   6.552   6.001   0.979 -0.1052  0.0096  0.5957
16125SOL    HW151777   6.572   5.928   1.037  0.8324  0.0990  0.3943
16125SOL    HW251778   6.587   6.078   1.024 -0.7862  0.3021  0.6469
16126SOL     OW51779   7.923   3.852   0.460  0.0361 -0.3071 -0.5243
16126SOL    HW151780   7.973   3.775   0.433  1.1297 -0.5275  1.9476
16126SOL    HW251781   7.949   3.920   0.398  2.0232 -0.9000 -0.3925
16127SOL     OW51782   2.199   7.426   2.929 -0.2490 -0.2697  0.3847
16127SOL    HW151783   2.103   7.428   2.934 -0.3138  0.6993 -0.7841
16127SOL    HW251784   2.226   7.511   2.964  0.1551 -0.2848  0.1127
16128SOL     OW51785   9.262   6.742   9.895 -0.4983 -0.0293 -0.0447
16128SOL    HW151786   9.245   6.667   9.838  0.4565 -1.0382  0.9450
16128SOL    HW251787   9.200   6.808   9.866 -0.2951 -0.6320 -1.9842
16129SOL     OW51788  10.837  10.715   4.848  0.0122 -0.1380 -0.1503
16129SOL    HW151789  10.853  10.622   4.863  0.4747  0.0696  0.6891
16129SOL    HW251790  10.865  10.730   4.758 -1.9833 -1.2284 -1.0159
16130SOL     OW51791   1.950   2.167   3.731 -0.7689 -0.5355 -0.3309
16130SOL    HW151792   1.976   2.230   3.664 -1.0278 -0.6554 -0.5446
16130SOL    HW251793   1.855   2.177   3.738 -0.4965  1.3471  1.8821
16131SOL     OW51794   7.402   0.188   6.102  0.1169 -0.6685 -0.1332
16131SOL    HW151795   7.447   0.118   6.054 -0.9591 -0.4662 -1.4972
16131SOL    HW251796   7.309   0.167   6.093 -0.2944  1.4345 -1.4234
16132SOL     OW51797   9.340   3.264   5.569  0.7831  0.0452 -0.0827
16132SOL    HW151798   9.249   3.236   5.554  0.7070  0.9956 -1.7003
16132SOL    HW251799   9.332   3.352   5.605  1.0199  0.7772 -1.7041
16133SOL     OW51800  10.200   4.491   8.199 -0.0755 -0.0447  0.2211
16133SOL    HW151801  10.156   4.411   8.169 -0.5232  0.4678 -0.5056
16133SOL    HW251802  10.129   4.546   8.232  0.3813 -0.4997  2.0446
16134SOL     OW51803   2.588   1.513   0.418 -0.4735  0.2368  0.2311
16134SOL    HW151804   2.535   1.587   0.389  0.3069  1.0983  0.9271
16134SOL    HW251805   2.528   1.439   0.418 -1.2831  0.8716 -0.4513
16135SOL     OW51806   9.261   7.760   2.011  0.3214  0.1225 -0.4791
16135SOL    HW151807   9.275   7.854   2.018  0.0915  0.2085 -1.0792
16135SOL    HW251808   9.196   7.741   2.078 -0.9892  0.7149 -1.5299
16136SOL     OW51809   1.618   4.882   3.142 -0.4852  0.1620 -0.0551
16136SOL    HW151810   1.661   4.815   3.089  0.6414  0.1721  0.8082
16136SOL    HW251811   1.533   4.844   3.163  1.0302 -2.2048  2.5321
16137SOL     OW51812   8.283   6.415  10.000  0.0696 -0.4036 -0.0270
16137SOL    HW151813   8.252   6.355   9.932  0.2649 -0.7663  0.2016
16137SOL    HW251814   8.347   6.470   9.956 -0.3416 -0.1451 -0.3172
16138SOL     OW51815   3.184   6.149   8.263  0.0825  0.2983 -0.0661
16138SOL    HW151816   3.258   6.180   8.210 -1.2869  0.4425 -2.0109
16138SOL    HW251817   3.114   6.135   8.200 -2.0210  1.5261  1.8460
16139SOL     OW51818   1.585   8.537   6.758 -0.2596  0.1920  0.4089
16139SOL    HW151819   1.550   8.626   6.757 -0.4602  0.1088 -0.3876
16139SOL    HW251820   1.590   8.511   6.666  3.7305  0.9043  0.2598
16140SOL     OW51821   8.009   8.434   8.762  0.1095  0.1781  0.4187
16140SOL    HW151822   7.947   8.503   8.739  1.7821  1.4538 -0.5682
16140SOL    HW251823   7.972   8.354   8.725 -0.8734  0.9283 -0.2531
16141SOL     OW51824   0.423   6.850   8.773  0.3962  0.1919  0.3590
16141SOL    HW151825   0.451   6.766   8.810  1.5110  0.3668 -0.0524
16141SOL    HW251826   0.331   6.858   8.800  0.4232 -0.9026  0.8564
16142SOL     OW51827   7.246   1.241   3.934 -0.5724  0.1105  0.2962
16142SOL    HW151828   7.320   1.194   3.895 -0.3301 -0.3320  1.2662
16142SOL    HW251829   7.283   1.323   3.965 -0.8549  0.6583 -0.7719
16143SOL     OW51830   6.048   1.792   0.444  0.1778 -0.3887  0.1730
16143SOL    HW151831   6.117   1.845   0.485  2.3131 -0.6856 -2.6811
16143SOL    HW251832   6.053   1.708   0.489  1.6740 -0.3722  0.0841
16144SOL     OW51833   6.422   3.704   8.318  0.0394 -0.1558 -0.2237
16144SOL    HW151834   6.381   3.789   8.333 -0.3652 -0.3489 -0.2143
16144SOL    HW251835   6.478   3.717   8.242 -0.6933 -0.1045 -0.7589
16145SOL     OW51836   7.377   1.893   7.258  0.4269  0.0656  0.0295
16145SOL    HW151837   7.397   1.980   7.225  0.3342  1.4269  3.1395
16145SOL    HW251838   7.282   1.885   7.251  0.4842 -0.0284 -0.7213
16146SOL     OW51839   2.389   9.189   8.784 -0.4639 -0.4408  0.5977
16146SOL    HW151840   2.446   9.114   8.768 -0.7025 -0.5264  0.1237
16146SOL    HW251841   2.322   9.183   8.715  0.8269  1.4672 -0.9483
16147SOL     OW51842   1.649   2.980   8.670  0.1458 -0.1099 -0.0290
16147SOL    HW151843   1.659   2.892   8.633  1.1872 -0.4926  1.0930
16147SOL    HW251844   1.709   2.981   8.745 -1.5768  0.7523  1.4212
16148SOL     OW51845   2.973   7.509   9.900 -0.2165 -0.0399 -0.0360
16148SOL    HW151846   3.041   7.577   9.894 -0.1227 -0.1116  0.1990
16148SOL    HW251847   2.963   7.478   9.810  0.3655 -0.3184 -0.0123
16149SOL     OW51848   5.365   3.450   4.965  0.0268 -0.4432 -0.7024
16149SOL    HW151849   5.426   3.402   5.022 -2.1011 -0.2703  1.9459
16149SOL    HW251850   5.417   3.524   4.932  1.9071 -1.6689 -0.6505
16150SOL     OW51851   9.969   9.277   2.553 -0.1702  0.3725 -0.5558
16150SOL    HW151852  10.024   9.324   2.616 -0.9064  0.7044 -0.1471
16150SOL    HW251853  10.027   9.212   2.515  0.1544 -0.2426  0.9158
16151SOL     OW51854   8.102   7.614   2.161 -0.2974  0.1978 -0.3220
16151SOL    HW151855   8.033   7.549   2.145 -1.6759  0.9510  2.0848
16151SOL    HW251856   8.141   7.587   2.245 -0.3125  1.9431  0.2838
16152SOL     OW51857   2.945   6.179   4.964  0.0875  0.1970  0.3375
16152SOL    HW151858   2.953   6.089   4.932 -1.4560 -0.1171  0.7347
16152SOL    HW251859   3.015   6.227   4.920 -0.2211 -0.8007 -1.3141
16153SOL     OW51860   5.330   7.365   2.545  0.3488 -0.1349 -0.0899
16153SOL    HW151861   5.387   7.363   2.468  0.0420  0.6113 -0.3492
16153SOL    HW251862   5.241   7.363   2.510  0.1531  2.0813  0.1012
16154SOL     OW51863   3.016   9.392   9.434  0.4256  0.7544 -0.4754
16154SOL    HW151864   2.966   9.451   9.376 -0.2118 -2.0578 -3.0321
16154SOL    HW251865   2.951   9.330   9.466  1.3756  0.3628  0.7654
16155SOL     OW51866   4.513   1.781  10.231 -0.1459 -0.3271 -0.1985
16155SOL    HW151867   4.513   1.782  10.327  1.0715 -0.7997 -0.1668
16155SOL    HW251868   4.555   1.863  10.206 -0.0346 -0.4172 -0.3093
16156SOL     OW51869   3.600   9.038   3.629  0.5106  0.2975 -0.1553
16156SOL    HW151870   3.690   9.065   3.606 -0.3816  0.8107 -3.6490
16156SOL    HW251871   3.561   9.013   3.545 -2.8486  0.7613  1.1461
16157SOL     OW51872   5.086   1.970   0.847 -0.9393 -0.2332  0.2176
16157SOL    HW151873   4.992   1.954   0.837 -0.9265 -0.0239 -0.3040
16157SOL    HW251874   5.114   1.997   0.759 -0.4548  0.0215  0.4509
16158SOL     OW51875   8.518   6.255   0.314  0.3911 -0.1271 -0.2863
16158SOL    HW151876   8.561   6.296   0.390  1.5793  0.6460 -1.3389
16158SOL    HW251877   8.458   6.191   0.353 -0.4802  1.5765  1.3868
16159SOL     OW51878   2.951   4.570   4.318  0.5094  0.2028  0.0243
16159SOL    HW151879   2.863   4.533   4.318  1.1118 -1.2641  0.1606
16159SOL    HW251880   2.985   4.553   4.406  0.6706  1.4558  0.2361
16160SOL     OW51881   7.573   0.205   9.222 -0.2478 -0.2603  0.1492
16160SOL    HW151882   7.527   0.177   9.143  0.6361  3.3823 -1.8856
16160SOL    HW251883   7.643   0.140   9.234 -1.1665 -1.5775 -1.2838
16161SOL     OW51884  10.703   5.438   6.473  0.0985 -0.5366 -0.3344
16161SOL    HW151885  10.739   5.518   6.512  0.5167 -0.1706 -1.4326
16161SOL    HW251886  10.608   5.448   6.483  0.0151  1.0524 -2.1942
16162SOL     OW51887   6.105  10.056  10.509 -0.1745 -0.1540 -0.5941
16162SOL    HW151888   6.175   9.992  10.493 -1.2332 -1.4791 -0.1468
16162SOL    HW251889   6.047  10.012  10.572 -2.2309  0.2642 -2.1044
16163SOL     OW51890   0.987   3.703   1.170 -0.1978  0.1097  0.8894
16163SOL    HW151891   1.042   3.653   1.231  0.6970  1.4850  1.2492
16163SOL    HW251892   1.032   3.786   1.159 -1.2312  0.5461 -0.3417
16164SOL     OW51893   5.100   7.325   8.934  0.1965 -0.4429  0.1105
16164SOL    HW151894   5.123   7.234   8.951 -0.6100 -0.4753  1.1398
16164SOL    HW251895   5.170   7.358   8.877  0.5922 -1.6444 -0.1155
16165SOL     OW51896   1.845   1.916   0.774  0.3985 -0.1587 -0.0402
16165SOL    HW151897   1.899   1.881   0.845  0.7880 -1.4090 -0.9342
16165SOL    HW251898   1.894   1.992   0.742  1.5112 -1.1083 -0.6523
16166SOL     OW51899   1.926   8.662   6.486 -0.1622  0.4898  0.6004
16166SOL    HW151900   1.983   8.734   6.511 -2.1687  1.5736  2.4372
16166SOL    HW251901   1.851   8.705   6.444  0.7427 -0.9485 -2.8399
16167SOL     OW51902   2.457   3.848   0.745 -0.1478  0.1284  0.0808
16167SOL    HW151903   2.382   3.793   0.767 -0.0709  0.0578  0.1653
16167SOL    HW251904   2.425   3.903   0.673 -0.2805  0.0988  0.1160
16168SOL     OW51905   1.024   1.353   2.756  0.5220  0.0760  0.0494
16168SOL    HW151906   1.104   1.358   2.808 -1.0504 -1.2558  2.8672
16168SOL    HW251907   1.045   1.296   2.683  2.1632 -0.1798  0.6884
16169SOL     OW51908   4.138   4.659   9.884 -0.2250 -0.3863  0.6000
16169SOL    HW151909   4.083   4.582   9.867  0.9772 -1.7728  2.5839
16169SOL    HW251910   4.226   4.623   9.896  0.3853  1.3162  1.4335
16170SOL     OW51911   9.645   3.382  10.113  0.8564 -0.1245 -0.5846
16170SOL    HW151912   9.630   3.403  10.205  0.8320 -0.0698 -0.6010
16170SOL    HW251913   9.557   3.366  10.077  0.9097 -0.6507 -0.4771
16171SOL     OW51914   2.597   9.408   3.107 -0.4561  0.5429 -0.2224
16171SOL    HW151915   2.582   9.318   3.135 -1.0423  0.3087 -1.2491
16171SOL    HW251916   2.511   9.450   3.112 -0.2737  0.9171 -0.1942
16172SOL     OW51917   9.521   3.885   3.055  0.2613 -0.2106 -0.1082
16172SOL    HW151918   9.544   3.900   3.146 -1.0038  1.4009  0.0139
16172SOL    HW251919   9.539   3.793   3.039  2.4751 -0.0504  1.1516
16173SOL     OW51920   9.989   9.949   1.438 -0.3840  0.3445 -0.3403
16173SOL    HW151921   9.962   9.921   1.351 -3.5865  1.3982  0.1673
16173SOL    HW251922   9.969   9.874   1.495 -0.9381  0.6201 -0.1606
16174SOL     OW51923   1.712   8.960  10.141  0.0342 -0.7482 -0.0759
16174SOL    HW151924   1.800   8.997  10.131 -1.1199  2.1308 -0.7814
16174SOL    HW251925   1.720   8.869  10.112  2.4508 -0.1209 -1.6679
16175SOL     OW51926   6.712   3.227   8.937 -0.0480 -0.1515  0.6772
16175SOL    HW151927   6.776   3.270   8.994  2.9557 -0.1457 -2.3572
16175SOL    HW251928   6.710   3.137   8.967  0.5262  0.1005  1.5193
16176SOL     OW51929   2.903   4.945   5.000  0.0272  0.2317  0.3128
16176SOL    HW151930   2.822   4.894   5.003 -0.0612  0.2748 -0.8652
16176SOL    HW251931   2.875   5.032   4.970  0.6710 -0.1400 -1.4360
16177SOL     OW51932   6.973   3.883   2.477 -0.0822 -0.0557  0.3164
16177SOL    HW151933   6.890   3.875   2.524  0.3183  1.0065  1.2341
16177SOL    HW251934   6.992   3.794   2.447 -0.6840 -0.6500  1.6171
16178SOL     OW51935   7.474   4.187   8.151  0.3766 -0.2727  0.0411
16178SOL    HW151936   7.482   4.118   8.086 -0.5872 -0.4919  0.1464
16178SOL    HW251937   7.481   4.142   8.235 -2.2966 -0.6074  0.1816
16179SOL     OW51938   5.033   9.231   0.646 -0.0657 -0.0843 -0.0328
16179SOL    HW151939   5.013   9.291   0.717  0.4918  1.9356 -1.4968
16179SOL    HW251940   4.995   9.272   0.568  1.8138 -0.7396 -1.3783
16180SOL     OW51941   4.242   2.577   2.083  0.1523  0.0166  0.1606
16180SOL    HW151942   4.154   2.610   2.099  0.2017  0.9619 -1.3985
16180SOL    HW251943   4.230   2.484   2.063 -0.5969  0.3379 -0.9227
16181SOL     OW51944   8.671   5.402   2.427  0.5542 -0.1062 -0.1238
16181SOL    HW151945   8.635   5.445   2.505  0.3249  0.6668 -0.6446
16181SOL    HW251946   8.594   5.383   2.373  0.7223 -0.5521 -0.2053
16182SOL     OW51947   4.836  10.719   8.877 -0.1019 -0.5705  0.1928
16182SOL    HW151948   4.906  10.770   8.837 -1.8301  0.7628 -1.3604
16182SOL    HW251949   4.813  10.767   8.957  1.1870 -1.4198  1.1055
16183SOL     OW51950   1.952   6.804   1.872  0.4670  0.2553  0.2432
16183SOL    HW151951   2.013   6.870   1.838 -0.4966  0.5122 -1.0902
16183SOL    HW251952   1.901   6.850   1.938  0.9404  0.3607  0.5381
16184SOL     OW51953   6.388   3.228   7.096 -0.5841  0.0902  0.3802
16184SOL    HW151954   6.319   3.273   7.046  0.3618  1.3720  0.1801
16184SOL    HW251955   6.366   3.244   7.187 -0.8836 -0.0084  0.3248
16185SOL     OW51956   5.293   6.661   6.564  0.5077  0.0674  0.3009
16185SOL    HW151957   5.258   6.745   6.595  2.6663  0.4999  1.8000
16185SOL    HW251958   5.263   6.655   6.473 -0.8775  1.7701  0.5851
16186SOL     OW51959   9.208   6.220   3.947 -0.3236  0.0900  0.0032
16186SOL    HW151960   9.135   6.189   4.000 -1.7421  1.2930 -1.1610
16186SOL    HW251961   9.279   6.158   3.965 -1.7085 -1.2903  0.9444
16187SOL     OW51962   9.897   2.091   5.227 -0.3975 -0.5625 -0.1735
16187SOL    HW151963   9.954   2.152   5.181  0.0506 -1.1672 -0.4476
16187SOL    HW251964   9.956   2.043   5.285 -0.8194 -0.4127  0.3750
16188SOL     OW51965   2.475   3.899   8.097 -0.4296 -0.1048  0.3595
16188SOL    HW151966   2.389   3.924   8.064 -2.4892 -4.2578  1.7401
16188SOL    HW251967   2.507   3.834   8.035  0.6424 -0.2411  1.0167
16189SOL     OW51968   3.110   4.777   3.895  0.2313  0.6345  0.0802
16189SOL    HW151969   3.083   4.760   3.986 -1.9661 -2.5319 -0.9934
16189SOL    HW251970   3.079   4.866   3.878 -2.2730  0.1536  1.5476
16190SOL     OW51971   6.494   6.772   9.632  0.2071  0.0610  0.1049
16190SOL    HW151972   6.586   6.752   9.653  0.0372 -1.0441 -0.1022
16190SOL    HW251973   6.473   6.710   9.562 -0.5874  0.5729 -0.1140
16191SOL     OW51974   0.046   8.904   8.013 -0.4836  0.3807  0.3402
16191SOL    HW151975   0.068   8.934   8.101  0.7356 -0.2907  0.2781
16191SOL    HW251976   0.109   8.948   7.956 -1.2338  0.7740 -0.2001
16192SOL     OW51977   4.753   5.401   2.791 -0.0958 -0.0503 -0.7068
16192SOL    HW151978   4.666   5.441   2.796  0.7158  1.7390  0.0635
16192SOL    HW251979   4.772   5.396   2.698 -0.1962  1.5317 -0.8425
16193SOL     OW51980   4.846   0.078   6.165 -0.5622  0.7510  0.0513
16193SOL    HW151981   4.894   0.023   6.227 -0.8080 -0.3692 -0.7122
16193SOL    HW251982   4.772   0.112   6.215  0.4099  1.6370  0.9486
16194SOL     OW51983   1.350   9.991   6.842 -0.1600  0.3692  0.4757
16194SOL    HW151984   1.334  10.022   6.931  3.0998  1.6160  0.7653
16194SOL    HW251985   1.350  10.070   6.788 -0.4737 -0.1954 -0.3867
16195SOL     OW51986   5.982   7.880   0.411  0.0204 -0.2562 -0.2443
16195SOL    HW151987   5.919   7.919   0.350  1.4303  1.8212 -0.4854
16195SOL    HW251988   5.936   7.878   0.495 -0.2501  1.6880 -0.3072
16196SOL     OW51989   0.362   0.754   2.470  0.0671 -0.1002 -0.2313
16196SOL    HW151990   0.447   0.713   2.456  0.4410  0.2380  0.9207
16196SOL    HW251991   0.359   0.825   2.406  0.4096 -0.4480 -0.6455
16197SOL     OW51992   4.261   3.268   4.365  0.3132 -0.4703 -0.5378
16197SOL    HW151993   4.181   3.243   4.411  0.1094 -1.4609 -1.3982
16197SOL    HW251994   4.247   3.240   4.275  1.3077  0.0815 -0.8757
16198SOL     OW51995   8.389   9.789   2.166 -0.3338 -0.4976 -0.6699
16198SOL    HW151996   8.392   9.798   2.071 -0.4302  0.0716 -0.6268
16198SOL    HW251997   8.296   9.774   2.186 -0.3147 -0.6113 -0.6690
16199SOL     OW51998   2.927   7.621  10.327  0.5132 -0.5033 -0.6116
16199SOL    HW151999   2.958   7.569  10.252  0.0015 -2.5509  0.5081
16199SOL    HW252000   2.832   7.617  10.321  0.4711 -0.2878 -0.1190
16200SOL     OW52001   3.530   0.887   7.802 -0.4714 -0.5447  0.0027
16200SOL    HW152002   3.526   0.937   7.720 -1.4798  2.2278  1.6201
16200SOL    HW252003   3.441   0.852   7.813 -0.7163  0.2447  0.5716
16201SOL     OW52004   7.029   2.981   6.372  0.2671 -0.4009 -0.3225
16201SOL    HW152005   7.119   2.968   6.399  0.4061 -0.7591 -0.9362
16201SOL    HW252006   7.032   2.981   6.276  0.0118  2.2440 -0.4075
16202SOL     OW52007   8.687   1.121   2.645  0.7979 -0.0360  0.1043
16202SOL    HW152008   8.769   1.169   2.660  0.3246  1.1451 -0.9020
16202SOL    HW252009   8.696   1.041   2.696  2.9442 -0.3256 -0.6232
16203SOL     OW52010   5.137   9.985   8.554  0.3945 -0.3365 -0.2918
16203SOL    HW152011   5.165  10.006   8.643 -2.4169  2.6573  0.0717
16203SOL    HW252012   5.130  10.070   8.510 -0.5343 -1.5264 -2.6482
16204SOL     OW52013   5.018   0.716   5.050  0.6674 -0.0753  0.5004
16204SOL    HW152014   5.113   0.729   5.052  0.7227  0.5239 -2.1471
16204SOL    HW252015   5.005   0.632   5.007 -0.0124 -0.2302  0.9797
16205SOL     OW52016  10.251  10.039   3.487 -0.2759  0.0147  0.5826
16205SOL    HW152017  10.344  10.021   3.495 -0.1570 -0.2100 -1.0295
16205SOL    HW252018  10.244  10.134   3.495  0.3670  0.2594 -1.2663
16206SOL     OW52019   6.316   4.847   4.711 -0.4203  0.2358 -0.7005
16206SOL    HW152020   6.284   4.803   4.633 -0.2850 -0.9822 -0.0980
16206SOL    HW252021   6.319   4.940   4.688 -3.7464  0.3702 -0.9904
16207SOL     OW52022   7.963   2.007   5.725  0.0335  0.1163  0.1567
16207SOL    HW152023   8.029   2.075   5.716  0.0380  0.2591  1.2130
16207SOL    HW252024   8.001   1.930   5.682  1.3394 -0.1168  1.6547
16208SOL     OW52025   6.672   3.730   2.018  0.3149  0.4803 -0.0183
16208SOL    HW152026   6.700   3.644   1.988  0.8540  0.9549 -0.9407
16208SOL    HW252027   6.610   3.760   1.952  2.1031  1.8674 -1.2033
16209SOL     OW52028   5.812   6.229   2.074  0.1782  0.1556 -0.1714
16209SOL    HW152029   5.907   6.226   2.085  0.0733  2.8783  2.6383
16209SOL    HW252030   5.798   6.287   1.999  0.7250  0.4854 -0.0240
16210SOL     OW52031   8.120   3.989  10.110 -0.1622  0.1060  0.0673
16210SOL    HW152032   8.116   3.948  10.023 -1.8449 -2.3555  1.1803
16210SOL    HW252033   8.040   4.040  10.117 -0.2817 -0.1141  0.3406
16211SOL     OW52034  10.009   0.645   9.162  0.0483 -0.0855  0.2249
16211SOL    HW152035  10.020   0.561   9.118  1.7318 -0.1476  0.6754
16211SOL    HW252036  10.091   0.691   9.145 -0.7879  1.4257  0.1067
16212SOL     OW52037   9.227   0.984   7.356  0.1008  0.0214  0.2110
16212SOL    HW152038   9.251   0.896   7.326  0.8321  0.3080 -0.0574
16212SOL    HW252039   9.170   0.968   7.432 -0.7336 -0.6879 -0.5437
16213SOL     OW52040   5.639   5.920   4.189  0.3636 -0.2100 -0.1618
16213SOL    HW152041   5.627   5.980   4.115  1.0982 -1.1844 -1.1073
16213SOL    HW252042   5.633   5.833   4.150 -1.6944 -0.8200  1.3437
16214SOL     OW52043   5.028   8.227   5.203 -0.3205 -0.1901  0.2383
16214SOL    HW152044   5.113   8.263   5.227 -0.7967  0.6010  0.7716
16214SOL    HW252045   4.974   8.238   5.281 -0.9196 -0.6920 -0.0919
16215SOL     OW52046   6.553   5.291  10.471  0.0897 -0.0309 -0.5597
16215SOL    HW152047   6.466   5.288  10.431 -1.2369 -0.7446  2.1669
16215SOL    HW252048   6.554   5.219  10.534  2.6712 -0.0190 -0.4670
16216SOL     OW52049   4.423  10.311   7.821 -0.0655  0.1386 -0.4985
16216SOL    HW152050   4.476  10.266   7.887  0.4244 -1.1894 -1.7605
16216SOL    HW252051   4.485  10.338   7.754 -0.6891  0.6453 -0.8785
16217SOL     OW52052   0.394   8.744   4.961 -0.0230 -0.8834 -0.0560
16217SOL    HW152053   0.348   8.743   4.877 -1.4991 -2.0127  0.7120
16217SOL    HW252054   0.324   8.743   5.027  1.0955  0.3492  1.2015
16218SOL     OW52055   6.645   1.538   4.960 -0.3623  0.3249 -0.4841
16218SOL    HW152056   6.581   1.491   4.907 -1.0393 -1.3827  1.6937
16218SOL    HW252057   6.613   1.529   5.050  1.5219  1.7773  0.4012
16219SOL     OW52058   8.329  10.750   1.905  0.0738 -0.8515  0.3378
16219SOL    HW152059   8.374  10.670   1.931  0.4476 -0.3589  1.2670
16219SOL    HW252060   8.400  10.811   1.883 -0.1274 -0.1614  1.5233
16220SOL     OW52061   9.612   4.815  10.569  0.1138  0.1881 -0.2171
16220SOL    HW152062   9.618   4.756  10.644  0.4099  0.9113  0.3339
16220SOL    HW252063   9.635   4.760  10.494  1.6496 -0.0980  0.4365
16221SOL     OW52064   4.178   1.553   5.586 -0.3483 -0.6462  0.1693
16221SOL    HW152065   4.263   1.534   5.626 -2.5624  0.1917  6.4114
16221SOL    HW252066   4.187   1.642   5.552  1.5137 -0.9605 -0.2420
16222SOL     OW52067  10.170   8.429   4.991 -0.3554 -0.3337  0.4656
16222SOL    HW152068  10.084   8.448   4.954 -0.5904  0.0017  1.1715
16222SOL    HW252069  10.185   8.337   4.972 -1.0228 -0.4825  0.6446
16223SOL     OW52070   5.358   6.985   6.326  0.0046 -0.0396 -0.0283
16223SOL    HW152071   5.290   7.020   6.269 -0.5319 -1.4219 -0.2707
16223SOL    HW252072   5.311   6.957   6.405  0.0754 -1.9908 -0.6219
16224SOL     OW52073   3.867   2.529   6.995 -0.4586 -0.6910 -0.2120
16224SOL    HW152074   3.925   2.473   7.046 -0.0206  1.5251  1.9537
16224SOL    HW252075   3.785   2.530   7.044  0.1413  1.9125  0.9184
16225SOL     OW52076   0.996   4.230   6.477 -0.1422  0.3900 -0.0501
16225SOL    HW152077   0.984   4.185   6.561  1.8596 -3.0370 -1.3890
16225SOL    HW252078   0.933   4.187   6.418  0.2657  0.9048 -0.8847
16226SOL     OW52079   4.043   3.181   4.503 -0.1102  0.2065  0.5042
16226SOL    HW152080   4.006   3.094   4.517  0.1667  0.3395  2.2409
16226SOL    HW252081   3.967   3.238   4.490 -0.2694 -0.3659 -1.3039
16227SOL     OW52082   7.369   0.096   5.592  0.1754 -0.0586  0.1110
16227SOL    HW152083   7.391   0.007   5.618 -1.0289 -0.5440 -0.4250
16227SOL    HW252084   7.289   0.116   5.640 -0.6786 -0.0368 -1.2600
16228SOL     OW52085   2.661  10.027   0.101 -0.5181 -0.5598 -0.3862
16228SOL    HW152086   2.704   9.967   0.039  0.4979  0.3769 -0.6173
16228SOL    HW252087   2.725  10.097   0.115 -1.5402  0.2883  0.1669
16229SOL     OW52088   1.887   7.793   7.499 -0.2958 -0.1629  0.6230
16229SOL    HW152089   1.945   7.718   7.487 -1.5961 -1.2301  0.8501
16229SOL    HW252090   1.941   7.869   7.475  0.5038 -1.2934 -1.3656
16230SOL     OW52091   0.875   1.237   0.727  0.1481  0.0589 -0.1297
16230SOL    HW152092   0.947   1.224   0.665 -0.0484 -0.9125 -0.1751
16230SOL    HW252093   0.862   1.151   0.767 -1.4909  0.0141 -0.6805
16231SOL     OW52094   7.689   0.667   4.021  0.2062 -0.5334 -0.7151
16231SOL    HW152095   7.730   0.706   4.098 -3.9788 -0.1832  1.6609
16231SOL    HW252096   7.733   0.583   4.010  1.7881 -0.0451  1.2742
16232SOL     OW52097   2.835   7.023   9.824  0.3772  0.1959 -0.3228
16232SOL    HW152098   2.793   7.022   9.738 -0.4054  0.3246  0.0551
16232SOL    HW252099   2.764   7.010   9.886  0.6484  1.9262  0.4083
16233SOL     OW52100   8.056   5.620   5.427 -0.4683  0.7013  0.4596
16233SOL    HW152101   8.146   5.614   5.458 -0.2910 -1.4247 -0.3079
16233SOL    HW252102   8.003   5.596   5.503 -0.4823  2.6219  1.1134
16234SOL     OW52103   4.476   0.977   6.166  0.2194  0.3676  1.2882
16234SOL    HW152104   4.540   1.011   6.228  1.1270  0.2589  0.4409
16234SOL    HW252105   4.473   1.044   6.097  1.1394 -0.6794  0.1928
16235SOL     OW52106   1.440   2.076   2.893  0.0404 -0.4486  0.1086
16235SOL    HW152107   1.442   2.090   2.798  0.1945 -0.6342  0.0847
16235SOL    HW252108   1.437   2.165   2.930  1.7414 -0.3100 -0.0300
16236SOL     OW52109   2.115   6.998   4.013  0.0997 -0.3309  0.1709
16236SOL    HW152110   2.032   6.967   3.977  0.2591 -0.0882 -0.4130
16236SOL    HW252111   2.097   7.014   4.106 -0.9416  1.2812 -0.2692
16237SOL     OW52112   7.818   1.342   0.795 -0.2031  0.3467  0.1497
16237SOL    HW152113   7.904   1.313   0.826 -0.7484 -0.8182  0.6151
16237SOL    HW252114   7.772   1.371   0.873 -0.3050  0.8000 -0.0737
16238SOL     OW52115   2.030   0.057  10.786  0.3348  0.5195  0.1538
16238SOL    HW152116   2.104   0.081  10.841  1.5109 -1.5352 -0.4276
16238SOL    HW252117   1.966   0.127  10.800  0.9896  0.6057  3.3098
16239SOL     OW52118   5.260  10.841   5.854  0.2782  0.5316  0.2564
16239SOL    HW152119   5.304  10.876   5.932  0.5481  0.2252  0.2436
16239SOL    HW252120   5.171  10.878   5.858  0.3892  0.7744  0.5355
16240SOL     OW52121   0.583   0.965  10.259  0.5455 -0.2329 -0.1767
16240SOL    HW152122   0.514   0.910  10.221  0.9892  0.5782 -2.3293
16240SOL    HW252123   0.602   0.925  10.343 -0.9485 -1.8317 -0.5351
16241SOL     OW52124   3.829   7.042   5.771 -0.1188 -0.1929  0.1744
16241SOL    HW152125   3.879   6.980   5.824  0.9082  0.0071 -0.5267
16241SOL    HW252126   3.768   6.988   5.720 -0.0019 -0.5227  0.3902
16242SOL     OW52127   9.014   8.464   0.899 -0.0101 -0.3406 -0.1625
16242SOL    HW152128   9.077   8.404   0.861  0.1154 -0.0238 -0.4640
16242SOL    HW252129   9.054   8.551   0.890 -0.1674 -0.2125  0.3000
16243SOL     OW52130   6.637   9.111   1.599 -0.1246 -0.2878 -0.2876
16243SOL    HW152131   6.715   9.163   1.577  0.7146 -1.1030  0.6217
16243SOL    HW252132   6.646   9.094   1.693 -0.0845 -2.4845 -0.6403
16244SOL     OW52133   3.940   8.369   9.227 -0.0642  0.0510 -0.0619
16244SOL    HW152134   3.913   8.294   9.280  2.0719 -0.3252  0.5507
16244SOL    HW252135   3.884   8.441   9.259  0.7475 -0.2930  2.3397
16245SOL     OW52136   6.562   2.814   9.207 -0.2511  0.5570  0.7692
16245SOL    HW152137   6.470   2.833   9.226  0.0477  0.9365  1.8740
16245SOL    HW252138   6.576   2.724   9.238 -0.7547 -0.2808 -1.2709
16246SOL     OW52139  10.510   2.101   0.847  0.0246  0.4059 -0.0864
16246SOL    HW152140  10.517   2.007   0.865  0.6669  0.7444  1.6940
16246SOL    HW252141  10.516   2.109   0.752  2.4630 -1.1628 -0.1470
16247SOL     OW52142   5.279   0.627   0.376 -0.6976 -0.7787 -0.1167
16247SOL    HW152143   5.312   0.712   0.347 -1.0410 -1.1169 -1.5589
16247SOL    HW252144   5.209   0.649   0.438  0.3096 -0.0434  0.8035
16248SOL     OW52145   7.738   8.632   9.639  0.3154 -0.1748 -0.5807
16248SOL    HW152146   7.815   8.593   9.598  0.1953 -0.6341 -0.3833
16248SOL    HW252147   7.738   8.723   9.610  0.1552 -0.5247 -1.7025
16249SOL     OW52148   8.319  10.206  10.452 -0.0853 -0.3378 -0.0900
16249SOL    HW152149   8.244  10.203  10.393  0.2993  1.7274 -0.7604
16249SOL    HW252150   8.324  10.297  10.481  1.2706 -0.7537  1.1293
16250SOL     OW52151   2.671   6.438   3.278 -0.1540  0.2330 -0.3717
16250SOL    HW152152   2.685   6.526   3.312  1.1783 -0.0653 -0.1323
16250SOL    HW252153   2.674   6.381   3.354  1.0495 -0.2360 -0.7490
16251SOL     OW52154   3.228  10.448   6.719  0.4183 -0.2351  0.0292
16251SOL    HW152155   3.243  10.462   6.626  0.4116  0.1078  0.0749
16251SOL    HW252156   3.278  10.519   6.761  1.7506 -1.3406  0.3662
16252SOL     OW52157   6.437   1.615   2.210 -0.4346  0.2910  0.3891
16252SOL    HW152158   6.444   1.583   2.300 -0.7141  1.3916  0.8291
16252SOL    HW252159   6.358   1.575   2.175 -0.0122 -0.5934  0.4372
16253SOL     OW52160   1.518   0.583   2.712 -0.0264 -0.2688  0.1784
16253SOL    HW152161   1.449   0.562   2.648  0.9380  1.0896 -1.3966
16253SOL    HW252162   1.533   0.677   2.700  1.8923 -0.4762  0.6743
16254SOL     OW52163   0.061   1.357   0.194  0.6328  0.4450  0.0107
16254SOL    HW152164   0.076   1.298   0.120 -0.0543  0.1227  0.1137
16254SOL    HW252165  -0.034   1.359   0.203  0.3452  4.1577 -2.0347
16255SOL     OW52166   6.759   5.728   1.468 -0.2643 -0.3997 -0.1529
16255SOL    HW152167   6.775   5.651   1.524  0.1017 -0.4620 -0.3442
16255SOL    HW252168   6.835   5.784   1.482 -0.6914  0.0907  0.2479
16256SOL     OW52169   6.449   0.601   4.525  0.0094 -0.0982 -0.2257
16256SOL    HW152170   6.419   0.690   4.503  1.6056  0.6502  0.4199
16256SOL    HW252171   6.464   0.559   4.440 -0.0223  0.5213 -0.5443
16257SOL     OW52172   1.060   5.111   4.792  0.1197  0.2196  0.3904
16257SOL    HW152173   0.978   5.150   4.759 -0.0037 -1.0719 -0.8968
16257SOL    HW252174   1.072   5.152   4.878 -1.0883  1.5420 -0.0221
16258SOL     OW52175   2.564   2.519   7.239  0.5083  0.0922  0.3516
16258SOL    HW152176   2.656   2.499   7.259  0.5112 -1.0687 -0.6843
16258SOL    HW252177   2.517   2.439   7.260 -0.1360  0.3752  0.0257
16259SOL     OW52178   5.033   2.772   4.470  0.2748 -0.7059 -0.9169
16259SOL    HW152179   5.048   2.826   4.393 -0.0758  0.6442 -0.0592
16259SOL    HW252180   4.949   2.729   4.453  0.2049 -0.4204 -1.2979
16260SOL     OW52181  10.146   4.281   0.523 -0.0001  0.0733 -0.0538
16260SOL    HW152182  10.157   4.301   0.616 -0.0602 -1.1342  0.2274
16260SOL    HW252183  10.202   4.345   0.478 -0.5643  1.1741  0.7528
16261SOL     OW52184   3.292   0.560   1.161 -0.2214  0.1168  0.5365
16261SOL    HW152185   3.319   0.505   1.235  0.7084 -0.2160 -0.0287
16261SOL    HW252186   3.359   0.628   1.156 -0.1010 -0.0532 -0.1957
16262SOL     OW52187   7.062   7.371   1.714 -0.2862  0.2282 -0.4756
16262SOL    HW152188   7.112   7.416   1.646  0.0005 -0.0918 -0.4740
16262SOL    HW252189   7.022   7.442   1.765 -0.1267  0.4753 -0.6929
16263SOL     OW52190  10.661   4.485   1.207 -0.6025 -0.4331  0.6540
16263SOL    HW152191  10.582   4.498   1.155 -0.1978 -2.3133 -0.5245
16263SOL    HW252192  10.714   4.564   1.192 -2.0545  0.6736  1.1611
16264SOL     OW52193   2.559   7.242  10.909 -0.2522 -0.1078  0.5597
16264SOL    HW152194   2.573   7.181  10.980 -2.3690 -0.9676  0.3055
16264SOL    HW252195   2.613   7.209  10.837 -1.3128 -1.6835  0.4482
16265SOL     OW52196   4.411   9.650   2.248  0.2026 -0.7501  0.6606
16265SOL    HW152197   4.415   9.569   2.298 -0.0099 -1.0225  0.2434
16265SOL    HW252198   4.469   9.634   2.173 -1.9891 -1.5907 -0.9554
16266SOL     OW52199  10.685   5.255   0.178 -0.1758 -0.2209  0.5218
16266SOL    HW152200  10.735   5.301   0.111 -2.8977 -0.9976 -2.3097
16266SOL    HW252201  10.725   5.168   0.183  0.7422  0.2068  0.7745
16267SOL     OW52202   8.647   7.085   2.183  0.1921  0.5935  0.7090
16267SOL    HW152203   8.725   7.109   2.133 -0.0886  0.4135  0.1816
16267SOL    HW252204   8.585   7.053   2.118 -1.2146  2.9117  0.8262
16268SOL     OW52205  10.222  10.518   7.705  0.2921  0.0492  0.4129
16268SOL    HW152206  10.180  10.602   7.689  0.3557  0.0421  0.2063
16268SOL    HW252207  10.255  10.491   7.619  0.5798 -0.0176  0.5437
16269SOL     OW52208   5.344   3.596   2.902 -0.3587 -0.0446  0.2618
16269SOL    HW152209   5.333   3.613   2.809 -2.4263  0.4204  0.5359
16269SOL    HW252210   5.254   3.587   2.935  0.3315 -0.2611  2.1966
16270SOL     OW52211   6.264   5.687   3.781  0.1126  0.5921 -0.7096
16270SOL    HW152212   6.249   5.599   3.815 -1.5223  0.3069 -2.0015
16270SOL    HW252213   6.317   5.731   3.847  2.1758 -1.7729 -0.6706
16271SOL     OW52214   1.408   6.415   6.002  0.0862  0.4429  0.0682
16271SOL    HW152215   1.337   6.380   6.056  0.2905 -1.3908 -0.7703
16271SOL    HW252216   1.364   6.454   5.926 -0.0962 -2.3416 -1.4077
16272SOL     OW52217   8.942   0.765   6.407 -0.0763  0.2140 -0.1833
16272SOL    HW152218   8.873   0.818   6.369 -0.9510 -0.6268  0.1953
16272SOL    HW252219   8.999   0.827   6.452 -0.8869  0.8613 -0.0414
16273SOL     OW52220   3.162   7.156   0.750 -0.4331  0.2110 -0.2750
16273SOL    HW152221   3.191   7.218   0.817 -3.0945  1.5874 -0.2638
16273SOL    HW252222   3.233   7.155   0.686  1.2985  0.3690  1.5205
16274SOL     OW52223   3.169   9.456   7.564  0.2922  0.0291 -0.6187
16274SOL    HW152224   3.246   9.399   7.564 -0.7297 -1.4863  1.7653
16274SOL    HW252225   3.202   9.539   7.598  1.2366  0.0226 -1.4566
16275SOL     OW52226   0.004   4.655   7.330 -0.4427 -0.2536  0.5137
16275SOL    HW152227  -0.089   4.635   7.342 -0.2403 -2.1636 -0.6574
16275SOL    HW252228   0.006   4.721   7.262 -0.9278 -1.6273 -0.9052
16276SOL     OW52229   0.820  10.786   8.298  0.1409  0.2488 -0.1719
16276SOL    HW152230   0.785  10.738   8.373 -0.2492  0.3281 -0.2998
16276SOL    HW252231   0.742  10.818   8.252  0.3802  0.2755 -0.5601
16277SOL     OW52232   2.474   0.052   2.349 -0.0257  0.2355  0.0503
16277SOL    HW152233   2.544   0.004   2.394 -0.2516  0.1531  0.3168
16277SOL    HW252234   2.406  -0.013   2.332  0.7365 -0.1254 -1.9297
16278SOL     OW52235   8.363   2.278   3.123 -0.2235  0.8245  0.3741
16278SOL    HW152236   8.274   2.254   3.097  0.1999 -0.6800  0.2212
16278SOL    HW252237   8.412   2.195   3.121  0.9727  1.4737  1.3053
16279SOL     OW52238   0.483   1.494   5.150 -0.2869 -0.1958  0.1140
16279SOL    HW152239   0.559   1.449   5.114 -0.1273  0.5889 -0.5713
16279SOL    HW252240   0.433   1.426   5.194  0.2886 -0.9087 -0.3159
16280SOL     OW52241   6.540   4.796   8.290  0.5317 -0.1550 -0.0999
16280SOL    HW152242   6.543   4.858   8.363  1.8462 -0.2528 -0.0530
16280SOL    HW252243   6.581   4.717   8.323 -0.5551 -0.8538 -0.3721
16281SOL     OW52244   4.689   0.920   2.978 -0.0129  0.4981  0.0215
16281SOL    HW152245   4.648   0.882   3.056  0.7273  1.0898  0.7273
16281SOL    HW252246   4.723   0.844   2.930 -0.0397  0.1487  0.5398
16282SOL     OW52247   5.812   2.349  10.220 -0.3687  0.0175  0.1767
16282SOL    HW152248   5.824   2.337  10.125 -1.4928  0.4975 -0.0406
16282SOL    HW252249   5.820   2.261  10.257  2.6019  0.0896 -0.0249
16283SOL     OW52250  10.773   3.418   9.053  0.8102  0.1446 -0.2306
16283SOL    HW152251  10.804   3.418   8.962 -0.6791  0.7502 -0.7711
16283SOL    HW252252  10.715   3.494   9.059  1.3132  0.4331  1.3957
16284SOL     OW52253   7.167   1.700   6.054  0.2173  0.5453  0.3780
16284SOL    HW152254   7.120   1.712   6.137 -0.5367  0.2389  0.0023
16284SOL    HW252255   7.200   1.610   6.059 -2.9067 -0.8223 -1.1384
16285SOL     OW52256   9.100   1.515   3.291 -0.0553 -0.3982 -0.2902
16285SOL    HW152257   9.009   1.544   3.294 -0.2855 -1.0271 -0.8906
16285SOL    HW252258   9.100   1.442   3.229  0.6932 -0.9966  0.3804
16286SOL     OW52259   0.845   5.118   3.825 -0.1757  0.6355  0.7161
16286SOL    HW152260   0.856   5.047   3.763 -0.1873  1.3200 -0.0814
16286SOL    HW252261   0.803   5.188   3.776 -2.2437  0.4291  2.0469
16287SOL     OW52262   2.666   3.528   1.005  0.1657 -0.7388  0.0226
16287SOL    HW152263   2.748   3.556   0.963  1.2225 -0.1141  2.2931
16287SOL    HW252264   2.671   3.433   1.005 -0.5334 -0.8379 -2.3820
16288SOL     OW52265   1.044   1.966  10.808 -0.0975 -0.1122 -0.4434
16288SOL    HW152266   0.978   2.003  10.866  1.3170  1.2441  0.3430
16288SOL    HW252267   1.007   1.978  10.720 -0.3817  1.7714 -0.1100
16289SOL     OW52268   3.950   1.200   7.183  0.4203 -0.3478  0.1282
16289SOL    HW152269   4.038   1.164   7.189  1.1613  1.3111 -0.0645
16289SOL    HW252270   3.907   1.147   7.116  0.2692 -3.0046  2.1902
16290SOL     OW52271   4.023   8.555   1.708  0.2347 -0.2713 -0.3436
16290SOL    HW152272   3.985   8.574   1.793 -0.5300 -0.0656 -0.7207
16290SOL    HW252273   4.000   8.464   1.690 -1.1131  0.1886 -1.0792
16291SOL     OW52274   8.112   1.947   9.792  0.5461 -0.1293 -0.2942
16291SOL    HW152275   8.101   1.999   9.871  1.1754  0.7270 -0.7558
16291SOL    HW252276   8.034   1.967   9.739  0.1653 -0.6403  0.0584
16292SOL     OW52277   3.654   5.811   7.304 -0.2681  0.1593  0.2780
16292SOL    HW152278   3.699   5.752   7.364 -0.4321  1.0603  1.3163
16292SOL    HW252279   3.561   5.797   7.321 -0.5932 -2.5867 -2.7086
16293SOL     OW52280   6.412   1.532   8.877  0.2699 -0.3364 -0.0726
16293SOL    HW152281   6.450   1.551   8.963 -0.5516 -0.1199  0.2596
16293SOL    HW252282   6.344   1.599   8.865 -0.5070 -1.1399 -0.3014
16294SOL     OW52283   3.732   2.691   8.221  0.0374  0.1471 -0.2111
16294SOL    HW152284   3.668   2.736   8.165 -2.2285 -0.2118  1.9307
16294SOL    HW252285   3.712   2.598   8.210  1.4422 -0.1055 -0.8723
16295SOL     OW52286   1.128   6.842   9.908  0.6109  0.1111 -0.2137
16295SOL    HW152287   1.064   6.834   9.979  0.1999 -0.7558 -0.6687
16295SOL    HW252288   1.206   6.880   9.950  0.3935 -0.4244  0.7024
16296SOL     OW52289  10.775   6.819   3.274 -0.1747 -0.3545  0.1784
16296SOL    HW152290  10.712   6.789   3.209 -0.5413  3.2024 -1.3288
16296SOL    HW252291  10.759   6.764   3.350 -3.8406 -0.8664 -0.7785
16297SOL     OW52292   4.261   2.571   6.246  0.0122  0.0215 -0.1075
16297SOL    HW152293   4.241   2.555   6.338 -1.7785 -0.0735 -0.4748
16297SOL    HW252294   4.187   2.531   6.198  0.9641 -0.0526 -1.5873
16298SOL     OW52295   5.035   4.634  10.319  0.0860  0.1548 -0.0393
16298SOL    HW152296   5.098   4.704  10.338 -0.3015 -0.1785  2.9757
16298SOL    HW252297   4.955   4.679  10.293 -0.2581  0.9039  2.1837
16299SOL     OW52298  10.037   5.835   1.276  0.2266 -0.0824  0.3892
16299SOL    HW152299  10.123   5.824   1.317  0.7881  2.0405 -0.0869
16299SOL    HW252300   9.979   5.860   1.348  0.7448  1.5557  0.2869
16300SOL     OW52301   2.564   7.070   3.988  0.4488  0.1825  0.3444
16300SOL    HW152302   2.474   7.064   3.956  0.7336 -0.1805 -0.4190
16300SOL    HW252303   2.601   7.144   3.940  0.6243  0.1895  0.4916
16301SOL     OW52304   4.398   0.656   4.469  0.0743  0.2230  0.2334
16301SOL    HW152305   4.389   0.693   4.381 -0.5252 -1.4010 -0.4202
16301SOL    HW252306   4.491   0.634   4.477  0.3892  1.5738  0.5361
16302SOL     OW52307   9.416   5.048   7.018 -0.2202  0.2795  0.2947
16302SOL    HW152308   9.441   4.970   6.969  0.6524 -0.1075  1.3064
16302SOL    HW252309   9.492   5.066   7.074 -1.1620  0.7049  1.4841
16303SOL     OW52310   0.810   1.837   5.523  0.0737  0.0663  0.1078
16303SOL    HW152311   0.903   1.834   5.544  0.3443 -0.9965 -1.0812
16303SOL    HW252312   0.806   1.879   5.437 -0.4375 -0.7302 -0.2712
16304SOL     OW52313  10.747   4.135   3.448  0.8577 -0.4000  0.3206
16304SOL    HW152314  10.670   4.088   3.477  0.7597  0.0016  0.7135
16304SOL    HW252315  10.820   4.076   3.468  0.6953 -0.5979  0.3358
16305SOL     OW52316   0.226   7.619   9.565 -0.8717  0.1188 -0.8352
16305SOL    HW152317   0.227   7.581   9.652 -2.1996 -1.0076 -1.2847
16305SOL    HW252318   0.315   7.604   9.531  0.2693  2.2067  0.9433
16306SOL     OW52319   4.011   9.263   9.373 -0.3503 -0.1913 -0.5995
16306SOL    HW152320   4.042   9.211   9.447 -1.9188 -0.6898 -0.2645
16306SOL    HW252321   3.921   9.287   9.396 -1.6996 -2.1951 -3.2356
16307SOL     OW52322   4.495   3.037   2.135 -0.2136 -0.7538  0.2419
16307SOL    HW152323   4.439   3.086   2.074  0.8316  1.6313  1.0865
16307SOL    HW252324   4.553   2.986   2.078 -1.6845 -1.4934 -0.6566
16308SOL     OW52325   7.218   1.548   3.013  0.5272  0.1478 -0.3222
16308SOL    HW152326   7.298   1.553   3.066 -1.0520  0.6261  2.1330
16308SOL    HW252327   7.205   1.454   2.999  1.0029  0.0199  0.0571
16309SOL     OW52328   7.950   0.803   1.949  0.5359  0.1324 -0.3313
16309SOL    HW152329   7.942   0.741   1.877 -0.8594  0.7607 -0.7425
16309SOL    HW252330   8.009   0.760   2.011 -1.0093 -1.9660 -0.2095
16310SOL     OW52331   9.422   2.699   0.024 -0.1949  0.1026 -0.2563
16310SOL    HW152332   9.362   2.734   0.090 -1.0509 -1.2007 -0.3084
16310SOL    HW252333   9.508   2.732   0.051 -0.5257 -0.3250  1.5009
16311SOL     OW52334   9.182   8.215   1.436  0.1140  0.1897 -0.2262
16311SOL    HW152335   9.168   8.187   1.345  0.5958  0.1503 -0.2885
16311SOL    HW252336   9.231   8.297   1.428 -0.2081  0.4070 -0.0079
16312SOL     OW52337   7.169   9.479   0.965 -0.1380 -0.4683 -0.2244
16312SOL    HW152338   7.127   9.399   0.934  0.6323 -0.2020 -2.1326
16312SOL    HW252339   7.110   9.549   0.936  1.5073 -0.0812 -3.0431
16313SOL     OW52340  10.353   5.736   9.755 -0.2208 -0.2848  0.3433
16313SOL    HW152341  10.354   5.797   9.680  0.6680 -0.4670  0.2035
16313SOL    HW252342  10.413   5.666   9.730 -0.1237 -0.4847  1.1240
16314SOL     OW52343   7.527   4.314   1.736  0.4633 -0.3000 -0.3512
16314SOL    HW152344   7.482   4.298   1.654 -1.4098 -1.2913  0.7854
16314SOL    HW252345   7.605   4.259   1.732  1.1060  0.6703 -1.9590
16315SOL     OW52346   7.410   4.345  10.530  0.3766 -0.6721 -0.6868
16315SOL    HW152347   7.493   4.335  10.576 -0.3581 -1.3844  0.5398
16315SOL    HW252348   7.364   4.262  10.543 -1.2313  0.2875  0.1419
16316SOL     OW52349   6.178   0.109   4.180  0.3460  0.2524 -0.1728
16316SOL    HW152350   6.125   0.029   4.183  2.1059 -0.9702  0.9128
16316SOL    HW252351   6.199   0.127   4.272  2.9986 -0.2436 -0.5799
16317SOL     OW52352  10.644   7.794   0.231 -0.4544 -0.1315  0.6183
16317SOL    HW152353  10.697   7.840   0.297  0.7153 -0.8661  0.2142
16317SOL    HW252354  10.688   7.711   0.218 -1.5017 -0.6100 -0.0362
16318SOL     OW52355   2.461   3.398   2.098 -0.2584  0.6596  0.1880
16318SOL    HW152356   2.442   3.462   2.167  0.6897 -0.1199  1.2213
16318SOL    HW252357   2.439   3.443   2.016  0.0017  2.1530  0.8985
16319SOL     OW52358   7.275   7.890   3.269 -0.3311 -0.2210 -0.3776
16319SOL    HW152359   7.223   7.922   3.195  0.1507  0.8523 -0.2595
16319SOL    HW252360   7.221   7.909   3.346 -0.2796 -0.2006 -0.3474
16320SOL     OW52361  10.125   3.113   0.282  0.3916 -0.8593 -1.1957
16320SOL    HW152362  10.216   3.140   0.277 -0.1803  1.3439 -0.9014
16320SOL    HW252363  10.109   3.098   0.375  0.0679  0.3809 -1.0311
16321SOL     OW52364   0.541   1.462   4.512  0.7658 -0.4152  0.1388
16321SOL    HW152365   0.552   1.391   4.449  2.5954  0.4124 -0.5373
16321SOL    HW252366   0.625   1.469   4.557  0.8950  1.7612 -0.3178
16322SOL     OW52367   3.297   4.553   9.386 -0.0557 -0.0767  0.3265
16322SOL    HW152368   3.229   4.505   9.340 -1.4329  0.9177  1.2675
16322SOL    HW252369   3.307   4.506   9.469  1.9247 -1.4510 -0.6110
16323SOL     OW52370   2.102   8.252   8.199  0.1254  0.0534 -0.5339
16323SOL    HW152371   2.020   8.282   8.240 -0.5201 -0.6058 -1.2948
16323SOL    HW252372   2.091   8.157   8.192  0.9546 -0.0356 -0.6763
16324SOL     OW52373  10.428  10.364   7.045 -0.8579 -0.1910  0.3452
16324SOL    HW152374  10.430  10.410   6.960  2.0167  1.8668  1.3799
16324SOL    HW252375  10.340  10.328   7.050 -2.1677  2.2433 -2.1913
16325SOL     OW52376   4.008   0.814   3.502  0.0989 -0.2966 -0.1777
16325SOL    HW152377   3.969   0.782   3.583 -0.0854  1.5864  0.5186
16325SOL    HW252378   4.099   0.785   3.506 -0.3793 -1.9545 -0.3066
16326SOL     OW52379   4.846  10.310   2.902 -0.6061  0.4899 -0.0235
16326SOL    HW152380   4.879  10.375   2.840 -2.3510  0.5595 -0.9487
16326SOL    HW252381   4.869  10.346   2.988  2.4748  0.0431 -0.5740
16327SOL     OW52382   1.500   9.507   6.532  0.3587  1.0388  0.0546
16327SOL    HW152383   1.412   9.490   6.565  1.0313  1.5299  2.2599
16327SOL    HW252384   1.507   9.603   6.529  0.8575  1.0094  0.0683
16328SOL     OW52385   1.235   1.411   4.881 -0.5201 -0.0567 -0.0640
16328SOL    HW152386   1.177   1.350   4.926 -0.1024  1.1057  2.2103
16328SOL    HW252387   1.238   1.488   4.939  0.9557  1.0871 -1.5722
16329SOL     OW52388   6.224   6.104   5.245 -0.1001 -0.3174 -0.3882
16329SOL    HW152389   6.147   6.145   5.206 -0.3847 -1.1100 -0.6794
16329SOL    HW252390   6.189   6.035   5.301  0.2668  1.1615  1.7992
16330SOL     OW52391   9.258  10.752   0.078  0.5724  0.7087 -0.0341
16330SOL    HW152392   9.242  10.772  -0.015 -1.5265  1.3772  0.4252
16330SOL    HW252393   9.252  10.836   0.122  0.9681  0.3066  0.8053
16331SOL     OW52394   5.613   5.297   1.353 -0.7626  0.1061 -0.4386
16331SOL    HW152395   5.626   5.389   1.332  1.1493 -0.2245 -0.9373
16331SOL    HW252396   5.623   5.292   1.448 -3.5144  0.7491 -0.0504
16332SOL     OW52397   4.672   5.473   0.713 -0.5153  0.1197  0.4801
16332SOL    HW152398   4.664   5.506   0.624  1.3492  1.9534  0.9057
16332SOL    HW252399   4.602   5.517   0.761 -1.7044 -1.0871 -0.0801
16333SOL     OW52400   9.695   1.668   3.821 -0.2703 -0.3590 -0.3434
16333SOL    HW152401   9.781   1.704   3.801  1.0342 -2.3292  1.3035
16333SOL    HW252402   9.669   1.622   3.742  1.5771 -2.1717  0.0283
16334SOL     OW52403   2.147   8.036   2.346 -0.3450 -0.5731 -0.3095
16334SOL    HW152404   2.089   7.968   2.312 -2.0254 -0.1442  1.5422
16334SOL    HW252405   2.089   8.099   2.389  1.3712  0.7395  0.2050
16335SOL     OW52406  10.340   9.978   4.746 -0.0945  0.0702 -0.0887
16335SOL    HW152407  10.289  10.048   4.705  0.8879  2.0053  1.7615
16335SOL    HW252408  10.416   9.968   4.688 -0.2717  0.4999 -0.4051
16336SOL     OW52409   0.091   5.515   0.296 -0.5153 -0.0502 -0.3310
16336SOL    HW152410   0.165   5.522   0.236 -0.6743  2.5862 -0.3532
16336SOL    HW252411   0.129   5.480   0.377  0.7498  1.0368 -0.4131
16337SOL     OW52412   0.790   6.270   1.318 -0.0873  0.3003 -0.6460
16337SOL    HW152413   0.720   6.318   1.273 -0.9028 -0.5516 -0.3167
16337SOL    HW252414   0.790   6.305   1.407  0.3330  0.7366 -0.8132
16338SOL     OW52415   7.328   7.260   4.206 -0.1929  0.5758 -0.3576
16338SOL    HW152416   7.349   7.208   4.283  0.6400 -0.0960 -1.0233
16338SOL    HW252417   7.264   7.325   4.237 -1.2802 -0.8562  0.4784
16339SOL     OW52418   3.132   9.116   6.553 -0.5077 -0.4413  1.0114
16339SOL    HW152419   3.147   9.172   6.477 -1.0860 -1.2964  0.2491
16339SOL    HW252420   3.212   9.065   6.562 -1.2785 -2.0159 -0.4937
16340SOL     OW52421   7.298   0.884   7.318  0.6920  0.1577  0.0986
16340SOL    HW152422   7.214   0.857   7.282 -0.2320  2.7979  0.0775
16340SOL    HW252423   7.344   0.923   7.243  1.4342 -0.1661  0.3807
16341SOL     OW52424   8.935   2.167   1.863 -0.4836 -0.4075 -0.3269
16341SOL    HW152425   8.874   2.123   1.923  0.5312 -0.9854  0.3231
16341SOL    HW252426   8.987   2.223   1.920 -2.3424  2.4647 -1.2502
16342SOL     OW52427   9.939   6.989   4.339  0.3876 -0.5183  0.4161
16342SOL    HW152428   9.882   7.057   4.376  1.1666  0.3965 -0.0331
16342SOL    HW252429  10.023   7.033   4.324  0.7247 -1.4179 -0.4660
16343SOL     OW52430   7.818   2.489   9.458  0.1253 -0.2737 -0.3439
16343SOL    HW152431   7.823   2.450   9.546 -1.6938  0.2285  0.0264
16343SOL    HW252432   7.735   2.537   9.458  1.0025  1.3426 -1.7131
16344SOL     OW52433   3.459   3.727   0.006 -0.1448 -0.3953  0.3564
16344SOL    HW152434   3.458   3.633  -0.012 -0.8237 -0.6697  1.6605
16344SOL    HW252435   3.534   3.760  -0.042  1.0754 -1.8827  1.1608
16345SOL     OW52436  10.501  10.555   6.106 -0.2868  0.2162  0.2971
16345SOL    HW152437  10.538  10.641   6.127  0.9694  0.3633 -2.2160
16345SOL    HW252438  10.535  10.497   6.174  0.1684  1.3910  1.1022
16346SOL     OW52439   9.938   1.809  10.713  0.4838 -0.2017  0.3387
16346SOL    HW152440   9.992   1.790  10.635 -0.3446 -0.2623 -0.2341
16346SOL    HW252441   9.866   1.746  10.708 -1.0887  1.5528 -0.3715
16347SOL     OW52442   5.737   6.495  10.420  0.0498  0.3852  0.4611
16347SOL    HW152443   5.729   6.400  10.423 -0.8019  0.4353  0.0049
16347SOL    HW252444   5.795   6.511  10.345  0.4307  0.2175  0.7167
16348SOL     OW52445   6.898   8.250   2.717  0.4162 -0.5050  0.0348
16348SOL    HW152446   6.914   8.246   2.623  2.4180 -2.2761  0.3693
16348SOL    HW252447   6.856   8.167   2.738  2.6994 -1.4802  1.0714
16349SOL     OW52448   9.530   0.303   3.643  0.4938  0.0022 -0.4279
16349SOL    HW152449   9.529   0.254   3.562  1.1414 -0.7795  0.0246
16349SOL    HW252450   9.480   0.249   3.705 -2.4330  1.8407 -0.9634
16350SOL     OW52451   4.777   0.496   7.740 -0.0266  0.1014  0.1347
16350SOL    HW152452   4.849   0.554   7.765 -1.2940  0.6376  3.0289
16350SOL    HW252453   4.749   0.456   7.823 -1.6167 -1.8008 -1.2236
16351SOL     OW52454   7.614  10.640   0.109 -0.6210 -0.3314  0.4210
16351SOL    HW152455   7.527  10.658   0.144 -0.8956 -0.2570 -0.2793
16351SOL    HW252456   7.666  10.615   0.185 -0.9353  0.7919  1.0321
16352SOL     OW52457   6.850   1.656   2.363 -0.6729 -0.5617  0.2951
16352SOL    HW152458   6.876   1.655   2.456  1.4749 -0.5061 -0.2596
16352SOL    HW252459   6.822   1.746   2.348 -1.2322 -0.6186  0.9260
16353SOL     OW52460   9.636   9.177  10.703  0.0782 -0.6108  0.1677
16353SOL    HW152461   9.669   9.265  10.689  1.5795 -1.4057 -1.7353
16353SOL    HW252462   9.688   9.122  10.644 -1.8403 -2.5529  0.1526
16354SOL     OW52463  10.077   7.682   9.232  0.1799 -0.2863  0.4950
16354SOL    HW152464  10.173   7.684   9.227  0.1814 -0.5153  0.4250
16354SOL    HW252465  10.048   7.742   9.163  0.2285 -2.3980 -1.4610
16355SOL     OW52466   7.980   1.709   5.660  0.3679  0.2432 -0.4813
16355SOL    HW152467   8.031   1.721   5.740  2.7734  0.0156 -1.8758
16355SOL    HW252468   7.930   1.629   5.676  0.0520  0.7210  1.1215
16356SOL     OW52469   0.089   3.990   6.739  0.2920 -0.4448  0.1875
16356SOL    HW152470   0.139   4.028   6.812  0.8106 -0.5534 -0.1003
16356SOL    HW252471   0.115   4.041   6.663  2.3515 -2.3762 -0.5441
16357SOL     OW52472   5.554   2.715   3.322 -0.1189  0.0122  0.5004
16357SOL    HW152473   5.561   2.642   3.261  0.8629 -0.2022  0.8454
16357SOL    HW252474   5.639   2.759   3.316 -0.6086  0.9841  0.4802
16358SOL     OW52475   1.590   1.931   6.589 -0.1025 -0.4588  0.2757
16358SOL    HW152476   1.562   1.924   6.681  3.3196 -2.2195  1.3532
16358SOL    HW252477   1.684   1.945   6.594 -0.0901  1.7268 -3.0508
16359SOL     OW52478  10.451   4.407   4.134 -0.5590 -0.2907 -0.0694
16359SOL    HW152479  10.457   4.475   4.066 -1.6463 -2.0321 -2.0146
16359SOL    HW252480  10.541   4.378   4.147  0.4681  3.4115  3.0334
16360SOL     OW52481   3.901   7.256   7.387 -0.0993  0.1821  0.6781
16360SOL    HW152482   3.944   7.341   7.383  1.2297 -0.4700  0.7584
16360SOL    HW252483   3.916   7.217   7.302 -1.2436  0.2544  0.4224
16361SOL     OW52484   7.518   7.376  10.373  0.1343  0.3388 -0.1091
16361SOL    HW152485   7.511   7.456  10.322 -1.0108  0.7235  0.6252
16361SOL    HW252486   7.541   7.308  10.308  1.3458  1.2636 -0.6961
16362SOL     OW52487   7.659   2.064   2.551  0.3651 -0.2252  0.0461
16362SOL    HW152488   7.746   2.025   2.564 -0.1881 -2.0790 -1.4441
16362SOL    HW252489   7.669   2.115   2.470  0.6338  1.4574  1.0981
16363SOL     OW52490   0.860   3.920  10.411 -0.3385 -0.0928 -0.4048
16363SOL    HW152491   0.896   3.930  10.499  0.5748  1.7782 -0.9270
16363SOL    HW252492   0.840   3.827  10.404  1.7886 -0.7369  0.9421
16364SOL     OW52493   8.863   1.564   1.450  0.1876 -0.3974  0.4347
16364SOL    HW152494   8.814   1.641   1.420 -2.4741 -2.0595  0.2193
16364SOL    HW252495   8.912   1.596   1.526 -1.3576  1.3915  0.7594
16365SOL     OW52496  10.805   6.785   9.276 -0.5387  0.3127  0.2404
16365SOL    HW152497  10.816   6.880   9.269  1.4607  0.1899  0.9724
16365SOL    HW252498  10.828   6.765   9.367 -1.5449 -0.8186  0.2684
16366SOL     OW52499   1.077   6.550   4.783 -0.8319  0.1753  1.2197
16366SOL    HW152500   1.156   6.574   4.735 -0.2217 -3.0674  0.3536
16366SOL    HW252501   1.008   6.603   4.742  0.5142  1.4703  0.5034
16367SOL     OW52502   3.424   6.834   4.033 -0.3184 -0.6163  0.0380
16367SOL    HW152503   3.383   6.892   3.970  1.9502  0.2373 -0.7783
16367SOL    HW252504   3.360   6.824   4.103 -2.1763 -0.0850 -1.5139
16368SOL     OW52505   0.142   7.685   0.217 -0.0710  0.1976  0.2453
16368SOL    HW152506   0.094   7.622   0.164 -0.9664  2.3540 -1.7102
16368SOL    HW252507   0.170   7.752   0.155  2.9665  0.5544  1.8114
16369SOL     OW52508   6.540   3.574   0.207 -0.0190  0.0706  0.2533
16369SOL    HW152509   6.501   3.537   0.286  0.4515 -2.7920 -0.7339
16369SOL    HW252510   6.629   3.597   0.233  0.3110 -1.3603  0.4877
16370SOL     OW52511  10.108   7.713   9.512  0.2199 -0.1578  0.1886
16370SOL    HW152512  10.073   7.705   9.423  1.5235  2.4119 -0.6767
16370SOL    HW252513  10.078   7.799   9.542  0.3358 -0.7144  2.0208
16371SOL     OW52514   0.268   2.199  10.294  0.2497 -0.1479  0.2092
16371SOL    HW152515   0.181   2.193  10.254  0.1349  1.6372  0.1406
16371SOL    HW252516   0.265   2.279  10.347  1.3367 -0.9362  1.5358
16372SOL     OW52517   4.738  10.826   6.893 -0.1409  0.0300  0.1536
16372SOL    HW152518   4.674  10.785   6.834 -2.1902  0.5003  1.9143
16372SOL    HW252519   4.743  10.766   6.968  0.4978  0.6550  0.6207
16373SOL     OW52520   2.022   4.359   4.450  0.0073  0.1151 -0.5429
16373SOL    HW152521   2.013   4.393   4.361 -0.8161 -0.1502 -0.5707
16373SOL    HW252522   2.005   4.266   4.442 -0.9877  0.2297  0.0161
16374SOL     OW52523   6.167   1.105   3.151  0.0301  0.3028 -0.1230
16374SOL    HW152524   6.251   1.094   3.108 -0.4770  0.7930 -1.2775
16374SOL    HW252525   6.172   1.190   3.194  0.1724  0.2707 -0.0768
16375SOL     OW52526   6.559   9.751   6.269  0.0478  0.4779  0.1259
16375SOL    HW152527   6.587   9.671   6.312 -1.1298  0.5693  1.0985
16375SOL    HW252528   6.605   9.821   6.316  1.0343  0.4150 -0.6886
16376SOL     OW52529   0.632   4.098   6.048 -0.1601  0.2209  0.0118
16376SOL    HW152530   0.634   4.079   5.954  1.6395  1.5461 -0.2729
16376SOL    HW252531   0.681   4.180   6.057  0.1795 -0.1593  2.1688
16377SOL     OW52532   6.810   5.593   1.751  0.6842 -0.4138  0.3578
16377SOL    HW152533   6.746   5.665   1.758  0.3749 -0.5403 -0.9260
16377SOL    HW252534   6.894   5.635   1.767  0.5631  0.3619 -0.9243
16378SOL     OW52535   8.288   6.478   5.561  0.6529 -0.3053  0.0026
16378SOL    HW152536   8.288   6.412   5.492 -0.6351 -0.0278 -0.2968
16378SOL    HW252537   8.207   6.528   5.546  2.1073  2.0667 -0.4932
16379SOL     OW52538   9.302   1.825   5.249 -0.0623 -0.0146 -0.2899
16379SOL    HW152539   9.344   1.846   5.332  0.3127  0.0644 -0.4945
16379SOL    HW252540   9.368   1.846   5.183  0.4526 -2.0631 -0.4979
16380SOL     OW52541   8.788   8.110   2.896 -0.2214 -0.0163 -0.3264
16380SOL    HW152542   8.783   8.175   2.966 -0.7300 -1.5247  1.0856
16380SOL    HW252543   8.726   8.042   2.922  1.4489 -1.8451 -0.9426
16381SOL     OW52544   6.371   8.413   3.792  0.3733 -0.0552 -0.0028
16381SOL    HW152545   6.429   8.341   3.769  0.7350 -0.2225  1.3417
16381SOL    HW252546   6.430   8.483   3.821 -0.0712 -0.1916  1.2795
16382SOL     OW52547   4.422   7.311   7.641 -0.0860 -0.0284 -0.4017
16382SOL    HW152548   4.441   7.324   7.548  2.1970  0.9724  0.1280
16382SOL    HW252549   4.473   7.234   7.666 -0.3161 -0.0168  0.1193
16383SOL     OW52550   8.356   0.327   9.617 -0.3451 -0.4075  0.4509
16383SOL    HW152551   8.367   0.282   9.533  0.1380 -0.5294  0.5774
16383SOL    HW252552   8.290   0.276   9.663 -1.8522  0.6070 -0.5160
16384SOL     OW52553   6.475   8.323   9.895 -0.0044 -0.4412  0.2491
16384SOL    HW152554   6.486   8.412   9.930  0.0498 -0.9394  1.5507
16384SOL    HW252555   6.380   8.313   9.887  0.0125  0.0829 -0.9076
16385SOL     OW52556   7.538   1.163   9.240  0.5933  0.0103 -0.2249
16385SOL    HW152557   7.471   1.230   9.252  1.1296  0.6981 -0.9811
16385SOL    HW252558   7.553   1.129   9.328 -0.0658  0.5045  0.0924
16386SOL     OW52559   5.831   0.819   9.720 -0.0788 -0.1396 -0.0910
16386SOL    HW152560   5.856   0.757   9.788  1.4596 -0.7570 -1.1633
16386SOL    HW252561   5.795   0.764   9.650 -0.5600  0.3760 -0.2538
16387SOL     OW52562   0.834   9.915   9.252 -0.0147  0.0439 -0.1399
16387SOL    HW152563   0.844  10.007   9.227 -0.9641  0.0878 -0.4045
16387SOL    HW252564   0.850   9.914   9.346 -2.5872  0.9609  0.3946
16388SOL     OW52565   9.126   9.200   3.409  0.3943 -0.4549 -0.3531
16388SOL    HW152566   9.043   9.218   3.452 -0.0937  0.1738 -1.4863
16388SOL    HW252567   9.127   9.261   3.334  1.1758 -1.5083 -1.2326
16389SOL     OW52568   8.395   9.342   3.940  0.3049 -0.4005 -0.1838
16389SOL    HW152569   8.407   9.416   4.000 -4.4703  0.1683  0.4205
16389SOL    HW252570   8.437   9.268   3.985 -1.6488  0.3392  3.1979
16390SOL     OW52571   2.640   1.230   0.456 -0.1161  0.5167 -0.4960
16390SOL    HW152572   2.672   1.292   0.521  0.5237  0.7079 -0.9774
16390SOL    HW252573   2.675   1.262   0.373  1.7768 -1.4682 -0.5648
16391SOL     OW52574   2.392   8.039   5.519  0.5947 -0.2240  0.0681
16391SOL    HW152575   2.301   8.030   5.490  0.4326 -0.2658  0.5780
16391SOL    HW252576   2.391   8.116   5.577  1.2375  0.8810 -1.3204
16392SOL     OW52577   0.797  10.553   6.579  0.1516 -0.7245  0.0967
16392SOL    HW152578   0.874  10.550   6.522  0.7825 -0.7515  0.9325
16392SOL    HW252579   0.736  10.610   6.533  0.9153 -0.1997 -0.2893
16393SOL     OW52580   5.409   1.698   4.250  0.1104  0.1466 -0.1605
16393SOL    HW152581   5.436   1.777   4.204  0.6535 -1.2170 -2.3410
16393SOL    HW252582   5.425   1.627   4.187 -0.7288 -1.6575  1.5525
16394SOL     OW52583   3.340   6.344   2.016  0.1929  0.6442  0.2356
16394SOL    HW152584   3.404   6.295   2.069  1.3731  1.4522 -0.3932
16394SOL    HW252585   3.269   6.365   2.077  0.5125 -0.2676  0.9562
16395SOL     OW52586   4.609   3.542   6.049 -0.2014 -0.2675  0.4286
16395SOL    HW152587   4.645   3.558   6.136  2.6492  2.1017 -0.9861
16395SOL    HW252588   4.558   3.620   6.029  1.2061  0.4005 -0.8475
16396SOL     OW52589   2.347   0.028   4.121 -0.0875  0.5946  0.5299
16396SOL    HW152590   2.376  -0.011   4.039 -1.1847  0.4008  0.2103
16396SOL    HW252591   2.348  -0.044   4.184  2.2449  1.0653  1.1272
16397SOL     OW52592   9.879   9.344   2.077 -0.2799  0.0499  0.1127
16397SOL    HW152593   9.797   9.309   2.114 -0.6147 -2.2799 -2.4869
16397SOL    HW252594   9.947   9.285   2.111 -0.3276 -0.8379 -1.2747
16398SOL     OW52595   3.695   6.914   0.553 -0.5002  0.2463  0.3873
16398SOL    HW152596   3.774   6.950   0.593  0.3678 -1.9901  0.8394
16398SOL    HW252597   3.699   6.943   0.462  1.0206 -0.0519  0.3218
16399SOL     OW52598   4.796  10.080   1.345 -0.1196  0.0329  0.1306
16399SOL    HW152599   4.714  10.091   1.392 -0.6829 -0.6986 -0.6573
16399SOL    HW252600   4.842  10.163   1.358 -0.4581  0.0269  1.5466
16400SOL     OW52601   9.063   3.475   7.072 -0.3169 -0.4609 -0.1838
16400SOL    HW152602   9.025   3.501   6.988 -0.3991 -0.5463 -0.1732
16400SOL    HW252603   9.000   3.503   7.138 -0.4589 -0.7830 -0.1795
16401SOL     OW52604   3.261   1.140   7.754 -0.2680 -0.2453  0.7304
16401SOL    HW152605   3.207   1.200   7.703 -1.3978 -2.1558 -0.4509
16401SOL    HW252606   3.351   1.161   7.729 -0.7241 -0.1495 -0.9409
16402SOL     OW52607   3.439   0.790   6.489  0.5894 -0.3377 -0.0719
16402SOL    HW152608   3.444   0.772   6.395  0.6141 -0.9202  0.0367
16402SOL    HW252609   3.369   0.854   6.498  1.4493  0.7151 -0.6213
16403SOL     OW52610   1.691   2.982  10.516  0.9339 -0.4222  0.0005
16403SOL    HW152611   1.711   2.974  10.423  0.0031 -0.7496 -0.1773
16403SOL    HW252612   1.767   3.028  10.553  2.4083 -2.3360 -0.4889
16404SOL     OW52613   3.795   7.212   0.101  0.2819 -0.8582  0.3364
16404SOL    HW152614   3.748   7.192   0.021 -0.0016  0.9033  0.0052
16404SOL    HW252615   3.875   7.160   0.097  0.9105  0.1782 -1.7701
16405SOL     OW52616   7.169   4.897   1.743  0.0670 -0.3291  0.0110
16405SOL    HW152617   7.227   4.969   1.768 -1.6478  0.9442  0.5029
16405SOL    HW252618   7.201   4.822   1.794  0.9126  0.4714  0.6966
16406SOL     OW52619   7.307   6.668   2.696  0.2307  0.0464  0.6041
16406SOL    HW152620   7.320   6.672   2.791 -0.1872  0.5275  0.6460
16406SOL    HW252621   7.290   6.758   2.671 -0.3600 -0.1805  0.1747
16407SOL     OW52622   5.889   9.211   5.535 -0.7131  0.2835  0.1722
16407SOL    HW152623   5.823   9.195   5.603 -0.2549 -1.4602  0.2551
16407SOL    HW252624   5.956   9.262   5.579 -0.6122 -0.4902  0.9556
16408SOL     OW52625  10.007   7.263   8.031 -0.0525  0.7628  0.2747
16408SOL    HW152626  10.044   7.327   7.971 -1.4282 -0.0248 -1.5373
16408SOL    HW252627  10.083   7.216   8.067  0.8368  1.6716 -0.3690
16409SOL     OW52628   0.647   2.117   5.117  0.0777  0.4244  0.2170
16409SOL    HW152629   0.644   2.211   5.101 -1.6726  0.2971 -0.4277
16409SOL    HW252630   0.665   2.079   5.031 -1.4483  0.0913  0.0212
16410SOL     OW52631   0.675   9.143   0.351 -0.3602  0.2958 -0.1367
16410SOL    HW152632   0.705   9.205   0.284  0.9220 -0.4007 -0.2246
16410SOL    HW252633   0.658   9.062   0.303  1.9874 -0.6612  0.5403
16411SOL     OW52634   9.069   8.475   7.312 -0.0995 -0.6998 -0.5494
16411SOL    HW152635   9.127   8.457   7.386 -0.2306 -1.2880 -0.5788
16411SOL    HW252636   9.005   8.537   7.346  0.2434 -0.4474 -0.3646
16412SOL     OW52637   4.989   2.473   6.539 -0.0122 -0.7178 -0.6195
16412SOL    HW152638   4.921   2.446   6.601  0.4447  0.8782  0.6467
16412SOL    HW252639   4.952   2.452   6.453 -1.3934 -1.4271  0.1112
16413SOL     OW52640   1.863  10.680   1.982  0.5634  0.2683 -0.2313
16413SOL    HW152641   1.892  10.762   2.020 -0.9224  0.7115 -0.0160
16413SOL    HW252642   1.944  10.637   1.954  1.5202  0.8481  1.5285
16414SOL     OW52643   9.164   9.647   6.149 -0.1851 -0.5366 -0.4854
16414SOL    HW152644   9.078   9.636   6.190 -0.3136  1.5204 -0.0899
16414SOL    HW252645   9.154   9.606   6.062 -2.1244  1.0484 -1.0944
16415SOL     OW52646   8.426   1.609   8.456 -0.0564  0.1753 -0.0323
16415SOL    HW152647   8.407   1.597   8.362 -3.6890 -1.4806  0.7465
16415SOL    HW252648   8.355   1.665   8.487  0.6370  0.0369  1.9089
16416SOL     OW52649   8.424   1.554   1.557  0.3924  0.5985  0.1252
16416SOL    HW152650   8.500   1.546   1.615 -0.2319  1.3120  1.0889
16416SOL    HW252651   8.372   1.476   1.576  0.4938  0.5191  0.0748
16417SOL     OW52652   3.786   8.968   2.386 -0.3508  0.0781 -0.6674
16417SOL    HW152653   3.720   8.987   2.319 -2.7597 -0.8599  1.2611
16417SOL    HW252654   3.796   8.872   2.383 -0.0621  0.0873 -0.0897
16418SOL     OW52655   7.279   7.932   9.111 -0.1851  0.9399 -0.0051
16418SOL    HW152656   7.289   7.838   9.126  0.5831  1.0026 -0.1115
16418SOL    HW252657   7.251   7.967   9.195  0.2829  0.7225  0.2452
16419SOL     OW52658   9.134   5.275   3.254  0.2187 -0.0280  0.2218
16419SOL    HW152659   9.080   5.196   3.253  0.9180 -0.5212 -1.5801
16419SOL    HW252660   9.080   5.340   3.209  1.3667 -0.7400 -2.3051
16420SOL     OW52661   1.221   8.495   6.016  0.6840  0.1808  0.0919
16420SOL    HW152662   1.196   8.588   6.011 -1.5992 -0.3914  0.0417
16420SOL    HW252663   1.164   8.452   5.953  0.7852 -1.4575  1.0793
16421SOL     OW52664   1.786   8.939   9.098  0.3195 -0.2097  0.2348
16421SOL    HW152665   1.822   9.008   9.043  1.7279 -0.8587  0.3041
16421SOL    HW252666   1.772   8.866   9.038 -0.5467 -0.0909  0.2812
16422SOL     OW52667   6.792   1.542   3.786  0.3207  0.3515 -0.0407
16422SOL    HW152668   6.781   1.521   3.693  0.8903  0.7600 -0.2069
16422SOL    HW252669   6.813   1.635   3.788  1.8839  0.0326  0.3581
16423SOL     OW52670   7.104   8.517   4.409 -0.4324  0.1353  0.0466
16423SOL    HW152671   7.042   8.458   4.451 -1.2392  1.0266  0.1323
16423SOL    HW252672   7.157   8.552   4.481 -0.5469  0.1994  0.0991
16424SOL     OW52673   2.752   7.903   9.274  0.3744 -0.0337  0.1618
16424SOL    HW152674   2.682   7.867   9.329  1.1980 -0.9222  0.6578
16424SOL    HW252675   2.724   7.993   9.256 -0.2876  0.0269  1.3873
16425SOL     OW52676   1.307   8.296   7.140  0.2099 -0.7207  0.0962
16425SOL    HW152677   1.229   8.268   7.093 -0.0050  0.7839 -0.5006
16425SOL    HW252678   1.373   8.310   7.073  0.8079 -1.3540  0.5361
16426SOL     OW52679   3.264  10.126  10.205  0.0858 -0.3908  0.0905
16426SOL    HW152680   3.330  10.188  10.235 -0.2009 -0.4256  0.8044
16426SOL    HW252681   3.311  10.071  10.142  0.6721 -0.2516  0.3939
16427SOL     OW52682   6.548   5.514   1.004 -0.4660  0.0524 -0.7834
16427SOL    HW152683   6.532   5.543   0.914  0.1060  1.5618 -0.4262
16427SOL    HW252684   6.466   5.532   1.050 -0.3251  0.5302 -0.7116
16428SOL     OW52685   0.053   7.862   4.502 -0.0813 -0.3984 -0.1868
16428SOL    HW152686   0.107   7.940   4.490  0.5225 -1.0534 -2.4631
16428SOL    HW252687   0.007   7.875   4.584  1.5758  1.3957  0.5128
16429SOL     OW52688   4.876   0.042   3.566 -0.4129  0.2318 -0.0859
16429SOL    HW152689   4.871  -0.053   3.571  2.4195  0.0220  0.7947
16429SOL    HW252690   4.841   0.073   3.649 -0.5399 -0.1178 -0.0086
16430SOL     OW52691   2.322   7.996   9.441  0.0547 -0.6030 -0.6088
16430SOL    HW152692   2.417   8.001   9.446 -0.0671  3.1116  0.5363
16430SOL    HW252693   2.294   7.969   9.528 -0.0226 -3.0568 -1.3033
16431SOL     OW52694   3.252   8.457   1.838 -0.1693 -0.1816  0.0514
16431SOL    HW152695   3.167   8.435   1.801  0.6997 -1.9140 -1.0309
16431SOL    HW252696   3.292   8.516   1.774 -0.7252  1.0521  0.8074
16432SOL     OW52697  10.494   4.298   7.319 -0.7060  0.7080  0.0502
16432SOL    HW152698  10.584   4.326   7.337  0.1339 -1.9839  0.4004
16432SOL    HW252699  10.446   4.321   7.399  0.1011  0.4480  0.6216
16433SOL     OW52700   5.940   1.816  10.151  0.0907 -0.0468  0.0886
16433SOL    HW152701   5.864   1.872  10.135 -0.2752 -0.5641 -0.0245
16433SOL    HW252702   5.904   1.728  10.154  0.5560 -0.2102  1.0291
16434SOL     OW52703   5.506   6.725   2.042 -0.5568  0.0449  0.4561
16434SOL    HW152704   5.451   6.716   1.964  2.2546  0.4212 -1.7526
16434SOL    HW252705   5.464   6.793   2.094 -2.9260 -0.7311 -0.3323
16435SOL     OW52706   2.948   9.007   2.822  0.2066 -0.2943  0.0477
16435SOL    HW152707   3.022   8.986   2.766 -0.4663 -2.3829 -0.1450
16435SOL    HW252708   2.944   9.103   2.821  0.7584 -0.1902 -2.7893
16436SOL     OW52709   1.430   5.509   9.601  0.0923 -0.1089  0.1545
16436SOL    HW152710   1.469   5.474   9.681 -0.0046  1.2026  0.7999
16436SOL    HW252711   1.461   5.451   9.532 -0.8296 -2.0150  1.2711
16437SOL     OW52712   7.996   0.528   3.690  0.1807  0.1712 -0.2342
16437SOL    HW152713   7.953   0.446   3.714 -0.3138  0.0808 -1.3927
16437SOL    HW252714   8.079   0.527   3.739  0.3172 -1.1428 -0.4678
16438SOL     OW52715   4.442   5.704   8.954 -0.3174  0.6327 -0.6900
16438SOL    HW152716   4.386   5.705   8.877 -3.1815 -0.7846  1.1910
16438SOL    HW252717   4.387   5.737   9.025  1.3880 -0.3699  1.2217
16439SOL     OW52718   3.445   6.589   5.551  0.4304  0.0166  0.0948
16439SOL    HW152719   3.480   6.530   5.617  0.3655  1.3260  1.3459
16439SOL    HW252720   3.366   6.626   5.591 -0.1096  0.1907 -1.0729
16440SOL     OW52721  10.699   3.124   7.037  0.3275 -0.0918 -0.3565
16440SOL    HW152722  10.623   3.174   7.009  0.4058 -0.6708 -1.6895
16440SOL    HW252723  10.736   3.089   6.955  2.3355  0.6194  0.1901
16441SOL     OW52724   1.181   7.868   5.929 -0.3106  0.1499  0.8856
16441SOL    HW152725   1.119   7.803   5.962 -2.0721  0.8316 -0.8861
16441SOL    HW252726   1.259   7.818   5.906  0.6031 -0.5065  4.7808
16442SOL     OW52727   6.654   2.725   2.640  0.7484  0.6972 -0.3002
16442SOL    HW152728   6.588   2.785   2.605  0.4737  0.8505  0.4596
16442SOL    HW252729   6.737   2.759   2.607  0.7160  2.1699  0.9819
16443SOL     OW52730   5.107   5.693   4.712  0.6871 -0.0125  0.6111
16443SOL    HW152731   5.190   5.733   4.741  0.5350  0.6600  0.1456
16443SOL    HW252732   5.043   5.764   4.720  0.1727 -0.4981  0.8566
16444SOL     OW52733   3.779   2.166   0.213  0.6231 -0.2081 -0.9166
16444SOL    HW152734   3.767   2.091   0.271  1.0462 -0.6694 -1.4251
16444SOL    HW252735   3.733   2.142   0.133 -0.1711  0.5327 -0.6970
16445SOL     OW52736   8.597   7.875   5.253 -0.3014 -0.5930  0.4641
16445SOL    HW152737   8.570   7.917   5.171 -1.1143 -1.8247  0.0775
16445SOL    HW252738   8.691   7.860   5.241  0.2789  2.0782  1.0819
16446SOL     OW52739   5.872   2.856   7.755  0.3803  0.0227 -0.4307
16446SOL    HW152740   5.899   2.768   7.729  0.9719  0.1201 -0.1846
16446SOL    HW252741   5.953   2.897   7.786  0.1664  0.7456 -0.7994
16447SOL     OW52742   3.449   7.872   8.944  0.5570 -0.1868 -0.7362
16447SOL    HW152743   3.476   7.782   8.928  0.6715 -0.2900 -0.0198
16447SOL    HW252744   3.356   7.873   8.924  0.1375 -0.9276  0.9256
16448SOL     OW52745   8.905   9.521   6.714 -0.6652 -0.0836  0.3409
16448SOL    HW152746   8.893   9.615   6.697  0.2526  0.2847  1.4912
16448SOL    HW252747   8.954   9.489   6.638  0.3644  0.7327  0.6290
16449SOL     OW52748   9.744   3.095   1.588 -0.8148  0.2432 -0.1560
16449SOL    HW152749   9.835   3.104   1.560 -0.9391  0.3303 -0.5377
16449SOL    HW252750   9.746   3.112   1.682 -0.6264  1.6347 -0.3843
16450SOL     OW52751   8.857   1.281   0.375 -0.0216  0.2880 -0.0675
16450SOL    HW152752   8.861   1.377   0.368 -0.5017  0.2401 -1.3539
16450SOL    HW252753   8.948   1.255   0.388  0.1044  0.9263  0.3867
16451SOL     OW52754   3.176   5.201   7.914 -0.4296  0.4253  0.1079
16451SOL    HW152755   3.082   5.212   7.902 -0.4697 -0.9819 -1.0350
16451SOL    HW252756   3.214   5.222   7.829  0.3222  1.1416  0.6059
16452SOL     OW52757   2.825   8.106   8.502  0.8326 -0.1201  0.3176
16452SOL    HW152758   2.885   8.165   8.549  0.5093 -1.2249  2.2408
16452SOL    HW252759   2.738   8.141   8.520  0.7703  1.9286 -3.0969
16453SOL     OW52760   1.877  10.368   3.260  0.0773  0.4007 -0.0164
16453SOL    HW152761   1.838  10.440   3.309  0.1194 -0.1187  0.8020
16453SOL    HW252762   1.807  10.336   3.204 -0.5313 -0.2035  1.0779
16454SOL     OW52763   4.818   5.742   1.564 -0.0537 -0.8620  0.1388
16454SOL    HW152764   4.831   5.837   1.565  0.7052 -0.9409 -0.4668
16454SOL    HW252765   4.726   5.730   1.584 -0.2115  0.0191 -0.0018
16455SOL     OW52766   9.945   4.491   3.436 -0.1116 -0.2175 -0.2918
16455SOL    HW152767  10.025   4.542   3.449 -0.0537  0.0587 -1.5588
16455SOL    HW252768   9.895   4.503   3.516  0.2052  1.2835 -0.2962
16456SOL     OW52769   8.618   6.336   0.957  0.0125 -0.7671  0.2876
16456SOL    HW152770   8.612   6.242   0.938 -0.4535 -0.8073  0.6176
16456SOL    HW252771   8.528   6.368   0.951  0.3814  0.0433 -1.6998
16457SOL     OW52772   2.312   6.215   6.866 -0.2416  0.3627  0.7347
16457SOL    HW152773   2.249   6.153   6.902 -0.0280  0.3545  1.0964
16457SOL    HW252774   2.317   6.193   6.773 -1.2252  0.7572  0.5803
16458SOL     OW52775   6.522   9.757   5.059 -0.1101 -0.2093 -0.9358
16458SOL    HW152776   6.449   9.714   5.103 -0.3578  0.1468 -0.9948
16458SOL    HW252777   6.600   9.725   5.105 -0.3952  0.5110  0.0641
16459SOL     OW52778   7.905   3.129   6.771  0.1057 -0.0848  0.0627
16459SOL    HW152779   7.950   3.209   6.744 -0.5163 -0.0602 -0.9266
16459SOL    HW252780   7.943   3.060   6.718 -0.2661 -0.2361 -0.0118
16460SOL     OW52781   5.794   7.930   3.868 -0.1740 -0.0297  0.2384
16460SOL    HW152782   5.707   7.957   3.840 -1.1963  0.3044  3.2778
16460SOL    HW252783   5.853   7.992   3.826 -1.5947  1.0029 -0.3325
16461SOL     OW52784   8.365   6.308   1.253 -0.0444 -0.7206 -0.5856
16461SOL    HW152785   8.283   6.353   1.233  0.9072  1.6360  0.4459
16461SOL    HW252786   8.366   6.234   1.193 -2.8509 -0.7838 -0.7118
16462SOL     OW52787   4.215   4.696   5.747 -0.0407  0.1384  0.1083
16462SOL    HW152788   4.182   4.611   5.717 -1.8061  0.6012  0.6137
16462SOL    HW252789   4.291   4.713   5.691 -0.9148 -0.7892 -1.4397
16463SOL     OW52790   3.691   0.968   4.568 -0.1724 -0.1833  0.1595
16463SOL    HW152791   3.676   0.877   4.594 -0.5531  0.3905  2.1313
16463SOL    HW252792   3.773   0.966   4.520  0.4514 -1.4179  1.2083
16464SOL     OW52793  10.151   2.669   4.647 -0.3086 -0.0168  0.4127
16464SOL    HW152794  10.163   2.589   4.698  2.3953  0.8346  1.3111
16464SOL    HW252795  10.142   2.738   4.712 -0.1018  0.6943 -0.2860
16465SOL     OW52796   9.802   3.400   3.690  0.0718 -0.2570  0.0665
16465SOL    HW152797   9.739   3.464   3.724 -1.7416 -1.8799 -0.0493
16465SOL    HW252798   9.843   3.363   3.768  1.0446  0.9056  0.1381
16466SOL     OW52799   3.339   6.032   0.750  0.2053  0.1297  0.3054
16466SOL    HW152800   3.267   5.970   0.736 -1.3004  1.9263 -0.1960
16466SOL    HW252801   3.347   6.039   0.845 -1.6110  1.3522  0.4014
16467SOL     OW52802   4.654   0.235   0.597  0.5758  0.0934 -0.1133
16467SOL    HW152803   4.592   0.225   0.669  1.4480  0.4148  0.6997
16467SOL    HW252804   4.627   0.169   0.533 -0.5373  0.1673  0.2614
16468SOL     OW52805   8.233   6.239   8.792  0.6403 -0.4069 -0.0488
16468SOL    HW152806   8.192   6.260   8.708  0.8772 -0.2254 -0.1195
16468SOL    HW252807   8.175   6.174   8.831  1.2389 -1.5437 -0.9812
16469SOL     OW52808   0.740   0.497   5.167  0.1950  0.3609 -0.1168
16469SOL    HW152809   0.759   0.509   5.074  0.7154 -0.3755 -0.1130
16469SOL    HW252810   0.670   0.432   5.169  0.6240 -0.1051  0.0208
16470SOL     OW52811   4.939   7.466   9.144  0.0899 -0.0466 -0.1863
16470SOL    HW152812   4.968   7.396   9.084  0.3711 -1.0543  1.0910
16470SOL    HW252813   5.020   7.501   9.181 -0.1271 -0.0516  0.2966
16471SOL     OW52814   5.665   5.985   1.957 -0.6577 -0.0142 -0.0316
16471SOL    HW152815   5.638   6.008   1.868 -0.3540  3.9713  0.6855
16471SOL    HW252816   5.760   6.000   1.958 -0.4434 -1.2604  0.6920
16472SOL     OW52817   9.729   5.882   2.405  0.5225 -0.0465  0.2786
16472SOL    HW152818   9.656   5.822   2.388  0.1273  0.3848  0.4080
16472SOL    HW252819   9.691   5.969   2.390  0.9273  0.1973  0.6547
16473SOL     OW52820   6.937   9.851   5.100  0.4091 -0.2011  0.6135
16473SOL    HW152821   6.917   9.912   5.171  0.0524 -0.1668  0.4862
16473SOL    HW252822   6.889   9.771   5.123  0.6399 -0.3355  0.6302
16474SOL     OW52823  10.402   5.773   2.497  0.3265 -0.5310  0.3431
16474SOL    HW152824  10.448   5.773   2.413 -1.4636  0.0098 -0.7185
16474SOL    HW252825  10.430   5.855   2.539 -0.1111  0.1196 -0.5743
16475SOL     OW52826   4.139   9.567   1.383  0.1090  0.3505  0.2227
16475SOL    HW152827   4.105   9.646   1.342  0.4183  2.0789  3.0564
16475SOL    HW252828   4.233   9.568   1.363  0.1817  0.9396  0.5708
16476SOL     OW52829   6.227   1.590   6.048 -0.2663  0.4198 -0.3884
16476SOL    HW152830   6.305   1.540   6.070  0.1179  1.0263 -0.3428
16476SOL    HW252831   6.171   1.582   6.126  0.0578  0.5682 -0.1371
16477SOL     OW52832   8.253   9.470   1.792 -0.3415 -0.0674  0.7085
16477SOL    HW152833   8.241   9.560   1.762  1.1454 -0.0050  0.2153
16477SOL    HW252834   8.276   9.479   1.885  1.6184  0.2157  0.2264
16478SOL     OW52835   7.443  10.826   8.294 -0.0047 -0.5818  0.4756
16478SOL    HW152836   7.484  10.905   8.260 -1.9817  0.0651 -0.6032
16478SOL    HW252837   7.391  10.855   8.368  1.2848 -1.3552  1.7227
16479SOL     OW52838   1.857   4.828   5.827  0.4441 -0.0851 -0.0923
16479SOL    HW152839   1.934   4.847   5.880  0.8221 -0.4103 -0.5172
16479SOL    HW252840   1.878   4.747   5.781 -0.8439 -1.1554  1.1082
16480SOL     OW52841   8.471   9.897   8.984 -0.7198  0.7199 -0.1088
16480SOL    HW152842   8.510   9.826   9.035  1.5167  2.1871  0.3777
16480SOL    HW252843   8.412   9.942   9.045 -0.2990  0.7071  0.3120
16481SOL     OW52844   3.250   8.850   4.541  0.0435 -0.0102  0.7940
16481SOL    HW152845   3.205   8.927   4.576 -0.0655 -0.7129  2.2515
16481SOL    HW252846   3.300   8.815   4.614  0.2632 -1.2032  0.1095
16482SOL     OW52847   0.802   9.750   9.665  0.1610  0.2465  0.2734
16482SOL    HW152848   0.891   9.723   9.639  0.2478  1.8301 -1.2354
16482SOL    HW252849   0.816   9.808   9.740  0.3687  0.2415  0.2404
16483SOL     OW52850   2.060   2.899   9.519 -0.0744  0.5947  0.2154
16483SOL    HW152851   2.003   2.846   9.465  0.7273 -0.1010  0.0249
16483SOL    HW252852   2.115   2.835   9.565 -0.3357  1.1918  1.3916
16484SOL     OW52853   0.014   8.743   5.432  0.1931  0.2325  0.3163
16484SOL    HW152854  -0.068   8.738   5.481  0.3273  1.6731  0.7226
16484SOL    HW252855   0.058   8.660   5.451 -0.5345  0.0296  1.2160
16485SOL     OW52856   3.147   6.248   0.003  0.2784 -0.9804  0.3426
16485SOL    HW152857   3.116   6.331   0.040 -0.7114 -1.1547 -0.0985
16485SOL    HW252858   3.095   6.234  -0.075  1.8169 -1.0240 -0.7323
16486SOL     OW52859   9.842   2.367  10.226 -0.1068 -0.2824 -0.0702
16486SOL    HW152860   9.814   2.445  10.178  0.0993  0.1265  0.4610
16486SOL    HW252861   9.904   2.401  10.291  2.1861 -1.2101 -1.6449
16487SOL     OW52862   6.595   7.165   2.564 -0.4499  0.2191  0.2261
16487SOL    HW152863   6.514   7.117   2.545 -0.2717  0.4216 -1.1765
16487SOL    HW252864   6.581   7.203   2.650 -1.3827 -0.7139  0.5115
16488SOL     OW52865   7.413   0.533   9.928  0.0362 -0.8657 -0.5786
16488SOL    HW152866   7.497   0.529   9.974 -0.4191 -0.4806  0.3050
16488SOL    HW252867   7.392   0.441   9.909  0.3808 -1.0034 -0.3019
16489SOL     OW52868   7.486   0.332   1.200 -0.3098 -0.7884 -0.9798
16489SOL    HW152869   7.554   0.269   1.221 -0.0627 -0.8109 -1.7864
16489SOL    HW252870   7.404   0.286   1.218 -0.1364 -1.3786 -1.6211
16490SOL     OW52871   3.051   3.098   5.333 -0.2188  0.3096  0.2683
16490SOL    HW152872   3.044   3.064   5.244 -0.4297  0.6580  0.1512
16490SOL    HW252873   3.125   3.049   5.371 -0.7522 -0.5495  0.2316
16491SOL     OW52874   1.454  10.198   8.395  0.1800 -0.1130 -0.0650
16491SOL    HW152875   1.448  10.234   8.307  0.9417 -0.3632 -0.2240
16491SOL    HW252876   1.545  10.172   8.405  0.5630  1.5376  1.4409
16492SOL     OW52877   2.389   9.254   9.087  0.1907 -0.0939  0.0690
16492SOL    HW152878   2.379   9.254   8.992  0.6193 -0.3286  0.0162
16492SOL    HW252879   2.302   9.270   9.121  0.1060  0.4246 -0.3714
16493SOL     OW52880   9.094  10.108   6.681  0.6740  0.1047  0.5176
16493SOL    HW152881   9.187  10.092   6.698  0.8162  1.3725  1.0218
16493SOL    HW252882   9.049  10.068   6.756  0.9127  0.6599  0.9633
16494SOL     OW52883   3.987   2.131  10.398 -0.2063 -0.0254  0.3811
16494SOL    HW152884   4.020   2.060  10.452  0.2287 -0.1956 -0.0990
16494SOL    HW252885   3.992   2.209  10.453  0.2144 -0.2011  0.5868
16495SOL     OW52886   0.844   8.601   7.516 -0.3802  0.5407 -0.5854
16495SOL    HW152887   0.784   8.533   7.485  1.0414  0.1295 -2.6785
16495SOL    HW252888   0.929   8.557   7.522 -0.1734  1.1407  2.1642
16496SOL     OW52889   3.032   7.144   1.983 -0.1247  0.3934 -0.4041
16496SOL    HW152890   3.065   7.079   2.045 -0.0330 -0.5295 -1.4126
16496SOL    HW252891   3.109   7.192   1.955  0.0595 -0.2545 -1.0220
16497SOL     OW52892   0.196   0.309   6.981 -0.0036  0.3659  0.9966
16497SOL    HW152893   0.246   0.232   6.952  0.4007  0.7654  0.6098
16497SOL    HW252894   0.174   0.354   6.900 -0.8084  0.3111  1.1833
16498SOL     OW52895   8.029   7.465   3.430 -0.0389  0.7632  0.0844
16498SOL    HW152896   8.037   7.406   3.505 -1.3452  0.6403  0.1529
16498SOL    HW252897   7.953   7.432   3.382  1.0730  0.5393 -1.5764
16499SOL     OW52898   2.697   2.286   7.078 -0.3995 -0.2353 -0.4339
16499SOL    HW152899   2.781   2.241   7.086 -0.3654 -0.4556 -1.7326
16499SOL    HW252900   2.718   2.365   7.027 -0.8448  0.1144 -0.0786
16500SOL     OW52901   8.731   5.868   2.809 -0.7784 -0.2599  0.2648
16500SOL    HW152902   8.702   5.959   2.815 -2.7822 -0.8024 -0.1780
16500SOL    HW252903   8.822   5.869   2.836 -0.6129  1.9482 -0.2193
16501SOL     OW52904   1.608   7.827   1.931 -0.0717  0.3912 -0.2625
16501SOL    HW152905   1.567   7.811   2.016  1.2077  0.2333  0.3403
16501SOL    HW252906   1.651   7.745   1.908 -2.2124 -0.3399 -2.1656
16502SOL     OW52907   3.067   5.469   9.402 -0.5894  0.4130  0.0257
16502SOL    HW152908   3.161   5.485   9.410  0.2418 -3.0324 -0.9844
16502SOL    HW252909   3.049   5.399   9.466 -2.3807  0.7003 -0.0976
16503SOL     OW52910   3.772   9.277   1.367 -0.4679 -0.2639  0.1573
16503SOL    HW152911   3.707   9.284   1.438  0.0201 -2.0661  0.8356
16503SOL    HW252912   3.814   9.363   1.365 -1.2801  0.1897  1.2800
16504SOL     OW52913   7.289   4.958   6.932 -0.5098  0.0805 -0.5456
16504SOL    HW152914   7.263   5.038   6.976 -0.8178 -0.3427  0.0634
16504SOL    HW252915   7.361   4.984   6.874 -0.2390  0.6914  0.0541
16505SOL     OW52916  10.513   8.009   0.551 -0.8985  0.1472  0.1678
16505SOL    HW152917  10.560   8.078   0.505  0.8787 -0.9464  0.2882
16505SOL    HW252918  10.427   8.005   0.508 -0.0737  0.6228 -1.5790
16506SOL     OW52919   4.939  10.087   3.200  0.2228  0.2276 -0.0684
16506SOL    HW152920   4.996  10.014   3.225  0.9334  1.2109  1.3297
16506SOL    HW252921   4.854  10.066   3.240 -0.3017 -0.9925 -1.7306
16507SOL     OW52922   5.000   6.592   7.053  0.0259 -0.4826  0.2869
16507SOL    HW152923   5.082   6.639   7.037 -0.9672  1.1080 -0.3605
16507SOL    HW252924   5.017   6.542   7.133  1.3308  0.5402  0.6968
16508SOL     OW52925   3.537   2.303   1.624 -0.8290 -0.4641  0.4179
16508SOL    HW152926   3.518   2.338   1.711  1.2907 -2.3218  1.7346
16508SOL    HW252927   3.536   2.379   1.566 -1.1147  1.0011  2.2636
16509SOL     OW52928   7.213   2.865   0.290 -0.0017  0.7379 -0.1132
16509SOL    HW152929   7.201   2.879   0.196  0.4084  0.3547 -0.2222
16509SOL    HW252930   7.307   2.864   0.303 -0.0234 -0.6267  0.0784
16510SOL     OW52931   9.024   2.304   5.858 -0.0953  0.2376 -0.6736
16510SOL    HW152932   8.940   2.338   5.826  1.0227  1.8252 -2.1036
16510SOL    HW252933   9.040   2.354   5.939 -0.7109 -0.3896 -0.1505
16511SOL     OW52934   3.699  10.390   1.946  0.1850 -0.2016 -1.1047
16511SOL    HW152935   3.733  10.443   2.018 -0.6272  0.3891 -1.1325
16511SOL    HW252936   3.770  10.388   1.882  0.8972 -0.6984 -0.3171
16512SOL     OW52937   5.408   2.201   8.819  0.4131  0.4391  0.4168
16512SOL    HW152938   5.318   2.177   8.842  1.2569 -3.5327  0.3764
16512SOL    HW252939   5.409   2.202   8.724  0.3551  0.7275  0.4197
16513SOL     OW52940   8.203   2.989   2.401 -0.0648  0.3865  0.2527
16513SOL    HW152941   8.172   3.076   2.424 -1.2630  0.2519 -0.7779
16513SOL    HW252942   8.276   3.004   2.342 -0.7922  0.7134 -0.5856
16514SOL     OW52943  10.029   1.738   5.902 -0.3515 -0.3987 -0.3604
16514SOL    HW152944  10.091   1.668   5.880 -0.1324  0.6190 -3.5123
16514SOL    HW252945   9.956   1.724   5.841 -2.5158 -0.5480  2.1047
16515SOL     OW52946   4.310   1.509   8.037  0.5180  0.4181  0.8226
16515SOL    HW152947   4.300   1.425   8.082 -0.7458  0.6480  1.0055
16515SOL    HW252948   4.324   1.485   7.945  1.0560 -0.0064  1.0106
16516SOL     OW52949   1.055   4.029   1.189 -0.0084  0.0227  0.0659
16516SOL    HW152950   0.987   4.089   1.159  1.4457  1.6654 -0.1067
16516SOL    HW252951   1.136   4.079   1.183  1.3305 -2.0206 -0.2468
16517SOL     OW52952   1.725   2.073   1.914  0.0577  0.2254 -0.5245
16517SOL    HW152953   1.705   1.980   1.902 -1.1940  0.1828  1.4587
16517SOL    HW252954   1.642   2.117   1.900  0.6871  1.1113 -1.6556
16518SOL     OW52955   9.657   9.520   1.880 -0.1900  0.0371 -0.0009
16518SOL    HW152956   9.730   9.580   1.897 -0.9474  0.6902  1.1317
16518SOL    HW252957   9.690   9.460   1.813  0.9823  1.0210 -0.3469
16519SOL     OW52958   6.530   0.822   3.380  0.3394  0.1114 -0.1299
16519SOL    HW152959   6.617   0.827   3.342  0.9227  1.3510  1.2621
16519SOL    HW252960   6.487   0.749   3.335  2.3553 -1.0377 -0.2839
16520SOL     OW52961   8.775   1.094   8.124 -0.3849  0.8942  0.2285
16520SOL    HW152962   8.787   1.002   8.102  0.3380  1.3013 -1.1240
16520SOL    HW252963   8.699   1.094   8.183 -0.4621 -0.5451  0.1656
16521SOL     OW52964   2.354   3.092   7.519 -0.4260  0.3052  0.3929
16521SOL    HW152965   2.443   3.102   7.485 -0.9692 -1.0988 -1.5564
16521SOL    HW252966   2.302   3.154   7.469 -0.9133 -0.4239 -0.0072
16522SOL     OW52967   6.997  10.848   3.211  0.8900  0.2515  0.1817
16522SOL    HW152968   7.002  10.942   3.227  1.6122  0.1521  0.5764
16522SOL    HW252969   7.026  10.836   3.121  1.1477  0.3705  0.2500
16523SOL     OW52970   3.166   7.381   7.627  0.3962  0.7231  0.2276
16523SOL    HW152971   3.110   7.393   7.550  0.2356 -0.9599  0.0289
16523SOL    HW252972   3.213   7.463   7.636 -1.8273  2.0807  0.1846
16524SOL     OW52973   5.137   5.041   3.925  0.0662  0.3566  0.7563
16524SOL    HW152974   5.185   5.118   3.954 -0.8820  2.1989 -2.1079
16524SOL    HW252975   5.063   5.076   3.876  0.2917 -2.3288 -1.8090
16525SOL     OW52976   9.734   0.695   5.969 -0.3388 -0.8593  0.2384
16525SOL    HW152977   9.732   0.783   6.006  1.4409 -0.6657 -0.0055
16525SOL    HW252978   9.671   0.697   5.897 -0.7286  0.0403  0.5913
16526SOL     OW52979   0.583   6.240   1.011 -0.0496  0.0878  0.2716
16526SOL    HW152980   0.594   6.327   1.050  0.3166  0.1371  0.0614
16526SOL    HW252981   0.530   6.192   1.074 -0.5936  0.5896  0.2113
16527SOL     OW52982   4.729   6.813   5.495  0.1671  0.6489  0.8649
16527SOL    HW152983   4.686   6.764   5.565 -1.2656  0.4102 -0.1275
16527SOL    HW252984   4.776   6.746   5.445  1.4065  0.8529  1.7014
16528SOL     OW52985   5.781   1.789   0.448  0.0127 -0.1338 -0.4692
16528SOL    HW152986   5.876   1.782   0.449  0.0537  0.5010  0.3460
16528SOL    HW252987   5.751   1.698   0.444  0.6399 -0.4186  0.7550
16529SOL     OW52988   4.346   7.451   1.678  0.5693 -0.1598 -0.0714
16529SOL    HW152989   4.309   7.363   1.670 -1.5702  0.7363 -1.0241
16529SOL    HW252990   4.419   7.451   1.616  0.3502 -1.1447 -0.3599
16530SOL     OW52991   7.537   2.253   0.656  0.0311 -0.0952  0.1437
16530SOL    HW152992   7.604   2.316   0.629  2.0656 -2.7100 -1.2852
16530SOL    HW252993   7.553   2.239   0.749  0.6003  0.2741  0.1041
16531SOL     OW52994   9.042   3.339   9.878  0.3395 -0.0284  0.3266
16531SOL    HW152995   8.958   3.295   9.870  0.3965 -0.0009 -0.4638
16531SOL    HW252996   9.086   3.294   9.950  0.5805 -1.5737 -0.7346
16532SOL     OW52997   8.726   0.054   3.669 -0.8495  0.1300  0.0532
16532SOL    HW152998   8.821   0.046   3.678 -0.8547  1.2447  1.4932
16532SOL    HW252999   8.714   0.139   3.626 -1.2111  0.7638  1.3593
16533SOL     OW53000   4.930   2.660   9.648 -0.2416  0.1094 -0.2861
16533SOL    HW153001   4.921   2.565   9.640 -1.5764  0.1093  0.8809
16533SOL    HW253002   4.992   2.672   9.720  0.0703  0.1295 -0.5562
16534SOL     OW53003   3.985   6.504  10.640  0.0341 -0.4224  0.0366
16534SOL    HW153004   3.982   6.470  10.729  0.3929  0.6565  0.4750
16534SOL    HW253005   4.053   6.453  10.596 -1.2280 -2.0515 -0.1084
16535SOL     OW53006   3.887  10.512  10.357 -0.0498  0.5191 -0.1473
16535SOL    HW153007   3.955  10.446  10.371  0.6694  0.7413 -2.3305
16535SOL    HW253008   3.852  10.529  10.445  1.3210 -1.0655  0.7579
16536SOL     OW53009   9.749   8.451   6.734  0.8501  0.7511 -0.2544
16536SOL    HW153010   9.656   8.458   6.755  0.3853 -0.3270 -1.7695
16536SOL    HW253011   9.766   8.357   6.727  2.7794  0.7588  2.7614
16537SOL     OW53012   4.557   5.253   0.890 -0.2120 -0.2050 -0.4313
16537SOL    HW153013   4.601   5.248   0.974 -1.6053 -0.7919  0.2962
16537SOL    HW253014   4.610   5.313   0.838  1.4644 -0.9378  0.3627
16538SOL     OW53015   6.016   2.007   5.418  1.0510 -0.1599  0.1995
16538SOL    HW153016   5.986   1.961   5.496  0.3444  0.3592  0.2452
16538SOL    HW253017   6.003   1.945   5.346 -2.9922  0.9490 -0.2827
16539SOL     OW53018   5.575   9.429   1.398  0.4258 -0.2023 -0.1791
16539SOL    HW153019   5.600   9.461   1.484  3.9576 -1.7590 -0.4494
16539SOL    HW253020   5.597   9.500   1.338 -0.4881  0.2674  0.0335
16540SOL     OW53021   8.113   6.512   2.278 -0.6171  0.1085  0.0654
16540SOL    HW153022   8.192   6.459   2.264  0.6465  2.0556 -0.7452
16540SOL    HW253023   8.048   6.476   2.218  0.2493 -0.4342 -0.5681
16541SOL     OW53024   1.233   6.566   6.304 -0.1289  0.0789 -0.8507
16541SOL    HW153025   1.178   6.488   6.297 -1.8218  1.0069  1.1265
16541SOL    HW253026   1.195   6.627   6.240 -3.0129  1.4976  1.9161
16542SOL     OW53027   8.761   9.060   1.045  0.1409  0.1613 -0.0587
16542SOL    HW153028   8.691   9.034   1.105 -0.2975 -0.1257 -0.6924
16542SOL    HW253029   8.827   8.991   1.054  0.3715  0.4512  0.5666
16543SOL     OW53030   9.080   5.990   6.338  0.2491 -0.2992  0.5111
16543SOL    HW153031   9.033   5.924   6.287  0.5885 -0.3195  0.2239
16543SOL    HW253032   9.012   6.030   6.393  0.1174 -1.1596  0.9895
16544SOL     OW53033   2.706   7.435   6.676  0.3575  0.2975 -0.0707
16544SOL    HW153034   2.687   7.403   6.765  2.2222 -1.4119 -0.2155
16544SOL    HW253035   2.693   7.358   6.620  0.8948  0.9041 -1.0454
16545SOL     OW53036   5.938   3.903   1.180 -0.1634  0.2234 -0.1098
16545SOL    HW153037   5.977   3.853   1.252 -1.9747  0.1757  0.9133
16545SOL    HW253038   5.960   3.994   1.199 -1.6590  0.3432  1.2538
16546SOL     OW53039   4.162   6.451   2.591  0.4408  0.5099  0.0538
16546SOL    HW153040   4.252   6.485   2.586  0.1832  1.8357  2.8031
16546SOL    HW253041   4.171   6.358   2.573  2.0849  0.8989 -1.4924
16547SOL     OW53042   4.122   9.932   2.063  0.0791  0.1469 -0.6254
16547SOL    HW153043   4.039   9.958   2.103  0.2378  0.5725 -0.5636
16547SOL    HW253044   4.187   9.943   2.133 -0.0457 -1.7206 -0.1883
16548SOL     OW53045   3.270   1.694   1.888 -0.2191 -0.0443 -0.1709
16548SOL    HW153046   3.315   1.778   1.897 -1.4896  0.5575  0.9317
16548SOL    HW253047   3.196   1.713   1.830 -0.8335 -0.2534  0.5338
16549SOL     OW53048   1.363   4.460   3.411 -0.2411  0.4200 -0.0227
16549SOL    HW153049   1.448   4.450   3.453 -0.3088  1.5510  0.4039
16549SOL    HW253050   1.324   4.537   3.452 -1.4781 -0.0799 -0.2129
16550SOL     OW53051  10.845   6.532  10.847  0.1569  0.4742 -0.6832
16550SOL    HW153052  10.899   6.588  10.792 -0.3740  1.4840 -0.2242
16550SOL    HW253053  10.906   6.493  10.909  0.7985 -0.8807 -2.1113
16551SOL     OW53054   0.765   8.705   4.415  0.4001 -0.0581  0.4257
16551SOL    HW153055   0.805   8.765   4.352 -1.1597 -0.0658 -0.6407
16551SOL    HW253056   0.813   8.623   4.404 -1.6272 -0.9983 -2.9907
16552SOL     OW53057   9.239   1.000   3.556 -0.2202 -0.0680 -0.5742
16552SOL    HW153058   9.154   1.018   3.516 -0.0561  0.4302 -0.7061
16552SOL    HW253059   9.247   0.905   3.553 -0.8910 -0.1419 -0.3118
16553SOL     OW53060  10.479   7.601   6.739 -0.2427 -0.8314  0.0625
16553SOL    HW153061  10.425   7.602   6.817 -1.0570  2.7148 -0.3578
16553SOL    HW253062  10.417   7.608   6.666  0.5976 -0.2660 -0.6317
16554SOL     OW53063   4.887   7.745   6.648 -0.9304  0.3839  0.1207
16554SOL    HW153064   4.833   7.803   6.701  0.1043  1.5996 -0.1010
16554SOL    HW253065   4.950   7.707   6.710 -0.5569  0.7956  0.0036
16555SOL     OW53066   9.001   1.112   1.464 -0.3172 -0.5134 -0.3837
16555SOL    HW153067   8.999   1.147   1.374 -0.6234 -0.0637 -0.2067
16555SOL    HW253068   9.007   1.190   1.519  3.2957 -0.8586 -0.0801
16556SOL     OW53069   9.447   1.736   3.863  0.1731  0.3420  0.4326
16556SOL    HW153070   9.537   1.711   3.846 -0.0643 -1.5593  1.7681
16556SOL    HW253071   9.395   1.681   3.803 -0.1924  0.0091  1.0492
16557SOL     OW53072   3.802   7.185   1.783  0.0158 -0.1870 -0.0095
16557SOL    HW153073   3.776   7.122   1.717  0.5907  0.6636 -1.0800
16557SOL    HW253074   3.878   7.146   1.826  0.5724 -0.0983 -0.8907
16558SOL     OW53075   6.813  10.524   4.762 -0.1589  0.5801  0.1405
16558SOL    HW153076   6.886  10.477   4.804  0.6484 -0.1135 -1.8857
16558SOL    HW253077   6.853  10.605   4.730  0.2946 -0.5908 -2.5642
16559SOL     OW53078   4.968   6.371   1.308 -0.4322 -0.4492  0.3344
16559SOL    HW153079   5.008   6.458   1.308 -0.7531 -0.2248  2.5173
16559SOL    HW253080   5.042   6.311   1.299 -0.3574 -0.0298 -3.1566
16560SOL     OW53081   7.341   2.530   9.564  0.1735 -0.3590  0.0985
16560SOL    HW153082   7.411   2.543   9.628 -0.7913  0.6928  0.9894
16560SOL    HW253083   7.307   2.443   9.584 -0.0321 -0.0953  0.9655
16561SOL     OW53084  10.161   4.730   2.552 -0.4233 -0.1250  0.0393
16561SOL    HW153085  10.226   4.731   2.482  1.0641  1.4388  1.3208
16561SOL    HW253086  10.193   4.663   2.613  1.6233  2.3644  1.9477
16562SOL     OW53087   3.510   3.315   8.586  0.1060  0.2167  0.2467
16562SOL    HW153088   3.529   3.364   8.506  1.3927 -0.3100  0.2081
16562SOL    HW253089   3.414   3.308   8.588 -0.0498  1.8028 -0.2864
16563SOL     OW53090   7.544  10.885   7.414  0.1516  0.2045  0.8010
16563SOL    HW153091   7.611  10.907   7.479 -0.8988  0.4719  1.8311
16563SOL    HW253092   7.589  10.830   7.351  1.2107 -0.0674  1.7626
16564SOL     OW53093   2.772   1.936   7.072  0.3849  0.5735  0.4190
16564SOL    HW153094   2.830   1.864   7.097  0.2839  0.9371  1.7769
16564SOL    HW253095   2.818   2.015   7.101 -0.0361  0.9740  0.0099
16565SOL     OW53096   3.114   3.513   7.476  0.6036 -0.2564 -0.4561
16565SOL    HW153097   3.143   3.482   7.562 -0.4086  0.9518  0.3573
16565SOL    HW253098   3.157   3.598   7.464  0.4553 -0.2468 -0.9800
16566SOL     OW53099   2.093   0.460   9.447 -0.8311  0.0262  0.3696
16566SOL    HW153100   2.099   0.366   9.465  1.0015  0.2815  1.3512
16566SOL    HW253101   2.145   0.501   9.517 -0.4044  1.6649 -0.8465
16567SOL     OW53102   2.164   2.380   5.151  0.7647 -0.3243 -0.3900
16567SOL    HW153103   2.192   2.418   5.234  0.0385 -0.0995 -0.2462
16567SOL    HW253104   2.241   2.331   5.120  1.7981  1.3823 -0.6730
16568SOL     OW53105   0.024   4.394   2.128 -0.4463  0.3114  0.2398
16568SOL    HW153106  -0.023   4.388   2.211  1.2982  1.1447  1.3400
16568SOL    HW253107   0.088   4.322   2.130 -0.3915  0.3285 -0.4011
16569SOL     OW53108   8.741   7.923   6.275  0.6201 -0.1498 -0.2173
16569SOL    HW153109   8.710   8.000   6.322  1.6686  0.1608 -0.0040
16569SOL    HW253110   8.820   7.952   6.230  0.2397 -0.7323 -1.3049
16570SOL     OW53111   2.043   0.955   1.833  0.1632  0.2181  1.2680
16570SOL    HW153112   2.121   1.010   1.845 -0.0487  0.8686 -0.0968
16570SOL    HW253113   2.078   0.867   1.823  0.5230  0.0734  3.3050
16571SOL     OW53114   4.984   8.994  10.039 -0.8126  0.1250  0.0995
16571SOL    HW153115   5.062   8.938  10.044 -1.1562 -0.3551  0.1544
16571SOL    HW253116   5.011   9.068   9.984 -0.1411  0.2641  0.6051
16572SOL     OW53117   8.789   3.451  10.160 -0.1468  0.1565 -0.0245
16572SOL    HW153118   8.705   3.411  10.183 -1.0458  1.0450 -1.6040
16572SOL    HW253119   8.851   3.413  10.222 -1.3012 -2.1554 -0.1772
16573SOL     OW53120   5.676   2.569   1.158 -0.2458 -0.2449  0.0109
16573SOL    HW153121   5.637   2.518   1.229  1.2449  0.9601  1.8021
16573SOL    HW253122   5.609   2.634   1.136 -0.4270 -0.1129  0.9055
16574SOL     OW53123   0.291   1.841   3.288 -0.3064 -0.0943 -0.0692
16574SOL    HW153124   0.320   1.905   3.223 -0.5958 -1.5156 -1.6596
16574SOL    HW253125   0.245   1.893   3.354  0.3106  1.4370 -0.8001
16575SOL     OW53126   3.074   7.413  10.618 -0.0835  0.6222 -0.2184
16575SOL    HW153127   3.098   7.468  10.543  0.9963  1.3098  0.6030
16575SOL    HW253128   3.154   7.408  10.670 -0.3928 -1.0696  0.1492
16576SOL     OW53129   2.448   8.301   0.383  0.4496  0.1762 -0.4118
16576SOL    HW153130   2.379   8.332   0.325  1.2094  2.3436 -0.2469
16576SOL    HW253131   2.468   8.376   0.438  2.8914 -0.4175 -0.4004
16577SOL     OW53132   9.619   5.094   9.220 -0.2254  0.1269  0.1723
16577SOL    HW153133   9.607   5.067   9.129  0.2800 -1.0129  0.4361
16577SOL    HW253134   9.551   5.160   9.233 -1.1846 -0.6623 -0.6334
16578SOL     OW53135   4.087   1.301   9.694  0.5267  0.2811 -0.1918
16578SOL    HW153136   4.178   1.326   9.682  1.1321 -1.0913  1.1512
16578SOL    HW253137   4.087   1.247   9.773 -1.5592  0.7800  0.2161
16579SOL     OW53138   4.830   1.593   9.591 -0.3359  0.2062  0.3421
16579SOL    HW153139   4.884   1.650   9.536 -1.8623 -0.5845 -2.1976
16579SOL    HW253140   4.883   1.515   9.604 -0.9272 -0.8832 -2.7573
16580SOL     OW53141   3.161   7.907   0.222 -0.2955 -0.4301 -0.1614
16580SOL    HW153142   3.232   7.847   0.199  1.1707  0.6656  1.1915
16580SOL    HW253143   3.174   7.924   0.315 -2.5996 -0.4586  0.2135
16581SOL     OW53144  10.547   5.700   1.667 -0.0321  0.1002  0.2549
16581SOL    HW153145  10.586   5.676   1.583 -2.5185 -1.2707 -0.6099
16581SOL    HW253146  10.622   5.710   1.726  1.6697 -4.4565 -0.7317
16582SOL     OW53147   0.431   0.552  10.066  0.0383 -0.1753  0.2072
16582SOL    HW153148   0.381   0.477  10.098 -0.9403  0.5902  0.4971
16582SOL    HW253149   0.520   0.537  10.099 -0.2385 -0.9824  0.6181
16583SOL     OW53150   9.563   3.989   1.958  0.0790 -0.2093  0.7032
16583SOL    HW153151   9.580   3.972   2.050  1.4516 -2.3919  0.1240
16583SOL    HW253152   9.626   4.057   1.933 -0.9362  1.0854  1.5409
16584SOL     OW53153   1.679   7.189   5.341  0.2363 -0.3651  0.1108
16584SOL    HW153154   1.746   7.125   5.318 -2.1963 -2.3122 -2.1465
16584SOL    HW253155   1.656   7.229   5.257  0.6267  2.5233  1.2598
16585SOL     OW53156   0.586   5.903   3.340  0.6058 -0.4425 -0.3220
16585SOL    HW153157   0.491   5.894   3.349  0.6485 -0.9008 -0.3012
16585SOL    HW253158   0.603   5.996   3.355  0.3517 -0.6393  1.3039
16586SOL     OW53159   8.230  10.477   8.284  0.7053  0.3055 -0.7368
16586SOL    HW153160   8.243  10.572   8.278 -2.2830  1.3051  3.5256
16586SOL    HW253161   8.307  10.446   8.333  1.4805  0.5349 -1.7703
16587SOL     OW53162   2.281   8.624   2.976 -0.1512  0.5813 -0.3567
16587SOL    HW153163   2.323   8.647   3.059  1.1770  0.5689 -1.0076
16587SOL    HW253164   2.247   8.536   2.991  3.2793 -0.9769 -0.9154
16588SOL     OW53165   6.086   8.313   5.605 -0.2454  0.5223 -0.1446
16588SOL    HW153166   6.149   8.279   5.669 -0.5048 -1.4788 -0.8601
16588SOL    HW253167   6.029   8.370   5.655  2.7461  3.3790  0.3218
16589SOL     OW53168   2.092   5.141   4.042  0.1243  0.1506  0.0720
16589SOL    HW153169   2.115   5.183   4.124 -2.5746  1.2367  0.3941
16589SOL    HW253170   2.144   5.061   4.040  2.2217  1.3796  1.5092
16590SOL     OW53171   7.316   4.907   3.572  0.4945  0.0575  0.0414
16590SOL    HW153172   7.293   4.824   3.613  1.4520 -0.5730 -0.6908
16590SOL    HW253173   7.381   4.945   3.631 -2.2641  1.9064  2.1882
16591SOL     OW53174   5.715   0.925   2.933 -0.2796  0.3888 -0.0941
16591SOL    HW153175   5.747   0.856   2.991 -0.7291  0.6730  0.5075
16591SOL    HW253176   5.793   0.975   2.910  0.1400 -0.6487 -0.9991
16592SOL     OW53177   5.195  10.665   3.287 -0.5036 -0.2361  0.4191
16592SOL    HW153178   5.152  10.604   3.226 -0.4646  0.0138  0.1419
16592SOL    HW253179   5.214  10.611   3.364 -2.4938 -0.0564  1.0937
16593SOL     OW53180   0.966   4.978   0.590  0.0662 -0.5142  0.4852
16593SOL    HW153181   0.961   5.067   0.557 -0.8647 -0.3281  1.0934
16593SOL    HW253182   1.055   4.949   0.569  0.2295  0.3897 -0.1130
16594SOL     OW53183   5.610   2.188  10.072  0.8658 -0.2321  0.1745
16594SOL    HW153184   5.632   2.226   9.986 -1.1724  1.2601  0.2177
16594SOL    HW253185   5.584   2.264  10.125  1.3725 -1.2147  1.9003
16595SOL     OW53186   1.091   5.482   3.882  0.0443  0.4571 -0.0188
16595SOL    HW153187   1.073   5.565   3.837 -0.1699  1.2968  1.5250
16595SOL    HW253188   1.044   5.490   3.965 -0.6302 -1.5646 -0.1648
16596SOL     OW53189   5.924   6.886   4.346 -0.8071 -0.1066 -0.0905
16596SOL    HW153190   5.947   6.968   4.390 -0.7639 -0.7871  1.2293
16596SOL    HW253191   5.956   6.818   4.406 -1.0474 -1.0825 -1.0454
16597SOL     OW53192   9.044   3.927   5.336 -0.2360  0.5593 -0.2759
16597SOL    HW153193   9.081   3.896   5.419  1.5693  0.5356 -1.0598
16597SOL    HW253194   9.117   3.967   5.290 -1.0346 -0.0644 -2.1848
16598SOL     OW53195   5.544   2.561   7.663  0.5407  0.2071  0.7750
16598SOL    HW153196   5.461   2.607   7.679  0.9889  0.4386  2.6893
16598SOL    HW253197   5.526   2.470   7.684  0.6358  0.1655  0.6783
16599SOL     OW53198   5.755   1.428   3.639  0.0321  0.7046  0.1730
16599SOL    HW153199   5.694   1.354   3.637  0.5066  0.2976  0.6519
16599SOL    HW253200   5.842   1.389   3.635  0.2778  1.2787 -0.3865
16600SOL     OW53201   0.949   8.738   1.527  0.7129  0.0285  0.0732
16600SOL    HW153202   0.990   8.800   1.588  0.6397 -0.1221  0.2743
16600SOL    HW253203   0.885   8.791   1.479 -0.6554 -0.2395  1.4885
16601SOL     OW53204   9.098   0.805   4.941 -0.2066 -0.0532 -0.3596
16601SOL    HW153205   9.035   0.842   5.003  0.7737  1.3616 -0.1772
16601SOL    HW253206   9.178   0.795   4.993  0.2756 -0.0069 -1.0937
16602SOL     OW53207   1.043   4.794  10.005  0.0368  0.4001  0.3856
16602SOL    HW153208   1.051   4.799  10.100  0.7854 -0.4393  0.3786
16602SOL    HW253209   1.123   4.751   9.976 -0.3837  0.2380 -0.5860
16603SOL     OW53210   2.877  10.578   5.685 -0.0551 -0.3589  0.2979
16603SOL    HW153211   2.832  10.575   5.770 -1.4437 -0.5043 -0.4149
16603SOL    HW253212   2.888  10.486   5.661  0.0812 -0.3138  0.1919
16604SOL     OW53213   3.015   3.332   2.798  0.5237 -0.6041  0.0100
16604SOL    HW153214   3.036   3.425   2.809 -1.1464  0.0949 -2.0245
16604SOL    HW253215   3.078   3.301   2.733  1.5238 -1.1216  1.1878
16605SOL     OW53216   9.901   2.883   3.919  0.1501 -0.1507  0.6521
16605SOL    HW153217   9.986   2.907   3.956  0.8783 -0.9535 -0.4448
16605SOL    HW253218   9.851   2.965   3.921  1.7364  0.9453 -0.7760
16606SOL     OW53219   2.389   3.432   6.226  0.9824  0.5287 -0.5403
16606SOL    HW153220   2.294   3.431   6.236  0.3692  0.6121 -4.5915
16606SOL    HW253221   2.423   3.433   6.316 -2.7901  1.6211  1.0702
16607SOL     OW53222   5.399   9.482  10.913  0.5035  0.1205 -0.6139
16607SOL    HW153223   5.478   9.532  10.893  0.8951 -0.1832  0.1636
16607SOL    HW253224   5.408   9.457  11.005 -1.1469  1.2793 -0.0720
16608SOL     OW53225  10.426   5.473   6.392 -0.5274 -0.1921  0.0359
16608SOL    HW153226  10.374   5.547   6.360  0.6472  0.1392 -1.1772
16608SOL    HW253227  10.506   5.476   6.340 -0.4607 -2.3512 -0.0538
16609SOL     OW53228   8.514   9.115   5.151  0.1031  0.5648 -0.1169
16609SOL    HW153229   8.561   9.196   5.136  0.7787 -0.1114 -1.7914
16609SOL    HW253230   8.555   9.051   5.094 -2.3829 -0.2299 -1.1777
16610SOL     OW53231   9.491   1.885   5.075  0.0661  0.0668  0.0619
16610SOL    HW153232   9.450   1.894   4.989  1.2146  1.2373 -0.3966
16610SOL    HW253233   9.570   1.939   5.069  1.6759 -2.0859  0.9253
16611SOL     OW53234   0.456   8.389   8.306  0.3155 -0.3245 -0.2946
16611SOL    HW153235   0.513   8.355   8.375 -1.1723 -0.3432  0.9860
16611SOL    HW253236   0.386   8.435   8.353 -1.6264 -1.6669 -1.6875
16612SOL     OW53237   3.393   0.435   2.508 -0.4565  0.0743 -0.1611
16612SOL    HW153238   3.477   0.438   2.553  0.3957 -2.2682 -1.3803
16612SOL    HW253239   3.388   0.517   2.460 -0.2268  1.4933  2.0943
16613SOL     OW53240   8.745   5.173   3.735  0.2790 -0.1583 -0.0913
16613SOL    HW153241   8.657   5.151   3.766  0.2190 -0.4823 -0.4874
16613SOL    HW253242   8.790   5.207   3.813 -0.0733 -0.3537  0.2020
16614SOL     OW53243   6.070   8.198   0.069 -0.6893 -0.3595 -0.4251
16614SOL    HW153244   6.114   8.237   0.144 -0.0903 -1.5261 -0.1502
16614SOL    HW253245   6.106   8.245  -0.007  0.5301 -0.8380 -0.1556
16615SOL     OW53246   6.878  10.846   8.256  0.0711  0.3242 -0.0969
16615SOL    HW153247   6.956  10.790   8.243 -0.7416 -0.8928  0.1049
16615SOL    HW253248   6.807  10.797   8.215 -0.9206  0.5658  1.2637
16616SOL     OW53249   2.333   9.853   0.433  0.0097 -0.2122 -0.9534
16616SOL    HW153250   2.345   9.891   0.346  1.4803  1.0339 -0.2558
16616SOL    HW253251   2.415   9.809   0.452 -0.2115 -0.2700 -0.0887
16617SOL     OW53252   1.633  10.646  10.726 -0.1984  0.2522  0.2311
16617SOL    HW153253   1.666  10.568  10.771 -1.2895 -0.1664  0.3326
16617SOL    HW253254   1.562  10.614  10.671  0.6211  0.8805 -1.2317
16618SOL     OW53255   9.565   1.213   8.393  0.8132 -0.0289 -0.0430
16618SOL    HW153256   9.541   1.173   8.477 -1.5281 -0.2311 -0.7515
16618SOL    HW253257   9.573   1.139   8.333  2.1462  0.1467 -0.1195
16619SOL     OW53258  10.058   9.506  10.333 -0.1621  0.1879 -0.0687
16619SOL    HW153259  10.062   9.416  10.365  1.3580 -0.7722 -2.6780
16619SOL    HW253260   9.965   9.521  10.314 -0.0862 -2.5439 -3.7298
16620SOL     OW53261   6.124   7.663  10.575  0.0609 -0.1240  0.1391
16620SOL    HW153262   6.213   7.681  10.546 -0.1191 -0.9776 -0.9885
16620SOL    HW253263   6.134   7.632  10.665  0.8596  0.0992  0.1355
16621SOL     OW53264   0.607   1.156   3.019 -0.0560 -0.4022 -0.3027
16621SOL    HW153265   0.617   1.251   3.027  1.8441 -0.4997 -0.9574
16621SOL    HW253266   0.525   1.144   2.972 -0.8458  0.8720  0.7027
16622SOL     OW53267  10.467   1.552   0.011  0.3188 -0.0393 -0.1800
16622SOL    HW153268  10.415   1.548  -0.069  2.2389  0.5834 -1.5118
16622SOL    HW253269  10.445   1.472   0.058 -0.0363 -0.9563 -1.8466
16623SOL     OW53270   6.367   4.497   5.262  0.4443 -0.4738 -0.0710
16623SOL    HW153271   6.387   4.459   5.347 -0.4778  0.4764  0.5939
16623SOL    HW253272   6.437   4.467   5.204  0.0495 -2.7444  0.5346
16624SOL     OW53273   3.833   7.843   6.510 -0.8007 -0.0467  0.3857
16624SOL    HW153274   3.862   7.793   6.587 -0.5104 -1.1932 -0.4336
16624SOL    HW253275   3.741   7.817   6.499 -0.6526 -0.4018 -0.0338
16625SOL     OW53276   8.298   5.890   5.723  0.1856 -0.0696 -0.7162
16625SOL    HW153277   8.207   5.901   5.697  0.2187  0.3632 -0.6673
16625SOL    HW253278   8.305   5.799   5.752 -1.2029  0.8111  2.9957
16626SOL     OW53279   1.490   0.141   3.738 -0.4859 -0.0175  0.3343
16626SOL    HW153280   1.402   0.173   3.758 -1.2300 -0.3303 -2.0722
16626SOL    HW253281   1.515   0.188   3.658  1.0894 -0.7129  0.3752
16627SOL     OW53282   4.025   4.050   3.352 -0.0251 -0.4279 -0.1171
16627SOL    HW153283   4.093   4.110   3.322 -1.3101  0.0067 -2.4684
16627SOL    HW253284   3.948   4.105   3.364 -0.1477 -0.9841  1.9877
16628SOL     OW53285   2.862   5.443  10.077 -0.1585  0.4138 -0.5861
16628SOL    HW153286   2.855   5.502  10.152  0.3782  0.2983 -0.4394
16628SOL    HW253287   2.773   5.409  10.065 -0.7026  1.9628 -1.2581
16629SOL     OW53288   1.226   0.686   5.817  0.2712 -0.8756 -0.5072
16629SOL    HW153289   1.244   0.776   5.790  2.1741 -0.9482  0.3511
16629SOL    HW253290   1.267   0.632   5.750 -2.8875 -1.2505 -2.3522
16630SOL     OW53291   6.064   7.262   3.781 -0.0486  0.3741 -0.0646
16630SOL    HW153292   5.996   7.314   3.738 -2.6817 -1.7500  1.2295
16630SOL    HW253293   6.132   7.252   3.715 -0.6534  3.0767 -1.2466
16631SOL     OW53294   1.892   3.988   3.199 -0.0177 -0.3007 -0.0037
16631SOL    HW153295   1.919   4.072   3.235  2.1123 -1.0991  0.3997
16631SOL    HW253296   1.929   3.986   3.111 -1.8374 -0.0008 -0.8248
16632SOL     OW53297   0.552   2.295   1.500 -0.0653  0.2214  0.2384
16632SOL    HW153298   0.601   2.372   1.532  0.0262  0.3267 -0.1491
16632SOL    HW253299   0.522   2.251   1.579 -1.4295  1.4856  0.4644
16633SOL     OW53300   3.688  10.452   9.166 -0.5393  0.6889 -0.4245
16633SOL    HW153301   3.636  10.494   9.098  1.0084  3.0038 -0.2997
16633SOL    HW253302   3.746  10.522   9.199  2.0911 -1.4905 -0.0454
16634SOL     OW53303   5.969   2.565   5.954 -0.1226 -0.0039 -0.2107
16634SOL    HW153304   5.997   2.635   5.895 -0.0348  0.1536  0.0156
16634SOL    HW253305   6.042   2.504   5.955  0.0993  0.2664  0.1603
16635SOL     OW53306   4.325   6.209   6.294 -0.0018  0.3794 -0.0694
16635SOL    HW153307   4.394   6.151   6.325  0.7998  0.9432 -0.7303
16635SOL    HW253308   4.338   6.290   6.345 -0.5877  0.2659  0.2635
16636SOL     OW53309   7.839   7.330   9.649 -0.3023 -0.3317 -0.1450
16636SOL    HW153310   7.829   7.291   9.736 -0.7441  1.2148  0.5320
16636SOL    HW253311   7.749   7.343   9.619 -0.1543 -0.5286 -0.6748
16637SOL     OW53312   3.350   3.634   5.859  0.2987 -0.1159  0.1215
16637SOL    HW153313   3.362   3.548   5.899 -1.0056 -0.4564 -0.1911
16637SOL    HW253314   3.300   3.684   5.923 -0.8192 -0.3035 -0.5739
16638SOL     OW53315   1.639   1.460   7.153  0.3686  0.0264 -0.4755
16638SOL    HW153316   1.667   1.548   7.127  0.4398  0.8075  1.9780
16638SOL    HW253317   1.543   1.462   7.147  0.3911  0.0900 -0.8675
16639SOL     OW53318   3.990   2.405   6.704 -0.5275  0.2875  0.5678
16639SOL    HW153319   4.078   2.399   6.740 -0.9795 -0.1740  1.6480
16639SOL    HW253320   3.933   2.407   6.781 -1.3908  2.1529 -0.0438
16640SOL     OW53321   9.600   4.289   5.178  0.3070  0.1368 -0.3458
16640SOL    HW153322   9.583   4.352   5.249 -1.6940  0.0329 -0.6729
16640SOL    HW253323   9.692   4.302   5.156 -0.3120  3.9715 -1.3566
16641SOL     OW53324   6.177   1.858   1.330  0.1883  0.3369 -0.3637
16641SOL    HW153325   6.179   1.768   1.299  0.6118 -0.2862  1.3576
16641SOL    HW253326   6.090   1.890   1.307  0.4403 -0.1039 -2.0312
16642SOL     OW53327   1.046   8.364   0.951 -0.3853 -0.1823 -0.0145
16642SOL    HW153328   1.027   8.440   0.896  1.0467 -1.1121 -1.9235
16642SOL    HW253329   0.983   8.298   0.924  1.4410 -1.2524 -2.0102
16643SOL     OW53330   5.994  10.269   1.042 -0.0253  0.3847 -0.0437
16643SOL    HW153331   6.000  10.356   1.081  0.9967  0.2551  0.1091
16643SOL    HW253332   5.905  10.240   1.062 -1.0089  2.0926 -1.6260
16644SOL     OW53333   1.595   6.598   9.225 -0.4081  0.0551  0.4701
16644SOL    HW153334   1.599   6.590   9.130  0.8194 -0.0871  0.5110
16644SOL    HW253335   1.676   6.556   9.256  0.0469  1.5738  1.4587
16645SOL     OW53336   7.459   6.656   8.223 -0.1546  0.2286 -0.4151
16645SOL    HW153337   7.459   6.592   8.152  0.2349  0.7096 -0.8585
16645SOL    HW253338   7.461   6.604   8.303 -0.8859 -0.3262 -0.7485
16646SOL     OW53339   5.680  10.362  10.141  0.6261 -0.1130  0.3591
16646SOL    HW153340   5.613  10.330  10.081 -0.5541 -0.6811  1.9081
16646SOL    HW253341   5.706  10.447  10.105  0.2021 -0.5834 -1.1120
16647SOL     OW53342   5.510   8.654   6.266 -0.1627 -0.1356  0.5036
16647SOL    HW153343   5.556   8.608   6.336  1.1845 -2.2278 -1.6131
16647SOL    HW253344   5.431   8.603   6.251 -1.3254  1.2736  1.5538
16648SOL     OW53345  10.661   5.595   8.718 -0.1364 -0.4152 -0.0262
16648SOL    HW153346  10.574   5.634   8.730  0.2106 -0.1275  1.9981
16648SOL    HW253347  10.667   5.579   8.624 -1.4158  1.8077 -0.5711
16649SOL     OW53348   4.456   3.020   3.655  0.2243 -0.1126  0.2061
16649SOL    HW153349   4.399   3.092   3.682  0.9631 -0.2261  2.2320
16649SOL    HW253350   4.528   3.022   3.718  1.1585 -1.5465 -0.7712
16650SOL     OW53351   5.348   7.783  10.652  0.3211 -0.0349 -0.0808
16650SOL    HW153352   5.398   7.702  10.642  0.6109  0.2400 -0.9757
16650SOL    HW253353   5.390   7.845  10.593 -0.8789  0.3021 -0.6269
16651SOL     OW53354   2.373   6.208   9.992 -0.2993 -0.7751 -0.5538
16651SOL    HW153355   2.361   6.115   9.971  0.5596 -1.2764  1.0698
16651SOL    HW253356   2.455   6.231   9.948 -0.7154 -0.6484 -1.2936
16652SOL     OW53357   1.622   2.445   4.438  0.0537 -0.0195  0.3278
16652SOL    HW153358   1.623   2.380   4.508  1.7225  0.8957  1.2170
16652SOL    HW253359   1.686   2.510   4.465 -0.1563  1.0040 -1.4826
16653SOL     OW53360   8.477   3.962   9.534 -0.9946 -0.3025  0.2254
16653SOL    HW153361   8.443   3.876   9.510 -1.4483 -0.0811  0.0584
16653SOL    HW253362   8.568   3.961   9.506 -1.0418 -0.6710  0.0851
16654SOL     OW53363   7.310   0.965   1.397  0.3528  0.4141  0.2777
16654SOL    HW153364   7.253   0.903   1.352  1.0087  1.6845 -2.5085
16654SOL    HW253365   7.256   1.043   1.409  0.2831  0.1955  1.4490
16655SOL     OW53366   4.372   8.307   3.574  0.2402 -0.4417 -0.4072
16655SOL    HW153367   4.355   8.334   3.484 -0.5966 -2.0715 -0.7824
16655SOL    HW253368   4.425   8.377   3.611 -2.2655  2.0251 -1.0955
16656SOL     OW53369   3.611   2.770   3.076 -0.7973 -0.0835 -0.0055
16656SOL    HW153370   3.562   2.695   3.110 -2.2134  1.5289  1.7135
16656SOL    HW253371   3.599   2.839   3.141 -0.0484  1.8571 -1.7959
16657SOL     OW53372   3.524   0.789   6.223 -0.0148  0.6242 -0.5525
16657SOL    HW153373   3.468   0.799   6.145 -0.7746 -0.3876 -0.1612
16657SOL    HW253374   3.593   0.729   6.194  0.2226  0.9717 -0.7088
16658SOL     OW53375   3.752   8.416   1.532 -0.1699 -0.3392  0.2784
16658SOL    HW153376   3.848   8.412   1.525 -0.2291 -1.0329 -0.2623
16658SOL    HW253377   3.732   8.510   1.529  0.4490 -0.2168 -0.2702
16659SOL     OW53378   3.887   9.894   7.022  0.3149 -0.0314  0.4936
16659SOL    HW153379   3.883   9.891   7.118 -1.4610  0.2403  0.4593
16659SOL    HW253380   3.796   9.890   6.994  0.6495  1.8158 -1.1146
16660SOL     OW53381   6.725   1.785   4.737 -0.0946  0.0297  0.0127
16660SOL    HW153382   6.683   1.732   4.670  0.6171 -1.0869  0.4197
16660SOL    HW253383   6.682   1.760   4.818 -0.5794  0.9807  0.0651
16661SOL     OW53384   5.582   2.541   6.770  0.8311 -0.3852 -0.0879
16661SOL    HW153385   5.568   2.491   6.850  0.8397 -1.5179 -0.7766
16661SOL    HW253386   5.658   2.500   6.729  1.8847  1.2309  0.1074
16662SOL     OW53387   4.548   0.716   7.810 -0.5943 -0.2647  0.1259
16662SOL    HW153388   4.546   0.790   7.749 -1.3034 -0.5069 -0.1534
16662SOL    HW253389   4.612   0.656   7.772 -1.2511 -0.5492 -0.5530
16663SOL     OW53390   2.423   1.748   4.032  0.0517  0.0841 -0.0452
16663SOL    HW153391   2.506   1.747   3.983  0.2841 -3.0163  0.2103
16663SOL    HW253392   2.356   1.730   3.966  0.3757 -4.2278  0.4728
16664SOL     OW53393   5.867   1.515   1.465 -0.0481 -0.4696 -0.1682
16664SOL    HW153394   5.790   1.524   1.410  0.2543 -0.6895 -0.6320
16664SOL    HW253395   5.940   1.545   1.410 -0.0269  1.6889  0.9343
16665SOL     OW53396   4.185   0.739  10.638 -0.0908  0.2092  0.0501
16665SOL    HW153397   4.188   0.774  10.548 -0.4776  2.0320  0.6894
16665SOL    HW253398   4.097   0.762  10.669 -0.3232 -1.3058  0.5874
16666SOL     OW53399   5.528   0.395   2.772 -0.5387 -0.3119 -0.1898
16666SOL    HW153400   5.467   0.449   2.821 -1.3462  1.5431 -2.9929
16666SOL    HW253401   5.614   0.417   2.808 -0.9865  1.9123 -0.3744
16667SOL     OW53402   3.853   1.990   7.466 -0.3129 -0.2052 -0.0447
16667SOL    HW153403   3.881   2.054   7.532 -0.8336 -0.9137  0.8782
16667SOL    HW253404   3.867   1.905   7.508  0.9341 -0.7409 -1.4796
16668SOL     OW53405   3.836   3.881   3.547  0.5666  0.2643  0.0889
16668SOL    HW153406   3.912   3.849   3.596 -0.1277 -0.7943  0.4935
16668SOL    HW253407   3.871   3.905   3.461  1.1733 -1.3333 -0.1444
16669SOL     OW53408   7.557   3.717   8.710 -0.0267  0.4939  0.3211
16669SOL    HW153409   7.526   3.741   8.622 -0.1335 -0.3514  0.1145
16669SOL    HW253410   7.477   3.697   8.758  0.0157  1.2248  0.6974
16670SOL     OW53411   5.893   6.832   8.044 -0.3864  0.4455  0.3945
16670SOL    HW153412   5.853   6.903   7.993  0.9889  1.3735  0.5674
16670SOL    HW253413   5.846   6.834   8.127 -2.2304 -0.6783 -0.5436
16671SOL     OW53414   9.836   3.835   6.194 -0.3124 -0.1923  0.2210
16671SOL    HW153415   9.860   3.927   6.204  1.5208 -0.7027  1.2949
16671SOL    HW253416   9.890   3.804   6.122  0.6454 -0.8498  1.1786
16672SOL     OW53417   9.172   4.479   8.528 -0.0473 -0.4300 -0.2315
16672SOL    HW153418   9.244   4.491   8.591  0.5038 -1.0389 -0.7195
16672SOL    HW253419   9.126   4.401   8.559 -0.4745 -0.0698  0.0512
16673SOL     OW53420   8.932   8.465   2.290 -0.0270 -0.2550 -0.1926
16673SOL    HW153421   8.865   8.404   2.257 -0.0759  0.1978 -0.9674
16673SOL    HW253422   8.936   8.447   2.384  0.4056 -1.8833 -0.4839
16674SOL     OW53423   2.593   5.005   9.500 -0.6239 -0.3019 -0.2111
16674SOL    HW153424   2.523   4.941   9.509 -0.8679  0.1671  1.6486
16674SOL    HW253425   2.585   5.061   9.577  1.8012 -0.2358  0.0771
16675SOL     OW53426   6.757   3.344   2.489  0.6683 -0.1714  0.0381
16675SOL    HW153427   6.722   3.283   2.554 -0.4543  0.3473 -0.0724
16675SOL    HW253428   6.852   3.338   2.501  0.5781 -1.7277  0.2144
16676SOL     OW53429   7.770   9.970   0.816  0.1711 -0.4539 -0.3528
16676SOL    HW153430   7.730   9.936   0.895  1.1040 -2.2359 -0.5993
16676SOL    HW253431   7.700  10.020   0.773 -0.1688  1.1102  1.8551
16677SOL     OW53432   9.371   7.545  10.109  0.1185 -0.0628 -0.0082
16677SOL    HW153433   9.353   7.484  10.180 -1.4457 -0.5025 -0.7437
16677SOL    HW253434   9.464   7.533  10.091  0.2178 -0.9960  0.9861
16678SOL     OW53435   4.724   6.432   5.075 -0.2180 -0.7388 -0.1240
16678SOL    HW153436   4.635   6.398   5.086 -0.7037  1.0446  2.3372
16678SOL    HW253437   4.712   6.525   5.061  1.1861  0.3261  4.1518
16679SOL     OW53438   1.694   6.005  10.291 -0.1530 -0.7959 -0.8512
16679SOL    HW153439   1.603   6.023  10.269 -0.3599  1.9465  1.5444
16679SOL    HW253440   1.745   6.066  10.237 -0.2244  1.3054  1.2660
16680SOL     OW53441   7.678   3.981   1.580 -0.4136 -0.9149  0.1147
16680SOL    HW153442   7.585   3.957   1.586 -0.4985 -0.9060 -1.0637
16680SOL    HW253443   7.677   4.071   1.547  0.0284 -1.0816 -0.3528
16681SOL     OW53444   3.830   3.057   9.551 -0.4210 -0.1163 -0.3856
16681SOL    HW153445   3.868   3.135   9.511  1.4915  0.5995  2.4876
16681SOL    HW253446   3.902   2.994   9.556 -0.6292 -0.2776  1.4981
16682SOL     OW53447   7.935   6.641   3.061  0.3287 -0.0509  0.3584
16682SOL    HW153448   7.947   6.700   3.136  1.9100 -2.9852  2.5996
16682SOL    HW253449   8.022   6.634   3.021 -0.1807  0.2759 -0.8750
16683SOL     OW53450   0.629   0.226   8.844 -0.2004  0.4829  0.8582
16683SOL    HW153451   0.652   0.157   8.782  0.1571  1.2434  0.1243
16683SOL    HW253452   0.676   0.204   8.924 -1.6486 -1.1954  1.3054
16684SOL     OW53453   7.977   0.578   0.029  0.1516 -0.3690 -0.4496
16684SOL    HW153454   7.937   0.607  -0.053 -0.3278  0.8709  0.2096
16684SOL    HW253455   7.912   0.598   0.096  0.0500 -2.4362  0.1304
16685SOL     OW53456   0.840   5.384   2.888  0.6336  0.4715  0.1560
16685SOL    HW153457   0.777   5.318   2.860  0.1124  1.2244 -0.4528
16685SOL    HW253458   0.921   5.360   2.842  0.4194  0.3200 -0.1453
16686SOL     OW53459   1.583   7.081   0.298 -0.7399 -0.4976  0.4034
16686SOL    HW153460   1.584   7.054   0.390 -2.8892  0.6241  0.8115
16686SOL    HW253461   1.552   7.004   0.251  1.6970 -1.5587  0.3425
16687SOL     OW53462   8.112   7.461  10.659 -0.2820  0.1854 -0.3272
16687SOL    HW153463   8.056   7.386  10.678  1.0422 -0.3413  1.8234
16687SOL    HW253464   8.088   7.527  10.725  0.6196  0.4878 -0.2787
16688SOL     OW53465   3.032  10.352   3.626  0.4822 -0.0590 -0.9094
16688SOL    HW153466   3.088  10.430   3.634  0.6693 -0.2429 -0.4187
16688SOL    HW253467   2.966  10.377   3.561 -0.3892  1.0650  0.3495
16689SOL     OW53468   0.213   2.658   8.490 -0.1383  0.2780 -0.8142
16689SOL    HW153469   0.275   2.706   8.544  0.6382 -1.4710 -0.0589
16689SOL    HW253470   0.269   2.601   8.436 -1.0190  0.0084 -1.4559
16690SOL     OW53471   2.938   7.762   6.354 -0.0921 -0.2554 -0.3782
16690SOL    HW153472   3.020   7.764   6.306 -0.5988 -1.9671 -1.4201
16690SOL    HW253473   2.952   7.699   6.424 -0.3846 -0.2587 -0.3182
16691SOL     OW53474   8.620   1.513   9.520  0.1527 -0.4775 -0.6597
16691SOL    HW153475   8.633   1.471   9.435  0.6106  1.3187 -1.5194
16691SOL    HW253476   8.669   1.595   9.514  0.2535 -0.3408  1.3772
16692SOL     OW53477   3.373   4.680   3.434  0.1351 -0.7132  0.7139
16692SOL    HW153478   3.387   4.771   3.459  1.0568 -0.6546  0.0299
16692SOL    HW253479   3.326   4.685   3.351  1.8617 -0.8073 -0.3092
16693SOL     OW53480   9.790  10.791   5.766 -0.0368  0.3425 -0.2016
16693SOL    HW153481   9.846  10.847   5.818 -0.4716  2.5723 -1.9475
16693SOL    HW253482   9.701  10.822   5.784 -0.2516  0.5938 -1.5764
16694SOL     OW53483   4.729   2.836   7.298 -0.0463  0.3891 -0.3363
16694SOL    HW153484   4.675   2.830   7.219 -1.4001 -0.1025  0.5809
16694SOL    HW253485   4.759   2.927   7.300  0.1080  0.3818 -1.4600
16695SOL     OW53486   4.184   3.375   1.481 -0.0600 -0.1524 -0.5352
16695SOL    HW153487   4.253   3.429   1.444  0.0939 -0.4516 -0.6905
16695SOL    HW253488   4.207   3.285   1.456  0.0106 -0.3503  0.2255
16696SOL     OW53489   0.651   7.539   4.600  0.0560  0.1818 -0.0264
16696SOL    HW153490   0.577   7.549   4.539 -0.7471  1.9268  1.1271
16696SOL    HW253491   0.621   7.473   4.663  0.2857 -0.5442 -0.6744
16697SOL     OW53492   3.809   8.359   0.866 -0.1157  0.6085 -0.1165
16697SOL    HW153493   3.898   8.385   0.842 -0.1929  0.5574 -0.4667
16697SOL    HW253494   3.752   8.416   0.814 -0.3566  3.0697  2.5508
16698SOL     OW53495   2.502   6.775   2.885  0.0406  0.2574  0.3885
16698SOL    HW153496   2.466   6.859   2.856  0.3711  0.4226  0.4522
16698SOL    HW253497   2.565   6.798   2.953  0.7077  0.0255 -0.1347
16699SOL     OW53498   8.655   6.092   5.821  0.3288  0.0335  0.7102
16699SOL    HW153499   8.614   6.007   5.836  2.5369 -1.3084 -0.3068
16699SOL    HW253500   8.642   6.109   5.728  0.4356  0.5146  0.7812
16700SOL     OW53501   7.754   0.185   2.429  0.1284 -0.1360  0.2669
16700SOL    HW153502   7.728   0.124   2.359  1.9395 -0.1331 -0.4596
16700SOL    HW253503   7.687   0.253   2.426  0.2591 -0.0245 -1.6377
16701SOL     OW53504   2.776   9.825   5.393  0.0350  0.0090  0.1904
16701SOL    HW153505   2.718   9.769   5.340 -1.5822  0.8413  1.0009
16701SOL    HW253506   2.836   9.864   5.330 -1.8240  0.9592 -1.0668
16702SOL     OW53507   5.122  10.682   4.728 -0.1756  0.4080 -0.0543
16702SOL    HW153508   5.196  10.621   4.726 -0.6036 -0.1478 -2.6767
16702SOL    HW253509   5.127  10.728   4.644 -2.0126  1.3410  0.2962
16703SOL     OW53510   9.333   6.300   0.566  0.1918 -0.0415 -0.1823
16703SOL    HW153511   9.423   6.299   0.533  0.5982 -0.4029  0.8620
16703SOL    HW253512   9.278   6.301   0.488  1.1042  0.8499 -0.8428
16704SOL     OW53513   9.995  10.393   5.071  0.4095 -0.1511 -0.5040
16704SOL    HW153514   9.953  10.364   5.152  1.3262 -0.3405 -0.0842
16704SOL    HW253515  10.025  10.312   5.029 -1.1680 -0.1707 -1.6864
16705SOL     OW53516   8.812   6.317   5.819 -0.0582 -0.0360 -0.0209
16705SOL    HW153517   8.873   6.262   5.867 -0.7337 -1.1142 -0.3591
16705SOL    HW253518   8.730   6.268   5.819 -0.6562  0.9229 -0.4325
16706SOL     OW53519   8.304   1.797  10.232 -0.2433  0.1395  0.5639
16706SOL    HW153520   8.310   1.703  10.246 -1.3041  0.2117  1.7418
16706SOL    HW253521   8.358   1.814  10.155 -0.6020 -1.5328 -0.0978
16707SOL     OW53522   9.502   1.459   1.324  0.7584  0.3146  0.2378
16707SOL    HW153523   9.541   1.424   1.244  1.1530  0.1395  0.5033
16707SOL    HW253524   9.441   1.526   1.293  1.7831  1.0996 -0.1675
16708SOL     OW53525   6.151   2.222   7.026  0.4644 -0.4438 -0.5422
16708SOL    HW153526   6.187   2.262   7.105 -1.8123 -0.5483  0.6217
16708SOL    HW253527   6.120   2.297   6.974  0.4222 -0.4624 -0.5441
16709SOL     OW53528   4.301   8.995   0.132  0.5187 -0.2530  0.0640
16709SOL    HW153529   4.251   8.946   0.067  0.2654  0.4281 -0.2646
16709SOL    HW253530   4.389   8.958   0.127 -0.4824 -3.4042  2.6021
16710SOL     OW53531   4.837  10.139   3.479 -0.5903 -0.9222 -0.2738
16710SOL    HW153532   4.758  10.143   3.533 -1.1301 -0.5040 -1.0815
16710SOL    HW253533   4.812  10.084   3.405  0.4892 -2.4304  0.4237
16711SOL     OW53534   4.939   1.005   8.034 -0.0299  0.1223 -0.1140
16711SOL    HW153535   4.964   1.032   8.122  0.4151 -0.9613  0.1146
16711SOL    HW253536   4.853   0.963   8.045  0.3841 -0.7255 -0.0551
16712SOL     OW53537   9.579   7.385   4.972  0.4835  0.1723  0.2098
16712SOL    HW153538   9.513   7.337   4.921 -0.3266  1.4678  0.0056
16712SOL    HW253539   9.597   7.328   5.047 -2.6851  0.7777  1.6043
16713SOL     OW53540   6.820   3.178   5.263  0.0605 -0.2862 -0.6065
16713SOL    HW153541   6.905   3.220   5.259  0.6515 -1.4298 -0.5172
16713SOL    HW253542   6.785   3.200   5.349  1.4088 -1.8868  0.4088
16714SOL     OW53543   2.002   8.559   1.791 -0.7926  0.0578  0.3458
16714SOL    HW153544   2.077   8.512   1.755 -0.2554 -0.9040  2.5166
16714SOL    HW253545   1.970   8.503   1.862 -2.3051  1.4024  0.8101
16715SOL     OW53546   9.864   2.121   7.084  0.2949 -0.0979  0.4561
16715SOL    HW153547   9.827   2.103   6.998  0.3444  0.6906  0.2619
16715SOL    HW253548   9.806   2.075   7.145 -0.0175 -0.2668  0.0374
16716SOL     OW53549   1.376   4.491   8.308 -0.2959  0.3094 -0.1697
16716SOL    HW153550   1.305   4.433   8.278 -1.1360  1.9586 -1.5806
16716SOL    HW253551   1.454   4.459   8.262 -0.8325  0.4848 -1.2501
16717SOL     OW53552   4.326   4.000   9.375  0.0383 -0.5336  0.0030
16717SOL    HW153553   4.391   4.067   9.354  0.4651 -0.7422  0.6195
16717SOL    HW253554   4.365   3.951   9.448 -1.1157 -0.2220  0.8537
16718SOL     OW53555   2.424   4.918   6.821  0.8007  0.2796  0.0805
16718SOL    HW153556   2.336   4.883   6.809 -0.2256  2.8878 -0.5768
16718SOL    HW253557   2.472   4.846   6.862 -1.4161 -1.4638 -0.1490
16719SOL     OW53558   5.857   3.181   6.180 -0.2761  0.0712 -0.5132
16719SOL    HW153559   5.916   3.152   6.250  1.3356  1.2189 -1.3301
16719SOL    HW253560   5.822   3.265   6.212  2.3197  1.8431 -1.9532
16720SOL     OW53561   1.720   6.704   8.431 -0.2362 -0.3206  0.0680
16720SOL    HW153562   1.707   6.644   8.505  1.8867  1.5181  2.0643
16720SOL    HW253563   1.815   6.710   8.422 -0.3407  2.9654  0.2287
16721SOL     OW53564  10.168   2.089   9.652  0.4226 -0.5779 -0.2180
16721SOL    HW153565  10.230   2.033   9.604  1.2729 -0.3437  0.5969
16721SOL    HW253566  10.174   2.060   9.743 -0.6436 -0.5222 -0.1136
16722SOL     OW53567   4.200   4.415   0.568  0.4875  0.3686  0.0409
16722SOL    HW153568   4.263   4.428   0.497  0.5772 -0.0024  0.0521
16722SOL    HW253569   4.252   4.420   0.648  0.5809 -0.3867  0.0334
16723SOL     OW53570   9.241   1.851   2.611 -0.0214 -0.5583  0.0898
16723SOL    HW153571   9.193   1.933   2.625  0.5144 -0.0833 -0.7546
16723SOL    HW253572   9.288   1.865   2.529  1.2582 -1.1621  0.6937
16724SOL     OW53573   0.673   8.934   8.186  0.0622  0.0077  0.2843
16724SOL    HW153574   0.719   8.855   8.217 -0.1761  0.0897  0.8581
16724SOL    HW253575   0.650   8.981   8.266 -0.5859  0.2161 -0.0227
16725SOL     OW53576   7.199   0.899   4.600 -0.4327  0.1587  0.0511
16725SOL    HW153577   7.166   0.888   4.689  0.7747  0.1056  0.4968
16725SOL    HW253578   7.122   0.883   4.545 -0.6658 -2.3132  0.9570
16726SOL     OW53579   2.577   9.693  10.603 -0.2156  0.2015  0.0921
16726SOL    HW153580   2.624   9.630  10.549 -0.4060  0.6493 -0.6062
16726SOL    HW253581   2.518   9.639  10.656  0.2812 -0.2743  0.1660
16727SOL     OW53582   3.635  10.331   5.273  0.2868  0.6454  0.4442
16727SOL    HW153583   3.688  10.334   5.353  0.7154 -1.3960  0.2887
16727SOL    HW253584   3.611  10.422   5.257  2.0365  1.3888  1.6751
16728SOL     OW53585   3.060   5.915   3.715 -0.1442 -0.0284 -0.3973
16728SOL    HW153586   3.058   5.968   3.795  2.4622  1.6417 -1.3385
16728SOL    HW253587   2.972   5.877   3.711 -0.4061 -0.2102  3.2184
16729SOL     OW53588   8.842   6.991   6.162 -0.2430  0.6082  0.0363
16729SOL    HW153589   8.840   7.079   6.125 -2.1910  0.7888  0.4932
16729SOL    HW253590   8.859   7.004   6.255  1.0248  0.3744 -0.1414
16730SOL     OW53591  10.220   0.343   2.270  0.2764 -0.3286  0.2839
16730SOL    HW153592  10.207   0.438   2.270  2.0501 -0.0519 -0.0583
16730SOL    HW253593  10.166   0.312   2.197 -0.2262  0.4229  0.3244
16731SOL     OW53594   5.516   3.697   1.242  0.5972  0.7164 -0.2005
16731SOL    HW153595   5.493   3.618   1.193 -1.0107  0.7454  0.4362
16731SOL    HW253596   5.591   3.671   1.296  1.1721  0.1424 -1.2489
16732SOL     OW53597   9.815   0.288   3.676 -0.5151 -0.2841 -0.4476
16732SOL    HW153598   9.729   0.303   3.637  0.0373 -1.1977 -2.0848
16732SOL    HW253599   9.813   0.339   3.757 -1.5406  2.1419 -1.8817
16733SOL     OW53600   4.625  10.141   4.182  0.9162  0.4845  0.1922
16733SOL    HW153601   4.570  10.127   4.260  0.7348  1.0083  0.1631
16733SOL    HW253602   4.602  10.229   4.152  1.4599  0.5406 -0.0764
16734SOL     OW53603   6.076   8.609   5.530 -0.3198 -0.3059 -0.0610
16734SOL    HW153604   6.014   8.652   5.472  0.1031  1.9638  1.0667
16734SOL    HW253605   6.021   8.569   5.598 -0.6309 -0.2081 -0.2516
16735SOL     OW53606   3.252   5.543   2.605 -0.2962  0.0140  0.0459
16735SOL    HW153607   3.223   5.573   2.691  0.3167 -1.4071  0.7836
16735SOL    HW253608   3.185   5.575   2.545 -1.2317  0.2631  1.1701
16736SOL     OW53609   2.499   3.714   4.218 -0.4636 -0.5059 -0.1739
16736SOL    HW153610   2.510   3.721   4.313  0.3941 -0.5561 -0.2591
16736SOL    HW253611   2.465   3.625   4.205 -0.3352 -0.5939  0.0747
16737SOL     OW53612   9.935   5.044   1.794 -0.0278  0.1640  0.1562
16737SOL    HW153613   9.940   5.006   1.882  0.2034 -1.2389 -0.4406
16737SOL    HW253614  10.022   5.082   1.780  0.1695 -0.2413  0.2622
16738SOL     OW53615   2.666  10.533   8.740  0.4670 -0.6946  0.4458
16738SOL    HW153616   2.681  10.465   8.674 -0.5488 -1.0006  0.5176
16738SOL    HW253617   2.606  10.595   8.698  1.4044  0.1950  0.3712
16739SOL     OW53618   5.673   1.608   6.997  0.0056  0.1147  0.4897
16739SOL    HW153619   5.727   1.616   6.918  2.2754  1.0328  2.0220
16739SOL    HW253620   5.618   1.531   6.981  0.4930  0.2011 -1.9134
16740SOL     OW53621   7.764   0.071   9.361  0.3311  0.2098 -0.0431
16740SOL    HW153622   7.841   0.125   9.376  1.5497 -1.3775 -0.3364
16740SOL    HW253623   7.765   0.008   9.432  0.7225 -1.3479 -1.3631
16741SOL     OW53624   4.071   5.048   8.828  0.6275 -0.1677 -0.0339
16741SOL    HW153625   3.980   5.018   8.819 -0.2487  1.5575  2.1569
16741SOL    HW253626   4.097   5.021   8.916  0.6560  3.0125  1.0614
16742SOL     OW53627   0.767   0.267   3.014 -0.8445 -0.1271 -0.1427
16742SOL    HW153628   0.853   0.294   2.980 -0.9060 -1.7073 -1.7376
16742SOL    HW253629   0.785   0.232   3.101  0.7406 -3.1710 -1.5311
16743SOL     OW53630   1.189   4.874   3.728  0.5990 -0.1327  0.0346
16743SOL    HW153631   1.136   4.840   3.800 -2.3520 -1.0520 -2.3822
16743SOL    HW253632   1.188   4.969   3.740 -1.9716 -0.0856 -0.0863
16744SOL     OW53633   5.117   3.388   0.454  0.1046  0.1820  0.0869
16744SOL    HW153634   5.029   3.412   0.484 -0.1209  0.5549 -0.8365
16744SOL    HW253635   5.171   3.464   0.477  0.4236 -0.4538  1.5769
16745SOL     OW53636   1.181   9.768   0.308 -0.1561 -0.1933 -0.0496
16745SOL    HW153637   1.207   9.685   0.347  1.5579  0.6505  0.6923
16745SOL    HW253638   1.145   9.745   0.222  0.3167 -1.6789  0.1355
16746SOL     OW53639   3.190   0.134   9.712 -0.1923  0.7986  0.0007
16746SOL    HW153640   3.277   0.099   9.694 -0.8684 -0.6803 -0.6271
16746SOL    HW253641   3.170   0.106   9.802 -0.4662  0.1259 -0.2641
16747SOL     OW53642   1.406   6.139  10.693  0.2591  0.7848 -0.1826
16747SOL    HW153643   1.323   6.167  10.731 -0.9374 -0.6380 -1.6217
16747SOL    HW253644   1.414   6.047  10.717  0.2555  0.2806 -1.9500
16748SOL     OW53645  10.374   9.873   7.569  0.5687  0.3454  0.2752
16748SOL    HW153646  10.295   9.896   7.519 -0.2062  1.1940  1.8085
16748SOL    HW253647  10.373   9.777   7.572  2.5552 -0.0891 -4.1873
16749SOL     OW53648   9.913   4.427   7.332  0.0459  0.1424 -0.3190
16749SOL    HW153649   9.928   4.453   7.241  1.7745 -1.5074 -0.5780
16749SOL    HW253650   9.850   4.355   7.327 -1.5954  1.5088  0.0284
16750SOL     OW53651   0.658   6.814   9.372 -0.3662  0.6714  0.5174
16750SOL    HW153652   0.658   6.910   9.373  1.0619  0.6979  2.0287
16750SOL    HW253653   0.746   6.790   9.344  0.0729 -0.1337  2.3872
16751SOL     OW53654   0.436   9.601   3.165  0.1407  0.2208 -0.1307
16751SOL    HW153655   0.508   9.585   3.104 -0.5197  0.5892 -1.0247
16751SOL    HW253656   0.433   9.523   3.221  1.7240  0.5367  0.4400
16752SOL     OW53657   4.571   6.450   5.434 -0.1713 -0.6352  0.6872
16752SOL    HW153658   4.621   6.471   5.513 -1.4002 -1.2326  1.6548
16752SOL    HW253659   4.512   6.380   5.460 -0.8266 -0.6449 -0.6885
16753SOL     OW53660   7.096  10.515   4.941  0.0392  0.1347 -0.0322
16753SOL    HW153661   7.140  10.487   5.021  2.1550 -2.0041 -1.7777
16753SOL    HW253662   7.069  10.605   4.959 -1.4949 -0.8608  3.7544
16754SOL     OW53663   2.467   1.824   8.787 -0.2328 -0.2170 -0.3829
16754SOL    HW153664   2.485   1.793   8.699 -1.3119  0.4846 -0.8717
16754SOL    HW253665   2.548   1.867   8.815  0.2469 -0.7984 -0.8593
16755SOL     OW53666  10.858   2.582   3.078  0.0917 -0.0904 -0.2085
16755SOL    HW153667  10.772   2.623   3.076 -0.5657 -1.4465 -1.7998
16755SOL    HW253668  10.906   2.620   3.004  1.1686  1.1571  1.0549
16756SOL     OW53669  10.187   3.414   1.707  0.6005  0.5591 -0.4094
16756SOL    HW153670  10.114   3.463   1.669 -0.7201  0.3600  1.7245
16756SOL    HW253671  10.146   3.340   1.751  2.2406 -0.3991 -0.4049
16757SOL     OW53672   8.718   1.703   2.451 -0.1993 -0.4195 -0.1663
16757SOL    HW153673   8.688   1.638   2.386 -0.2722 -0.6972  0.1409
16757SOL    HW253674   8.668   1.682   2.530  0.1478 -0.3061  0.0855
16758SOL     OW53675   6.705   1.101   5.309 -0.8009  0.5126  0.1994
16758SOL    HW153676   6.635   1.150   5.266 -3.2650  0.9327  4.1100
16758SOL    HW253677   6.763   1.168   5.345  0.2010  0.2405 -0.8665
16759SOL     OW53678   4.807   3.929   3.624 -0.5819 -0.2622  0.4612
16759SOL    HW153679   4.774   3.926   3.534 -5.1855  1.1560  1.8643
16759SOL    HW253680   4.846   3.843   3.638  0.3781 -0.4961 -2.8248
16760SOL     OW53681   6.228   3.113   4.471 -0.0643 -0.0748 -0.5626
16760SOL    HW153682   6.243   3.028   4.512 -1.4923 -1.0187 -1.9121
16760SOL    HW253683   6.170   3.159   4.531  0.5938 -0.0798  0.0984
16761SOL     OW53684   8.754  10.273   1.039 -0.0050  0.0122  0.1085
16761SOL    HW153685   8.772  10.180   1.052  1.8625  0.3321  0.1485
16761SOL    HW253686   8.732  10.281   0.946 -1.3137 -0.6118  0.3556
16762SOL     OW53687   6.060   7.802   2.217  0.1126 -0.7814  0.3386
16762SOL    HW153688   5.995   7.733   2.202 -1.3401  0.4692  0.5966
16762SOL    HW253689   6.087   7.790   2.308 -0.1852 -0.9881  0.4026
16763SOL     OW53690   5.938  10.853   0.561  0.1095 -0.0461 -0.3324
16763SOL    HW153691   5.897  10.771   0.587 -1.6514  1.2275  1.1690
16763SOL    HW253692   5.878  10.892   0.497  0.5826  0.4015 -0.5226
16764SOL     OW53693   5.823   1.946   7.225  0.2423  0.4599 -0.3607
16764SOL    HW153694   5.849   2.006   7.154 -0.4671  0.8008 -0.3407
16764SOL    HW253695   5.899   1.944   7.283  0.7959  0.2545 -1.0789
16765SOL     OW53696  10.386   4.013   7.637 -0.1575  0.4021  0.0692
16765SOL    HW153697  10.335   3.970   7.568  1.0320  0.3134 -0.7703
16765SOL    HW253698  10.475   4.014   7.604  0.3143  0.9972  1.3144
16766SOL     OW53699  10.306   8.488  10.845  0.2096  0.6805 -0.1373
16766SOL    HW153700  10.392   8.496  10.804  0.5823 -0.1869  0.4522
16766SOL    HW253701  10.261   8.421  10.795  0.4009  0.1330  0.4111
16767SOL     OW53702  10.412   7.614   4.162 -0.7890  0.2806 -0.5781
16767SOL    HW153703  10.365   7.534   4.187 -3.5915  1.2738 -2.1413
16767SOL    HW253704  10.427   7.604   4.068  1.5031  0.4131 -0.2833
16768SOL     OW53705  10.008   3.597   3.039 -0.2823 -0.0258 -0.0089
16768SOL    HW153706   9.990   3.593   2.945 -0.6157 -0.8079  0.0791
16768SOL    HW253707   9.987   3.686   3.065 -2.6059 -0.4770 -0.1928
16769SOL     OW53708   4.290   3.042   4.059 -0.1443  0.2052 -0.3678
16769SOL    HW153709   4.230   3.110   4.030  0.5174  1.1789  0.4721
16769SOL    HW253710   4.237   2.988   4.118 -0.5228  0.3108 -0.6033
16770SOL     OW53711   3.649   7.745   8.560  0.2803  0.2001 -0.3746
16770SOL    HW153712   3.560   7.781   8.555  0.3532  0.4074 -0.2217
16770SOL    HW253713   3.688   7.766   8.475  0.4740  0.8962 -0.1218
16771SOL     OW53714   0.155   9.366   2.301 -0.1956  0.0914  0.2867
16771SOL    HW153715   0.190   9.450   2.272 -1.6150  0.7191  0.3021
16771SOL    HW253716   0.147   9.376   2.396 -0.3031 -0.0837  0.2958
16772SOL     OW53717   0.520   7.836   7.997 -0.3829  0.4213  0.2296
16772SOL    HW153718   0.502   7.753   8.040  2.1905 -0.2582  0.1581
16772SOL    HW253719   0.483   7.827   7.910  0.4191 -0.9353  0.0081
16773SOL     OW53720   6.213   4.481   3.414  0.2882 -0.3070 -0.0293
16773SOL    HW153721   6.246   4.463   3.502  0.3939 -0.6125 -0.1316
16773SOL    HW253722   6.268   4.552   3.382 -0.7917  0.9433  0.7685
16774SOL     OW53723   7.258   4.552   8.294  0.4983  0.0174 -0.1089
16774SOL    HW153724   7.335   4.508   8.257  0.3838  0.8373 -1.3688
16774SOL    HW253725   7.200   4.566   8.219 -0.4453  0.3066  0.6609
16775SOL     OW53726   7.402   3.183   4.288 -0.0418  0.4009  0.0825
16775SOL    HW153727   7.406   3.170   4.382  1.2879 -1.8158 -0.2114
16775SOL    HW253728   7.463   3.254   4.270 -0.9257  1.4206  0.9217
16776SOL     OW53729   6.948   5.672  10.713  0.8050 -0.3231 -0.3587
16776SOL    HW153730   6.865   5.626  10.725  0.5958  0.1226 -0.1089
16776SOL    HW253731   7.002   5.642  10.787  0.0837  1.1359  0.8063
16777SOL     OW53732   8.163   8.122   2.296  0.6789  0.0894 -0.1048
16777SOL    HW153733   8.195   8.174   2.223  1.6392 -0.0623  0.1830
16777SOL    HW253734   8.242   8.079   2.330  0.0885 -0.6166  0.3931
16778SOL     OW53735   8.402   7.983   0.428  0.5892 -0.5275 -0.1327
16778SOL    HW153736   8.316   7.991   0.386  1.3005 -0.1190 -1.5918
16778SOL    HW253737   8.397   8.042   0.503 -1.0432 -1.9893  1.0025
16779SOL     OW53738   9.266   5.347   0.793 -0.1511  0.2220 -0.7796
16779SOL    HW153739   9.186   5.359   0.743 -0.2681  0.7193 -0.4712
16779SOL    HW253740   9.336   5.360   0.729 -0.2978  1.0548 -0.7756
16780SOL     OW53741  10.608  10.751   5.840 -0.8293 -0.0854  0.3970
16780SOL    HW153742  10.615  10.796   5.756  1.4079 -2.1051 -0.6132
16780SOL    HW253743  10.677  10.789   5.894 -2.6045  1.6018  1.6504
16781SOL     OW53744   8.774   1.221   5.295 -0.1983 -0.3305 -0.0528
16781SOL    HW153745   8.865   1.243   5.315 -1.0786  1.6291  2.4233
16781SOL    HW253746   8.757   1.142   5.347  0.0578 -0.6571 -0.4615
16782SOL     OW53747   7.846   7.604  10.638 -1.0457 -0.2810  0.3035
16782SOL    HW153748   7.837   7.699  10.642 -0.6459 -0.2679  3.7539
16782SOL    HW253749   7.758   7.571  10.652 -1.4316 -0.5309 -2.2277
16783SOL     OW53750   7.996   6.749   9.677  0.2641  0.4184 -0.4077
16783SOL    HW153751   7.955   6.741   9.591  1.2744  1.1962 -0.9815
16783SOL    HW253752   8.044   6.667   9.688 -0.3765  0.0454 -0.2835
16784SOL     OW53753   2.508   8.648   6.215  0.1312 -0.1099 -0.5734
16784SOL    HW153754   2.487   8.567   6.260 -1.6755  0.7901  0.3290
16784SOL    HW253755   2.592   8.675   6.252 -0.5196 -0.2424  1.0924
16785SOL     OW53756   8.729   0.256  10.539 -0.4883  0.5554  0.0041
16785SOL    HW153757   8.688   0.299  10.464  0.2474 -0.1336 -0.8326
16785SOL    HW253758   8.823   0.271  10.526 -0.3912  1.0838  1.2164
16786SOL     OW53759   1.183   2.179   3.501  0.5314  0.3895  0.0262
16786SOL    HW153760   1.170   2.149   3.591  2.0824  1.1494  0.5359
16786SOL    HW253761   1.206   2.100   3.452 -0.1485  0.0044  0.3111
16787SOL     OW53762   5.574   7.918   2.799  0.0746  0.6910  0.6194
16787SOL    HW153763   5.519   7.849   2.763 -0.9692  1.0249  1.5160
16787SOL    HW253764   5.635   7.873   2.857  2.3436  0.0430 -2.0818
16788SOL     OW53765   9.030   3.886   6.984 -0.3661  0.0802  0.1599
16788SOL    HW153766   9.025   3.902   7.078 -2.0621  0.6585  0.0126
16788SOL    HW253767   8.997   3.967   6.945  1.2264  0.2163 -0.9823
16789SOL     OW53768   7.933   1.882   7.746 -0.2799 -0.3743  0.2219
16789SOL    HW153769   7.956   1.975   7.748 -0.5255 -0.3203  1.9967
16789SOL    HW253770   7.953   1.854   7.657 -0.9224  1.5603 -0.5704
16790SOL     OW53771   5.825   1.617   0.736 -0.0430 -0.2536  0.2817
16790SOL    HW153772   5.756   1.557   0.763 -0.2047  1.1209  3.3315
16790SOL    HW253773   5.792   1.657   0.656 -2.1733 -0.6805  0.8805
16791SOL     OW53774   9.792   9.728   2.001  0.1687  0.5604  0.6496
16791SOL    HW153775   9.771   9.788   1.930  1.0636  1.2814  0.9809
16791SOL    HW253776   9.712   9.721   2.052  0.1130  1.6244  0.7119
16792SOL     OW53777   0.838   5.025   3.134  0.4459  0.3694  0.3413
16792SOL    HW153778   0.777   5.048   3.065  0.5009  1.5870  0.6804
16792SOL    HW253779   0.784   5.013   3.212  0.6324  1.7401  0.7114
16793SOL     OW53780   6.118   9.494   5.578 -0.1363 -0.4198  0.2211
16793SOL    HW153781   6.044   9.492   5.639 -1.2025  1.2846 -0.9334
16793SOL    HW253782   6.154   9.405   5.581 -2.4531 -1.4157  0.5625
16794SOL     OW53783   2.289   1.595   1.998 -0.3053 -0.0656  0.5619
16794SOL    HW153784   2.213   1.620   2.051  0.4776  1.2008  1.1452
16794SOL    HW253785   2.302   1.669   1.938 -0.7956 -1.2051 -1.0098
16795SOL     OW53786   9.823   5.090   5.682  0.1528  0.2573 -0.3176
16795SOL    HW153787   9.739   5.044   5.672  0.2745  0.3181 -2.0378
16795SOL    HW253788   9.833   5.138   5.600 -0.0754  3.5950  1.4487
16796SOL     OW53789   7.875   7.350   0.585  0.2227 -0.1000  0.1743
16796SOL    HW153790   7.885   7.362   0.491  1.9018  0.4944  0.3988
16796SOL    HW253791   7.818   7.273   0.593 -2.8330  1.8188 -1.2802
16797SOL     OW53792   6.314   1.753   2.730  0.0744  0.2469 -0.1233
16797SOL    HW153793   6.402   1.730   2.700 -0.4833 -2.7112  0.3046
16797SOL    HW253794   6.265   1.769   2.649  0.3820 -0.6164 -0.4892
16798SOL     OW53795   5.978   3.479   1.114  0.4969 -0.3002 -0.2536
16798SOL    HW153796   5.968   3.555   1.057 -0.7610  0.8897  1.4740
16798SOL    HW253797   6.046   3.504   1.177 -0.4123 -0.2994  0.7489
16799SOL     OW53798   5.515   0.490   1.273 -0.2134  0.2030 -0.3123
16799SOL    HW153799   5.595   0.439   1.287  0.7984  1.5364 -0.9681
16799SOL    HW253800   5.477   0.499   1.361  0.4025 -0.3839  0.0258
16800SOL     OW53801   8.346   2.388   1.782  0.0667 -0.1809  0.0151
16800SOL    HW153802   8.438   2.369   1.761  0.5014  0.4929  1.2455
16800SOL    HW253803   8.300   2.373   1.699  1.2027 -1.0140 -0.4979
16801SOL     OW53804   6.896   9.376  10.437 -0.0033 -0.3221  1.1030
16801SOL    HW153805   6.951   9.308  10.476 -1.4862 -1.7961  0.7234
16801SOL    HW253806   6.814   9.373  10.487 -0.4083  0.5988  0.5291
16802SOL     OW53807   8.173   3.467   5.394  0.7339  0.3914  0.6517
16802SOL    HW153808   8.169   3.372   5.391  0.7205  0.3988  0.3941
16802SOL    HW253809   8.167   3.494   5.302  0.2545  0.6593  0.7609
16803SOL     OW53810  10.638   3.681   4.353 -0.2022  0.3695 -0.8928
16803SOL    HW153811  10.643   3.588   4.377 -0.5302  0.2069 -1.4342
16803SOL    HW253812  10.729   3.707   4.340 -0.1183  0.0807 -0.8950
16804SOL     OW53813   4.354   6.292   7.346 -0.1197  0.4783 -0.0139
16804SOL    HW153814   4.360   6.348   7.269 -0.1743 -0.7010 -0.9046
16804SOL    HW253815   4.275   6.322   7.392 -1.7230 -0.5891 -1.9232
16805SOL     OW53816   4.878   5.392   5.923  0.5741 -0.3742 -0.0272
16805SOL    HW153817   4.930   5.384   5.843 -0.0224  0.8195 -0.5721
16805SOL    HW253818   4.812   5.323   5.915  0.3595 -0.1035 -0.7115
16806SOL     OW53819   1.047   4.802   7.764  0.1916  0.6617  0.3317
16806SOL    HW153820   0.972   4.854   7.794  0.9218  0.6217  2.3486
16806SOL    HW253821   1.014   4.755   7.687 -1.0125  2.7116 -0.4778
16807SOL     OW53822  10.270   7.840  10.574  0.1192  0.4789  0.0421
16807SOL    HW153823  10.213   7.779  10.526  0.7166  0.3576 -0.5275
16807SOL    HW253824  10.350   7.789  10.590  0.7240  1.1863 -0.6591
16808SOL     OW53825   5.852   2.774   6.096  0.0216  0.2400 -0.1793
16808SOL    HW153826   5.882   2.697   6.046 -1.3122 -0.4072 -0.0141
16808SOL    HW253827   5.797   2.822   6.035 -0.2439  0.3465  0.1476
16809SOL     OW53828   0.938   7.593   6.728 -0.3260  0.6446 -0.1457
16809SOL    HW153829   1.022   7.631   6.755 -0.9489  1.6539  0.4581
16809SOL    HW253830   0.954   7.556   6.642  0.8560  0.4086  0.1631
16810SOL     OW53831   1.542   0.275   0.944  0.4960  0.1260 -0.0026
16810SOL    HW153832   1.559   0.193   0.990 -0.0092 -1.5979 -2.6297
16810SOL    HW253833   1.450   0.295   0.962  0.4745 -0.1820  0.2329
16811SOL     OW53834   7.214   9.395   4.759 -0.1801  0.2269  0.3706
16811SOL    HW153835   7.212   9.353   4.673  1.9485  1.2440 -0.2350
16811SOL    HW253836   7.271   9.471   4.747  0.2741  0.3129  2.7166
16812SOL     OW53837   0.238   6.040   0.700  0.6496 -0.4181 -0.0684
16812SOL    HW153838   0.254   5.963   0.646 -1.8021 -2.0436  1.3215
16812SOL    HW253839   0.274   6.018   0.786  0.4305  0.2112  0.1984
16813SOL     OW53840  10.688   8.863   4.844 -0.0614  0.3109  0.1306
16813SOL    HW153841  10.721   8.952   4.830 -1.7850  1.1800  1.2029
16813SOL    HW253842  10.617   8.874   4.907  0.5719 -2.0346  1.3484
16814SOL     OW53843   6.587  10.035   7.091 -0.3877  0.2573 -0.2439
16814SOL    HW153844   6.610  10.004   7.178 -0.5976  1.6404  0.3181
16814SOL    HW253845   6.654  10.100   7.070 -0.7664  0.4736 -0.8118
16815SOL     OW53846  10.468   9.448   7.225  0.3034 -0.0702 -0.6846
16815SOL    HW153847  10.390   9.495   7.254  1.1700  0.0635  1.6607
16815SOL    HW253848  10.502   9.500   7.152 -1.0915  0.5651 -0.8998
16816SOL     OW53849   6.545   3.758  10.910  0.1633 -0.0889  0.8992
16816SOL    HW153850   6.556   3.687  10.973  1.5289  0.2041  1.0334
16816SOL    HW253851   6.513   3.831  10.962 -2.0372 -0.7889  0.6229
16817SOL     OW53852   7.918   3.456   2.821  0.3499 -0.1839  0.1091
16817SOL    HW153853   7.918   3.372   2.775  0.7030 -0.8352  1.2562
16817SOL    HW253854   7.991   3.504   2.782  0.4196 -0.5775 -0.2544
16818SOL     OW53855   6.971   0.481   2.883 -1.1017  0.2020 -0.0129
16818SOL    HW153856   7.066   0.482   2.870 -0.7278 -1.1513  2.1647
16818SOL    HW253857   6.958   0.518   2.970 -2.6901  1.1413 -0.5990
16819SOL     OW53858   8.617   3.503   6.578 -0.0589  0.0772  0.6168
16819SOL    HW153859   8.646   3.438   6.643 -0.5423 -2.8031 -1.8226
16819SOL    HW253860   8.686   3.503   6.512 -2.4256 -2.1719 -2.1205
16820SOL     OW53861   9.540   3.651   9.668  0.0912  0.1873 -0.6648
16820SOL    HW153862   9.631   3.629   9.688 -0.3026  0.0152  1.1812
16820SOL    HW253863   9.518   3.720   9.731 -1.4205 -0.6676 -0.2043
16821SOL     OW53864   1.198   2.461   7.570 -0.1683 -0.0049  0.3941
16821SOL    HW153865   1.153   2.544   7.554 -2.0150 -0.6480  1.9630
16821SOL    HW253866   1.260   2.454   7.497 -1.7424  1.5059 -1.2085
16822SOL     OW53867   9.309   5.438   4.000  0.4710 -0.0859 -0.0576
16822SOL    HW153868   9.356   5.447   3.918 -0.4376  0.4728 -0.5306
16822SOL    HW253869   9.362   5.486   4.064  0.3575  0.8588 -0.6590
16823SOL     OW53870   9.792   6.974   3.296  0.0411  0.2048 -0.0470
16823SOL    HW153871   9.788   6.908   3.227  0.3212 -1.0067  1.0588
16823SOL    HW253872   9.700   6.988   3.321 -0.2823  2.1834 -2.0017
16824SOL     OW53873   0.734  10.745   6.386  0.4375  0.3011  0.2579
16824SOL    HW153874   0.787  10.817   6.422  0.1177 -0.3219  2.0797
16824SOL    HW253875   0.644  10.776   6.391  0.2178 -0.4811  1.8203
16825SOL     OW53876   6.881  10.074   8.964 -0.1373 -0.0692 -0.2260
16825SOL    HW153877   6.788  10.078   8.985  0.1706  0.3404  1.1563
16825SOL    HW253878   6.896   9.983   8.937 -0.4854 -0.8367  1.9498
16826SOL     OW53879   3.940   3.695   7.893 -0.8280  0.0853 -0.4321
16826SOL    HW153880   3.961   3.677   7.801  2.4929  0.4032  0.1195
16826SOL    HW253881   3.914   3.787   7.894  0.3063  0.4423 -0.9609
16827SOL     OW53882   2.652   3.995   0.902 -0.0341  0.4398 -0.2033
16827SOL    HW153883   2.597   4.044   0.963 -0.4328  0.6427 -0.7270
16827SOL    HW253884   2.591   3.952   0.843  0.3568  0.3115 -0.5184
16828SOL     OW53885   3.618   8.276   7.238 -0.1338  0.3662  0.9079
16828SOL    HW153886   3.701   8.311   7.206 -0.6712 -0.7360 -1.9622
16828SOL    HW253887   3.576   8.350   7.281  0.6520  2.0595 -1.0951
16829SOL     OW53888   2.315   3.780   9.462 -0.0944  0.0665 -0.0860
16829SOL    HW153889   2.250   3.737   9.406 -0.7256  1.4213 -0.4470
16829SOL    HW253890   2.399   3.751   9.428 -0.4864  0.1208 -1.1388
16830SOL     OW53891   8.965   2.640   6.461  0.1709 -0.0689  0.0242
16830SOL    HW153892   9.006   2.554   6.474 -1.1424 -0.6467  0.4632
16830SOL    HW253893   8.966   2.681   6.547  0.3199  0.1379 -0.0763
16831SOL     OW53894   2.311   4.769  10.120  0.1020  0.3107 -0.2834
16831SOL    HW153895   2.373   4.696  10.114  0.7326  0.7248  0.9585
16831SOL    HW253896   2.321   4.815  10.037  0.7635 -0.1735 -0.4867
16832SOL     OW53897   5.450   9.697   6.733 -0.3511 -0.1136 -0.7725
16832SOL    HW153898   5.409   9.781   6.749 -1.2138 -0.7114  0.2971
16832SOL    HW253899   5.420   9.671   6.645  0.3407  0.9002 -1.3261
16833SOL     OW53900   9.153   3.786  10.682 -0.0718 -0.0677  0.4896
16833SOL    HW153901   9.239   3.777  10.639 -0.1281  1.4931 -0.0122
16833SOL    HW253902   9.173   3.824  10.767 -0.2587  0.2614  0.3878
16834SOL     OW53903   3.648   6.778   3.766 -0.1309 -0.5660 -0.5539
16834SOL    HW153904   3.724   6.750   3.816  1.9296  2.2191 -1.8778
16834SOL    HW253905   3.606   6.844   3.821 -0.0925 -0.2582 -0.8885
16835SOL     OW53906   7.529   2.939   7.374  0.2183 -0.0036  0.2410
16835SOL    HW153907   7.447   2.989   7.374  0.6336  0.6936  0.0417
16835SOL    HW253908   7.544   2.918   7.282  0.4585  0.2064  0.2307
16836SOL     OW53909   7.845   3.754   0.105  0.1683 -0.3044 -0.3268
16836SOL    HW153910   7.817   3.688   0.169 -0.1434  0.9983  0.9183
16836SOL    HW253911   7.938   3.735   0.091  0.6836  0.3773  1.8179
16837SOL     OW53912   7.794   9.889   8.531 -0.4516 -0.4738  0.0246
16837SOL    HW153913   7.840   9.811   8.563 -0.3248 -1.0470 -1.4605
16837SOL    HW253914   7.705   9.879   8.564 -0.2680 -0.8979  0.4096
16838SOL     OW53915   9.905   5.780   4.691 -0.6874  0.1523  0.5576
16838SOL    HW153916   9.940   5.769   4.603  0.8118  0.7200  1.0475
16838SOL    HW253917   9.810   5.772   4.681 -0.5991  0.9281 -1.2283
16839SOL     OW53918   2.383   4.494   3.356  0.2957  0.6078 -0.2965
16839SOL    HW153919   2.357   4.402   3.347 -0.5113  0.7697  0.3135
16839SOL    HW253920   2.428   4.514   3.274  0.3289 -0.2790 -0.5083
16840SOL     OW53921   2.302   6.797   6.997 -0.3672  0.3355 -0.2249
16840SOL    HW153922   2.222   6.780   7.047  0.5615 -0.6062  0.9923
16840SOL    HW253923   2.336   6.710   6.975  1.3287  0.6510  0.9642
16841SOL     OW53924   2.488   2.061   3.793 -0.0066 -0.1535  0.1411
16841SOL    HW153925   2.419   2.002   3.823  1.6235 -1.3660  1.7093
16841SOL    HW253926   2.514   2.111   3.870  2.9866 -1.9968  0.4947
16842SOL     OW53927   4.018   7.075   1.946  0.2547 -0.5413  0.0099
16842SOL    HW153928   3.990   7.063   2.036 -1.0440  0.2428 -0.2660
16842SOL    HW253929   4.112   7.088   1.951  0.2699 -1.0634  1.1958
16843SOL     OW53930   8.790   6.803   4.408 -0.2780 -0.5703 -0.5485
16843SOL    HW153931   8.769   6.889   4.371 -1.4948 -0.6276 -0.0659
16843SOL    HW253932   8.826   6.822   4.494 -1.0865 -0.5496 -0.2081
16844SOL     OW53933   1.432   4.999   2.813  0.4186 -0.6019  0.2430
16844SOL    HW153934   1.406   5.056   2.741  0.9065  0.1474  0.6530
16844SOL    HW253935   1.424   4.910   2.777 -0.5750 -0.3016 -0.3284
16845SOL     OW53936   8.977   4.446   8.793  0.2634 -0.5250 -0.0031
16845SOL    HW153937   8.996   4.362   8.751  1.9759 -0.0750 -0.1702
16845SOL    HW253938   8.918   4.424   8.865 -2.1577 -1.4176 -2.0794
16846SOL     OW53939   8.949  10.889  10.647  0.2095  0.6830 -0.2046
16846SOL    HW153940   8.859  10.874  10.678 -0.0932  0.4092 -1.1598
16846SOL    HW253941   8.970  10.809  10.598  1.2335  0.4634  0.5720
16847SOL     OW53942   7.944  10.827  10.056  0.2116  0.4995 -0.1511
16847SOL    HW153943   7.964  10.868  10.140  0.1466  1.1859 -0.4620
16847SOL    HW253944   7.958  10.897   9.991 -0.4070  0.1814 -0.6412
16848SOL     OW53945   3.123   4.819   9.951  0.0456  0.4336 -1.0569
16848SOL    HW153946   3.163   4.776  10.026 -0.1032  0.5204 -0.9266
16848SOL    HW253947   3.195   4.865   9.908  0.6989 -1.8597 -2.5780
16849SOL     OW53948   6.183   8.446   3.225 -0.0661  0.4687 -0.0758
16849SOL    HW153949   6.188   8.351   3.225 -1.4423  0.3625 -0.9312
16849SOL    HW253950   6.264   8.475   3.267 -0.9653 -1.1402  3.1292
16850SOL     OW53951  10.547   2.162  10.021  0.0934 -0.2646  0.3708
16850SOL    HW153952  10.492   2.202  10.088  0.0638 -0.7987  0.6722
16850SOL    HW253953  10.504   2.183   9.938 -0.1935 -0.1114  0.5584
16851SOL     OW53954   8.993   9.993   9.175 -0.2881  0.1866  0.1472
16851SOL    HW153955   8.948  10.062   9.125 -0.3610 -0.4441 -0.6851
16851SOL    HW253956   8.933   9.918   9.171  0.3041 -0.2862  0.0566
16852SOL     OW53957   9.829   6.737   2.328 -0.3538 -0.3004 -0.4449
16852SOL    HW153958   9.744   6.745   2.371  0.6933 -1.5296  2.0588
16852SOL    HW253959   9.853   6.645   2.339  1.1294 -0.0749 -1.4949
16853SOL     OW53960   4.355   1.345   9.668 -0.0779  0.8967 -0.4041
16853SOL    HW153961   4.436   1.385   9.637  1.8985 -2.0770  0.5674
16853SOL    HW253962   4.375   1.317   9.757 -1.4141 -1.7882 -0.8472
16854SOL     OW53963   6.159   4.099   0.730  0.0342 -0.2354  0.5012
16854SOL    HW153964   6.125   4.107   0.641 -0.1504  0.4849  0.6299
16854SOL    HW253965   6.249   4.068   0.719  0.4451  1.0418 -0.0200
16855SOL     OW53966  10.867   4.828   1.706  0.3950 -0.1733 -0.4236
16855SOL    HW153967  10.928   4.754   1.710  0.1745 -0.6644 -3.6006
16855SOL    HW253968  10.797   4.804   1.767  2.3517 -0.4971  1.8502
16856SOL     OW53969  10.599   7.558  10.119 -0.2907 -0.5163 -0.2527
16856SOL    HW153970  10.688   7.594  10.122 -0.2900 -0.5794  0.4509
16856SOL    HW253971  10.613   7.463  10.114 -0.3236 -0.5216 -0.2396
16857SOL     OW53972  10.649   0.728   5.032 -0.1775  0.3625 -0.1204
16857SOL    HW153973  10.739   0.757   5.043 -0.2587  0.5103  0.1535
16857SOL    HW253974  10.610   0.735   5.119 -0.2539 -0.3949 -0.0908
16858SOL     OW53975   5.695   5.480   4.339 -0.3448 -0.2008  0.2598
16858SOL    HW153976   5.707   5.458   4.431 -3.4608 -0.7931  0.6319
16858SOL    HW253977   5.629   5.417   4.308 -0.2431  0.7385 -2.0676
16859SOL     OW53978   7.902   5.648   8.597 -0.3815  0.1330 -0.4366
16859SOL    HW153979   7.996   5.641   8.582 -0.6231 -1.3200 -1.4875
16859SOL    HW253980   7.889   5.615   8.686  0.0080 -0.5225 -0.6176
16860SOL     OW53981  10.241   9.446   2.058  0.6128 -0.3568 -0.2609
16860SOL    HW153982  10.288   9.522   2.091 -0.1491  0.1598 -0.3326
16860SOL    HW253983  10.280   9.429   1.972  1.3508 -0.5707  0.1086
16861SOL     OW53984  10.328   3.171   8.159 -0.0308 -0.6305 -0.1742
16861SOL    HW153985  10.364   3.122   8.232  1.1038  1.1140  0.5030
16861SOL    HW253986  10.403   3.216   8.120 -0.9839  0.5030 -0.7804
16862SOL     OW53987   1.741   0.500   2.053  0.3486 -0.4439 -0.5461
16862SOL    HW153988   1.816   0.441   2.048 -1.4971 -3.0572  0.6979
16862SOL    HW253989   1.665   0.445   2.038 -1.4013  2.2326 -2.4779
16863SOL     OW53990   9.723   9.412   7.333  0.2374  0.0505  0.5349
16863SOL    HW153991   9.668   9.405   7.411 -1.8018 -1.0018 -0.8795
16863SOL    HW253992   9.708   9.501   7.300  1.2288  0.5511  1.4010
16864SOL     OW53993   6.260   7.330   0.524  0.2933 -0.2326 -0.5574
16864SOL    HW153994   6.284   7.260   0.464 -0.7000 -1.6356  0.6012
16864SOL    HW253995   6.261   7.289   0.611 -0.5639  1.1146  0.1258
16865SOL     OW53996   7.842   0.522   4.484  0.4126 -0.0674 -0.6039
16865SOL    HW153997   7.934   0.534   4.460  1.0794  0.9131  1.9936
16865SOL    HW253998   7.845   0.461   4.558 -1.2264 -1.3715 -1.5727
16866SOL     OW53999  10.068   0.456   5.872 -0.3412  0.0697  0.2323
16866SOL    HW154000  10.032   0.461   5.961 -1.0991 -1.4994  0.0385
16866SOL    HW254001  10.135   0.525   5.870 -2.0724  1.8884  1.1735
16867SOL     OW54002   9.388   2.432  10.851  0.3859  0.4686  0.4530
16867SOL    HW154003   9.396   2.526  10.866 -0.6769  0.9319 -1.6098
16867SOL    HW254004   9.336   2.400  10.925 -0.2794  1.7186  0.5501
16868SOL     OW54005   3.030   2.585   4.117 -0.1518  0.1514 -0.5826
16868SOL    HW154006   3.121   2.558   4.121 -0.7008 -1.6944  1.5672
16868SOL    HW254007   3.009   2.587   4.024  1.2334 -2.6106 -1.0534
16869SOL     OW54008   1.298   8.323   1.059  0.1159 -0.0504 -0.3597
16869SOL    HW154009   1.208   8.297   1.041 -0.0096  0.4877 -0.5215
16869SOL    HW254010   1.335   8.249   1.108 -0.1022 -0.7159 -1.1732
16870SOL     OW54011   5.892   8.757   9.897  0.0483  0.4319  0.1484
16870SOL    HW154012   5.896   8.815   9.821  1.0172 -0.3932 -0.4464
16870SOL    HW254013   5.953   8.796   9.960  0.5782  0.1607 -0.1892
16871SOL     OW54014   2.617   6.668   9.353  0.4001  0.2932  0.3599
16871SOL    HW154015   2.536   6.720   9.359 -0.0201 -0.3217  0.1137
16871SOL    HW254016   2.672   6.702   9.423 -0.1089  0.6576  0.5935
16872SOL     OW54017   4.394   2.556   2.298  0.2409  0.4148  0.5197
16872SOL    HW154018   4.312   2.564   2.249 -1.4244  0.0350  3.0506
16872SOL    HW254019   4.419   2.646   2.320  0.9203  0.5758 -0.8324
16873SOL     OW54020   7.963   1.300   6.566  0.0597  0.1204 -0.4290
16873SOL    HW154021   7.927   1.378   6.524  0.7655  0.9456  0.4561
16873SOL    HW254022   7.897   1.232   6.550 -0.8309  1.0226 -0.7425
16874SOL     OW54023   1.853   0.751   2.292  0.0752 -0.2160 -0.7624
16874SOL    HW154024   1.877   0.659   2.306 -1.1716 -0.6056 -1.0164
16874SOL    HW254025   1.763   0.747   2.260 -1.1830  1.2230  2.2165
16875SOL     OW54026  10.755  10.046   4.596 -0.2234  0.3028  0.7058
16875SOL    HW154027  10.828  10.089   4.553 -0.7943  0.9244  0.3331
16875SOL    HW254028  10.795   9.989   4.662  0.5850  0.6328  0.5055
16876SOL     OW54029   7.121   5.573   0.832 -0.0971  0.1353 -0.2029
16876SOL    HW154030   7.189   5.554   0.896 -0.8044 -0.1123  0.4946
16876SOL    HW254031   7.150   5.529   0.752 -0.8274 -2.5588  0.8799
16877SOL     OW54032   8.423   7.792   3.529  0.4061  0.1579  0.2541
16877SOL    HW154033   8.498   7.741   3.561 -0.3481 -1.3641 -0.3239
16877SOL    HW254034   8.440   7.881   3.560  2.9744  0.0984 -0.7418
16878SOL     OW54035   6.152   2.507   9.911 -0.4325 -0.1157  0.0544
16878SOL    HW154036   6.208   2.577   9.944 -0.4078 -0.0171 -0.1969
16878SOL    HW254037   6.175   2.431   9.964 -0.6895  0.1464  0.5476
16879SOL     OW54038   1.437   7.372   5.905 -0.7125  0.4805  0.2261
16879SOL    HW154039   1.396   7.452   5.872 -1.6587  0.0676  0.3857
16879SOL    HW254040   1.511   7.403   5.957 -0.5134  1.2177 -0.4787
16880SOL     OW54041  10.220   6.999   6.018 -0.0357  0.5328 -0.2249
16880SOL    HW154042  10.204   6.907   6.040 -0.7454  0.4197 -1.1446
16880SOL    HW254043  10.287   7.027   6.080 -0.1787 -0.4593  0.4054
16881SOL     OW54044   9.843  10.528   5.761  0.3313  0.2056 -0.2140
16881SOL    HW154045   9.820  10.614   5.796  0.6418  0.9054 -1.6436
16881SOL    HW254046   9.912  10.546   5.696  0.9309 -1.2091 -0.0112
16882SOL     OW54047   7.943   5.191   8.492 -0.6624  0.5511 -0.2032
16882SOL    HW154048   8.038   5.194   8.486 -0.5812  1.1358  1.0206
16882SOL    HW254049   7.921   5.258   8.556 -1.5373 -2.2597  2.7541
16883SOL     OW54050   4.353   4.044   0.403 -0.2584  0.3994 -0.1137
16883SOL    HW154051   4.322   3.968   0.453 -0.4493  0.9630  0.6416
16883SOL    HW254052   4.378   4.108   0.470 -1.0869  1.4041 -0.7397
16884SOL     OW54053   3.229   4.930   5.386  0.5433  0.2089 -0.2658
16884SOL    HW154054   3.257   4.840   5.369 -1.1548 -0.7603  1.6052
16884SOL    HW254055   3.142   4.935   5.346  0.6160  0.9995 -0.3305
16885SOL     OW54056   7.172   5.500   3.544  0.3435 -0.2460  0.6711
16885SOL    HW154057   7.217   5.572   3.500 -1.6857 -0.1459 -1.4311
16885SOL    HW254058   7.204   5.421   3.502 -1.1515 -0.1887 -0.6614
16886SOL     OW54059   4.294   9.691   4.118 -0.3640  0.2409  0.3483
16886SOL    HW154060   4.205   9.681   4.085  0.2921 -0.7595 -1.2229
16886SOL    HW254061   4.320   9.604   4.147  0.7115  0.1211 -0.8831
16887SOL     OW54062   7.021   7.688   4.078  0.2166 -0.4017  0.0619
16887SOL    HW154063   7.042   7.595   4.079  0.3179 -0.3791  0.7530
16887SOL    HW254064   7.016   7.712   4.171 -0.3618  0.1569 -0.1087
16888SOL     OW54065   4.258   1.252   8.150  0.5845  0.2953  0.0569
16888SOL    HW154066   4.218   1.205   8.224  3.2124 -1.1435  0.6804
16888SOL    HW254067   4.237   1.198   8.074  2.2892 -1.2030  0.5647
16889SOL     OW54068   7.420   2.157   4.879 -0.1892 -0.1196 -0.0868
16889SOL    HW154069   7.414   2.209   4.800 -1.0699 -2.2094 -1.4878
16889SOL    HW254070   7.355   2.087   4.867  1.3476 -1.9207  1.3560
16890SOL     OW54071   4.981   2.301   3.874 -0.5317  0.0725 -0.0405
16890SOL    HW154072   5.049   2.366   3.894 -0.1128 -0.1421 -0.7445
16890SOL    HW254073   4.907   2.326   3.930  0.6200 -0.5771  1.8599
16891SOL     OW54074   4.365  10.732   9.771 -0.4183 -0.1530 -0.6261
16891SOL    HW154075   4.391  10.824   9.768 -2.3011  0.4346 -0.2205
16891SOL    HW254076   4.429  10.691   9.829 -0.2264  1.1372  0.1030
16892SOL     OW54077   3.953   9.787   9.871  0.2717  0.3390 -0.0794
16892SOL    HW154078   3.865   9.781   9.836  0.6372  0.8307 -1.1133
16892SOL    HW254079   4.009   9.746   9.805  0.8280  0.0585  0.5484
16893SOL     OW54080   6.875   4.406  10.279 -0.3176  0.3399 -0.0197
16893SOL    HW154081   6.962   4.417  10.241 -0.3989  1.1792  0.0198
16893SOL    HW254082   6.817   4.395  10.204 -0.3304  0.9241 -0.0986
16894SOL     OW54083   2.629   0.253   9.816  0.8768 -0.1643  0.1192
16894SOL    HW154084   2.591   0.258   9.904 -1.0051 -2.4801 -0.4542
16894SOL    HW254085   2.592   0.173   9.779  3.1679 -0.3009 -2.0972
16895SOL     OW54086   2.952   7.145   5.668  0.3286 -0.5471  0.3554
16895SOL    HW154087   2.955   7.106   5.755 -0.9839 -0.5981  0.3993
16895SOL    HW254088   2.859   7.146   5.645  0.6447 -0.5363 -1.0463
16896SOL     OW54089   6.070  10.731   5.662  0.5232 -0.4281  0.1069
16896SOL    HW154090   6.055  10.668   5.592 -0.7957 -0.1957  0.1534
16896SOL    HW254091   6.061  10.681   5.742 -1.8963 -0.0047  0.1937
16897SOL     OW54092   7.812   4.417  10.075 -0.0989 -0.5497 -0.0043
16897SOL    HW154093   7.744   4.364  10.035  0.2131 -1.7434  0.9633
16897SOL    HW254094   7.770   4.457  10.151 -0.9517  2.4469 -1.8820
16898SOL     OW54095   6.105   6.502   5.288 -0.5036  0.2333 -0.7852
16898SOL    HW154096   6.122   6.413   5.256  3.1494 -0.0417  1.3623
16898SOL    HW254097   6.084   6.491   5.381  0.9783  1.5899 -0.2385
16899SOL     OW54098   1.957   9.546   9.512 -0.5264  0.2777  0.0978
16899SOL    HW154099   1.867   9.574   9.495 -0.4446 -0.2367 -1.3345
16899SOL    HW254100   1.975   9.574   9.602 -2.2484  0.0171  0.5501
16900SOL     OW54101   0.431   0.491   2.227  0.3935  0.5458  0.4103
16900SOL    HW154102   0.467   0.427   2.166 -0.3241  0.9468 -0.4611
16900SOL    HW254103   0.377   0.439   2.287 -2.5324  0.5102 -1.9988
16901SOL     OW54104  10.090   6.074   2.812 -0.7604  0.0098  0.0717
16901SOL    HW154105  10.150   6.004   2.785 -0.2333 -0.2234  1.7675
16901SOL    HW254106  10.003   6.040   2.792 -0.4745 -0.8650  0.3092
16902SOL     OW54107   9.583   0.005   0.893  0.0114 -0.1854 -0.5389
16902SOL    HW154108   9.598  -0.066   0.831 -0.7936 -0.8670  0.0071
16902SOL    HW254109   9.527   0.067   0.846 -0.1955 -0.4603 -0.6612
16903SOL     OW54110  10.814   2.368   6.776 -0.4973  0.1928 -0.0001
16903SOL    HW154111  10.811   2.417   6.693 -1.1605  1.4965  0.7684
16903SOL    HW254112  10.724   2.368   6.807 -0.1711  0.1219  0.9681
16904SOL     OW54113   4.342   2.877   5.409 -0.4496  0.2321  0.2815
16904SOL    HW154114   4.253   2.871   5.373 -0.3879  1.5262 -0.1077
16904SOL    HW254115   4.399   2.878   5.333 -0.1410  0.1500  0.5115
16905SOL     OW54116   7.912   1.822   7.262 -0.2935  0.0544  0.4487
16905SOL    HW154117   7.841   1.774   7.220  1.2860  0.6462 -3.2615
16905SOL    HW254118   7.959   1.756   7.312 -1.2383 -1.1300 -0.1839
16906SOL     OW54119   9.948   1.295   8.486 -0.2901  0.0059  0.1640
16906SOL    HW154120   9.949   1.223   8.548  2.8877 -0.4154 -0.2262
16906SOL    HW254121   9.982   1.257   8.405  2.7716  2.0686  0.2978
16907SOL     OW54122   2.521   7.237   4.546  0.5516  0.3420  0.3455
16907SOL    HW154123   2.541   7.271   4.459  0.5289  1.1070  0.6345
16907SOL    HW254124   2.432   7.202   4.538  1.1036 -0.9635 -0.3274
16908SOL     OW54125   8.367  10.478  10.496  0.0488 -0.0090 -0.5875
16908SOL    HW154126   8.432  10.457  10.430 -1.1344 -0.5566 -1.6213
16908SOL    HW254127   8.372  10.573  10.505  0.1620  0.0834 -1.5390
16909SOL     OW54128   9.234   8.136   8.316 -0.6730 -0.2734 -0.1112
16909SOL    HW154129   9.182   8.203   8.361 -0.7246  0.2099 -0.8730
16909SOL    HW254130   9.275   8.183   8.244  2.9549  0.0306  1.8942
16910SOL     OW54131   9.953   3.541   1.641 -0.3386 -0.4532  0.1784
16910SOL    HW154132   9.905   3.463   1.668 -0.1259 -0.7068 -0.1631
16910SOL    HW254133   9.888   3.612   1.644 -1.5859 -1.2848 -3.1537
16911SOL     OW54134   7.377  10.525   2.067  0.4015  0.8487  0.2344
16911SOL    HW154135   7.402  10.611   2.101 -0.0524  2.5822 -3.3976
16911SOL    HW254136   7.295  10.540   2.021  0.4146 -1.5203 -0.6939
16912SOL     OW54137   0.554   0.614   0.877 -0.4450 -0.3912 -0.2139
16912SOL    HW154138   0.613   0.678   0.838 -0.2395 -0.8693 -0.6926
16912SOL    HW254139   0.526   0.655   0.959 -0.2586  0.2782 -0.4737
16913SOL     OW54140   7.382   2.543   7.890  0.3515 -0.1111 -0.2157
16913SOL    HW154141   7.435   2.566   7.813  0.9684  1.3339  0.6083
16913SOL    HW254142   7.298   2.585   7.875  0.7280  0.8345  0.2326
16914SOL     OW54143   4.183   0.716   0.330 -0.1570  0.3694 -0.4730
16914SOL    HW154144   4.163   0.807   0.352 -2.4169 -0.1525 -0.0996
16914SOL    HW254145   4.115   0.691   0.266  1.3256 -0.6290 -1.7383
16915SOL     OW54146   2.132   2.524   4.858  0.4227 -0.3870 -0.3721
16915SOL    HW154147   2.117   2.430   4.874  0.9487 -0.4594 -0.3165
16915SOL    HW254148   2.185   2.526   4.778 -0.8309 -0.0862 -1.2339
16916SOL     OW54149   8.947   9.397   6.025  0.0737  0.2635 -0.2893
16916SOL    HW154150   8.997   9.345   6.087 -0.2119 -1.5874 -1.5529
16916SOL    HW254151   9.013   9.449   5.978  0.6772 -1.0526 -0.9307
16917SOL     OW54152   8.707   1.916   6.649 -0.1740  0.3986  0.1079
16917SOL    HW154153   8.725   1.977   6.721  0.5488  1.5043 -0.9690
16917SOL    HW254154   8.760   1.840   6.668  0.1962  0.7774  0.6259
16918SOL     OW54155   1.602   7.024  10.307  0.2162 -0.0696 -0.2330
16918SOL    HW154156   1.634   6.935  10.319  1.3208  0.4914  1.4797
16918SOL    HW254157   1.655   7.060  10.236  1.6865  0.0257  0.8596
16919SOL     OW54158   3.258   2.080  10.807  0.1738 -0.1745  0.4999
16919SOL    HW154159   3.334   2.023  10.820 -0.3387 -0.5520  2.1284
16919SOL    HW254160   3.295   2.167  10.796  0.8656 -0.2951  1.6714
16920SOL     OW54161   0.237   8.497   8.474 -0.1736  0.1245  0.2889
16920SOL    HW154162   0.299   8.473   8.542  1.2834  0.7671 -0.7476
16920SOL    HW254163   0.162   8.534   8.521  0.9811  0.9691  1.5432
16921SOL     OW54164   7.033   8.976   5.624 -0.3347 -0.0403 -0.4873
16921SOL    HW154165   7.019   8.896   5.572  0.4614 -1.1425  0.9195
16921SOL    HW254166   7.017   9.047   5.562 -1.2423 -1.2696 -1.7532
16922SOL     OW54167   1.639   7.816   4.062 -0.4904  0.1518  0.3905
16922SOL    HW154168   1.627   7.766   3.981 -3.6361 -1.1183  1.4984
16922SOL    HW254169   1.596   7.900   4.045 -1.6492 -0.3277  0.8914
16923SOL     OW54170   3.967   3.942   9.055 -0.3688 -0.6664  0.0506
16923SOL    HW154171   3.952   3.852   9.084 -0.5877 -0.4156  0.7360
16923SOL    HW254172   3.967   3.993   9.136 -0.8764  0.0372 -0.3837
16924SOL     OW54173   8.535   9.005   5.428  0.5153  0.6883  0.6713
16924SOL    HW154174   8.525   9.077   5.490 -2.0955  1.1862 -0.1618
16924SOL    HW254175   8.520   9.045   5.342 -0.0824 -0.6674  0.1059
16925SOL     OW54176   6.970   2.946   0.547  0.0420 -0.8208  0.1352
16925SOL    HW154177   6.908   2.932   0.475 -0.2231 -0.3696  0.2721
16925SOL    HW254178   7.054   2.955   0.503 -0.5202  2.8071 -0.4799
16926SOL     OW54179   2.842   0.666   2.051 -0.5697  0.2687  0.0437
16926SOL    HW154180   2.755   0.643   2.085 -0.3628  0.0722  0.4404
16926SOL    HW254181   2.854   0.758   2.075 -0.8923  0.4599 -0.4913
16927SOL     OW54182   0.208   5.204   5.021  0.3802 -0.3569  0.1922
16927SOL    HW154183   0.226   5.134   4.960 -0.6243 -0.5118  0.0517
16927SOL    HW254184   0.155   5.266   4.972  0.9680  0.3404  0.4148
16928SOL     OW54185   1.637   5.131   7.676  0.6284  0.1542  0.6044
16928SOL    HW154186   1.549   5.144   7.713  1.1176  2.6681  1.0698
16928SOL    HW254187   1.622   5.114   7.583 -0.3861 -1.2499  0.9837
16929SOL     OW54188   2.789   5.098  10.410  0.8362 -0.2264  0.0183
16929SOL    HW154189   2.880   5.079  10.433 -0.0505 -2.9910  1.8581
16929SOL    HW254190   2.741   5.089  10.493 -1.6652 -3.6376 -1.5423
16930SOL     OW54191   9.073   2.172   4.550  0.1146 -0.4431  0.7021
16930SOL    HW154192   9.165   2.181   4.578 -0.2376  1.0809  1.4610
16930SOL    HW254193   9.029   2.137   4.628 -0.4032  1.3460  1.2468
16931SOL     OW54194   1.188   2.899   5.292 -0.0078  0.6332  0.0859
16931SOL    HW154195   1.140   2.876   5.212 -0.7221  1.6264  0.2051
16931SOL    HW254196   1.276   2.866   5.277 -0.2105  0.5285 -0.9893
16932SOL     OW54197   2.536   4.463   5.104  0.6898 -0.3699 -0.3358
16932SOL    HW154198   2.461   4.519   5.085  0.3821 -0.6283  0.1226
16932SOL    HW254199   2.507   4.374   5.083  0.5499 -0.5850  0.7415
16933SOL     OW54200   8.645  10.056   2.507  0.1667 -0.6842  0.2225
16933SOL    HW154201   8.610  10.134   2.463  0.0417 -0.4517  0.7342
16933SOL    HW254202   8.620   9.983   2.450 -1.4373 -0.5661  0.7305
16934SOL     OW54203   2.060  10.115   2.990 -0.0699  0.0989  0.0441
16934SOL    HW154204   2.130  10.170   3.025 -0.5389  0.9177 -0.2795
16934SOL    HW254205   2.043  10.151   2.903 -1.1646  0.1638  0.2762
16935SOL     OW54206   3.245   2.349   5.843  0.5399 -0.0039 -0.1451
16935SOL    HW154207   3.197   2.287   5.789 -0.5913  1.6591 -1.1216
16935SOL    HW254208   3.252   2.306   5.928 -1.9304 -0.6886 -0.2085
16936SOL     OW54209   1.507   2.595   7.716 -0.2334 -0.1098  0.0869
16936SOL    HW154210   1.415   2.582   7.738 -0.4265  1.6034  0.4122
16936SOL    HW254211   1.539   2.658   7.780  1.2744 -0.9299  0.1854
16937SOL     OW54212   2.741   7.637   9.608  0.6623 -0.7217 -0.3873
16937SOL    HW154213   2.820   7.582   9.613  0.4313 -1.0151 -0.0192
16937SOL    HW254214   2.681   7.587   9.553 -0.0604 -1.4677  1.0538
16938SOL     OW54215   5.021   6.656   5.556  0.0065  0.1002 -0.2347
16938SOL    HW154216   4.949   6.616   5.507 -0.5470  1.4068 -0.5354
16938SOL    HW254217   5.078   6.693   5.488  1.2707 -1.3571 -0.0263
16939SOL     OW54218   5.709   0.662   2.547  0.0687  0.0014  0.0863
16939SOL    HW154219   5.750   0.581   2.576 -0.4792 -0.7047 -1.0233
16939SOL    HW254220   5.741   0.729   2.608  1.3825 -0.8424  0.3550
16940SOL     OW54221   2.895   8.980   5.496  0.4212  0.3921  0.0940
16940SOL    HW154222   2.949   8.981   5.575 -0.2650  1.9407  0.5658
16940SOL    HW254223   2.811   9.016   5.523  0.7941  2.8764 -1.7346
16941SOL     OW54224   8.142   6.109   5.242  0.0386  0.3268  0.1628
16941SOL    HW154225   8.102   6.025   5.265  0.1089  0.5367  1.0962
16941SOL    HW254226   8.216   6.086   5.187  0.4873 -0.2894  0.9948
16942SOL     OW54227   7.796   2.398   9.858 -0.2875  0.1970  0.5713
16942SOL    HW154228   7.879   2.355   9.834 -0.8271 -0.5025 -0.0918
16942SOL    HW254229   7.807   2.488   9.827 -0.1596 -0.1563 -0.4405
16943SOL     OW54230   8.255   5.324   4.122  0.3151  0.4884  0.2263
16943SOL    HW154231   8.162   5.328   4.099  0.7241  0.2403 -1.6410
16943SOL    HW254232   8.299   5.369   4.050  1.5710  1.6924  1.6992
16944SOL     OW54233   4.573   0.548   5.932 -0.3158  0.1946 -0.1487
16944SOL    HW154234   4.519   0.470   5.940  1.4070 -0.8867  2.0039
16944SOL    HW254235   4.641   0.525   5.869  0.1898 -0.0712  0.4828
16945SOL     OW54236   0.448   8.231   3.732 -0.4386 -0.1154  0.2097
16945SOL    HW154237   0.519   8.288   3.762  0.3772 -1.3241  0.6553
16945SOL    HW254238   0.438   8.167   3.803 -0.6497 -1.1213 -0.7102
16946SOL     OW54239   5.769   7.976  10.357 -0.6078  0.2553 -0.0225
16946SOL    HW154240   5.826   7.960  10.433 -0.4229  0.2566 -0.1589
16946SOL    HW254241   5.767   8.071  10.350 -0.2044  0.2426 -0.3324
16947SOL     OW54242   0.590   2.090   6.675  0.1774  0.0939 -0.0077
16947SOL    HW154243   0.529   2.017   6.683  0.0230  0.0879 -1.1846
16947SOL    HW254244   0.535   2.168   6.682  0.0830  0.0885 -0.6444
16948SOL     OW54245   0.975   4.781   5.768  0.2292  0.4830  0.3626
16948SOL    HW154246   0.919   4.732   5.828  1.1381  0.3301  1.1071
16948SOL    HW254247   1.027   4.715   5.723  0.7261  0.6987  0.6143
16949SOL     OW54248  10.073   8.550   1.546 -0.6345  0.6287  0.0264
16949SOL    HW154249  10.069   8.460   1.515 -0.0773 -0.2485  2.3031
16949SOL    HW254250  10.148   8.588   1.499  2.9948 -1.9425  3.1027
16950SOL     OW54251   3.215   3.513   9.286 -0.3798  0.5049  0.1377
16950SOL    HW154252   3.205   3.575   9.358  0.4718 -0.9618  1.5903
16950SOL    HW254253   3.142   3.451   9.298 -1.1033  1.0615 -1.1709
16951SOL     OW54254   4.473  10.128   1.390 -0.2771  0.4824 -0.1047
16951SOL    HW154255   4.447  10.039   1.366 -0.6375  0.3081  0.9048
16951SOL    HW254256   4.417  10.151   1.464  0.1895  1.3433 -0.0053
16952SOL     OW54257   9.530   8.009   5.655 -0.0387 -0.9943 -0.1736
16952SOL    HW154258   9.577   7.949   5.598 -0.2464 -0.3096 -1.1057
16952SOL    HW254259   9.519   8.088   5.602  1.5009  0.4297  1.5028
16953SOL     OW54260   7.150   0.961   3.296 -0.0467  0.0878 -0.2122
16953SOL    HW154261   7.205   0.968   3.218  0.3421 -0.6925 -0.0163
16953SOL    HW254262   7.176   0.879   3.337 -2.6744 -1.3618 -1.1556
16954SOL     OW54263   0.156   8.418   4.114  0.4101 -0.1637  0.0359
16954SOL    HW154264   0.104   8.337   4.110  2.3563 -1.4166 -1.0407
16954SOL    HW254265   0.117   8.475   4.047  0.6071 -1.2039 -0.9836
16955SOL     OW54266  10.182   5.549   4.658  0.7884  0.6475 -0.7648
16955SOL    HW154267  10.105   5.502   4.690  0.2233  1.5114 -0.8121
16955SOL    HW254268  10.236   5.562   4.735 -0.3661  2.3443 -0.1968
16956SOL     OW54269   1.109   0.617   6.926 -0.1251  0.2207  0.1422
16956SOL    HW154270   1.182   0.557   6.939  0.2891  1.1626  2.7446
16956SOL    HW254271   1.079   0.638   7.014 -2.6064  1.0399 -0.8058
16957SOL     OW54272   1.385   4.802   6.922  0.3021  0.3396 -0.4375
16957SOL    HW154273   1.360   4.720   6.879  1.3867  0.7363 -1.9141
16957SOL    HW254274   1.474   4.786   6.955  0.7321  1.0553 -1.1927
16958SOL     OW54275  10.426   9.867   7.223  0.1209  0.2385  0.3241
16958SOL    HW154276  10.486   9.820   7.281 -1.1568  0.3561  1.8118
16958SOL    HW254277  10.349   9.811   7.217  0.3086  0.1166 -1.5083
16959SOL     OW54278   6.415   8.679   5.211  0.0285  0.0157  0.7099
16959SOL    HW154279   6.398   8.692   5.117 -2.0840 -0.9323  0.9049
16959SOL    HW254280   6.348   8.617   5.239  0.1432  0.8479  3.0154
16960SOL     OW54281   0.051   5.513   8.895 -0.0055  0.2345  0.0904
16960SOL    HW154282   0.085   5.490   8.808 -1.1596  1.9216 -0.8551
16960SOL    HW254283   0.124   5.495   8.955  0.5403 -1.7682 -1.0767
16961SOL     OW54284   0.540   2.173   2.124 -0.0757 -0.4674 -0.1510
16961SOL    HW154285   0.633   2.180   2.144  0.0609  0.7677 -1.0538
16961SOL    HW254286   0.530   2.086   2.086  0.3844 -1.2474  1.4568
16962SOL     OW54287   0.225   5.809   4.185 -0.3400 -0.1994  0.2673
16962SOL    HW154288   0.137   5.825   4.220 -0.0220 -1.7319  1.9151
16962SOL    HW254289   0.212   5.799   4.091 -1.8848 -0.1455  0.4491
16963SOL     OW54290   6.012   0.110   9.517  0.2340  0.1523  0.3253
16963SOL    HW154291   6.054   0.031   9.483 -2.1737 -0.3612 -1.8006
16963SOL    HW254292   6.067   0.182   9.485  2.3561 -0.5366  2.1463
16964SOL     OW54293   3.047   2.900   1.670  0.4453  0.4349 -0.0408
16964SOL    HW154294   3.011   2.888   1.758  0.8994 -1.2694 -0.0548
16964SOL    HW254295   3.021   2.821   1.623  0.1676  1.3591 -1.4638
16965SOL     OW54296   0.553   1.000   8.949 -0.4080  0.4204  0.1643
16965SOL    HW154297   0.517   1.060   9.015  0.6324  0.7883  0.4219
16965SOL    HW254298   0.598   1.058   8.887  0.1906 -0.0636  0.1443
16966SOL     OW54299   5.863   9.910   0.109 -0.3676  0.0723  0.3501
16966SOL    HW154300   5.778   9.873   0.084 -0.3962  0.2250  0.2187
16966SOL    HW254301   5.842   9.994   0.148 -0.3245 -0.2004  0.9600
16967SOL     OW54302  10.600   0.843   7.639  0.3539  0.1101  0.2853
16967SOL    HW154303  10.676   0.818   7.585  0.3472 -0.8390  0.6829
16967SOL    HW254304  10.582   0.764   7.691 -1.1235  0.2059 -0.0512
16968SOL     OW54305   9.746   3.976   1.205 -0.2610 -0.2297 -0.0335
16968SOL    HW154306   9.686   3.908   1.236 -0.7483 -0.2024 -0.8830
16968SOL    HW254307   9.724   3.986   1.112  1.1832 -0.3387 -0.3978
16969SOL     OW54308   0.635   1.287   3.490  0.6148 -0.9407 -0.1331
16969SOL    HW154309   0.570   1.242   3.542  0.5642  1.3016  1.9259
16969SOL    HW254310   0.584   1.342   3.430  0.5984 -0.5390  0.2399
16970SOL     OW54311   9.622   8.015   0.949  0.3940  0.4338  0.1037
16970SOL    HW154312   9.663   7.930   0.934 -1.4861 -0.6970  1.0150
16970SOL    HW254313   9.568   8.003   1.027 -0.2859  2.3261 -0.0180
16971SOL     OW54314   8.786   2.649   2.179 -0.0488 -0.7356  0.0319
16971SOL    HW154315   8.820   2.698   2.253 -1.3704  1.5141 -0.7541
16971SOL    HW254316   8.854   2.658   2.111 -1.4549  2.6943 -1.1164
16972SOL     OW54317   1.251   3.136   4.736 -0.0291  0.0034  0.1128
16972SOL    HW154318   1.252   3.232   4.734  1.7245  0.0593  1.4715
16972SOL    HW254319   1.190   3.112   4.666 -1.5735  2.1109  0.6154
16973SOL     OW54320   7.674   3.950   9.161  0.5772 -0.1493 -0.4004
16973SOL    HW154321   7.745   3.998   9.118 -0.5567  1.4986 -0.5661
16973SOL    HW254322   7.603   3.951   9.096 -0.6974  1.1606  0.9293
16974SOL     OW54323  10.477   2.957   8.309 -0.2856 -0.1497 -0.2849
16974SOL    HW154324  10.422   2.915   8.375 -1.4283  1.1444 -0.3658
16974SOL    HW254325  10.521   2.884   8.265 -2.5570 -1.3509 -0.7450
16975SOL     OW54326   9.421   5.875   4.687  0.2418 -0.0840  0.6521
16975SOL    HW154327   9.421   5.805   4.753  0.4897 -0.3321  0.3898
16975SOL    HW254328   9.329   5.897   4.674  0.1469 -0.5798  0.5021
16976SOL     OW54329   7.425  10.653   6.052 -0.1298  0.1746  0.9062
16976SOL    HW154330   7.336  10.663   6.085  0.1385  1.2874  1.3495
16976SOL    HW254331   7.477  10.630   6.129 -0.2112 -1.6968  0.4363
16977SOL     OW54332  10.889   5.284   7.685 -0.3602 -0.3112 -0.3464
16977SOL    HW154333  10.951   5.213   7.668  1.5425  1.3967 -0.9781
16977SOL    HW254334  10.855   5.307   7.599  0.5000  0.7544 -0.4262
16978SOL     OW54335   5.440   9.006   2.355  0.1442  0.1643  0.1131
16978SOL    HW154336   5.410   9.096   2.343 -0.8258 -0.0358  1.0061
16978SOL    HW254337   5.459   8.998   2.448 -0.2112 -0.6857  0.1251
16979SOL     OW54338   3.665   0.843   1.757 -0.0892 -0.4715 -0.6716
16979SOL    HW154339   3.623   0.762   1.788  2.2316 -1.0511  1.2197
16979SOL    HW254340   3.749   0.846   1.803 -0.0715  3.0382 -0.6845
16980SOL     OW54341   8.212   7.378   1.276  0.0241 -0.1674  0.0538
16980SOL    HW154342   8.207   7.472   1.289  1.5120 -0.1616  0.8478
16980SOL    HW254343   8.209   7.341   1.364 -1.6338 -0.9624 -0.2935
16981SOL     OW54344   9.872   8.191   8.208 -0.3330  0.4925 -0.5980
16981SOL    HW154345   9.909   8.217   8.292 -1.9432 -1.1844  0.7152
16981SOL    HW254346   9.943   8.205   8.145  2.0543 -1.1252  1.5132
16982SOL     OW54347   5.002   8.987   5.764  0.0293  0.2327 -0.0444
16982SOL    HW154348   4.974   8.907   5.718  0.5304  0.2438 -0.3834
16982SOL    HW254349   4.936   9.000   5.832  0.5407 -1.1157  0.7617
16983SOL     OW54350   5.045   7.151   5.742  0.2977 -0.3305 -0.0013
16983SOL    HW154351   4.952   7.141   5.760  0.5184 -0.8219  0.9655
16983SOL    HW254352   5.057   7.116   5.654 -0.6787  1.2369 -0.8049
16984SOL     OW54353   2.446   5.965   0.282  0.3431 -0.2191 -0.3890
16984SOL    HW154354   2.384   6.038   0.292  0.9268  0.6602 -2.6859
16984SOL    HW254355   2.524   6.005   0.245  1.2552 -1.7868 -0.2121
16985SOL     OW54356   3.982   1.717   3.054  0.5317 -0.2504 -0.0985
16985SOL    HW154357   4.067   1.673   3.045  0.2936 -0.9533  0.9003
16985SOL    HW254358   3.980   1.745   3.146  0.4601  1.4358 -0.5770
16986SOL     OW54359   5.841   7.587   4.694  0.3098 -0.5785  0.2628
16986SOL    HW154360   5.753   7.556   4.674  0.3456 -1.1581  0.9460
16986SOL    HW254361   5.827   7.665   4.748  0.1972  1.7705 -2.9042
16987SOL     OW54362   9.051   3.226   8.484 -0.5448 -0.4764  0.1581
16987SOL    HW154363   9.142   3.253   8.494 -0.4356 -0.4370 -0.8194
16987SOL    HW254364   9.043   3.148   8.539 -0.8939  1.4748  3.0910
16988SOL     OW54365   6.706   4.780   4.970 -0.5999  0.9672  0.1681
16988SOL    HW154366   6.780   4.721   4.986 -0.3623  0.9413 -0.9402
16988SOL    HW254367   6.720   4.854   5.029 -0.8197 -0.0031  1.4800
16989SOL     OW54368   0.593   6.832   1.711 -0.2405 -0.0265  0.2836
16989SOL    HW154369   0.551   6.750   1.686  1.4985 -0.5721 -1.0223
16989SOL    HW254370   0.684   6.809   1.728  0.5953  1.7901 -1.3352
16990SOL     OW54371   7.891   7.919   3.087 -0.1484 -0.2754 -0.2097
16990SOL    HW154372   7.875   7.927   2.993 -2.0713  3.3069  0.2566
16990SOL    HW254373   7.849   7.836   3.112 -0.3540 -0.8529 -2.3304
16991SOL     OW54374   9.256  10.771   5.418  0.2033 -0.5965  0.1489
16991SOL    HW154375   9.276  10.714   5.492  0.8758 -0.0517  0.3925
16991SOL    HW254376   9.316  10.741   5.349  0.0951 -0.6179  0.0638
16992SOL     OW54377   0.495   0.614   5.629 -0.2400  0.1038  0.4192
16992SOL    HW154378   0.439   0.668   5.684 -3.3585 -1.2558 -1.1830
16992SOL    HW254379   0.445   0.533   5.615  1.3130 -0.5141 -2.5514
16993SOL     OW54380   0.740   7.796   4.912  0.1259 -0.1682 -0.3050
16993SOL    HW154381   0.821   7.845   4.924  1.4983 -2.7608  2.0698
16993SOL    HW254382   0.671   7.857   4.938  1.6006  1.0173  0.9629
16994SOL     OW54383   4.780   1.311   6.831 -0.2747 -0.0933 -0.0661
16994SOL    HW154384   4.763   1.230   6.784  0.4296  0.1805 -0.8111
16994SOL    HW254385   4.709   1.370   6.804  0.3878  0.2251 -1.2150
16995SOL     OW54386   8.469   8.200   5.192  0.3255  0.1932  0.1653
16995SOL    HW154387   8.384   8.164   5.217  0.3270  0.0407 -0.0435
16995SOL    HW254388   8.507   8.134   5.134  0.9523 -0.1167  0.9225
16996SOL     OW54389   0.497   3.683   7.729 -0.1979  0.4624 -0.1483
16996SOL    HW154390   0.556   3.732   7.671 -0.9485 -1.0333 -2.3401
16996SOL    HW254391   0.483   3.741   7.803  2.7443  1.5262 -0.2590
16997SOL     OW54392   6.454   0.429   6.267  0.4227  0.2931 -0.5076
16997SOL    HW154393   6.498   0.454   6.349 -0.2671  0.6626 -0.2434
16997SOL    HW254394   6.436   0.512   6.224 -1.7522  0.3188  0.3035
16998SOL     OW54395   0.447   5.773   2.856  0.8158 -0.4848  0.0229
16998SOL    HW154396   0.460   5.786   2.762  0.8347  0.9826  0.2098
16998SOL    HW254397   0.507   5.834   2.897 -1.1800  0.9519  0.9494
16999SOL     OW54398   6.773   0.852   9.579 -0.4190  0.1717  0.2820
16999SOL    HW154399   6.828   0.860   9.656 -1.1581  0.0388  0.8335
16999SOL    HW254400   6.684   0.871   9.610 -0.7648 -0.1311 -0.4798
17000SOL     OW54401   6.724   6.074   4.427  0.1368  0.2428 -0.4526
17000SOL    HW154402   6.717   5.981   4.449 -1.8996  0.3470 -0.4669
17000SOL    HW254403   6.634   6.107   4.434  0.4628  1.7426 -2.5746
17001SOL     OW54404   1.195   2.976   5.741 -0.9364 -0.5811  0.4500
17001SOL    HW154405   1.206   2.902   5.801 -2.9840  0.1819  1.8837
17001SOL    HW254406   1.104   3.003   5.752 -1.1019  0.3210 -2.2343
17002SOL     OW54407  10.676   1.560   3.047  0.0454  0.1564 -0.0878
17002SOL    HW154408  10.639   1.547   3.134  0.4794  0.8778  0.2061
17002SOL    HW254409  10.601   1.585   2.993 -0.3585 -1.0162 -0.0978
17003SOL     OW54410   3.179   6.540   1.389  0.0877 -0.5220  0.1656
17003SOL    HW154411   3.191   6.445   1.391  0.9269 -0.4353 -0.1939
17003SOL    HW254412   3.223   6.569   1.309 -0.5834  0.1219  0.0130
17004SOL     OW54413   0.233   7.400   4.180  0.0470 -0.1485 -0.3475
17004SOL    HW154414   0.167   7.469   4.182 -2.1551 -2.0732 -1.5368
17004SOL    HW254415   0.187   7.321   4.207  2.3632 -1.2935  0.5948
17005SOL     OW54416   2.861   4.111   6.863  0.1104  0.1674 -0.4329
17005SOL    HW154417   2.816   4.184   6.907 -0.1488  1.1070 -2.1315
17005SOL    HW254418   2.901   4.061   6.934 -1.6421  0.6399  0.9756
17006SOL     OW54419   1.069   1.243   5.002 -0.2366 -0.2351 -0.4073
17006SOL    HW154420   1.100   1.170   5.056 -0.4458 -1.0377 -1.3317
17006SOL    HW254421   0.975   1.247   5.018 -0.0347  0.7116  0.6514
17007SOL     OW54422   0.124   1.570   4.983 -0.2484 -0.0601 -0.1318
17007SOL    HW154423   0.144   1.643   4.925  2.6229 -0.2841  0.3935
17007SOL    HW254424   0.103   1.611   5.067  2.8749  0.3012  0.5985
17008SOL     OW54425   8.874   2.086   9.930  0.2162 -0.1790 -0.1067
17008SOL    HW154426   8.932   2.016   9.901 -0.4752 -1.0823  0.6042
17008SOL    HW254427   8.796   2.077   9.875 -0.2494 -0.5757  0.6028
17009SOL     OW54428   6.768   7.134   1.503 -0.4345  0.0490  0.1817
17009SOL    HW154429   6.837   7.073   1.475 -2.0600 -2.3796  1.0795
17009SOL    HW254430   6.734   7.171   1.422 -1.3911 -2.6554 -0.7776
17010SOL     OW54431   1.198  10.624   5.303  0.4799 -0.2043 -0.6805
17010SOL    HW154432   1.161  10.536   5.288  0.3383 -0.1617 -0.5829
17010SOL    HW254433   1.288  10.607   5.329  0.1901 -0.3772  0.2714
17011SOL     OW54434   0.833   2.182   3.787  0.3800  0.0780  0.2932
17011SOL    HW154435   0.798   2.267   3.814 -0.8278 -0.5356  0.7656
17011SOL    HW254436   0.839   2.132   3.868  0.2751 -0.5578 -0.0847
17012SOL     OW54437   8.894   4.065   1.515 -0.0586  0.4728  0.0670
17012SOL    HW154438   8.919   3.981   1.478  2.5404  0.4215  1.6991
17012SOL    HW254439   8.928   4.129   1.452 -1.2357  0.3869 -0.7081
17013SOL     OW54440   8.638   8.244   8.145  0.2857 -0.2453 -0.3291
17013SOL    HW154441   8.717   8.199   8.176 -1.5048 -0.9353  3.8108
17013SOL    HW254442   8.650   8.335   8.170  1.0892  0.4257 -2.8248
17014SOL     OW54443   0.668   9.163   6.706  0.3885 -0.7019 -0.3631
17014SOL    HW154444   0.630   9.237   6.659  1.7565  0.0303 -0.3773
17014SOL    HW254445   0.761   9.167   6.685  0.6266 -1.8858  0.3840
17015SOL     OW54446   5.828   2.947   2.269 -0.1570 -0.4030  0.2668
17015SOL    HW154447   5.845   3.007   2.197 -0.5041  0.1468  0.6346
17015SOL    HW254448   5.763   2.993   2.323 -1.3493 -1.6023 -0.0876
17016SOL     OW54449   8.328   0.227   5.697  0.4822 -0.2861 -0.1462
17016SOL    HW154450   8.416   0.198   5.721  0.5935 -0.4477 -0.7291
17016SOL    HW254451   8.281   0.232   5.780  1.5279  1.4792  0.4029
17017SOL     OW54452   4.493   1.525   7.688 -0.0198  0.5815 -0.1098
17017SOL    HW154453   4.471   1.541   7.596  2.4674 -0.0934 -0.8782
17017SOL    HW254454   4.443   1.446   7.711 -1.5351  1.3839 -0.4849
17018SOL     OW54455   3.892   8.424   5.258  0.4164  0.1759  0.6420
17018SOL    HW154456   3.924   8.511   5.235 -0.7301  0.5686  0.4556
17018SOL    HW254457   3.908   8.370   5.180 -1.3178  0.9103 -0.2675
17019SOL     OW54458   8.443   4.034   1.952 -0.3641  0.3125 -0.1674
17019SOL    HW154459   8.495   4.053   2.030 -1.1241  1.3253  0.1156
17019SOL    HW254460   8.394   4.115   1.936 -2.2453 -0.7800 -0.1359
17020SOL     OW54461   9.238   1.292  10.710  0.6020 -0.2887 -0.3486
17020SOL    HW154462   9.252   1.385  10.691 -1.1755  0.1262  0.2334
17020SOL    HW254463   9.225   1.252  10.624  3.3908 -0.4373 -0.8027
17021SOL     OW54464   9.454   5.616   9.691 -0.3891 -0.3578  0.4981
17021SOL    HW154465   9.467   5.695   9.744  2.0475 -0.4578  0.1322
17021SOL    HW254466   9.389   5.642   9.625  1.2180  1.7455 -0.3476
17022SOL     OW54467  10.052   0.764   5.138 -0.5732 -0.0402  0.2807
17022SOL    HW154468   9.963   0.796   5.155 -0.8452 -0.4047 -0.4263
17022SOL    HW254469  10.059   0.683   5.189  0.0208  0.9577  1.8546
17023SOL     OW54470   6.022   2.074   8.835  0.0795  0.4206  0.8210
17023SOL    HW154471   5.992   2.123   8.912 -1.7577 -1.3116  1.2918
17023SOL    HW254472   6.016   1.982   8.861  1.3080 -0.1582 -0.7667
17024SOL     OW54473   7.334   4.420   4.260 -0.0102  0.3007 -0.0454
17024SOL    HW154474   7.356   4.452   4.172 -1.2075  1.0289 -0.1040
17024SOL    HW254475   7.246   4.453   4.275 -0.6055 -1.5251  0.6297
17025SOL     OW54476   6.231   6.712   5.155 -0.1127  0.6168 -0.0824
17025SOL    HW154477   6.184   6.639   5.197 -0.7674  1.6720  1.0762
17025SOL    HW254478   6.256   6.677   5.069 -4.1958  0.3548 -1.4108
17026SOL     OW54479   0.028   0.860   8.591  0.3075  0.3236 -0.9551
17026SOL    HW154480  -0.012   0.774   8.583 -0.0266  0.3859 -0.0976
17026SOL    HW254481   0.108   0.846   8.640 -0.6374  0.7088  0.8039
17027SOL     OW54482  10.222   8.993   3.495 -0.3855 -0.2592 -0.0621
17027SOL    HW154483  10.286   9.065   3.496  0.3853 -0.9284  0.3401
17027SOL    HW254484  10.235   8.949   3.579 -0.7236 -0.9723 -0.3791
17028SOL     OW54485   4.519   0.416   6.369 -0.1180 -0.7260  0.1718
17028SOL    HW154486   4.567   0.443   6.447  0.8459 -1.2838 -0.2279
17028SOL    HW254487   4.557   0.469   6.299  0.4124 -1.6831 -0.2683
17029SOL     OW54488   4.833   7.692  10.352  0.0978 -0.2816 -0.0351
17029SOL    HW154489   4.859   7.734  10.270  1.1831 -0.8545 -0.0063
17029SOL    HW254490   4.783   7.615  10.324 -0.8969  0.3773 -0.1103
17030SOL     OW54491   8.683   2.816   7.267  0.2799 -0.2643 -0.1633
17030SOL    HW154492   8.669   2.893   7.212  0.3449  0.0927  0.3111
17030SOL    HW254493   8.756   2.770   7.226  0.8870  0.4520  0.1071
17031SOL     OW54494   7.269   0.797   6.609  0.1238  0.2550 -0.4438
17031SOL    HW154495   7.193   0.830   6.562  0.7630  1.8781 -0.4238
17031SOL    HW254496   7.344   0.838   6.566  0.9458 -0.6886  0.0311
17032SOL     OW54497   6.201   8.632   2.532  0.1015  0.3637  0.2458
17032SOL    HW154498   6.162   8.693   2.470  0.4387  0.8035  0.4614
17032SOL    HW254499   6.159   8.548   2.514 -1.0010  0.8425  0.5306
17033SOL     OW54500   1.762   0.363   4.616 -0.1986 -0.0119  0.3089
17033SOL    HW154501   1.830   0.363   4.549 -1.2905 -0.4199 -0.8505
17033SOL    HW254502   1.804   0.398   4.694  1.4785 -0.7967 -0.2118
17034SOL     OW54503   9.171   5.764   5.378 -0.2377 -0.1577  0.7758
17034SOL    HW154504   9.108   5.730   5.314  0.5621  1.0503 -0.7325
17034SOL    HW254505   9.130   5.749   5.463 -1.0290 -2.4798  0.0573
17035SOL     OW54506   5.198   6.290  10.495 -0.8122 -0.1292  0.9087
17035SOL    HW154507   5.245   6.209  10.474  1.9437  0.9750  2.2163
17035SOL    HW254508   5.180   6.330  10.410  0.0267 -0.9424  0.3243
17036SOL     OW54509   8.040   7.465   0.760  0.4725  0.2818 -0.2183
17036SOL    HW154510   7.962   7.442   0.710 -0.4080  1.7144  0.4272
17036SOL    HW254511   8.110   7.413   0.721 -0.3423  0.6587 -2.3225
17037SOL     OW54512  10.196   8.604   1.986  0.5729 -0.1899 -0.2689
17037SOL    HW154513  10.165   8.644   1.905  0.5922 -1.1981 -0.7987
17037SOL    HW254514  10.117   8.593   2.039  0.2777 -1.0817 -0.8664
17038SOL     OW54515   9.259   9.385   4.826  0.3584 -0.1010  0.6105
17038SOL    HW154516   9.244   9.371   4.920  1.7261 -1.8131  0.6122
17038SOL    HW254517   9.248   9.299   4.786 -1.1606  0.7683 -0.9982
17039SOL     OW54518   2.215   5.515   3.041 -0.1372  0.6322 -0.0660
17039SOL    HW154519   2.125   5.484   3.054  0.1839  0.4235  1.9668
17039SOL    HW254520   2.264   5.436   3.018  0.0299  0.1965  1.6725
17040SOL     OW54521  10.064   5.484   3.110  0.2056  0.0293 -0.1732
17040SOL    HW154522  10.056   5.465   3.016 -0.2257  4.4045 -1.2828
17040SOL    HW254523   9.974   5.489   3.142  0.3149 -0.2359  0.1834
17041SOL     OW54524   5.705   7.708  10.289 -0.2142  0.0461  0.0532
17041SOL    HW154525   5.731   7.797  10.315  1.0023 -0.1255 -0.5151
17041SOL    HW254526   5.766   7.652  10.337  0.8317 -0.3539 -1.6902
17042SOL     OW54527   9.681   6.600   9.381 -0.2102 -0.4013  0.4296
17042SOL    HW154528   9.611   6.645   9.428 -0.5992 -1.0553  0.4909
17042SOL    HW254529   9.757   6.606   9.439 -0.7627 -1.4588  1.3005
17043SOL     OW54530   9.807   8.270   5.113 -0.2282  0.6737 -0.5913
17043SOL    HW154531   9.750   8.194   5.104  2.1472 -1.0366 -2.3431
17043SOL    HW254532   9.835   8.268   5.204  0.4305 -1.0843 -0.7925
17044SOL     OW54533   6.826   5.529   8.607  0.0080  0.4654 -0.4321
17044SOL    HW154534   6.850   5.445   8.646  1.7858  1.3425  0.5507
17044SOL    HW254535   6.788   5.579   8.679 -1.8699  0.2388 -1.2190
17045SOL     OW54536   5.325   7.373   3.427 -0.5803  0.5706  0.1593
17045SOL    HW154537   5.256   7.308   3.417 -0.4411  0.6696 -1.8071
17045SOL    HW254538   5.376   7.367   3.346  1.2556  1.0515  1.2059
17046SOL     OW54539   9.227   8.104   3.784 -0.5146 -0.1463  0.2000
17046SOL    HW154540   9.151   8.046   3.778 -0.4922 -0.4434  2.0708
17046SOL    HW254541   9.289   8.057   3.840 -0.0784  1.2362  0.9355
17047SOL     OW54542   8.018   7.677   8.841 -0.1096  0.1655  0.7384
17047SOL    HW154543   8.072   7.602   8.864  1.5659  0.3538 -2.0155
17047SOL    HW254544   7.930   7.642   8.833  0.5589 -1.4484 -0.0344
17048SOL     OW54545   5.943   2.155   9.989 -0.7303 -0.3983  0.0659
17048SOL    HW154546   5.858   2.175   9.950 -1.0569 -1.2715  0.2866
17048SOL    HW254547   6.001   2.140   9.914 -0.5076  1.1451 -0.0970
17049SOL     OW54548   5.761   1.563   0.224  0.6194  0.0754 -0.4734
17049SOL    HW154549   5.848   1.595   0.201  0.5911 -0.5549 -1.5837
17049SOL    HW254550   5.714   1.563   0.141 -0.2631 -0.1201  0.0187
17050SOL     OW54551   4.005   9.214   0.329  0.1344  0.1538 -0.0618
17050SOL    HW154552   4.032   9.217   0.420 -0.8096  3.0660  0.2132
17050SOL    HW254553   4.087   9.217   0.279  0.5961  0.9778  0.7213
17051SOL     OW54554   9.738   6.133   9.914 -0.1578 -0.6240 -0.3023
17051SOL    HW154555   9.733   6.156   9.821  1.8450  0.3417 -0.2269
17051SOL    HW254556   9.809   6.069   9.919 -0.5674 -1.0206  0.5136
17052SOL     OW54557  10.540   6.041   4.172 -0.1672 -0.1679 -0.5121
17052SOL    HW154558  10.507   6.129   4.153 -0.2915 -0.2696 -0.7643
17052SOL    HW254559  10.558   6.042   4.266  2.6590  1.0984 -0.9435
17053SOL     OW54560   9.642   8.942   5.803  0.3795  0.0108 -0.2761
17053SOL    HW154561   9.616   9.010   5.866 -0.2348 -0.1536 -0.3450
17053SOL    HW254562   9.591   8.963   5.724  0.1382 -0.5692 -0.2747
17054SOL     OW54563   0.581   5.538   0.070  1.1919  0.4676 -0.0191
17054SOL    HW154564   0.671   5.524   0.043  1.8685  0.5498  1.9982
17054SOL    HW254565   0.587   5.558   0.163 -0.7265  2.7486 -0.2948
17055SOL     OW54566   5.017   5.489   6.302  0.9723 -0.0688 -0.1155
17055SOL    HW154567   5.106   5.454   6.296  0.2141 -1.9494 -1.6395
17055SOL    HW254568   4.965   5.416   6.336 -0.3294  0.2464 -1.3375
17056SOL     OW54569   1.304   7.204   1.334  0.4889  0.0602 -0.5081
17056SOL    HW154570   1.353   7.181   1.413  0.7790 -0.4087 -0.8187
17056SOL    HW254571   1.218   7.231   1.367  0.0302 -1.7347 -0.1232
17057SOL     OW54572   8.609   3.018   2.848  0.1852 -0.1392 -0.1307
17057SOL    HW154573   8.552   2.942   2.842  1.3758 -0.9318 -2.2923
17057SOL    HW254574   8.603   3.061   2.763 -1.1250  2.7811  1.2755
17058SOL     OW54575   4.078   2.572   4.129 -0.2284  0.3613 -1.2691
17058SOL    HW154576   4.161   2.529   4.107  1.2240  1.0965  2.1140
17058SOL    HW254577   4.030   2.507   4.181 -0.9910  0.5667 -1.7013
17059SOL     OW54578   5.242   2.635   0.043  0.7058  0.6481 -0.4913
17059SOL    HW154579   5.173   2.678   0.093  0.4851  1.1034 -1.1769
17059SOL    HW254580   5.323   2.678   0.071  0.6639  0.4266 -0.0248
17060SOL     OW54581   0.138   3.919   5.000  0.0254  0.3938  0.1124
17060SOL    HW154582   0.177   3.910   4.912  0.2415  1.3195  0.0995
17060SOL    HW254583   0.054   3.873   4.994  0.3276 -0.1121 -0.3843
17061SOL     OW54584   1.967   7.811   5.118 -0.4105 -0.5186  0.4487
17061SOL    HW154585   1.985   7.719   5.103 -0.8969 -0.5564  0.0757
17061SOL    HW254586   1.901   7.834   5.053  0.0030  0.1990  0.2669
17062SOL     OW54587  10.241   8.041   6.325 -0.1298  0.1181 -0.3636
17062SOL    HW154588  10.200   8.063   6.241  1.1095  0.7200 -0.8337
17062SOL    HW254589  10.262   7.948   6.317  0.3290  0.2571 -0.8932
17063SOL     OW54590   2.508   8.188   8.113 -0.2210 -0.5829 -0.2335
17063SOL    HW154591   2.562   8.266   8.098  0.3703 -1.1244 -1.0232
17063SOL    HW254592   2.435   8.197   8.051 -2.7528  1.5796  2.7137
17064SOL     OW54593   8.432   1.459   4.966 -0.1147 -0.1972 -0.6561
17064SOL    HW154594   8.444   1.411   5.048  0.2018 -1.1779 -1.2564
17064SOL    HW254595   8.474   1.404   4.900  1.5420  1.5722 -1.1890
17065SOL     OW54596   9.549   0.478   2.412 -0.5543 -0.6985  0.1167
17065SOL    HW154597   9.512   0.419   2.347 -0.1692 -0.6764 -0.1260
17065SOL    HW254598   9.523   0.440   2.496  0.9382 -2.0715  0.0143
17066SOL     OW54599   8.418   3.292   7.005 -0.3108  0.0098  0.5738
17066SOL    HW154600   8.456   3.360   7.061  0.8793  1.2913 -1.6659
17066SOL    HW254601   8.353   3.338   6.952 -0.7458 -0.9831  0.2176
17067SOL     OW54602   3.365   2.725   1.743  0.2495  0.0544  0.2825
17067SOL    HW154603   3.275   2.708   1.771  0.0995  1.4769  0.7326
17067SOL    HW254604   3.359   2.736   1.648  0.3504 -2.2247 -0.0301
17068SOL     OW54605   7.251   6.652   0.754  0.0456  0.8214 -0.1754
17068SOL    HW154606   7.242   6.747   0.757 -2.3971  0.6710 -0.7090
17068SOL    HW254607   7.233   6.628   0.663 -0.7980 -0.2449  0.2458
17069SOL     OW54608   8.821   9.337   1.552 -0.0411  0.1416  0.2073
17069SOL    HW154609   8.779   9.250   1.556 -1.3977  0.7456 -0.2701
17069SOL    HW254610   8.826   9.364   1.644  4.2281 -2.1137  0.8828
17070SOL     OW54611   9.547   1.669   1.090 -0.0391  0.1532 -0.2118
17070SOL    HW154612   9.460   1.693   1.121  0.4458 -0.0064  1.3332
17070SOL    HW254613   9.604   1.739   1.121  0.6599 -0.6355  0.3153
17071SOL     OW54614   3.497   3.150   6.262  0.3773  0.3464  0.1690
17071SOL    HW154615   3.513   3.207   6.187  1.0446  0.2911  0.2691
17071SOL    HW254616   3.464   3.209   6.330  2.5252  0.9174  0.7956
17072SOL     OW54617   5.372   2.885  10.281 -0.3373  0.5006 -0.2387
17072SOL    HW154618   5.300   2.873  10.219 -0.8614 -1.5359  0.6627
17072SOL    HW254619   5.451   2.872  10.229 -0.6631  1.2387 -0.9405
17073SOL     OW54620   2.330   4.960   2.990  0.3023  0.4289  0.4294
17073SOL    HW154621   2.405   4.949   2.932 -0.0517  1.1891 -0.1832
17073SOL    HW254622   2.359   4.923   3.074  0.8374 -0.6244 -0.1971
17074SOL     OW54623   5.226   6.887   2.785  0.2788  0.0313 -0.3302
17074SOL    HW154624   5.266   6.806   2.752 -0.7673 -1.4163  1.7237
17074SOL    HW254625   5.200   6.866   2.874 -1.1850  2.2650 -0.1527
17075SOL     OW54626   5.898   3.433   4.695  0.0402  0.1463 -0.2750
17075SOL    HW154627   5.806   3.461   4.695 -0.1575 -0.4683 -0.4762
17075SOL    HW254628   5.931   3.459   4.781  0.3581  2.4815 -1.0343
17076SOL     OW54629   1.970   5.658   5.372  0.3012  0.2814  0.6496
17076SOL    HW154630   1.891   5.663   5.318  0.0222 -2.1533  0.7113
17076SOL    HW254631   2.042   5.668   5.310  0.2061 -6.6262 -1.4126
17077SOL     OW54632   6.910   3.415   8.060  0.2687  0.4819 -0.1961
17077SOL    HW154633   6.970   3.471   8.010 -0.4200  0.6853 -0.8127
17077SOL    HW254634   6.966   3.369   8.122  1.3005 -0.5053 -1.7955
17078SOL     OW54635   3.446   0.340   9.692  0.4491  0.0842 -0.8005
17078SOL    HW154636   3.451   0.255   9.649  0.6691  0.1939 -0.9916
17078SOL    HW254637   3.386   0.327   9.765 -0.8965  0.1962 -1.8518
17079SOL     OW54638   4.810   5.774   5.610 -0.1290 -0.5759  0.1609
17079SOL    HW154639   4.782   5.695   5.655  0.7763 -1.6796 -1.1310
17079SOL    HW254640   4.730   5.825   5.599 -1.3468 -2.7192 -1.6925
17080SOL     OW54641   7.790   2.331   8.996 -0.1911 -0.3104 -0.1096
17080SOL    HW154642   7.838   2.249   8.985  2.9804  1.4363 -0.5470
17080SOL    HW254643   7.849   2.398   8.961 -0.8992  2.6312  3.6409
17081SOL     OW54644   6.412   5.867  10.284  0.1958  0.0242  0.2832
17081SOL    HW154645   6.348   5.803  10.253 -0.5988  1.2943 -0.7891
17081SOL    HW254646   6.478   5.871  10.216 -1.5792  2.8534 -1.4823
17082SOL     OW54647   4.335   4.427   0.336  1.2408 -0.3137  0.3225
17082SOL    HW154648   4.377   4.454   0.255  0.4436  1.5303  0.4570
17082SOL    HW254649   4.242   4.419   0.314  1.0795 -0.2322  0.9315
17083SOL     OW54650   8.569   0.601   6.801 -0.4904  0.0988 -1.0891
17083SOL    HW154651   8.562   0.696   6.789  0.6709  0.2601 -0.6298
17083SOL    HW254652   8.515   0.582   6.878  1.9740  0.9421  0.9817
17084SOL     OW54653   3.103   2.635  10.201 -0.4241 -0.6465  0.4738
17084SOL    HW154654   3.048   2.667  10.272 -1.9170 -0.5578 -0.6789
17084SOL    HW254655   3.049   2.644  10.122  2.4072  2.7569 -1.3450
17085SOL     OW54656   5.111   3.729   6.397  0.1896 -0.4874 -0.5968
17085SOL    HW154657   5.059   3.689   6.328 -2.0460 -1.3534  1.4575
17085SOL    HW254658   5.091   3.822   6.391 -1.0505 -0.7207 -0.3070
17086SOL     OW54659   7.827   1.673   0.138 -0.2837 -0.2303  0.2334
17086SOL    HW154660   7.870   1.726   0.071  1.0432 -1.6184 -0.0688
17086SOL    HW254661   7.734   1.690   0.126  0.0955  2.7451  0.7766
17087SOL     OW54662   4.827   7.504   8.665  0.1956  0.0235  0.6493
17087SOL    HW154663   4.871   7.557   8.732 -1.5766  0.9474  1.1263
17087SOL    HW254664   4.794   7.567   8.602  1.3392 -0.8093 -0.8560
17088SOL     OW54665   4.859   4.373   8.320 -0.4615 -0.1477  0.2149
17088SOL    HW154666   4.904   4.335   8.395  0.8773  1.7885  0.4457
17088SOL    HW254667   4.862   4.304   8.253 -1.0528 -1.6401  1.6474
17089SOL     OW54668   1.446  10.598   9.958  0.0818 -0.8302 -0.2213
17089SOL    HW154669   1.418  10.690   9.957  0.6847 -0.6323 -1.6491
17089SOL    HW254670   1.445  10.574  10.050  2.7121  1.4806  0.5461
17090SOL     OW54671   4.194   4.673   4.484  0.1926  0.0441 -0.1956
17090SOL    HW154672   4.167   4.764   4.473  0.2096  0.1253  0.4298
17090SOL    HW254673   4.269   4.663   4.425 -1.1328 -0.1702 -1.9228
17091SOL     OW54674   5.903   2.246   2.186  0.3798 -0.3329 -0.0494
17091SOL    HW154675   5.945   2.235   2.101 -0.5429 -1.5031 -0.3876
17091SOL    HW254676   5.975   2.266   2.246  1.5750 -2.8850 -0.4752
17092SOL     OW54677   7.159   1.822   6.702 -0.0275 -0.2955  0.3570
17092SOL    HW154678   7.115   1.775   6.773 -0.6491  0.1633  0.2848
17092SOL    HW254679   7.230   1.764   6.674  0.4205 -0.3578  1.5585
17093SOL     OW54680   1.598   6.993   2.514  0.0213  0.4342  0.4258
17093SOL    HW154681   1.588   6.899   2.533  0.0523  0.4475  0.5059
17093SOL    HW254682   1.534   7.035   2.571 -1.2467  0.3362 -0.8383
17094SOL     OW54683   5.021   7.216   9.444 -0.6313  0.0946 -0.4943
17094SOL    HW154684   4.943   7.265   9.418 -0.7917 -0.4701 -1.1118
17094SOL    HW254685   5.083   7.231   9.372 -0.6035 -0.4245 -0.5797
17095SOL     OW54686   1.481   3.887   1.383  0.0647 -0.8654 -0.0398
17095SOL    HW154687   1.536   3.965   1.372 -0.3302 -0.6944 -0.8277
17095SOL    HW254688   1.401   3.920   1.424 -0.0687 -0.8752 -0.2961
17096SOL     OW54689   4.817   4.302   6.682  0.4317  0.2429 -0.0502
17096SOL    HW154690   4.903   4.342   6.690 -0.1563  1.3120  1.2232
17096SOL    HW254691   4.763   4.347   6.747 -1.4054  0.4629 -1.6385
17097SOL     OW54692   9.820   3.443   6.411  0.3295 -0.1763 -0.4085
17097SOL    HW154693   9.886   3.380   6.382  0.7668  0.1126 -0.0564
17097SOL    HW254694   9.738   3.394   6.408  0.9653 -1.5905  2.2667
17098SOL     OW54695   4.039   1.061   8.215 -0.3765 -0.0117  0.0017
17098SOL    HW154696   3.964   1.039   8.160 -0.5826 -0.9083  0.6294
17098SOL    HW254697   4.100   0.988   8.204  0.5197  0.7905 -0.6498
17099SOL     OW54698   7.199   7.763   3.866 -0.2151  0.7572 -0.2181
17099SOL    HW154699   7.154   7.728   3.789 -0.7298  1.1360 -0.0943
17099SOL    HW254700   7.140   7.744   3.939 -0.1525  1.2026 -0.0446
17100SOL     OW54701   6.127   4.730  10.772  0.2983  0.1270 -0.2241
17100SOL    HW154702   6.162   4.641  10.782 -1.9925 -0.9624 -0.9440
17100SOL    HW254703   6.102   4.756  10.861  0.2535 -0.2816 -0.1143
17101SOL     OW54704  10.129   6.695   6.343 -0.4839  0.7254  0.1239
17101SOL    HW154705  10.143   6.700   6.248 -0.9015  0.7870  0.0630
17101SOL    HW254706  10.035   6.686   6.352 -0.4454  0.7529  0.5387
17102SOL     OW54707   9.391  10.001   5.917  0.1682  0.4768 -0.2633
17102SOL    HW154708   9.322  10.043   5.968 -0.2115  1.5396 -1.6182
17102SOL    HW254709   9.471  10.016   5.968 -0.1977  1.4892  0.0271
17103SOL     OW54710   1.275   1.521   8.039 -0.3352  0.1875  0.1144
17103SOL    HW154711   1.353   1.572   8.015  0.6120  0.1863  2.8445
17103SOL    HW254712   1.284   1.507   8.133 -1.4983 -3.4673 -0.1760
17104SOL     OW54713   1.710   6.419   5.240  0.2330 -0.3018 -0.0392
17104SOL    HW154714   1.726   6.513   5.247  0.2061 -0.3532  0.7109
17104SOL    HW254715   1.766   6.379   5.306 -0.5015 -0.7340  0.3365
17105SOL     OW54716   8.314   4.597   2.555 -0.3124 -0.8974  0.0755
17105SOL    HW154717   8.278   4.564   2.473 -1.3789 -1.8564  0.8832
17105SOL    HW254718   8.349   4.519   2.599  1.7052 -0.1716 -0.1288
17106SOL     OW54719   5.397   6.545  10.639 -0.4276 -0.5793  0.3318
17106SOL    HW154720   5.372   6.638  10.636  0.2762 -0.3656  0.9674
17106SOL    HW254721   5.339   6.504  10.575 -1.8666  0.0289  1.1901
17107SOL     OW54722   5.518   1.352   0.680 -0.6914  0.2683 -0.2008
17107SOL    HW154723   5.449   1.360   0.747  0.4332 -1.1310  1.1995
17107SOL    HW254724   5.504   1.427   0.622 -1.2295  2.0391  2.0708
17108SOL     OW54725   9.606   4.793   3.363  0.3088 -0.4397  0.1249
17108SOL    HW154726   9.618   4.739   3.284  1.2989 -0.5602  0.3474
17108SOL    HW254727   9.635   4.880   3.336  1.1567 -0.6000  0.5040
17109SOL     OW54728  10.404   0.184  10.033 -0.2369  0.4804  0.2337
17109SOL    HW154729  10.421   0.104   9.983 -0.7181 -0.3782  1.4241
17109SOL    HW254730  10.309   0.195  10.029 -0.7195 -1.3345  3.4580
17110SOL     OW54731   0.747   6.530   6.392  0.3420  0.0151  0.0974
17110SOL    HW154732   0.739   6.436   6.374 -3.3557  0.2556 -0.3445
17110SOL    HW254733   0.805   6.563   6.323 -0.4792 -1.5745 -1.4348
17111SOL     OW54734   3.315   9.141   7.116  1.1427 -0.0483 -0.0581
17111SOL    HW154735   3.375   9.212   7.094  0.8010  0.5166  0.8066
17111SOL    HW254736   3.265   9.173   7.191  1.4979 -1.4705  0.8331
17112SOL     OW54737   6.383   1.370   3.432  0.1701  0.4469  0.1683
17112SOL    HW154738   6.402   1.329   3.516  1.8387 -0.0504 -0.4327
17112SOL    HW254739   6.395   1.464   3.449  1.4403  0.2760  0.2522
17113SOL     OW54740   9.008   7.662   0.440 -0.0552 -0.7056  0.4398
17113SOL    HW154741   9.078   7.687   0.500 -0.2271 -0.8142  0.6864
17113SOL    HW254742   9.021   7.568   0.426 -0.3074 -0.7797  0.6922
17114SOL     OW54743   6.514   2.109   3.855 -0.5491 -0.6208  0.3181
17114SOL    HW154744   6.559   2.126   3.938 -1.0083 -0.0500  0.4596
17114SOL    HW254745   6.438   2.168   3.857 -0.7547 -0.8575 -0.3525
17115SOL     OW54746   6.089   5.049   5.012 -0.2985 -0.3976 -0.2161
17115SOL    HW154747   6.152   5.001   5.067  1.3125  0.4235 -1.2694
17115SOL    HW254748   6.059   4.984   4.949  0.0259 -0.6329 -0.1337
17116SOL     OW54749   9.063   9.430   6.496 -0.2569 -0.3305 -0.4461
17116SOL    HW154750   9.100   9.343   6.512 -0.0410  0.0217  1.1293
17116SOL    HW254751   9.122   9.490   6.541 -1.7502  0.4010  0.6276
17117SOL     OW54752   7.695   6.007   6.168 -0.7081 -0.0912 -0.3630
17117SOL    HW154753   7.633   5.958   6.114 -3.3491  2.0983  0.4305
17117SOL    HW254754   7.731   6.073   6.109  0.2497 -0.7916 -0.5932
17118SOL     OW54755   8.756   9.581   2.879 -0.2712 -0.4085 -0.0577
17118SOL    HW154756   8.681   9.549   2.829  0.5200 -0.6783 -1.1181
17118SOL    HW254757   8.747   9.676   2.879 -0.0630 -0.3819 -1.0889
17119SOL     OW54758   0.992   1.691   1.972  0.1476 -0.3968 -0.4643
17119SOL    HW154759   0.976   1.699   2.066 -0.5407 -0.5004 -0.5674
17119SOL    HW254760   1.038   1.772   1.949  1.0168 -0.7106  0.0914
17120SOL     OW54761   2.206   2.794   2.569 -0.2869 -0.4728 -0.2591
17120SOL    HW154762   2.211   2.888   2.584 -1.0873 -0.5752  0.7565
17120SOL    HW254763   2.179   2.758   2.653 -1.2935 -1.4829 -0.9972
17121SOL     OW54764   2.958   9.100   0.966  0.1894  0.1969  0.0477
17121SOL    HW154765   2.966   9.192   0.990 -1.3109  0.5263 -0.6308
17121SOL    HW254766   3.043   9.078   0.926  1.7078  0.3757  2.9642
17122SOL     OW54767  10.229   4.668   1.353  0.5156 -0.5964  0.8776
17122SOL    HW154768  10.186   4.583   1.364  0.0812 -0.6781 -1.1197
17122SOL    HW254769  10.266   4.665   1.265  1.1943  0.9942  1.0748
17123SOL     OW54770   9.194   3.833   8.106 -0.2131  0.6603 -0.2824
17123SOL    HW154771   9.279   3.793   8.124  0.8233  2.7446 -0.2121
17123SOL    HW254772   9.149   3.771   8.049  0.6849 -1.2337  0.9809
17124SOL     OW54773  10.652  10.232   2.641 -0.1193 -0.4256  0.1958
17124SOL    HW154774  10.594  10.289   2.591  0.8695  0.7698  0.3495
17124SOL    HW254775  10.602  10.208   2.719 -0.0552  1.4823  0.8790
17125SOL     OW54776   9.029   6.924   6.710 -0.4604  0.0750 -0.0969
17125SOL    HW154777   9.073   6.957   6.632 -1.3404  1.2599 -0.1057
17125SOL    HW254778   8.937   6.945   6.697 -0.4798  1.4142  1.7818
17126SOL     OW54779  10.340   9.282   8.729 -1.0058  0.4290 -0.1952
17126SOL    HW154780  10.379   9.330   8.802  0.2228 -0.3113 -0.3169
17126SOL    HW254781  10.346   9.190   8.756 -0.8521  0.1733 -1.0788
17127SOL     OW54782  10.851   9.264   2.949 -0.1759  0.4821  0.1675
17127SOL    HW154783  10.813   9.207   3.016 -1.4963 -0.5894 -1.3938
17127SOL    HW254784  10.945   9.260   2.963 -0.2108 -2.2268  0.0569
17128SOL     OW54785  10.020   3.227   3.931 -0.3333  0.3462 -0.5475
17128SOL    HW154786  10.034   3.317   3.960 -0.0306  0.0394  0.2755
17128SOL    HW254787   9.927   3.211   3.946  0.0773 -0.2677  1.6414
17129SOL     OW54788   4.822   5.060   9.813  0.1549 -0.2872  0.0725
17129SOL    HW154789   4.888   5.121   9.780  1.4605 -2.2014 -1.0768
17129SOL    HW254790   4.743   5.113   9.821  0.6676  1.1371 -2.8592
17130SOL     OW54791   7.975   5.768   2.170 -0.0005 -0.1568 -0.4390
17130SOL    HW154792   7.885   5.750   2.143  0.1006  0.5700 -1.2846
17130SOL    HW254793   8.007   5.684   2.202 -1.0824 -0.3577  0.1987
17131SOL     OW54794   3.664   7.830   7.023  0.2470 -0.4295  0.0316
17131SOL    HW154795   3.699   7.917   7.042 -2.6526  1.1867 -1.1733
17131SOL    HW254796   3.597   7.816   7.090  1.5985 -2.4366  1.0407
17132SOL     OW54797   3.182   2.503   6.344  0.1719 -0.0727 -0.4144
17132SOL    HW154798   3.175   2.548   6.260 -1.2064 -1.3491 -1.0495
17132SOL    HW254799   3.106   2.533   6.394  1.6871  1.6959  0.9651
17133SOL     OW54800  10.332   0.225  10.658  0.5144 -0.0284 -0.6065
17133SOL    HW154801  10.257   0.273  10.622  1.9246  1.8527 -1.1762
17133SOL    HW254802  10.399   0.292  10.670  1.8984 -1.5620  0.4954
17134SOL     OW54803   3.453   0.036   6.684 -0.1654 -0.4894 -0.0836
17134SOL    HW154804   3.368   0.052   6.724  0.3877 -0.6106  1.2149
17134SOL    HW254805   3.509   0.009   6.757  0.9205 -0.6726 -0.9471
17135SOL     OW54806   5.179   7.295   2.066  0.1157 -0.4369 -0.2356
17135SOL    HW154807   5.088   7.268   2.077  0.2687 -0.3616  1.6971
17135SOL    HW254808   5.174   7.376   2.014 -0.9434 -0.3129  0.0273
17136SOL     OW54809  10.357   0.594  10.751  0.2370  0.4924 -0.5639
17136SOL    HW154810  10.445   0.621  10.779  0.5175 -0.7954 -0.1672
17136SOL    HW254811  10.298   0.639  10.812  0.6183  1.1587 -0.6674
17137SOL     OW54812   6.937   7.258   5.048  0.2529  0.3170  0.0452
17137SOL    HW154813   6.947   7.352   5.062 -1.0634  0.3028  1.4335
17137SOL    HW254814   6.969   7.242   4.959  1.8713  1.8181  0.3081
17138SOL     OW54815   8.343   1.894   8.229 -0.2571  0.1842 -0.0361
17138SOL    HW154816   8.306   1.919   8.313 -0.1937 -1.2796  0.4581
17138SOL    HW254817   8.436   1.880   8.246 -0.2262 -0.0295 -0.3646
17139SOL     OW54818   6.101   3.867   8.962  0.1461 -0.2418 -0.1199
17139SOL    HW154819   6.024   3.821   8.930  1.1738 -2.5740  0.5991
17139SOL    HW254820   6.137   3.811   9.030  0.3240  2.6140  2.3837
17140SOL     OW54821  10.455   1.101   9.796 -0.1581  0.2786 -0.3387
17140SOL    HW154822  10.375   1.112   9.745 -0.9795 -2.4118  0.2022
17140SOL    HW254823  10.488   1.015   9.770  1.4864  0.4839  0.9096
17141SOL     OW54824   4.858   8.853   0.441  0.3753  0.4754  0.2949
17141SOL    HW154825   4.951   8.827   0.443  0.1894 -0.1520  0.9285
17141SOL    HW254826   4.812   8.773   0.416 -0.1585  0.3015  1.7818
17142SOL     OW54827   9.518   6.350   1.068  0.2319 -0.7411 -0.5475
17142SOL    HW154828   9.566   6.430   1.091 -0.9112  0.0230 -0.7558
17142SOL    HW254829   9.426   6.377   1.064 -0.0695 -1.8304 -1.6381
17143SOL     OW54830   4.052   0.807   7.450  0.0320  0.3480 -0.8266
17143SOL    HW154831   4.032   0.714   7.458  0.3121  0.2770 -0.9206
17143SOL    HW254832   4.113   0.811   7.376  1.6257  0.3619  0.4218
17144SOL     OW54833   1.629   7.964  10.071 -0.1316 -0.1906 -0.4148
17144SOL    HW154834   1.623   7.870  10.083  1.2371 -0.5832 -2.3417
17144SOL    HW254835   1.570   7.983   9.997  0.4798  0.2655 -0.7965
17145SOL     OW54836   5.113   2.017   0.585  0.4285  0.0412 -0.2262
17145SOL    HW154837   5.052   1.948   0.562  1.1558 -0.2042 -1.4903
17145SOL    HW254838   5.065   2.099   0.568 -0.0804 -0.1319  0.3215
17146SOL     OW54839   4.269   4.045   9.759 -0.2584  0.0643 -0.2430
17146SOL    HW154840   4.250   4.067   9.850  0.0380 -0.6129 -0.0139
17146SOL    HW254841   4.265   4.129   9.713 -2.3527  0.1682  0.0298
17147SOL     OW54842   5.344   8.799   2.229  0.0507  0.8216 -0.0163
17147SOL    HW154843   5.376   8.801   2.139  1.0529  0.0542  0.3044
17147SOL    HW254844   5.390   8.870   2.273  0.2275  0.6394  0.0960
17148SOL     OW54845   3.402   8.360   3.538  0.4366 -0.4412 -0.2083
17148SOL    HW154846   3.362   8.418   3.473  1.6123  0.0250 -0.5380
17148SOL    HW254847   3.493   8.352   3.511  1.2943  0.7557  1.9966
17149SOL     OW54848   8.874   4.002   7.871  0.0472  0.2836 -0.5598
17149SOL    HW154849   8.919   4.029   7.791 -2.6875 -0.7646 -2.6089
17149SOL    HW254850   8.856   4.085   7.917  2.0736  0.8620 -0.6937
17150SOL     OW54851   8.467   4.347   2.248  0.0116 -0.2350 -0.2831
17150SOL    HW154852   8.489   4.440   2.245 -1.3835  0.1608  0.6679
17150SOL    HW254853   8.536   4.304   2.197 -0.1295  1.4560 -1.9887
17151SOL     OW54854  10.691  10.702   0.031  0.2968  0.4741 -0.3998
17151SOL    HW154855  10.662  10.785   0.070  0.1226 -0.1192  0.7763
17151SOL    HW254856  10.647  10.700  -0.054 -0.9054  0.9119  0.1752
17152SOL     OW54857   7.880   0.319   3.796  0.8404  0.4816 -0.3506
17152SOL    HW154858   7.805   0.294   3.742  1.1050 -0.1054 -0.4519
17152SOL    HW254859   7.922   0.236   3.819 -0.3260  0.5148  2.3333
17153SOL     OW54860   2.420   3.353  10.074 -0.7802  0.1529 -0.1996
17153SOL    HW154861   2.401   3.287  10.141 -0.9350 -0.1888 -0.5777
17153SOL    HW254862   2.337   3.364  10.028 -0.8818  0.9601  0.1606
17154SOL     OW54863   6.108   9.012   1.442 -0.0185  0.4040 -0.3376
17154SOL    HW154864   6.071   8.930   1.474  0.5320  0.1420 -0.3713
17154SOL    HW254865   6.200   8.993   1.425 -0.0163  0.8735 -0.8991
17155SOL     OW54866   4.989  10.215   2.478  0.2408 -0.1439 -0.0947
17155SOL    HW154867   4.917  10.220   2.414 -1.5063  1.4095  1.8796
17155SOL    HW254868   4.967  10.139   2.532  0.2045  0.1790  0.3483
17156SOL     OW54869   8.755   8.873   6.560  0.5022 -0.6199  0.1905
17156SOL    HW154870   8.685   8.938   6.564  0.9300 -0.1639  0.2681
17156SOL    HW254871   8.820   8.902   6.624  0.4743 -1.3856  0.5723
17157SOL     OW54872   0.584   0.471   3.040 -0.2124  0.3076 -0.0599
17157SOL    HW154873   0.609   0.514   3.122  0.6513  2.5137 -1.3677
17157SOL    HW254874   0.654   0.409   3.023  0.3985  0.9195  0.1596
17158SOL     OW54875   6.583   3.782   8.103 -0.0595 -0.3483  0.2825
17158SOL    HW154876   6.645   3.714   8.128 -1.1151 -1.3307  0.2834
17158SOL    HW254877   6.607   3.805   8.013  0.4993 -0.4876  0.3904
17159SOL     OW54878   8.765   4.762   5.516 -0.1497  0.0164 -0.0325
17159SOL    HW154879   8.675   4.752   5.486 -0.4888 -0.5838  1.1190
17159SOL    HW254880   8.802   4.828   5.459 -1.4223  0.5105 -0.3219
17160SOL     OW54881   2.341   6.668   1.518  0.3948 -0.0999  0.4679
17160SOL    HW154882   2.345   6.763   1.510 -2.2247 -0.0352 -1.2735
17160SOL    HW254883   2.345   6.635   1.428  0.5854 -1.5965  0.9864
17161SOL     OW54884   1.177   3.343   7.169  0.1584 -0.6702  0.2903
17161SOL    HW154885   1.110   3.382   7.113 -0.0384 -3.9650 -2.0802
17161SOL    HW254886   1.144   3.355   7.258 -2.1874  0.2613 -0.6316
17162SOL     OW54887   9.137   7.338   2.984  0.3520 -0.1298  0.3396
17162SOL    HW154888   9.174   7.408   3.038  0.4098  0.9043 -0.9857
17162SOL    HW254889   9.140   7.261   3.040  0.9105  0.7760  1.6165
17163SOL     OW54890   1.452   8.039   7.208 -0.3095 -0.6040  0.4432
17163SOL    HW154891   1.515   8.042   7.136 -0.1386  1.5824  0.6051
17163SOL    HW254892   1.408   8.124   7.205 -1.2092 -0.9655  2.1156
17164SOL     OW54893   1.611   0.286   0.072  0.0549  0.3029  0.0347
17164SOL    HW154894   1.635   0.214   0.130 -0.2534  0.7864  0.7743
17164SOL    HW254895   1.517   0.279   0.062  0.1052  0.2266 -0.4078
17165SOL     OW54896   6.987   1.986   7.557 -0.4050 -0.2677 -0.0903
17165SOL    HW154897   7.023   1.990   7.645 -0.4348 -1.4984 -0.0002
17165SOL    HW254898   7.040   2.047   7.506 -0.4330  0.5073  0.7810
17166SOL     OW54899  10.816   4.461   2.786  0.3867  0.4754 -0.0728
17166SOL    HW154900  10.797   4.389   2.846  1.3677  1.3352  1.3072
17166SOL    HW254901  10.910   4.475   2.794 -0.0084  3.0559  1.0788
17167SOL     OW54902   6.196   0.407   8.470  0.3501 -0.3157 -0.3272
17167SOL    HW154903   6.276   0.428   8.421 -1.4857  0.2221 -3.3516
17167SOL    HW254904   6.187   0.480   8.532  0.7058  1.2737 -2.0310
17168SOL     OW54905   2.319   4.638   7.821 -0.0290  0.1037 -0.3489
17168SOL    HW154906   2.289   4.654   7.910  0.3356  0.3280 -0.2677
17168SOL    HW254907   2.398   4.585   7.831 -0.6964 -0.9726 -0.5803
17169SOL     OW54908  10.899   4.813   5.264  0.4064 -0.2058 -0.2418
17169SOL    HW154909  10.919   4.719   5.260 -0.9548 -0.6913  2.3342
17169SOL    HW254910  10.959   4.848   5.329 -0.5492  0.2244  0.4387
17170SOL     OW54911   1.347   3.167   3.390  0.4939  0.2481  0.1220
17170SOL    HW154912   1.350   3.194   3.482 -1.1909 -0.0568  0.2978
17170SOL    HW254913   1.272   3.213   3.354  0.3444 -0.6593 -0.7569
17171SOL     OW54914   6.211   8.545   0.358 -0.1406 -0.2258  0.6918
17171SOL    HW154915   6.293   8.495   0.360  0.2083  0.2809 -0.2367
17171SOL    HW254916   6.176   8.531   0.270  1.0590  2.8109 -0.4308
17172SOL     OW54917   3.875   1.854   8.933 -0.3288  0.3504 -0.0412
17172SOL    HW154918   3.845   1.858   8.842 -1.3788  1.0508  0.3275
17172SOL    HW254919   3.872   1.945   8.963  1.6082  0.3735  0.2058
17173SOL     OW54920   1.107   7.997   4.500  0.0806  0.0386 -0.0262
17173SOL    HW154921   1.199   8.015   4.523 -0.2128 -0.2028  1.4308
17173SOL    HW254922   1.111   7.961   4.412  1.5449 -1.2526  0.5173
17174SOL     OW54923   3.210   8.808   1.823  0.4321 -0.1122  0.3956
17174SOL    HW154924   3.144   8.871   1.794 -0.0927 -0.6266  0.4602
17174SOL    HW254925   3.161   8.744   1.874  0.5120 -1.9266 -1.6512
17175SOL     OW54926   0.507   7.389   7.821 -0.1870  0.7548 -0.2221
17175SOL    HW154927   0.493   7.330   7.746 -1.2016  0.1610  0.4175
17175SOL    HW254928   0.577   7.347   7.871 -0.8989  0.0618  0.2261
17176SOL     OW54929   2.001   7.559   7.424 -0.7834  0.0889  0.1968
17176SOL    HW154930   1.943   7.483   7.420  0.4110 -0.9190  1.0855
17176SOL    HW254931   2.031   7.571   7.334 -1.4446 -0.1247 -0.0525
17177SOL     OW54932   2.910   5.753  10.095  0.3445  0.3301  0.3758
17177SOL    HW154933   2.891   5.706  10.177  0.2052 -0.0236  0.1428
17177SOL    HW254934   2.841   5.820  10.090 -1.7337 -1.7457 -1.1011
17178SOL     OW54935   8.120   7.337   8.519  0.5114  0.3440  0.1196
17178SOL    HW154936   8.061   7.411   8.505  1.2237  1.0599  0.8846
17178SOL    HW254937   8.145   7.342   8.611  3.1973  1.1425 -0.5712
17179SOL     OW54938   0.605   0.972   1.528 -0.1027 -0.0102  0.3759
17179SOL    HW154939   0.663   1.044   1.554  0.3641 -0.6168  1.0958
17179SOL    HW254940   0.663   0.910   1.483 -0.5617  0.2099 -0.5216
17180SOL     OW54941   4.089   5.954   9.371 -0.3962  0.0974 -0.3634
17180SOL    HW154942   4.035   6.026   9.402  0.0557 -0.0468  0.8009
17180SOL    HW254943   4.145   5.992   9.303 -0.0353  0.8828  0.3679
17181SOL     OW54944   1.995   2.012   6.338 -0.1286  0.1717 -0.0211
17181SOL    HW154945   2.035   2.064   6.269  0.0487  1.0052  0.6842
17181SOL    HW254946   2.039   2.041   6.418  0.4426 -1.5640  0.3151
17182SOL     OW54947   3.576   8.965   6.828  0.4417  0.3530 -0.1223
17182SOL    HW154948   3.633   8.889   6.821  0.8444  0.6289  0.1592
17182SOL    HW254949   3.489   8.928   6.843  0.9485 -0.0174  2.1387
17183SOL     OW54950   1.954   7.606   5.884 -0.0931 -0.0574 -0.2198
17183SOL    HW154951   1.887   7.548   5.847  0.1059  0.4484 -1.4057
17183SOL    HW254952   1.942   7.689   5.839 -1.0085  1.1917  2.1309
17184SOL     OW54953   9.231   9.154   5.560  0.0431  0.8298  0.4269
17184SOL    HW154954   9.211   9.233   5.509 -1.5941 -0.4119 -0.9440
17184SOL    HW254955   9.146   9.119   5.585  0.7653 -0.1324  1.6497
17185SOL     OW54956   3.324   2.708   7.862  0.4434 -0.4355 -0.3009
17185SOL    HW154957   3.240   2.671   7.837  0.0160  0.9627 -1.0315
17185SOL    HW254958   3.384   2.681   7.792  0.3523 -0.5230 -0.3453
17186SOL     OW54959   8.105   9.761   4.393 -0.2864  0.2492 -0.4372
17186SOL    HW154960   8.095   9.854   4.374  2.6586  1.7061  3.6739
17186SOL    HW254961   8.036   9.742   4.457  0.7324  0.4847  0.7897
17187SOL     OW54962   1.886   8.339   8.332  0.1179  0.0752 -0.2156
17187SOL    HW154963   1.820   8.288   8.286  0.3930 -0.3975 -0.0928
17187SOL    HW254964   1.837   8.386   8.399 -0.1832  0.2230 -0.5411
17188SOL     OW54965   0.685   6.429   2.687 -0.3089 -0.0451  0.2334
17188SOL    HW154966   0.757   6.391   2.738  0.1627 -0.2856 -0.6024
17188SOL    HW254967   0.622   6.357   2.677  0.6312 -0.6927 -1.4384
17189SOL     OW54968   8.621   1.781   8.928 -0.1379 -0.1549  0.5232
17189SOL    HW154969   8.558   1.719   8.891  0.5422 -1.0657  0.8366
17189SOL    HW254970   8.661   1.823   8.852  0.1354 -0.8713  0.2632
17190SOL     OW54971   9.802   1.282   9.338  0.1176  0.3112  0.1622
17190SOL    HW154972   9.748   1.203   9.344  0.2359  0.3209  1.9597
17190SOL    HW254973   9.891   1.250   9.323  0.4592 -0.0714  2.5614
17191SOL     OW54974   8.365   3.622   4.824  0.1328  0.0955 -0.4383
17191SOL    HW154975   8.433   3.687   4.808 -0.1245  0.3010 -0.6941
17191SOL    HW254976   8.296   3.669   4.870  1.1131 -0.6073  1.9082
17192SOL     OW54977   8.884   8.756   8.248 -0.1217  0.2371  0.3839
17192SOL    HW154978   8.859   8.836   8.295  1.8491  0.5077  1.0330
17192SOL    HW254979   8.830   8.688   8.287  0.0246  0.8140  1.6411
17193SOL     OW54980   6.971  10.682   6.369  0.1361 -0.1468 -0.2551
17193SOL    HW154981   6.964  10.777   6.381 -2.7410 -0.2659 -0.2704
17193SOL    HW254982   6.929  10.666   6.284 -0.3721 -1.5162  0.2313
17194SOL     OW54983   2.561   8.746   5.514  0.0081  0.1007 -0.2029
17194SOL    HW154984   2.512   8.678   5.468  0.6462  0.3183 -1.2410
17194SOL    HW254985   2.647   8.706   5.531 -0.0227  0.2290  0.2681
17195SOL     OW54986   2.742   9.936   1.477  0.1083 -0.3612  0.1306
17195SOL    HW154987   2.789  10.017   1.497 -2.0959  0.8082  0.9005
17195SOL    HW254988   2.699   9.954   1.393 -1.5265 -0.1344  0.9704
17196SOL     OW54989   2.011   6.844   8.202  0.0052 -0.1267 -0.2302
17196SOL    HW154990   1.967   6.901   8.265 -0.7961  0.8458 -1.6195
17196SOL    HW254991   1.944   6.822   8.137  0.5211 -1.9774 -0.2224
17197SOL     OW54992   3.624   0.392   4.834 -0.2692 -0.2016 -0.0003
17197SOL    HW154993   3.719   0.401   4.847  0.2587  0.0842 -3.2561
17197SOL    HW254994   3.610   0.297   4.828  0.7390 -0.2861 -4.0615
17198SOL     OW54995   6.937   4.643   3.397  0.0300  0.0707 -0.4087
17198SOL    HW154996   7.002   4.674   3.334  0.1803 -0.7895 -0.6920
17198SOL    HW254997   6.884   4.581   3.348 -1.2931  1.0671 -0.2996
17199SOL     OW54998   1.090   7.893   4.223  0.0849 -0.2974 -0.1780
17199SOL    HW154999   1.160   7.839   4.184  0.3188  0.6190 -1.0682
17199SOL    HW255000   1.055   7.943   4.150 -1.2319 -0.4150  0.3452
17200SOL     OW55001   6.740   0.767   7.066 -0.4468  0.3768  0.3783
17200SOL    HW155002   6.728   0.672   7.069 -1.4143  0.4963  0.6956
17200SOL    HW255003   6.804   0.781   6.997 -2.1801 -0.3606 -1.4955
17201SOL     OW55004   5.529   0.849  10.292  0.0350  0.2781 -0.2004
17201SOL    HW155005   5.554   0.845  10.385 -0.7600 -0.4785 -0.0129
17201SOL    HW255006   5.498   0.761  10.271  0.4102  0.3844 -1.2514
17202SOL     OW55007   4.339   4.749   8.759  0.2554 -0.2191  0.2092
17202SOL    HW155008   4.275   4.685   8.725 -1.2086  0.4679  1.5564
17202SOL    HW255009   4.307   4.833   8.727 -0.0303  0.2221  1.6035
17203SOL     OW55010   9.001   7.432   9.024  0.0258  0.4343  0.3857
17203SOL    HW155011   8.908   7.434   9.002  0.1353 -0.0550 -0.1432
17203SOL    HW255012   9.045   7.464   8.945  0.4579 -1.8097 -0.3401
17204SOL     OW55013   0.175   4.348   8.958 -0.1692  0.1019  0.0582
17204SOL    HW155014   0.194   4.430   8.911  2.1683 -0.1607  0.4163
17204SOL    HW255015   0.224   4.282   8.909 -0.9595 -0.8622  0.5553
17205SOL     OW55016   0.050   5.721  10.519 -0.1328  0.5503  0.2400
17205SOL    HW155017  -0.024   5.671  10.553  0.5647 -2.0918 -1.8738
17205SOL    HW255018   0.055   5.699  10.426  2.3276  1.9284 -0.0541
17206SOL     OW55019   7.466   9.563   1.666 -0.2605  0.1805 -0.1865
17206SOL    HW155020   7.490   9.554   1.574  1.6610  0.1673  0.2652
17206SOL    HW255021   7.398   9.497   1.680 -0.0386 -0.3344 -1.4201
17207SOL     OW55022   3.523   5.886  10.146 -0.5057 -0.6449  0.0608
17207SOL    HW155023   3.443   5.894  10.197 -0.5758  0.8958 -0.2365
17207SOL    HW255024   3.528   5.968  10.097  1.8264 -0.2076  0.9101
17208SOL     OW55025   0.417   3.353   0.246 -0.3995 -0.3429  0.6864
17208SOL    HW155026   0.419   3.421   0.179 -1.2650 -0.6870  0.2936
17208SOL    HW255027   0.340   3.300   0.224 -0.2868 -0.8809  1.5388
17209SOL     OW55028   3.699   0.761   7.202 -0.5349  0.2189 -0.1042
17209SOL    HW155029   3.649   0.840   7.220 -0.1205  0.0735  1.8972
17209SOL    HW255030   3.733   0.773   7.113 -2.4684  1.1765 -0.7682
17210SOL     OW55031   1.896   3.007   2.051  0.1108  0.1015  0.5803
17210SOL    HW155032   1.809   2.972   2.030 -0.4593  1.8032 -0.0978
17210SOL    HW255033   1.893   3.021   2.146 -0.1580 -0.3740  0.6437
17211SOL     OW55034   0.273   3.678   9.335  0.1956  0.0438 -0.0164
17211SOL    HW155035   0.258   3.772   9.336  0.6064  0.1145  0.9507
17211SOL    HW255036   0.242   3.649   9.249  1.6682  1.3063 -1.0280
17212SOL     OW55037   8.081   9.782   1.033  0.1186 -0.2166 -0.6243
17212SOL    HW155038   8.175   9.795   1.048 -0.0378 -0.1858  0.4001
17212SOL    HW255039   8.039   9.852   1.083 -0.4976 -0.9402 -0.1178
17213SOL     OW55040   2.087   7.340   5.289 -1.2741 -0.2862 -0.1591
17213SOL    HW155041   2.180   7.357   5.305 -1.3239 -0.8179  0.7261
17213SOL    HW255042   2.084   7.250   5.257 -1.4011  0.0461 -1.1182
17214SOL     OW55043   6.637   8.328   8.586  0.1221  0.1544 -0.2855
17214SOL    HW155044   6.624   8.413   8.627  1.8988  0.2685  0.1330
17214SOL    HW255045   6.597   8.265   8.647  0.1780  0.5641  0.1776
17215SOL     OW55046   8.573   2.188   3.310 -0.5212 -0.3292 -0.0682
17215SOL    HW155047   8.507   2.120   3.325  1.5502 -2.3166  0.6857
17215SOL    HW255048   8.533   2.268   3.345 -1.9656 -1.7323  1.7255
17216SOL     OW55049   1.352   6.490   7.067  0.0751 -0.7505 -1.5688
17216SOL    HW155050   1.415   6.424   7.039  0.4534  0.1113 -2.8538
17216SOL    HW255051   1.361   6.561   7.003 -1.4056 -0.1140 -1.1332
17217SOL     OW55052   1.550   8.214   8.425 -0.1443  0.3137  0.6177
17217SOL    HW155053   1.573   8.143   8.365 -2.0177  0.6191 -0.5535
17217SOL    HW255054   1.454   8.210   8.432 -0.0947  1.2075  2.4827
17218SOL     OW55055   7.576   3.451   1.969 -0.4998  0.2154 -0.3370
17218SOL    HW155056   7.499   3.404   1.939 -0.1550  0.5787 -1.8812
17218SOL    HW255057   7.543   3.537   1.996 -0.9181 -0.3665  1.1171
17219SOL     OW55058  10.447   7.347   5.625  0.2913 -0.2908  0.3937
17219SOL    HW155059  10.399   7.419   5.667  0.6132  0.1765 -0.0299
17219SOL    HW255060  10.453   7.372   5.533 -0.6616 -1.4448 -0.0064
17220SOL     OW55061   5.583   1.518  10.884  0.0651 -0.4854  0.2707
17220SOL    HW155062   5.623   1.438  10.918 -0.1016 -0.9297 -0.5358
17220SOL    HW255063   5.507   1.487  10.834 -0.9885  0.2965  1.3375
17221SOL     OW55064   1.237   3.086   0.236 -0.5996  0.4487  0.1205
17221SOL    HW155065   1.217   3.018   0.301 -0.2634  1.3662  1.2078
17221SOL    HW255066   1.214   3.168   0.280  3.8212  1.5265  0.8916
17222SOL     OW55067   1.140   0.474  10.113 -0.8358 -0.2329 -0.4840
17222SOL    HW155068   1.108   0.430  10.034 -4.3349 -0.6534  0.9826
17222SOL    HW255069   1.194   0.408  10.157 -0.7862 -0.8126 -1.3888
17223SOL     OW55070   3.506   8.266   0.849  0.1609 -0.2220  0.0944
17223SOL    HW155071   3.535   8.343   0.800 -1.6946  0.3212 -0.2463
17223SOL    HW255072   3.464   8.210   0.784 -1.3146 -0.0176  0.8245
17224SOL     OW55073   9.862   1.231   5.064  0.1100  0.7812  0.6175
17224SOL    HW155074   9.852   1.326   5.068  0.1507  0.8421 -0.4452
17224SOL    HW255075   9.892   1.214   4.975 -0.9088 -0.3204  0.4629
17225SOL     OW55076  10.787   5.621   7.946 -0.1372  0.0347  0.6274
17225SOL    HW155077  10.870   5.624   7.899  0.8118 -2.6568  1.8885
17225SOL    HW255078  10.730   5.567   7.891 -0.2761 -0.0268  0.8292
17226SOL     OW55079   1.864   1.654   3.479 -0.2194 -0.2600 -0.6194
17226SOL    HW155080   1.791   1.602   3.513 -0.0062 -0.3155 -0.2314
17226SOL    HW255081   1.840   1.745   3.496 -0.4974 -0.2438 -1.1027
17227SOL     OW55082   8.645   5.180   4.368  0.4298 -0.0134  0.4682
17227SOL    HW155083   8.690   5.099   4.393  1.8975  0.3285 -0.8899
17227SOL    HW255084   8.593   5.156   4.292  0.5500  0.2206  0.3101
17228SOL     OW55085   0.735   6.544   7.243  0.3283  0.4181 -0.5946
17228SOL    HW155086   0.681   6.526   7.166 -0.0622 -0.8690 -0.0433
17228SOL    HW255087   0.682   6.605   7.296  0.4817  1.0879 -1.2067
17229SOL     OW55088   5.611   9.971   0.503 -0.1389 -0.2278 -0.7604
17229SOL    HW155089   5.524   9.964   0.545  0.3996 -0.2985  0.3949
17229SOL    HW255090   5.622  10.065   0.488  0.0058 -0.1076  0.0453
17230SOL     OW55091   3.176   1.299   2.705  0.0134 -0.0427 -0.1444
17230SOL    HW155092   3.144   1.381   2.742 -0.0128 -0.5270  0.9191
17230SOL    HW255093   3.130   1.292   2.621 -0.2484  0.8525 -0.0870
17231SOL     OW55094   2.316  10.152   3.562 -0.0559  0.1307  0.4428
17231SOL    HW155095   2.258  10.181   3.491  0.7320 -2.2779 -1.3261
17231SOL    HW255096   2.378  10.224   3.572 -0.2958  0.6331 -1.2483
17232SOL     OW55097  10.563   8.163  10.785 -0.3170  0.1420 -0.1566
17232SOL    HW155098  10.647   8.134  10.749  0.4333  1.9246  0.0852
17232SOL    HW255099  10.508   8.084  10.784  1.0148 -0.8120 -1.2764
17233SOL     OW55100   4.955   6.702   4.357  0.4715 -0.5100  0.1269
17233SOL    HW155101   4.953   6.768   4.427  1.0318 -0.3436 -0.0095
17233SOL    HW255102   5.035   6.652   4.373  1.4788  0.5470 -1.3044
17234SOL     OW55103   2.490   2.259   7.779 -0.2527 -1.1515  0.1096
17234SOL    HW155104   2.498   2.174   7.735 -2.0995 -2.7791  2.5957
17234SOL    HW255105   2.550   2.252   7.853 -1.0774 -0.6930  0.8393
17235SOL     OW55106   3.750   2.256   6.859  0.0123 -0.0587  0.1941
17235SOL    HW155107   3.701   2.174   6.860 -0.3580  0.1512 -0.2946
17235SOL    HW255108   3.699   2.314   6.916 -0.5999  0.3164 -0.7114
17236SOL     OW55109   5.015   3.857   4.232 -0.3351  0.3121 -0.4193
17236SOL    HW155110   5.019   3.952   4.242 -0.1572  0.1425  1.4914
17236SOL    HW255111   5.093   3.825   4.277 -1.8099 -0.8657  1.4089
17237SOL     OW55112   8.986   8.877   7.542  0.0148 -0.1675 -0.2503
17237SOL    HW155113   9.058   8.937   7.524  1.1375 -1.5643 -0.6441
17237SOL    HW255114   8.934   8.920   7.609  0.3479  1.5550 -1.0579
17238SOL     OW55115  10.036   8.097   4.678  0.1956  0.0656 -0.6001
17238SOL    HW155116  10.102   8.047   4.630  0.7230  0.3565 -0.1881
17238SOL    HW255117   9.954   8.049   4.663  0.4799 -0.2415 -1.1958
17239SOL     OW55118  10.122   8.563   8.820  0.0686  0.4366 -0.0071
17239SOL    HW155119  10.128   8.522   8.906 -0.4262  0.5746  0.0961
17239SOL    HW255120  10.149   8.494   8.759  3.4520  1.2025  0.4201
17240SOL     OW55121   7.450  10.039   7.874 -0.0393  0.1421 -0.2135
17240SOL    HW155122   7.428   9.946   7.868 -1.7961  0.5875 -1.3181
17240SOL    HW255123   7.545  10.042   7.862 -0.2224 -1.3619 -2.5130
17241SOL     OW55124   7.390   1.517   8.633 -0.6439 -0.0812  0.2439
17241SOL    HW155125   7.306   1.560   8.651 -0.4139  1.2329 -1.5284
17241SOL    HW255126   7.428   1.501   8.720 -1.9735  0.8506  1.0320
17242SOL     OW55127   0.084   8.506  10.220 -0.2281  0.2550  0.3169
17242SOL    HW155128   0.166   8.542  10.189  0.4313  0.7515  2.4589
17242SOL    HW255129   0.062   8.558  10.298 -1.2297 -1.4958  1.2867
17243SOL     OW55130  10.081   9.899   6.099  0.1286 -0.4410  0.5532
17243SOL    HW155131  10.164   9.915   6.055 -0.6961 -1.2501 -1.4505
17243SOL    HW255132  10.019   9.885   6.027 -1.4466 -1.2308  1.9987
17244SOL     OW55133   7.721   5.766   1.168 -0.1129  0.1602  0.1268
17244SOL    HW155134   7.664   5.690   1.155 -0.7617  0.6517 -0.0038
17244SOL    HW255135   7.668   5.840   1.138  0.7511  0.5890 -0.3776
17245SOL     OW55136   0.761  10.058   0.389  0.5176  0.6240 -0.0628
17245SOL    HW155137   0.678  10.092   0.423  0.1332 -0.0620 -0.2945
17245SOL    HW255138   0.745   9.964   0.379  0.8861  0.6985 -1.4056
17246SOL     OW55139   4.956   5.678   3.499 -0.4325  0.0552 -0.2428
17246SOL    HW155140   4.898   5.749   3.527 -1.0620 -0.8267  0.7280
17246SOL    HW255141   4.920   5.600   3.540  2.0180 -0.3884  1.2936
17247SOL     OW55142   1.306   5.098   7.469  0.4731 -0.4352 -0.1900
17247SOL    HW155143   1.318   5.192   7.454 -0.5593 -0.0768  1.0568
17247SOL    HW255144   1.395   5.063   7.473  0.9014  0.6665  0.3358
17248SOL     OW55145   7.246   5.225   2.121 -0.3189 -0.3446 -0.0379
17248SOL    HW155146   7.185   5.156   2.096  0.6017 -0.8956 -0.8410
17248SOL    HW255147   7.195   5.283   2.177 -1.4240 -1.0671 -0.2642
17249SOL     OW55148   9.583   0.055   5.829 -0.0748 -0.7390 -0.5348
17249SOL    HW155149   9.518   0.063   5.758 -0.8363  0.8717  0.2995
17249SOL    HW255150   9.617   0.143   5.840  0.3113 -1.0474  0.8600
17250SOL     OW55151   1.035   4.679   8.285  0.4819  0.6364 -0.7102
17250SOL    HW155152   1.126   4.706   8.266  1.1333 -0.7300  0.3568
17250SOL    HW255153   0.996   4.666   8.199  1.5620  0.4080 -1.1831
17251SOL     OW55154   7.902   2.564   6.061 -0.3390  0.0073  0.1875
17251SOL    HW155155   7.862   2.522   5.985 -0.4598  0.3273  0.0736
17251SOL    HW255156   7.829   2.578   6.121 -1.1335  3.7806 -1.4153
17252SOL     OW55157   0.028  10.762   6.110 -0.4683  0.3101 -0.1189
17252SOL    HW155158   0.026  10.671   6.081 -0.5290  0.4163 -0.4544
17252SOL    HW255159   0.086  10.806   6.048 -1.2772  0.7174 -0.6006
17253SOL     OW55160   0.036   2.215   6.617 -0.0531 -0.4457 -0.4659
17253SOL    HW155161  -0.019   2.251   6.686  1.9299  1.1566  0.3800
17253SOL    HW255162   0.056   2.126   6.645  2.2208  0.7416  2.1085
17254SOL     OW55163   5.873   9.178   4.989 -0.1158 -0.4791  1.0561
17254SOL    HW155164   5.865   9.162   5.083 -1.2964  1.1019  1.2529
17254SOL    HW255165   5.810   9.247   4.971  1.1440  0.2807 -0.6470
17255SOL     OW55166   5.206   5.334   6.804  0.2101  0.0272 -0.9276
17255SOL    HW155167   5.210   5.399   6.733  1.2032  1.5314  0.4323
17255SOL    HW255168   5.274   5.271   6.782  0.6803  0.6151 -1.2006
17256SOL     OW55169   1.932   3.874   4.914  0.1822 -0.0756  0.3605
17256SOL    HW155170   1.918   3.912   5.001 -1.8649 -1.2984  0.6242
17256SOL    HW255171   1.964   3.947   4.861 -0.2339  1.1281  1.7064
17257SOL     OW55172   9.995   2.270   8.293 -0.5397  0.2934  0.0380
17257SOL    HW155173   9.933   2.260   8.220  0.7050  0.1072 -1.0227
17257SOL    HW255174  10.072   2.311   8.254  1.3645 -2.4957  0.5350
17258SOL     OW55175   5.153   5.672   2.928  0.0007 -0.3595 -0.2284
17258SOL    HW155176   5.071   5.631   2.956  1.5091 -1.9144  2.3156
17258SOL    HW255177   5.168   5.639   2.840 -1.9511 -0.2240 -0.6641
17259SOL     OW55178   9.779   6.449   1.228 -0.1736 -0.8670 -0.2152
17259SOL    HW155179   9.822   6.491   1.154  0.2740 -1.8092 -0.5024
17259SOL    HW255180   9.724   6.517   1.266  0.1969 -0.1575 -0.9387
17260SOL     OW55181   7.911   7.429   2.107 -0.0789  0.5302 -0.0852
17260SOL    HW155182   7.825   7.396   2.132  0.0569 -0.2184 -0.5754
17260SOL    HW255183   7.957   7.353   2.074  1.8185  0.2618  2.8181
17261SOL     OW55184   1.820   0.869   5.090  0.0237 -0.4756 -0.6684
17261SOL    HW155185   1.858   0.868   5.002 -0.2339  1.7427 -0.8573
17261SOL    HW255186   1.727   0.885   5.075 -0.0174 -0.0554 -0.0001
17262SOL     OW55187   4.173  10.573   6.026  0.1420 -0.0327  0.0710
17262SOL    HW155188   4.116  10.648   6.045  0.2993  0.1619 -0.2120
17262SOL    HW255189   4.214  10.596   5.942 -0.2659 -0.7034 -0.3210
17263SOL     OW55190   5.762   5.398   8.374 -0.6139  0.2785 -0.1093
17263SOL    HW155191   5.734   5.318   8.329 -1.3475  0.1726  0.5171
17263SOL    HW255192   5.811   5.367   8.450 -0.3195  0.4425 -0.2306
17264SOL     OW55193   0.342   8.788   8.613 -0.2102  0.0666  0.0003
17264SOL    HW155194   0.388   8.730   8.552  2.5098 -0.2302  2.1620
17264SOL    HW255195   0.285   8.730   8.664  0.4056 -0.2689  0.3063
17265SOL     OW55196   3.413   9.308   5.033  0.5801 -0.0888 -0.2835
17265SOL    HW155197   3.360   9.229   5.043 -1.0760  0.9565 -0.5932
17265SOL    HW255198   3.385   9.346   4.950 -0.6390  2.2415  1.0998
17266SOL     OW55199   5.351   7.256   4.145  0.5890  0.2192 -0.4526
17266SOL    HW155200   5.378   7.164   4.143 -1.8087 -0.5413 -0.3658
17266SOL    HW255201   5.269   7.258   4.097 -0.0743  2.0738  0.6604
17267SOL     OW55202   5.053  10.490   8.766  0.9107  0.2654  0.1153
17267SOL    HW155203   5.039  10.395   8.773 -2.2927  0.6308  0.1849
17267SOL    HW255204   5.052  10.521   8.856 -0.5235  0.5995  0.0014
17268SOL     OW55205   8.781   6.982   4.882  0.3320  0.3338 -0.1344
17268SOL    HW155206   8.711   6.946   4.937  0.4050 -1.7033 -1.3035
17268SOL    HW255207   8.858   6.985   4.939  0.1712 -0.8672  0.1635
17269SOL     OW55208   3.572   6.022   6.386 -0.4786 -0.0689 -0.1153
17269SOL    HW155209   3.663   6.026   6.358 -0.1040  0.4909  1.1332
17269SOL    HW255210   3.565   5.940   6.435 -0.2073  0.6526  1.1820
17270SOL     OW55211   0.104   5.287   4.128 -0.1019  0.7835  0.0809
17270SOL    HW155212   0.170   5.317   4.191  0.7444 -0.3427 -0.2530
17270SOL    HW255213   0.092   5.194   4.147 -2.4786  1.1716  0.8998
17271SOL     OW55214   5.460   2.944   0.389  0.4181  0.2041 -0.3437
17271SOL    HW155215   5.465   3.039   0.396  1.9389  0.2976 -1.9079
17271SOL    HW255216   5.551   2.915   0.393 -0.1114 -1.4204  2.2197
17272SOL     OW55217   2.034   1.516   8.778  0.2522  0.0310 -0.1278
17272SOL    HW155218   1.996   1.603   8.767  1.2219  0.3892 -0.7554
17272SOL    HW255219   2.056   1.512   8.871  1.7604  1.1350 -0.4093
17273SOL     OW55220   1.823   9.748   8.049 -0.1654  0.2941 -0.0955
17273SOL    HW155221   1.764   9.712   8.115  0.7164 -1.0449  0.0113
17273SOL    HW255222   1.820   9.685   7.977  0.8398  0.3906 -0.2341
17274SOL     OW55223   8.864   8.144   0.422  0.2920  0.3170 -0.5843
17274SOL    HW155224   8.778   8.163   0.461  0.1884  0.2250 -0.7705
17274SOL    HW255225   8.890   8.061   0.461 -0.3428 -0.3767 -1.5932
17275SOL     OW55226   4.419   8.109   7.527  0.4449  0.0409 -0.3112
17275SOL    HW155227   4.483   8.052   7.569  0.8897  0.8159  0.0650
17275SOL    HW255228   4.469   8.184   7.497 -0.3880  0.9766  0.5761
17276SOL     OW55229  10.578   7.576   1.842  0.2904 -0.1643  0.3893
17276SOL    HW155230  10.620   7.497   1.806 -0.2515  0.0763 -0.8211
17276SOL    HW255231  10.492   7.579   1.799  0.0199  0.7078  0.9662
17277SOL     OW55232   7.924   4.924   3.704 -0.3709 -0.2268  0.2460
17277SOL    HW155233   7.896   5.012   3.678  0.0961 -0.2252 -0.2581
17277SOL    HW255234   7.891   4.868   3.634  1.6626 -0.1173 -0.8780
17278SOL     OW55235   3.859   6.948   7.903 -0.3602  0.1588  0.1009
17278SOL    HW155236   3.818   6.891   7.839  0.1768 -0.6257  0.4314
17278SOL    HW255237   3.790   7.009   7.930 -0.3375  1.1225 -1.8931
17279SOL     OW55238   3.050   0.271   6.417 -0.4294 -0.0856  0.1356
17279SOL    HW155239   3.051   0.366   6.409 -0.5344 -0.1216 -0.3800
17279SOL    HW255240   3.072   0.240   6.329  0.7876 -0.5330  0.5710
17280SOL     OW55241   8.819   4.986   5.322 -0.2958 -0.2914 -0.2806
17280SOL    HW155242   8.870   4.955   5.247 -0.4241  1.3769 -1.1140
17280SOL    HW255243   8.750   5.041   5.284 -0.5381  0.3701  1.0268
17281SOL     OW55244   5.716   7.800   2.408 -0.5208  0.2530 -0.5711
17281SOL    HW155245   5.741   7.751   2.330  0.2524  1.8222 -1.3415
17281SOL    HW255246   5.793   7.794   2.465  0.0552  1.5297 -1.1728
17282SOL     OW55247   5.988   4.982  10.038  0.0782  0.1689  0.2035
17282SOL    HW155248   5.969   4.922  10.110 -0.6577  0.6723  0.4340
17282SOL    HW255249   5.904   5.022  10.017  0.0226 -0.8385 -1.7390
17283SOL     OW55250  10.156   2.846   4.865 -0.8944 -0.3556  0.1376
17283SOL    HW155251  10.252   2.845   4.869 -0.7466 -3.2224 -1.1172
17283SOL    HW255252  10.128   2.827   4.954 -0.2164 -0.7734  0.2714
17284SOL     OW55253   1.165   6.858   5.162 -0.3935  0.5967  0.2206
17284SOL    HW155254   1.251   6.876   5.124 -1.0007  0.7962 -1.0881
17284SOL    HW255255   1.145   6.769   5.135 -0.3416  0.3113  1.0702
17285SOL     OW55256   7.027   1.619   4.011 -0.2341  0.0089 -0.6990
17285SOL    HW155257   7.086   1.584   4.077  0.7365  1.7419 -0.5865
17285SOL    HW255258   6.956   1.555   4.005 -0.1871 -0.3733  1.7700
17286SOL     OW55259   7.957   1.996   0.100 -0.0318  0.2089 -0.3965
17286SOL    HW155260   7.947   1.972   0.007 -0.7446 -1.6858  0.1321
17286SOL    HW255261   7.871   2.028   0.126 -0.1517 -0.3616 -0.0917
17287SOL     OW55262   2.865   9.302   2.175 -0.0632  0.2045  0.0803
17287SOL    HW155263   2.862   9.245   2.098 -1.9921  0.6353 -0.2388
17287SOL    HW255264   2.954   9.293   2.209  0.9574  0.2346 -2.3650
17288SOL     OW55265   3.110   4.138   4.841  0.0280 -0.1034  0.7124
17288SOL    HW155266   3.194   4.093   4.845  0.5277  0.8804  1.6363
17288SOL    HW255267   3.121   4.215   4.896 -1.8996 -0.6406  1.9260
17289SOL     OW55268   2.158   2.051   8.962  0.5291  0.4796  0.4448
17289SOL    HW155269   2.118   1.994   8.896 -0.2510 -0.7916  1.9452
17289SOL    HW255270   2.105   2.131   8.960  0.5453  0.4785 -0.4832
17290SOL     OW55271  10.194   3.870   7.981  0.1175  0.6878 -0.0464
17290SOL    HW155272  10.102   3.850   7.994  0.2682 -0.2932 -0.3840
17290SOL    HW255273  10.237   3.842   8.062  0.5793 -2.1880 -1.1741
17291SOL     OW55274   8.621   9.818   7.746  0.2872  0.5786 -0.3166
17291SOL    HW155275   8.569   9.761   7.802  0.8120  0.8644  0.4741
17291SOL    HW255276   8.557   9.878   7.708 -0.0845  0.3372 -0.0862
17292SOL     OW55277   9.848   4.717   5.567  0.6755  0.1295 -0.1414
17292SOL    HW155278   9.917   4.745   5.627  1.6284 -2.5376  0.1697
17292SOL    HW255279   9.768   4.722   5.619  1.0905  0.3801  0.4891
17293SOL     OW55280   6.744   8.932   9.387  0.4761 -0.0249  0.1694
17293SOL    HW155281   6.750   8.975   9.301 -0.5866  1.5197  0.8149
17293SOL    HW255282   6.819   8.967   9.436  0.0564  0.5066  0.4419
17294SOL     OW55283   9.281   9.209   8.024 -0.2354 -0.7695 -0.5337
17294SOL    HW155284   9.282   9.303   8.008 -0.2207 -0.4426  1.1896
17294SOL    HW255285   9.275   9.170   7.937 -0.1256  0.8122 -1.2887
17295SOL     OW55286   1.987   8.092  10.459 -0.3263  0.6440  0.3036
17295SOL    HW155287   1.927   8.020  10.480  1.6548 -1.0603  0.4442
17295SOL    HW255288   2.049   8.093  10.531  0.3611  1.7604 -0.2815
17296SOL     OW55289   4.375   3.836   3.607  0.0009  0.0603  0.1612
17296SOL    HW155290   4.453   3.889   3.621  1.3788 -2.0733  1.1529
17296SOL    HW255291   4.350   3.853   3.517  0.3222  2.3822  0.4517
17297SOL     OW55292   9.066   7.038   2.220  0.3623 -0.3269  0.1313
17297SOL    HW155293   9.023   6.983   2.286 -0.0122  0.1161  0.2622
17297SOL    HW255294   9.015   7.024   2.140 -0.4221  0.6574  0.4315
17298SOL     OW55295   5.084   1.152   0.370  0.2363  0.1022 -0.1004
17298SOL    HW155296   5.117   1.189   0.288  1.7811  0.2993  0.5818
17298SOL    HW255297   5.028   1.080   0.343 -0.3102  0.9535 -1.3595
17299SOL     OW55298   1.404   8.362   4.381  0.5358  0.1576 -0.1490
17299SOL    HW155299   1.417   8.455   4.399 -1.1515  0.3934  0.0134
17299SOL    HW255300   1.396   8.357   4.286 -0.3228  0.3208 -0.0881
17300SOL     OW55301   7.211   0.256   1.088  0.6828  0.2569  0.2185
17300SOL    HW155302   7.175   0.228   1.172  1.3137 -0.2622  0.3330
17300SOL    HW255303   7.158   0.331   1.062  0.8302  0.7702  1.3481
17301SOL     OW55304   2.287   5.260   6.122 -0.3764 -0.2670 -0.2583
17301SOL    HW155305   2.291   5.168   6.093  1.2321 -0.2014 -0.3406
17301SOL    HW255306   2.368   5.273   6.171 -0.3019  1.2772 -0.7432
17302SOL     OW55307   1.230   8.219   9.204  0.0062  0.5880  0.1118
17302SOL    HW155308   1.265   8.290   9.258  3.7904 -2.7483  2.6842
17302SOL    HW255309   1.290   8.215   9.129 -1.1684  1.0082 -0.8853
17303SOL     OW55310   4.892   1.637   1.258 -0.5732 -0.1804  0.0148
17303SOL    HW155311   4.800   1.618   1.241 -0.4556  0.1809 -1.1076
17303SOL    HW255312   4.894   1.668   1.348 -1.5105 -0.4545  0.1401
17304SOL     OW55313  10.680   2.481   1.482 -0.2938 -0.5168 -0.1068
17304SOL    HW155314  10.756   2.493   1.425 -0.8067 -1.3819 -0.9939
17304SOL    HW255315  10.616   2.546   1.451  0.2537  0.6253  1.0195
17305SOL     OW55316   4.740   0.311   1.332 -0.4105  0.3133 -0.3867
17305SOL    HW155317   4.731   0.274   1.420 -1.9032 -1.6958 -1.3063
17305SOL    HW255318   4.653   0.344   1.310 -0.0232  0.9085 -1.0748
17306SOL     OW55319   0.342   4.258   3.442  0.2542 -0.0221 -0.4184
17306SOL    HW155320   0.260   4.287   3.482 -0.2010 -0.5778 -0.9144
17306SOL    HW255321   0.317   4.233   3.353  1.0281  0.1109 -0.6779
17307SOL     OW55322   7.785   6.059   8.724 -0.4119  0.1037  0.7746
17307SOL    HW155323   7.854   6.052   8.658 -0.9335 -0.3573  0.2626
17307SOL    HW255324   7.714   6.005   8.690 -0.7677  0.0146  1.6258
17308SOL     OW55325   3.829   1.457   7.219  0.3759  0.0491 -0.3775
17308SOL    HW155326   3.870   1.501   7.144  4.4909 -0.9954  0.9786
17308SOL    HW255327   3.860   1.367   7.214 -2.6127 -1.1404  0.4437
17309SOL     OW55328   7.706   1.276   1.290 -0.2021  0.6288 -0.5385
17309SOL    HW155329   7.693   1.183   1.305 -1.9553  0.2797 -3.3747
17309SOL    HW255330   7.790   1.296   1.331  1.5690 -2.7975 -2.0860
17310SOL     OW55331   5.396   2.096   6.232  0.2228 -0.4815  0.0445
17310SOL    HW155332   5.470   2.091   6.293  0.7091  0.7401 -0.3975
17310SOL    HW255333   5.363   2.185   6.242 -1.2491 -1.0318  0.2763
17311SOL     OW55334   2.060   7.413   2.210  0.0082  0.1232 -0.0741
17311SOL    HW155335   1.972   7.391   2.179 -0.1791  0.4554  0.2108
17311SOL    HW255336   2.061   7.386   2.302  0.3206 -0.1955 -0.1688
17312SOL     OW55337   9.380   8.411   3.161  0.2022  0.5741  0.6583
17312SOL    HW155338   9.285   8.417   3.151  0.0588 -2.5039 -1.2031
17312SOL    HW255339   9.392   8.376   3.249 -0.4066  0.7954  0.8331
17313SOL     OW55340   2.866   3.272   1.696 -0.7836  0.6012 -0.4193
17313SOL    HW155341   2.935   3.225   1.744  0.3925  2.3236 -0.3368
17313SOL    HW255342   2.823   3.204   1.644  0.5812 -0.6367 -0.0093
17314SOL     OW55343   8.456   1.874   0.223 -0.2280  0.7629 -0.1968
17314SOL    HW155344   8.375   1.840   0.185  0.4631 -2.5015  0.9558
17314SOL    HW255345   8.429   1.906   0.310 -0.4914  0.8611 -0.3139
17315SOL     OW55346   0.631   2.109  10.035  0.6994  0.2975 -0.3236
17315SOL    HW155347   0.543   2.146  10.042  1.5042  2.0890  0.9880
17315SOL    HW255348   0.677   2.169   9.976  1.3100 -0.1078 -0.2616
17316SOL     OW55349   8.400   9.098   8.220  0.2493  0.2825  0.7792
17316SOL    HW155350   8.391   9.029   8.154 -0.1665  2.3297 -1.4425
17316SOL    HW255351   8.489   9.131   8.208  0.8498 -0.5600  2.6162
17317SOL     OW55352   1.890   9.525  10.145  0.0663 -0.3473  0.8565
17317SOL    HW155353   1.959   9.502  10.207  0.1772 -0.6175  0.6362
17317SOL    HW255354   1.863   9.441  10.108 -0.9627 -0.3445  1.5547
17318SOL     OW55355   2.784   3.452   7.862 -0.2672 -0.5467  0.0073
17318SOL    HW155356   2.842   3.419   7.930 -1.1963 -1.6074  0.3072
17318SOL    HW255357   2.795   3.392   7.789 -1.5969 -1.2704  0.3773
17319SOL     OW55358   2.556   0.504   8.997 -0.0216  0.2177  0.3007
17319SOL    HW155359   2.520   0.417   8.982 -1.4067  0.8369 -0.1006
17319SOL    HW255360   2.481   0.563   8.990  0.7620  1.3789  1.3213
17320SOL     OW55361   5.437   8.792   5.135 -0.0719 -0.6252  0.0606
17320SOL    HW155362   5.395   8.867   5.178 -0.1307 -0.4266 -0.3442
17320SOL    HW255363   5.475   8.828   5.056 -1.1793 -1.2587 -0.7877
17321SOL     OW55364  10.521  10.198   7.683 -0.0044 -0.5318 -0.4630
17321SOL    HW155365  10.498  10.114   7.723 -1.1913 -0.5268 -1.0764
17321SOL    HW255366  10.562  10.248   7.754 -0.1817 -1.2767  0.1739
17322SOL     OW55367   3.474   9.842   1.311 -0.3170 -0.3447 -0.2907
17322SOL    HW155368   3.498   9.806   1.396 -0.0910 -0.7801 -0.5350
17322SOL    HW255369   3.394   9.891   1.327  0.6644  1.0465  0.5236
17323SOL     OW55370   4.742   9.389   9.370 -0.0425 -0.6838  0.5128
17323SOL    HW155371   4.738   9.414   9.277  2.0696  1.2988  0.8607
17323SOL    HW255372   4.655   9.410   9.404 -0.4288 -0.1589 -0.7218
17324SOL     OW55373   1.747   8.944   9.629  0.1159 -0.0500 -0.3934
17324SOL    HW155374   1.669   8.889   9.623  0.0791 -0.1259  0.6172
17324SOL    HW255375   1.759   8.979   9.541 -0.6037 -0.6605 -0.7395
17325SOL     OW55376   6.030   2.173   8.006  0.0654 -0.5857 -0.0757
17325SOL    HW155377   6.116   2.129   8.007  1.0286  1.1839 -0.5382
17325SOL    HW255378   5.972   2.110   7.963  1.7995 -0.7470 -2.4095
17326SOL     OW55379   2.803  10.864   1.393  0.0623  0.2975  0.2709
17326SOL    HW155380   2.761  10.950   1.386 -0.5775 -0.0329 -0.0653
17326SOL    HW255381   2.730  10.802   1.390  0.5754 -0.2871 -0.2593
17327SOL     OW55382  10.204   2.511   7.224 -0.5716 -0.2619 -0.2423
17327SOL    HW155383  10.258   2.438   7.195 -0.0426  0.2687 -0.6219
17327SOL    HW255384  10.116   2.475   7.229  0.1110 -1.7993  2.6716
17328SOL     OW55385   1.867   2.502   5.541 -0.3606  0.1981  0.1691
17328SOL    HW155386   1.902   2.467   5.459 -0.6734  0.9449 -0.2951
17328SOL    HW255387   1.841   2.425   5.591 -1.0064 -0.2423 -0.8148
17329SOL     OW55388   3.183   7.881   0.497  0.4370 -0.0666  0.1011
17329SOL    HW155389   3.110   7.880   0.559  1.7474  0.7683  1.7448
17329SOL    HW255390   3.224   7.795   0.506  2.0552  0.8337  2.2954
17330SOL     OW55391   4.715   1.260   1.231  0.1696  0.0363 -0.9721
17330SOL    HW155392   4.755   1.332   1.183 -0.3999  0.6907 -0.4972
17330SOL    HW255393   4.706   1.190   1.167  0.2688  0.5656 -1.5739
17331SOL     OW55394   4.974   4.223   9.040 -0.5272 -0.2191 -0.4784
17331SOL    HW155395   4.962   4.260   9.127 -0.2167 -0.2845 -0.4050
17331SOL    HW255396   4.931   4.138   9.043  2.0576 -1.6123  0.5982
17332SOL     OW55397   8.635   3.708   1.035  0.6876 -0.6405  0.0255
17332SOL    HW155398   8.730   3.709   1.022  0.8290 -3.2061  0.4014
17332SOL    HW255399   8.621   3.640   1.101 -1.4054 -0.1427  0.1495
17333SOL     OW55400   2.940   8.502   6.591  0.0419 -0.0485  0.2556
17333SOL    HW155401   2.970   8.463   6.673 -0.9581 -0.6022  0.3713
17333SOL    HW255402   2.845   8.487   6.590  0.2254 -1.4624 -1.7164
17334SOL     OW55403   6.790   1.185   1.840 -0.1253  0.1601  0.2147
17334SOL    HW155404   6.824   1.239   1.769 -1.3357  0.4327 -0.1906
17334SOL    HW255405   6.741   1.115   1.796  1.0122 -1.0188  0.7385
17335SOL     OW55406   3.639   7.879   2.188  0.0743  0.2398 -0.0714
17335SOL    HW155407   3.668   7.935   2.116 -0.3125  0.6274  0.0666
17335SOL    HW255408   3.546   7.900   2.198  0.0773  0.0345  0.3972
17336SOL     OW55409   3.436   8.811   3.696 -0.5910 -0.2514 -0.3449
17336SOL    HW155410   3.352   8.822   3.741  1.4054  1.6938  3.4699
17336SOL    HW255411   3.458   8.897   3.662  0.0156 -0.6536 -1.0197
17337SOL     OW55412   6.431  10.716   1.974  0.4470 -0.0867  0.6838
17337SOL    HW155413   6.435  10.649   2.042 -0.0721 -0.5453  0.2712
17337SOL    HW255414   6.360  10.688   1.916  0.3730  0.6986  0.3744
17338SOL     OW55415   0.018  10.533   2.593 -0.2237  0.1148  0.1452
17338SOL    HW155416  -0.005  10.441   2.608  0.0060  0.2318  1.3414
17338SOL    HW255417   0.094  10.529   2.534 -0.7839 -0.4180 -0.5555
17339SOL     OW55418   4.974   7.649   1.943  0.1058  0.2189  0.0265
17339SOL    HW155419   4.893   7.600   1.927 -0.1697  0.1685  1.4655
17339SOL    HW255420   4.960   7.733   1.900 -1.0777  0.5324  0.9697
17340SOL     OW55421   5.596   4.888   0.622  0.5318  0.4627 -0.0453
17340SOL    HW155422   5.674   4.936   0.650  0.7587  0.1086 -0.0572
17340SOL    HW255423   5.583   4.915   0.531  1.4703 -0.5233 -0.4976
17341SOL     OW55424  10.637   6.558   1.143 -0.2065 -0.3550 -0.0808
17341SOL    HW155425  10.580   6.631   1.118  1.3950  2.0207  2.5793
17341SOL    HW255426  10.724   6.583   1.110  0.6023 -0.3975  1.8730
17342SOL     OW55427   9.775   3.239   5.299 -0.0091  0.1486  0.3649
17342SOL    HW155428   9.815   3.167   5.347  0.7004 -0.2272 -0.7671
17342SOL    HW255429   9.833   3.314   5.314  0.6002 -0.1472 -0.4660
17343SOL     OW55430   7.301   4.491   5.178 -0.3544  0.0560  0.1573
17343SOL    HW155431   7.256   4.575   5.191  1.4888  1.5926 -2.3798
17343SOL    HW255432   7.257   4.453   5.101  0.9100  0.3048 -0.7079
17344SOL     OW55433   4.986   1.180   3.343  0.2162  0.4095  0.6475
17344SOL    HW155434   5.075   1.215   3.343 -0.0564  1.1193  0.1221
17344SOL    HW255435   4.956   1.192   3.434  0.9449 -0.6065  1.0318
17345SOL     OW55436   2.531   2.581   1.003  0.1393  0.1152 -0.1000
17345SOL    HW155437   2.607   2.528   0.981  0.7305  0.8150  0.2452
17345SOL    HW255438   2.459   2.538   0.956  0.8738 -0.0714 -1.0999
17346SOL     OW55439   2.166   4.196   0.613 -0.2873 -0.1635 -0.1806
17346SOL    HW155440   2.120   4.252   0.676 -1.4420 -0.5336 -0.6691
17346SOL    HW255441   2.155   4.241   0.529 -0.5956 -0.7493 -0.4586
17347SOL     OW55442   1.547   8.926   0.272  0.2756 -0.1279 -0.2449
17347SOL    HW155443   1.555   9.019   0.294 -1.1984 -0.2034  0.7561
17347SOL    HW255444   1.578   8.920   0.182  0.4529  1.3242 -0.3031
17348SOL     OW55445   3.280   5.857  10.260  0.0943  0.3059  0.0574
17348SOL    HW155446   3.246   5.858  10.349 -1.2370  1.1727 -0.4463
17348SOL    HW255447   3.233   5.927  10.214 -0.7991 -1.4525 -1.8902
17349SOL     OW55448   8.474   8.182   1.116 -0.6372 -0.2809  0.0284
17349SOL    HW155449   8.476   8.094   1.154 -0.9155 -2.2227 -3.9047
17349SOL    HW255450   8.503   8.169   1.025 -2.0574  3.4976 -1.1492
17350SOL     OW55451   7.228  10.214   3.717 -0.2133  0.4214  0.3632
17350SOL    HW155452   7.164  10.182   3.781 -1.2987  1.0604 -0.3649
17350SOL    HW255453   7.214  10.160   3.639 -0.9528  1.5596 -0.3267
17351SOL     OW55454  10.258   9.399   0.408  0.3851 -0.2459  0.1031
17351SOL    HW155455  10.341   9.352   0.403  0.1725 -0.5012 -1.3133
17351SOL    HW255456  10.230   9.408   0.317 -1.2822 -0.4143  0.5758
17352SOL     OW55457   4.097   0.539   9.097 -0.1021  0.5972 -0.2706
17352SOL    HW155458   4.045   0.549   9.177  1.5973 -1.4539  1.1948
17352SOL    HW255459   4.036   0.503   9.033 -0.6446 -1.5928  1.3515
17353SOL     OW55460   5.601   5.775   5.707 -0.1976 -0.3284  0.2757
17353SOL    HW155461   5.549   5.852   5.730  0.0058 -0.2225  0.3899
17353SOL    HW255462   5.538   5.704   5.701 -0.6561  0.2011 -1.6797
17354SOL     OW55463   4.672   3.779   5.126  0.8874  0.0130  0.1895
17354SOL    HW155464   4.582   3.747   5.118  0.4404  0.6532  2.1018
17354SOL    HW255465   4.700   3.752   5.213  1.9343  1.2841  0.2874
17355SOL     OW55466   2.363   4.590   2.955  0.8046 -0.3906  0.6424
17355SOL    HW155467   2.367   4.671   3.005 -1.1603 -0.0215  0.3166
17355SOL    HW255468   2.289   4.542   2.993  2.2913 -2.3297  1.2160
17356SOL     OW55469   6.492   1.169   4.718  0.2335 -0.1679 -0.4323
17356SOL    HW155470   6.440   1.089   4.725  0.3987 -0.2394  0.0043
17356SOL    HW255471   6.453   1.228   4.783  1.4874 -0.6655  0.8013
17357SOL     OW55472   0.399   0.953   1.019  0.1108 -0.4645  0.1582
17357SOL    HW155473   0.422   0.934   0.928 -2.1781  0.1166 -0.6061
17357SOL    HW255474   0.398   1.049   1.024 -0.0940 -0.4927  0.7259
17358SOL     OW55475   0.385   5.592   5.400  0.2033 -0.0828 -0.4284
17358SOL    HW155476   0.322   5.559   5.337 -0.0854 -1.7646  0.6598
17358SOL    HW255477   0.470   5.570   5.362  0.0293 -1.2210 -0.1937
17359SOL     OW55478   4.271   0.795   0.718  0.3595  0.4948  0.0328
17359SOL    HW155479   4.182   0.828   0.708 -0.0275 -0.6439 -0.4162
17359SOL    HW255480   4.299   0.826   0.804 -1.0082 -0.3329  0.8156
17360SOL     OW55481   4.953   2.053   4.831  0.4293  0.4848 -0.0084
17360SOL    HW155482   4.863   2.046   4.800  0.2038  0.2431  0.6790
17360SOL    HW255483   5.001   2.093   4.759 -0.6314  2.5205  0.3408
17361SOL     OW55484   1.719   0.969   7.589 -0.3668 -0.6417 -0.0783
17361SOL    HW155485   1.656   1.033   7.625 -0.0696  0.7351 -1.8284
17361SOL    HW255486   1.676   0.884   7.601 -2.0423  0.1429 -0.1106
17362SOL     OW55487   3.175   3.896   9.232  0.1549  0.3440 -0.2971
17362SOL    HW155488   3.131   3.843   9.299  0.0257  0.3263 -0.3966
17362SOL    HW255489   3.261   3.914   9.269  0.0512  0.4104 -0.0852
17363SOL     OW55490   1.611   9.145   8.814 -0.7992  0.3728  0.0065
17363SOL    HW155491   1.591   9.164   8.723 -0.6718 -0.5876 -0.2375
17363SOL    HW255492   1.561   9.065   8.833  2.2191 -1.8235 -0.4641
17364SOL     OW55493   9.065   7.739   4.522  0.3881  0.1031  0.7647
17364SOL    HW155494   9.022   7.664   4.565  0.4604 -0.4039 -0.0259
17364SOL    HW255495   8.995   7.803   4.510  0.0484 -0.3294  0.3631
17365SOL     OW55496   7.211   0.585  10.440  0.7631  0.4240  0.3958
17365SOL    HW155497   7.239   0.662  10.390 -0.0756 -0.7814 -2.0456
17365SOL    HW255498   7.117   0.598  10.453  0.8543  0.4077  1.1182
17366SOL     OW55499   7.555   4.971   9.288  0.3566 -0.1123  0.2166
17366SOL    HW155500   7.546   5.030   9.213  2.1352 -0.8763 -0.6612
17366SOL    HW255501   7.529   5.024   9.363 -1.2713  0.7461 -0.8794
17367SOL     OW55502   7.868   5.004   1.059  0.2820  0.0963  0.7184
17367SOL    HW155503   7.795   5.036   1.112 -0.2503  1.0925 -0.5476
17367SOL    HW255504   7.932   5.075   1.060 -0.3338  0.7453 -1.0340
17368SOL     OW55505   8.883   5.177   8.785  0.1735  0.1912 -0.5980
17368SOL    HW155506   8.832   5.114   8.734  0.3024  0.4216 -1.0195
17368SOL    HW255507   8.972   5.140   8.786  0.0672 -0.0507 -0.1362
17369SOL     OW55508   1.950   8.315   7.659 -0.0527  0.3402  0.1933
17369SOL    HW155509   2.028   8.266   7.632 -2.2428 -3.4821  0.0074
17369SOL    HW255510   1.924   8.275   7.742 -1.4817  1.9492  0.5829
17370SOL     OW55511   2.896   4.680  10.698  0.0567  0.4199  0.2437
17370SOL    HW155512   2.934   4.702  10.783 -1.0016  0.5872  0.6991
17370SOL    HW255513   2.926   4.750  10.640  0.3387  0.6100  0.6134
17371SOL     OW55514   0.849   7.254   6.425 -0.2270 -0.2160  0.5255
17371SOL    HW155515   0.850   7.159   6.414 -2.1938 -0.2205  0.1112
17371SOL    HW255516   0.761   7.281   6.400  0.6139  1.8647 -0.4776
17372SOL     OW55517  10.079   5.677  10.145 -0.2129  0.2165  0.2306
17372SOL    HW155518  10.001   5.629  10.172  0.4757 -0.5153  0.9770
17372SOL    HW255519  10.127   5.692  10.226  0.1578  1.1400 -0.1525
17373SOL     OW55520   3.352   8.792   6.771  0.0389 -0.0495 -0.6032
17373SOL    HW155521   3.343   8.808   6.677 -0.0840  1.6350 -0.3371
17373SOL    HW255522   3.326   8.701   6.782 -1.6959  0.2171 -1.9802
17374SOL     OW55523  10.387   5.079   8.546 -0.0781  0.1957 -0.6017
17374SOL    HW155524  10.416   5.147   8.606 -1.2123  0.0780  0.1028
17374SOL    HW255525  10.296   5.063   8.569 -0.2423 -0.5770 -1.6846
17375SOL     OW55526   5.635   3.766   3.383 -1.1176  0.4701  0.1422
17375SOL    HW155527   5.660   3.719   3.462 -1.3491  0.3609  0.1492
17375SOL    HW255528   5.681   3.850   3.390 -1.0723  0.4283  0.3517
17376SOL     OW55529  10.538   0.842   1.244 -0.2235  0.4648 -0.3140
17376SOL    HW155530  10.446   0.845   1.267  0.1597 -0.7430  1.5617
17376SOL    HW255531  10.543   0.885   1.158 -2.5288  0.3975 -0.5330
17377SOL     OW55532   3.208   4.742   5.647 -0.0176 -0.0294  0.2387
17377SOL    HW155533   3.297   4.778   5.646 -0.5183  1.2712  1.1489
17377SOL    HW255534   3.209   4.681   5.721  0.6607 -1.5421 -0.9560
17378SOL     OW55535   8.495   6.822   4.571  0.3266  0.3712  0.4658
17378SOL    HW155536   8.488   6.917   4.566 -2.2921  0.2012 -0.5422
17378SOL    HW255537   8.510   6.794   4.481  1.4566 -0.2078  0.8046
17379SOL     OW55538   6.399   8.833   4.127 -0.0199  0.1339 -0.0505
17379SOL    HW155539   6.318   8.863   4.086  0.1507 -0.3372 -0.7475
17379SOL    HW255540   6.439   8.775   4.062  1.3761  1.1440 -0.1486
17380SOL     OW55541   4.228   1.184   1.808 -0.2031 -0.1494  0.5026
17380SOL    HW155542   4.269   1.262   1.844 -1.5262  0.0589  1.6435
17380SOL    HW255543   4.229   1.120   1.879 -0.1540 -0.7831 -0.0551
17381SOL     OW55544   2.790   6.232   1.360  0.0902  0.0398 -0.5963
17381SOL    HW155545   2.745   6.300   1.409  0.9629  0.0328  0.2515
17381SOL    HW255546   2.745   6.151   1.385 -0.8970  0.2718 -1.5457
17382SOL     OW55547   6.910   7.625  10.485 -0.1716  0.0662 -0.1120
17382SOL    HW155548   6.942   7.553  10.430  0.7069  0.0609  0.3821
17382SOL    HW255549   6.879   7.691  10.423 -0.9664 -0.7161 -0.5728
17383SOL     OW55550   5.351   4.669   2.157  0.6425 -0.3357  0.0370
17383SOL    HW155551   5.443   4.685   2.137  0.5261 -1.2612 -1.4521
17383SOL    HW255552   5.331   4.588   2.110 -0.4669 -1.1476  1.8410
17384SOL     OW55553   9.206   0.274   2.580 -0.4556  0.3024  0.1061
17384SOL    HW155554   9.202   0.352   2.524 -1.9247 -0.4752 -0.9480
17384SOL    HW255555   9.116   0.260   2.607 -0.1911 -0.9666  0.3742
17385SOL     OW55556   3.542   2.103   9.308 -0.6148 -0.1377 -0.5553
17385SOL    HW155557   3.633   2.123   9.289 -0.3718 -0.7710 -0.0611
17385SOL    HW255558   3.511   2.055   9.231 -0.5375  0.0752 -0.7213
17386SOL     OW55559   2.764   9.508   4.068 -0.1563 -0.0230  0.2994
17386SOL    HW155560   2.818   9.429   4.075  1.1917  0.6457 -1.5477
17386SOL    HW255561   2.682   9.485   4.110  0.5022 -2.1243  0.5488
17387SOL     OW55562   5.185  10.691   0.138 -0.3015 -0.8074  0.3719
17387SOL    HW155563   5.094  10.692   0.109 -0.6100  0.1598  1.2871
17387SOL    HW255564   5.212  10.600   0.129 -0.6691 -0.7470 -1.9395
17388SOL     OW55565   1.165   7.063  10.538 -0.0729  0.2017 -0.1829
17388SOL    HW155566   1.184   6.993  10.475 -0.8848 -0.4871  0.3178
17388SOL    HW255567   1.221   7.136  10.510 -0.0718 -0.2449 -1.4198
17389SOL     OW55568   2.474   1.758   4.423 -0.2201 -0.4426  0.3633
17389SOL    HW155569   2.429   1.682   4.460 -1.2480  0.0208  0.0804
17389SOL    HW255570   2.406   1.824   4.411  0.6928  0.6009  0.7587
17390SOL     OW55571   4.886   4.074   7.935  0.9577 -0.2171  0.0212
17390SOL    HW155572   4.883   3.988   7.976  1.2255 -0.7972 -1.1591
17390SOL    HW255573   4.809   4.076   7.878 -0.7630  1.4800  2.2305
17391SOL     OW55574   0.997   5.083   6.680  0.3966 -0.5097  0.0411
17391SOL    HW155575   0.950   5.004   6.704 -0.1937 -0.2932 -0.3914
17391SOL    HW255576   1.090   5.058   6.683  0.5077 -0.2017  3.7191
17392SOL     OW55577   1.790   6.673   9.887 -0.1219 -0.5440  0.1640
17392SOL    HW155578   1.698   6.647   9.889 -0.4631  0.6111  0.9102
17392SOL    HW255579   1.787   6.769   9.889  1.1030 -0.4976  0.4383
17393SOL     OW55580   8.043   9.613   5.191  0.2436 -0.3030 -0.1933
17393SOL    HW155581   8.013   9.692   5.146  0.6662  1.3469  2.2008
17393SOL    HW255582   7.981   9.603   5.264  0.8068 -1.5868  0.1227
17394SOL     OW55583   2.488   9.094   9.427  0.4477 -0.4585  0.3486
17394SOL    HW155584   2.434   9.030   9.381  1.0167  0.3093 -1.5119
17394SOL    HW255585   2.442   9.110   9.509 -2.0988  0.0416 -1.0661
17395SOL     OW55586   5.808   5.874   8.623 -0.3632 -0.5261 -0.4136
17395SOL    HW155587   5.903   5.867   8.631 -0.2147  0.4829 -1.1805
17395SOL    HW255588   5.778   5.783   8.621  0.6550 -0.8717 -0.9160
17396SOL     OW55589   6.879   9.736  10.186 -0.0956  0.0984  0.4800
17396SOL    HW155590   6.946   9.788  10.140  0.6262 -0.7013  0.6072
17396SOL    HW255591   6.811   9.800  10.208  0.3603  0.8243 -0.1509
17397SOL     OW55592   1.586   8.410   7.773  0.5525  0.0613  0.3255
17397SOL    HW155593   1.657   8.474   7.773 -1.4580  2.4425 -0.7975
17397SOL    HW255594   1.560   8.403   7.865  1.9817 -0.6117  0.7088
17398SOL     OW55595   8.787   9.294   8.730 -0.6087  0.3926  0.0669
17398SOL    HW155596   8.722   9.364   8.719  1.0964  2.0308 -0.2233
17398SOL    HW255597   8.826   9.311   8.816 -0.7619 -0.7621  0.3813
17399SOL     OW55598   9.259   9.116   0.540  0.0230 -0.3186  0.4533
17399SOL    HW155599   9.239   9.082   0.452  0.5101  2.4907 -0.8794
17399SOL    HW255600   9.354   9.122   0.542 -0.0090  0.0038  1.0104
17400SOL     OW55601   7.871   5.160   3.581  0.1653  0.4383 -0.5126
17400SOL    HW155602   7.885   5.148   3.487 -0.8206 -0.4627 -0.5706
17400SOL    HW255603   7.779   5.186   3.588  0.3212  0.8163  0.1747
17401SOL     OW55604   5.983   8.107   9.855 -0.0243  0.0139  0.4210
17401SOL    HW155605   5.995   8.064   9.940  0.1056 -0.0232  0.3841
17401SOL    HW255606   5.892   8.138   9.857  0.0604  0.2472  0.6789
17402SOL     OW55607   7.234   1.928   4.901 -0.2082  0.2553  0.0563
17402SOL    HW155608   7.176   1.912   4.975 -0.9442  0.7244 -0.4077
17402SOL    HW255609   7.280   1.845   4.887 -0.9614 -0.1950  0.2588
17403SOL     OW55610   8.411   2.551   3.172 -0.9522  0.1751 -0.0902
17403SOL    HW155611   8.393   2.458   3.185 -0.2072  0.1611  0.9596
17403SOL    HW255612   8.472   2.554   3.098 -0.9010 -0.1823 -0.0621
17404SOL     OW55613  10.292   6.850   4.373 -0.6488  0.3452 -0.2232
17404SOL    HW155614  10.242   6.769   4.359 -0.0243 -0.3259  1.2261
17404SOL    HW255615  10.382   6.820   4.387 -0.8848  0.9499  3.4122
17405SOL     OW55616   4.774   7.052  10.044  0.4644 -0.3020 -0.0445
17405SOL    HW155617   4.758   6.992  10.116  2.5323  1.4807  2.0300
17405SOL    HW255618   4.820   7.126  10.083 -0.2412  1.7899 -2.8164
17406SOL     OW55619   0.820   7.695   9.932 -0.3913 -1.0158 -0.4378
17406SOL    HW155620   0.889   7.746   9.889 -1.8436  1.9564  0.4385
17406SOL    HW255621   0.794   7.630   9.868  1.2597 -0.3588 -1.8580
17407SOL     OW55622   5.087   7.791  10.868 -0.1461 -0.3326  0.3676
17407SOL    HW155623   5.123   7.849  10.935 -3.3565  0.8821  1.2394
17407SOL    HW255624   5.052   7.716  10.917 -0.2534 -0.6764 -0.2218
17408SOL     OW55625   7.389   3.441   3.838 -0.2337 -0.2966  0.3968
17408SOL    HW155626   7.449   3.426   3.765 -1.2102  0.2623 -0.5696
17408SOL    HW255627   7.364   3.353   3.867  0.8456 -0.5265  0.6547
17409SOL     OW55628   0.761   1.786  10.586  0.2207 -0.2944 -0.4604
17409SOL    HW155629   0.784   1.850  10.518  1.6428  2.1586  2.0925
17409SOL    HW255630   0.838   1.730  10.593 -0.4329 -1.3864 -1.6727
17410SOL     OW55631   7.658   9.238   0.256 -0.1767 -0.0134  0.1192
17410SOL    HW155632   7.569   9.259   0.229 -0.5752 -1.2260  0.4271
17410SOL    HW255633   7.654   9.234   0.352  0.2596  0.1396  0.1466
17411SOL     OW55634   3.399   0.355  10.632  0.1940 -0.2856 -0.2582
17411SOL    HW155635   3.311   0.370  10.599  0.1266  0.0390  0.0638
17411SOL    HW255636   3.389   0.283  10.695  0.0031  0.3176  0.4211
17412SOL     OW55637   0.503   9.192   9.198  0.5050 -0.4911  0.5026
17412SOL    HW155638   0.595   9.166   9.195  0.2692 -1.2320 -2.2693
17412SOL    HW255639   0.503   9.286   9.179  0.6669 -0.5998 -0.0439
17413SOL     OW55640  10.809   8.171   9.460  0.1067 -0.4387  0.9724
17413SOL    HW155641  10.780   8.186   9.370  1.5637 -0.1675  0.5239
17413SOL    HW255642  10.862   8.092   9.455  1.8284  0.6654  1.2109
17414SOL     OW55643   8.897   6.098   5.323  0.1437 -0.3580 -0.1276
17414SOL    HW155644   8.968   6.078   5.384 -1.5624 -1.6222  1.5961
17414SOL    HW255645   8.855   6.013   5.308 -0.7152  0.2808 -1.4943
17415SOL     OW55646   3.124   8.603   3.699  0.3771 -0.0812  0.0869
17415SOL    HW155647   3.106   8.640   3.613  0.7360  0.1814  0.1227
17415SOL    HW255648   3.141   8.679   3.755  0.7957 -0.2795  0.2360
17416SOL     OW55649   1.141   6.819   1.374  0.4383 -0.3988  0.0667
17416SOL    HW155650   1.166   6.728   1.392 -0.1534 -0.7431 -0.8000
17416SOL    HW255651   1.098   6.848   1.454  5.0218  0.8176  2.4178
17417SOL     OW55652   2.211   2.613   0.382 -0.0783  0.2641  0.5690
17417SOL    HW155653   2.159   2.666   0.322  1.5162  0.1105 -1.0598
17417SOL    HW255654   2.194   2.523   0.356  0.2712  0.1726  0.6390
17418SOL     OW55655   0.857   5.803   8.001  0.3413 -0.4689  0.1102
17418SOL    HW155656   0.796   5.773   8.068  2.0159 -1.9811  1.0315
17418SOL    HW255657   0.813   5.879   7.962 -1.5651 -0.7489  1.5344
17419SOL     OW55658   1.821   9.804   6.250  0.0311  0.1819 -0.3105
17419SOL    HW155659   1.841   9.715   6.280 -1.2262  0.1145  0.3755
17419SOL    HW255660   1.783   9.792   6.163  2.6439  0.2995 -1.5507
17420SOL     OW55661   0.064   3.399   6.389 -0.2803  0.2010  0.2123
17420SOL    HW155662   0.009   3.357   6.323  2.8940 -2.2501 -1.1037
17420SOL    HW255663   0.045   3.492   6.380 -1.8368 -0.2601 -2.3497
17421SOL     OW55664   5.522   3.656  10.693  0.3779 -0.5281 -0.1250
17421SOL    HW155665   5.527   3.637  10.599 -1.6687  1.8699 -0.8476
17421SOL    HW255666   5.428   3.653  10.712  0.7169 -0.3153  1.7008
17422SOL     OW55667   9.603   4.881   5.719 -0.1489 -0.1715  0.4285
17422SOL    HW155668   9.554   4.811   5.762  3.0027 -2.6585  0.2784
17422SOL    HW255669   9.568   4.883   5.630 -0.1299 -1.7733  0.3536
17423SOL     OW55670   7.274   9.855   1.877  0.5029  0.7899 -0.0765
17423SOL    HW155671   7.326   9.834   1.955  2.6888 -1.5904 -1.9856
17423SOL    HW255672   7.232   9.772   1.854  0.8608  1.1050 -2.0282
17424SOL     OW55673   7.159   1.450   0.138 -0.1714 -0.6847 -0.3032
17424SOL    HW155674   7.254   1.443   0.126 -0.1551 -0.3026 -0.3998
17424SOL    HW255675   7.148   1.482   0.227 -0.2094 -0.6605 -0.3167
17425SOL     OW55676   0.416   3.242  10.804  0.6667  0.1240 -0.0286
17425SOL    HW155677   0.426   3.318  10.745  0.0473  0.5054  0.3425
17425SOL    HW255678   0.466   3.173  10.762 -1.3315 -0.2064 -2.0773
17426SOL     OW55679   7.397   5.122   7.886  0.1004 -0.3991 -0.5033
17426SOL    HW155680   7.419   5.170   7.806  0.6262 -0.1188 -0.1954
17426SOL    HW255681   7.301   5.127   7.891  0.1153  0.2127 -0.7233
17427SOL     OW55682   3.956   8.099   9.358 -0.2671  0.0829  0.5676
17427SOL    HW155683   3.985   8.016   9.320 -1.1765  0.8557 -2.0796
17427SOL    HW255684   3.865   8.084   9.384 -0.0014 -0.1258  1.3837
17428SOL     OW55685   2.523   8.435  10.078  0.4376 -0.6278  0.0428
17428SOL    HW155686   2.519   8.459  10.170  1.2818  1.8172 -0.4854
17428SOL    HW255687   2.482   8.508  10.032 -0.2029 -1.9175 -1.5166
17429SOL     OW55688   1.879   3.845   7.898  0.0950  0.1691  0.5566
17429SOL    HW155689   1.847   3.927   7.861 -2.4051 -1.1205 -0.3793
17429SOL    HW255690   1.862   3.780   7.830  0.4397 -1.4117  1.9224
17430SOL     OW55691   0.778   0.806   1.393 -0.3132  0.4149  0.1494
17430SOL    HW155692   0.795   0.713   1.408  0.5271  0.5464  0.0374
17430SOL    HW255693   0.857   0.838   1.349 -1.4363  0.6954 -1.8155
17431SOL     OW55694  10.733   5.504   9.204  0.1717 -0.2085 -0.4418
17431SOL    HW155695  10.789   5.476   9.276 -0.6985 -0.0897  0.3001
17431SOL    HW255696  10.768   5.589   9.177 -1.2209  1.1792  1.8160
17432SOL     OW55697   0.745   2.566   7.346 -0.2727 -0.3795 -0.3319
17432SOL    HW155698   0.721   2.513   7.270  1.2602 -1.2816 -0.2274
17432SOL    HW255699   0.740   2.505   7.420 -0.8954  0.2734  0.1847
17433SOL     OW55700   0.554   6.768   8.080 -0.3825 -0.2626  0.0097
17433SOL    HW155701   0.538   6.827   8.006 -0.1471  1.3514  1.1713
17433SOL    HW255702   0.523   6.817   8.156  2.9620 -0.1142  1.4576
17434SOL     OW55703   8.568   9.046   4.684  0.6619 -0.3552 -0.2074
17434SOL    HW155704   8.598   9.034   4.773  1.1328  1.2350 -0.1350
17434SOL    HW255705   8.647   9.064   4.633  0.0841  2.8626 -0.1850
17435SOL     OW55706   1.622   5.460   4.742  0.1236  0.0816 -0.6968
17435SOL    HW155707   1.601   5.384   4.797 -0.9769  0.1775 -0.9654
17435SOL    HW255708   1.565   5.530   4.773  2.4163  1.4105  0.7887
17436SOL     OW55709  10.534   2.272   4.952  0.2709  0.0823  0.1180
17436SOL    HW155710  10.623   2.303   4.935 -0.5542  1.6089 -1.8242
17436SOL    HW255711  10.533   2.183   4.916  0.8762  0.2683 -0.3891
17437SOL     OW55712   6.132   9.151   8.843  0.1857 -0.1673  0.4835
17437SOL    HW155713   6.094   9.218   8.787 -0.5212 -0.2703  0.8339
17437SOL    HW255714   6.101   9.172   8.931  1.2889  0.0019  0.8567
17438SOL     OW55715   9.524   6.351   6.811 -0.4154  0.3371 -0.0343
17438SOL    HW155716   9.465   6.387   6.878 -2.0501  0.0601 -1.2576
17438SOL    HW255717   9.581   6.424   6.787  0.1689  0.4522  1.5902
17439SOL     OW55718   0.065   2.458   8.921  0.1420 -0.0693  0.1090
17439SOL    HW155719   0.027   2.427   9.003 -1.2549 -0.2832 -0.5779
17439SOL    HW255720   0.139   2.513   8.947  0.8065 -1.5372  1.4423
17440SOL     OW55721   8.367   0.073   2.815  0.1714  0.4315  0.4492
17440SOL    HW155722   8.339   0.050   2.903 -1.0291 -2.2252 -0.5271
17440SOL    HW255723   8.459   0.046   2.812  0.0423 -0.0600  0.7243
17441SOL     OW55724   3.158  10.467   6.425 -0.1378 -0.7761 -0.0386
17441SOL    HW155725   3.194  10.461   6.336 -1.9389  0.6820 -0.9514
17441SOL    HW255726   3.080  10.523   6.415  0.8718  1.3769  2.8476
17442SOL     OW55727   1.599   0.923  10.245 -0.2147 -0.4724  0.8003
17442SOL    HW155728   1.631   0.919  10.335  1.9032 -1.7202  0.0524
17442SOL    HW255729   1.567   1.013  10.235 -1.3226 -0.5430  3.0107
17443SOL     OW55730   9.759   5.615   1.501  0.6437 -0.0535  0.2965
17443SOL    HW155731   9.745   5.691   1.445  1.1188 -0.3128 -0.1789
17443SOL    HW255732   9.757   5.650   1.590 -0.3287  0.3273  0.1346
17444SOL     OW55733   8.259   4.637   0.600 -0.1467 -0.0641 -0.1562
17444SOL    HW155734   8.320   4.700   0.561 -0.7248 -0.2411 -1.3858
17444SOL    HW255735   8.227   4.586   0.526 -1.5800 -0.1526  0.5004
17445SOL     OW55736   8.076   6.585   0.577  0.1472 -0.3968 -0.6787
17445SOL    HW155737   7.994   6.538   0.569  1.3709 -2.6450 -0.7809
17445SOL    HW255738   8.142   6.524   0.545  1.9346  1.0977 -0.0337
17446SOL     OW55739   9.130   6.900   3.340  0.5520 -0.1633 -0.3019
17446SOL    HW155740   9.139   6.914   3.435 -0.1539 -0.3562 -0.2007
17446SOL    HW255741   9.153   6.808   3.327 -0.1124 -0.3490 -0.2022
17447SOL     OW55742   7.061   7.677   4.866 -0.6644  0.6145  0.2877
17447SOL    HW155743   6.979   7.725   4.870 -0.7674  0.4975 -0.4497
17447SOL    HW255744   7.123   7.737   4.824 -1.0244 -0.1920 -1.4814
17448SOL     OW55745   8.506   1.936  10.656 -0.3613 -0.5077 -0.7199
17448SOL    HW155746   8.480   1.973  10.740 -0.4285 -0.2654 -0.8473
17448SOL    HW255747   8.484   1.844  10.662  0.5773 -0.7013 -0.0849
17449SOL     OW55748   8.407   8.905   8.004  0.3679  0.1579  0.3394
17449SOL    HW155749   8.399   8.972   7.936 -1.1360  0.0576  0.3867
17449SOL    HW255750   8.394   8.822   7.958 -0.3953  0.0727  0.6851
17450SOL     OW55751   6.482   4.601   4.863  0.2796 -0.0239 -0.2014
17450SOL    HW155752   6.498   4.683   4.911 -1.7581  0.1337  0.2922
17450SOL    HW255753   6.504   4.532   4.926  2.0883  0.0714 -0.6470
17451SOL     OW55754   3.421   2.647   6.467 -0.7525 -0.2735  0.2203
17451SOL    HW155755   3.352   2.581   6.454 -0.6812 -0.4793  0.8324
17451SOL    HW255756   3.462   2.621   6.550 -1.1320  0.8904  0.7926
17452SOL     OW55757   0.482   5.489   6.726  0.1240 -0.1912  0.0815
17452SOL    HW155758   0.557   5.543   6.753 -0.2676  0.8195 -0.7880
17452SOL    HW255759   0.503   5.462   6.637  0.0368 -1.0045  0.3006
17453SOL     OW55760   3.909   6.150   7.549  0.1445 -0.0075 -0.1451
17453SOL    HW155761   3.982   6.104   7.589 -1.2769 -2.0609  0.2780
17453SOL    HW255762   3.905   6.115   7.460  0.7028  1.3868 -0.7400
17454SOL     OW55763   8.324   8.933   8.850  0.1863 -0.2173 -0.0617
17454SOL    HW155764   8.282   8.859   8.806 -1.0203  1.5633 -2.1264
17454SOL    HW255765   8.280   9.010   8.814  2.1351  1.5841  1.1672
17455SOL     OW55766   2.553   5.828   3.502  0.3757 -0.2744 -0.4006
17455SOL    HW155767   2.632   5.806   3.453  0.6784  1.2374 -0.6287
17455SOL    HW255768   2.505   5.745   3.507  2.0361 -1.2623 -0.1035
17456SOL     OW55769   4.506   6.033   7.241 -0.0158 -0.2177  0.3956
17456SOL    HW155770   4.596   6.004   7.224 -0.2388 -1.1756  0.7572
17456SOL    HW255771   4.505   6.125   7.216  1.0308 -0.2325  0.2514
17457SOL     OW55772   8.985   7.883   3.811 -0.1594  0.2635  0.0772
17457SOL    HW155773   9.021   7.821   3.874  1.8565  2.1767  0.9245
17457SOL    HW255774   8.974   7.832   3.730 -1.1624 -1.8008  1.4437
17458SOL     OW55775   6.337   4.408   6.785  0.6452 -0.6090 -0.0837
17458SOL    HW155776   6.275   4.335   6.788  1.0374 -0.9817 -0.8130
17458SOL    HW255777   6.395   4.388   6.712  1.8511 -0.4370  0.7990
17459SOL     OW55778   3.749   1.065   8.135 -0.2198 -0.2537  0.4491
17459SOL    HW155779   3.665   1.023   8.119 -0.4713  0.1587  0.6615
17459SOL    HW255780   3.755   1.070   8.231  0.6294 -1.4370  0.4841
17460SOL     OW55781   1.546   4.049   3.954  0.3404  0.3578  0.1422
17460SOL    HW155782   1.537   4.092   4.039  2.0329 -1.8923  1.6020
17460SOL    HW255783   1.641   4.048   3.938  0.5949 -3.5182  0.7731
17461SOL     OW55784   5.912  10.057   9.365 -0.0536  0.3507 -0.1767
17461SOL    HW155785   5.981  10.114   9.398 -1.2645  1.7215  0.0531
17461SOL    HW255786   5.948   9.968   9.374  1.3768  0.9844  0.6111
17462SOL     OW55787   6.340   2.542  10.238 -0.1402 -0.8301  0.0492
17462SOL    HW155788   6.312   2.631  10.218 -0.7537 -1.1792 -0.7191
17462SOL    HW255789   6.363   2.544  10.331 -0.3084  0.0828  0.0781
17463SOL     OW55790   4.196   5.617   7.260 -0.4234  0.0233  0.2763
17463SOL    HW155791   4.255   5.544   7.279 -3.5667 -2.4847  1.2526
17463SOL    HW255792   4.192   5.621   7.164  1.4985  0.4946  0.1852
17464SOL     OW55793   9.516   2.280   9.335 -0.5008 -0.0402 -0.8643
17464SOL    HW155794   9.518   2.365   9.290 -0.9266  0.6046  0.2790
17464SOL    HW255795   9.566   2.221   9.279 -1.2529  0.6580 -2.3087
17465SOL     OW55796   0.472   1.057   3.972  0.1883  0.1082 -0.2456
17465SOL    HW155797   0.454   1.030   3.882  0.7548 -0.5563 -0.1656
17465SOL    HW255798   0.567   1.058   3.979  0.1576 -0.6997  0.5808
17466SOL     OW55799   1.467   5.001   0.749 -0.3379 -0.7033  0.0700
17466SOL    HW155800   1.454   5.090   0.716 -2.4841 -1.1818 -0.5658
17466SOL    HW255801   1.464   5.009   0.844 -1.8046 -0.2037  0.0089
17467SOL     OW55802   9.127   9.330   8.684  0.3818 -0.2693 -0.0430
17467SOL    HW155803   9.214   9.369   8.682  0.0895  0.4013 -0.1298
17467SOL    HW255804   9.107   9.311   8.592 -0.6694  2.1653 -0.3937
17468SOL     OW55805   9.155  10.015   7.686 -0.2953  0.2678  0.4760
17468SOL    HW155806   9.109   9.952   7.740 -1.0383  1.8571  1.7771
17468SOL    HW255807   9.148  10.098   7.733  0.8765  1.2952 -1.0214
17469SOL     OW55808   9.459   1.050   6.182  0.0104  0.4191  0.1611
17469SOL    HW155809   9.372   1.057   6.142 -0.0255  0.5774  0.2656
17469SOL    HW255810   9.471   1.134   6.228  0.0983  0.2826  0.3883
17470SOL     OW55811   4.877   0.341   6.529  0.3255 -0.1930  0.4433
17470SOL    HW155812   4.894   0.416   6.587  0.6846 -0.2166  0.3726
17470SOL    HW255813   4.785   0.318   6.545 -0.7528  2.1385 -1.6652
17471SOL     OW55814   4.263   1.118   1.526  0.0171  0.1477  0.1596
17471SOL    HW155815   4.213   1.048   1.483 -0.6138  0.7059 -0.0428
17471SOL    HW255816   4.287   1.082   1.611  1.8883 -1.2396 -0.8807
17472SOL     OW55817   0.316  10.368   1.064  0.0068  0.5920 -0.3588
17472SOL    HW155818   0.299  10.459   1.089  1.0879  1.1148 -1.4215
17472SOL    HW255819   0.317  10.320   1.146 -0.6510  1.5191  0.2150
17473SOL     OW55820  10.458   5.577   0.563  0.3071  0.4025  0.1812
17473SOL    HW155821  10.515   5.559   0.488  1.7405  1.6013  0.9319
17473SOL    HW255822  10.512   5.559   0.640 -1.3131 -1.3981  1.0101
17474SOL     OW55823   0.717   9.473   4.147  0.7574 -0.7104 -0.0999
17474SOL    HW155824   0.705   9.513   4.061  0.7133  0.2335  0.3355
17474SOL    HW255825   0.733   9.381   4.129  1.0550 -0.4619 -1.1361
17475SOL     OW55826   5.073   4.332   3.611  0.6613  0.2688  0.2207
17475SOL    HW155827   5.151   4.300   3.566  0.2301 -1.0663  0.3986
17475SOL    HW255828   5.084   4.428   3.612  0.4896  0.4064 -3.0648
17476SOL     OW55829   0.467   4.037  10.482 -0.4359  0.5214 -0.4564
17476SOL    HW155830   0.423   4.121  10.475  0.2266  0.9408  0.1506
17476SOL    HW255831   0.512   4.041  10.567 -1.7028 -1.0769  0.3378
17477SOL     OW55832   1.289   8.381   6.467 -0.2965  0.1058  0.1909
17477SOL    HW155833   1.383   8.402   6.460 -0.2014 -0.1427  0.7091
17477SOL    HW255834   1.245   8.462   6.442  0.0422 -0.0414 -0.9717
17478SOL     OW55835   9.597   9.165   1.449  0.2008  0.5555 -0.0224
17478SOL    HW155836   9.656   9.175   1.524 -1.6409  2.5751  1.3102
17478SOL    HW255837   9.613   9.243   1.396  0.4842 -0.1557 -1.0034
17479SOL     OW55838   8.055  10.387   4.658  0.1184  0.2428  0.1674
17479SOL    HW155839   8.015  10.382   4.571 -1.9081  1.4926  0.9596
17479SOL    HW255840   7.985  10.361   4.718  0.7919  1.5369  1.5766
17480SOL     OW55841   1.673   2.430   3.351 -0.1555 -0.0725 -0.2495
17480SOL    HW155842   1.714   2.350   3.319  0.0597 -0.4568  0.9186
17480SOL    HW255843   1.585   2.430   3.313  0.7065  0.4723 -2.3266
17481SOL     OW55844   1.035   1.838   6.374 -0.6424  0.3745 -0.0668
17481SOL    HW155845   1.073   1.755   6.401 -1.3049 -0.3506 -1.2946
17481SOL    HW255846   1.094   1.904   6.411  0.8405 -0.6623 -0.4731
17482SOL     OW55847   5.042   2.260   1.903 -0.3241 -0.4856  0.2800
17482SOL    HW155848   5.120   2.292   1.857  0.1216  0.2500  1.5080
17482SOL    HW255849   5.064   2.269   1.996 -2.5644  1.4934  0.6996
17483SOL     OW55850   8.260   5.389  10.398 -0.0830 -0.1249 -0.1241
17483SOL    HW155851   8.247   5.338  10.478 -1.3087  2.7643  1.6891
17483SOL    HW255852   8.192   5.358  10.339 -2.5973  1.0671  1.9234
17484SOL     OW55853   6.768   6.546   8.653 -0.0410 -0.2255  0.0280
17484SOL    HW155854   6.758   6.640   8.637  0.9519 -0.1373 -0.1336
17484SOL    HW255855   6.712   6.505   8.587 -0.2247  0.2497 -0.1188
17485SOL     OW55856   7.139   4.590   1.616 -0.3215  0.2597 -0.7122
17485SOL    HW155857   7.070   4.641   1.660 -1.4820  0.1950 -2.3772
17485SOL    HW255858   7.130   4.613   1.524 -1.5335 -3.6045 -1.7489
17486SOL     OW55859   8.872   6.790   8.337  0.0767  0.0060  1.0824
17486SOL    HW155860   8.802   6.735   8.372  1.1392 -0.3470  2.7686
17486SOL    HW255861   8.903   6.744   8.259 -2.0546  0.5805 -0.2022
17487SOL     OW55862   5.461   9.242   1.716  0.2412 -0.2640 -0.1866
17487SOL    HW155863   5.500   9.317   1.671  1.6432 -0.9686 -0.2151
17487SOL    HW255864   5.474   9.260   1.809  0.2568 -0.3021 -0.1814
17488SOL     OW55865   1.992   2.807   1.887 -0.2112 -0.2543 -0.0133
17488SOL    HW155866   1.980   2.728   1.939  0.4599 -0.1767  0.2622
17488SOL    HW255867   1.962   2.878   1.943  1.7874 -0.0150  0.8339
17489SOL     OW55868   1.408   9.094   7.430 -0.0088  0.2158 -0.0099
17489SOL    HW155869   1.416   9.132   7.518 -0.1465 -1.0819  0.5762
17489SOL    HW255870   1.382   9.003   7.445  1.7335 -0.5526 -1.3164
17490SOL     OW55871   4.941   6.748  10.536  0.0029  0.0455 -0.0661
17490SOL    HW155872   4.888   6.698  10.474  1.1142 -0.6814 -0.4590
17490SOL    HW255873   4.941   6.695  10.616  0.8388 -0.3894 -0.3475
17491SOL     OW55874   7.620  10.462   3.986  0.5444  0.0591  0.4544
17491SOL    HW155875   7.616  10.405   4.062  1.2479  0.3292  0.7044
17491SOL    HW255876   7.571  10.416   3.918  0.4013 -0.4469  0.8977
17492SOL     OW55877   9.834   7.418   6.834  0.3202 -0.8153 -0.7383
17492SOL    HW155878   9.754   7.417   6.783  0.2485  1.4257 -0.7338
17492SOL    HW255879   9.837   7.505   6.874  1.5051 -1.7004  1.2657
17493SOL     OW55880   4.038   6.568   4.792  0.4596 -0.3416  0.0012
17493SOL    HW155881   4.109   6.619   4.831 -1.3767  0.1057  3.0922
17493SOL    HW255882   4.035   6.487   4.843 -2.3124  0.4265  1.2794
17494SOL     OW55883   9.461   1.006  10.471  0.0352 -0.1836 -0.3472
17494SOL    HW155884   9.406   0.937  10.506 -0.2809 -0.0534 -0.5810
17494SOL    HW255885   9.505   1.043  10.547  1.6458 -1.8625 -0.4050
17495SOL     OW55886  10.209   5.635   6.601  0.1920 -0.5332  0.4450
17495SOL    HW155887  10.169   5.712   6.561 -0.9176  0.0970  2.6002
17495SOL    HW255888  10.139   5.570   6.603 -0.3948  0.0619  2.8646
17496SOL     OW55889   8.834   9.345   5.561  0.3063  0.0202 -0.2378
17496SOL    HW155890   8.767   9.408   5.585  0.8152  0.1393  0.9812
17496SOL    HW255891   8.788   9.261   5.557  0.0749  0.0921  0.6502
17497SOL     OW55892   3.975   6.585   1.122 -0.0996  0.0167 -0.3363
17497SOL    HW155893   4.025   6.524   1.177 -0.7385 -1.3293 -1.1704
17497SOL    HW255894   3.973   6.542   1.036 -1.5882  0.6630 -0.6441
17498SOL     OW55895   3.993   4.292  10.828 -0.0540  0.3640  0.5324
17498SOL    HW155896   4.012   4.257  10.742  0.9554  1.3776  0.3247
17498SOL    HW255897   4.069   4.268  10.882 -0.2324  0.5780  0.8863
17499SOL     OW55898   0.403   9.650   3.900  0.2913 -0.0354 -0.1790
17499SOL    HW155899   0.483   9.620   3.943  1.5023  0.1578 -2.2180
17499SOL    HW255900   0.370   9.573   3.854  0.4551  0.3814 -1.0186
17500SOL     OW55901   8.989  10.790   8.367  0.1118 -0.1956  0.1964
17500SOL    HW155902   8.913  10.845   8.389  2.4283  3.4012 -0.0258
17500SOL    HW255903   8.992  10.725   8.437 -3.0274 -0.3920  0.2948
17501SOL     OW55904   3.658   8.440   4.138  0.3922  0.3919  0.3661
17501SOL    HW155905   3.656   8.495   4.059 -0.6006  0.5000  0.4567
17501SOL    HW255906   3.672   8.502   4.210  2.5217  0.1711  0.1928
17502SOL     OW55907   9.232  10.639   8.908 -0.3896 -0.7305 -0.3402
17502SOL    HW155908   9.197  10.716   8.863 -0.7036 -1.4594 -1.3932
17502SOL    HW255909   9.327  10.646   8.896 -0.5222 -1.6491 -2.4719
17503SOL     OW55910   2.693   3.153   7.390 -0.3018  0.2749  0.2028
17503SOL    HW155911   2.682   3.154   7.485 -1.8006 -0.7585  0.0629
17503SOL    HW255912   2.654   3.236   7.361  0.6534  0.8545  0.5006
17504SOL     OW55913   4.964   7.878   5.929 -0.1351 -0.3982 -0.1215
17504SOL    HW155914   5.056   7.863   5.906  0.5846  0.1786  2.0925
17504SOL    HW255915   4.959   7.972   5.946 -0.8025 -0.6391  1.0845
17505SOL     OW55916   9.865   8.071   2.912 -0.1757 -0.4024  0.1620
17505SOL    HW155917   9.859   8.028   2.998  0.3096  1.0673  0.9638
17505SOL    HW255918   9.959   8.088   2.901 -0.3939  0.8045  0.0612
17506SOL     OW55919   1.834   5.157   3.939  0.2240  0.6887  0.1455
17506SOL    HW155920   1.919   5.152   3.983  0.4021 -1.8482 -0.3359
17506SOL    HW255921   1.851   5.208   3.860  1.1504  0.7500  0.3717
17507SOL     OW55922   4.368   3.035   6.835 -0.0722  0.1454 -0.3288
17507SOL    HW155923   4.398   2.944   6.836  2.1431  0.7669 -1.9805
17507SOL    HW255924   4.297   3.037   6.771  1.6012 -0.0206 -2.2823
17508SOL     OW55925   6.809   3.192   3.885  0.1946  0.2479 -0.0888
17508SOL    HW155926   6.821   3.190   3.980  0.0585 -0.3103 -0.0796
17508SOL    HW255927   6.836   3.280   3.860  0.6553  0.2585  0.4097
17509SOL     OW55928   2.375   8.263   1.714  0.2134  0.3142  0.0527
17509SOL    HW155929   2.392   8.316   1.792 -0.9486  0.8000 -0.0108
17509SOL    HW255930   2.304   8.309   1.668  0.7434 -0.0670 -1.1987
17510SOL     OW55931   9.888   1.376   2.359 -0.2230 -0.4571 -0.9344
17510SOL    HW155932   9.912   1.406   2.271  0.1236  1.2487 -0.3014
17510SOL    HW255933   9.964   1.396   2.413 -0.4522 -1.4459 -0.2148
17511SOL     OW55934   8.384   1.157   2.624 -0.4814  0.5164 -0.4755
17511SOL    HW155935   8.468   1.159   2.669  0.0923  3.1539 -1.4998
17511SOL    HW255936   8.336   1.231   2.659 -2.9387 -1.5880  0.9328
17512SOL     OW55937   7.719   4.736   6.593  0.5646  0.3841  0.2208
17512SOL    HW155938   7.701   4.730   6.687  0.6398  0.0774  0.2194
17512SOL    HW255939   7.692   4.824   6.568 -0.5325  0.0829  0.3002
17513SOL     OW55940   9.719   1.864   6.009  0.1114  0.3095  0.7080
17513SOL    HW155941   9.643   1.845   6.064 -0.3019 -0.4565 -0.1131
17513SOL    HW255942   9.790   1.813   6.048 -0.4151 -1.0289 -0.0344
17514SOL     OW55943   5.902  10.297   9.701 -0.3377  0.2168  0.7683
17514SOL    HW155944   5.948  10.375   9.672 -0.3970  0.9869  2.5971
17514SOL    HW255945   5.814  10.306   9.662 -0.7204  1.6904  1.8696
17515SOL     OW55946   2.032   7.947   8.467  0.1985 -0.3722  0.0743
17515SOL    HW155947   1.941   7.931   8.444 -0.0721 -0.9861  1.4449
17515SOL    HW255948   2.050   7.885   8.538  0.9273  1.3536  1.4941
17516SOL     OW55949   0.729   0.821   7.145  0.0378 -0.0951  0.7365
17516SOL    HW155950   0.753   0.780   7.228  1.1095 -0.6040  0.2032
17516SOL    HW255951   0.670   0.893   7.170  0.6951  0.0552  1.9776
17517SOL     OW55952   9.728   6.843   3.747 -0.3614 -0.0492 -0.2309
17517SOL    HW155953   9.770   6.899   3.682  0.5586  0.4018  0.7270
17517SOL    HW255954   9.691   6.771   3.696 -0.1186  0.5626 -1.3050
17518SOL     OW55955   1.201   8.539   8.757  0.1704 -0.0505  0.0193
17518SOL    HW155956   1.186   8.591   8.836 -0.1776 -2.3568  1.5962
17518SOL    HW255957   1.210   8.449   8.790  0.5139 -1.0256 -2.5450
17519SOL     OW55958   3.646   8.333   5.343 -0.3996 -0.6971  0.1173
17519SOL    HW155959   3.639   8.240   5.322  3.0517 -1.0343 -0.1054
17519SOL    HW255960   3.735   8.357   5.317 -0.2933  2.0577  2.4725
17520SOL     OW55961  10.575   4.934   3.371 -0.2804  0.1290  0.1644
17520SOL    HW155962  10.625   4.938   3.290  0.2182 -1.7651  0.3438
17520SOL    HW255963  10.608   5.008   3.423  1.0776 -0.0368 -0.4185
17521SOL     OW55964   6.726   1.727  10.036 -0.0531  0.0288  0.1294
17521SOL    HW155965   6.770   1.750  10.118 -1.8858 -2.1247  1.8359
17521SOL    HW255966   6.782   1.660   9.997  0.2595  0.2649  0.1677
17522SOL     OW55967   7.507   6.751   4.378  0.7792 -0.4928 -0.3104
17522SOL    HW155968   7.479   6.719   4.463  0.3923  3.3040  1.1769
17522SOL    HW255969   7.426   6.779   4.335  1.1968 -0.1608 -0.9063
17523SOL     OW55970  10.718   2.575   6.184 -0.2621 -0.3266  0.2062
17523SOL    HW155971  10.672   2.655   6.156 -1.7514 -1.0682  0.4583
17523SOL    HW255972  10.811   2.600   6.182 -0.7267  2.0061  2.0084
17524SOL     OW55973   8.767   5.647   5.309 -0.6755 -0.0756 -0.3315
17524SOL    HW155974   8.755   5.710   5.237  0.5460  1.4918  0.7780
17524SOL    HW255975   8.835   5.588   5.277  0.2407  0.9312 -0.2982
17525SOL     OW55976   0.596   8.331   9.590  0.0980 -0.3889  0.0851
17525SOL    HW155977   0.677   8.380   9.575  0.3127 -0.6573  0.3555
17525SOL    HW255978   0.622   8.259   9.647 -1.0438  1.7401  3.5645
17526SOL     OW55979   7.925   1.636  10.531  0.9686  0.3846 -0.2107
17526SOL    HW155980   7.941   1.605  10.621 -1.0952  1.8053  0.7087
17526SOL    HW255981   7.991   1.590  10.479 -0.2886 -3.6165  1.3621
17527SOL     OW55982   6.722   1.167  10.462  0.7275 -0.4190 -0.0959
17527SOL    HW155983   6.673   1.085  10.468 -0.1913  0.0479 -0.9481
17527SOL    HW255984   6.654   1.235  10.454  1.4240  0.5493  1.7027
17528SOL     OW55985   0.413  10.336   8.052 -0.1128 -0.1880 -0.7984
17528SOL    HW155986   0.453  10.336   8.139 -0.5798 -0.4730 -0.5764
17528SOL    HW255987   0.375  10.249   8.043 -0.7038  0.0791 -0.9860
17529SOL     OW55988   6.152   2.794   4.466  0.1875 -0.2800 -0.0588
17529SOL    HW155989   6.094   2.733   4.513  0.2432  0.2006  0.6488
17529SOL    HW255990   6.216   2.821   4.531  0.2349  0.4435 -0.4017
17530SOL     OW55991   1.596  10.770   3.957  0.2658  0.0122 -0.7925
17530SOL    HW155992   1.617  10.686   3.999  2.1439  1.1389  0.6985
17530SOL    HW255993   1.663  10.830   3.990 -0.2439  1.8096 -2.8254
17531SOL     OW55994   5.415   6.111   7.003  0.2349 -0.3534 -0.7013
17531SOL    HW155995   5.456   6.179   6.950  1.3181 -0.0985  0.4242
17531SOL    HW255996   5.384   6.157   7.082  1.5078 -1.2310  0.3435
17532SOL     OW55997   3.604   0.866   3.322 -0.1319 -0.7204 -0.2100
17532SOL    HW155998   3.585   0.800   3.388 -0.8104  0.7876  1.1924
17532SOL    HW255999   3.521   0.912   3.309  0.3974  0.1021 -0.8504
17533SOL     OW56000   8.393   5.053   7.862 -0.2161 -0.0768 -0.1692
17533SOL    HW156001   8.438   5.031   7.780 -0.2134  1.4896 -0.6191
17533SOL    HW256002   8.302   5.067   7.836 -0.1251  0.8897 -0.0034
17534SOL     OW56003  10.697   1.410   9.679  0.0519 -0.2559 -0.8609
17534SOL    HW156004  10.725   1.425   9.589  0.8362  2.6053 -0.2391
17534SOL    HW256005  10.775   1.425   9.731 -0.8920  0.3120  0.4434
17535SOL     OW56006  10.226   4.708   6.672  0.7228 -0.4452 -0.1471
17535SOL    HW156007  10.176   4.787   6.653  2.3001  0.3143 -1.4489
17535SOL    HW256008  10.313   4.740   6.695  1.0746 -1.7672  0.4699
17536SOL     OW56009   9.180   9.786   9.145 -0.2601  0.5170  0.0889
17536SOL    HW156010   9.164   9.791   9.051  1.6206  1.4636 -0.2331
17536SOL    HW256011   9.130   9.858   9.182  1.4668  2.1896 -0.6390
17537SOL     OW56012   8.304   8.161   3.398 -0.4346  0.3056 -0.2438
17537SOL    HW156013   8.225   8.184   3.446  0.6351 -0.7609  2.2277
17537SOL    HW256014   8.274   8.102   3.328 -1.8953  0.6341  0.0840
17538SOL     OW56015  10.161   2.713   2.268 -0.3773  0.2872  0.5456
17538SOL    HW156016  10.211   2.639   2.232 -1.1003  0.3338 -0.5720
17538SOL    HW256017  10.212   2.790   2.244 -1.8145  0.4879 -2.1686
17539SOL     OW56018   0.813   7.112   1.802  0.4526 -0.2118  0.3596
17539SOL    HW156019   0.858   7.137   1.721  0.9271 -0.6045  0.4961
17539SOL    HW256020   0.769   7.191   1.830 -3.0990 -0.9285 -2.3897
17540SOL     OW56021   1.747  10.548   4.745 -0.0584  0.6831  0.1724
17540SOL    HW156022   1.685  10.585   4.809  1.2948  0.5317  1.6320
17540SOL    HW256023   1.765  10.460   4.778  0.7341  0.6269 -0.3915
17541SOL     OW56024   1.680   6.526   7.152 -0.1425  0.4900 -0.3740
17541SOL    HW156025   1.760   6.502   7.198 -0.2516  0.5850 -0.1333
17541SOL    HW256026   1.656   6.448   7.102 -0.1494  0.3115 -0.0929
17542SOL     OW56027   5.465   6.427   2.020  0.7905  0.3372  0.1767
17542SOL    HW156028   5.488   6.507   2.067 -1.6919  1.3647 -0.2118
17542SOL    HW256029   5.536   6.416   1.956  1.3235  2.0813  0.4169
17543SOL     OW56030   5.170   0.884   7.129  0.4569 -0.6539  0.0886
17543SOL    HW156031   5.198   0.799   7.164  1.0598 -1.1141 -1.4075
17543SOL    HW256032   5.222   0.948   7.178  1.3935 -1.2851 -0.0367
17544SOL     OW56033   1.908   9.356   7.062 -0.6365 -0.1756 -0.1930
17544SOL    HW156034   1.952   9.438   7.082  0.0752 -0.5570 -0.1513
17544SOL    HW256035   1.825   9.361   7.109 -0.0857  0.0126  0.7998
17545SOL     OW56036   5.842   1.320   3.254  0.4040 -0.0930 -0.6454
17545SOL    HW156037   5.805   1.385   3.194  0.2532  0.1144 -0.3313
17545SOL    HW256038   5.894   1.372   3.316  0.0583 -0.2446 -0.2260
17546SOL     OW56039   8.958   4.586   3.130  0.0062 -0.5960 -0.0208
17546SOL    HW156040   9.046   4.555   3.152 -0.6348 -1.9686  0.7454
17546SOL    HW256041   8.908   4.571   3.210 -1.0584 -0.3633 -0.6364
17547SOL     OW56042   6.235   5.984   3.545  0.0483 -0.3588  0.2636
17547SOL    HW156043   6.145   6.014   3.556 -0.1925 -0.2823 -1.6818
17547SOL    HW256044   6.228   5.888   3.540 -0.0850 -0.2950 -1.0349
17548SOL     OW56045   6.341   1.472  10.289  0.0784 -0.4903  0.4358
17548SOL    HW156046   6.279   1.532  10.332  0.3790 -1.1094  1.7920
17548SOL    HW256047   6.293   1.439  10.213 -1.4127 -1.2040  1.6297
17549SOL     OW56048   5.637   0.875   1.029 -0.4115  0.2464  0.0724
17549SOL    HW156049   5.566   0.937   1.010 -0.7006 -0.0685  0.1035
17549SOL    HW256050   5.688   0.872   0.948 -1.5009 -0.9054 -0.6128
17550SOL     OW56051   9.215   7.156   6.268 -0.0284  0.3278 -0.1082
17550SOL    HW156052   9.159   7.222   6.227 -0.7983 -0.2299  0.0241
17550SOL    HW256053   9.304   7.191   6.258 -0.3024  0.7580 -1.1926
17551SOL     OW56054   7.380  10.795   5.308  0.1550  0.2077  0.7028
17551SOL    HW156055   7.398  10.886   5.331 -1.4426  0.3965  1.3458
17551SOL    HW256056   7.340  10.799   5.221  0.6262  0.0411  0.4699
17552SOL     OW56057   3.083   1.506  10.413 -0.4488  0.1575 -0.1884
17552SOL    HW156058   3.086   1.526  10.506  0.0662 -2.1657  0.3434
17552SOL    HW256059   3.175   1.503  10.386 -0.6099  1.6442 -1.0010
17553SOL     OW56060   4.236   4.273   3.309  0.0276  0.6442 -0.4995
17553SOL    HW156061   4.305   4.224   3.354  1.3298  1.9489 -0.9631
17553SOL    HW256062   4.277   4.302   3.227 -1.2694  0.9604 -1.0573
17554SOL     OW56063   6.606   0.599   8.473 -0.1099 -0.1415 -0.2253
17554SOL    HW156064   6.611   0.580   8.567 -2.3942  0.2485  0.0329
17554SOL    HW256065   6.697   0.603   8.445  0.6526  0.1235  2.0532
17555SOL     OW56066   6.576   4.462   2.622  1.0578  0.0685  0.0361
17555SOL    HW156067   6.631   4.484   2.698  0.4127  0.3911  0.4168
17555SOL    HW256068   6.493   4.433   2.660  0.7521  0.1621 -0.5494
17556SOL     OW56069   9.780   4.400   6.044 -0.2112  0.3949  0.3826
17556SOL    HW156070   9.871   4.425   6.025 -0.5001  3.4197  2.2888
17556SOL    HW256071   9.786   4.345   6.122 -0.0182  0.9806  0.7876
17557SOL     OW56072   9.740   1.187   0.970  0.0841 -0.1387 -0.1416
17557SOL    HW156073   9.784   1.200   1.054  1.7155 -0.4867 -0.9043
17557SOL    HW256074   9.694   1.269   0.954  0.9948  0.4870  0.3814
17558SOL     OW56075   6.672   9.252   2.055 -0.1046  0.1880 -0.2607
17558SOL    HW156076   6.588   9.231   2.014 -0.8703  0.0511  1.3201
17558SOL    HW256077   6.671   9.206   2.139  1.3101  0.6569  0.0520
17559SOL     OW56078   7.860   7.349   9.053 -0.0381 -0.5905 -0.3538
17559SOL    HW156079   7.787   7.300   9.090  1.0928 -2.8128 -0.8764
17559SOL    HW256080   7.896   7.291   8.986  0.4529  1.6398 -2.1073
17560SOL     OW56081   5.614   9.067   2.120  0.3553 -0.3458  0.1460
17560SOL    HW156082   5.573   9.054   2.205  0.8745  0.8235  0.5895
17560SOL    HW256083   5.660   8.985   2.103  1.4827 -0.0619  1.6836
17561SOL     OW56084   1.276   0.500  10.884  0.2875  0.1069 -0.0942
17561SOL    HW156085   1.281   0.413  10.925 -1.6334  1.1773  2.7890
17561SOL    HW256086   1.182   0.514  10.870  0.5265  1.8388 -0.1668
17562SOL     OW56087   6.529   8.577   5.557  0.3030 -0.2305  0.2094
17562SOL    HW156088   6.451   8.560   5.609  1.1241  0.1027  1.6170
17562SOL    HW256089   6.539   8.672   5.559  0.7424 -0.2703  0.0526
17563SOL     OW56090   5.625   3.916   1.131  0.2430 -0.1045 -0.1480
17563SOL    HW156091   5.593   3.830   1.157 -1.2312  0.3288 -0.4549
17563SOL    HW256092   5.720   3.910   1.140  0.1081 -1.5196  0.5489
17564SOL     OW56093   5.773   4.080   9.339  0.0759 -0.0283 -0.1781
17564SOL    HW156094   5.702   4.144   9.324  0.9263  0.7734 -0.8743
17564SOL    HW256095   5.775   4.027   9.260  0.1430 -0.1638 -0.0862
17565SOL     OW56096   4.532   7.721   5.432  0.2768  0.6582  0.1736
17565SOL    HW156097   4.484   7.644   5.463  0.1372  0.7778  0.2576
17565SOL    HW256098   4.607   7.686   5.384  0.5158  0.4648  0.6779
17566SOL     OW56099   0.401   9.945   7.453  0.1271 -0.3782 -0.6354
17566SOL    HW156100   0.332   9.882   7.472 -1.1147  1.1343  0.1189
17566SOL    HW256101   0.481   9.906   7.488 -0.6840 -1.3268  0.2096
17567SOL     OW56102   4.151   1.317   0.665  0.1396 -0.4251 -0.5617
17567SOL    HW156103   4.114   1.241   0.621 -1.7900  0.2850 -0.2925
17567SOL    HW256104   4.076   1.377   0.675  0.9255  0.2709  1.8734
17568SOL     OW56105   7.271   4.240   5.680  0.0357 -0.0320 -0.1192
17568SOL    HW156106   7.345   4.259   5.623 -0.7217 -2.3244 -2.0600
17568SOL    HW256107   7.230   4.162   5.640 -3.0984  0.8367  1.1227
17569SOL     OW56108   0.247   3.163   8.234  0.7579 -0.1218 -0.4168
17569SOL    HW156109   0.191   3.090   8.206  0.4446 -1.0913  2.3907
17569SOL    HW256110   0.318   3.164   8.169 -1.1769 -0.4302 -2.6716
17570SOL     OW56111   1.590   3.159   1.167 -0.3974  0.0158  0.0513
17570SOL    HW156112   1.602   3.253   1.150  0.6156 -0.2852 -0.9993
17570SOL    HW256113   1.535   3.156   1.245  0.7165  1.4856  0.9389
17571SOL     OW56114   2.333   9.885   5.929 -0.0427  0.6245  0.0274
17571SOL    HW156115   2.327   9.944   6.004 -1.6642  0.4104  0.1191
17571SOL    HW256116   2.244   9.849   5.920  0.3748 -0.1479 -1.3514
17572SOL     OW56117   3.072   6.512   8.589 -0.5949  0.4295 -0.0303
17572SOL    HW156118   3.079   6.577   8.660  0.8722  0.3509 -0.0699
17572SOL    HW256119   3.126   6.439   8.618  0.2888  0.5232 -1.3531
17573SOL     OW56120   8.639   9.232   8.448  0.1492 -0.0838  0.0686
17573SOL    HW156121   8.729   9.217   8.479 -0.0512 -1.8839 -0.0926
17573SOL    HW256122   8.586   9.232   8.527  0.0809 -1.0377  0.0432
17574SOL     OW56123   7.634   9.744   5.303 -0.8575  0.4409 -0.3006
17574SOL    HW156124   7.597   9.743   5.215 -2.0830  1.2296  0.1681
17574SOL    HW256125   7.565   9.784   5.357 -0.2893 -0.3659  1.0800
17575SOL     OW56126   1.401   7.794   1.337 -0.0126  0.3154  0.4974
17575SOL    HW156127   1.428   7.728   1.274 -1.5423 -0.1927  0.3362
17575SOL    HW256128   1.305   7.789   1.338 -0.0813  1.2757  1.8249
17576SOL     OW56129   5.564   4.515   8.478 -0.1718 -0.0894  0.0851
17576SOL    HW156130   5.572   4.419   8.480  0.4729 -0.0256  0.8400
17576SOL    HW256131   5.490   4.534   8.536  0.5453 -0.0595  1.0186
17577SOL     OW56132   0.346   5.519   9.978  0.3367  0.1130 -0.5807
17577SOL    HW156133   0.408   5.508   9.905  1.8361 -0.3977  0.7026
17577SOL    HW256134   0.276   5.574   9.942  1.0170 -0.1270 -2.3950
17578SOL     OW56135   4.640   9.166   7.182  0.1899  0.2977 -0.2267
17578SOL    HW156136   4.654   9.081   7.141  0.2042 -0.0359  0.4637
17578SOL    HW256137   4.696   9.165   7.259 -0.2085  0.7272  0.0709
17579SOL     OW56138  10.896   5.782   5.539 -0.0228 -0.0799  0.1017
17579SOL    HW156139  10.817   5.831   5.513 -1.2570 -1.3545  1.2548
17579SOL    HW256140  10.953   5.848   5.578  0.3193  1.2070 -2.3450
17580SOL     OW56141   0.901   7.853   8.596 -0.5523  0.0370 -0.4085
17580SOL    HW156142   0.898   7.906   8.517 -0.2225  0.7811  0.0622
17580SOL    HW256143   0.829   7.886   8.650  0.2030  0.6286  0.2616
17581SOL     OW56144   7.010   4.384   3.951 -0.0995  0.5900 -0.4518
17581SOL    HW156145   6.938   4.333   3.915  1.4589 -1.3626 -0.9336
17581SOL    HW256146   7.078   4.320   3.971  0.7296  2.0853  2.0593
17582SOL     OW56147   0.777   1.288   8.406 -0.3362 -1.1893 -0.5197
17582SOL    HW156148   0.731   1.280   8.490  0.9505 -0.5098  0.2762
17582SOL    HW256149   0.817   1.202   8.393  2.9085 -0.2052  1.6997
17583SOL     OW56150   1.231   6.842  10.380 -0.1981  0.0971 -0.3857
17583SOL    HW156151   1.262   6.762  10.421 -1.1727 -0.0900  0.0351
17583SOL    HW256152   1.251   6.832  10.287 -0.0561 -0.5068 -0.2925
17584SOL     OW56153   0.250   4.065   5.250 -0.4200  0.0108  0.6674
17584SOL    HW156154   0.250   4.087   5.157 -1.1319 -3.2254 -0.1880
17584SOL    HW256155   0.163   4.029   5.267  0.2191 -0.9014  2.2234
17585SOL     OW56156   9.115   6.081   1.683  0.0942 -0.3007 -0.0521
17585SOL    HW156157   9.138   6.004   1.632 -0.6652 -1.5999  1.4695
17585SOL    HW256158   9.042   6.053   1.738  1.5424  0.6496  2.5370
17586SOL     OW56159   4.445   2.443   5.621 -0.9999  0.8501 -0.2320
17586SOL    HW156160   4.372   2.486   5.576 -0.6906 -0.7458 -2.4102
17586SOL    HW256161   4.404   2.389   5.689 -1.8369  0.3230 -1.1375
17587SOL     OW56162   6.519   2.093   3.474  0.1952 -0.6260  0.3054
17587SOL    HW156163   6.521   2.128   3.385 -1.1589 -0.4438  0.3207
17587SOL    HW256164   6.458   2.020   3.470 -1.3077  0.5015  1.4393
17588SOL     OW56165   9.769   0.146   7.093  0.5215  0.1258 -0.1230
17588SOL    HW156166   9.706   0.218   7.100 -0.3331 -0.6117  0.0632
17588SOL    HW256167   9.781   0.117   7.183  0.8788  0.0467 -0.1959
17589SOL     OW56168   2.330   6.960   9.630 -0.1863  0.1188  1.1426
17589SOL    HW156169   2.312   7.042   9.675  1.2851  0.2036  1.6286
17589SOL    HW256170   2.360   6.986   9.543  0.1274  0.0825  1.2412
17590SOL     OW56171   1.088   0.105   3.845 -0.3097  0.3782  0.0489
17590SOL    HW156172   1.165   0.124   3.898  0.0825 -1.6802  0.3189
17590SOL    HW256173   1.064   0.189   3.806  1.2204  1.3390  1.0652
17591SOL     OW56174   9.489   1.801  10.592 -0.1751  0.0837  0.0386
17591SOL    HW156175   9.575   1.820  10.556 -1.1202  0.2692 -2.2881
17591SOL    HW256176   9.480   1.706  10.584 -0.1099  0.0357  0.5008
17592SOL     OW56177   4.022   5.929   8.526  0.2894 -0.1822  0.0639
17592SOL    HW156178   4.018   5.877   8.607 -1.0913 -0.7153 -0.3158
17592SOL    HW256179   4.027   5.863   8.456 -3.4309 -0.0172 -0.5617
17593SOL     OW56180   2.006   8.189   6.560  0.1299 -0.3466 -0.4550
17593SOL    HW156181   1.975   8.166   6.473 -0.1862  0.5329 -0.5857
17593SOL    HW256182   1.944   8.254   6.592 -1.0466 -2.2327  1.3520
17594SOL     OW56183   1.090   9.442   0.375  0.0597 -0.2864  0.2454
17594SOL    HW156184   1.150   9.368   0.369  1.9333  1.1895 -0.4687
17594SOL    HW256185   1.092   9.467   0.468  1.7151  0.5842  0.0178
17595SOL     OW56186   1.914   4.528   6.868  0.4035 -0.1190  0.6552
17595SOL    HW156187   1.906   4.433   6.862 -1.6213  0.0870 -2.4373
17595SOL    HW256188   1.966   4.553   6.791 -0.7454  1.3547  0.3037
17596SOL     OW56189   6.174   3.427   5.705 -0.2206 -0.0022  0.1995
17596SOL    HW156190   6.196   3.349   5.654  2.4321  0.7930 -0.0463
17596SOL    HW256191   6.092   3.405   5.749 -2.0858 -1.1122 -3.4786
17597SOL     OW56192   6.797   7.129   1.083 -0.0707  0.9332 -0.0368
17597SOL    HW156193   6.763   7.165   1.165 -0.0975 -0.9688  0.8322
17597SOL    HW256194   6.882   7.092   1.107 -0.0091  0.5020 -0.9098
17598SOL     OW56195   0.341   6.196   6.998 -0.3215  0.0825  0.1613
17598SOL    HW156196   0.402   6.130   6.966  0.6562  0.5780  0.9666
17598SOL    HW256197   0.304   6.235   6.919  1.7273  1.0010 -0.3966
17599SOL     OW56198   1.069   9.956   4.589 -0.0461  0.6409 -0.0187
17599SOL    HW156199   1.050  10.040   4.631 -1.5554  0.8230 -0.9941
17599SOL    HW256200   1.076   9.894   4.661 -1.1930  1.1970  0.5878
17600SOL     OW56201   2.312   8.960   9.247 -0.6716  0.1255  0.1753
17600SOL    HW156202   2.286   8.915   9.167 -1.5889 -0.1745  0.6332
17600SOL    HW256203   2.232   9.001   9.280 -0.4110 -0.1276  1.1672
17601SOL     OW56204   9.818   8.596   7.991 -0.0367  0.3833 -0.5279
17601SOL    HW156205   9.770   8.516   7.968  0.8058  0.0697 -1.2802
17601SOL    HW256206   9.752   8.665   7.988 -0.9363 -0.3725  0.8665
17602SOL     OW56207   8.120  10.695  10.608  0.8006  0.2104  0.1760
17602SOL    HW156208   8.080  10.744  10.536  0.5619 -1.0189 -0.5647
17602SOL    HW256209   8.211  10.683  10.582  0.4974 -1.0504 -0.4216
17603SOL     OW56210   1.876   9.022   4.504 -0.5861 -0.2504  0.7344
17603SOL    HW156211   1.833   8.987   4.426 -0.4403 -0.2837  0.6666
17603SOL    HW256212   1.941   8.955   4.527 -0.7125 -0.2975  0.9580
17604SOL     OW56213   3.404   8.832   0.141 -0.2454  0.1258 -0.1241
17604SOL    HW156214   3.470   8.764   0.130 -0.0342  0.3696 -0.4052
17604SOL    HW256215   3.320   8.786   0.133 -0.1050  0.0263 -1.2144
17605SOL     OW56216   6.597   7.972   9.308  0.0136 -0.2821 -0.4373
17605SOL    HW156217   6.506   7.954   9.286 -0.5405 -1.3725  2.2908
17605SOL    HW256218   6.592   8.033   9.382  1.4699 -0.7622  0.0943
17606SOL     OW56219   0.170   5.272   3.684 -0.3078 -0.2801 -0.7361
17606SOL    HW156220   0.169   5.353   3.735 -0.5256 -0.4343 -0.4938
17606SOL    HW256221   0.241   5.284   3.621 -0.6817  0.3186 -1.0520
17607SOL     OW56222   8.905   7.285   0.200  0.1343 -0.1902  0.0445
17607SOL    HW156223   8.840   7.351   0.178  0.2862  0.0621  0.3502
17607SOL    HW256224   8.950   7.267   0.118  1.8185  1.9415  0.4282
17608SOL     OW56225   8.121   3.375   7.973 -0.0475 -0.0923 -0.1179
17608SOL    HW156226   8.128   3.400   7.881 -0.5670 -1.5376 -0.5719
17608SOL    HW256227   8.082   3.451   8.015  0.4598  0.6995 -1.0258
17609SOL     OW56228   8.979   0.840   5.206  0.2134  0.4921 -0.0728
17609SOL    HW156229   8.902   0.890   5.179  0.1401  0.1367 -0.5273
17609SOL    HW256230   8.943   0.762   5.249  0.3105  0.2397 -0.4403
17610SOL     OW56231   5.167   5.564   5.582 -0.1613  0.2541 -0.2794
17610SOL    HW156232   5.124   5.649   5.584  0.0135  0.3629 -0.8525
17610SOL    HW256233   5.099   5.502   5.608  0.2160  0.7507  2.0870
17611SOL     OW56234   4.692   9.049   2.310 -0.5944 -0.4839 -0.0528
17611SOL    HW156235   4.682   9.084   2.221  1.4154 -0.2798 -0.2397
17611SOL    HW256236   4.716   9.124   2.363  0.8188 -1.0365  0.1275
17612SOL     OW56237   8.020   4.158   2.346 -0.2715 -0.1112 -0.0055
17612SOL    HW156238   8.113   4.165   2.368 -0.4381  1.8958  0.2402
17612SOL    HW256239   8.017   4.170   2.251 -0.1220 -2.4794 -0.3689
17613SOL     OW56240   1.214   7.078   9.243  0.3902  0.0735 -0.1812
17613SOL    HW156241   1.309   7.087   9.230  0.3203  0.7164 -0.2365
17613SOL    HW256242   1.184   7.165   9.266 -0.1001 -0.2524  0.4532
17614SOL     OW56243   4.315   0.287   3.587  0.2964 -0.7781  0.2501
17614SOL    HW156244   4.316   0.192   3.577  0.8223 -0.9384  1.5287
17614SOL    HW256245   4.407   0.310   3.603 -0.0008 -0.2322  1.2427
17615SOL     OW56246   0.948   0.373   8.105  0.1381 -0.4686  0.3946
17615SOL    HW156247   1.017   0.381   8.171  0.5524  0.0415 -0.0893
17615SOL    HW256248   0.867   0.380   8.154  0.4368  1.7359  0.6649
17616SOL     OW56249   3.527  10.871   3.056  0.1978 -0.3387  0.1391
17616SOL    HW156250   3.613  10.886   3.017 -0.2637 -0.0225 -0.8010
17616SOL    HW256251   3.516  10.943   3.119  0.3838 -0.0506 -0.1549
17617SOL     OW56252   8.443   3.304   8.771  0.2963 -0.1028 -0.3372
17617SOL    HW156253   8.434   3.209   8.778  1.0532 -0.1185  0.5195
17617SOL    HW256254   8.536   3.318   8.748  0.1338  0.4227 -0.7107
17618SOL     OW56255   1.419   8.033   6.671 -0.2829  0.1444  0.5833
17618SOL    HW156256   1.387   8.034   6.581  2.8758  2.7831 -0.7402
17618SOL    HW256257   1.391   8.118   6.707 -0.9329 -0.5948  1.8839
17619SOL     OW56258   0.878   9.048  10.621 -0.8359  0.5857  0.6052
17619SOL    HW156259   0.874   9.139  10.591 -0.7628  0.4116  0.0486
17619SOL    HW256260   0.966   9.039  10.656 -0.6662  0.5871  0.1849
17620SOL     OW56261   5.723   3.798   4.730 -0.2619 -0.4083 -0.0797
17620SOL    HW156262   5.798   3.836   4.777 -1.1140 -1.0331  1.8824
17620SOL    HW256263   5.696   3.867   4.669  1.5998  0.0031 -0.4927
17621SOL     OW56264   8.074   3.269   3.838  0.4371  0.4860  0.2940
17621SOL    HW156265   8.043   3.241   3.752 -3.0964  1.0605  1.2292
17621SOL    HW256266   8.167   3.247   3.838  0.1970 -1.1493 -2.9835
17622SOL     OW56267   7.245   4.819   0.400 -0.4836  0.0669  0.0990
17622SOL    HW156268   7.276   4.864   0.479  3.2616  0.8678 -1.5904
17622SOL    HW256269   7.244   4.727   0.424  0.3362  0.3218  1.2133
17623SOL     OW56270   4.262   7.345   6.326 -0.6455  0.1453  0.5488
17623SOL    HW156271   4.321   7.397   6.271  0.5782  0.5730  2.1749
17623SOL    HW256272   4.215   7.289   6.265  1.2112  0.0381 -0.8728
17624SOL     OW56273   2.763   1.406  10.599  0.4193 -0.3673 -0.3475
17624SOL    HW156274   2.764   1.321  10.643  0.4880  0.6325  1.6746
17624SOL    HW256275   2.794   1.468  10.665  0.9070  1.1699 -1.9417
17625SOL     OW56276   1.405   8.092   1.213 -0.2943  0.4563  0.6958
17625SOL    HW156277   1.409   7.996   1.220 -2.8866  0.2804  0.9779
17625SOL    HW256278   1.431   8.124   1.299  1.7312  0.1049  0.2552
17626SOL     OW56279   1.692   2.358   6.291 -0.5324 -0.4348 -0.1687
17626SOL    HW156280   1.769   2.415   6.297 -0.7377 -0.0427 -1.0517
17626SOL    HW256281   1.727   2.271   6.272 -0.2641 -0.4402  0.3304
17627SOL     OW56282   2.263   6.793   5.581 -0.4145  0.3949 -0.6020
17627SOL    HW156283   2.259   6.812   5.487 -0.0244  0.1376 -0.6709
17627SOL    HW256284   2.179   6.825   5.615 -0.8689 -0.1829 -1.1553
17628SOL     OW56285   4.684   3.093   0.881 -0.2159 -0.3374  0.3278
17628SOL    HW156286   4.744   3.028   0.917  0.7937  1.1666  1.4907
17628SOL    HW256287   4.722   3.115   0.796 -0.0826 -0.6367  0.3052
17629SOL     OW56288   0.095   1.149   8.095 -0.2139  0.4191  0.6756
17629SOL    HW156289   0.164   1.127   8.156  0.6506  0.2879 -0.3208
17629SOL    HW256290   0.112   1.241   8.071  0.3157  0.0503 -0.4341
17630SOL     OW56291   9.220   6.511   2.618 -0.3542 -0.1423  0.0072
17630SOL    HW156292   9.310   6.543   2.631 -0.3575  0.1572 -0.6966
17630SOL    HW256293   9.178   6.579   2.566 -0.1110 -1.6613 -2.3089
17631SOL     OW56294   2.681   8.038  10.858 -0.4144  0.3353 -0.1557
17631SOL    HW156295   2.647   7.952  10.835 -3.5271  1.1962  0.6959
17631SOL    HW256296   2.710   8.029  10.948 -0.5280  0.0973 -0.1413
17632SOL     OW56297  10.889   8.739   4.696  0.4680 -0.2639 -0.0723
17632SOL    HW156298  10.820   8.784   4.746 -0.5088 -0.2585 -1.3873
17632SOL    HW256299  10.904   8.795   4.620 -0.0546 -1.6116 -1.2217
17633SOL     OW56300  10.532   9.019   2.403  0.0212 -0.3881 -0.5138
17633SOL    HW156301  10.557   9.092   2.459 -1.5271  0.0013 -0.2807
17633SOL    HW256302  10.612   8.996   2.356  1.1761 -0.2390  1.2776
17634SOL     OW56303   1.105   1.689   1.151 -0.2175  0.4684 -0.5917
17634SOL    HW156304   1.186   1.644   1.176 -0.5754  0.1853  0.0899
17634SOL    HW256305   1.046   1.619   1.124  0.1312  0.7602 -2.2158
17635SOL     OW56306   9.875   7.115   7.667  0.0999  0.2534  0.1673
17635SOL    HW156307   9.890   7.059   7.744  0.4701 -1.3704 -1.0276
17635SOL    HW256308   9.780   7.123   7.660 -0.0532 -1.7961 -0.6737
17636SOL     OW56309   6.635   7.879  10.272  0.1465 -0.4190  0.8386
17636SOL    HW156310   6.588   7.946  10.223 -1.0027 -1.3546  0.6324
17636SOL    HW256311   6.662   7.923  10.353 -1.4011  0.0387  1.1257
17637SOL     OW56312   9.354   4.629  10.654  0.3486 -0.1555 -0.3028
17637SOL    HW156313   9.409   4.570  10.602  2.3322 -0.9317  2.4062
17637SOL    HW256314   9.267   4.589  10.651  0.5965 -0.6507 -2.2002
17638SOL     OW56315   2.648   0.930   0.481  0.1621  0.1498  0.7854
17638SOL    HW156316   2.731   0.941   0.435 -0.9584 -1.3777 -1.8462
17638SOL    HW256317   2.603   1.014   0.472  0.4941  0.2669  0.2143
17639SOL     OW56318   2.074   5.809   6.932  0.0155  0.7379  0.2546
17639SOL    HW156319   2.101   5.807   6.840  0.2329  1.7698  0.2881
17639SOL    HW256320   1.985   5.773   6.931 -0.9293  2.9135 -0.7177
17640SOL     OW56321   2.444   5.277   8.388 -0.0426  0.3045 -0.2087
17640SOL    HW156322   2.443   5.360   8.339 -0.9342  0.6022  0.2956
17640SOL    HW256323   2.369   5.283   8.446  0.3839 -0.5121  0.4359
17641SOL     OW56324   7.738   5.355   7.427  0.0759  0.0978  0.5414
17641SOL    HW156325   7.785   5.430   7.464  1.9724  0.5995 -2.5239
17641SOL    HW256326   7.801   5.284   7.430 -0.4241 -0.3681  0.1126
17642SOL     OW56327   7.704   2.357   4.404  0.1565 -0.0370 -0.2567
17642SOL    HW156328   7.705   2.284   4.465  1.3413  0.5686  0.4864
17642SOL    HW256329   7.761   2.423   4.445 -0.1744  0.9439 -1.3294
17643SOL     OW56330   0.385   9.302   5.887 -0.0119  0.4321  0.4090
17643SOL    HW156331   0.474   9.269   5.899  0.3387  1.2156  0.0431
17643SOL    HW256332   0.390   9.355   5.807 -1.2515 -1.0732 -0.7215
17644SOL     OW56333  10.330   6.716   3.922 -0.9001  0.3605 -0.7706
17644SOL    HW156334  10.420   6.731   3.952 -1.3899  0.7231  0.6191
17644SOL    HW256335  10.276   6.767   3.983 -2.2305 -2.0938  0.2257
17645SOL     OW56336   6.235   4.688   5.100  0.7004  0.2365 -0.2476
17645SOL    HW156337   6.316   4.738   5.086  1.2214 -0.4779  0.1413
17645SOL    HW256338   6.265   4.601   5.128 -0.1107 -0.7804 -2.2826
17646SOL     OW56339   3.051   8.879   9.149 -0.6079  0.3232 -0.0228
17646SOL    HW156340   3.032   8.914   9.061  1.2230 -0.2409 -0.6802
17646SOL    HW256341   3.022   8.788   9.145 -0.8432  0.3918  0.0838
17647SOL     OW56342   2.399   0.516   7.729 -0.5738  0.7677  0.1658
17647SOL    HW156343   2.371   0.491   7.817 -1.1034 -1.6416 -0.6050
17647SOL    HW256344   2.386   0.436   7.676 -1.9153  2.5694 -2.4848
17648SOL     OW56345   2.699   8.981   8.893 -0.1139  0.0175  0.0363
17648SOL    HW156346   2.663   9.052   8.945 -2.6880  0.0831 -1.6884
17648SOL    HW256347   2.671   8.999   8.804 -0.8890 -3.1388 -0.4701
17649SOL     OW56348   5.343   0.188   1.798 -0.4340 -0.1539 -0.2244
17649SOL    HW156349   5.343   0.110   1.854 -1.2112  1.0376  1.5466
17649SOL    HW256350   5.253   0.221   1.805  0.2941  1.8090  0.4476
17650SOL     OW56351   8.498   8.044   3.632 -0.6417  0.1182  0.6876
17650SOL    HW156352   8.451   8.115   3.588  0.6606  0.7107  0.2062
17650SOL    HW256353   8.579   8.084   3.663  1.0109 -1.4888 -1.2013
17651SOL     OW56354   1.509   2.802   8.459  0.0678 -0.2892  0.1411
17651SOL    HW156355   1.489   2.855   8.382  0.3822  3.8932  2.6442
17651SOL    HW256356   1.597   2.767   8.442  1.9315  3.9151  0.0380
17652SOL     OW56357   4.790   2.477   8.932 -0.1472  0.0095  0.2721
17652SOL    HW156358   4.759   2.554   8.980  1.3711 -0.0483  1.3992
17652SOL    HW256359   4.743   2.404   8.971 -0.2564  0.1665  0.4355
17653SOL     OW56360   3.807   6.685  10.311  0.1314 -0.5980  0.2665
17653SOL    HW156361   3.771   6.607  10.269  1.1928  0.4754 -2.8810
17653SOL    HW256362   3.894   6.695  10.274  1.0409  0.7113  2.5372
17654SOL     OW56363   0.255   9.295   1.252 -0.0452 -0.3324  0.3513
17654SOL    HW156364   0.294   9.318   1.168  1.1412  0.5382  1.1072
17654SOL    HW256365   0.215   9.210   1.238 -0.9297  0.3373 -1.4194
17655SOL     OW56366   6.418   8.938   9.730 -0.3018  0.0791 -0.6156
17655SOL    HW156367   6.462   8.860   9.764 -2.1226 -0.4678  0.6256
17655SOL    HW256368   6.488   9.002   9.720  0.8607 -0.8897  0.8373
17656SOL     OW56369   1.233  10.615  10.519 -0.0236 -0.3506  0.8046
17656SOL    HW156370   1.203  10.688  10.465 -1.0830 -2.0937 -1.0778
17656SOL    HW256371   1.167  10.607  10.588 -0.9109 -0.6762 -0.0715
17657SOL     OW56372   8.813   7.271   4.780 -0.3648  0.7621 -0.8191
17657SOL    HW156373   8.790   7.209   4.710 -1.1959  0.2918 -0.1463
17657SOL    HW256374   8.735   7.275   4.835  1.0422 -0.7500  1.4759
17658SOL     OW56375   4.515   3.738   3.912 -0.0212 -0.0062  0.3557
17658SOL    HW156376   4.471   3.814   3.874  0.2253 -1.1295 -2.4703
17658SOL    HW256377   4.582   3.775   3.970 -1.5852  1.8109  1.1073
17659SOL     OW56378   7.421   2.837   5.956  0.6897  0.0987  0.4471
17659SOL    HW156379   7.357   2.819   5.888  1.4025 -1.7948  0.2097
17659SOL    HW256380   7.490   2.772   5.942  2.5293  1.8578  0.8759
17660SOL     OW56381   5.021  10.711   7.160 -0.7354  0.4701  0.2480
17660SOL    HW156382   5.009  10.687   7.251 -0.7447 -2.9198 -0.5391
17660SOL    HW256383   4.939  10.686   7.118 -0.0430  0.2238 -0.9995
17661SOL     OW56384   1.033   1.716   4.693 -0.4137 -0.2727 -0.2980
17661SOL    HW156385   0.984   1.674   4.764 -1.2598 -0.4241 -0.9634
17661SOL    HW256386   1.048   1.647   4.630  0.7409 -0.2453 -0.0769
17662SOL     OW56387   8.496   9.719   9.204  0.5472 -0.2664 -0.1311
17662SOL    HW156388   8.421   9.730   9.262 -0.5270 -0.1296 -1.4713
17662SOL    HW256389   8.572   9.712   9.262 -0.5528 -0.8833  1.2820
17663SOL     OW56390   7.255   3.706  10.586 -0.5237  0.3956 -0.3602
17663SOL    HW156391   7.176   3.716  10.639  0.4527  1.3140  0.9788
17663SOL    HW256392   7.278   3.796  10.560  0.6075  0.2533  0.0857
17664SOL     OW56393   1.331   0.527   2.498 -0.1102  0.2757  0.1986
17664SOL    HW156394   1.369   0.490   2.418 -0.4445  0.0718  0.1352
17664SOL    HW256395   1.237   0.527   2.483 -0.5925 -3.5536  2.1122
17665SOL     OW56396   4.200   1.956   7.397 -0.2705  0.1503  0.4382
17665SOL    HW156397   4.277   1.949   7.454 -1.2703  1.4174  2.0196
17665SOL    HW256398   4.160   1.869   7.400  1.3536 -0.6823 -0.8365
17666SOL     OW56399   6.569   5.993  10.476  0.3956 -0.5901  0.0553
17666SOL    HW156400   6.515   5.974  10.399 -0.7302 -0.8955  0.8867
17666SOL    HW256401   6.629   6.062  10.447 -0.5615 -0.1043 -0.8585
17667SOL     OW56402   7.796   6.359   9.609  0.7577 -0.3058 -0.5761
17667SOL    HW156403   7.722   6.385   9.664  1.3346  0.4932 -0.1629
17667SOL    HW256404   7.793   6.263   9.609 -0.0336 -0.2880 -0.2407
17668SOL     OW56405   5.735   4.912   2.996 -0.3035 -0.4205  0.4145
17668SOL    HW156406   5.697   4.891   2.910  0.1650 -0.6488  0.2635
17668SOL    HW256407   5.661   4.905   3.057 -0.4903 -0.9333  0.1340
17669SOL     OW56408   0.597   9.913   7.172 -0.1433 -0.0353  0.3680
17669SOL    HW156409   0.590   9.928   7.078  0.5762 -1.4087  0.0691
17669SOL    HW256410   0.681   9.952   7.197 -0.4477  0.5498  0.5064
17670SOL     OW56411   2.056   5.452   3.803 -0.5401 -0.2476  0.7479
17670SOL    HW156412   2.028   5.361   3.797 -1.7863  0.1332  0.5984
17670SOL    HW256413   2.143   5.447   3.844  0.1311 -1.6015 -0.7129
17671SOL     OW56414   4.797   8.728   4.359  0.5040  0.1927 -0.0962
17671SOL    HW156415   4.796   8.824   4.359  1.5197  0.2177  0.5450
17671SOL    HW256416   4.876   8.705   4.311  0.2897 -0.3322 -0.2081
17672SOL     OW56417   6.947   0.831   5.555  0.4073 -0.0202 -0.5409
17672SOL    HW156418   6.990   0.827   5.640  0.3079  1.1949 -0.4256
17672SOL    HW256419   6.995   0.768   5.501  1.7944  0.6922 -0.1774
17673SOL     OW56420   4.554   4.910   3.263  0.6528 -0.0127 -0.0487
17673SOL    HW156421   4.548   4.989   3.317 -0.9633 -0.5952  0.6863
17673SOL    HW256422   4.592   4.940   3.180 -0.2312  1.6048  0.1034
17674SOL     OW56423   9.563   3.285   6.430 -0.1460  0.1575  0.1515
17674SOL    HW156424   9.516   3.360   6.394 -0.5443  0.5523  1.4527
17674SOL    HW256425   9.517   3.209   6.395 -0.9208  0.5317  0.3355
17675SOL     OW56426   1.209   1.008   9.541 -0.5141  0.5898 -0.1403
17675SOL    HW156427   1.224   0.998   9.635 -0.2284 -0.2869 -0.2678
17675SOL    HW256428   1.194   1.101   9.528 -0.4087  0.7337  0.7555
17676SOL     OW56429   0.170   7.264   3.541 -0.1768 -0.6885 -0.4263
17676SOL    HW156430   0.246   7.320   3.530 -1.1225  0.8057  0.2799
17676SOL    HW256431   0.189   7.213   3.620 -0.1863  0.1626  0.1311
17677SOL     OW56432   5.152   4.027   6.829 -0.4943 -0.1351 -0.0334
17677SOL    HW156433   5.075   4.084   6.840 -1.6196 -1.6061  0.0697
17677SOL    HW256434   5.215   4.059   6.893 -0.5334  1.8632 -0.9179
17678SOL     OW56435   8.691   4.842   0.065 -0.0721  0.4291  0.0204
17678SOL    HW156436   8.601   4.854   0.094 -0.1003  0.5093 -0.1027
17678SOL    HW256437   8.708   4.749   0.080 -0.3961  0.2712 -0.5758
17679SOL     OW56438   5.359  10.528   8.927  0.5894  0.1716  0.0058
17679SOL    HW156439   5.371  10.611   8.881 -1.2507  0.0734 -0.7422
17679SOL    HW256440   5.383  10.547   9.018 -0.1189  1.6338 -0.0833
17680SOL     OW56441   7.994   2.422  10.339 -0.5993  0.4339  0.3972
17680SOL    HW156442   8.075   2.450  10.382 -1.2255  0.2575  1.7212
17680SOL    HW256443   8.014   2.429  10.245  0.8158  0.7647  0.6930
17681SOL     OW56444   0.328   9.965   5.723  0.4961 -0.0495  0.6351
17681SOL    HW156445   0.326  10.060   5.712  0.4013 -0.1352 -0.1398
17681SOL    HW256446   0.299   9.931   5.639  2.6665 -0.7962  0.1068
17682SOL     OW56447   4.533   4.969   8.615 -0.4575 -0.3188  0.0686
17682SOL    HW156448   4.503   5.049   8.658  1.3716  0.8021 -0.5986
17682SOL    HW256449   4.591   4.928   8.679 -0.4025 -0.4432 -0.0609
17683SOL     OW56450   1.260   0.039   7.253  0.6697 -0.1629 -0.7621
17683SOL    HW156451   1.277  -0.034   7.312 -0.0571 -0.7794 -1.3060
17683SOL    HW256452   1.237  -0.002   7.169  1.7566  0.6985 -1.5047
17684SOL     OW56453   9.637   3.338   0.397 -0.0452 -0.0143  0.2509
17684SOL    HW156454   9.700   3.409   0.389  0.7402 -0.5945  1.1529
17684SOL    HW256455   9.666   3.274   0.332  0.7180 -0.5724  1.1145
17685SOL     OW56456  10.046   1.623   9.460 -0.6853 -0.8665  0.2310
17685SOL    HW156457  10.010   1.712   9.463 -0.7151 -0.8751  0.1372
17685SOL    HW256458  10.042   1.599   9.367  0.9263 -0.3070 -0.0174
17686SOL     OW56459   9.774  10.806   3.591  0.2082  0.2296  0.1108
17686SOL    HW156460   9.678  10.809   3.591  0.2206  2.7442  0.7767
17686SOL    HW256461   9.798  10.839   3.504  0.5097 -1.2259 -0.3857
17687SOL     OW56462   9.280   7.815   9.846 -0.2079 -0.1152 -0.1733
17687SOL    HW156463   9.359   7.862   9.819 -0.2580 -0.8744 -1.7543
17687SOL    HW256464   9.308   7.723   9.853 -1.0391 -0.4576 -1.1669
17688SOL     OW56465   2.502   3.971   5.231  0.2777 -0.3229 -0.4163
17688SOL    HW156466   2.572   4.025   5.268  0.8546 -0.7336 -0.8869
17688SOL    HW256467   2.445   3.952   5.306  0.4287  0.3737 -0.1124
17689SOL     OW56468   9.098   4.971   4.723 -0.2929 -0.3882  0.3807
17689SOL    HW156469   9.113   5.052   4.676 -1.4022  0.5411  1.5259
17689SOL    HW256470   9.066   4.910   4.657 -1.7419  0.8518 -0.1433
17690SOL     OW56471   6.606   2.259  10.795 -0.0344  0.4895 -0.1201
17690SOL    HW156472   6.656   2.312  10.733 -1.5788  1.9938 -0.1641
17690SOL    HW256473   6.637   2.286  10.881  0.9421 -0.4074 -0.1625
17691SOL     OW56474   5.625   0.637   7.860 -0.3603  0.0345 -0.1791
17691SOL    HW156475   5.580   0.603   7.783 -2.1323 -0.3758  0.9915
17691SOL    HW256476   5.604   0.575   7.930 -0.8919  1.7296  1.2350
17692SOL     OW56477   2.756   9.008   1.632 -0.1726  0.2088  0.0837
17692SOL    HW156478   2.748   8.912   1.634 -0.7842  0.2600  0.2104
17692SOL    HW256479   2.682   9.039   1.684 -0.2650  0.7656 -0.3789
17693SOL     OW56480   8.116   8.434   2.306  1.0211  0.3950  0.0227
17693SOL    HW156481   8.056   8.507   2.323  2.0701  1.4266 -0.5855
17693SOL    HW256482   8.123   8.430   2.211 -0.8335 -2.0493 -0.1146
17694SOL     OW56483   6.448   2.291   5.712  0.4677 -0.8454 -0.8677
17694SOL    HW156484   6.491   2.345   5.646 -0.1436 -1.5927 -1.8952
17694SOL    HW256485   6.420   2.213   5.665 -1.2819 -0.7464 -0.0402
17695SOL     OW56486  10.157   0.333   8.345 -0.0202 -0.0291  0.0551
17695SOL    HW156487  10.189   0.337   8.255  0.1725  0.0490  0.1263
17695SOL    HW256488  10.062   0.320   8.336  0.2334 -2.1559 -0.1699
17696SOL     OW56489   5.647   6.934   1.363  0.4139  0.7343 -0.1099
17696SOL    HW156490   5.567   6.956   1.316  1.2529  1.8724 -1.0668
17696SOL    HW256491   5.670   6.847   1.331 -0.5845  0.2637  0.4061
17697SOL     OW56492  10.824   3.573  10.315 -0.3520  0.4315 -0.1514
17697SOL    HW156493  10.857   3.617  10.237 -0.0862 -0.5609 -0.6135
17697SOL    HW256494  10.785   3.492  10.282  0.9269 -0.6378  0.8569
17698SOL     OW56495  10.808   2.457   7.227 -0.1018 -0.4773  0.0509
17698SOL    HW156496  10.741   2.524   7.210 -0.5723 -0.9207  0.1398
17698SOL    HW256497  10.761   2.387   7.271  0.0759 -1.5214 -1.3715
17699SOL     OW56498   8.950   5.395   3.069  0.2061 -0.0075  0.5817
17699SOL    HW156499   8.867   5.370   3.110 -0.3783 -0.4103 -0.7932
17699SOL    HW256500   8.965   5.329   3.003 -0.2948  2.0317 -1.7105
17700SOL     OW56501   8.577   9.466   5.676 -0.0599 -0.3756 -0.5478
17700SOL    HW156502   8.543   9.555   5.691 -1.4283 -0.9023 -0.3971
17700SOL    HW256503   8.632   9.449   5.753  0.9462  0.6547 -1.0032
17701SOL     OW56504   8.363   5.860   4.777  0.0444 -0.5947  0.4598
17701SOL    HW156505   8.320   5.931   4.826  0.0314 -1.3029  1.5033
17701SOL    HW256506   8.351   5.884   4.686  0.1986  0.8452  0.7900
17702SOL     OW56507   0.762   7.779   2.277 -0.5139 -0.5281 -0.9489
17702SOL    HW156508   0.836   7.803   2.333  0.3941 -0.3348 -2.2006
17702SOL    HW256509   0.774   7.685   2.261 -1.7133 -0.9813  0.4908
17703SOL     OW56510   8.063   8.675   0.808 -0.0832  0.1504  0.1204
17703SOL    HW156511   7.998   8.738   0.840 -0.5982 -0.9665  1.3646
17703SOL    HW256512   8.123   8.663   0.881 -0.3083 -1.1995  0.0996
17704SOL     OW56513   8.692   2.256   6.187 -0.2700 -0.1039 -0.3615
17704SOL    HW156514   8.618   2.196   6.193  0.6953 -1.1821  1.5786
17704SOL    HW256515   8.757   2.209   6.134 -0.3557  0.1907 -0.7356
17705SOL     OW56516   4.615   1.009   0.036 -0.2588  0.2865 -0.1990
17705SOL    HW156517   4.587   0.918   0.034 -1.4379  0.6310 -1.5610
17705SOL    HW256518   4.535   1.058   0.057 -0.2346  1.1525 -1.8976
17706SOL     OW56519   4.679   9.503   5.086  0.3283  0.2611  0.1051
17706SOL    HW156520   4.614   9.567   5.115  0.1025 -0.3312  0.9621
17706SOL    HW256521   4.662   9.425   5.139 -2.2443 -2.1713 -3.7530
17707SOL     OW56522   8.466   9.955   5.165 -0.1545 -0.5403  0.4662
17707SOL    HW156523   8.550   9.996   5.185  0.1428 -1.2736  0.7640
17707SOL    HW256524   8.412  10.026   5.131  0.0330  0.3185  1.8868
17708SOL     OW56525   7.709   1.813   6.491 -0.1401 -0.3436 -0.8102
17708SOL    HW156526   7.769   1.748   6.528 -1.6777 -0.6149  1.4540
17708SOL    HW256527   7.739   1.826   6.401  1.9540 -2.0362 -0.4306
17709SOL     OW56528  10.148   9.297   1.057 -0.1200  0.1897 -0.0276
17709SOL    HW156529  10.077   9.351   1.092 -0.5752  0.6152 -1.5194
17709SOL    HW256530  10.110   9.209   1.050 -0.8098  0.5834 -1.5966
17710SOL     OW56531   5.147   5.018   0.793 -0.2456 -0.4001 -0.4007
17710SOL    HW156532   5.061   5.007   0.753  0.0122  0.6010 -1.2641
17710SOL    HW256533   5.156   5.113   0.805  0.5822 -0.5229  0.0257
17711SOL     OW56534   7.859   8.538   2.140  0.1195  0.2975 -0.2817
17711SOL    HW156535   7.776   8.493   2.123  0.4101 -1.1305  1.7435
17711SOL    HW256536   7.835   8.631   2.147 -0.8289  0.2798 -2.4382
17712SOL     OW56537   2.555   7.492   6.424  0.0889  0.0128 -0.4700
17712SOL    HW156538   2.554   7.453   6.512 -0.7930 -0.4079 -0.6448
17712SOL    HW256539   2.507   7.574   6.434  1.3283  0.7368 -0.2526
17713SOL     OW56540   8.408   4.113   7.718 -0.4749 -0.2170  0.2369
17713SOL    HW156541   8.459   4.100   7.798  0.5736  1.7792 -0.0275
17713SOL    HW256542   8.337   4.172   7.744  1.0354  2.1556 -0.5899
17714SOL     OW56543   9.255   4.201   5.499  0.6313 -0.4709  0.3302
17714SOL    HW156544   9.307   4.152   5.563  0.8906 -0.4184  0.1593
17714SOL    HW256545   9.290   4.175   5.414 -0.9407 -1.9989  0.0885
17715SOL     OW56546   0.108   1.976   2.158 -0.3265  0.3467 -0.5819
17715SOL    HW156547   0.080   1.947   2.071 -1.4210 -0.1243 -0.0984
17715SOL    HW256548   0.182   1.919   2.179 -1.5663 -1.2315 -0.2343
17716SOL     OW56549   6.466   5.207   9.331 -0.0947  0.2066  0.6379
17716SOL    HW156550   6.505   5.122   9.313 -0.0146  0.1373  1.1415
17716SOL    HW256551   6.464   5.251   9.245  1.5927  0.4331  0.6765
17717SOL     OW56552   3.213   5.614   8.091 -0.2355  0.8074 -0.3997
17717SOL    HW156553   3.183   5.617   8.001  0.0388  1.0127 -0.4852
17717SOL    HW256554   3.285   5.551   8.091  0.0663  1.1462 -0.4179
17718SOL     OW56555   4.973   2.029   0.100  0.6767  0.4627  0.0007
17718SOL    HW156556   5.051   2.083   0.107 -0.2944  1.7899  1.0039
17718SOL    HW256557   5.000   1.943   0.133  1.8371  0.7524 -0.1561
17719SOL     OW56558   7.917  10.138   8.923  0.4445 -0.2082  0.2077
17719SOL    HW156559   7.940  10.064   8.978 -0.1635  0.2855  1.1432
17719SOL    HW256560   7.968  10.125   8.843  0.0400 -1.8495  0.1843
17720SOL     OW56561   6.132   2.904   3.573 -0.5515 -0.0875  0.4095
17720SOL    HW156562   6.050   2.893   3.526 -0.7422 -1.9219  1.1131
17720SOL    HW256563   6.112   2.882   3.664 -0.0312  2.7360  1.3248
17721SOL     OW56564   6.727   6.706   3.946 -0.1085 -0.2313  0.1764
17721SOL    HW156565   6.646   6.758   3.943 -0.6446 -0.9950  1.0773
17721SOL    HW256566   6.744   6.685   3.854 -0.3039  0.8790 -0.1305
17722SOL     OW56567  10.405   3.804   2.742 -0.4185 -0.0419 -0.2788
17722SOL    HW156568  10.449   3.737   2.690  0.2967 -0.1273  0.4207
17722SOL    HW256569  10.449   3.886   2.717 -1.0505  0.1327 -0.8665
17723SOL     OW56570  10.143   9.434   2.724  0.4624  0.3348  0.2730
17723SOL    HW156571  10.234   9.405   2.726  0.5681  0.6321 -0.2606
17723SOL    HW256572  10.101   9.385   2.796  0.2983 -2.2684 -1.4565
17724SOL     OW56573   3.797   9.713   4.967 -0.5932 -0.0951 -0.0432
17724SOL    HW156574   3.806   9.783   5.032 -0.7897 -0.1442  0.0357
17724SOL    HW256575   3.809   9.757   4.882  0.8137 -0.2121  0.0596
17725SOL     OW56576   5.428  10.752   1.391 -0.0738  0.0195 -0.4770
17725SOL    HW156577   5.424  10.841   1.358  2.0512  1.0493  1.7301
17725SOL    HW256578   5.375  10.754   1.471  0.7587 -0.4004  0.1017
17726SOL     OW56579   6.811   4.547   4.692 -0.1199 -0.1737  0.2769
17726SOL    HW156580   6.878   4.548   4.623 -1.8395 -0.1372 -1.4884
17726SOL    HW256581   6.741   4.492   4.657 -1.0087 -0.2826  2.0865
17727SOL     OW56582   2.619  10.017   7.524  0.4292  0.2062 -0.1883
17727SOL    HW156583   2.614  10.063   7.439  0.7213  2.6155  1.0049
17727SOL    HW256584   2.572  10.075   7.584  1.6894 -0.5878  1.6277
17728SOL     OW56585   9.130   6.489  10.114 -0.1439  0.1925  0.1995
17728SOL    HW156586   9.182   6.408  10.112  1.5412  1.1618  1.6609
17728SOL    HW256587   9.096   6.497  10.025 -0.3372 -2.0954  0.0143
17729SOL     OW56588   4.889   7.113   0.452  0.4663 -0.2923  0.1949
17729SOL    HW156589   4.944   7.146   0.523 -0.7497  1.5416  0.3649
17729SOL    HW256590   4.928   7.149   0.372 -0.1021  0.5030  0.2630
17730SOL     OW56591   6.388   5.975   5.075  0.0844  0.4236  0.6391
17730SOL    HW156592   6.339   6.032   5.134 -0.6610 -0.9961  1.4441
17730SOL    HW256593   6.378   5.887   5.112 -0.0511 -0.4592 -1.3731
17731SOL     OW56594   8.794   2.294   7.534 -0.1366  0.0699  0.6885
17731SOL    HW156595   8.726   2.246   7.581  0.1996 -1.0229  0.0822
17731SOL    HW256596   8.752   2.378   7.511 -0.6579  0.1706  1.9352
17732SOL     OW56597   7.466   7.992   1.577  0.5425 -0.0565  0.6809
17732SOL    HW156598   7.542   8.045   1.600 -0.2140  0.9339  0.9811
17732SOL    HW256599   7.432   8.031   1.496 -0.0939  0.0061  0.9697
17733SOL     OW56600   7.829   2.180   6.334 -0.3029  0.8895  0.1466
17733SOL    HW156601   7.811   2.087   6.322  0.8767  0.8259 -1.4077
17733SOL    HW256602   7.924   2.185   6.345 -0.0167  2.0876 -2.2477
17734SOL     OW56603   8.179   5.748  10.805 -0.0443 -0.2506 -0.2650
17734SOL    HW156604   8.196   5.739  10.711  0.6358 -0.2722 -0.1474
17734SOL    HW256605   8.191   5.659  10.840  1.1978  0.0200  0.0601
17735SOL     OW56606   1.504   3.449   3.595  0.3074 -0.2870  0.2787
17735SOL    HW156607   1.575   3.456   3.530  0.1019  2.0051  0.2105
17735SOL    HW256608   1.428   3.486   3.550 -1.9252 -5.3049 -0.7508
17736SOL     OW56609   7.115   0.548   2.526 -0.5102 -0.0450 -0.0226
17736SOL    HW156610   7.181   0.608   2.561  1.2551 -0.1631 -2.7715
17736SOL    HW256611   7.156   0.461   2.532 -0.9832 -0.3112 -0.5014
17737SOL     OW56612   4.921   1.654   1.685  0.6243  0.0571 -0.0707
17737SOL    HW156613   4.877   1.626   1.765  0.0972 -1.5829 -0.9021
17737SOL    HW256614   4.850   1.674   1.624  1.0298 -0.0534 -0.5830
17738SOL     OW56615   8.446   6.756  10.127  0.5340 -0.0716  0.1588
17738SOL    HW156616   8.501   6.810  10.183 -1.7666  1.7152  0.8706
17738SOL    HW256617   8.408   6.691  10.185  0.9991 -0.5879 -0.1048
17739SOL     OW56618   8.138   1.069   3.580 -0.0704 -0.2780 -0.6265
17739SOL    HW156619   8.157   1.096   3.670  1.0217 -0.2372 -0.8560
17739SOL    HW256620   8.117   0.976   3.587  1.1691 -0.5726 -0.4489
17740SOL     OW56621   8.454   6.964   1.925  0.8030 -0.6509 -0.3999
17740SOL    HW156622   8.439   7.058   1.914  0.3909 -0.5845  0.6233
17740SOL    HW256623   8.369   6.925   1.906  0.2873 -0.5946  1.5380
17741SOL     OW56624   8.220   3.609   0.904 -0.2409 -0.2188 -0.0168
17741SOL    HW156625   8.151   3.548   0.878  1.0540 -1.2299 -1.2578
17741SOL    HW256626   8.175   3.676   0.955 -2.0736 -1.0164 -0.4999
17742SOL     OW56627   3.607   0.429   7.022 -0.6097 -0.3067  0.9361
17742SOL    HW156628   3.686   0.375   7.014 -2.2725 -2.8766  0.9653
17742SOL    HW256629   3.618   0.476   7.104  1.4447  0.3996  0.3149
17743SOL     OW56630   0.086   2.239   9.481 -0.4149 -0.1018  0.4291
17743SOL    HW156631  -0.003   2.233   9.516 -0.4080  0.5590  0.5672
17743SOL    HW256632   0.096   2.160   9.429 -1.2411  0.0321  0.0523
17744SOL     OW56633   8.827   9.438   4.740  0.1363 -0.2328  0.1052
17744SOL    HW156634   8.830   9.492   4.820  2.9201  0.8155 -0.6082
17744SOL    HW256635   8.880   9.362   4.761 -1.4330 -1.3703  0.1269
17745SOL     OW56636   1.666   3.775   0.499  0.5143 -0.3179  0.6582
17745SOL    HW156637   1.707   3.763   0.585  0.9079  2.2000  0.9145
17745SOL    HW256638   1.658   3.870   0.490 -5.6158 -0.4433  0.7433
17746SOL     OW56639   9.427   4.123   8.913  0.1289  0.2105  0.1570
17746SOL    HW156640   9.409   4.163   8.997 -0.0536  1.3155 -0.3907
17746SOL    HW256641   9.366   4.049   8.908  1.2097 -0.8249  1.6323
17747SOL     OW56642   6.469   3.985   3.607 -0.1406 -0.3030  0.2400
17747SOL    HW156643   6.412   4.023   3.540  1.6915 -0.0593 -1.2429
17747SOL    HW256644   6.449   4.035   3.686 -2.0657 -0.3377 -0.1606
17748SOL     OW56645   4.709   7.666   0.073 -0.0009  0.7554  0.2741
17748SOL    HW156646   4.645   7.644   0.006  0.1576  1.3671 -0.0803
17748SOL    HW256647   4.657   7.672   0.154 -0.4243  1.4675 -0.0492
17749SOL     OW56648   2.501   6.345   8.669 -0.2416  0.4228 -0.1267
17749SOL    HW156649   2.502   6.294   8.588 -2.1051 -1.7140  1.0597
17749SOL    HW256650   2.586   6.330   8.709 -1.0774 -2.8300  0.6948
17750SOL     OW56651   4.140   8.949   6.093 -0.1531  0.0910 -0.0768
17750SOL    HW156652   4.181   8.921   6.012 -0.3243  0.0282 -0.1430
17750SOL    HW256653   4.067   9.004   6.065 -0.9059 -0.8449 -0.0064
17751SOL     OW56654   2.423   6.004   4.855  0.1026 -0.2083 -0.3346
17751SOL    HW156655   2.349   6.049   4.895 -0.3381 -2.5221  1.6593
17751SOL    HW256656   2.386   5.921   4.825  1.5243 -0.6236 -0.9931
17752SOL     OW56657   1.760   4.785   8.687 -0.3341 -0.3054  0.0234
17752SOL    HW156658   1.801   4.815   8.768 -0.8527  0.3208  0.0575
17752SOL    HW256659   1.832   4.747   8.637 -0.1698 -1.6366  1.1934
17753SOL     OW56660   3.684   4.932   6.454  0.0288 -0.0515  0.1436
17753SOL    HW156661   3.774   4.962   6.440  0.1631 -0.9930 -1.1857
17753SOL    HW256662   3.633   5.013   6.461  0.8897  0.4895  0.3835
17754SOL     OW56663   0.109   6.319   8.887  0.3764 -0.4726 -0.3886
17754SOL    HW156664   0.053   6.393   8.862 -0.6378 -1.3821 -0.8672
17754SOL    HW256665   0.172   6.357   8.949 -1.9556  0.2330  1.7366
17755SOL     OW56666   3.903   2.964   4.528 -0.5615  0.1346  0.0701
17755SOL    HW156667   3.927   2.879   4.490 -0.0486 -0.7312  2.1523
17755SOL    HW256668   3.808   2.965   4.529 -0.6298  0.7808 -2.3826
17756SOL     OW56669   3.704   2.660   8.935  0.0679 -0.1742 -0.0346
17756SOL    HW156670   3.797   2.652   8.915  0.4589  1.9022  0.6281
17756SOL    HW256671   3.702   2.717   9.012 -1.7724  0.2632 -0.3673
17757SOL     OW56672   7.780   0.189   3.457  0.0393 -0.1440 -0.1708
17757SOL    HW156673   7.740   0.127   3.396 -2.2147  0.5380  0.5377
17757SOL    HW256674   7.865   0.209   3.418  0.3300 -2.6790 -1.0653
17758SOL     OW56675   9.475   9.064   8.187 -0.5497 -0.1091 -0.7876
17758SOL    HW156676   9.387   9.098   8.170 -0.1903  0.0166 -2.5426
17758SOL    HW256677   9.465   8.969   8.178 -0.3855 -0.0508 -1.6210
17759SOL     OW56678   5.178   7.505   1.178  0.2841  0.3884 -0.1449
17759SOL    HW156679   5.184   7.554   1.095  2.2814  2.0146  0.8738
17759SOL    HW256680   5.234   7.554   1.239 -0.2610 -1.3747  1.8863
17760SOL     OW56681   3.107   5.938   4.508 -0.2745  0.2185  0.1603
17760SOL    HW156682   3.145   5.914   4.424  0.8245  0.5341  0.5535
17760SOL    HW256683   3.060   5.859   4.536  0.7214 -0.4468  0.0029
17761SOL     OW56684   1.645   9.756   6.000 -0.0006  0.1528  0.0649
17761SOL    HW156685   1.600   9.706   6.069  0.0062  0.8048  0.5554
17761SOL    HW256686   1.686   9.690   5.945  2.5278 -0.3502  2.3738
17762SOL     OW56687   8.158   1.858   2.053  0.4007  0.1823 -0.0762
17762SOL    HW156688   8.223   1.829   1.989 -0.6845 -1.2508 -0.5906
17762SOL    HW256689   8.201   1.928   2.101  2.8522 -1.6226  0.5360
17763SOL     OW56690   2.248   4.457   9.955  0.0722 -0.0313  0.7129
17763SOL    HW156691   2.339   4.444   9.927 -0.1938 -1.4346  0.4512
17763SOL    HW256692   2.209   4.370   9.953 -1.1074  0.4533  1.4790
17764SOL     OW56693   9.738   9.841   2.759 -0.2018  0.5156 -0.4934
17764SOL    HW156694   9.778   9.793   2.687 -1.4474  0.6134 -1.2676
17764SOL    HW256695   9.739   9.779   2.832  0.6073  0.2454 -0.7137
17765SOL     OW56696   1.375   1.813   1.585 -0.0573 -0.6225  0.8046
17765SOL    HW156697   1.350   1.814   1.493 -0.8850  1.0013  1.0041
17765SOL    HW256698   1.463   1.775   1.586 -0.3608 -1.4173 -0.5474
17766SOL     OW56699   0.882   9.309   4.723  0.3507 -0.2082 -0.5253
17766SOL    HW156700   0.924   9.238   4.772 -1.6678  0.7013  2.8860
17766SOL    HW256701   0.924   9.389   4.756 -1.7011  0.4932  0.5855
17767SOL     OW56702  10.601   7.865   6.919  0.4327 -0.2516 -0.5692
17767SOL    HW156703  10.663   7.938   6.915  0.6587 -0.4149 -0.0982
17767SOL    HW256704  10.649   7.791   6.884  0.8037 -0.5798  0.6033
17768SOL     OW56705   0.502  10.124   2.600  0.1685 -0.3159 -0.1023
17768SOL    HW156706   0.582  10.173   2.582 -0.9463  1.1388 -1.3571
17768SOL    HW256707   0.478  10.148   2.690  0.5276  0.1455 -0.1300
17769SOL     OW56708   5.670   4.326   7.828 -0.4865  0.1720  0.1192
17769SOL    HW156709   5.747   4.354   7.779 -0.8512  0.7152 -0.1503
17769SOL    HW256710   5.622   4.269   7.767  0.0905 -0.8139  0.5568
17770SOL     OW56711   8.281   9.464   2.628  0.1311  0.0425  0.0159
17770SOL    HW156712   8.345   9.457   2.700 -0.0830 -0.3749  0.1704
17770SOL    HW256713   8.266   9.374   2.601  1.0426  0.2560 -1.3040
17771SOL     OW56714   9.911   9.395   9.909  0.2484  0.2152  0.7319
17771SOL    HW156715   9.952   9.439   9.835 -1.5473  0.1121 -0.3825
17771SOL    HW256716   9.983   9.353   9.955  1.4653  0.6616 -0.6994
17772SOL     OW56717   8.472   9.307   4.863  0.5143 -0.1212 -0.5487
17772SOL    HW156718   8.512   9.296   4.777  0.6860 -0.2107 -0.4571
17772SOL    HW256719   8.545   9.322   4.922  0.2879  1.9618 -0.7230
17773SOL     OW56720   5.566   4.809   9.832  0.2421 -0.2682 -0.4106
17773SOL    HW156721   5.651   4.796   9.876 -0.2276 -1.1506  0.2811
17773SOL    HW256722   5.516   4.863   9.893 -0.0797 -0.6988 -0.2845
17774SOL     OW56723   0.251   9.599   5.209  0.2259 -0.1035 -0.0693
17774SOL    HW156724   0.217   9.597   5.299  0.6339 -1.5102  0.0846
17774SOL    HW256725   0.261   9.507   5.186  2.4112  0.2453 -0.6881
17775SOL     OW56726   2.601  10.816   7.114  0.3518  0.3066  0.0779
17775SOL    HW156727   2.669  10.808   7.180  0.7898 -0.0106 -0.4052
17775SOL    HW256728   2.554  10.733   7.117  0.8208  0.0135 -0.4894
17776SOL     OW56729   9.167   7.357   9.885  0.2180 -0.4270 -0.4749
17776SOL    HW156730   9.081   7.398   9.883  0.7159  0.6721 -0.3122
17776SOL    HW256731   9.163   7.294   9.956 -0.6225 -0.7883 -0.8361
17777SOL     OW56732   2.230   8.806   9.021  0.2417  0.0391 -0.0425
17777SOL    HW156733   2.171   8.796   8.946  0.6421  1.4622 -0.5654
17777SOL    HW256734   2.316   8.819   8.982  0.6882 -0.6067  0.6993
17778SOL     OW56735   1.724   4.875   0.010  0.1193 -0.5542  0.7873
17778SOL    HW156736   1.717   4.814  -0.063  0.8346 -1.0917  1.1511
17778SOL    HW256737   1.654   4.849   0.070  0.2990 -0.8827  0.8514
17779SOL     OW56738  10.165   8.286   2.155  0.0664 -0.4394 -0.5334
17779SOL    HW156739  10.092   8.239   2.114  0.5960 -0.2549 -1.7069
17779SOL    HW256740  10.147   8.278   2.249  0.2996 -3.2878 -0.6323
17780SOL     OW56741   7.355   7.286   1.512  0.1887 -0.8420  0.1129
17780SOL    HW156742   7.312   7.271   1.427 -1.8100 -0.6157  1.0194
17780SOL    HW256743   7.318   7.369   1.543  0.0760 -1.4309  1.6532
17781SOL     OW56744   6.827   1.381   5.083  0.4833  0.1047 -0.1515
17781SOL    HW156745   6.765   1.308   5.087  0.9117 -0.2501 -0.0496
17781SOL    HW256746   6.803   1.428   5.003  1.3152 -1.1332 -1.1462
17782SOL     OW56747   0.075   8.428   1.273 -0.4650 -0.1287  0.1849
17782SOL    HW156748   0.078   8.466   1.360  0.7743  0.6669 -0.1710
17782SOL    HW256749   0.005   8.475   1.228  1.5527  2.4768 -0.5098
17783SOL     OW56750   7.272   3.973  10.511  0.3813 -0.2424  0.1487
17783SOL    HW156751   7.271   4.042  10.577  0.3918 -1.2967  1.2921
17783SOL    HW256752   7.181   3.964  10.484  0.6536  1.7948 -1.7845
17784SOL     OW56753   3.482   9.589   6.097  0.2025 -0.4878  0.1448
17784SOL    HW156754   3.528   9.542   6.027 -0.4173  1.4735 -1.7182
17784SOL    HW256755   3.549   9.645   6.137  0.1651 -0.1372 -0.2698
17785SOL     OW56756   5.077   0.973   6.562 -0.2377 -0.3424  0.4236
17785SOL    HW156757   5.152   1.016   6.604  0.8176 -0.3383 -1.3543
17785SOL    HW256758   5.079   0.884   6.597  0.3278 -0.2258  0.7168
17786SOL     OW56759   8.331  10.370   0.862  0.6808  0.3381 -1.1922
17786SOL    HW156760   8.396  10.423   0.815 -0.7614  0.4102 -3.2245
17786SOL    HW256761   8.251  10.381   0.812 -0.4869 -1.1542  0.2582
17787SOL     OW56762   8.549   1.790   8.011 -0.2863  0.8276 -0.0662
17787SOL    HW156763   8.498   1.854   8.062  1.4244  0.5251  2.1671
17787SOL    HW256764   8.636   1.793   8.050  0.5645 -0.9405 -1.7159
17788SOL     OW56765   9.281   3.124   6.414  0.0262 -0.6552  0.1531
17788SOL    HW156766   9.264   3.059   6.482 -1.2514  0.0015  0.4979
17788SOL    HW256767   9.223   3.099   6.342  1.4748 -1.4317 -0.7888
17789SOL     OW56768   4.600   5.895   3.887 -0.7105 -0.5127 -1.0002
17789SOL    HW156769   4.537   5.945   3.938  0.4583 -0.2105  0.2131
17789SOL    HW256770   4.595   5.806   3.922  1.3394  0.0535  1.0107
17790SOL     OW56771   9.628   7.265   0.705  0.3214  0.6154  1.1656
17790SOL    HW156772   9.550   7.312   0.678  0.8604 -0.2421 -2.4003
17790SOL    HW256773   9.595   7.186   0.748 -0.7812  0.7052  0.5203
17791SOL     OW56774   5.489   8.996   6.001 -0.4005 -0.3648  0.3098
17791SOL    HW156775   5.431   8.921   5.987  2.7217 -3.0956  0.7362
17791SOL    HW256776   5.565   8.960   6.047  1.6912  2.9261 -0.1816
17792SOL     OW56777   0.336   1.439   6.251  0.1696 -1.0779 -0.1303
17792SOL    HW156778   0.423   1.478   6.248  0.0494 -0.7722  0.2477
17792SOL    HW256779   0.277   1.512   6.234 -0.0786 -0.9775  1.0288
17793SOL     OW56780   8.996   3.904   2.163 -0.8469 -0.3519 -0.1805
17793SOL    HW156781   8.950   3.901   2.247 -3.1727  0.0240 -1.3426
17793SOL    HW256782   9.030   3.816   2.151 -0.0257 -0.2749  1.3632
17794SOL     OW56783   0.087   5.130   8.312  0.3399  0.0461  0.4600
17794SOL    HW156784   0.147   5.199   8.341 -0.0450  0.0061  1.4124
17794SOL    HW256785   0.102   5.058   8.374 -1.1167  0.2724  1.1246
17795SOL     OW56786  10.552   1.420   1.912 -1.3241  0.9786  0.4142
17795SOL    HW156787  10.469   1.443   1.955 -1.8017  3.2368 -1.5177
17795SOL    HW256788  10.606   1.499   1.922  0.0774  0.0442  0.3896
17796SOL     OW56789   5.039   7.158   6.530 -0.4253  0.3416 -0.2789
17796SOL    HW156790   5.104   7.182   6.596  1.2654 -0.9631 -1.3675
17796SOL    HW256791   5.046   7.226   6.462  0.7399 -0.4516 -0.9815
17797SOL     OW56792   0.900   7.469   7.828 -0.4978 -0.0429  0.1871
17797SOL    HW156793   0.832   7.537   7.834 -1.4886 -0.8233 -1.4871
17797SOL    HW256794   0.956   7.498   7.756 -1.2117 -1.1961 -0.8685
17798SOL     OW56795   2.749   7.988   0.223  0.8022 -0.5843 -0.6173
17798SOL    HW156796   2.774   7.931   0.296 -1.4332  0.5533  1.2102
17798SOL    HW256797   2.829   8.031   0.197  2.1603 -2.9487 -0.6365
17799SOL     OW56798   4.826   0.799   0.762 -0.1742 -0.3255  0.4327
17799SOL    HW156799   4.734   0.774   0.774  0.4626 -2.3116  1.7596
17799SOL    HW256800   4.834   0.818   0.668 -1.2701 -3.3791 -0.4000
17800SOL     OW56801   7.606  10.057   4.068 -0.4810 -0.2719 -0.1652
17800SOL    HW156802   7.594  10.066   3.974 -1.1043 -1.2887 -0.2071
17800SOL    HW256803   7.700  10.042   4.080 -0.4240 -0.2956 -0.6414
17801SOL     OW56804   1.169   5.184   0.879  0.2773 -0.0803  0.1082
17801SOL    HW156805   1.076   5.159   0.882  0.3739 -0.5237 -0.4695
17801SOL    HW256806   1.191   5.185   0.786  0.6729  0.7197  0.2007
17802SOL     OW56807   1.792   5.066   7.929 -0.0031  0.4257  0.3424
17802SOL    HW156808   1.750   5.067   7.843 -0.1139  0.4099  0.3965
17802SOL    HW256809   1.846   5.145   7.930  0.3795  0.1715  0.0698
17803SOL     OW56810   0.714   9.080   2.099  0.1204  0.0892 -0.1376
17803SOL    HW156811   0.733   9.153   2.159  1.2383  0.0202 -0.3829
17803SOL    HW256812   0.692   9.007   2.156  1.4702 -0.0572  0.2333
17804SOL     OW56813   3.989   9.555   6.912 -0.3790 -0.0541 -0.5339
17804SOL    HW156814   4.012   9.634   6.862  0.3804 -0.0868 -0.2521
17804SOL    HW256815   4.041   9.562   6.993 -1.3293 -0.1717  0.0987
17805SOL     OW56816   0.546  10.689   8.167  0.0323 -0.9266  0.1302
17805SOL    HW156817   0.579  10.667   8.254 -0.3940 -1.4638  0.1577
17805SOL    HW256818   0.467  10.741   8.183  0.4355 -0.2781  0.0612
17806SOL     OW56819   2.167   4.216   6.854  0.5083  0.5271  0.3750
17806SOL    HW156820   2.087   4.256   6.887 -2.1227 -3.7653 -0.0342
17806SOL    HW256821   2.209   4.179   6.931 -0.3650 -1.0571  0.1162
17807SOL     OW56822   8.976   6.607  10.702  0.5661 -0.1768  0.2397
17807SOL    HW156823   8.937   6.682  10.657 -1.1419 -0.2857  1.4490
17807SOL    HW256824   8.958   6.533  10.644  0.6620  0.0730 -0.1119
17808SOL     OW56825   6.488   6.095   3.287 -0.4493 -0.0951 -0.2222
17808SOL    HW156826   6.400   6.134   3.292  0.2118  1.5197 -0.5382
17808SOL    HW256827   6.501   6.054   3.372  0.0497  3.2462  1.4616
17809SOL     OW56828   7.992   0.138   5.706  0.1957  0.0870  0.0406
17809SOL    HW156829   7.900   0.150   5.682  0.3308 -1.9716 -1.9015
17809SOL    HW256830   8.038   0.209   5.660 -0.3743  0.9678  0.8092
17810SOL     OW56831   7.920   6.164   6.508 -0.0517  0.0516  0.0119
17810SOL    HW156832   7.944   6.232   6.445  3.1910 -0.4415  0.5552
17810SOL    HW256833   7.827   6.149   6.493 -0.7625  4.0877 -0.5833
17811SOL     OW56834   3.606   4.128   9.386 -0.3314 -0.7508  0.1446
17811SOL    HW156835   3.666   4.124   9.460 -1.1253 -0.4847  0.8184
17811SOL    HW256836   3.663   4.127   9.309  0.5579 -0.1660  0.7699
17812SOL     OW56837   5.837   4.413   7.644  0.1750  0.6225  0.1485
17812SOL    HW156838   5.792   4.495   7.624 -0.2595  0.3522  0.0207
17812SOL    HW256839   5.825   4.359   7.567 -0.8959 -0.1519  0.8285
17813SOL     OW56840   7.793   2.684   2.263  0.0127 -0.2456  0.7319
17813SOL    HW156841   7.800   2.614   2.328 -0.3602  0.4087  1.5029
17813SOL    HW256842   7.768   2.761   2.314  2.2296  0.9144  0.1866
17814SOL     OW56843   2.490   3.858   7.511 -0.0096 -0.0562 -0.2871
17814SOL    HW156844   2.569   3.874   7.459 -0.5566  0.1958 -1.0596
17814SOL    HW256845   2.520   3.862   7.602  1.1301 -1.4189 -0.5738
17815SOL     OW56846   3.280   5.190   2.832  0.1337 -0.2747 -0.7116
17815SOL    HW156847   3.185   5.180   2.837  0.0360  0.9469  0.4523
17815SOL    HW256848   3.296   5.211   2.739 -0.3006 -3.7876 -1.7224
17816SOL     OW56849   4.637   3.533   8.930  0.2055  0.6864 -0.1413
17816SOL    HW156850   4.657   3.609   8.985 -0.8934  0.8724  0.0258
17816SOL    HW256851   4.542   3.522   8.938 -0.0283  0.8450 -2.1562
17817SOL     OW56852   0.055   8.060   0.148  0.5474 -0.4682 -0.2266
17817SOL    HW156853   0.001   8.025   0.077 -1.5380  1.2304  0.4173
17817SOL    HW256854   0.121   8.113   0.104 -0.7717  0.6424 -0.9773
17818SOL     OW56855   9.956  10.376   8.910 -0.0630  0.2184  0.8225
17818SOL    HW156856   9.889  10.405   8.971 -1.4383 -1.8879  0.4248
17818SOL    HW256857   9.913  10.308   8.858  1.9298 -0.0942 -0.5264
17819SOL     OW56858   8.699   0.078   6.077  0.4971 -0.0754 -0.7168
17819SOL    HW156859   8.725   0.033   6.157  1.5362 -0.3313 -1.1920
17819SOL    HW256860   8.729   0.168   6.089 -1.5459  0.5400  0.2169
17820SOL     OW56861   8.503   3.925   7.561 -0.0918  0.2135  0.3718
17820SOL    HW156862   8.452   3.961   7.633  0.0444 -0.1351  0.6438
17820SOL    HW256863   8.440   3.871   7.513 -0.5639  1.5881 -0.6269
17821SOL     OW56864  10.375   1.408   7.979 -0.3400  0.2324  0.6308
17821SOL    HW156865  10.415   1.390   7.894  0.4097 -2.6118  1.4794
17821SOL    HW256866  10.438   1.374   8.043 -1.6039  0.8216  2.2618
17822SOL     OW56867   3.515   6.636   6.481  0.2780  0.1413 -0.4523
17822SOL    HW156868   3.441   6.610   6.425  1.3899 -1.2995 -1.3107
17822SOL    HW256869   3.511   6.575   6.555  0.2334  0.4894 -0.1655
17823SOL     OW56870   8.125   3.689   4.928 -0.0656  0.1675  0.2704
17823SOL    HW156871   8.070   3.714   4.853 -0.9489 -1.8631  0.1735
17823SOL    HW256872   8.091   3.741   5.000  0.0983  1.3794 -0.4952
17824SOL     OW56873   8.375   4.073  10.045 -0.5569 -0.4000  0.6663
17824SOL    HW156874   8.385   3.994   9.991 -1.1999  0.2832 -0.5159
17824SOL    HW256875   8.301   4.054  10.102 -2.9422  0.4515 -1.8845
17825SOL     OW56876   2.590   7.422   2.106 -0.3684  0.0094 -0.1021
17825SOL    HW156877   2.646   7.347   2.082 -1.7656 -0.7587 -1.1029
17825SOL    HW256878   2.628   7.496   2.059  0.3728 -0.2910  0.0044
17826SOL     OW56879   1.330   9.251   5.893 -0.0358 -0.1519  0.5836
17826SOL    HW156880   1.276   9.297   5.828  0.5844  2.3341  1.7142
17826SOL    HW256881   1.277   9.174   5.917 -0.9201 -0.3507 -1.7376
17827SOL     OW56882   8.857   4.480   6.825 -0.2430 -0.3230  0.4045
17827SOL    HW156883   8.796   4.546   6.858  1.6543  2.0852 -0.5534
17827SOL    HW256884   8.913   4.460   6.900 -0.0951  0.0574  0.3978
17828SOL     OW56885   1.920   0.571   6.200 -0.0782  0.1618 -0.1805
17828SOL    HW156886   1.863   0.556   6.276 -0.4619 -0.3826 -0.5700
17828SOL    HW256887   2.001   0.526   6.223 -0.2250 -0.0781 -0.1236
17829SOL     OW56888   9.421   5.598   0.405 -0.4192  0.0522 -0.1071
17829SOL    HW156889   9.505   5.644   0.405 -1.1296  1.4413  1.0197
17829SOL    HW256890   9.356   5.667   0.416 -1.8937 -0.7687 -2.9142
17830SOL     OW56891  10.887   5.128  10.852  0.4479 -0.1661 -0.0860
17830SOL    HW156892  10.817   5.192  10.837 -0.0786 -0.5964  0.4715
17830SOL    HW256893  10.870   5.095  10.941  0.7382 -1.0442 -0.3506
17831SOL     OW56894   5.139   8.876   2.422 -0.2533 -0.9877 -0.0149
17831SOL    HW156895   5.126   8.906   2.512 -0.2666 -0.3443 -0.2275
17831SOL    HW256896   5.207   8.934   2.387 -2.2256  0.7019 -1.3357
17832SOL     OW56897   3.077   4.052   7.803 -0.2032 -0.5876 -0.5598
17832SOL    HW156898   3.137   4.116   7.766 -0.6553  0.1851  0.0160
17832SOL    HW256899   2.996   4.101   7.821  0.1327 -0.7558  1.8659
17833SOL     OW56900   2.903   3.509   9.338  0.0212 -0.2043 -0.1285
17833SOL    HW156901   2.817   3.473   9.360 -0.8187  0.0194 -2.7288
17833SOL    HW256902   2.899   3.601   9.365 -0.6873 -0.1124 -0.5402
17834SOL     OW56903   0.071   2.951   0.620 -0.3819  0.4016 -0.1255
17834SOL    HW156904   0.016   2.929   0.695  0.9034 -1.6405  0.2972
17834SOL    HW256905   0.093   2.867   0.581  0.8101  1.2910 -1.4607
17835SOL     OW56906   3.470   2.677   3.887 -0.1106 -0.1800 -0.2685
17835SOL    HW156907   3.466   2.621   3.809  1.7933  0.4083 -0.8693
17835SOL    HW256908   3.556   2.659   3.924  0.0607  1.4454  0.1987
17836SOL     OW56909  10.317   1.740   0.247 -0.5181 -0.1142 -0.1492
17836SOL    HW156910  10.373   1.810   0.214 -0.5722 -0.3996 -0.8554
17836SOL    HW256911  10.278   1.702   0.169  0.9294 -2.1472  0.0506
17837SOL     OW56912   6.501   4.941   9.793 -0.0670  0.0578 -0.2823
17837SOL    HW156913   6.490   4.971   9.883 -0.1979 -0.1197 -0.2387
17837SOL    HW256914   6.464   5.011   9.739 -1.3074 -0.4593 -0.1442
17838SOL     OW56915   1.923   7.952   9.590 -0.5430  0.5350 -0.2259
17838SOL    HW156916   1.946   7.863   9.563  0.1869  0.4740  0.5445
17838SOL    HW256917   1.909   7.946   9.684  0.7012  1.4497  0.0483
17839SOL     OW56918   2.684   6.430   6.746 -0.1433  0.3371  0.3475
17839SOL    HW156919   2.693   6.426   6.650 -2.1799 -2.4647  0.1570
17839SOL    HW256920   2.773   6.417   6.779  0.3857 -0.1346 -1.1768
17840SOL     OW56921   4.339   9.267   5.475  0.1480  0.0509  0.1880
17840SOL    HW156922   4.302   9.337   5.422 -0.7807 -0.8745 -0.4206
17840SOL    HW256923   4.272   9.248   5.540  0.7591  0.3164  0.9030
17841SOL     OW56924   5.547   6.822   3.374 -0.8647  0.1415 -0.2463
17841SOL    HW156925   5.600   6.748   3.346  0.5384  1.2874 -0.7575
17841SOL    HW256926   5.603   6.869   3.436 -1.8198  0.6491  0.2567
17842SOL     OW56927   6.738   5.903   3.615  0.5034  0.5343 -0.0939
17842SOL    HW156928   6.782   5.956   3.549 -0.6356  0.3058 -1.0527
17842SOL    HW256929   6.670   5.960   3.651 -0.1360  0.0335 -0.4931
17843SOL     OW56930   5.216   0.455   1.005  0.1728 -0.4498  0.2554
17843SOL    HW156931   5.251   0.391   0.944 -0.0638  0.2205 -0.6116
17843SOL    HW256932   5.156   0.405   1.061  0.5404 -1.1071  0.0668
17844SOL     OW56933  10.264  10.510   8.669  0.3818 -0.5114 -0.0187
17844SOL    HW156934  10.350  10.496   8.709 -0.1154  2.2258  2.4286
17844SOL    HW256935  10.271  10.597   8.629 -1.2963 -0.1112  0.4920
17845SOL     OW56936   7.210   2.145   6.113 -0.0166 -0.1222  0.4302
17845SOL    HW156937   7.197   2.079   6.045 -0.9522  0.6647 -0.1825
17845SOL    HW256938   7.294   2.185   6.091  0.2695 -0.6981  0.4588
17846SOL     OW56939   3.645   1.900   0.298 -0.0127 -0.2022 -0.0940
17846SOL    HW156940   3.649   1.848   0.217 -0.6739 -2.2335  1.1029
17846SOL    HW256941   3.727   1.880   0.343 -1.0756 -1.8607  1.2602
17847SOL     OW56942   4.402   0.570   0.620  0.1246 -0.0785 -0.1374
17847SOL    HW156943   4.343   0.638   0.654  0.2437  0.8224 -1.6594
17847SOL    HW256944   4.359   0.540   0.540  1.4420  0.2092 -0.9798
17848SOL     OW56945   2.019   1.397   9.088  0.6300  0.2326 -0.2521
17848SOL    HW156946   2.024   1.338   9.163  1.8467  1.1561  0.4273
17848SOL    HW256947   1.925   1.401   9.067  0.3034 -0.3327  0.9797
17849SOL     OW56948   8.926   0.266   8.904 -0.1527 -0.4649 -0.0594
17849SOL    HW156949   8.912   0.278   8.810  0.2625  1.2530  0.0682
17849SOL    HW256950   9.011   0.308   8.921 -0.2649 -0.6786  1.0998
17850SOL     OW56951   8.268   4.228   2.399  0.1176  0.0426 -0.2796
17850SOL    HW156952   8.348   4.236   2.347  0.6990  0.8904  0.6890
17850SOL    HW256953   8.231   4.316   2.399 -0.9680 -0.4036 -0.9267
17851SOL     OW56954   4.173   7.778   1.965  0.6560 -0.1720 -0.3553
17851SOL    HW156955   4.188   7.823   2.048  0.1663 -1.1977  0.2965
17851SOL    HW256956   4.230   7.824   1.903 -0.0011  1.5085  0.2302
17852SOL     OW56957   9.584   5.124   0.417  0.2759  0.4039 -0.3430
17852SOL    HW156958   9.539   5.125   0.502 -0.4181  2.4125 -0.6831
17852SOL    HW256959   9.640   5.202   0.418  0.9458 -0.0397 -1.3865
17853SOL     OW56960   3.094   6.277   3.030 -0.4590  0.4596 -0.3449
17853SOL    HW156961   3.000   6.295   3.019 -0.4658  1.1521  0.7437
17853SOL    HW256962   3.114   6.306   3.118  0.9311  0.8736 -0.7741
17854SOL     OW56963   2.678   4.949   3.152 -0.1344 -0.4194  0.3270
17854SOL    HW156964   2.654   4.983   3.066 -0.6857  0.1322  0.6910
17854SOL    HW256965   2.738   4.877   3.133 -0.0857 -0.1738 -0.5093
17855SOL     OW56966   8.008   8.649   4.238  0.0960  0.3497  0.8319
17855SOL    HW156967   8.077   8.647   4.305 -0.0246  1.6249  1.0162
17855SOL    HW256968   7.930   8.680   4.285  0.1856  1.9581 -0.0402
17856SOL     OW56969   4.319   4.277   1.289  0.2565  0.8765  0.1356
17856SOL    HW156970   4.262   4.205   1.263 -0.4950  1.3987  0.3229
17856SOL    HW256971   4.375   4.240   1.357  0.0329  0.4075  0.0685
17857SOL     OW56972   2.425   9.445  10.774  0.1503 -0.2622 -0.6205
17857SOL    HW156973   2.378   9.527  10.789 -1.0193 -0.6942 -1.7305
17857SOL    HW256974   2.378   9.380  10.826  1.4086 -0.1601  0.6982
17858SOL     OW56975  10.134   9.024   8.362  0.2015 -0.1506  0.1795
17858SOL    HW156976  10.224   9.056   8.355  0.8230 -1.3199  1.9935
17858SOL    HW256977  10.134   8.942   8.313 -0.2339  0.4418 -0.8444
17859SOL     OW56978   6.474   3.218   4.480  0.1069 -0.3214 -0.3562
17859SOL    HW156979   6.384   3.186   4.479 -0.6032  1.5718 -0.3369
17859SOL    HW256980   6.490   3.241   4.572 -0.1992  1.4298 -0.7114
17860SOL     OW56981   6.929   1.618   0.912  0.1719 -0.0156  0.0506
17860SOL    HW156982   6.926   1.653   1.001  0.3618  1.0437 -0.3523
17860SOL    HW256983   6.947   1.524   0.925  0.8132  0.2266  1.1122
17861SOL     OW56984   4.281   5.329   1.222  0.0835  0.4692  0.4744
17861SOL    HW156985   4.258   5.412   1.180  0.9168  0.6753  0.4054
17861SOL    HW256986   4.199   5.298   1.260  0.2334  2.6140  2.8016
17862SOL     OW56987   5.098   7.662   0.430 -0.0306 -0.4025  0.1808
17862SOL    HW156988   5.167   7.708   0.380 -0.3987  0.1721  0.1852
17862SOL    HW256989   5.071   7.726   0.496 -0.5959 -0.6123  0.1520
17863SOL     OW56990   9.157   8.591   1.629 -0.3348  0.0963 -0.2023
17863SOL    HW156991   9.094   8.519   1.615 -0.5763 -0.0471  1.4710
17863SOL    HW256992   9.232   8.549   1.670 -1.5494  1.1244  3.4013
17864SOL     OW56993  10.005   1.752   8.781 -0.1775  0.5671 -0.1701
17864SOL    HW156994   9.951   1.769   8.859 -0.5893  0.4868 -0.4363
17864SOL    HW256995   9.984   1.662   8.756  2.2612 -0.5772  1.4404
17865SOL     OW56996  10.087   6.980   6.711  0.7675 -0.6245  0.3648
17865SOL    HW156997  10.002   7.024   6.712  1.4578  0.9236 -1.6605
17865SOL    HW256998  10.071   6.896   6.670  0.3617  0.1399 -1.1188
17866SOL     OW56999   3.469   6.191   4.735 -0.0841 -0.3432 -0.8330
17866SOL    HW157000   3.498   6.106   4.768 -0.8282 -1.4707 -2.8651
17866SOL    HW257001   3.532   6.213   4.667  1.4895  1.9701  1.2395
17867SOL     OW57002   9.207   8.131   0.990  0.1931 -0.0265 -0.3361
17867SOL    HW157003   9.272   8.074   1.030  0.6311  2.7044  3.3998
17867SOL    HW257004   9.255   8.182   0.925  0.8686 -0.5733 -0.2751
17868SOL     OW57005   3.384   9.436   5.702 -0.0823  0.0046 -0.5605
17868SOL    HW157006   3.338   9.461   5.781 -0.6937 -1.9055 -0.2578
17868SOL    HW257007   3.456   9.499   5.695 -0.5986  0.8139  0.9450
17869SOL     OW57008  10.596   0.737   3.644 -0.6836 -0.3269  0.5831
17869SOL    HW157009  10.552   0.819   3.622  1.3855  0.6916 -0.0867
17869SOL    HW257010  10.641   0.755   3.727  1.4565  0.0004 -0.5621
17870SOL     OW57011   2.779   1.427   9.296 -0.1882 -0.6744 -0.0165
17870SOL    HW157012   2.792   1.518   9.269  0.4540 -0.6579  0.3331
17870SOL    HW257013   2.706   1.430   9.358  0.3149 -0.2985  0.5535
17871SOL     OW57014   1.578   0.736   8.897 -0.7857 -0.1363  0.0980
17871SOL    HW157015   1.552   0.796   8.966 -1.1200  1.3227 -1.2394
17871SOL    HW257016   1.612   0.659   8.943 -1.8096  0.4164  1.8578
17872SOL     OW57017   9.021   9.891   7.226  0.6538  0.0140 -0.7844
17872SOL    HW157018   9.003   9.797   7.230  1.8148 -0.2301 -1.1592
17872SOL    HW257019   9.039   9.909   7.134  1.5788  0.3827 -0.5416
17873SOL     OW57020   7.539  10.584   7.744  0.4478  0.1613 -0.2762
17873SOL    HW157021   7.614  10.525   7.757 -0.0596 -0.5809 -0.6355
17873SOL    HW257022   7.506  10.561   7.657 -1.2743 -0.7777  0.5791
17874SOL     OW57023   9.912   5.411   1.739  0.4911  0.9115  0.4763
17874SOL    HW157024   9.969   5.423   1.664  1.3742 -0.8283  0.8089
17874SOL    HW257025   9.870   5.496   1.752 -0.3603  1.0472 -2.4898
17875SOL     OW57026   2.860   2.212   7.990 -0.3296  0.0692  0.3360
17875SOL    HW157027   2.943   2.258   7.975  0.1133 -0.2491  1.6842
17875SOL    HW257028   2.885   2.129   8.031 -1.2341 -0.6711 -0.5520
17876SOL     OW57029   1.863   0.771   7.828  0.2584  0.3600  0.4830
17876SOL    HW157030   1.949   0.784   7.867  0.1794 -1.0616  1.1622
17876SOL    HW257031   1.822   0.703   7.881 -1.0503  0.5712 -0.2154
17877SOL     OW57032   2.710   6.639   9.947 -0.0601 -0.5556 -0.5028
17877SOL    HW157033   2.658   6.607   9.873 -0.6513 -0.8318  0.0244
17877SOL    HW257034   2.793   6.593   9.940 -0.4286 -1.2279 -0.5102
17878SOL     OW57035   8.705  10.512   8.596  0.0799  0.3235  0.2376
17878SOL    HW157036   8.696  10.608   8.598  2.2207  0.5976 -0.8592
17878SOL    HW257037   8.624  10.482   8.554  0.1139  1.8083 -1.0030
17879SOL     OW57038  10.371   4.172   4.250 -0.1599 -0.0613 -0.0081
17879SOL    HW157039  10.418   4.103   4.204 -0.1267 -0.6347  0.8760
17879SOL    HW257040  10.396   4.253   4.204  2.5735 -0.1828  1.1201
17880SOL     OW57041   2.180   4.238   3.625  0.5820 -0.5567 -0.3537
17880SOL    HW157042   2.166   4.324   3.665  1.0570 -0.0905 -1.1522
17880SOL    HW257043   2.094   4.196   3.626  0.1377  0.3098 -0.8018
17881SOL     OW57044   7.873   4.951   0.368 -0.7819 -0.1536 -0.0747
17881SOL    HW157045   7.967   4.943   0.387 -0.9961 -2.4253  0.3247
17881SOL    HW257046   7.865   4.931   0.275 -0.8810 -0.0949 -0.0789
17882SOL     OW57047   1.526   7.478   8.342 -0.7272  0.3234  0.2467
17882SOL    HW157048   1.477   7.445   8.267 -1.9158 -0.6525  1.3845
17882SOL    HW257049   1.459   7.502   8.406  0.2319  1.8149  0.7348
17883SOL     OW57050   4.537   4.468   2.048  0.0870 -0.5558  0.2094
17883SOL    HW157051   4.507   4.559   2.039  0.1725 -0.4535  0.9293
17883SOL    HW257052   4.488   4.434   2.123  1.7795 -0.3654  1.4570
17884SOL     OW57053   3.846   5.883   2.059 -0.2439  0.2409 -0.1336
17884SOL    HW157054   3.781   5.818   2.085  0.6192 -0.1206  1.1764
17884SOL    HW257055   3.875   5.854   1.972 -0.6604 -0.4882 -0.0382
17885SOL     OW57056   1.579   9.699   4.256  0.1082 -0.2808  0.2718
17885SOL    HW157057   1.634   9.629   4.218 -0.9080  0.0325 -1.9300
17885SOL    HW257058   1.633   9.778   4.248  0.5869 -0.5002  1.1787
17886SOL     OW57059   1.725  10.631   6.484 -0.1287 -0.5913 -0.3105
17886SOL    HW157060   1.707  10.653   6.393 -0.1079 -0.3510 -0.2581
17886SOL    HW257061   1.705  10.712   6.532 -2.8473 -1.4837  0.2538
17887SOL     OW57062   7.379   2.441   9.288  0.3832  0.4897  0.0789
17887SOL    HW157063   7.459   2.472   9.247  0.4395  0.7544  0.3795
17887SOL    HW257064   7.384   2.474   9.378 -0.1039  0.5923  0.0747
17888SOL     OW57065   5.390  10.636  10.854 -0.3578 -0.0757 -0.2673
17888SOL    HW157066   5.319  10.669  10.909 -1.8073  1.3828 -2.8147
17888SOL    HW257067   5.364  10.547  10.832 -1.8349  0.6494 -1.6864
17889SOL     OW57068   9.686   7.784   8.321  0.3155 -0.3257 -0.1578
17889SOL    HW157069   9.701   7.699   8.279  1.0799 -0.9636  1.2959
17889SOL    HW257070   9.741   7.781   8.400  0.5407  1.6354 -0.2029
17890SOL     OW57071   0.016   0.891  10.813  0.6150  0.5570 -0.4905
17890SOL    HW157072  -0.073   0.907  10.844 -0.1356 -1.3759 -1.4555
17890SOL    HW257073   0.009   0.896  10.717  1.5318  0.3388 -0.5791
17891SOL     OW57074   5.832   1.008   6.533  0.0740  0.7773 -0.1663
17891SOL    HW157075   5.890   0.932   6.538 -1.2127 -0.1831  0.8700
17891SOL    HW257076   5.792   1.003   6.446 -1.9207 -1.2548  0.7856
17892SOL     OW57077   4.077   6.917   7.761 -0.2970  0.2210  0.2602
17892SOL    HW157078   4.011   6.953   7.821  0.5866  2.7830 -0.1785
17892SOL    HW257079   4.146   6.884   7.819 -0.6706  0.1593  0.6799
17893SOL     OW57080   1.512  10.311   0.884  0.1876  0.5172  0.5479
17893SOL    HW157081   1.505  10.221   0.916 -0.0404  1.1473  2.4144
17893SOL    HW257082   1.423  10.333   0.854  0.0839  0.3362  0.7215
17894SOL     OW57083   8.720   6.119   0.571  0.7746 -0.0443  0.1454
17894SOL    HW157084   8.645   6.082   0.618 -0.8393 -1.8987 -3.5031
17894SOL    HW257085   8.704   6.213   0.571 -0.9992 -0.3056  0.3505
17895SOL     OW57086   2.236   1.581   4.475 -0.6154  0.1865 -0.1039
17895SOL    HW157087   2.256   1.590   4.381  2.2972  1.7348  0.5386
17895SOL    HW257088   2.155   1.629   4.487 -0.6930  0.5423 -1.7308
17896SOL     OW57089   0.285   5.590   9.480  0.7847 -0.0286 -1.1263
17896SOL    HW157090   0.250   5.663   9.531 -0.3305 -0.5834 -1.0673
17896SOL    HW257091   0.261   5.512   9.530 -0.7742 -0.6221 -2.6828
17897SOL     OW57092   7.465   7.787  10.503 -0.4994 -0.6116 -0.8175
17897SOL    HW157093   7.489   7.805  10.413 -1.5882 -0.2352 -1.0576
17897SOL    HW257094   7.491   7.866  10.551  1.7534 -1.5180 -0.4265
17898SOL     OW57095   3.345   3.051   8.829 -0.0229  0.1462 -0.5042
17898SOL    HW157096   3.318   3.010   8.911 -0.6607  0.2457 -0.6596
17898SOL    HW257097   3.437   3.075   8.843 -0.5394  1.5897  0.7658
17899SOL     OW57098   3.154  10.337   9.138 -0.2936 -0.0390 -0.1191
17899SOL    HW157099   3.144  10.384   9.054  0.9049  0.8216  0.1896
17899SOL    HW257100   3.158  10.245   9.113 -1.5778  0.0744 -0.8523
17900SOL     OW57101   3.334  10.077  10.620  0.1103 -0.2251  0.4296
17900SOL    HW157102   3.313   9.984  10.628 -0.7959 -0.0354  0.3160
17900SOL    HW257103   3.304  10.116  10.703 -1.0048  0.2324 -0.1769
17901SOL     OW57104   0.959   4.627   6.100  0.5885  0.0016  0.0348
17901SOL    HW157105   1.016   4.704   6.103  0.1266  0.4498 -1.6541
17901SOL    HW257106   0.981   4.584   6.018  1.0465 -1.8797  1.1059
17902SOL     OW57107   5.132   3.358   5.618 -0.0069  0.0799  0.0999
17902SOL    HW157108   5.166   3.447   5.608  0.5665  0.0980  1.8573
17902SOL    HW257109   5.146   3.318   5.532  1.8532  0.9747 -0.0719
17903SOL     OW57110   6.087   9.002   5.646  0.1779 -0.0226  0.4294
17903SOL    HW157111   6.044   9.016   5.562 -0.1165  0.1484  0.6039
17903SOL    HW257112   6.094   8.907   5.654 -0.6985 -0.0796  0.6539
17904SOL     OW57113   3.731   9.082   7.014  0.0731 -0.2290  0.1243
17904SOL    HW157114   3.662   9.093   7.080  0.6211  1.1514  0.5014
17904SOL    HW257115   3.683   9.055   6.935 -1.0303  1.2591  0.2114
17905SOL     OW57116   9.430   3.605   4.397 -0.1919 -0.3463  0.3826
17905SOL    HW157117   9.348   3.648   4.374  1.1107  2.6525  0.8973
17905SOL    HW257118   9.476   3.594   4.314  0.9055  2.6172  0.4895
17906SOL     OW57119   7.642   6.551   9.185  0.1676 -0.0586  0.1552
17906SOL    HW157120   7.708   6.499   9.231  0.6521  0.1656 -0.2706
17906SOL    HW257121   7.615   6.617   9.248 -0.4158 -0.7909  0.6875
17907SOL     OW57122   0.147   1.162   4.439 -0.2856 -0.4819  0.0619
17907SOL    HW157123   0.170   1.215   4.515 -0.7117 -0.6858  0.3382
17907SOL    HW257124   0.222   1.103   4.427  0.4150  0.5035 -0.5552
17908SOL     OW57125   7.632   2.806   2.698  0.6889  0.2346  0.0027
17908SOL    HW157126   7.556   2.857   2.727 -0.2509  0.5204 -2.6725
17908SOL    HW257127   7.689   2.803   2.775 -0.4205  3.0080  1.0837
17909SOL     OW57128   6.034   7.009  10.903 -0.1926 -0.0743  0.3883
17909SOL    HW157129   5.972   6.936  10.904  0.2149 -0.4232  1.5019
17909SOL    HW257130   6.029   7.047  10.990  0.5497  0.4102  0.2314
17910SOL     OW57131   3.651   4.727   7.003 -0.1182 -0.4183 -0.0735
17910SOL    HW157132   3.676   4.755   6.915 -4.4915  1.1730 -1.0991
17910SOL    HW257133   3.574   4.671   6.989 -2.6001  1.9536  2.6140
17911SOL     OW57134   3.857   4.453   7.843 -0.4534 -0.3354  0.1601
17911SOL    HW157135   3.765   4.428   7.849 -0.2381 -1.2256 -0.1172
17911SOL    HW257136   3.883   4.431   7.754 -0.2055  0.7839 -0.0659
17912SOL     OW57137  10.031   9.155   5.879 -0.2066 -0.2664 -0.3750
17912SOL    HW157138  10.035   9.140   5.973 -0.2299 -2.0813 -0.6297
17912SOL    HW257139   9.978   9.234   5.870  0.6325  0.5186  1.1559
17913SOL     OW57140   3.795   9.640   4.068 -0.2190  0.2563 -0.2968
17913SOL    HW157141   3.782   9.608   4.157  0.9557 -0.3758 -0.3279
17913SOL    HW257142   3.752   9.575   4.013  2.1365 -1.4043 -0.3584
17914SOL     OW57143   0.048   8.419   0.673 -0.3118  0.3188 -0.2949
17914SOL    HW157144   0.141   8.439   0.660 -0.6190  1.1491 -1.3177
17914SOL    HW257145   0.004   8.504   0.666 -1.2224 -0.1580 -0.5035
17915SOL     OW57146   0.094   0.773   3.934  0.1391 -0.1422 -0.0752
17915SOL    HW157147   0.081   0.867   3.921  0.6857 -0.0206  0.2440
17915SOL    HW257148   0.152   0.746   3.862  1.6183  0.1626  0.9728
17916SOL     OW57149   9.350   2.153   3.822  0.2095  0.3127  0.0315
17916SOL    HW157150   9.315   2.121   3.739  0.1643 -1.4002  0.6659
17916SOL    HW257151   9.275   2.192   3.866 -0.4097 -1.1656  0.3573
17917SOL     OW57152   5.507   0.916   8.387 -0.2578  0.0480 -0.5079
17917SOL    HW157153   5.532   0.832   8.426 -0.1704 -0.2729 -1.2430
17917SOL    HW257154   5.428   0.942   8.435  0.2364  0.0113  0.3527
17918SOL     OW57155   9.884   5.436   1.354  0.7120  0.0081  0.5684
17918SOL    HW157156   9.945   5.497   1.312 -0.7337  2.3493  1.6689
17918SOL    HW257157   9.831   5.491   1.412 -0.6575 -2.3418  1.6889
17919SOL     OW57158   1.633  10.322   7.715  0.1939 -0.2173 -0.0101
17919SOL    HW157159   1.679  10.400   7.746 -0.6086 -0.3651  1.6909
17919SOL    HW257160   1.676  10.249   7.760 -0.5419 -0.5209  0.2198
17920SOL     OW57161   3.561   3.432   7.664  0.1361 -0.0447 -0.6080
17920SOL    HW157162   3.533   3.344   7.689  1.7536 -0.4175 -0.0080
17920SOL    HW257163   3.512   3.451   7.583 -1.4295 -0.8182  0.1117
17921SOL     OW57164   8.348   5.773  10.153  0.6727 -0.0244 -0.3605
17921SOL    HW157165   8.306   5.841  10.100  0.2978 -0.2035 -0.3019
17921SOL    HW257166   8.436   5.806  10.171  0.1204  0.9756  0.6339
17922SOL     OW57167   4.290  10.680   3.113  0.0969  0.5742  0.5590
17922SOL    HW157168   4.195  10.667   3.109  0.3900 -1.5665 -0.9788
17922SOL    HW257169   4.314  10.657   3.203 -0.5488 -1.5436  0.2335
17923SOL     OW57170   5.766   0.669   4.814  0.4126  0.2892 -0.0644
17923SOL    HW157171   5.860   0.682   4.808  0.4514  0.1984  0.3378
17923SOL    HW257172   5.747   0.668   4.908  0.1715 -0.7666 -0.1116
17924SOL     OW57173   5.606   2.833   7.780 -0.7925  0.7689 -0.6440
17924SOL    HW157174   5.702   2.841   7.778 -0.7640  0.7266  0.1231
17924SOL    HW257175   5.588   2.749   7.738 -0.4815  0.7339 -0.7093
17925SOL     OW57176   1.294   1.056   2.877 -0.4147  0.0015  0.0058
17925SOL    HW157177   1.243   0.976   2.882  0.2969 -0.5257 -0.9093
17925SOL    HW257178   1.271   1.104   2.957 -2.7981  0.0894 -0.6676
17926SOL     OW57179   5.323   5.171  10.182 -0.4904 -0.6357 -0.0281
17926SOL    HW157180   5.288   5.205  10.264 -0.7964  2.6893 -1.3669
17926SOL    HW257181   5.252   5.182  10.119  0.6290 -0.4169 -1.3082
17927SOL     OW57182   2.892   2.792   5.204 -0.5928 -0.4936 -0.1966
17927SOL    HW157183   2.849   2.814   5.286 -0.5541 -1.7734  0.1816
17927SOL    HW257184   2.870   2.865   5.145  1.9626  2.1006  1.8042
17928SOL     OW57185   4.033   5.787   5.406 -0.5792 -0.3879  0.3695
17928SOL    HW157186   3.945   5.817   5.428 -0.3749 -1.1389  2.3902
17928SOL    HW257187   4.026   5.758   5.315 -2.3491 -0.1530  0.4040
17929SOL     OW57188   4.010   0.945   9.751  0.2145  0.2127 -0.2554
17929SOL    HW157189   3.921   0.968   9.725  0.2201  0.1959 -0.2894
17929SOL    HW257190   4.001   0.861   9.796  0.3845 -0.4370 -1.4064
17930SOL     OW57191   5.997   9.888   3.577  0.3841  0.1261 -0.2364
17930SOL    HW157192   6.092   9.897   3.570  0.7427 -2.5144  0.1298
17930SOL    HW257193   5.962   9.946   3.510  2.3655 -0.7192 -2.0968
17931SOL     OW57194   1.268   5.906   7.832 -0.1707 -0.2934  0.4228
17931SOL    HW157195   1.208   5.855   7.778  1.7346  1.6313 -4.0513
17931SOL    HW257196   1.212   5.961   7.887 -2.4102 -0.8260 -1.2103
17932SOL     OW57197   2.085   7.050   5.787 -0.3975  0.1451 -0.6369
17932SOL    HW157198   2.174   7.070   5.816 -0.4978  1.2619 -1.0396
17932SOL    HW257199   2.071   7.108   5.711 -1.7655  0.6092 -0.0634
17933SOL     OW57200   4.067   2.473  10.207  0.3095 -0.4275 -0.5589
17933SOL    HW157201   4.095   2.556  10.168  0.7716 -0.2085  0.2222
17933SOL    HW257202   3.988   2.449  10.158 -0.2069  0.8060 -0.3655
17934SOL     OW57203   9.533   7.428   7.320  0.0061 -0.6831 -0.3465
17934SOL    HW157204   9.477   7.398   7.391  0.6581 -1.4356 -0.1445
17934SOL    HW257205   9.481   7.411   7.241 -0.2577 -0.9069 -0.1297
17935SOL     OW57206   5.347   7.158   5.439  0.4683  0.2684 -0.1677
17935SOL    HW157207   5.387   7.082   5.480 -0.6294 -0.1684  0.1395
17935SOL    HW257208   5.336   7.221   5.510 -0.6429 -0.1566  0.0617
17936SOL     OW57209   9.852   8.286   4.810 -0.2557  0.2339  0.0609
17936SOL    HW157210   9.869   8.240   4.892  1.8334  0.9240  0.0896
17936SOL    HW257211   9.912   8.246   4.748 -0.5741  0.8795 -0.6787
17937SOL     OW57212   6.713   1.674   3.211 -0.1335 -0.0116 -0.1821
17937SOL    HW157213   6.808   1.671   3.196  0.0778 -0.0786  1.1044
17937SOL    HW257214   6.684   1.584   3.195  0.0916 -0.0906 -0.1486
17938SOL     OW57215  10.222   2.296  10.737  0.1060  0.2966  0.2187
17938SOL    HW157216  10.172   2.215  10.732 -0.0634  0.4710 -1.4867
17938SOL    HW257217  10.158   2.365  10.714  0.8334  0.6261 -0.9312
17939SOL     OW57218   2.746  10.800   0.219  0.3460 -0.2341  0.0649
17939SOL    HW157219   2.793  10.866   0.269  0.1730 -0.6897  0.8349
17939SOL    HW257220   2.744  10.723   0.275 -1.7457 -0.0819  0.2664
17940SOL     OW57221   1.868   8.772   5.183 -0.1516  0.2446  0.0730
17940SOL    HW157222   1.939   8.782   5.246  1.6620  1.3227 -1.9838
17940SOL    HW257223   1.847   8.862   5.156  0.1213 -0.2160 -1.8287
17941SOL     OW57224   4.821   6.606   9.050  0.0134 -0.2403  0.3534
17941SOL    HW157225   4.904   6.589   9.094  1.1427 -0.0541 -1.5857
17941SOL    HW257226   4.839   6.679   8.991 -2.1894  1.3939  1.5377
17942SOL     OW57227   7.504  10.623   2.730  0.0131  0.8356  0.5732
17942SOL    HW157228   7.430  10.563   2.745 -0.6072  1.1144 -1.1570
17942SOL    HW257229   7.496  10.688   2.801 -2.6930  2.0517 -0.6977
17943SOL     OW57230   9.083   8.259   0.535  0.4990 -0.0425 -0.5488
17943SOL    HW157231   9.164   8.209   0.552  1.5906  1.1601 -1.9676
17943SOL    HW257232   9.032   8.202   0.478  1.0001 -0.2147 -0.8337
17944SOL     OW57233   3.066   4.340   7.135  0.1194  0.2935 -0.1994
17944SOL    HW157234   3.146   4.339   7.083  0.5217 -0.1626  0.4115
17944SOL    HW257235   3.097   4.346   7.226 -0.4797 -1.1865  0.1374
17945SOL     OW57236   3.575   0.110   4.475 -0.5872 -0.3445  0.0532
17945SOL    HW157237   3.607   0.197   4.448  1.1965 -0.8807  0.2729
17945SOL    HW257238   3.580   0.057   4.395 -3.1622  0.0882 -0.4737
17946SOL     OW57239   5.685   1.618   9.127  0.7150  0.2433  0.5225
17946SOL    HW157240   5.699   1.524   9.137 -0.5856 -0.1423 -0.7863
17946SOL    HW257241   5.772   1.656   9.133  1.3456 -1.1172  0.4613
17947SOL     OW57242   8.651   7.741   9.623  0.6474 -0.2759 -0.7570
17947SOL    HW157243   8.613   7.678   9.685  0.2877 -1.1337 -1.8209
17947SOL    HW257244   8.579   7.761   9.563  0.6022  1.5647 -0.1511
17948SOL     OW57245   7.927   0.789   4.706  0.8893  0.2482  0.3600
17948SOL    HW157246   7.934   0.816   4.798  0.6496 -1.4968  0.9271
17948SOL    HW257247   7.888   0.864   4.662 -1.1489  0.3104  2.1197
17949SOL     OW57248   5.363  10.318   8.690 -0.5286 -0.5228 -0.0556
17949SOL    HW157249   5.339  10.375   8.763  3.3697  1.8181 -0.3159
17949SOL    HW257250   5.321  10.358   8.614  0.8967  1.2335  0.0066
17950SOL     OW57251   3.862  10.697   5.197  0.2029  0.3796  0.6977
17950SOL    HW157252   3.887  10.764   5.261  1.0395  0.1457  0.6322
17950SOL    HW257253   3.821  10.628   5.249  2.4791 -0.6343  1.2987
17951SOL     OW57254  10.900   7.056   8.219  0.3249  0.2452 -0.2660
17951SOL    HW157255  10.930   7.146   8.218 -2.5851  1.4343  2.1086
17951SOL    HW257256  10.825   7.055   8.159  1.1411 -0.9686 -1.2996
17952SOL     OW57257   3.177   1.969   7.261 -0.8878 -0.4095  0.2191
17952SOL    HW157258   3.263   1.966   7.301 -0.8461  0.2158  0.1761
17952SOL    HW257259   3.188   2.024   7.183 -1.6051  0.7303  0.9014
17953SOL     OW57260   8.356   1.298   4.256  0.2764  0.1319  0.4083
17953SOL    HW157261   8.319   1.351   4.326 -0.5176  0.1923 -0.0504
17953SOL    HW257262   8.291   1.301   4.186  1.7377  1.3801 -0.9694
17954SOL     OW57263  10.343   1.987   5.603  0.0602  0.0212 -0.0289
17954SOL    HW157264  10.340   1.933   5.524  5.2271 -0.3956 -0.2811
17954SOL    HW257265  10.353   1.924   5.675 -0.1204  0.5226  0.4428
17955SOL     OW57266   3.428   0.205   0.311 -0.3782 -0.2088  0.1562
17955SOL    HW157267   3.458   0.127   0.357 -0.5082 -1.2265 -1.4343
17955SOL    HW257268   3.333   0.195   0.304 -0.4742  0.3991  0.4747
17956SOL     OW57269   6.440   4.893   3.071  0.3732  0.3719  0.4600
17956SOL    HW157270   6.352   4.869   3.102  0.2408 -0.9296 -0.8285
17956SOL    HW257271   6.500   4.849   3.132  0.2176  2.5659  2.3398
17957SOL     OW57272   3.141   9.972   8.756 -0.0101  0.3840 -0.3471
17957SOL    HW157273   3.174  10.040   8.697 -0.0638  2.1525  1.5733
17957SOL    HW257274   3.216   9.948   8.810 -0.6198  0.8148  0.7105
17958SOL     OW57275   5.212   4.065   1.774 -0.8754  0.1822  0.1183
17958SOL    HW157276   5.293   4.116   1.784  0.4273 -1.8362  0.5601
17958SOL    HW257277   5.155   4.120   1.721  0.4400  2.0672  0.5645
17959SOL     OW57278   3.836   0.934   8.666  0.0414  0.1544  0.4075
17959SOL    HW157279   3.750   0.959   8.699  0.4825  2.0329  0.2874
17959SOL    HW257280   3.884   0.904   8.743  0.0778  1.5866  0.9803
17960SOL     OW57281   7.003   2.227   7.869  0.1334 -0.1771 -0.1913
17960SOL    HW157282   7.069   2.225   7.800 -1.3989 -0.5557 -1.7046
17960SOL    HW257283   7.022   2.307   7.918  2.2012 -0.7015 -0.0341
17961SOL     OW57284   2.568   6.663   4.819 -0.3639  0.1158  0.2521
17961SOL    HW157285   2.602   6.677   4.731 -0.0827  2.3144  0.6453
17961SOL    HW257286   2.619   6.590   4.854  1.2646  0.8195 -0.5480
17962SOL     OW57287   1.259   5.343   6.072 -0.7428 -0.3468 -0.0071
17962SOL    HW157288   1.269   5.410   6.004 -2.8543 -0.2326 -0.2561
17962SOL    HW257289   1.331   5.282   6.056  1.8793  2.3089  0.8580
17963SOL     OW57290   2.208   1.906   6.755  0.2943  1.0450  0.5574
17963SOL    HW157291   2.259   1.834   6.717 -0.4468  0.1660  1.1973
17963SOL    HW257292   2.143   1.863   6.810 -1.9661  2.0585 -1.1753
17964SOL     OW57293   2.642   1.275   5.784  0.1187  0.7391 -0.4861
17964SOL    HW157294   2.607   1.339   5.847 -2.2135  0.8813 -1.7990
17964SOL    HW257295   2.737   1.290   5.784 -0.0230  1.9764  1.6045
17965SOL     OW57296   3.047   1.967   3.504  0.9590  0.0575 -0.5457
17965SOL    HW157297   3.076   2.028   3.571  0.5544 -1.7670  1.3995
17965SOL    HW257298   3.115   1.899   3.502 -1.2782 -2.4884  1.6714
17966SOL     OW57299   7.047   4.403   1.093 -0.2733  0.3051  0.6529
17966SOL    HW157300   7.070   4.388   1.001 -0.1466 -0.8769  0.8525
17966SOL    HW257301   7.124   4.373   1.141 -1.3951 -1.8159  1.2461
17967SOL     OW57302   3.774   5.455  10.553  0.0746 -0.4178 -0.1424
17967SOL    HW157303   3.708   5.452  10.622  1.3394 -1.1189  1.0816
17967SOL    HW257304   3.846   5.401  10.586  1.1449  0.0730 -1.5634
17968SOL     OW57305   3.988   8.889   2.693  0.6716  0.3756 -0.4877
17968SOL    HW157306   3.928   8.863   2.763  2.6469  1.9392  1.9623
17968SOL    HW257307   3.934   8.941   2.634 -0.8624 -0.1857  0.3430
17969SOL     OW57308   3.901   7.156   7.094  0.1542 -0.0342 -0.0585
17969SOL    HW157309   3.807   7.141   7.105 -0.0698  0.8849 -0.6471
17969SOL    HW257310   3.907   7.235   7.040  1.2451 -1.5983 -2.3713
17970SOL     OW57311   2.849   3.185   9.592  0.1588  0.1638  0.2635
17970SOL    HW157312   2.930   3.183   9.542 -0.7327 -1.7695 -1.2626
17970SOL    HW257313   2.875   3.202   9.682  2.2391 -0.4764 -0.1825
17971SOL     OW57314  10.279   1.193   1.262 -0.4995  0.0465  0.6071
17971SOL    HW157315  10.327   1.152   1.334  0.6122 -0.2404 -0.2739
17971SOL    HW257316  10.307   1.285   1.265  0.8670 -0.3007 -0.4667
17972SOL     OW57317   8.706  10.611   2.767 -0.2257  0.4353 -0.7742
17972SOL    HW157318   8.788  10.572   2.798 -0.9971  0.3030  1.2492
17972SOL    HW257319   8.730  10.654   2.685  1.7634  0.0039 -0.4773
17973SOL     OW57320   3.241   0.604   3.310  0.1029  0.3102  0.4964
17973SOL    HW157321   3.192   0.601   3.392 -1.1785 -1.4966 -0.2531
17973SOL    HW257322   3.185   0.654   3.250 -1.6971 -2.9301 -0.7731
17974SOL     OW57323   2.256   4.846   3.742 -0.0248 -0.1932 -0.4831
17974SOL    HW157324   2.305   4.804   3.672  0.0152 -0.1420 -0.4855
17974SOL    HW257325   2.164   4.841   3.714 -0.1066 -1.0125 -0.1056
17975SOL     OW57326   3.753   5.584   8.438 -0.2406 -0.2556  0.8892
17975SOL    HW157327   3.663   5.597   8.466 -0.0389  0.8933  1.0595
17975SOL    HW257328   3.761   5.635   8.357  0.5500  0.6176  1.4901
17976SOL     OW57329   2.205   6.955   8.415  0.6299 -0.1685 -0.4407
17976SOL    HW157330   2.239   6.961   8.504  0.3792 -0.0260 -0.3549
17976SOL    HW257331   2.111   6.940   8.425  0.4107  0.9054 -0.6695
17977SOL     OW57332   7.285   2.059   4.489 -0.3055 -0.1748 -0.3068
17977SOL    HW157333   7.206   2.058   4.543 -1.9333 -0.6964 -2.5065
17977SOL    HW257334   7.326   1.974   4.506 -0.3109  0.0237  0.7339
17978SOL     OW57335   8.092   2.267   7.956 -0.2129  0.2985 -0.1280
17978SOL    HW157336   8.076   2.231   7.869 -0.3146 -0.1971  0.0911
17978SOL    HW257337   8.161   2.211   7.993 -0.5147  0.2041  0.2959
17979SOL     OW57338   0.903   5.437   8.009  0.1218 -0.1860 -0.3020
17979SOL    HW157339   0.852   5.518   8.001 -0.7158 -0.6132  0.5011
17979SOL    HW257340   0.861   5.377   7.948 -1.9979 -1.3193  2.0693
17980SOL     OW57341   0.637   9.868  10.026  0.7512 -0.0542 -0.1769
17980SOL    HW157342   0.670   9.779  10.014  1.3699  0.1643 -0.1410
17980SOL    HW257343   0.696   9.907  10.091  0.2523  0.2594  0.0960
17981SOL     OW57344   3.161   5.602  10.205  0.3446  0.1519 -0.2760
17981SOL    HW157345   3.202   5.687  10.219  0.0841  0.7583 -2.7404
17981SOL    HW257346   3.089   5.619  10.144  1.5502 -2.0613 -2.5307
17982SOL     OW57347   2.652  10.239   4.128 -0.3448 -0.1461  0.0514
17982SOL    HW157348   2.644  10.208   4.219 -0.9639 -0.9658 -0.2668
17982SOL    HW257349   2.563  10.264   4.104 -0.1674  0.1346 -0.3088
17983SOL     OW57350   0.064  10.732   8.426 -0.3756 -0.1899  0.3072
17983SOL    HW157351  -0.020  10.751   8.385 -0.7274 -0.3578  0.9327
17983SOL    HW257352   0.050  10.649   8.471  0.7055 -1.2488 -1.1969
17984SOL     OW57353   0.427   4.112   0.070 -0.2051  0.2957 -0.0935
17984SOL    HW157354   0.380   4.143   0.147 -0.4150 -2.2788  0.9176
17984SOL    HW257355   0.372   4.137  -0.004 -2.3300 -1.0286  0.9306
17985SOL     OW57356   2.419   7.454   8.196  0.0175 -0.8169 -0.7177
17985SOL    HW157357   2.505   7.469   8.236 -0.9388  1.3748  0.7367
17985SOL    HW257358   2.367   7.417   8.267 -0.4724 -1.2845 -1.3242
17986SOL     OW57359   1.296   4.978  10.287  0.0648  0.1574  0.3463
17986SOL    HW157360   1.228   5.032  10.248 -0.5067 -0.0311  1.0442
17986SOL    HW257361   1.379   5.020  10.262 -0.2848  0.1870 -0.8083
17987SOL     OW57362   8.572   6.307   2.146  0.4780 -0.2920  0.0298
17987SOL    HW157363   8.536   6.240   2.088  1.6742 -0.3725 -0.6560
17987SOL    HW257364   8.639   6.350   2.094  1.2660 -0.0512  1.1973
17988SOL     OW57365   6.439   7.668  10.552  0.4629 -0.2645 -0.3197
17988SOL    HW157366   6.515   7.654  10.609  0.9180  1.1392 -0.5391
17988SOL    HW257367   6.466   7.636  10.467  0.3109 -1.0140 -0.0926
17989SOL     OW57368   2.594   4.900   5.983 -0.1090  0.1685  0.0003
17989SOL    HW157369   2.628   4.888   6.072  0.1973  0.7524 -0.0338
17989SOL    HW257370   2.658   4.857   5.927 -0.8188 -1.1022  0.1179
17990SOL     OW57371   2.771   4.729   3.465  0.4621 -0.5575 -0.4027
17990SOL    HW157372   2.775   4.655   3.405  0.0393 -0.8322 -0.0911
17990SOL    HW257373   2.685   4.723   3.507  0.6917 -0.2878  0.1241
17991SOL     OW57374   9.963   0.125   3.518  0.5793  0.1814  0.2341
17991SOL    HW157375   9.906   0.173   3.578  0.8503  0.6601  0.1137
17991SOL    HW257376   9.912   0.118   3.437  0.1124 -0.6871  0.5904
17992SOL     OW57377   2.038   1.788   6.507 -0.0826  0.4692 -0.2321
17992SOL    HW157378   2.016   1.709   6.458  1.1985  0.2614 -0.5156
17992SOL    HW257379   2.034   1.859   6.442 -0.2246  0.4724 -0.2180
17993SOL     OW57380   2.133   3.517   3.385 -0.1134  0.3304 -0.1326
17993SOL    HW157381   2.145   3.433   3.430  1.5017  0.5569 -0.0511
17993SOL    HW257382   2.205   3.520   3.321 -0.4158  1.4564 -0.4430
17994SOL     OW57383  10.647   8.879   2.850 -0.4484 -0.6218 -0.2775
17994SOL    HW157384  10.554   8.872   2.874 -0.4012 -0.6552 -0.0987
17994SOL    HW257385  10.690   8.905   2.931 -0.1191 -1.9175 -0.0175
17995SOL     OW57386   9.177   0.962   4.049  0.3686 -0.3583 -0.3820
17995SOL    HW157387   9.193   0.904   3.974  1.4398  0.6893 -1.0035
17995SOL    HW257388   9.263   0.972   4.091  0.6358  2.1330 -1.3295
17996SOL     OW57389   1.645   9.891   8.286 -0.8565  0.0798 -0.0348
17996SOL    HW157390   1.581   9.822   8.304 -1.9633  0.6822 -1.4639
17996SOL    HW257391   1.636   9.951   8.361 -2.5016  0.5094 -0.5300
17997SOL     OW57392   3.554   5.479  10.752 -0.2347 -0.1065 -0.2058
17997SOL    HW157393   3.610   5.510  10.823  0.6978 -0.2588 -0.8392
17997SOL    HW257394   3.467   5.512  10.772  0.1654  0.4625  0.6226
17998SOL     OW57395   3.474   4.552   1.706 -0.3522  0.1515 -0.3417
17998SOL    HW157396   3.487   4.510   1.621 -0.3057 -0.1673 -0.1743
17998SOL    HW257397   3.552   4.607   1.718 -0.3722  0.2184 -0.5163
17999SOL     OW57398   5.181   1.965   1.876  0.3160  0.0324  0.1039
17999SOL    HW157399   5.143   2.025   1.811 -1.2414 -1.2228 -0.2066
17999SOL    HW257400   5.118   1.967   1.948  0.1132 -1.3931 -0.0150
18000SOL     OW57401   2.549   2.898   7.734 -0.1106  0.0733 -0.1884
18000SOL    HW157402   2.459   2.877   7.760 -0.1681 -1.9377 -1.7493
18000SOL    HW257403   2.579   2.820   7.688  2.4999  0.6570  0.3703
18001SOL     OW57404   9.707   6.124   2.979  0.8420 -0.3539  0.0543
18001SOL    HW157405   9.719   6.107   2.885  1.9990  1.9729 -0.3162
18001SOL    HW257406   9.729   6.042   3.021 -0.2169 -1.6262 -1.7279
18002SOL     OW57407   7.701   0.770   1.664 -0.5564 -0.5720  0.2006
18002SOL    HW157408   7.631   0.769   1.599  0.4180  1.0467 -0.9287
18002SOL    HW257409   7.700   0.859   1.699  2.5021  0.3471 -1.6851
18003SOL     OW57410  10.057   7.277   5.264 -0.1495 -0.2323  0.6065
18003SOL    HW157411  10.092   7.240   5.346  1.5042  2.6639  1.3240
18003SOL    HW257412  10.070   7.371   5.272  0.6748  0.1518 -3.2731
18004SOL     OW57413   2.577   2.629   1.929 -0.0029 -0.1962 -0.3247
18004SOL    HW157414   2.490   2.600   1.957  0.8486 -3.5665 -0.7433
18004SOL    HW257415   2.609   2.683   2.001 -1.1375 -1.8005  1.4887
18005SOL     OW57416   4.729   0.335   4.374  0.2175  0.6469 -0.1162
18005SOL    HW157417   4.757   0.267   4.436  0.3790  0.0714 -0.8025
18005SOL    HW257418   4.739   0.417   4.421  2.4136  0.4115 -0.1019
18006SOL     OW57419   2.906   8.171   0.082  0.7096 -0.3763 -0.4186
18006SOL    HW157420   2.871   8.224   0.011 -1.7977 -0.6708  0.4682
18006SOL    HW257421   2.927   8.087   0.042 -0.2829 -0.4018 -0.9194
18007SOL     OW57422   9.570   7.840   8.704 -0.1239 -0.2172  0.4379
18007SOL    HW157423   9.542   7.751   8.724 -0.6705 -0.2700 -0.5014
18007SOL    HW257424   9.522   7.895   8.765 -0.8009 -0.4701  0.1370
18008SOL     OW57425  10.193   2.275   6.717 -0.1480 -0.2215 -0.4337
18008SOL    HW157426  10.271   2.328   6.732  0.9413 -2.1013  1.1092
18008SOL    HW257427  10.226   2.186   6.706 -2.0742 -1.5860  2.9692
18009SOL     OW57428   7.007   1.899   0.588  0.6209  0.1474 -0.4991
18009SOL    HW157429   7.032   1.808   0.607 -0.1764  0.3627  1.9259
18009SOL    HW257430   7.044   1.949   0.660 -0.6717  1.4707 -0.7197
18010SOL     OW57431  10.668   2.696   1.977  0.3055 -0.1818  0.2853
18010SOL    HW157432  10.653   2.622   1.919 -0.0081 -0.1147  0.2805
18010SOL    HW257433  10.763   2.699   1.988  0.6808  1.5012 -2.4848
18011SOL     OW57434   7.447   8.408  10.020 -0.5842  1.3493 -0.0778
18011SOL    HW157435   7.524   8.364   9.985  0.0456  1.3696  1.2205
18011SOL    HW257436   7.378   8.392   9.956 -0.2691 -1.1471  0.1241
18012SOL     OW57437   0.709   7.673   3.262  0.3822  0.1962  0.0075
18012SOL    HW157438   0.788   7.655   3.211  0.7595  0.0402  0.6419
18012SOL    HW257439   0.679   7.588   3.292  0.0585  0.2707 -0.0940
18013SOL     OW57440   5.930   2.981   9.393 -0.3563 -0.0901  0.1255
18013SOL    HW157441   5.872   3.015   9.462  0.6838  0.2580  0.8494
18013SOL    HW257442   5.920   3.044   9.321 -1.5136 -0.5030 -0.0968
18014SOL     OW57443   3.643   4.262   3.752  0.1770 -0.2782  0.0544
18014SOL    HW157444   3.581   4.269   3.680 -0.3075 -2.2083  0.2307
18014SOL    HW257445   3.589   4.247   3.830  0.7569  0.4846  0.6268
18015SOL     OW57446  10.208   4.703   2.906 -0.5717  0.1349  0.2496
18015SOL    HW157447  10.259   4.776   2.871 -0.3725 -0.0317  0.1940
18015SOL    HW257448  10.271   4.632   2.916 -0.2686  0.6423  2.4053
18016SOL     OW57449   5.613   4.818   9.568  0.4475  0.0749 -0.3603
18016SOL    HW157450   5.708   4.809   9.567  0.4731  0.2267  0.3628
18016SOL    HW257451   5.588   4.800   9.658 -0.1173  0.9983 -0.3264
18017SOL     OW57452   5.307   3.843   0.623  0.0517  0.4630 -0.2489
18017SOL    HW157453   5.391   3.817   0.585  0.0670  1.6217 -1.0874
18017SOL    HW257454   5.317   3.937   0.639 -1.1584  0.6640 -0.5902
18018SOL     OW57455   0.598   7.713   0.606 -0.4882  0.0848 -0.1801
18018SOL    HW157456   0.641   7.627   0.604  0.2864  0.4324  0.3912
18018SOL    HW257457   0.640   7.762   0.535 -0.9894 -0.0345 -0.5592
18019SOL     OW57458   1.092   7.736   5.573  0.9356  0.3913  0.5689
18019SOL    HW157459   1.092   7.698   5.661 -0.7973  0.1805  0.5132
18019SOL    HW257460   1.001   7.760   5.558  1.0166 -0.4313 -1.5273
18020SOL     OW57461   3.441   8.855   9.679  0.5009  0.5339 -0.3273
18020SOL    HW157462   3.390   8.936   9.673 -0.2751  0.0221 -0.9254
18020SOL    HW257463   3.375   8.786   9.678  1.1505 -0.1073  0.2980
18021SOL     OW57464   5.838   3.205   8.044  0.1451 -0.3464 -0.7307
18021SOL    HW157465   5.838   3.123   8.093 -0.5273  0.1524  0.1557
18021SOL    HW257466   5.843   3.179   7.952 -1.4859 -1.4447 -0.5543
18022SOL     OW57467   3.639   3.366   2.766 -0.1412 -0.1543  0.1521
18022SOL    HW157468   3.656   3.296   2.703  1.1016  0.4490 -0.2188
18022SOL    HW257469   3.564   3.335   2.817 -0.5263 -1.1085 -0.9440
18023SOL     OW57470   9.258   7.240   1.951  0.4908 -0.2319 -0.0442
18023SOL    HW157471   9.336   7.192   1.978  1.0043  1.0276  0.8361
18023SOL    HW257472   9.194   7.172   1.927  1.7455 -1.2842 -0.5149
18024SOL     OW57473   1.622   9.972   0.121 -0.7222  0.3596  0.0350
18024SOL    HW157474   1.686  10.015   0.177  0.7451 -0.4196 -0.9639
18024SOL    HW257475   1.559  10.040   0.099  0.0593  1.2943  0.6176
18025SOL     OW57476   0.239   5.358   2.143 -0.2189 -0.1877  0.0257
18025SOL    HW157477   0.186   5.388   2.218  0.7835  0.9704  0.3032
18025SOL    HW257478   0.211   5.415   2.071  1.4514  1.2913  0.4703
18026SOL     OW57479   8.611   0.013   7.729  0.1275  0.0967  0.2287
18026SOL    HW157480   8.580  -0.019   7.644 -0.9985 -0.1622  0.7198
18026SOL    HW257481   8.694  -0.033   7.743  0.0547 -0.2671 -0.4880
18027SOL     OW57482   3.376  10.780   0.752 -0.0308 -0.6659  0.4361
18027SOL    HW157483   3.353  10.708   0.811 -0.9517 -0.5722  0.2103
18027SOL    HW257484   3.471  10.787   0.759  0.0392 -1.6876  0.7110
18028SOL     OW57485   4.440   5.756   9.874 -0.1977  0.2055 -0.5378
18028SOL    HW157486   4.499   5.825   9.844  1.2363 -1.2575 -1.2061
18028SOL    HW257487   4.437   5.768   9.969 -1.4118  2.2444 -0.7573
18029SOL     OW57488   4.501   9.133   0.713 -0.6445  0.7976  0.1527
18029SOL    HW157489   4.568   9.072   0.681  0.0234  0.9845  1.1272
18029SOL    HW257490   4.419   9.085   0.705 -0.4889  0.7651 -1.5826
18030SOL     OW57491   8.994   6.213   3.692  0.8056  0.1033  0.2814
18030SOL    HW157492   8.948   6.176   3.617  1.2204 -0.6940  0.4182
18030SOL    HW257493   9.048   6.142   3.726  1.8224  0.8875  0.3853
18031SOL     OW57494   8.709   1.998   0.001 -0.2819  0.2756 -0.0712
18031SOL    HW157495   8.750   1.956   0.077 -0.0451  1.0748  0.2574
18031SOL    HW257496   8.615   1.991   0.018 -0.2717 -0.7411 -0.3731
18032SOL     OW57497   5.193  10.737   4.461 -0.4012  0.3255 -0.8433
18032SOL    HW157498   5.258  10.742   4.390 -1.0222  2.6134 -1.3351
18032SOL    HW257499   5.113  10.772   4.422 -0.9542  0.9445  0.7857
18033SOL     OW57500  10.811   8.174   3.226  0.2434  0.3848 -0.5595
18033SOL    HW157501  10.882   8.196   3.166 -0.2867 -0.5858 -1.5782
18033SOL    HW257502  10.756   8.252   3.228  0.9580  0.8873 -0.3144
18034SOL     OW57503   8.875   8.766   4.424 -0.2604 -0.1914 -0.0498
18034SOL    HW157504   8.878   8.672   4.402 -0.2715  0.0495 -1.1440
18034SOL    HW257505   8.934   8.807   4.360  0.5463  0.4371  1.0654
18035SOL     OW57506   7.685   6.230   9.870 -0.2321 -0.1507 -0.6268
18035SOL    HW157507   7.612   6.199   9.816 -1.1017 -0.0894  0.4774
18035SOL    HW257508   7.696   6.162   9.937  0.1827  0.2410 -0.2927
18036SOL     OW57509   8.773   8.472   6.174  0.0462 -1.1467 -0.7464
18036SOL    HW157510   8.703   8.535   6.189 -0.2639 -1.2845 -1.5928
18036SOL    HW257511   8.842   8.498   6.236 -0.4526 -0.5666 -0.4243
18037SOL     OW57512   5.172   8.585   2.979  0.2912  0.2641 -0.2517
18037SOL    HW157513   5.180   8.510   2.919 -1.4967 -0.5776  0.4673
18037SOL    HW257514   5.243   8.573   3.042  0.2493 -0.6358 -0.3611
18038SOL     OW57515   5.815   6.463  10.789 -0.0959 -0.2837  0.1943
18038SOL    HW157516   5.776   6.537  10.742  2.0694 -0.7534 -2.5989
18038SOL    HW257517   5.759   6.389  10.768  0.1647 -0.2469 -0.6810
18039SOL     OW57518   1.388  10.331   3.021 -0.5116 -0.1436 -0.4939
18039SOL    HW157519   1.374  10.246   3.064 -0.8961  0.3293  0.3299
18039SOL    HW257520   1.301  10.356   2.990 -0.6592  0.5601  0.4362
18040SOL     OW57521   4.672   1.273   5.689 -0.1090  0.0691 -0.7278
18040SOL    HW157522   4.666   1.178   5.677  0.0128  0.2124 -2.0536
18040SOL    HW257523   4.714   1.283   5.775 -0.3941 -1.0619 -0.4285
18041SOL     OW57524   7.143   9.549  10.775  0.4506 -0.5648 -0.0365
18041SOL    HW157525   7.092   9.593  10.843  0.9919 -0.1696  0.1256
18041SOL    HW257526   7.181   9.621  10.725 -0.5925 -0.8432 -1.2742
18042SOL     OW57527   8.190   1.708   2.312 -0.6599  0.2354 -0.3222
18042SOL    HW157528   8.214   1.785   2.365 -2.0780  0.4242  0.1018
18042SOL    HW257529   8.131   1.743   2.245  0.6186 -0.1109 -1.6654
18043SOL     OW57530   1.647   6.986   2.007  0.4959  0.1871  0.0928
18043SOL    HW157531   1.740   7.003   1.999  0.1874  2.7950  1.2822
18043SOL    HW257532   1.605   7.064   1.971 -1.1626  0.1788  1.8706
18044SOL     OW57533   8.723   6.224   8.237 -0.5494  0.5816  0.8740
18044SOL    HW157534   8.720   6.315   8.206  0.2527  1.2583  2.6502
18044SOL    HW257535   8.811   6.215   8.274  0.4884 -1.8459 -1.8417
18045SOL     OW57536   3.586   5.832   6.586 -0.6333  0.0860  0.0243
18045SOL    HW157537   3.592   5.761   6.649  0.9861  0.4496  0.3030
18045SOL    HW257538   3.524   5.894   6.625 -2.6923 -1.4460 -0.5718
18046SOL     OW57539   6.627   2.621   7.845 -0.2104  0.0602 -0.5524
18046SOL    HW157540   6.684   2.566   7.791 -1.0577  0.3681 -1.7927
18046SOL    HW257541   6.607   2.697   7.790 -1.4826  0.1628  0.0170
18047SOL     OW57542   5.839   6.811   0.872 -0.3896 -0.2618 -0.3063
18047SOL    HW157543   5.754   6.829   0.830 -1.0019  0.1938  1.0789
18047SOL    HW257544   5.845   6.716   0.876 -0.3321 -0.3135 -1.3787
18048SOL     OW57545   8.543   2.211   1.197  0.1759  0.1222  0.1524
18048SOL    HW157546   8.557   2.144   1.264 -0.6066 -1.7592 -1.4483
18048SOL    HW257547   8.449   2.228   1.200  0.3747  1.2010  0.5560
18049SOL     OW57548   3.358  10.746   0.105  0.2257  0.0959  0.0989
18049SOL    HW157549   3.277  10.790   0.131  0.2604 -0.1879  0.7035
18049SOL    HW257550   3.425  10.785   0.162  0.6939  1.0249 -1.0466
18050SOL     OW57551   1.479   4.052  10.502  0.2810  0.0358 -0.5415
18050SOL    HW157552   1.388   4.074  10.522  0.1355  0.6380 -1.7364
18050SOL    HW257553   1.473   3.986  10.433  0.7572 -0.8247  0.2211
18051SOL     OW57554   8.360   2.268   4.332 -0.0829 -0.0672  0.0416
18051SOL    HW157555   8.421   2.194   4.326 -0.8631 -0.6346 -1.2510
18051SOL    HW257556   8.413   2.344   4.309  0.4302 -0.3824  0.1571
18052SOL     OW57557   4.699   9.461   1.293  0.0061 -0.5112  0.1400
18052SOL    HW157558   4.769   9.446   1.357 -0.6701 -1.8655  0.6159
18052SOL    HW257559   4.695   9.556   1.283  1.4560 -0.3771  0.6081
18053SOL     OW57560   0.794   7.777   3.878 -0.2255  0.0211  0.3798
18053SOL    HW157561   0.786   7.729   3.795  0.1996  0.9383 -0.2091
18053SOL    HW257562   0.794   7.709   3.945 -1.8123 -0.6647 -0.2838
18054SOL     OW57563   2.561   9.616   8.721  0.0446 -0.2507 -0.5098
18054SOL    HW157564   2.574   9.528   8.757 -0.1699  0.0909  0.4299
18054SOL    HW257565   2.475   9.643   8.753  1.3039  1.4471  1.7224
18055SOL     OW57566   7.034   6.141   4.400  0.4019  0.6559 -0.0780
18055SOL    HW157567   6.988   6.203   4.344  0.1965 -0.1187 -0.7876
18055SOL    HW257568   6.988   6.145   4.484 -1.0076 -0.1351 -0.7823
18056SOL     OW57569   3.104   1.752   7.550  0.0558  0.2815 -0.1908
18056SOL    HW157570   3.122   1.823   7.489 -1.5725 -0.7484 -1.9649
18056SOL    HW257571   3.187   1.737   7.595  1.0341  1.7389 -1.4425
18057SOL     OW57572   3.750   8.546   9.343 -0.1196 -0.1178 -0.0719
18057SOL    HW157573   3.705   8.541   9.259 -1.6011  1.7942  0.5266
18057SOL    HW257574   3.691   8.596   9.399  0.7002 -1.5481  2.2249
18058SOL     OW57575   2.710   7.851  10.571  0.1574 -0.0699  0.1606
18058SOL    HW157576   2.697   7.771  10.623  1.7014 -1.0008 -0.8185
18058SOL    HW257577   2.643   7.847  10.503  0.5319 -0.7921 -0.1741
18059SOL     OW57578   6.417   4.951   1.876  0.4299  0.1708 -0.7051
18059SOL    HW157579   6.369   4.993   1.947  1.2125  0.0603 -0.1015
18059SOL    HW257580   6.350   4.933   1.809 -0.4866 -0.4977  0.3456
18060SOL     OW57581  10.548   0.036   1.929 -0.0729 -0.3825 -0.0861
18060SOL    HW157582  10.509  -0.043   1.964  0.2950  0.1456  1.6168
18060SOL    HW257583  10.474   0.095   1.913 -0.4723 -1.4195 -2.4930
18061SOL     OW57584   2.056   8.576   6.227 -0.0245 -0.3631 -0.2774
18061SOL    HW157585   2.036   8.650   6.171  0.3394  0.1230  0.2275
18061SOL    HW257586   2.003   8.591   6.306  0.9058 -0.0344  0.2975
18062SOL     OW57587   3.767   1.875   2.583  0.3744 -0.1246  0.5579
18062SOL    HW157588   3.794   1.794   2.628 -2.1088 -0.3399  1.8467
18062SOL    HW257589   3.742   1.846   2.495 -0.3899 -0.7655  0.9720
18063SOL     OW57590   3.324   7.217   8.501 -0.4352  0.0050 -0.4148
18063SOL    HW157591   3.257   7.271   8.542  1.3652  1.2497  1.0854
18063SOL    HW257592   3.279   7.136   8.479 -2.0367  0.0145  2.2796
18064SOL     OW57593   6.812   6.726   9.720  0.5893 -0.2569  0.7329
18064SOL    HW157594   6.834   6.740   9.812  0.8407  0.3640  0.5845
18064SOL    HW257595   6.832   6.810   9.678  1.6500 -0.8974 -0.1116
18065SOL     OW57596   3.767   8.881   1.768  0.2067  0.0833  0.2780
18065SOL    HW157597   3.857   8.872   1.734 -0.2492  0.6112 -1.1613
18065SOL    HW257598   3.727   8.947   1.711 -0.7402  0.7386  1.6623
18066SOL     OW57599   4.901   9.144   2.871 -0.2600  0.4977 -0.0325
18066SOL    HW157600   4.866   9.077   2.813 -1.5000  2.8396 -2.1811
18066SOL    HW257601   4.830   9.163   2.932  1.1794 -2.2552  2.7754
18067SOL     OW57602   4.823   3.362   3.283  0.0087  0.5438 -0.2118
18067SOL    HW157603   4.746   3.415   3.302  0.1154  0.4071  0.6075
18067SOL    HW257604   4.795   3.272   3.301 -0.4709  0.1757 -2.4851
18068SOL     OW57605   1.689   3.643   9.987 -0.5577 -0.2699 -0.4911
18068SOL    HW157606   1.654   3.710   9.929 -0.2543  0.2937 -0.0345
18068SOL    HW257607   1.632   3.647  10.064  0.6948  0.9297  0.4301
18069SOL     OW57608   5.306   8.798   7.724  0.2295 -0.3514 -0.2762
18069SOL    HW157609   5.221   8.759   7.703  0.6082 -0.6461 -1.3307
18069SOL    HW257610   5.360   8.723   7.750  0.7908 -0.4962 -1.7476
18070SOL     OW57611   5.402   5.349   6.160 -0.1624 -0.4246  0.5697
18070SOL    HW157612   5.362   5.433   6.136  1.1148  0.0714  0.0956
18070SOL    HW257613   5.385   5.292   6.084  2.0640  0.5233 -0.7396
18071SOL     OW57614  10.080   6.388   3.818  0.3893 -0.3715  0.4037
18071SOL    HW157615  10.175   6.403   3.820  0.2132  0.7642  0.7460
18071SOL    HW257616  10.071   6.293   3.811  1.5526 -0.5038  0.5429
18072SOL     OW57617   1.099   6.559   4.453  0.6508 -0.2085  0.0302
18072SOL    HW157618   1.038   6.611   4.400 -0.9975  0.3634  2.3655
18072SOL    HW257619   1.186   6.585   4.422 -0.2082  1.5733 -1.0189
18073SOL     OW57620   8.484   8.216   9.746 -0.1561 -0.4628 -0.2974
18073SOL    HW157621   8.514   8.287   9.689 -0.0820 -0.4854 -0.2857
18073SOL    HW257622   8.422   8.167   9.692  1.3334 -1.6137 -1.0108
18074SOL     OW57623   5.548   8.618   9.780 -0.4084 -0.5304 -0.1117
18074SOL    HW157624   5.508   8.570   9.707 -1.7547  0.1644  0.1463
18074SOL    HW257625   5.494   8.695   9.791  0.7586  0.2252  0.5689
18075SOL     OW57626   9.952   5.408   3.673 -0.4010 -0.3695  0.4693
18075SOL    HW157627  10.026   5.368   3.627  1.9934  2.6230  1.3637
18075SOL    HW257628   9.895   5.441   3.603  1.2616  0.8115 -0.3957
18076SOL     OW57629   6.158   4.992   9.808  0.2272  0.6289 -0.0800
18076SOL    HW157630   6.092   4.994   9.877 -0.6714  0.9681 -0.9277
18076SOL    HW257631   6.123   5.049   9.739  0.2177 -1.1305 -1.6013
18077SOL     OW57632   4.171   9.709   4.619  0.2800  0.4270  0.0151
18077SOL    HW157633   4.260   9.725   4.650  0.6322  1.1125 -1.2959
18077SOL    HW257634   4.176   9.721   4.524 -0.9510 -0.7305 -0.2228
18078SOL     OW57635   4.077   3.237   5.569  0.5594  0.0521 -0.3388
18078SOL    HW157636   4.162   3.194   5.570  0.8544  0.6221  0.3715
18078SOL    HW257637   4.054   3.249   5.661 -1.4907 -2.3482 -0.4296
18079SOL     OW57638   0.677   2.809  10.139  0.2722 -0.1338  0.2151
18079SOL    HW157639   0.721   2.798  10.054 -1.1971  1.5026 -0.8295
18079SOL    HW257640   0.683   2.903  10.157 -2.5108  0.1561  0.1072
18080SOL     OW57641   6.812   7.923   4.258  0.2325 -0.1287  0.1158
18080SOL    HW157642   6.791   7.884   4.172  0.7021 -2.3812  0.9382
18080SOL    HW257643   6.905   7.906   4.269  0.5515  1.6458  0.3973
18081SOL     OW57644   8.701   2.857   3.119 -0.7150 -0.0894  0.3147
18081SOL    HW157645   8.637   2.888   3.183  0.5458  0.2763  1.4430
18081SOL    HW257646   8.725   2.769   3.150  0.3494  0.3267  0.7325
18082SOL     OW57647   1.820   6.955   4.878 -0.2152  0.7208 -0.0274
18082SOL    HW157648   1.900   6.985   4.836  1.3971 -0.6546  1.8600
18082SOL    HW257649   1.826   6.988   4.968 -1.5943  0.2773  0.2612
18083SOL     OW57650   3.574   6.170   2.374 -0.2119 -0.4341  0.2954
18083SOL    HW157651   3.632   6.098   2.399  0.5428 -0.4640 -1.4301
18083SOL    HW257652   3.633   6.242   2.352 -0.6351 -1.0301 -3.2947
18084SOL     OW57653   8.745   9.902   5.753  0.1968  0.1649 -0.4198
18084SOL    HW157654   8.774   9.974   5.810 -0.2419 -0.8169  1.0957
18084SOL    HW257655   8.812   9.835   5.763 -0.4430 -0.4539 -0.1576
18085SOL     OW57656   6.740   3.561   0.899 -0.1199  0.3532  1.1807
18085SOL    HW157657   6.660   3.530   0.856  0.7380  0.9783 -0.9959
18085SOL    HW257658   6.805   3.493   0.880  0.2564  0.5716  1.6597
18086SOL     OW57659   3.431   6.347   9.903  0.0125  0.6014  0.2974
18086SOL    HW157660   3.368   6.381   9.839 -0.4707 -0.4759  0.1840
18086SOL    HW257661   3.377   6.316   9.976  0.4744  0.5679  0.6271
18087SOL     OW57662   7.125   1.077   9.998 -0.4251 -0.3591 -0.6364
18087SOL    HW157663   7.064   1.120   9.938  0.7248 -0.7295 -2.1227
18087SOL    HW257664   7.171   1.012   9.944  1.1334 -0.2463  0.4806
18088SOL     OW57665   7.511   9.636  10.878 -0.7400 -0.2020 -0.2739
18088SOL    HW157666   7.549   9.636  10.966  0.4118  0.1217 -0.7499
18088SOL    HW257667   7.582   9.665  10.822 -0.7580 -2.4814 -1.6143
18089SOL     OW57668   7.222   5.339   4.204 -0.1552  0.1978  0.1708
18089SOL    HW157669   7.162   5.277   4.246  0.4055  0.4300  1.3583
18089SOL    HW257670   7.242   5.299   4.119 -2.2149  0.2785 -0.4015
18090SOL     OW57671   1.753   7.978   8.958  0.3907 -0.2613 -0.1388
18090SOL    HW157672   1.696   7.901   8.961  0.6928 -0.4858 -0.0650
18090SOL    HW257673   1.745   8.009   8.868  0.2737 -0.3843 -0.1723
18091SOL     OW57674   7.443   7.820   3.717  0.3228  0.2251  0.0115
18091SOL    HW157675   7.380   7.781   3.778  0.0461  0.0510 -0.3871
18091SOL    HW257676   7.416   7.911   3.711  0.8076  0.4323  0.7326
18092SOL     OW57677   8.126   2.765   0.729  0.4989  0.3023  0.6396
18092SOL    HW157678   8.137   2.818   0.807  0.3367  0.7060  0.3907
18092SOL    HW257679   8.140   2.826   0.656 -1.1205  0.3477  0.3267
18093SOL     OW57680   1.637   3.163   2.732  0.0744  0.0586 -0.1334
18093SOL    HW157681   1.716   3.144   2.680 -0.2895  0.0262 -0.6894
18093SOL    HW257682   1.668   3.216   2.805  0.8207 -1.1167  0.4242
18094SOL     OW57683   1.999   6.181   3.673 -0.5920 -0.5871  0.5384
18094SOL    HW157684   1.972   6.105   3.622  0.2472 -0.3922 -0.2347
18094SOL    HW257685   2.092   6.165   3.691 -0.1513  0.6832 -0.4640
18095SOL     OW57686   5.263   0.169   0.221  0.2879  0.3006  0.4295
18095SOL    HW157687   5.183   0.142   0.177  1.1685 -1.6520 -0.0576
18095SOL    HW257688   5.297   0.240   0.167 -0.1378 -0.1365 -0.4276
18096SOL     OW57689   7.036  10.474   6.544 -0.2846  0.5541 -0.0457
18096SOL    HW157690   6.985  10.408   6.496 -0.1736  1.1201 -0.9729
18096SOL    HW257691   7.032  10.552   6.489 -0.2432  1.2671  0.9390
18097SOL     OW57692   8.464   7.114   5.459 -0.4994 -0.6517 -0.0903
18097SOL    HW157693   8.377   7.094   5.491 -0.8457 -0.1677 -0.7076
18097SOL    HW257694   8.503   7.028   5.442 -0.7602 -0.8744  0.4216
18098SOL     OW57695   9.791   5.849   3.063  0.3936  0.2202  0.2867
18098SOL    HW157696   9.737   5.830   2.986 -0.1277  1.1415  0.4039
18098SOL    HW257697   9.808   5.764   3.102 -0.9776 -0.1103  0.2274
18099SOL     OW57698   5.994   7.324   4.766 -0.1280  0.0115 -0.4684
18099SOL    HW157699   5.917   7.379   4.758  0.2609  0.7151  0.4392
18099SOL    HW257700   6.062   7.382   4.801  0.5534 -0.8192 -0.3676
18100SOL     OW57701   0.940   7.217   4.261  0.2435  0.5846 -0.3205
18100SOL    HW157702   0.927   7.224   4.356  1.2359  0.0887 -0.1274
18100SOL    HW257703   1.035   7.225   4.250  0.2372 -0.3543 -1.1754
18101SOL     OW57704   4.032   4.291   7.989  0.7146 -0.1185 -0.5280
18101SOL    HW157705   3.969   4.340   7.938  0.2448 -2.1375 -2.0230
18101SOL    HW257706   3.993   4.284   8.076 -0.6757 -0.5075 -1.1674
18102SOL     OW57707  10.385   3.864   1.992 -0.4002 -0.4329 -0.2080
18102SOL    HW157708  10.370   3.774   1.962  0.6773 -1.0608  1.0408
18102SOL    HW257709  10.479   3.868   2.010 -0.3910  1.0215 -0.4329
18103SOL     OW57710   2.544   5.991   0.556 -0.3647  0.0968 -0.7890
18103SOL    HW157711   2.536   5.900   0.528  0.2412  0.0401 -0.7937
18103SOL    HW257712   2.560   5.986   0.650 -1.5788  0.2559 -0.5599
18104SOL     OW57713   1.067   6.624   5.065  0.3458  0.1991 -0.3046
18104SOL    HW157714   1.061   6.543   5.116 -1.6833  1.3915  1.5124
18104SOL    HW257715   1.001   6.614   4.997  1.6566 -0.5397 -1.5327
18105SOL     OW57716   7.614   4.446   9.218 -0.4002  0.6798  0.2616
18105SOL    HW157717   7.617   4.393   9.297  0.6038 -1.3264 -1.0300
18105SOL    HW257718   7.618   4.536   9.249 -0.5980 -0.0280  2.5009
18106SOL     OW57719   2.674   6.797  10.493  0.1181 -0.0846 -0.0247
18106SOL    HW157720   2.670   6.739  10.569  1.3897 -1.4582 -0.9398
18106SOL    HW257721   2.737   6.865  10.517  0.6217 -0.5944  0.1169
18107SOL     OW57722   9.027   4.541   5.834  0.7670  0.4521  0.6545
18107SOL    HW157723   8.953   4.527   5.776  0.6829 -1.4682  1.1646
18107SOL    HW257724   9.100   4.565   5.776  0.4599 -0.5315 -0.1508
18108SOL     OW57725   2.877   3.468  10.356  0.1689  0.0786  0.1552
18108SOL    HW157726   2.933   3.404  10.400  0.9743  0.5742 -0.1304
18108SOL    HW257727   2.788   3.445  10.383  0.6353  0.4978  2.2550
18109SOL     OW57728   2.918   5.213   7.350 -0.1089  0.1315 -0.4820
18109SOL    HW157729   2.927   5.216   7.445 -0.7168  1.7436 -0.4463
18109SOL    HW257730   2.912   5.305   7.324 -0.4644 -0.3087 -2.0276
18110SOL     OW57731   5.237   9.197   6.929  0.7545 -0.4400  0.0421
18110SOL    HW157732   5.195   9.237   7.006 -0.7190 -2.4239  0.3383
18110SOL    HW257733   5.277   9.271   6.883 -0.0370  1.0756  1.6528
18111SOL     OW57734  10.226   9.685   9.280  0.3184  0.1501  0.3401
18111SOL    HW157735  10.273   9.602   9.288 -0.2182 -0.2413 -0.4117
18111SOL    HW257736  10.145   9.662   9.234  0.5666  1.2355 -0.6730
18112SOL     OW57737  10.016   7.042   0.478 -0.7252 -0.1924  0.0213
18112SOL    HW157738   9.998   7.046   0.572  1.4028  1.2511  0.4434
18112SOL    HW257739   9.930   7.047   0.437 -1.6038  0.9850  1.8735
18113SOL     OW57740   3.738   9.562   8.537  0.2227  0.1728 -0.3426
18113SOL    HW157741   3.675   9.491   8.546  0.1043  0.4771  1.8848
18113SOL    HW257742   3.822   9.523   8.561 -0.1265  1.0939  2.9447
18114SOL     OW57743   7.997   7.597  10.851  0.4631 -0.2997  0.0051
18114SOL    HW157744   7.961   7.544  10.923  0.5230  0.1510  0.3679
18114SOL    HW257745   7.921   7.614  10.795  0.4002 -0.5845 -0.0013
18115SOL     OW57746   9.621   6.068   6.792  0.0019 -0.4436  0.1167
18115SOL    HW157747   9.573   6.003   6.843  0.7463 -1.0913  0.0229
18115SOL    HW257748   9.565   6.145   6.792 -0.1332 -0.5030  1.7163
18116SOL     OW57749  10.408   2.279   5.385  0.3566  0.0666  0.0385
18116SOL    HW157750  10.365   2.204   5.344 -0.3091  1.7520 -2.6280
18116SOL    HW257751  10.494   2.246   5.413 -0.0423 -1.7488 -0.7581
18117SOL     OW57752   1.437   7.305   6.954  0.0949 -0.6314  0.5585
18117SOL    HW157753   1.513   7.344   6.912  0.4859  0.6786  2.3255
18117SOL    HW257754   1.470   7.267   7.035 -1.1159  0.1218  1.4543
18118SOL     OW57755   6.080   6.311   2.092 -0.1733 -0.0152  0.4341
18118SOL    HW157756   6.147   6.273   2.148  0.5981 -0.7848 -0.9617
18118SOL    HW257757   6.089   6.405   2.105 -1.2090 -0.1712  2.9159
18119SOL     OW57758   4.020   6.926   2.849  0.4543 -0.1601  0.2299
18119SOL    HW157759   4.054   6.859   2.790 -1.5391  0.2081 -1.4637
18119SOL    HW257760   4.048   7.009   2.810  0.6772  0.0449  0.8239
18120SOL     OW57761   9.594   5.059   3.025 -0.1109  0.4132 -0.1340
18120SOL    HW157762   9.609   5.040   3.118 -2.5170 -0.4254  0.1754
18120SOL    HW257763   9.627   4.983   2.979  0.6610  0.6220  0.0601
18121SOL     OW57764   6.461   1.823   9.331 -0.7416  0.3065  0.2510
18121SOL    HW157765   6.401   1.826   9.405 -0.0876 -2.1749  0.9809
18121SOL    HW257766   6.546   1.801   9.369 -0.5810 -2.0883 -1.2227
18122SOL     OW57767   8.689   9.942   8.111 -0.7755 -0.2139  0.1805
18122SOL    HW157768   8.659   9.858   8.076  0.6834 -1.0946  0.9591
18122SOL    HW257769   8.639   9.953   8.192 -0.9041 -0.3681  0.1243
18123SOL     OW57770   8.415   3.808   8.365 -0.0919 -0.0298  0.8524
18123SOL    HW157771   8.504   3.828   8.395  0.1404  1.6431 -0.7523
18123SOL    HW257772   8.426   3.738   8.301  0.5022  1.8766 -1.2799
18124SOL     OW57773   5.395   4.855   4.017  0.1959 -0.1751 -0.0066
18124SOL    HW157774   5.434   4.865   4.104  2.7192 -0.4259 -1.0369
18124SOL    HW257775   5.329   4.925   4.012  0.8004  0.5543  1.6775
18125SOL     OW57776   2.320   8.407   8.362 -0.6480 -0.0182  0.3543
18125SOL    HW157777   2.361   8.385   8.445 -2.2241  1.8117  1.7236
18125SOL    HW257778   2.311   8.324   8.316 -0.0453 -1.1232  2.1658
18126SOL     OW57779   6.753   0.953  10.168 -0.4965 -0.8163 -0.1221
18126SOL    HW157780   6.702   1.028  10.137 -1.6994 -2.0374 -1.2577
18126SOL    HW257781   6.707   0.924  10.246 -1.5025 -1.8262 -1.0615
18127SOL     OW57782   1.331   6.217   9.576 -0.6028  0.5997  0.5372
18127SOL    HW157783   1.240   6.244   9.565 -0.8458 -0.3393  0.1616
18127SOL    HW257784   1.375   6.247   9.496 -0.4935  1.4053  0.8981
18128SOL     OW57785   2.100   6.051   0.277  0.2212  0.1484  0.1809
18128SOL    HW157786   2.074   5.959   0.280 -0.9478  0.4409 -0.2636
18128SOL    HW257787   2.018   6.099   0.266  0.8779  1.1993 -0.3831
18129SOL     OW57788  10.576   2.818   6.179  0.3386 -0.0513  0.0675
18129SOL    HW157789  10.608   2.898   6.137  0.8490 -0.2693  0.0284
18129SOL    HW257790  10.516   2.779   6.115 -0.9174  0.9457  0.5984
18130SOL     OW57791   2.898   0.115   4.464  0.8656  0.4890  0.1907
18130SOL    HW157792   2.869   0.097   4.375  0.5377 -0.7720  0.5231
18130SOL    HW257793   2.869   0.204   4.482  0.9703  0.7784 -0.9623
18131SOL     OW57794   2.369   7.505   4.959  0.0897  0.0757 -0.0852
18131SOL    HW157795   2.290   7.558   4.945 -0.6488 -0.7864  0.7024
18131SOL    HW257796   2.387   7.467   4.873  0.5642  1.4817 -0.6376
18132SOL     OW57797   0.600   0.795   4.709 -0.4899 -0.2346 -0.1805
18132SOL    HW157798   0.575   0.809   4.618 -2.6421 -0.6788  0.2774
18132SOL    HW257799   0.691   0.767   4.705 -0.5205 -0.1948 -2.1825
18133SOL     OW57800   3.510  10.714   5.681  0.0863  0.2420 -0.3381
18133SOL    HW157801   3.566  10.787   5.706  1.2283 -0.5858 -0.4380
18133SOL    HW257802   3.427  10.731   5.727 -0.2353  2.4202 -1.6068
18134SOL     OW57803   6.178   4.209   7.820  0.1513 -0.1772  0.0321
18134SOL    HW157804   6.099   4.168   7.856  0.8125 -1.1743  0.3958
18134SOL    HW257805   6.156   4.302   7.814 -0.9678 -0.4027  0.3444
18135SOL     OW57806   4.125   5.841  10.634  0.3822  0.0587 -0.0742
18135SOL    HW157807   4.062   5.907  10.604 -1.3681 -1.4750  0.0501
18135SOL    HW257808   4.077   5.791  10.700  2.0757 -0.5870  0.7275
18136SOL     OW57809   9.818   4.144   5.431  0.3541  0.1955 -0.6507
18136SOL    HW157810   9.906   4.172   5.453  0.9913 -2.2720  0.2455
18136SOL    HW257811   9.802   4.182   5.344  1.3539  2.5552  0.1228
18137SOL     OW57812   5.476   7.509   0.631  0.3049  0.3906 -0.3949
18137SOL    HW157813   5.393   7.502   0.678 -0.8402  0.8422 -2.2179
18137SOL    HW257814   5.456   7.478   0.542  1.3160  3.1032 -1.6919
18138SOL     OW57815   4.886  10.473   0.260 -0.3851 -0.2528  0.0909
18138SOL    HW157816   4.842  10.557   0.242  0.8905  0.2741 -0.6851
18138SOL    HW257817   4.920  10.446   0.175  0.1823 -1.0093  0.5509
18139SOL     OW57818   3.768   9.694   5.559  0.7688 -0.2222 -0.1459
18139SOL    HW157819   3.860   9.680   5.581  0.7132 -0.7880 -0.2522
18139SOL    HW257820   3.753   9.636   5.484  0.7136  0.9582 -1.0702
18140SOL     OW57821   9.793   5.363   2.954 -0.0052  0.4599  0.2777
18140SOL    HW157822   9.752   5.305   2.890  2.3580 -0.2295 -0.7322
18140SOL    HW257823   9.720   5.402   3.002 -1.7629 -1.0997 -0.9959
18141SOL     OW57824   9.031   4.173   3.065 -0.5597 -0.8470 -0.1375
18141SOL    HW157825   9.047   4.088   3.105  2.8603 -0.2327  0.0721
18141SOL    HW257826   8.992   4.226   3.135 -0.0652 -1.4356  0.5856
18142SOL     OW57827   4.110   4.177   7.619 -0.1539 -0.1889  0.2004
18142SOL    HW157828   4.164   4.184   7.540 -0.3326  0.0824  0.1010
18142SOL    HW257829   4.082   4.085   7.621 -0.3967 -0.1290 -0.2211
18143SOL     OW57830   1.867   9.178   1.513 -0.6488  0.3979  0.0459
18143SOL    HW157831   1.838   9.099   1.559  0.9903  0.2767  0.9431
18143SOL    HW257832   1.936   9.215   1.569  0.2401  1.1770 -1.4811
18144SOL     OW57833   5.369   4.103   7.006  0.2713 -0.0877 -0.1039
18144SOL    HW157834   5.343   4.195   7.011 -0.1078 -0.1309 -1.1108
18144SOL    HW257835   5.451   4.098   7.056  0.9215  1.0281 -1.0128
18145SOL     OW57836   3.740  10.749   1.731  0.1135  0.3728  1.3619
18145SOL    HW157837   3.783  10.671   1.695  1.7740  1.6727  0.3714
18145SOL    HW257838   3.765  10.750   1.823 -0.5309 -0.6473  1.5576
18146SOL     OW57839   7.629   3.480   0.607  0.2223  0.0936  0.4210
18146SOL    HW157840   7.577   3.520   0.537 -0.5848 -1.1048  0.3031
18146SOL    HW257841   7.720   3.502   0.585 -0.1435  1.1941 -0.0397
18147SOL     OW57842   9.428   7.419   0.637  0.8809 -0.0321  0.1298
18147SOL    HW157843   9.459   7.509   0.645  0.2631  0.2053 -0.1009
18147SOL    HW257844   9.435   7.400   0.544  1.3337 -0.3484  0.2220
18148SOL     OW57845   8.115   1.616   8.406 -0.0422 -0.1159  0.4808
18148SOL    HW157846   8.099   1.563   8.484  0.6323 -0.2211  0.5473
18148SOL    HW257847   8.088   1.704   8.430 -0.9902 -0.3757  0.4339
18149SOL     OW57848   7.395   5.565   0.645 -0.1392  0.2500 -0.0518
18149SOL    HW157849   7.350   5.491   0.686 -1.1275  0.9045  0.0826
18149SOL    HW257850   7.483   5.563   0.682 -0.1783 -0.8025  0.0090
18150SOL     OW57851   9.407   4.442  10.919 -0.0889  0.1270  0.6113
18150SOL    HW157852   9.405   4.528  10.963  0.6488  0.4452  0.0558
18150SOL    HW257853   9.381   4.461  10.829 -0.0132 -0.2520  0.5113
18151SOL     OW57854   5.533   3.423   0.811 -0.2401  0.4070  0.3091
18151SOL    HW157855   5.581   3.424   0.728  0.1085  1.3724  0.5174
18151SOL    HW257856   5.471   3.350   0.802  3.5092 -3.3100  1.3357
18152SOL     OW57857   8.498   5.909   8.705  0.5705  0.3957  0.3613
18152SOL    HW157858   8.582   5.942   8.672  0.0721  1.6300  0.2637
18152SOL    HW257859   8.522   5.849   8.776  1.5309  0.9908  0.5605
18153SOL     OW57860   7.862   6.077   3.877  0.6631 -0.0375  0.2879
18153SOL    HW157861   7.779   6.105   3.837 -0.2032 -1.1739  1.2543
18153SOL    HW257862   7.873   6.136   3.951 -1.1987 -2.0990  2.3644
18154SOL     OW57863   9.563  10.389   3.074  0.3433  0.4088  0.1275
18154SOL    HW157864   9.498  10.394   3.144 -0.3626 -0.5856 -0.4337
18154SOL    HW257865   9.615  10.312   3.095 -0.2505 -0.2445 -0.7453
18155SOL     OW57866   8.735  10.176   9.291 -0.4915  0.0435 -0.3862
18155SOL    HW157867   8.743  10.271   9.281 -1.0665  0.1471  0.0731
18155SOL    HW257868   8.739  10.143   9.201 -0.3473  0.5090 -0.5547
18156SOL     OW57869   2.484   8.940   5.689  1.0150  0.5785  0.8117
18156SOL    HW157870   2.513   8.868   5.633 -0.7663  0.1998  0.2811
18156SOL    HW257871   2.535   9.015   5.659  0.9856  0.1087 -0.5079
18157SOL     OW57872   2.959   5.999   4.179  0.5106  0.1539 -0.3369
18157SOL    HW157873   2.976   6.075   4.235 -0.3324 -0.4028  0.7047
18157SOL    HW257874   2.953   5.926   4.240 -1.1630 -0.3558 -1.0776
18158SOL     OW57875   7.182   4.971   0.970 -0.3289 -0.4702 -0.4863
18158SOL    HW157876   7.129   4.926   1.036  1.3252  0.9239  1.9880
18158SOL    HW257877   7.147   5.060   0.968  0.0072 -0.3459 -1.0649
18159SOL     OW57878   1.241   3.826  10.683  0.2325  0.2804 -0.1837
18159SOL    HW157879   1.284   3.778  10.612  1.4725  0.4477  0.4353
18159SOL    HW257880   1.294   3.808  10.760 -0.4090  1.0760  0.4599
18160SOL     OW57881   6.633   5.972   4.123 -0.5062  0.1696 -0.1465
18160SOL    HW157882   6.557   5.980   4.181 -1.4613  1.1798 -1.4652
18160SOL    HW257883   6.636   5.880   4.099 -1.1817  0.0732  0.1140
18161SOL     OW57884   3.613   8.667   1.413 -0.3757 -0.0140 -0.4965
18161SOL    HW157885   3.557   8.618   1.353 -1.2165 -0.4638  0.6233
18161SOL    HW257886   3.685   8.700   1.358 -1.5528  0.3048 -1.8985
18162SOL     OW57887   7.922   7.737   8.112 -0.4740 -0.3222  0.7499
18162SOL    HW157888   7.966   7.706   8.034 -0.5071  1.5612 -0.0713
18162SOL    HW257889   7.991   7.776   8.165 -0.7268  0.1163  0.7641
18163SOL     OW57890   5.034   8.171   6.360  0.0620 -0.1278 -0.6437
18163SOL    HW157891   4.984   8.103   6.405  0.0811 -0.1231 -0.6164
18163SOL    HW257892   4.982   8.251   6.371 -0.2179 -0.2415 -1.1169
18164SOL     OW57893   6.475   4.205   5.732 -0.0486  0.1644 -0.2228
18164SOL    HW157894   6.527   4.228   5.809  3.2478 -3.6697 -0.9668
18164SOL    HW257895   6.415   4.137   5.762 -0.6128  0.5094 -0.5481
18165SOL     OW57896  10.142   4.203   6.609  0.1024 -0.8686 -0.4236
18165SOL    HW157897  10.163   4.252   6.529  1.4887  0.0371  0.4592
18165SOL    HW257898  10.051   4.227   6.629  0.5043  0.7705 -0.4404
18166SOL     OW57899   6.189   1.956   9.227 -0.0882 -0.4833  0.2132
18166SOL    HW157900   6.181   1.864   9.252  0.9152 -0.3447  1.1224
18166SOL    HW257901   6.237   1.997   9.300  1.7406  0.2313 -1.2956
18167SOL     OW57902   3.338   0.699   7.875 -0.1236 -0.4185 -0.3182
18167SOL    HW157903   3.380   0.618   7.902  0.4647 -0.0263 -0.0264
18167SOL    HW257904   3.271   0.715   7.942 -0.6837 -0.9955 -0.7319
18168SOL     OW57905   3.982   7.296   0.829  0.0486  0.3792 -0.1064
18168SOL    HW157906   3.995   7.202   0.821  1.1693  0.5531 -0.5358
18168SOL    HW257907   3.987   7.313   0.923  0.6172  0.1013 -0.0814
18169SOL     OW57908   0.262   4.851   9.434  0.0676 -0.2116 -0.4895
18169SOL    HW157909   0.253   4.946   9.433  0.7895 -0.1188  0.7072
18169SOL    HW257910   0.265   4.827   9.526  5.5129 -0.7801 -0.4572
18170SOL     OW57911   9.315   7.500   6.127 -0.1491  0.2513  1.0885
18170SOL    HW157912   9.349   7.425   6.175 -1.5356 -0.6362  0.7277
18170SOL    HW257913   9.227   7.475   6.102 -0.1073  1.4090 -0.3554
18171SOL     OW57914   6.160   0.063   2.307  0.2341  0.1324  0.1669
18171SOL    HW157915   6.229   0.059   2.374  2.3246 -1.2309 -1.9037
18171SOL    HW257916   6.197   0.119   2.239 -2.4984  2.8371  0.6811
18172SOL     OW57917   5.979   0.901   6.222 -0.3726  0.4002  0.3538
18172SOL    HW157918   5.914   0.971   6.231 -0.5682  0.5053 -1.4725
18172SOL    HW257919   5.928   0.826   6.189  0.1629  0.0104  0.4032
18173SOL     OW57920   0.672   7.840   4.633 -0.0239  0.3278  0.1418
18173SOL    HW157921   0.668   7.755   4.589  3.1798  0.5698 -0.8592
18173SOL    HW257922   0.675   7.819   4.726 -1.0367 -0.5133  0.0072
18174SOL     OW57923   4.295   0.421   9.243 -0.6126  0.5568 -0.1066
18174SOL    HW157924   4.342   0.462   9.170  0.8766  0.1539  0.5929
18174SOL    HW257925   4.211   0.394   9.205  0.1225  0.3522 -1.6775
18175SOL     OW57926  10.537   5.094   3.829  0.3857  0.7157  0.2316
18175SOL    HW157927  10.621   5.049   3.824  0.6099  1.2591 -1.5217
18175SOL    HW257928  10.488   5.048   3.897  1.8508 -0.0187  0.8099
18176SOL     OW57929   7.510   5.435   6.672  0.5245 -0.1986 -0.4479
18176SOL    HW157930   7.570   5.362   6.659 -0.6614 -0.7990 -3.5462
18176SOL    HW257931   7.556   5.510   6.633  1.1979  0.4866  1.5575
18177SOL     OW57932   5.278   2.739   7.409 -0.9314 -0.4067  0.1218
18177SOL    HW157933   5.299   2.655   7.369 -1.7205 -1.0979  1.1334
18177SOL    HW257934   5.187   2.755   7.387 -0.7963  0.1916 -0.0449
18178SOL     OW57935   7.527   2.230   6.361  0.0841 -0.5059 -0.3031
18178SOL    HW157936   7.619   2.254   6.370  0.0351 -0.3557 -0.2082
18178SOL    HW257937   7.528   2.134   6.356  0.2451 -0.5047 -0.3011
18179SOL     OW57938   1.761   4.980   4.621  0.7246 -0.4541 -0.1387
18179SOL    HW157939   1.784   4.984   4.528 -1.5428 -1.5471 -0.8289
18179SOL    HW257940   1.823   5.038   4.664 -0.1511  2.7137 -2.7660
18180SOL     OW57941   3.699   5.009   1.319  0.4574 -0.2692 -0.1196
18180SOL    HW157942   3.642   4.992   1.244  2.4520 -1.6697 -1.4039
18180SOL    HW257943   3.662   4.955   1.390  0.6871 -1.9250 -1.2085
18181SOL     OW57944  10.174   9.934  10.403  0.1248 -0.0635  0.1008
18181SOL    HW157945  10.246   9.981  10.445  0.4336 -1.2870  1.0071
18181SOL    HW257946  10.194   9.841  10.419 -0.7018 -0.4956 -1.2170
18182SOL     OW57947   4.085   2.312   8.655 -0.2084 -0.2429 -0.0822
18182SOL    HW157948   4.015   2.335   8.593 -0.4013 -2.3650 -0.7288
18182SOL    HW257949   4.162   2.358   8.623 -1.0199  1.2712  0.0181
18183SOL     OW57950  10.431   2.286   0.543 -0.4206  0.5667 -0.1771
18183SOL    HW157951  10.492   2.358   0.559 -0.3794  0.8014 -1.3254
18183SOL    HW257952  10.426   2.279   0.448 -1.1714 -0.3189 -0.0875
18184SOL     OW57953   6.908   0.010   7.573  0.3406 -0.4591 -0.0597
18184SOL    HW157954   6.823  -0.001   7.529  0.5504 -0.8314 -0.3785
18184SOL    HW257955   6.886   0.011   7.666  0.1958 -2.8836 -0.0006
18185SOL     OW57956   3.402   6.718   2.247 -0.1686 -0.0567  0.3364
18185SOL    HW157957   3.462   6.713   2.322 -0.8172  1.3459  0.9715
18185SOL    HW257958   3.346   6.641   2.256  0.1080 -0.1852  0.9911
18186SOL     OW57959   0.206   7.118   3.789  0.1866 -0.1976  0.1531
18186SOL    HW157960   0.247   7.200   3.815  0.2351  0.1039 -0.8248
18186SOL    HW257961   0.141   7.100   3.857  2.5440 -1.1863  2.2782
18187SOL     OW57962   2.001   6.059   5.548  0.5642  0.0267 -0.7616
18187SOL    HW157963   2.083   6.108   5.541  0.5748  0.6072  2.2481
18187SOL    HW257964   2.019   5.992   5.613 -0.8312 -1.0716 -1.4703
18188SOL     OW57965   7.122   6.652   0.285  0.4646  0.0870 -0.4667
18188SOL    HW157966   7.027   6.659   0.279  0.1992  0.9418  2.7975
18188SOL    HW257967   7.154   6.737   0.253 -0.1406  1.0196  1.2816
18189SOL     OW57968   4.276   6.332   3.961  0.3484 -0.2462  0.8086
18189SOL    HW157969   4.187   6.365   3.945  0.4747 -0.1459  0.3136
18189SOL    HW257970   4.317   6.399   4.016  0.7881  0.7228 -0.6488
18190SOL     OW57971   0.523   8.160   4.736 -0.6556  0.1765  0.8110
18190SOL    HW157972   0.580   8.213   4.680  0.0660 -0.2284  1.1390
18190SOL    HW257973   0.514   8.211   4.816 -1.3999  0.5955  0.4639
18191SOL     OW57974   4.879   8.772   6.546  0.6165  0.6073 -0.4690
18191SOL    HW157975   4.919   8.799   6.629 -0.9446 -1.3150  1.0232
18191SOL    HW257976   4.822   8.845   6.522  0.1550  0.6993  0.8281
18192SOL     OW57977   2.500   0.791   6.844  0.6203 -0.5059 -0.0951
18192SOL    HW157978   2.470   0.701   6.857  1.9580 -0.9470  0.0353
18192SOL    HW257979   2.440   0.827   6.779 -1.8203 -0.5181  1.9797
18193SOL     OW57980   5.059   3.419   2.030  0.5675 -0.1670  0.0142
18193SOL    HW157981   5.103   3.504   2.033 -0.6817  0.5130 -0.2458
18193SOL    HW257982   5.082   3.383   1.944 -0.1727  0.6376 -0.5382
18194SOL     OW57983   4.618   1.195   9.364 -0.0372 -0.0191 -0.3842
18194SOL    HW157984   4.595   1.278   9.405  0.2774 -0.7953  1.4734
18194SOL    HW257985   4.556   1.132   9.401  0.3490 -0.7888 -1.0126
18195SOL     OW57986   4.304   8.383   3.311  0.2940  0.2995  0.3343
18195SOL    HW157987   4.282   8.473   3.286  1.6113  0.8227  0.9392
18195SOL    HW257988   4.344   8.346   3.232  1.0537  0.7325  0.5005
18196SOL     OW57989   1.082   1.868   0.744 -0.5740 -0.1572  0.5200
18196SOL    HW157990   1.170   1.869   0.782  0.1621 -1.6888 -1.0100
18196SOL    HW257991   1.023   1.858   0.820  0.8307 -3.2436  1.3908
18197SOL     OW57992   1.226   0.465   0.786  0.0737 -0.1480  0.4000
18197SOL    HW157993   1.152   0.408   0.807  0.2465 -0.8419 -0.7673
18197SOL    HW257994   1.206   0.547   0.831 -0.8757 -0.6640  0.9732
18198SOL     OW57995   2.748   4.362   4.073  0.3162 -0.7987  1.0289
18198SOL    HW157996   2.809   4.422   4.029 -0.0496 -0.9073  0.3537
18198SOL    HW257997   2.683   4.341   4.006  1.1926 -3.0570  0.8029
18199SOL     OW57998   5.665   6.735   1.165  0.5694  0.0177 -0.1799
18199SOL    HW157999   5.643   6.662   1.107 -1.7866  0.6142 -0.1239
18199SOL    HW258000   5.585   6.787   1.171  0.7700  0.1894  3.3147
18200SOL     OW58001   4.255   2.151   3.849  0.0530  0.5590  0.0244
18200SOL    HW158002   4.307   2.210   3.903  1.3226  0.8280 -1.4087
18200SOL    HW258003   4.319   2.088   3.814 -0.6728  0.4738 -1.2348
18201SOL     OW58004   5.305   0.786   5.032 -0.4951 -0.2429 -0.0867
18201SOL    HW158005   5.356   0.778   4.952  0.0627  1.2587  0.0775
18201SOL    HW258006   5.344   0.723   5.092  0.9469  0.5911 -0.0992
18202SOL     OW58007   5.572   8.651   0.004  0.2297 -0.3007  0.2928
18202SOL    HW158008   5.484   8.687   0.013  0.8800  2.1274 -1.7580
18202SOL    HW258009   5.611   8.663   0.091 -0.6809  1.0081  0.5608
18203SOL     OW58010   7.987   4.880   4.469  0.6268 -0.0905 -0.1344
18203SOL    HW158011   8.077   4.905   4.491  0.8452  0.3010 -1.3858
18203SOL    HW258012   7.981   4.895   4.375  0.0457 -2.6153 -0.5500
18204SOL     OW58013   7.203   5.483   8.836  0.2366 -0.5206 -0.5647
18204SOL    HW158014   7.172   5.516   8.752  0.9930 -0.8798 -0.9984
18204SOL    HW258015   7.238   5.560   8.881  0.1343 -0.3859 -0.7151
18205SOL     OW58016   6.326   5.865   4.095 -0.1431  0.8564 -0.0161
18205SOL    HW158017   6.306   5.907   4.179  1.1810  2.4421 -0.4479
18205SOL    HW258018   6.321   5.935   4.031  1.1006  0.1501 -0.9312
18206SOL     OW58019  10.415   5.249  10.067 -0.8132 -0.0771 -0.1606
18206SOL    HW158020  10.323   5.272  10.056 -0.2896  3.0420  1.0617
18206SOL    HW258021  10.415   5.182  10.136 -2.1327 -0.0282 -0.0950
18207SOL     OW58022   9.797   0.052   5.174 -0.6958  0.3350  0.0269
18207SOL    HW158023   9.730   0.113   5.204 -0.9330  0.1659 -0.1533
18207SOL    HW258024   9.877   0.081   5.217 -0.8962  0.5036  0.2851
18208SOL     OW58025   1.127   6.542   0.510  0.4442 -0.2504  0.3957
18208SOL    HW158026   1.137   6.579   0.422  2.0596 -0.2253  0.5550
18208SOL    HW258027   1.147   6.449   0.499  1.0325 -0.1739  0.7910
18209SOL     OW58028   3.672   3.124   6.553 -0.1697 -0.4355 -0.0264
18209SOL    HW158029   3.692   3.083   6.469  0.5535  0.2772 -0.2210
18209SOL    HW258030   3.710   3.065   6.619 -0.3232 -0.7548 -0.2237
18210SOL     OW58031   9.514   3.612   3.001  0.2545 -0.3218  0.3279
18210SOL    HW158032   9.576   3.621   2.928  0.7397  0.3846  0.8113
18210SOL    HW258033   9.501   3.517   3.010 -0.9924 -0.3975 -1.6332
18211SOL     OW58034   9.651  10.064   5.416  0.1863 -0.1096 -0.1126
18211SOL    HW158035   9.672  10.024   5.332 -0.3949  1.0514 -0.8433
18211SOL    HW258036   9.708  10.141   5.421  0.2986 -0.2296  0.6206
18212SOL     OW58037   2.736   2.845   9.974 -0.0302  0.2502  0.3750
18212SOL    HW158038   2.803   2.890  10.024 -1.3053  0.6141  1.8524
18212SOL    HW258039   2.691   2.914   9.925 -0.2047  0.2064  0.4713
18213SOL     OW58040   9.974   2.070   6.811  0.4360  0.2476 -0.3228
18213SOL    HW158041   9.977   2.161   6.781 -0.3551  0.3908  0.0044
18213SOL    HW258042   9.881   2.049   6.814  0.6160 -0.6146 -0.4984
18214SOL     OW58043   4.637   4.953   3.775  0.0799 -0.3049 -0.0972
18214SOL    HW158044   4.596   4.987   3.696 -1.3871  3.0462  1.8501
18214SOL    HW258045   4.692   5.025   3.806  0.6143 -1.4782  1.8889
18215SOL     OW58046   6.576   9.964   4.872 -0.1234  0.3803  0.1627
18215SOL    HW158047   6.521  10.033   4.909 -1.2039 -1.0734  1.3807
18215SOL    HW258048   6.569   9.892   4.934 -0.4866 -1.5049 -1.9417
18216SOL     OW58049   1.452   1.790   5.218 -0.1451  0.5323  0.3980
18216SOL    HW158050   1.382   1.826   5.164 -2.0235  0.2289  2.4688
18216SOL    HW258051   1.487   1.866   5.265  0.3410  0.5543  0.0099
18217SOL     OW58052   3.669   8.103   9.373  0.1660 -0.2951  0.2945
18217SOL    HW158053   3.576   8.083   9.377 -0.6620  2.5684 -1.4853
18217SOL    HW258054   3.683   8.168   9.442  0.3982  0.6287 -0.5978
18218SOL     OW58055   5.414   6.200  10.235 -0.5122 -0.1599  0.1162
18218SOL    HW158056   5.455   6.275  10.194  2.8828 -2.0427 -0.2993
18218SOL    HW258057   5.360   6.161  10.166 -2.0569  1.6000  0.2520
18219SOL     OW58058  10.606   3.140   5.760 -0.2722 -0.4603 -0.1598
18219SOL    HW158059  10.666   3.214   5.762 -1.8705  0.9880  3.0460
18219SOL    HW258060  10.658   3.065   5.788  0.4146  0.4473  1.0676
18220SOL     OW58061   9.002   0.364   5.911  0.1110 -0.3627  0.1796
18220SOL    HW158062   8.975   0.429   5.976 -1.7705 -1.9407  1.0923
18220SOL    HW258063   9.094   0.349   5.929 -0.0643  0.1711  1.6423
18221SOL     OW58064   5.579   1.166  10.798  0.6418 -0.4635  0.2639
18221SOL    HW158065   5.671   1.164  10.771  0.1555 -2.5435 -1.5540
18221SOL    HW258066   5.540   1.238  10.749  0.8822 -0.8874 -0.5524
18222SOL     OW58067   7.529   5.576   6.908  0.1347 -0.3811  0.3027
18222SOL    HW158068   7.461   5.639   6.886  0.7121  0.7712  1.6413
18222SOL    HW258069   7.545   5.528   6.827 -0.0530  1.4598 -0.8786
18223SOL     OW58070   2.406   2.436   0.808 -0.3529 -0.5207 -0.2079
18223SOL    HW158071   2.329   2.458   0.756 -1.0463 -0.3843  0.8458
18223SOL    HW258072   2.384   2.352   0.848  0.5999 -1.1415 -0.9438
18224SOL     OW58073   8.470   8.045   8.391  0.6125  0.1927  0.0576
18224SOL    HW158074   8.499   7.960   8.360 -1.2949 -0.3994 -0.2699
18224SOL    HW258075   8.452   8.032   8.484 -1.1907 -0.2627 -0.3102
18225SOL     OW58076   8.807   5.548   7.258 -0.3927  0.3505  0.4383
18225SOL    HW158077   8.801   5.564   7.163 -1.2923 -0.8789  0.2616
18225SOL    HW258078   8.846   5.628   7.293  2.2167 -0.0592 -1.2583
18226SOL     OW58079   1.137   7.818   1.373  0.6656 -0.1026  0.1726
18226SOL    HW158080   1.073   7.779   1.432 -1.8925 -0.4343 -2.5909
18226SOL    HW258081   1.120   7.912   1.378 -1.2241 -0.2861 -1.6755
18227SOL     OW58082   7.987   4.081   4.245  0.1811 -0.1076 -0.4373
18227SOL    HW158083   7.930   4.031   4.186 -1.5274 -0.5783  1.4859
18227SOL    HW258084   7.949   4.169   4.245 -2.0151 -0.8999  2.4121
18228SOL     OW58085   0.998   3.504   7.008 -0.1992 -0.1839  0.1166
18228SOL    HW158086   0.918   3.468   6.969  0.0466 -2.0725  1.1858
18228SOL    HW258087   0.968   3.545   7.089 -0.1896 -0.2543  0.1566
18229SOL     OW58088   2.878   2.700  10.405 -0.0612  0.2783  0.1205
18229SOL    HW158089   2.848   2.684  10.495 -0.6471 -3.4158 -0.5783
18229SOL    HW258090   2.812   2.658  10.350  1.4690  0.4546 -1.9526
18230SOL     OW58091   9.151   1.991   6.550  0.1290 -0.1856 -0.0594
18230SOL    HW158092   9.126   1.924   6.614 -0.4962  0.4861  0.4190
18230SOL    HW258093   9.079   2.055   6.553  1.3262  1.1984  0.4800
18231SOL     OW58094   9.874   2.806   3.637  1.0134  0.0726 -0.6834
18231SOL    HW158095   9.870   2.822   3.732  1.2205  0.2118 -0.6975
18231SOL    HW258096   9.954   2.756   3.624  0.4433 -0.8592 -0.6616
18232SOL     OW58097   6.357   0.692  10.825 -0.4563 -0.7632 -0.1526
18232SOL    HW158098   6.355   0.768  10.883 -3.9525 -0.7853 -0.0390
18232SOL    HW258099   6.371   0.618  10.883 -0.9519 -0.5265  0.2763
18233SOL     OW58100  10.376  10.236   8.988 -0.8216 -0.3061  0.4079
18233SOL    HW158101  10.310  10.252   8.920 -0.2391 -0.0960 -0.1167
18233SOL    HW258102  10.354  10.298   9.058 -0.2910  0.8293 -0.4053
18234SOL     OW58103   9.601   2.684  10.709 -0.2353 -0.2426 -1.0640
18234SOL    HW158104   9.542   2.641  10.647 -0.1457 -0.6688 -0.8608
18234SOL    HW258105   9.587   2.636  10.791 -1.0330  0.8970 -0.5026
18235SOL     OW58106   8.540   1.713   2.058  0.4635 -0.2623 -0.1816
18235SOL    HW158107   8.523   1.638   2.115  0.3571 -0.3926 -0.3845
18235SOL    HW258108   8.530   1.789   2.115 -0.9356 -0.3219 -0.3094
18236SOL     OW58109   8.603   2.549   8.247  0.0428 -0.1622 -0.6493
18236SOL    HW158110   8.562   2.469   8.282 -0.3916  0.1244 -0.4846
18236SOL    HW258111   8.649   2.521   8.169 -2.3424 -0.1409 -2.1703
18237SOL     OW58112   2.370   5.530   8.328 -0.4116 -0.3258  0.1615
18237SOL    HW158113   2.280   5.534   8.362 -0.2704 -2.4484  0.9634
18237SOL    HW258114   2.423   5.567   8.398 -0.5796  0.0665  0.0827
18238SOL     OW58115   1.317   3.939   3.039 -0.5614  0.1108  0.4340
18238SOL    HW158116   1.272   3.990   2.970 -0.1666 -1.3227 -0.9423
18238SOL    HW258117   1.279   3.971   3.121 -1.6316  1.3219 -0.4844
18239SOL     OW58118   2.952   3.328   2.137  0.2784 -0.2818  0.5634
18239SOL    HW158119   2.907   3.360   2.059 -0.9996  0.3806  1.5369
18239SOL    HW258120   2.883   3.313   2.201  1.2833 -0.9411  1.5468
18240SOL     OW58121   5.666   9.177   1.356 -0.4636  0.0798 -0.1615
18240SOL    HW158122   5.583   9.133   1.339  0.1217 -0.6450 -1.3474
18240SOL    HW258123   5.643   9.269   1.366 -1.4086 -0.1066 -0.4771
18241SOL     OW58124   4.953   2.133   3.416 -0.2422 -0.2803 -0.1148
18241SOL    HW158125   5.020   2.124   3.348 -1.3291  1.5965 -1.5272
18241SOL    HW258126   4.873   2.101   3.375 -0.8214  0.4385  0.4377
18242SOL     OW58127   4.453   5.398   2.440 -0.2021 -0.3111 -0.3156
18242SOL    HW158128   4.466   5.366   2.530  1.4695 -0.9084 -0.7328
18242SOL    HW258129   4.475   5.322   2.385 -2.6185 -0.4108 -1.2416
18243SOL     OW58130   8.018   9.044   0.260  0.6149  0.6150  0.2951
18243SOL    HW158131   8.106   9.012   0.241 -0.8501 -2.0690 -3.0571
18243SOL    HW258132   7.990   8.995   0.338  1.0942 -0.7084 -0.3422
18244SOL     OW58133   4.116   5.203   0.902 -0.2106  0.0074  0.0017
18244SOL    HW158134   4.085   5.173   0.987 -1.5951  0.5779 -0.2690
18244SOL    HW258135   4.128   5.297   0.913  3.8550 -0.4444  0.7801
18245SOL     OW58136   8.336   3.977   1.238 -0.1213  0.0224 -0.6462
18245SOL    HW158137   8.386   4.001   1.316 -0.0118 -0.0757 -0.6859
18245SOL    HW258138   8.400   3.981   1.167 -0.6418  2.0088 -1.0525
18246SOL     OW58139   8.195   6.704   3.007  0.2384 -0.0739  0.0636
18246SOL    HW158140   8.268   6.703   3.069 -0.4226 -0.7934  0.8572
18246SOL    HW258141   8.213   6.778   2.949  1.1920  0.2301  0.7338
18247SOL     OW58142   1.362   8.403   4.078 -0.2419  0.4454  0.4485
18247SOL    HW158143   1.320   8.487   4.060 -1.1114 -0.6796 -3.8672
18247SOL    HW258144   1.294   8.338   4.063  1.5785 -1.2111 -1.1760
18248SOL     OW58145   3.997   8.421   2.504 -0.2127 -0.9243 -0.1519
18248SOL    HW158146   4.044   8.500   2.533 -0.3086 -0.3690 -1.4336
18248SOL    HW258147   3.980   8.373   2.584 -0.6264  0.6255  0.7400
18249SOL     OW58148   0.099   4.204   2.899 -0.5377 -0.4906  0.5296
18249SOL    HW158149   0.024   4.252   2.933  0.2291  1.9778 -1.0115
18249SOL    HW258150   0.136   4.261   2.831  2.8722 -1.4362  1.3676
18250SOL     OW58151   8.622   6.796   4.074  0.4763 -0.1987  0.1779
18250SOL    HW158152   8.622   6.701   4.057 -0.3363  0.1628 -2.1952
18250SOL    HW258153   8.692   6.830   4.019 -0.7077  0.8171 -0.7624
18251SOL     OW58154   7.074   0.530   1.462  0.1020 -0.7063  0.4013
18251SOL    HW158155   7.132   0.559   1.533  2.7220  2.3091 -2.6348
18251SOL    HW258156   7.108   0.444   1.437  0.3343 -0.9668  1.5254
18252SOL     OW58157   6.750   1.140   3.769  0.3666 -0.1610  0.3331
18252SOL    HW158158   6.787   1.229   3.771 -0.6259  0.2783 -0.2374
18252SOL    HW258159   6.728   1.122   3.861 -0.9390  0.8528  0.2482
18253SOL     OW58160   8.769   2.228   5.410 -0.0920  0.0480 -0.5304
18253SOL    HW158161   8.729   2.157   5.460 -1.6725  1.3797  0.1790
18253SOL    HW258162   8.797   2.291   5.476  0.8114  0.3489 -1.1779
18254SOL     OW58163   1.095   4.013   9.901  0.1144 -0.7675  0.0488
18254SOL    HW158164   1.114   4.097   9.858  2.5042 -1.7842 -1.0290
18254SOL    HW258165   1.073   4.037   9.991  0.4004  1.0373 -0.3243
18255SOL     OW58166   2.715   8.620   7.285  0.1412 -0.1956 -0.1330
18255SOL    HW158167   2.759   8.536   7.269  0.3105  0.1053 -1.3398
18255SOL    HW258168   2.785   8.678   7.315  0.6418  0.3013 -2.1151
18256SOL     OW58169   1.330   2.155   5.663 -0.1697  0.3469  0.9053
18256SOL    HW158170   1.255   2.205   5.632  0.0462 -0.2880 -0.7421
18256SOL    HW258171   1.296   2.101   5.734 -1.2970 -0.0097  0.1126
18257SOL     OW58172   9.565   1.626   8.496  0.6762  0.0325 -0.0942
18257SOL    HW158173   9.497   1.688   8.469 -1.0654 -2.5229 -1.9365
18257SOL    HW258174   9.642   1.651   8.444  0.3701  1.2546 -0.0070
18258SOL     OW58175   9.373   4.514  10.307  0.2150  0.5499  0.0024
18258SOL    HW158176   9.282   4.490  10.326  0.9895 -2.0569  0.8287
18258SOL    HW258177   9.421   4.492  10.386  1.5638  2.3133 -0.2461
18259SOL     OW58178   2.521   3.116   4.554 -0.2319 -0.0074 -0.0432
18259SOL    HW158179   2.503   3.088   4.643 -3.1114  1.1877 -0.1353
18259SOL    HW258180   2.538   3.035   4.506 -1.4707 -0.9472  1.0431
18260SOL     OW58181   0.849   9.944   0.807 -0.1185  0.7204 -0.3735
18260SOL    HW158182   0.768   9.991   0.827  0.3367  1.2298  0.3161
18260SOL    HW258183   0.918   9.998   0.843  0.4186 -0.5225  0.5472
18261SOL     OW58184   9.362   8.860   4.927 -0.0599  0.3658 -0.2474
18261SOL    HW158185   9.337   8.856   4.835 -0.1426 -0.0572 -0.2081
18261SOL    HW258186   9.457   8.873   4.925  0.1536 -1.0491 -0.4032
18262SOL     OW58187   0.265   2.142   5.447  0.3593  0.4259 -0.1008
18262SOL    HW158188   0.305   2.229   5.451 -0.6586  0.9633 -0.9758
18262SOL    HW258189   0.171   2.159   5.435  0.4223 -0.7091 -3.3100
18263SOL     OW58190   6.995   7.337   2.566  0.0117  0.1673  0.2933
18263SOL    HW158191   7.014   7.260   2.619  0.2462 -0.0427 -0.0954
18263SOL    HW258192   7.079   7.383   2.558  0.7256 -1.4076 -2.4690
18264SOL     OW58193   4.181  10.239   6.688  0.1731 -0.1250  0.2148
18264SOL    HW158194   4.190  10.292   6.767  0.2567  0.4135 -0.1519
18264SOL    HW258195   4.252  10.267   6.631  0.7027 -1.1862  0.3144
18265SOL     OW58196  10.413   2.993   4.533 -0.0499  0.4482 -0.2845
18265SOL    HW158197  10.405   3.048   4.455 -2.3421 -1.4595 -1.5507
18265SOL    HW258198  10.462   2.916   4.503 -1.8087 -0.7619 -0.1999
18266SOL     OW58199   2.066   5.992   6.269 -0.1940  0.7883 -0.3489
18266SOL    HW158200   2.139   5.946   6.310  0.2506  0.0642 -1.8626
18266SOL    HW258201   2.107   6.056   6.211 -0.8065  2.2553  0.7763
18267SOL     OW58202   4.709   3.027   4.354 -0.2439  0.2757  0.0140
18267SOL    HW158203   4.624   3.009   4.316 -0.3638 -1.6148  1.0587
18267SOL    HW258204   4.696   3.018   4.449  1.2370 -0.8889  0.1635
18268SOL     OW58205   6.504   0.913   7.041  0.2807  0.4149 -0.0928
18268SOL    HW158206   6.582   0.859   7.051  0.9726  0.5820 -3.4741
18268SOL    HW258207   6.435   0.851   7.019 -0.0195  0.4973  0.5936
18269SOL     OW58208   2.698   3.888   3.227 -0.0724  0.1580 -0.2076
18269SOL    HW158209   2.771   3.859   3.174 -0.5489  1.1151 -1.4234
18269SOL    HW258210   2.634   3.817   3.221  0.1014  0.0228 -0.4671
18270SOL     OW58211  10.009   8.529   7.171  0.3730  0.0803  0.0118
18270SOL    HW158212  10.017   8.617   7.207 -0.2039 -0.1380  0.6820
18270SOL    HW258213  10.003   8.472   7.247 -1.6625 -0.3165 -0.3935
18271SOL     OW58214   9.215   8.273   6.697 -0.2881  0.0723  0.6543
18271SOL    HW158215   9.296   8.321   6.712 -0.3558  0.6400 -0.6760
18271SOL    HW258216   9.240   8.181   6.705  0.0441  0.2729  2.2508
18272SOL     OW58217   4.252   1.449   7.318 -0.2112 -0.4756 -0.1405
18272SOL    HW158218   4.191   1.401   7.263  0.5767 -1.5407 -0.1250
18272SOL    HW258219   4.258   1.398   7.399 -0.0950  0.1810  0.2794
18273SOL     OW58220   0.813  10.089   6.399 -0.0440 -0.3351  0.3502
18273SOL    HW158221   0.780  10.014   6.449 -0.7379  0.8388  1.7059
18273SOL    HW258222   0.866  10.138   6.461  1.2034 -0.1817 -0.7905
18274SOL     OW58223   2.119   8.290  10.742  0.1496  0.1119 -0.4065
18274SOL    HW158224   2.188   8.238  10.701  1.8779  0.5128  1.7706
18274SOL    HW258225   2.100   8.243  10.824  0.5971  1.9814  0.8235
18275SOL     OW58226   1.573   8.163   4.174 -0.5673 -0.2448  0.7904
18275SOL    HW158227   1.634   8.159   4.100  0.0393 -2.1277  1.3272
18275SOL    HW258228   1.487   8.174   4.134 -0.2274 -1.0293 -0.2148
18276SOL     OW58229   9.036  10.293   9.022  0.1181  0.6259  0.1253
18276SOL    HW158230   9.035  10.367   9.082 -2.9462  2.2538 -1.6791
18276SOL    HW258231   9.054  10.332   8.937 -1.3192 -0.6896 -0.8313
18277SOL     OW58232  10.747   7.546   2.544 -0.0431  0.4503 -0.1157
18277SOL    HW158233  10.798   7.621   2.512  1.8672 -0.7693 -0.0497
18277SOL    HW258234  10.750   7.554   2.639  0.0628  0.3542 -0.1108
18278SOL     OW58235   4.450   5.408   3.360 -0.2084  0.0005 -0.6816
18278SOL    HW158236   4.499   5.424   3.440 -0.8470  0.5814 -0.3883
18278SOL    HW258237   4.436   5.495   3.323 -2.0585  0.0034 -0.1034
18279SOL     OW58238   4.297   0.562   6.493  0.1703  0.4728  0.1433
18279SOL    HW158239   4.374   0.517   6.527  0.4483 -0.2963 -1.4427
18279SOL    HW258240   4.331   0.641   6.451 -0.1331  1.1911  1.1868
18280SOL     OW58241   1.708   1.743   5.578 -0.3558  0.2588  0.4387
18280SOL    HW158242   1.693   1.691   5.499 -1.8967 -0.5268  1.1868
18280SOL    HW258243   1.628   1.795   5.587  0.3284  1.2687  0.8090
18281SOL     OW58244   0.689   7.955   8.722  0.7199  0.1357 -0.8204
18281SOL    HW158245   0.636   7.929   8.797  1.2710  2.2156  0.3735
18281SOL    HW258246   0.626   7.975   8.653 -0.1878  2.7400  0.6196
18282SOL     OW58247   5.674   7.847   1.719  0.5704  0.2193  0.4377
18282SOL    HW158248   5.719   7.932   1.723 -1.5570  1.5492 -1.1224
18282SOL    HW258249   5.615   7.848   1.795  1.6915 -0.6345  1.3489
18283SOL     OW58250   0.993   5.151   8.524 -0.3792 -0.4005  0.3810
18283SOL    HW158251   1.055   5.085   8.493  0.5764 -0.4786  2.3149
18283SOL    HW258252   0.929   5.101   8.576 -0.2363  0.0575  1.0063
18284SOL     OW58253   9.913   5.154  10.733 -0.6117  0.5759 -0.6142
18284SOL    HW158254   9.950   5.231  10.690 -0.7294  1.1001  0.2042
18284SOL    HW258255   9.968   5.140  10.810 -0.3220 -0.4366 -0.9731
18285SOL     OW58256   1.006   0.918   1.277  0.3323  0.1358  0.5901
18285SOL    HW158257   1.000   0.853   1.207 -1.2222 -0.2233  1.0284
18285SOL    HW258258   1.079   0.975   1.251 -1.2511  1.0427 -2.1820
18286SOL     OW58259   2.409   2.813   4.852 -0.2296 -0.7810  0.6764
18286SOL    HW158260   2.425   2.749   4.784 -1.3482 -0.9965  0.5902
18286SOL    HW258261   2.313   2.819   4.857 -0.1544 -0.1252  1.6162
18287SOL     OW58262   3.984   7.005   0.119 -0.4230  0.1238 -0.0484
18287SOL    HW158263   3.979   6.955   0.037 -1.4454 -0.6643  0.4761
18287SOL    HW258264   3.967   6.941   0.188  0.2014  0.8190  0.7825
18288SOL     OW58265   4.694   5.539   5.698  0.5778  0.3016 -0.1186
18288SOL    HW158266   4.646   5.549   5.780 -0.4699 -1.0129 -0.5262
18288SOL    HW258267   4.629   5.557   5.630  1.0860  0.1012 -0.6673
18289SOL     OW58268   7.942   8.158   9.054 -0.9395 -0.0242  0.6359
18289SOL    HW158269   7.976   8.070   9.035 -1.1781  0.1923 -1.0053
18289SOL    HW258270   7.848   8.151   9.037 -0.5618  1.2602 -2.8739
18290SOL     OW58271   4.309   8.751  10.001 -0.2897  0.3093  0.9071
18290SOL    HW158272   4.279   8.661   9.988  0.9925  0.1225 -1.4127
18290SOL    HW258273   4.289   8.770  10.092 -1.0089 -2.1605  1.3519
18291SOL     OW58274   8.246   9.814   4.922  0.0320 -0.5435  0.0371
18291SOL    HW158275   8.260   9.889   4.980  0.3060 -0.1892 -0.4796
18291SOL    HW258276   8.291   9.741   4.966 -0.3144 -0.4322  0.5891
18292SOL     OW58277   4.718   8.036   9.609  0.5396  0.3245  0.1410
18292SOL    HW158278   4.753   8.107   9.662 -0.0506  0.1776  0.7333
18292SOL    HW258279   4.704   8.076   9.523  1.0888  0.6770  0.2099
18293SOL     OW58280   8.036   3.837   5.160  0.6498  0.7684  0.1768
18293SOL    HW158281   7.996   3.813   5.244 -1.9294  1.1771 -0.8441
18293SOL    HW258282   8.085   3.917   5.179 -1.8236  2.2146  0.9092
18294SOL     OW58283   9.169   0.229  10.706  0.2004  0.2419 -0.7255
18294SOL    HW158284   9.134   0.279  10.779 -0.4125  0.2969 -1.0535
18294SOL    HW258285   9.101   0.164  10.686  1.4508 -1.5375  0.4608
18295SOL     OW58286   5.657  10.321   6.760 -0.6665 -0.0160  0.1011
18295SOL    HW158287   5.616  10.362   6.684  0.6143  0.6196 -0.2685
18295SOL    HW258288   5.669  10.229   6.734 -0.0701  0.2351 -0.5540
18296SOL     OW58289   7.075   1.011   7.148 -0.5421 -0.5131 -0.6873
18296SOL    HW158290   7.048   1.033   7.238 -0.6562 -2.0447 -0.3266
18296SOL    HW258291   7.043   0.922   7.135  1.1685 -1.0240 -1.5756
18297SOL     OW58292   6.553   4.879   0.700  0.1189 -0.2907  0.3577
18297SOL    HW158293   6.600   4.838   0.627  0.1272  0.1384  0.1176
18297SOL    HW258294   6.472   4.912   0.660  1.7909  3.4307 -0.4022
18298SOL     OW58295   5.299   9.427   4.914 -0.6221  0.1275 -0.0268
18298SOL    HW158296   5.356   9.360   4.876  0.1441  0.1783  0.9980
18298SOL    HW258297   5.215   9.382   4.927 -0.3745 -0.3857 -0.1622
18299SOL     OW58298   9.566   0.497  10.823 -0.0228 -0.2798 -0.3571
18299SOL    HW158299   9.476   0.481  10.852 -0.4230  0.3790 -1.2168
18299SOL    HW258300   9.611   0.527  10.902 -0.8738  0.5940 -0.1854
18300SOL     OW58301   7.730   7.098   3.121 -0.5839  0.0680 -0.6093
18300SOL    HW158302   7.814   7.141   3.104 -0.3663  0.0880  0.4315
18300SOL    HW258303   7.734   7.018   3.068  1.6380 -1.7402  1.9760
18301SOL     OW58304   4.280   1.274   7.553  0.0963 -0.1179  0.5492
18301SOL    HW158305   4.251   1.183   7.549 -0.2244 -0.1199  2.3079
18301SOL    HW258306   4.256   1.304   7.641  1.1860  1.3317  0.4005
18302SOL     OW58307   1.495   3.638   2.019  0.2146  0.1094  0.7638
18302SOL    HW158308   1.510   3.574   2.088  0.6015  1.2068  1.7137
18302SOL    HW258309   1.452   3.712   2.062  0.3154  0.7538 -0.1950
18303SOL     OW58310   9.226   5.893   5.002  0.0909  0.2531 -0.2815
18303SOL    HW158311   9.210   5.970   5.056 -0.5287  0.0828 -0.2085
18303SOL    HW258312   9.219   5.925   4.912  0.0665  0.3305 -0.2524
18304SOL     OW58313   4.190  10.194   7.074 -0.0388 -0.1709 -0.7786
18304SOL    HW158314   4.245  10.208   7.151 -0.9091  0.0050 -0.1681
18304SOL    HW258315   4.194  10.277   7.027 -0.4701  0.1552 -0.2639
18305SOL     OW58316   8.163   8.867   4.648  0.2898 -0.4282  0.0592
18305SOL    HW158317   8.208   8.840   4.727 -0.1662 -1.4397 -0.0075
18305SOL    HW258318   8.230   8.911   4.595  0.8248 -0.6027  0.5895
18306SOL     OW58319   1.199   9.914   2.616 -0.0900 -0.0245  0.2079
18306SOL    HW158320   1.121   9.968   2.621  0.0758  0.1962  0.4193
18306SOL    HW258321   1.191   9.867   2.533  0.4667  1.3886 -0.6638
18307SOL     OW58322   2.561  10.115   4.436 -0.4481 -0.0817  0.3080
18307SOL    HW158323   2.638  10.144   4.484  0.7779 -0.5549 -1.2899
18307SOL    HW258324   2.535  10.033   4.478  1.2062 -1.0200 -0.3964
18308SOL     OW58325   4.767   3.521   0.954 -0.5981  0.0436 -0.1059
18308SOL    HW158326   4.848   3.551   0.913 -0.1235  1.3536  1.6336
18308SOL    HW258327   4.705   3.593   0.941 -0.8372 -0.0758  0.3287
18309SOL     OW58328   4.583   9.047  10.264  0.0331 -0.3826 -0.6227
18309SOL    HW158329   4.669   9.085  10.243 -0.2683  0.9387  0.4571
18309SOL    HW258330   4.542   9.035  10.178  0.6940  0.4253 -1.0780
18310SOL     OW58331   9.532   2.996   1.325 -0.6293  0.2866 -0.2444
18310SOL    HW158332   9.449   2.999   1.373 -0.1598  0.2642  0.5891
18310SOL    HW258333   9.595   3.041   1.382 -0.1468  0.6353 -1.0334
18311SOL     OW58334  10.176   3.633   0.601  0.3176 -0.8127  0.1668
18311SOL    HW158335  10.139   3.545   0.607  1.7714 -1.4134  0.6274
18311SOL    HW258336  10.271   3.621   0.608  0.8847  0.4367 -3.3324
18312SOL     OW58337   9.035   6.883   1.447 -0.0318  0.1718 -0.2981
18312SOL    HW158338   9.093   6.943   1.494 -0.3931 -0.1090  0.5146
18312SOL    HW258339   8.973   6.852   1.513  1.0614 -2.2712 -0.3027
18313SOL     OW58340   6.814   7.817   3.984 -0.0763  0.4306 -0.5427
18313SOL    HW158341   6.847   7.879   3.919 -1.3353  1.4157 -0.2839
18313SOL    HW258342   6.888   7.758   4.001  0.0683 -0.2996 -3.3365
18314SOL     OW58343   3.816   8.789   4.895  0.3178  0.6376 -0.1686
18314SOL    HW158344   3.906   8.801   4.925  0.6249 -1.2402 -0.1996
18314SOL    HW258345   3.824   8.761   4.804 -0.3117  0.8794 -0.3025
18315SOL     OW58346   3.401   0.738   2.128 -0.1991  0.1389  0.3342
18315SOL    HW158347   3.391   0.711   2.037  0.2548  0.5636  0.1528
18315SOL    HW258348   3.442   0.825   2.123  0.8626 -0.3082  0.9572
18316SOL     OW58349   6.014   4.469   0.397  0.1128  0.0364  0.0017
18316SOL    HW158350   5.981   4.541   0.342  1.4332 -1.0463 -2.3551
18316SOL    HW258351   5.937   4.415   0.414 -0.6680  1.3388  0.8022
18317SOL     OW58352  10.836   6.762   4.091 -0.4320 -0.3070  0.6037
18317SOL    HW158353  10.885   6.708   4.029 -2.1184 -2.0017  0.6353
18317SOL    HW258354  10.788   6.824   4.036  1.6805  1.4294  0.5792
18318SOL     OW58355   1.922   1.296  10.902 -0.9078  0.0789 -0.1585
18318SOL    HW158356   1.907   1.252  10.985  1.0596 -1.7712 -0.6855
18318SOL    HW258357   2.004   1.259  10.869 -1.1435  1.3992 -2.5069
18319SOL     OW58358   3.102   3.378   0.112 -0.4703  0.3864 -0.0710
18319SOL    HW158359   3.139   3.344   0.194 -3.2805  0.2184  1.2324
18319SOL    HW258360   3.075   3.467   0.134  0.8440  1.2054 -1.5708
18320SOL     OW58361   5.569   8.946   9.305  0.3037 -0.0523 -0.4008
18320SOL    HW158362   5.566   9.041   9.317 -0.4290 -0.2746  1.5221
18320SOL    HW258363   5.659   8.922   9.326  0.2029  0.1210  0.2805
18321SOL     OW58364   3.821   4.922   9.717 -0.1354 -0.3206 -0.3132
18321SOL    HW158365   3.899   4.972   9.739 -1.9667  2.8178 -0.2819
18321SOL    HW258366   3.846   4.871   9.640  2.6079 -1.4681  1.2026
18322SOL     OW58367   1.572  10.218   7.466  0.5207  0.3345  0.0932
18322SOL    HW158368   1.573  10.253   7.555 -3.6299 -0.1326  0.5275
18322SOL    HW258369   1.563  10.295   7.410 -0.2833  0.4546  0.3767
18323SOL     OW58370   5.368   6.797   2.355  0.3419  0.1546 -0.1381
18323SOL    HW158371   5.279   6.772   2.379  0.3447  1.1660  1.0241
18323SOL    HW258372   5.381   6.883   2.397  1.6542  0.2927 -0.7794
18324SOL     OW58373   7.876   8.651   9.327  0.0237  1.0369 -0.2410
18324SOL    HW158374   7.904   8.742   9.332 -1.7498  1.5941  0.1994
18324SOL    HW258375   7.827   8.645   9.245 -2.2340  1.2283  1.0250
18325SOL     OW58376   4.104   6.141   2.553 -0.3609 -0.1187 -0.2873
18325SOL    HW158377   4.050   6.129   2.475 -0.8165  2.4294 -0.4502
18325SOL    HW258378   4.174   6.075   2.544 -2.2482 -2.1574 -1.0742
18326SOL     OW58379  10.680   9.568   6.074 -0.0512 -0.0641  0.5382
18326SOL    HW158380  10.625   9.492   6.057  1.8332 -1.6519  1.0898
18326SOL    HW258381  10.625   9.629   6.122 -1.8233 -0.7593 -0.5325
18327SOL     OW58382   0.539   6.786   4.064  0.1672  0.3532  0.3838
18327SOL    HW158383   0.527   6.697   4.033  0.4490  0.4201  0.0818
18327SOL    HW258384   0.565   6.836   3.987  0.1203  0.6754  0.5718
18328SOL     OW58385   6.061   1.634   5.843 -0.1772  0.0834 -0.2898
18328SOL    HW158386   6.054   1.560   5.782 -0.6980 -0.5867  0.5587
18328SOL    HW258387   6.119   1.602   5.912  2.3908  1.6542 -1.5688
18329SOL     OW58388   3.819   5.317   1.247  0.0592  0.0371  0.4010
18329SOL    HW158389   3.813   5.385   1.315 -0.8810 -0.8135  1.1919
18329SOL    HW258390   3.827   5.235   1.296  1.5149 -0.4188 -0.5428
18330SOL     OW58391  10.053   2.894   9.546 -0.1443 -0.0183  0.7058
18330SOL    HW158392  10.101   2.940   9.614  1.7104 -0.9217  0.0713
18330SOL    HW258393  10.016   2.817   9.590  0.8691 -0.4861  0.7605
18331SOL     OW58394  10.147   5.551   7.260 -0.7998  0.2419  0.0379
18331SOL    HW158395  10.121   5.639   7.286  1.3088  0.6236  1.0879
18331SOL    HW258396  10.209   5.564   7.189  0.0727 -0.3123  0.6651
18332SOL     OW58397   4.839   0.333   7.955  0.2955 -0.0900  0.4677
18332SOL    HW158398   4.920   0.345   8.005  0.5824 -0.0661 -0.0009
18332SOL    HW258399   4.792   0.264   8.002  0.3719  0.2154  1.0085
18333SOL     OW58400   0.473   4.603   4.258 -0.3578  0.1079 -0.0257
18333SOL    HW158401   0.524   4.539   4.308 -0.5506  0.1375  0.2081
18333SOL    HW258402   0.447   4.669   4.322  1.0257  1.1887 -0.5164
18334SOL     OW58403   2.116   2.537  10.127  0.2527  0.2967 -0.1328
18334SOL    HW158404   2.090   2.624  10.159  0.4703  1.0222 -1.8468
18334SOL    HW258405   2.180   2.506  10.191  0.0666  1.3290  0.5773
18335SOL     OW58406   4.760   0.289  10.459 -0.2706 -0.0966 -0.0698
18335SOL    HW158407   4.720   0.349  10.396 -0.6706 -0.8493 -0.5498
18335SOL    HW258408   4.722   0.314  10.543  0.2317  0.8882 -0.1273
18336SOL     OW58409   9.692   9.973   8.173 -0.4156 -0.2809  0.1289
18336SOL    HW158410   9.690   9.933   8.259  0.2760 -1.2093 -0.2694
18336SOL    HW258411   9.616   9.936   8.127 -0.2421 -0.5179  0.0312
18337SOL     OW58412   6.929   0.108   5.103  0.4973  0.2139  0.1043
18337SOL    HW158413   6.981   0.171   5.054  1.1503 -1.3395 -1.2715
18337SOL    HW258414   6.838   0.127   5.077  0.7901 -0.2318 -1.3473
18338SOL     OW58415   7.844   4.766   2.931 -0.5753 -0.0465  0.1106
18338SOL    HW158416   7.781   4.769   2.859 -0.6168 -0.9432  0.0980
18338SOL    HW258417   7.880   4.678   2.928  0.9148  0.5395 -0.0722
18339SOL     OW58418   7.739   9.206   0.528 -0.0722  0.0086  0.1770
18339SOL    HW158419   7.732   9.150   0.605  0.9611  1.6823  1.5578
18339SOL    HW258420   7.829   9.238   0.530 -0.7910  2.1604 -0.2152
18340SOL     OW58421   7.113   8.799   7.014  0.1774  0.1761  0.0319
18340SOL    HW158422   7.126   8.770   7.104 -2.0102  2.5807  1.2868
18340SOL    HW258423   7.037   8.749   6.983  0.8280 -0.5315 -0.4619
18341SOL     OW58424   9.166   0.694   8.110 -0.6045 -0.0732 -0.4601
18341SOL    HW158425   9.078   0.669   8.083 -0.4122  1.7181 -3.1817
18341SOL    HW258426   9.167   0.790   8.102  2.1534 -0.1407 -2.7978
18342SOL     OW58427   3.673   2.822   1.008 -0.1461 -0.0353  0.6009
18342SOL    HW158428   3.710   2.737   1.031  1.4349  0.4910  0.1524
18342SOL    HW258429   3.743   2.866   0.960 -2.3197 -0.0999 -3.0069
18343SOL     OW58430   7.577   6.222   0.539 -0.4999  0.1511  0.2447
18343SOL    HW158431   7.583   6.316   0.524  2.7256 -0.1322 -1.0397
18343SOL    HW258432   7.523   6.189   0.467 -0.2909  0.8408 -0.2316
18344SOL     OW58433   7.400   9.264   0.647  0.8507  0.5776 -0.0191
18344SOL    HW158434   7.472   9.325   0.632  1.0850 -0.0299 -1.5640
18344SOL    HW258435   7.441   9.178   0.652  0.2677  0.2337 -0.8270
18345SOL     OW58436   2.922   6.797   4.441 -0.6452  0.3558 -0.0646
18345SOL    HW158437   2.860   6.850   4.391 -1.3960 -0.1427  0.3192
18345SOL    HW258438   2.977   6.755   4.375 -0.8835  0.6031 -0.4221
18346SOL     OW58439   6.981   2.447   4.070  0.3355  0.1634  0.4006
18346SOL    HW158440   7.053   2.509   4.078 -0.2028  0.6770  1.5478
18346SOL    HW258441   6.969   2.436   3.976 -0.4812  2.9368  0.0815
18347SOL     OW58442   4.785   3.061   9.972  0.1216  0.2181  0.4340
18347SOL    HW158443   4.798   3.153   9.995 -1.9114  0.7450 -0.3045
18347SOL    HW258444   4.775   3.062   9.877 -1.6000 -0.5144  0.5796
18348SOL     OW58445   8.554  10.073   0.392 -0.0429  0.1953  0.5809
18348SOL    HW158446   8.567  10.163   0.419 -1.9612  0.5513  0.4773
18348SOL    HW258447   8.460  10.066   0.377 -0.0041 -1.9444  1.0206
18349SOL     OW58448   7.128   2.289   9.001 -0.2055  0.2947  0.2927
18349SOL    HW158449   7.171   2.226   9.058  0.7657 -0.1859 -0.9102
18349SOL    HW258450   7.065   2.237   8.951  2.8057 -0.5324 -3.0270
18350SOL     OW58451   1.456   3.842   5.582  0.2947  0.5297  0.2078
18350SOL    HW158452   1.542   3.875   5.557  0.4590 -0.0802 -0.0555
18350SOL    HW258453   1.474   3.780   5.653  0.2661 -0.8812 -0.9735
18351SOL     OW58454   2.515   3.072   5.276 -0.3906  0.4547  0.2567
18351SOL    HW158455   2.471   3.154   5.252  3.3565  2.4401 -0.6530
18351SOL    HW258456   2.460   3.003   5.239 -3.1110  2.5688  0.0317
18352SOL     OW58457   1.632   7.685   5.727  0.3377 -0.0962  0.1954
18352SOL    HW158458   1.614   7.700   5.635  2.0329  1.9231  0.0891
18352SOL    HW258459   1.673   7.599   5.730 -1.5806 -1.0812 -0.6086
18353SOL     OW58460   6.131   4.227  10.117 -0.4689  0.3441 -0.0499
18353SOL    HW158461   6.105   4.137  10.096 -2.1938  1.0047 -0.9225
18353SOL    HW258462   6.226   4.227  10.106 -0.3847 -1.4778  0.4129
18354SOL     OW58463  10.367   2.399   5.133 -0.9618 -0.1221 -0.1316
18354SOL    HW158464  10.403   2.340   5.068  0.0606  0.8715 -0.4944
18354SOL    HW258465  10.402   2.367   5.216  1.1644  1.0723 -0.5195
18355SOL     OW58466   6.416   4.027   5.182 -0.3492 -0.5193 -0.4833
18355SOL    HW158467   6.386   4.019   5.273  0.4049  0.9213 -0.0755
18355SOL    HW258468   6.370   4.104   5.149  1.4501  0.6521 -0.4019
18356SOL     OW58469   8.603   7.118   9.941  0.1340 -0.1784 -0.4749
18356SOL    HW158470   8.533   7.161   9.990 -0.2942 -1.3134 -0.0439
18356SOL    HW258471   8.589   7.144   9.850  1.8115  3.1558  0.0993
18357SOL     OW58472   7.439  10.359  10.565  0.0703 -0.2898  0.4842
18357SOL    HW158473   7.406  10.372  10.654 -2.0998  0.2777 -0.3251
18357SOL    HW258474   7.361  10.369  10.509  1.8430  3.0804 -1.7917
18358SOL     OW58475   7.314   1.362   5.630  0.2555  0.3905 -0.0227
18358SOL    HW158476   7.303   1.267   5.635 -0.7852  0.5365  0.7331
18358SOL    HW258477   7.380   1.375   5.562 -0.6287 -0.8091 -1.1421
18359SOL     OW58478   0.734   4.256   9.313  0.0511 -0.4950  0.1925
18359SOL    HW158479   0.739   4.180   9.372  0.7636  1.3591  2.7104
18359SOL    HW258480   0.743   4.332   9.371  1.6091  1.4958 -2.4019
18360SOL     OW58481   9.233   0.648   6.328 -0.0019  0.3258  0.3054
18360SOL    HW158482   9.184   0.679   6.404 -0.2108  0.3610  0.1582
18360SOL    HW258483   9.229   0.721   6.266  0.3269  0.3678  0.3320
18361SOL     OW58484   9.755   2.955   2.800  0.4780  0.1053 -0.0099
18361SOL    HW158485   9.675   2.911   2.772  1.2603  0.4190 -3.1297
18361SOL    HW258486   9.826   2.904   2.761  1.8980 -0.1874  2.7041
18362SOL     OW58487   5.114  10.476   3.852 -0.4742 -0.1082 -0.0180
18362SOL    HW158488   5.146  10.566   3.858  1.4806 -0.8666  1.7698
18362SOL    HW258489   5.055  10.466   3.927 -1.1704 -0.1901 -0.5540
18363SOL     OW58490  10.481   9.608   9.944  0.1804 -0.3201  0.1523
18363SOL    HW158491  10.426   9.588  10.020 -0.4727 -0.6326 -0.3907
18363SOL    HW258492  10.480   9.527   9.892  0.2539  0.0339 -0.4090
18364SOL     OW58493   7.883   7.233   0.310 -0.4647 -0.0428  0.5413
18364SOL    HW158494   7.967   7.218   0.354 -0.7180  1.3882  1.6046
18364SOL    HW258495   7.821   7.178   0.358 -0.5018  0.5192  1.1557
18365SOL     OW58496   8.656   0.836   1.820  0.1638 -0.7078 -0.1710
18365SOL    HW158497   8.683   0.838   1.912 -1.1512 -2.6054  0.3138
18365SOL    HW258498   8.711   0.769   1.780  0.5783 -0.0443 -0.7140
18366SOL     OW58499   8.342   2.672   1.214 -0.8604 -0.3503  0.1942
18366SOL    HW158500   8.378   2.736   1.276 -0.5669  1.7072 -1.9497
18366SOL    HW258501   8.247   2.677   1.226 -0.7749 -0.5763  1.0137
18367SOL     OW58502   9.273   6.241   4.236  0.1420  0.0430 -0.1073
18367SOL    HW158503   9.191   6.196   4.216 -0.0962  0.4811 -0.1515
18367SOL    HW258504   9.269   6.321   4.183  0.8420 -0.1838 -0.5110
18368SOL     OW58505  10.533   6.741   7.650 -0.9891 -0.3845  0.4426
18368SOL    HW158506  10.601   6.803   7.624 -1.7951 -0.3001 -1.6818
18368SOL    HW258507  10.543   6.733   7.744  0.8988  0.8739  0.4106
18369SOL     OW58508   9.675   3.272   2.445 -0.0955 -0.1519  0.1436
18369SOL    HW158509   9.686   3.198   2.385 -2.4762 -0.0058 -0.5596
18369SOL    HW258510   9.583   3.269   2.469  0.1713  1.5508  1.5272
18370SOL     OW58511   8.191   0.776   4.987  1.1081  0.0641 -0.0549
18370SOL    HW158512   8.269   0.744   5.033  1.9205  0.1242 -1.3361
18370SOL    HW258513   8.224   0.845   4.929 -0.0092  0.5585 -0.1308
18371SOL     OW58514   1.721   4.772   1.463  0.0382  0.3340  0.0705
18371SOL    HW158515   1.652   4.752   1.399 -2.0226  0.2886  2.1694
18371SOL    HW258516   1.802   4.741   1.422 -1.4911 -1.8929 -1.5029
18372SOL     OW58517   8.323  10.231   3.068 -0.6239 -0.0346 -0.1587
18372SOL    HW158518   8.351  10.237   3.159 -0.7920  1.4073 -0.1930
18372SOL    HW258519   8.274  10.311   3.051  0.2405  0.2141 -1.7927
18373SOL     OW58520   3.868   9.028   4.427 -0.2549 -0.3931 -0.1207
18373SOL    HW158521   3.809   9.055   4.356 -0.7152 -0.0406  0.3854
18373SOL    HW258522   3.919   9.106   4.446  1.3747 -1.0669 -1.4831
18374SOL     OW58523   7.924   7.837   3.593  0.2447  0.0740 -0.4095
18374SOL    HW158524   7.858   7.773   3.618  0.5243 -0.1316 -0.1902
18374SOL    HW258525   8.008   7.791   3.603  0.4899  0.6477  0.3536
18375SOL     OW58526   2.259   7.408   5.623  0.5701  0.0772  0.3407
18375SOL    HW158527   2.194   7.474   5.601  1.6235  0.9976 -0.0945
18375SOL    HW258528   2.344   7.452   5.612  1.2710 -0.9052  1.4547
18376SOL     OW58529   9.563   5.282   5.653 -0.3179  0.3834 -0.3649
18376SOL    HW158530   9.534   5.230   5.728  1.0233  2.0816  1.4256
18376SOL    HW258531   9.487   5.282   5.594 -1.6765 -0.4457  1.2716
18377SOL     OW58532   2.925   2.867   6.360 -0.1558 -0.4967  0.0456
18377SOL    HW158533   2.972   2.933   6.411 -1.1511 -0.7020  1.2619
18377SOL    HW258534   2.942   2.891   6.269  3.3281 -1.3093  0.3778
18378SOL     OW58535   1.944   2.403   6.385  0.0260 -0.2993 -0.2654
18378SOL    HW158536   2.016   2.420   6.324  0.7675  0.7046  0.8275
18378SOL    HW258537   1.956   2.468   6.455 -1.8827 -0.1892  0.0146
18379SOL     OW58538   9.457  10.680   1.552 -0.2098 -0.4736 -0.2869
18379SOL    HW158539   9.478  10.589   1.572 -0.0360 -0.4161 -0.2044
18379SOL    HW258540   9.505  10.698   1.471 -1.4384 -0.9084 -1.1424
18380SOL     OW58541   1.602   8.166   8.709 -0.0518  0.2591 -0.0226
18380SOL    HW158542   1.586   8.189   8.618  1.1216  0.4332 -0.2046
18380SOL    HW258543   1.656   8.087   8.704 -0.7262 -0.2546  0.5438
18381SOL     OW58544   1.234   8.681   2.650 -0.6882  0.1917  0.3332
18381SOL    HW158545   1.287   8.659   2.727 -0.4016 -0.0294  0.0746
18381SOL    HW258546   1.289   8.741   2.600 -0.7429  0.0839  0.1433
18382SOL     OW58547   0.150   0.333   5.279  0.4606 -0.1240  0.2743
18382SOL    HW158548   0.149   0.237   5.281 -1.2043 -0.4351 -4.1907
18382SOL    HW258549   0.058   0.358   5.286  0.9109  1.2913  1.8596
18383SOL     OW58550   5.346   6.804   8.481 -0.2939  0.6871 -0.5975
18383SOL    HW158551   5.302   6.887   8.501 -1.6108 -0.5728  2.4246
18383SOL    HW258552   5.430   6.810   8.527 -1.5783 -0.6302  2.1072
18384SOL     OW58553   5.417   8.263   0.600 -0.0041  0.0800  0.4570
18384SOL    HW158554   5.465   8.326   0.654 -0.6249  0.2243  0.8552
18384SOL    HW258555   5.468   8.182   0.606  2.2246  1.1626 -2.1263
18385SOL     OW58556   0.939   8.540   0.119  0.4084 -0.4123 -0.1396
18385SOL    HW158557   0.976   8.463   0.162 -0.1902 -0.0229  1.1238
18385SOL    HW258558   0.849   8.543   0.150 -0.1340 -0.2498 -1.6520
18386SOL     OW58559   9.747   9.417  10.622 -0.2055 -0.2152  0.6126
18386SOL    HW158560   9.664   9.460  10.600  0.5212  1.2729  0.6272
18386SOL    HW258561   9.796   9.484  10.669 -0.3788 -2.1637  3.9222
18387SOL     OW58562   3.659   3.692   6.536  0.2545  0.7323  0.0003
18387SOL    HW158563   3.595   3.626   6.564  0.7922 -0.1512 -0.8233
18387SOL    HW258564   3.727   3.643   6.491  0.7131  1.8444 -0.5632
18388SOL     OW58565   7.673   6.458  10.287  0.3344  0.2870  0.1324
18388SOL    HW158566   7.602   6.494  10.235  0.6814  0.0489 -0.5140
18388SOL    HW258567   7.746   6.450  10.226  0.9567  0.6399  0.8117
18389SOL     OW58568   7.645   0.685  10.875 -0.3627  0.0184  0.3005
18389SOL    HW158569   7.668   0.593  10.864  0.4392  0.2537 -0.0664
18389SOL    HW258570   7.564   0.683  10.926  0.7439 -0.8437  2.1410
18390SOL     OW58571   3.351   8.955   1.063 -0.2717 -0.0742 -0.0971
18390SOL    HW158572   3.276   8.984   1.011 -0.0037 -0.8984 -0.9580
18390SOL    HW258573   3.361   8.862   1.042  0.4591 -0.1860  0.6729
18391SOL     OW58574   7.425   0.666   0.154 -0.5630 -0.0740 -0.2631
18391SOL    HW158575   7.360   0.717   0.202 -1.2014 -0.8690 -0.2646
18391SOL    HW258576   7.486   0.636   0.221 -0.5754  0.1199 -0.1644
18392SOL     OW58577   9.854   9.776   2.532  0.0371  0.5035  0.2874
18392SOL    HW158578   9.926   9.714   2.546 -1.2270 -1.3478 -0.7970
18392SOL    HW258579   9.869   9.810   2.444 -0.6412 -0.3090 -0.1670
18393SOL     OW58580   7.849   9.179   5.104 -0.1819  0.0371  0.2970
18393SOL    HW158581   7.932   9.226   5.109 -0.3043  0.3442 -0.4435
18393SOL    HW258582   7.795   9.217   5.173 -0.1601  0.7550 -0.0777
18394SOL     OW58583   1.056   7.235  10.141 -0.5778 -0.3722 -0.0565
18394SOL    HW158584   1.150   7.245  10.151 -0.1883 -2.4436 -0.9760
18394SOL    HW258585   1.018   7.310  10.186  1.5300  1.1521 -0.6879
18395SOL     OW58586   7.383   3.828   9.634  0.1473  0.2612  0.6893
18395SOL    HW158587   7.473   3.817   9.603 -0.1788  0.0904 -0.2414
18395SOL    HW258588   7.381   3.917   9.670  0.4781  0.5987 -0.0902
18396SOL     OW58589   1.687   7.284   1.348 -0.1463 -0.0474  0.0079
18396SOL    HW158590   1.649   7.281   1.435 -2.9198 -2.2677 -1.1330
18396SOL    HW258591   1.678   7.376   1.321 -0.6423  0.3504  1.4673
18397SOL     OW58592   9.060   3.289   0.198 -0.7733 -0.0800 -0.0404
18397SOL    HW158593   9.093   3.242   0.275 -2.6516 -2.5945 -0.6661
18397SOL    HW258594   9.139   3.318   0.152  0.5138 -2.3557  0.5765
18398SOL     OW58595   1.290   8.249   6.726  0.4419 -0.1591 -0.4457
18398SOL    HW158596   1.194   8.249   6.735  0.4118 -0.0898 -0.7516
18398SOL    HW258597   1.305   8.285   6.639  0.7825  0.7574 -0.0188
18399SOL     OW58598   8.132   9.661   0.546 -0.5286  0.1141 -0.7770
18399SOL    HW158599   8.191   9.736   0.557 -2.1209  1.3969 -0.4976
18399SOL    HW258600   8.046   9.695   0.572 -1.1050 -2.2009  0.6472
18400SOL     OW58601   8.120   9.212   1.818  1.0319  0.3282 -0.1043
18400SOL    HW158602   8.191   9.275   1.814 -1.0483  2.8253 -0.0479
18400SOL    HW258603   8.091   9.214   1.909 -1.5301  2.3657 -0.8418
18401SOL     OW58604   9.678   0.630   5.008  0.6505  0.1867 -0.1562
18401SOL    HW158605   9.624   0.642   4.930  1.4859 -2.2801 -1.2104
18401SOL    HW258606   9.668   0.712   5.057 -1.6852  0.9433 -1.7201
18402SOL     OW58607   2.447   9.630   2.732 -0.3017  0.3199 -0.1740
18402SOL    HW158608   2.472   9.539   2.718  0.6466  0.2183  1.8569
18402SOL    HW258609   2.352   9.632   2.720 -0.2656 -0.8067 -0.7618
18403SOL     OW58610   7.066   6.087   1.426 -0.3364 -0.4772 -0.1970
18403SOL    HW158611   7.011   6.068   1.351  0.4418 -2.2072 -0.3676
18403SOL    HW258612   7.047   6.179   1.447 -1.6529 -0.4036 -1.5653
18404SOL     OW58613   1.393   9.069   8.594 -0.5843 -0.7449 -0.2011
18404SOL    HW158614   1.323   9.113   8.642  0.7309 -0.2204  1.3422
18404SOL    HW258615   1.348   9.009   8.535 -2.3467  0.3487 -0.0485
18405SOL     OW58616   8.684   6.817   1.887 -0.4863 -0.0099 -0.2049
18405SOL    HW158617   8.604   6.853   1.926 -0.6262 -0.7088  0.1576
18405SOL    HW258618   8.661   6.727   1.865 -0.0913  0.0705 -0.9865
18406SOL     OW58619   9.874   8.520   6.312 -0.2295 -0.3842  0.9032
18406SOL    HW158620   9.788   8.512   6.353 -0.6162  1.1092  0.4242
18406SOL    HW258621   9.872   8.603   6.265  0.3861 -1.7037 -1.6975
18407SOL     OW58622   6.004  10.612   0.813  0.1348 -0.2373  0.5604
18407SOL    HW158623   5.932  10.618   0.750  1.7353 -1.5599 -1.5651
18407SOL    HW258624   6.048  10.697   0.807  1.2429 -0.8837 -1.4800
18408SOL     OW58625   5.914  10.236  10.470  0.2361  0.0941  0.1782
18408SOL    HW158626   5.892  10.294  10.543  0.4043 -1.0221  1.1295
18408SOL    HW258627   5.999  10.198  10.494  0.3549 -0.1888 -0.6575
18409SOL     OW58628   9.400   4.450   9.121 -0.1076 -0.2374  0.3982
18409SOL    HW158629   9.355   4.389   9.181 -0.8601 -0.0333  0.0507
18409SOL    HW258630   9.338   4.463   9.049  0.8800 -0.6533 -0.5475
18410SOL     OW58631   9.068   4.246   9.417 -0.1113 -0.0231  0.0162
18410SOL    HW158632   9.068   4.272   9.325  0.1748  0.2794  0.0978
18410SOL    HW258633   9.031   4.322   9.463  0.0405 -0.0498  0.1824
18411SOL     OW58634   7.859   2.959   1.270 -0.1359 -0.3955  0.0707
18411SOL    HW158635   7.838   3.023   1.202 -0.6444  0.7059  1.2209
18411SOL    HW258636   7.866   2.875   1.223  0.8554  0.5306 -1.5197
18412SOL     OW58637   6.952  10.208   8.682 -0.0421 -0.2053 -0.3779
18412SOL    HW158638   6.901  10.221   8.761  0.2329  0.7120 -0.3301
18412SOL    HW258639   6.914  10.269   8.618  1.6969  1.4298  0.0270
18413SOL     OW58640   0.875   0.206   5.084  0.5460 -0.5884 -0.2443
18413SOL    HW158641   0.922   0.287   5.106 -0.8562  0.1704  0.1362
18413SOL    HW258642   0.855   0.166   5.169  0.6743 -1.0011 -0.4080
18414SOL     OW58643   9.401   3.256   6.161  0.2826  0.5535 -0.0855
18414SOL    HW158644   9.325   3.241   6.217  0.3924 -0.7483 -0.2465
18414SOL    HW258645   9.381   3.336   6.113 -1.4741 -0.3063 -0.8885
18415SOL     OW58646   4.983  10.558   1.543  0.8787  0.7707  0.6338
18415SOL    HW158647   4.967  10.487   1.606 -4.1701  0.9582  0.0042
18415SOL    HW258648   4.967  10.519   1.458  2.5930  1.7135 -0.1689
18416SOL     OW58649   9.950   9.543   6.197  0.3672 -1.4446 -0.6117
18416SOL    HW158650   9.884   9.475   6.210 -1.0634 -0.0812 -0.3268
18416SOL    HW258651   9.899   9.623   6.182  1.9726 -0.4368 -0.9709
18417SOL     OW58652   4.097   0.602   6.090 -0.1070  0.0860 -0.2084
18417SOL    HW158653   4.162   0.550   6.137  0.9631 -0.6744 -2.3816
18417SOL    HW258654   4.021   0.546   6.084  1.5372 -2.0735 -3.8591
18418SOL     OW58655   9.487   7.620   2.399 -0.0039 -0.4488  0.0761
18418SOL    HW158656   9.572   7.653   2.427 -0.3308  0.0437  0.5044
18418SOL    HW258657   9.430   7.696   2.401 -1.0926 -1.2186  2.3168
18419SOL     OW58658  10.814   1.020   8.294 -0.4693 -0.1923  0.7894
18419SOL    HW158659  10.742   0.963   8.319 -1.6479  0.7082 -0.4227
18419SOL    HW258660  10.802   1.035   8.200  2.0245 -0.9926  0.2685
18420SOL     OW58661   4.412   8.783   4.795  0.5576 -0.4240 -0.3093
18420SOL    HW158662   4.369   8.862   4.764  1.2585 -0.0324 -0.3171
18420SOL    HW258663   4.439   8.737   4.715  0.7775 -0.3144 -0.2989
18421SOL     OW58664   1.850   0.402   9.348 -0.8157 -0.0194  0.1884
18421SOL    HW158665   1.800   0.483   9.346  1.1262  1.2443 -1.8193
18421SOL    HW258666   1.926   0.422   9.402 -1.7535 -1.5224  2.1885
18422SOL     OW58667   9.573  10.366   5.143  0.6071 -0.2763 -0.4574
18422SOL    HW158668   9.658  10.325   5.158  0.7034 -0.2249 -0.8404
18422SOL    HW258669   9.594  10.449   5.100  0.4430  0.4124  0.7429
18423SOL     OW58670   0.526   4.516   3.792 -0.0911 -0.2590  1.0844
18423SOL    HW158671   0.592   4.449   3.813 -0.2555  0.0087  2.5605
18423SOL    HW258672   0.462   4.508   3.862 -1.2570 -0.0038  0.0708
18424SOL     OW58673  10.773   4.865   0.826  0.0707  0.3126  0.4750
18424SOL    HW158674  10.711   4.869   0.899  0.6626 -0.3227  1.0244
18424SOL    HW258675  10.749   4.939   0.770 -1.8625 -0.5365  0.1113
18425SOL     OW58676   3.028   4.626   4.573  0.1020  0.2028  0.1081
18425SOL    HW158677   2.967   4.641   4.645  0.5449  2.1486  0.1207
18425SOL    HW258678   3.114   4.639   4.611  0.3139  2.0827 -0.9044
18426SOL     OW58679  10.015   2.468   9.045  0.0833 -0.2742 -0.3320
18426SOL    HW158680  10.064   2.387   9.057 -0.7184 -0.7716 -0.3195
18426SOL    HW258681   9.979   2.488   9.132  2.3655  1.5280  0.3132
18427SOL     OW58682   1.561   1.935  10.132 -0.4170  0.0097  0.1403
18427SOL    HW158683   1.601   1.848  10.127 -2.4587 -0.9307 -2.2235
18427SOL    HW258684   1.580   1.975  10.047  0.1923  1.7891  1.0655
18428SOL     OW58685   3.148   5.399   0.002  0.0119  0.0631 -0.4303
18428SOL    HW158686   3.071   5.431   0.049 -0.0326 -1.8576  0.9385
18428SOL    HW258687   3.219   5.403   0.066  0.7201  0.4079 -1.2141
18429SOL     OW58688   6.402  10.689   9.655 -0.1657 -0.2922  0.8433
18429SOL    HW158689   6.484  10.669   9.700 -0.3736  0.4013  1.5629
18429SOL    HW258690   6.368  10.767   9.701 -1.5264 -0.9260  0.9606
18430SOL     OW58691  10.786   3.868   8.284 -1.0336  0.0859  0.0990
18430SOL    HW158692  10.809   3.957   8.258 -0.6424 -0.0319  0.0445
18430SOL    HW258693  10.762   3.876   8.376  1.1515 -0.1214  0.7232
18431SOL     OW58694   9.250   7.987   7.449  0.0139  0.0067 -0.3314
18431SOL    HW158695   9.304   7.908   7.442 -0.3812 -0.2960 -0.0424
18431SOL    HW258696   9.277   8.027   7.531  0.1619  0.1321 -0.4419
18432SOL     OW58697   1.386   8.040   3.421  0.0149 -0.2260  0.5207
18432SOL    HW158698   1.313   8.100   3.432  0.5472  0.4524  0.3987
18432SOL    HW258699   1.428   8.036   3.507  0.3466  0.0592  0.3733
18433SOL     OW58700   4.932   4.493   0.284  0.1825 -0.2417  0.4392
18433SOL    HW158701   4.939   4.569   0.226  1.1519 -2.4045 -2.5483
18433SOL    HW258702   5.001   4.507   0.349  1.6040  0.6163 -1.1543
18434SOL     OW58703   5.689   9.392   5.205  0.5681 -0.9940 -0.4260
18434SOL    HW158704   5.645   9.372   5.123  0.1384 -0.6098 -0.2931
18434SOL    HW258705   5.782   9.400   5.181  0.7040 -2.7037 -0.5447
18435SOL     OW58706   2.952   1.866   4.589  0.1719  0.5488  0.1068
18435SOL    HW158707   2.993   1.851   4.504 -0.4979  1.7052 -0.4514
18435SOL    HW258708   3.025   1.879   4.649  0.7540 -2.8170  0.2981
18436SOL     OW58709   5.237   2.464   9.682 -0.0306 -0.1528 -0.1177
18436SOL    HW158710   5.295   2.437   9.753  0.2657 -1.7321 -0.9026
18436SOL    HW258711   5.218   2.383   9.634 -1.1350  0.6779 -1.1724
18437SOL     OW58712   4.921   2.703   8.291 -0.4360  0.2471 -0.4839
18437SOL    HW158713   4.963   2.621   8.268 -0.7390  0.3276 -1.3520
18437SOL    HW258714   4.951   2.765   8.225 -2.4869  0.1339 -1.6153
18438SOL     OW58715   6.247   7.688   9.055  0.0369  0.1149  0.0276
18438SOL    HW158716   6.250   7.689   8.959  0.5375  1.2928  0.0397
18438SOL    HW258717   6.212   7.602   9.077 -0.3112 -0.0827 -1.2213
18439SOL     OW58718   3.945   9.889   6.486 -0.1990  0.2661  0.0082
18439SOL    HW158719   3.855   9.877   6.454 -0.2138  0.7977 -0.1548
18439SOL    HW258720   3.936   9.946   6.562 -0.1916 -1.2273  1.1825
18440SOL     OW58721   4.489  10.789   3.507  0.3722 -0.2102 -0.3258
18440SOL    HW158722   4.565  10.806   3.450 -0.6893  0.0307 -1.7252
18440SOL    HW258723   4.450  10.710   3.471  0.2980 -0.7052  0.7947
18441SOL     OW58724   6.531   2.165   3.216  0.2302  0.2081  0.0211
18441SOL    HW158725   6.521   2.100   3.146  1.5068  0.4591 -0.4191
18441SOL    HW258726   6.587   2.233   3.178  0.6382  0.5362  1.1711
18442SOL     OW58727   4.652   3.451   7.637 -0.0028 -0.1073 -0.1023
18442SOL    HW158728   4.661   3.392   7.563 -0.6316 -0.7118  0.2886
18442SOL    HW258729   4.662   3.396   7.714  2.1541  0.7540  0.3071
18443SOL     OW58730   7.214  10.387   9.519 -0.1311 -0.3656 -0.2061
18443SOL    HW158731   7.181  10.416   9.604  1.0445 -1.2936  0.5952
18443SOL    HW258732   7.141  10.339   9.480 -0.9029  0.6252 -0.0312
18444SOL     OW58733  10.846   9.388   4.593  0.4033  0.0726 -0.6140
18444SOL    HW158734  10.811   9.477   4.600  3.2956  1.1687  2.9532
18444SOL    HW258735  10.909   9.393   4.520  0.4255  0.9348 -0.5498
18445SOL     OW58736   2.844   5.588   9.278 -0.0249 -0.2862  0.6018
18445SOL    HW158737   2.906   5.581   9.350 -0.5151 -1.2015  0.9434
18445SOL    HW258738   2.843   5.501   9.238 -0.7406 -0.1496  0.3104
18446SOL     OW58739  10.349   4.375   7.564 -0.2727 -0.0243  0.0554
18446SOL    HW158740  10.345   4.467   7.590 -1.6026 -0.0273 -0.0679
18446SOL    HW258741  10.371   4.329   7.645 -2.1197  0.1819  0.7067
18447SOL     OW58742   8.439   7.345   4.787 -0.0982 -0.6536  0.0663
18447SOL    HW158743   8.500   7.356   4.860 -0.1853 -1.5413  0.2906
18447SOL    HW258744   8.400   7.258   4.802  2.0865 -2.2650 -2.6635
18448SOL     OW58745   2.303   8.122   3.118 -0.0479  0.1095  0.1787
18448SOL    HW158746   2.343   8.164   3.194  0.7104 -0.4719  0.1112
18448SOL    HW258747   2.293   8.030   3.144  2.9794 -0.7855 -1.4427
18449SOL     OW58748   4.600   2.251   6.756  0.1189  0.3454 -0.4063
18449SOL    HW158749   4.640   2.168   6.731  0.2875  0.7107 -1.3771
18449SOL    HW258750   4.583   2.241   6.850  3.1669  0.4381  0.2710
18450SOL     OW58751   3.709  10.211   8.850  0.2739 -0.0917 -0.0242
18450SOL    HW158752   3.699  10.227   8.944 -1.0239  0.3043 -0.2036
18450SOL    HW258753   3.657  10.280   8.809 -0.7973 -1.4006 -0.9650
18451SOL     OW58754   5.700   5.637   8.738 -0.4540 -0.1282  0.0549
18451SOL    HW158755   5.711   5.573   8.808  1.6890 -1.0070 -0.9827
18451SOL    HW258756   5.661   5.587   8.666 -2.2268  0.6619  0.4216
18452SOL     OW58757   6.816   2.687   5.765 -0.0990  0.4401 -0.1794
18452SOL    HW158758   6.733   2.640   5.764 -0.0276  0.2895  0.6472
18452SOL    HW258759   6.855   2.666   5.849  0.3624  1.2387 -0.1826
18453SOL     OW58760   2.272   9.094   5.843  0.4347 -0.1488 -0.2258
18453SOL    HW158761   2.189   9.104   5.889  0.9563 -0.3920  0.8140
18453SOL    HW258762   2.304   9.184   5.831  1.8909 -0.0675  3.0054
18454SOL     OW58763   8.110   5.056   5.231  0.1855 -0.2054 -0.1277
18454SOL    HW158764   8.161   5.014   5.301  2.3364  0.0061 -1.4845
18454SOL    HW258765   8.112   5.150   5.254 -1.3993 -0.3796  0.8874
18455SOL     OW58766  10.196   2.025   4.988 -0.1376 -0.8056 -0.0147
18455SOL    HW158767  10.256   2.053   4.918  0.3128  1.6950  1.2820
18455SOL    HW258768  10.115   2.073   4.971  0.4253  0.9468  1.8877
18456SOL     OW58769   0.727   3.171   2.935  0.2733  0.1348  0.2899
18456SOL    HW158770   0.693   3.118   2.863  0.1182  2.5915 -1.5904
18456SOL    HW258771   0.822   3.171   2.923  0.2770  0.2321  0.3145
18457SOL     OW58772   9.202   0.119   0.159  0.1767  0.4013 -0.1309
18457SOL    HW158773   9.196   0.191   0.221  1.9187  2.1201 -1.7997
18457SOL    HW258774   9.122   0.125   0.107 -0.3835  0.1661  0.6868
18458SOL     OW58775   1.363   5.396   6.774 -0.7320  0.3145  0.3704
18458SOL    HW158776   1.340   5.341   6.849 -0.5767 -0.4226 -0.1221
18458SOL    HW258777   1.302   5.470   6.779 -1.9614 -0.6656  0.1563
18459SOL     OW58778   4.114   8.226   3.017  0.4848 -0.1747  0.2084
18459SOL    HW158779   4.048   8.263   3.076 -0.2487 -1.2507  0.0866
18459SOL    HW258780   4.143   8.146   3.061 -1.4192 -2.0223 -1.6835
18460SOL     OW58781   7.901   5.042   6.657  0.1079  0.4398  0.2456
18460SOL    HW158782   7.994   5.056   6.638  0.1376 -0.9018 -0.7413
18460SOL    HW258783   7.897   4.952   6.690 -0.8009  0.6144  0.6462
18461SOL     OW58784   0.651   4.254   5.332  0.3132  0.0334  0.2102
18461SOL    HW158785   0.633   4.341   5.368 -0.2484 -0.4985  1.2641
18461SOL    HW258786   0.739   4.261   5.295 -0.1110  1.3179 -0.6160
18462SOL     OW58787   6.122   6.583   3.323  0.4415 -0.0455 -0.3686
18462SOL    HW158788   6.174   6.657   3.353  1.6588 -0.0786 -2.2129
18462SOL    HW258789   6.130   6.518   3.393  0.4596  1.0495  0.6767
18463SOL     OW58790   2.858   8.386   5.220 -0.0831 -0.5054 -0.4994
18463SOL    HW158791   2.945   8.410   5.253 -1.2942 -0.8936  3.6313
18463SOL    HW258792   2.874   8.338   5.139  3.2417  2.3644 -1.7642
18464SOL     OW58793   2.346   5.124   7.259  0.0134  0.7786  0.2535
18464SOL    HW158794   2.432   5.152   7.289 -0.0822 -0.1299  1.4654
18464SOL    HW258795   2.299   5.205   7.240  1.9286  1.2986 -2.9463
18465SOL     OW58796   2.016   0.966   4.068 -0.1195  0.1397 -0.0143
18465SOL    HW158797   1.997   0.908   4.142 -0.2724 -0.4992 -0.5447
18465SOL    HW258798   2.066   0.912   4.007 -2.8839 -0.4801 -1.9513
18466SOL     OW58799   2.146   6.268   7.785 -0.1271 -0.1706  0.1383
18466SOL    HW158800   2.225   6.252   7.837 -0.4483 -3.0596 -0.0668
18466SOL    HW258801   2.177   6.265   7.694 -0.3753 -0.8246  0.0692
18467SOL     OW58802   5.404   2.997   5.662  0.3117 -0.0523 -0.5220
18467SOL    HW158803   5.320   3.004   5.707  1.2704 -0.4985  1.4680
18467SOL    HW258804   5.405   2.909   5.625 -0.7468  0.5354 -2.0181
18468SOL     OW58805   5.456   6.559   0.511  0.0951  0.4114  0.2345
18468SOL    HW158806   5.439   6.465   0.503 -1.4163  0.8174 -2.4755
18468SOL    HW258807   5.551   6.567   0.497  0.6644 -0.8254  2.8211
18469SOL     OW58808   1.764   5.052   9.820  0.4211 -0.1503 -0.3553
18469SOL    HW158809   1.685   5.039   9.766 -1.4543 -0.7632  2.3522
18469SOL    HW258810   1.804   4.965   9.824 -1.1940 -0.8799  1.6767
18470SOL     OW58811   2.889   9.583   1.773 -0.8707 -0.1430 -0.0537
18470SOL    HW158812   2.944   9.662   1.776  0.3092 -0.8525 -1.6958
18470SOL    HW258813   2.855   9.575   1.862  0.2572  1.3371  0.5624
18471SOL     OW58814   5.932   6.263   9.426  0.3209  0.7360  0.0760
18471SOL    HW158815   5.867   6.288   9.360  0.0740  1.9611  0.7391
18471SOL    HW258816   5.985   6.342   9.437  0.8458  0.2905  0.7738
18472SOL     OW58817   9.458   5.916   4.291  0.0210  0.3834  0.2227
18472SOL    HW158818   9.508   5.875   4.221  0.2183  1.1578 -0.0945
18472SOL    HW258819   9.521   5.970   4.338 -0.2500  0.3742  0.6042
18473SOL     OW58820   8.947   6.400   4.935  0.8277 -0.5183 -0.2484
18473SOL    HW158821   8.953   6.384   5.030 -0.7603 -0.3025 -0.0872
18473SOL    HW258822   9.005   6.475   4.921 -0.5097  0.8088  0.9441
18474SOL     OW58823   8.140   4.959   7.029  0.0587  0.4355  0.4885
18474SOL    HW158824   8.120   5.048   7.001  0.6452  0.3252 -0.3097
18474SOL    HW258825   8.137   4.963   7.125  2.2634  1.8660  0.5595
18475SOL     OW58826   0.954   0.970   1.903 -0.2647 -0.6031 -0.1115
18475SOL    HW158827   0.974   0.951   1.812  0.3772  0.1454 -0.1319
18475SOL    HW258828   1.030   1.019   1.935  0.4082 -2.4529  1.3579
18476SOL     OW58829   1.182   2.925   0.443  0.2826 -0.3968  0.4696
18476SOL    HW158830   1.194   2.968   0.528 -1.8660 -0.4745  0.8618
18476SOL    HW258831   1.151   2.837   0.464 -2.7700  0.3689 -0.3110
18477SOL     OW58832   6.874   2.462   3.523 -0.2405 -0.1333 -0.7316
18477SOL    HW158833   6.928   2.383   3.509  0.4766 -0.2185  1.9532
18477SOL    HW258834   6.785   2.428   3.534  0.0157 -0.5831  0.0979
18478SOL     OW58835   7.192   9.667   7.805 -0.0181 -0.0921 -0.5922
18478SOL    HW158836   7.285   9.659   7.829  0.4419  1.0785 -1.8176
18478SOL    HW258837   7.189   9.746   7.751 -1.3242 -1.3548 -2.4733
18479SOL     OW58838   5.324   3.256   0.744  0.2553  0.6232  0.5454
18479SOL    HW158839   5.326   3.170   0.785 -1.4994 -0.2416 -1.0390
18479SOL    HW258840   5.235   3.288   0.758 -0.3901  0.3457 -2.3024
18480SOL     OW58841   3.202   9.762   3.011 -1.0043  0.2080  0.2095
18480SOL    HW158842   3.269   9.766   2.943  0.4469 -0.8407  1.4909
18480SOL    HW258843   3.242   9.807   3.086 -1.8728 -0.1304  0.8885
18481SOL     OW58844  10.915   4.867   7.147  0.1546  0.2863 -0.1771
18481SOL    HW158845  10.934   4.958   7.124  1.2700  0.2532  0.4974
18481SOL    HW258846  10.950   4.815   7.074  0.6451  0.3503  0.0052
18482SOL     OW58847   8.864   0.057   0.623 -0.3797  0.2551 -0.3411
18482SOL    HW158848   8.805   0.029   0.693 -0.2867  0.0957 -0.3265
18482SOL    HW258849   8.943   0.087   0.669 -0.3574  0.2457 -0.3730
18483SOL     OW58850   4.448   0.768   3.903  0.0777  0.5093  0.6735
18483SOL    HW158851   4.516   0.750   3.838  0.8980  0.3243  1.5510
18483SOL    HW258852   4.426   0.682   3.939 -2.3620  0.2452 -1.2316
18484SOL     OW58853   0.372   5.540   8.571  0.4221 -0.1403 -0.2414
18484SOL    HW158854   0.352   5.482   8.645  0.4929 -0.8187 -0.7501
18484SOL    HW258855   0.339   5.625   8.599  1.3160 -0.1688  0.9697
18485SOL     OW58856   5.133   4.480   1.750 -0.3474 -0.4851 -1.1517
18485SOL    HW158857   5.156   4.471   1.843 -1.0952 -2.0650 -1.0998
18485SOL    HW258858   5.167   4.401   1.709  0.8085  0.6268 -2.4352
18486SOL     OW58859   8.341   5.940   6.324 -0.2837 -0.2281  0.6915
18486SOL    HW158860   8.357   5.873   6.258  1.1965 -0.1568  0.9330
18486SOL    HW258861   8.427   5.981   6.338 -1.0624  1.4623  0.8257
18487SOL     OW58862   0.045   3.424   2.395 -0.1931 -0.0015  0.4771
18487SOL    HW158863   0.097   3.468   2.328  1.5908 -0.1007  1.7262
18487SOL    HW258864   0.052   3.331   2.374 -0.2668  0.0112  0.3915
18488SOL     OW58865  10.267   9.660   7.201  0.9923 -0.4775  0.5597
18488SOL    HW158866  10.263   9.646   7.106  1.8966 -1.3522  0.6408
18488SOL    HW258867  10.189   9.712   7.220  0.1257 -1.3461 -0.4797
18489SOL     OW58868   3.663   8.126   4.573 -0.2202  0.1466  0.5170
18489SOL    HW158869   3.660   8.065   4.500 -0.2287  0.2266  0.4499
18489SOL    HW258870   3.639   8.074   4.650  4.3560 -1.2032  1.3211
18490SOL     OW58871   0.798  10.144   1.819 -0.3031  0.4143 -0.1631
18490SOL    HW158872   0.878  10.164   1.770  2.0249 -1.5473  2.4933
18490SOL    HW258873   0.796  10.209   1.889 -0.4945 -0.1113  0.3246
18491SOL     OW58874   8.314   6.707   5.762  0.4079  0.4997  0.0601
18491SOL    HW158875   8.395   6.757   5.773  1.3395 -1.0026  0.3327
18491SOL    HW258876   8.343   6.622   5.729 -0.9845 -0.3378  0.9178
18492SOL     OW58877   2.195   5.947   9.991 -0.0628  0.6987 -0.2577
18492SOL    HW158878   2.201   5.927   9.898 -0.1765  0.9599 -0.3204
18492SOL    HW258879   2.179   5.862  10.033  3.9723 -0.1863 -0.0573
18493SOL     OW58880   7.235   1.699   1.023  0.1901 -0.1322  0.2444
18493SOL    HW158881   7.207   1.703   0.931 -1.1849 -2.9785  0.4020
18493SOL    HW258882   7.308   1.636   1.023  1.3164  1.1318  0.9255
18494SOL     OW58883   5.770   1.651   9.622  0.1635 -0.1115  0.4116
18494SOL    HW158884   5.823   1.717   9.579  1.3603 -0.4238  1.3507
18494SOL    HW258885   5.825   1.619   9.694 -2.2574  1.4834  3.2120
18495SOL     OW58886  10.344   2.442   8.517  0.6666 -0.0228 -0.3249
18495SOL    HW158887  10.332   2.519   8.572 -1.1056 -0.2735 -0.3096
18495SOL    HW258888  10.332   2.368   8.576 -0.5752 -0.2911 -0.8819
18496SOL     OW58889   0.094   2.949   4.223 -0.0071 -0.6468  0.2684
18496SOL    HW158890   0.120   3.026   4.273 -0.4979 -0.1464 -0.2332
18496SOL    HW258891  -0.002   2.947   4.230 -0.3571  0.8646 -2.6508
18497SOL     OW58892   4.330   0.126   9.342  0.1529 -0.7158  0.0552
18497SOL    HW158893   4.331   0.214   9.306  1.0743 -0.4688  0.6462
18497SOL    HW258894   4.409   0.121   9.396  0.4285 -2.0872 -0.4210
18498SOL     OW58895   0.482   6.941   8.299  0.0420 -0.7180  0.0397
18498SOL    HW158896   0.440   7.004   8.358  0.6009 -0.4809  0.1898
18498SOL    HW258897   0.534   6.885   8.356 -0.9583 -1.7319 -0.0281
18499SOL     OW58898   9.133   3.359   4.495 -0.4101  0.3371  0.5489
18499SOL    HW158899   9.073   3.299   4.452  0.9559 -0.8775  0.2613
18499SOL    HW258900   9.149   3.428   4.430 -1.1840  0.4769  0.4999
18500SOL     OW58901  10.253   8.110   0.008  0.4349 -0.5025  0.0761
18500SOL    HW158902  10.293   8.155   0.082  1.7890  0.1173 -0.9798
18500SOL    HW258903  10.245   8.177  -0.060 -0.6271 -1.0897 -0.4156
18501SOL     OW58904   9.877   3.882   5.148 -0.5531 -0.3694 -0.3608
18501SOL    HW158905   9.878   3.965   5.196  2.2324 -0.6055  0.1599
18501SOL    HW258906   9.923   3.901   5.067  0.5919 -1.4884 -0.0006
18502SOL     OW58907   3.911   4.084   4.335 -0.0222  0.0721  0.2783
18502SOL    HW158908   3.984   4.031   4.367  0.7750  1.0887  0.1664
18502SOL    HW258909   3.871   4.030   4.266  2.0892  0.4483 -1.3427
18503SOL     OW58910   3.195   6.336   8.778 -0.2072  0.6782 -0.0713
18503SOL    HW158911   3.161   6.246   8.779 -0.4970  0.7697 -0.9273
18503SOL    HW258912   3.262   6.337   8.846 -0.5960 -0.0309  0.3347
18504SOL     OW58913   9.253   3.585  10.314 -0.2532  0.9067  0.0685
18504SOL    HW158914   9.291   3.531  10.244 -0.5638  0.3928  0.2847
18504SOL    HW258915   9.328   3.625  10.357  0.0066  0.3988  0.0969
18505SOL     OW58916   7.674   0.758   8.462  0.6508  0.1202  0.1868
18505SOL    HW158917   7.670   0.713   8.377  1.9305 -0.0793  0.2205
18505SOL    HW258918   7.705   0.846   8.441 -0.7449  0.6662  0.2627
18506SOL     OW58919   8.086   8.694   0.424  0.1253  0.4771 -0.3622
18506SOL    HW158920   8.056   8.623   0.480 -0.5706  1.5104  0.6010
18506SOL    HW258921   8.026   8.766   0.441  0.3189  1.0517 -1.9325
18507SOL     OW58922   3.420   5.555   3.707  0.4306 -0.4324  0.0403
18507SOL    HW158923   3.392   5.609   3.780  0.4024  0.2219 -0.4389
18507SOL    HW258924   3.339   5.524   3.667  0.3102  1.3791 -1.2854
18508SOL     OW58925   0.659   1.392   9.442 -0.6319 -0.3281  0.4868
18508SOL    HW158926   0.732   1.440   9.482 -1.5207  1.7366 -0.2605
18508SOL    HW258927   0.629   1.333   9.511  1.3287 -0.7818  1.0165
18509SOL     OW58928   1.432   5.110   9.849 -0.1371  0.0698  0.4568
18509SOL    HW158929   1.472   5.123   9.763  1.9440  3.3986  1.7199
18509SOL    HW258930   1.338   5.125   9.833  0.3329  1.7795 -1.0998
18510SOL     OW58931   8.500   0.056   6.710  0.2112  0.3264  0.3870
18510SOL    HW158932   8.508  -0.032   6.745  0.4053 -0.4694 -1.5538
18510SOL    HW258933   8.554   0.110   6.768 -0.0286 -0.7808  1.6834
18511SOL     OW58934   1.681   9.135   1.057  0.1669  0.3756  0.3871
18511SOL    HW158935   1.734   9.127   1.137  1.3306  0.5064 -0.3355
18511SOL    HW258936   1.745   9.159   0.989 -0.9184  1.0313 -0.4287
18512SOL     OW58937   0.562   5.709  10.397 -0.1582  0.3682  0.2154
18512SOL    HW158938   0.569   5.625  10.443 -0.2651  0.5568  0.5844
18512SOL    HW258939   0.537   5.685  10.308 -2.6279  0.0895  0.8967
18513SOL     OW58940   8.366   5.859  10.492 -0.1628  0.4491  0.1634
18513SOL    HW158941   8.303   5.788  10.484 -2.2853  2.1733  0.7027
18513SOL    HW258942   8.436   5.835  10.431 -1.0892 -1.7550 -0.1333
18514SOL     OW58943   2.554   0.640   7.525  0.0755 -0.2773  0.0446
18514SOL    HW158944   2.509   0.580   7.466 -0.5924 -0.0173  0.2733
18514SOL    HW258945   2.517   0.621   7.611  0.0222  0.3034  0.1527
18515SOL     OW58946   2.756   4.233   1.598  0.1603 -0.0919 -0.4438
18515SOL    HW158947   2.780   4.194   1.514  0.7803  1.1555 -0.8723
18515SOL    HW258948   2.681   4.289   1.579  1.1745  1.3064 -0.4866
18516SOL     OW58949   8.553   3.376   9.814  0.1916 -0.1114 -0.2059
18516SOL    HW158950   8.541   3.471   9.808  0.8194 -0.0708 -1.0133
18516SOL    HW258951   8.522   3.343   9.729 -0.4254 -0.6757  0.2358
18517SOL     OW58952   8.784   4.669   2.926 -0.1347 -0.4098  0.1448
18517SOL    HW158953   8.775   4.587   2.876 -1.3568  0.0462 -0.4206
18517SOL    HW258954   8.863   4.656   2.979  0.6094 -1.3309 -1.1197
18518SOL     OW58955   0.966   5.896   6.074  0.2599  0.2397  0.7477
18518SOL    HW158956   1.012   5.813   6.081 -1.5172 -1.0108 -1.1766
18518SOL    HW258957   0.875   5.872   6.058 -0.0799  2.5015 -1.4722
18519SOL     OW58958  10.712   9.098   6.150  0.4405 -0.4429 -0.2665
18519SOL    HW158959  10.703   9.164   6.218 -1.8130 -0.8672 -0.0596
18519SOL    HW258960  10.676   9.018   6.188 -0.2364 -0.8641 -1.6894
18520SOL     OW58961  10.557   8.061   5.004 -0.1888  0.6823  0.2273
18520SOL    HW158962  10.574   8.059   5.098  1.6018 -0.6132 -0.0602
18520SOL    HW258963  10.546   8.153   4.983 -2.0668  0.8973  1.9031
18521SOL     OW58964   2.398   6.781   7.333  0.1218 -0.2271 -0.5119
18521SOL    HW158965   2.403   6.873   7.306  1.1471 -0.1510 -0.1252
18521SOL    HW258966   2.381   6.786   7.427  0.6051 -0.4103 -0.4090
18522SOL     OW58967   8.176   6.437   7.625 -0.0214 -0.0522 -0.2231
18522SOL    HW158968   8.111   6.468   7.687  0.1725  2.1086 -1.0129
18522SOL    HW258969   8.256   6.484   7.648 -0.0650  1.1979 -2.3432
18523SOL     OW58970  10.234   9.210   3.798  0.0426  0.0498  0.0144
18523SOL    HW158971  10.213   9.240   3.886  1.0253  1.5516 -0.2264
18523SOL    HW258972  10.153   9.222   3.748 -0.1751  0.3123  0.4291
18524SOL     OW58973   9.707   0.066   8.651  0.0902 -0.0537 -0.0637
18524SOL    HW158974   9.750   0.133   8.599  2.3762  0.3759  2.1935
18524SOL    HW258975   9.745  -0.017   8.619  0.5441  0.0988  0.0756
18525SOL     OW58976   5.234   6.433   1.075  0.0467 -0.5251  0.4564
18525SOL    HW158977   5.277   6.349   1.056 -0.4556 -0.6466 -0.1605
18525SOL    HW258978   5.145   6.423   1.040  0.0060  0.2946  0.3096
18526SOL     OW58979   4.411   5.774   5.258  0.2046  0.3649  0.3033
18526SOL    HW158980   4.363   5.693   5.272 -1.1123  1.1979  0.8493
18526SOL    HW258981   4.454   5.791   5.342  0.1496  0.4446  0.3153
18527SOL     OW58982   4.747  10.065   0.470 -0.4851  0.0922 -0.0430
18527SOL    HW158983   4.758  10.159   0.456  1.7890  0.2139  1.9550
18527SOL    HW258984   4.812  10.024   0.414  0.1536 -0.1276  0.8419
18528SOL     OW58985  10.484   6.763   9.595 -0.5776  0.3291  0.3826
18528SOL    HW158986  10.425   6.821   9.547 -0.8870  1.6485  2.2440
18528SOL    HW258987  10.430   6.724   9.663  0.3189  0.2377  1.0673
18529SOL     OW58988   6.552   2.308   7.846 -0.3710 -0.0010 -0.1408
18529SOL    HW158989   6.502   2.383   7.813 -0.6947 -0.0789  0.1619
18529SOL    HW258990   6.520   2.296   7.935  1.9892  1.5649  1.0269
18530SOL     OW58991  10.201   4.032   9.704 -0.4350  0.0372 -0.1599
18530SOL    HW158992  10.169   4.121   9.690 -0.2602  0.0622 -0.4211
18530SOL    HW258993  10.296   4.038   9.689 -0.3834 -0.1379  0.0908
18531SOL     OW58994   6.980   2.579   9.385  0.3586 -0.5300  0.6156
18531SOL    HW158995   6.946   2.669   9.383  0.0334 -0.6602 -0.1791
18531SOL    HW258996   6.948   2.543   9.467 -1.1133 -0.5163  0.0856
18532SOL     OW58997   0.108   8.671   8.221 -0.1816  0.3869  0.4405
18532SOL    HW158998   0.153   8.626   8.292  1.7735  0.3283 -0.7680
18532SOL    HW258999   0.106   8.607   8.149 -0.3297  1.1068 -0.2120
18533SOL     OW59000   6.355   7.920  10.642 -0.3656 -0.1213  0.6829
18533SOL    HW159001   6.364   7.829  10.613 -0.6880 -0.3788  1.3757
18533SOL    HW259002   6.263   7.941  10.625 -0.1200  0.3172 -0.1483
18534SOL     OW59003   0.053   2.634   3.852  0.2623  0.1107 -0.2080
18534SOL    HW159004   0.111   2.685   3.910  2.3990 -0.4262 -1.7474
18534SOL    HW259005   0.018   2.698   3.791  1.2734  0.0821 -0.8351
18535SOL     OW59006   4.430   3.536  10.509 -0.1035  0.2233  0.3688
18535SOL    HW159007   4.448   3.610  10.451  0.7172  1.3545  1.9943
18535SOL    HW259008   4.338   3.514  10.492  0.0146  0.7401 -1.0861
18536SOL     OW59009   3.891   2.397   7.723 -0.5981 -0.4492  0.0390
18536SOL    HW159010   3.934   2.316   7.696  0.8121  0.6492 -1.1870
18536SOL    HW259011   3.834   2.419   7.650 -2.2126 -1.1156  1.0395
18537SOL     OW59012   7.904  10.811   1.848  0.2185 -0.1586 -0.0097
18537SOL    HW159013   7.977  10.749   1.841 -0.4292 -1.1054  1.1377
18537SOL    HW259014   7.830  10.765   1.807 -0.6675 -0.8779  2.2252
18538SOL     OW59015   5.329   1.137   5.331  0.0126  0.3035 -0.2586
18538SOL    HW159016   5.314   1.188   5.252 -1.2765 -0.5082 -0.5636
18538SOL    HW259017   5.268   1.063   5.324 -0.4315  0.4341  1.6707
18539SOL     OW59018   3.288   3.126  10.113  0.0679 -0.0359 -0.3455
18539SOL    HW159019   3.213   3.085  10.070  0.7355 -2.6371  0.8135
18539SOL    HW259020   3.263   3.132  10.205  2.5504 -4.6722  0.9083
18540SOL     OW59021  10.309   6.817   3.656  0.4260  0.4595 -0.6892
18540SOL    HW159022  10.263   6.899   3.674 -0.3625 -0.2072  0.5529
18540SOL    HW259023  10.341   6.789   3.742  2.5609  0.5238 -1.4107
18541SOL     OW59024   3.687   4.366   6.308 -0.2672  0.3992 -0.1232
18541SOL    HW159025   3.595   4.340   6.297  0.2182 -0.8892 -1.3908
18541SOL    HW259026   3.683   4.462   6.316 -1.7208  0.3781 -0.2844
18542SOL     OW59027   8.770   7.508   0.117 -0.0805  0.2562  0.5743
18542SOL    HW159028   8.677   7.501   0.100 -0.1317 -1.1571  1.3037
18542SOL    HW259029   8.779   7.587   0.171 -0.8497  0.3700  0.5410
18543SOL     OW59030   5.678   2.102   7.469 -0.0169  0.1860  0.2595
18543SOL    HW159031   5.678   2.060   7.555 -0.4459 -1.8002 -0.6508
18543SOL    HW259032   5.760   2.075   7.429 -0.6077 -0.4039 -0.6013
18544SOL     OW59033   7.651  10.293   9.345 -0.0138 -0.4458  0.0283
18544SOL    HW159034   7.594  10.369   9.333 -0.0873 -0.4686  0.2311
18544SOL    HW259035   7.628  10.234   9.273  0.2042 -0.1815 -0.2657
18545SOL     OW59036   1.317   0.045   1.871  0.3282 -0.1261 -0.3940
18545SOL    HW159037   1.252   0.089   1.926 -0.7968 -1.5733 -0.4886
18545SOL    HW259038   1.275   0.041   1.785  0.5692 -0.9980 -0.4796
18546SOL     OW59039   8.814   6.278   1.605 -0.3371 -0.2535  0.0920
18546SOL    HW159040   8.768   6.199   1.631  0.5527 -0.0613  2.5225
18546SOL    HW259041   8.858   6.255   1.523  0.2297 -2.4184  0.9490
18547SOL     OW59042   4.645  10.768   3.253 -0.4194 -0.5061 -0.1293
18547SOL    HW159043   4.592  10.845   3.230  0.0810 -0.5902 -1.6223
18547SOL    HW259044   4.653  10.719   3.172  3.2252  0.2722 -0.3991
18548SOL     OW59045   2.668   2.520  10.006  0.1235  0.2952  0.1595
18548SOL    HW159046   2.593   2.578  10.015  0.6427  1.3949 -2.0048
18548SOL    HW259047   2.639   2.451   9.946  0.2425 -0.3916  0.8755
18549SOL     OW59048   4.745   3.898  10.722  0.6917 -0.5097  0.1962
18549SOL    HW159049   4.703   3.847  10.652  0.1593 -0.8018  0.7210
18549SOL    HW259050   4.673   3.947  10.762  0.9687 -0.4708  0.6472
18550SOL     OW59051   9.037   7.076   9.437 -0.1539 -0.2203  0.5787
18550SOL    HW159052   9.020   7.163   9.401  1.1165 -0.0291  0.3996
18550SOL    HW259053   9.007   7.015   9.370  1.8143  0.1303 -0.6992
18551SOL     OW59054   8.440  10.620   2.693 -0.0232  0.1483 -0.4127
18551SOL    HW159055   8.517  10.646   2.743 -0.2093  0.6452 -0.3747
18551SOL    HW259056   8.378  10.692   2.706  0.0875  0.5038 -1.7144
18552SOL     OW59057   2.112  10.409   8.505 -0.0426  0.2528  0.4965
18552SOL    HW159058   2.197  10.446   8.482 -0.5666  1.9575  1.1476
18552SOL    HW259059   2.054  10.436   8.434  0.3912 -3.1622 -1.4056
18553SOL     OW59060   3.082   0.345   9.585  0.7787  0.0428 -0.3155
18553SOL    HW159061   3.053   0.315   9.499  0.6988  1.2535 -0.7202
18553SOL    HW259062   3.124   0.268   9.624  0.1194 -0.7438 -1.1098
18554SOL     OW59063   5.848   4.944   0.724  0.5026 -0.3746  0.2350
18554SOL    HW159064   5.827   4.883   0.794  3.0875 -1.7127 -0.0407
18554SOL    HW259065   5.878   5.024   0.769 -2.1263  0.4993  0.5879
18555SOL     OW59066   0.803   7.194   7.297 -0.3590  0.4761  0.6027
18555SOL    HW159067   0.875   7.141   7.263 -0.9650 -1.6774  2.3629
18555SOL    HW259068   0.814   7.280   7.257  3.0840  0.2020  0.6802
18556SOL     OW59069   3.427   9.382   7.023  0.1851  0.8912 -0.0794
18556SOL    HW159070   3.520   9.362   7.037 -0.0960 -0.1484  0.4252
18556SOL    HW259071   3.415   9.469   7.062  0.9032  0.9369  0.0502
18557SOL     OW59072   8.218   1.175   3.263 -0.4521 -0.2119 -0.4980
18557SOL    HW159073   8.152   1.109   3.287 -1.1145 -0.3700 -2.6044
18557SOL    HW259074   8.294   1.123   3.234 -0.8423 -0.0638 -1.8123
18558SOL     OW59075   5.603   3.081   9.916 -0.2679  0.6827 -0.0880
18558SOL    HW159076   5.543   3.144   9.876  0.3280  2.1718  1.2674
18558SOL    HW259077   5.550   3.036   9.981 -0.2478  1.1248  0.2433
18559SOL     OW59078   3.685   6.891   7.692  0.0471 -0.5653 -0.3823
18559SOL    HW159079   3.606   6.838   7.677 -1.3478  1.7206 -1.7010
18559SOL    HW259080   3.652   6.978   7.715  2.1989  0.2588 -0.1689
18560SOL     OW59081   7.343   2.193   9.556  0.1133 -0.4039 -0.1748
18560SOL    HW159082   7.410   2.242   9.604  0.6629  0.1929 -1.5015
18560SOL    HW259083   7.389   2.161   9.478 -0.8288 -1.0861 -0.4648
18561SOL     OW59084   1.017   1.704   4.282  0.1009 -0.0263  0.5669
18561SOL    HW159085   0.958   1.666   4.347  0.5205 -0.5535  0.6479
18561SOL    HW259086   0.987   1.668   4.198  0.4635 -0.5122  0.6372
18562SOL     OW59087   8.867   2.404   7.799 -0.7558 -0.2032 -0.2084
18562SOL    HW159088   8.839   2.360   7.719  0.5692 -1.9668  0.2361
18562SOL    HW259089   8.952   2.442   7.777 -1.0164  0.5071 -0.0198
18563SOL     OW59090   7.673   5.482   1.054 -0.4455  0.3744  0.3493
18563SOL    HW159091   7.687   5.496   1.148  1.0286 -1.3235  0.4363
18563SOL    HW259092   7.755   5.442   1.024 -1.5161 -0.6634 -1.3233
18564SOL     OW59093   1.667   7.581   7.938 -0.5133 -0.5863  0.1472
18564SOL    HW159094   1.623   7.504   7.902 -1.8638 -0.2239  0.9510
18564SOL    HW259095   1.690   7.634   7.862 -0.1447 -1.4741 -0.3720
18565SOL     OW59096   2.808   5.900   5.547 -0.1405 -0.0699  0.1021
18565SOL    HW159097   2.757   5.979   5.531  0.6751  0.8613  1.8083
18565SOL    HW259098   2.898   5.931   5.557  0.4878 -1.4435 -0.9366
18566SOL     OW59099   5.766   7.562   5.131 -0.4124 -0.4055  0.2880
18566SOL    HW159100   5.746   7.550   5.224 -2.8234  1.4003  0.1089
18566SOL    HW259101   5.814   7.483   5.107 -2.7971 -2.6927  2.2755
18567SOL     OW59102   2.605   8.126   7.461 -0.1034  0.0292  0.0153
18567SOL    HW159103   2.644   8.038   7.455  0.1929  0.1284  0.4306
18567SOL    HW259104   2.622   8.165   7.375 -0.2663 -0.3329 -0.1834
18568SOL     OW59105   3.504   5.554   9.078  0.5285  0.2719  0.5334
18568SOL    HW159106   3.478   5.646   9.085 -0.1594  0.3637 -2.2874
18568SOL    HW259107   3.599   5.557   9.064  0.1678  0.8149 -2.3403
18569SOL     OW59108   2.862   0.599   4.060 -0.2244 -0.3667  0.5037
18569SOL    HW159109   2.907   0.542   4.122  0.5576 -0.7488 -0.3857
18569SOL    HW259110   2.806   0.540   4.010 -0.1602 -0.2110  0.2448
18570SOL     OW59111   6.592   5.061   4.839  0.0667  0.4412  0.1471
18570SOL    HW159112   6.609   5.112   4.760  1.0515 -0.4600 -0.2478
18570SOL    HW259113   6.625   4.974   4.818  0.9134  0.3458  1.7639
18571SOL     OW59114   3.641   5.426   7.132  0.7182  0.1559  0.0429
18571SOL    HW159115   3.648   5.380   7.216  0.7837  2.5552  1.4453
18571SOL    HW259116   3.722   5.476   7.125  1.0357 -0.5300 -1.8494
18572SOL     OW59117   4.451   0.813   1.263  0.1661  0.1839  0.1987
18572SOL    HW159118   4.512   0.740   1.260  0.0889  0.1572 -1.8054
18572SOL    HW259119   4.487   0.872   1.330  1.2193 -0.8046  0.5268
18573SOL     OW59120   4.795   2.375   5.826 -0.6360 -0.0056  0.2421
18573SOL    HW159121   4.838   2.449   5.784  0.1531 -0.6530 -0.1306
18573SOL    HW259122   4.863   2.337   5.883 -0.7391 -0.9769 -0.2617
18574SOL     OW59123   0.975   9.423   2.851  0.7638  0.2446 -0.3619
18574SOL    HW159124   0.928   9.496   2.892 -1.2897 -1.1636 -0.0514
18574SOL    HW259125   0.971   9.442   2.757  1.3714  1.1377 -0.2205
18575SOL     OW59126  10.555   4.964   9.164  0.7974  0.3304  0.5428
18575SOL    HW159127  10.529   4.950   9.073  1.8563 -0.9641  0.4067
18575SOL    HW259128  10.619   5.035   9.161  1.3410 -0.1663  0.1756
18576SOL     OW59129   2.906   4.469   6.933  0.0888 -0.6257  0.1299
18576SOL    HW159130   2.959   4.420   6.995 -1.2063 -0.5191  1.3591
18576SOL    HW259131   2.933   4.560   6.944  0.0195 -0.6352  0.3762
18577SOL     OW59132   1.379   6.461   8.054 -0.5650 -0.1334 -0.2079
18577SOL    HW159133   1.412   6.519   8.121 -1.0977 -0.1446  0.0743
18577SOL    HW259134   1.457   6.420   8.016 -0.2620 -0.1407  0.4149
18578SOL     OW59135   8.214   4.973   0.046  0.0586  0.2273  0.2617
18578SOL    HW159136   8.241   5.063   0.028  2.2535 -0.5654 -0.7793
18578SOL    HW259137   8.268   4.946   0.121  0.4953 -0.6582 -0.3542
18579SOL     OW59138   8.357  10.451   2.450 -0.8558 -0.3652  0.3768
18579SOL    HW159139   8.293  10.392   2.490 -0.0280 -1.1337  0.6005
18579SOL    HW259140   8.365  10.523   2.513  1.1370 -2.0173  2.1906
18580SOL     OW59141   0.481   1.007   2.042  0.0880  0.0459  0.0766
18580SOL    HW159142   0.528   0.996   2.125 -1.2153 -1.4165  0.6580
18580SOL    HW259143   0.545   0.980   1.975  0.9768  0.7460  0.6219
18581SOL     OW59144   0.099   8.526   9.518 -0.0187 -0.2947  0.3627
18581SOL    HW159145   0.180   8.495   9.560 -0.1744 -1.8666 -0.4555
18581SOL    HW259146   0.032   8.516   9.585 -0.1647 -2.2830 -0.0411
18582SOL     OW59147   4.631   1.362   1.505  0.6296  0.0332 -0.0213
18582SOL    HW159148   4.627   1.333   1.413  0.0221 -0.9409  0.2922
18582SOL    HW259149   4.724   1.377   1.521  0.7941 -0.2410 -0.6618
18583SOL     OW59150   7.524   6.653  10.149  0.1831 -0.1762  0.0594
18583SOL    HW159151   7.535   6.690  10.236  1.3839 -1.4404  0.4843
18583SOL    HW259152   7.576   6.710  10.092 -1.9514  1.6616 -0.1809
18584SOL     OW59153   9.912   1.386   9.798  0.7796  0.2178  0.3109
18584SOL    HW159154   9.875   1.309   9.754  0.3758  1.1373 -1.0386
18584SOL    HW259155   9.842   1.419   9.854  0.8671 -0.2460  0.6939
18585SOL     OW59156   5.297   5.796  10.327 -0.1262  0.0937  1.2497
18585SOL    HW159157   5.307   5.729  10.395 -1.2714 -1.3763  0.0456
18585SOL    HW259158   5.219   5.769  10.279 -0.4424  2.1570  0.5188
18586SOL     OW59159   1.817   2.152   9.384  0.4103  0.4276 -0.1537
18586SOL    HW159160   1.871   2.079   9.416 -0.1115  0.7006  1.4334
18586SOL    HW259161   1.727   2.124   9.398  0.1964  1.2414  0.1780
18587SOL     OW59162   4.032   6.461   3.225  0.0957 -0.2829 -1.2753
18587SOL    HW159163   3.950   6.432   3.263 -0.4545  0.7198 -1.6625
18587SOL    HW259164   4.090   6.474   3.300  0.7066 -3.2473 -1.1236
18588SOL     OW59165   2.723   7.669   2.020 -0.3456  0.4431  0.2989
18588SOL    HW159166   2.685   7.737   2.075  1.6084  2.2644 -0.4865
18588SOL    HW259167   2.815   7.693   2.012  0.0717 -1.4457 -1.3011
18589SOL     OW59168   6.016   7.946   1.169  0.0786 -0.2985  0.7235
18589SOL    HW159169   5.953   7.883   1.135 -0.2772  1.2633 -1.7970
18589SOL    HW259170   5.988   8.030   1.132  0.6632  1.3456  3.7420
18590SOL     OW59171  10.203   4.567   5.672  0.0162  0.0154 -0.1305
18590SOL    HW159172  10.225   4.477   5.647 -0.1949 -0.4873  1.3822
18590SOL    HW259173  10.128   4.557   5.730  0.2169  1.1428  0.3373
18591SOL     OW59174   5.451   2.205   3.087  0.2574 -0.4021  0.1774
18591SOL    HW159175   5.397   2.258   3.027 -1.2835 -1.2532  0.7630
18591SOL    HW259176   5.493   2.140   3.031 -2.0942 -1.9509  0.0647
18592SOL     OW59177   7.885   2.421   5.781 -0.3640  0.6770 -0.3273
18592SOL    HW159178   7.892   2.502   5.731 -0.2803 -0.0634 -1.5618
18592SOL    HW259179   7.808   2.378   5.745  0.4373 -0.4647 -0.7382
18593SOL     OW59180   1.283   9.898   0.980  0.3830 -0.6643  0.0784
18593SOL    HW159181   1.224   9.826   0.958  4.0447 -3.1025 -3.1986
18593SOL    HW259182   1.330   9.867   1.058 -0.0182 -0.4410  0.4147
18594SOL     OW59183   5.964   0.806   1.650 -0.4376  0.6283 -0.0969
18594SOL    HW159184   5.896   0.855   1.604  0.0917 -0.1766 -1.8414
18594SOL    HW259185   5.994   0.741   1.586  0.5844 -0.3435  1.3023
18595SOL     OW59186   1.536   8.450   8.052 -0.2437 -0.1580 -0.0436
18595SOL    HW159187   1.478   8.440   8.128 -0.7365 -1.4811 -0.5545
18595SOL    HW259188   1.505   8.529   8.008 -1.5609 -0.7183 -0.1835
18596SOL     OW59189   9.879   8.640   4.499 -0.2969  0.3366  0.5082
18596SOL    HW159190   9.898   8.673   4.587  0.5083  0.1274  0.4218
18596SOL    HW259191   9.806   8.578   4.511 -0.3254  0.4619  0.9948
18597SOL     OW59192   0.935   0.024   6.131  0.1321 -0.1495 -0.2065
18597SOL    HW159193   1.026   0.019   6.159 -0.0342  0.2050  0.4188
18597SOL    HW259194   0.888  -0.033   6.191 -0.3917  1.4777  1.0163
18598SOL     OW59195   5.454   0.820   5.519 -0.1723  0.5279  0.1679
18598SOL    HW159196   5.359   0.813   5.511 -0.0746  0.6314 -1.4642
18598SOL    HW259197   5.483   0.854   5.434  1.3917 -0.2340  0.3564
18599SOL     OW59198   6.270   9.227  10.332  0.2559 -0.3217 -0.2817
18599SOL    HW159199   6.212   9.264  10.266 -0.8656  0.4162  1.0535
18599SOL    HW259200   6.224   9.148  10.362 -0.4075  0.5939  1.2134
18600SOL     OW59201  10.641   0.419   8.702  0.1518 -0.4422 -0.6026
18600SOL    HW159202  10.589   0.482   8.652 -2.2419 -0.0571  2.0830
18600SOL    HW259203  10.607   0.334   8.675  0.1610 -0.3378 -0.9498
18601SOL     OW59204   4.396   7.046   0.816 -0.4100 -0.3457 -0.3377
18601SOL    HW159205   4.486   7.013   0.809 -0.7872 -1.7604  1.0888
18601SOL    HW259206   4.397   7.101   0.894 -1.0043 -1.1472  0.2441
18602SOL     OW59207   4.151   5.429   1.566  0.2388 -0.1516 -0.4770
18602SOL    HW159208   4.242   5.449   1.546  1.1033 -1.8918  1.4207
18602SOL    HW259209   4.131   5.351   1.515  0.4053 -0.8338  0.4850
18603SOL     OW59210   1.079   5.107   2.482 -0.3040  0.1537 -0.7303
18603SOL    HW159211   1.102   5.014   2.479 -1.9636 -0.2801 -0.8708
18603SOL    HW259212   0.983   5.108   2.488 -0.3316  1.8594 -1.0109
18604SOL     OW59213   3.338  10.715   6.623  0.3204  0.3223  0.1346
18604SOL    HW159214   3.381  10.658   6.559 -1.6055  0.5077 -1.4257
18604SOL    HW259215   3.405  10.779   6.646  1.9950 -1.5164  0.6316
18605SOL     OW59216   5.333   3.643   1.814  0.3142 -0.4179  0.0424
18605SOL    HW159217   5.302   3.558   1.782  2.7925  0.1920 -4.9811
18605SOL    HW259218   5.416   3.622   1.857  0.3246 -0.6580 -0.0903
18606SOL     OW59219  10.751   1.445   7.379 -0.7088  0.0831  0.4789
18606SOL    HW159220  10.713   1.489   7.455 -0.8014  3.6034 -1.3859
18606SOL    HW259221  10.845   1.459   7.389 -0.6440 -0.3020  0.4109
18607SOL     OW59222   3.677   3.344   8.291  0.5795  0.8539  0.1200
18607SOL    HW159223   3.704   3.264   8.245 -0.9519 -0.0052  0.6065
18607SOL    HW259224   3.583   3.350   8.273  0.4862  2.0106  0.9234
18608SOL     OW59225   9.804  10.520  10.165 -0.7517 -0.0331 -0.0322
18608SOL    HW159226   9.851  10.547  10.086 -0.6678 -1.8404 -0.6380
18608SOL    HW259227   9.862  10.458  10.208 -1.8941 -1.0831  0.0516
18609SOL     OW59228   3.476   5.287   3.736  0.0945 -0.4343 -0.5972
18609SOL    HW159229   3.487   5.378   3.711  1.1460 -0.1646  0.7205
18609SOL    HW259230   3.398   5.258   3.690 -0.2107  1.1130 -1.0863
18610SOL     OW59231   9.417   3.183  10.070  0.3389  0.1851  0.0489
18610SOL    HW159232   9.410   3.266  10.022 -0.2826  0.3113  0.3402
18610SOL    HW259233   9.329   3.169  10.105  0.2013 -1.0400 -0.7212
18611SOL     OW59234   8.870   1.638   6.303 -0.1062 -0.0599  0.0582
18611SOL    HW159235   8.885   1.572   6.370 -1.2698  0.4891  0.8929
18611SOL    HW259236   8.802   1.694   6.339 -1.8793 -0.6060 -2.1986
18612SOL     OW59237   0.552   0.776   9.245  0.0308  0.5665 -0.1396
18612SOL    HW159238   0.548   0.739   9.157 -0.3580  1.2652 -0.4250
18612SOL    HW259239   0.470   0.824   9.255 -1.3020 -1.9344  1.7324
18613SOL     OW59240   2.235   0.981   0.884 -0.0304 -0.3910 -0.7798
18613SOL    HW159241   2.175   0.947   0.818  0.9998 -0.8149 -1.5238
18613SOL    HW259242   2.304   0.915   0.890  0.3273  0.0533  0.1018
18614SOL     OW59243   4.432   6.231   4.770 -0.2811  0.0294 -0.1434
18614SOL    HW159244   4.387   6.284   4.705  0.1581  2.2528  1.2710
18614SOL    HW259245   4.372   6.159   4.789 -0.5107 -0.5579 -2.7801
18615SOL     OW59246   7.299   9.778   5.108  0.5612 -0.3161 -0.2089
18615SOL    HW159247   7.341   9.822   5.035 -0.7389 -0.6414 -1.1710
18615SOL    HW259248   7.231   9.723   5.069 -0.3652 -0.2817  1.2508
18616SOL     OW59249   2.650   2.137   6.744  0.4353  0.0982 -0.0282
18616SOL    HW159250   2.734   2.151   6.787  0.7607 -1.7362  0.0281
18616SOL    HW259251   2.624   2.224   6.711  0.2898  1.5623  3.5626
18617SOL     OW59252   4.297   3.314   3.946 -0.0876  0.4441  0.0890
18617SOL    HW159253   4.290   3.247   3.877 -0.2103 -1.1978  1.6250
18617SOL    HW259254   4.376   3.363   3.924  0.0758 -0.2765 -1.0192
18618SOL     OW59255   5.576   6.505   8.999  0.2123 -0.1154 -0.3733
18618SOL    HW159256   5.619   6.457   9.070 -1.1527 -1.6943 -0.5654
18618SOL    HW259257   5.648   6.551   8.954  1.2460 -0.0829  1.2422
18619SOL     OW59258   9.116  10.904   3.908 -0.0544 -0.8676 -0.6925
18619SOL    HW159259   9.056  10.937   3.975  0.0466 -0.3627 -0.8499
18619SOL    HW259260   9.202  10.902   3.951  0.4281  1.5101 -1.4250
18620SOL     OW59261   8.047   5.135   7.774 -0.5680 -0.0928 -0.4058
18620SOL    HW159262   8.068   5.054   7.822 -0.0620  0.8223  0.9796
18620SOL    HW259263   7.958   5.120   7.740 -1.9699  0.0324  2.8139
18621SOL     OW59264   1.744  10.482   0.367 -0.1484  0.1956  0.2867
18621SOL    HW159265   1.745  10.542   0.442 -2.6325 -0.3255  0.8150
18621SOL    HW259266   1.685  10.412   0.394  0.4402 -1.0183 -1.4425
18622SOL     OW59267   1.315   3.599  10.419 -0.0020 -0.7045 -0.2995
18622SOL    HW159268   1.272   3.549  10.489 -0.3715 -0.3451 -0.2681
18622SOL    HW259269   1.297   3.549  10.339 -1.3233 -0.0660 -0.4375
18623SOL     OW59270  10.297   7.747   6.314  0.2800  0.3060  0.1443
18623SOL    HW159271  10.246   7.725   6.392 -0.9105  1.8301 -0.1537
18623SOL    HW259272  10.367   7.682   6.312 -0.7203 -0.8787  1.4640
18624SOL     OW59273   7.040  10.633   8.164  0.2244  0.5288  0.0129
18624SOL    HW159274   7.132  10.608   8.162  0.2334  0.3720  1.3654
18624SOL    HW259275   6.994  10.561   8.121  0.5062 -0.6399  1.5870
18625SOL     OW59276   6.887   3.402  10.286 -0.2610 -0.2396 -0.2709
18625SOL    HW159277   6.844   3.487  10.303 -0.8271 -0.4334 -0.6886
18625SOL    HW259278   6.921   3.375  10.371  1.8294  1.4122 -0.5017
18626SOL     OW59279   9.767   7.130   2.183 -0.2955 -0.4827 -0.2055
18626SOL    HW159280   9.818   7.210   2.184  0.4074 -0.9240  0.0651
18626SOL    HW259281   9.677   7.158   2.168 -0.1894  0.4271  0.7741
18627SOL     OW59282   8.494   4.584   0.712  0.2342 -0.7986 -0.0213
18627SOL    HW159283   8.407   4.597   0.674 -0.8237  0.9728  2.7328
18627SOL    HW259284   8.484   4.509   0.771 -0.7549  1.8348  3.4745
18628SOL     OW59285   4.548   5.814   5.027 -0.2975 -0.6619 -0.2062
18628SOL    HW159286   4.522   5.789   5.116 -1.4641 -2.5146 -1.0067
18628SOL    HW259287   4.634   5.774   5.015  0.5635  0.8654  0.5614
18629SOL     OW59288   0.784   9.395   7.217  0.2374 -0.6123  0.1890
18629SOL    HW159289   0.695   9.379   7.248 -0.0546 -1.8915 -1.2021
18629SOL    HW259290   0.841   9.351   7.280 -0.1322 -0.0910  0.8867
18630SOL     OW59291   3.393  10.527   0.286  0.0907 -0.1441 -0.2678
18630SOL    HW159292   3.395  10.586   0.211  2.6956 -0.3537 -0.4587
18630SOL    HW259293   3.475  10.544   0.333 -0.0583 -2.1240  0.8450
18631SOL     OW59294   5.097   5.591   6.698  0.9157 -0.3238  0.0251
18631SOL    HW159295   5.022   5.581   6.640  1.2522 -1.7149 -0.1953
18631SOL    HW259296   5.130   5.679   6.680 -0.2877  0.0776 -0.3038
18632SOL     OW59297  10.533   4.665   7.933 -0.0616  0.2921  0.3163
18632SOL    HW159298  10.481   4.589   7.961  0.4627 -0.1166  0.2114
18632SOL    HW259299  10.479   4.741   7.955 -1.4133 -0.1614 -1.2431
18633SOL     OW59300   2.073   5.247   4.536 -0.0175 -0.3905 -0.3710
18633SOL    HW159301   2.014   5.212   4.602  0.1808  0.5285  0.3198
18633SOL    HW259302   2.083   5.340   4.559  2.0582 -0.6079 -0.1566
18634SOL     OW59303   8.818   6.001   2.470  0.2214  0.6304 -0.4524
18634SOL    HW159304   8.802   6.081   2.420 -0.8409  0.1352 -0.9411
18634SOL    HW259305   8.864   6.031   2.549 -2.1975  2.0778  0.5233
18635SOL     OW59306  10.801   2.942   7.210  0.6224  0.3506  0.4947
18635SOL    HW159307  10.758   3.007   7.155  1.4069  0.3704 -0.1051
18635SOL    HW259308  10.757   2.860   7.188  0.8370  0.3808 -0.0702
18636SOL     OW59309   9.488   8.811   9.215  0.4830  0.4521  0.1096
18636SOL    HW159310   9.410   8.769   9.250  0.7803 -1.2760 -1.1356
18636SOL    HW259311   9.459   8.851   9.133  1.1312 -1.4385 -1.1039
18637SOL     OW59312  10.031   9.271   0.478  0.0522  0.7441 -0.1704
18637SOL    HW159313  10.048   9.184   0.442 -1.3922  0.1381  0.5097
18637SOL    HW259314  10.106   9.323   0.450 -0.0267 -0.1721 -2.3520
18638SOL     OW59315   3.241   4.336   6.866 -0.0724  0.3667 -0.0462
18638SOL    HW159316   3.298   4.351   6.791 -1.0209 -0.5166 -0.9954
18638SOL    HW259317   3.153   4.329   6.828 -0.5540 -0.3086  1.1272
18639SOL     OW59318   6.345   5.614   8.282  0.0950 -0.4045  0.9538
18639SOL    HW159319   6.375   5.698   8.317 -2.4847  0.7052  0.6870
18639SOL    HW259320   6.410   5.591   8.216  1.4577  0.7738  1.8123
18640SOL     OW59321   4.881   4.870   9.509  0.0811 -0.2394 -0.5414
18640SOL    HW159322   4.903   4.797   9.450  1.0961 -1.2365  1.0008
18640SOL    HW259323   4.837   4.828   9.583  0.5704  0.7266  0.3247
18641SOL     OW59324   8.462   9.174   1.167 -0.4494  0.3885  0.3316
18641SOL    HW159325   8.494   9.088   1.195  0.7111  0.6275 -0.1868
18641SOL    HW259326   8.513   9.236   1.219 -1.1757  0.7760  0.5946
18642SOL     OW59327   2.483   7.768   6.456  0.7073 -0.0946 -0.4167
18642SOL    HW159328   2.572   7.790   6.486  0.6233 -0.0121 -0.2303
18642SOL    HW259329   2.437   7.851   6.455 -0.0574 -0.4135  1.7397
18643SOL     OW59330  10.127  10.577   8.396 -0.3197 -0.9455  0.3437
18643SOL    HW159331  10.170  10.640   8.337 -1.5878  1.3349  1.7275
18643SOL    HW259332  10.059  10.537   8.343 -0.5433  0.0519 -0.1420
18644SOL     OW59333   6.341   7.965   4.937  0.3373 -0.1298 -0.4378
18644SOL    HW159334   6.250   7.940   4.952  0.8121 -0.6843  1.9470
18644SOL    HW259335   6.376   7.896   4.881 -0.4146 -0.5034 -0.4582
18645SOL     OW59336   5.045   1.564   8.469 -0.4052 -0.4452  0.2691
18645SOL    HW159337   5.116   1.508   8.436  1.8111  1.7478  1.0255
18645SOL    HW259338   5.007   1.603   8.390 -0.1021 -0.8644 -0.0930
18646SOL     OW59339  10.428   8.495   2.248 -0.4109 -0.1593 -0.3179
18646SOL    HW159340  10.513   8.539   2.236 -0.6064 -0.0723 -1.4964
18646SOL    HW259341  10.389   8.539   2.324  0.3517  0.1781 -0.1064
18647SOL     OW59342   7.536   0.456   7.665 -0.6043 -0.0452 -0.0727
18647SOL    HW159343   7.602   0.504   7.614 -0.8702  1.0877  0.6181
18647SOL    HW259344   7.577   0.371   7.683 -0.0149  0.0058 -1.0871
18648SOL     OW59345   8.752   3.034   1.141 -0.0340 -0.4636  0.1784
18648SOL    HW159346   8.805   3.109   1.169 -2.3716  1.9802 -1.4135
18648SOL    HW259347   8.705   3.008   1.220  0.4951  0.0106  0.6650
18649SOL     OW59348   1.787   9.131   6.624 -0.0580  0.1001 -0.4699
18649SOL    HW159349   1.856   9.140   6.690  0.4022 -0.0648 -0.9297
18649SOL    HW259350   1.723   9.199   6.647 -0.8941 -1.2159  1.3439
18650SOL     OW59351   6.853   9.152   0.096  0.0582 -0.0981  0.0928
18650SOL    HW159352   6.930   9.174   0.149  0.7788 -1.0860 -0.5121
18650SOL    HW259353   6.885   9.152   0.006 -0.6929 -0.3774 -0.1806
18651SOL     OW59354  10.258   3.605   7.479  0.1369  0.3695 -0.5579
18651SOL    HW159355  10.224   3.616   7.568  0.5077 -0.9652 -0.2225
18651SOL    HW259356  10.352   3.590   7.491  0.3077  0.8430 -1.2340
18652SOL     OW59357   3.564   7.955   9.613 -0.0156 -0.9277  0.2974
18652SOL    HW159358   3.477   7.919   9.599  0.7906 -2.5996 -0.8092
18652SOL    HW259359   3.620   7.906   9.553  1.6167  0.4462  0.6164
18653SOL     OW59360   4.245   5.086   1.804 -0.1639  0.4555  0.3035
18653SOL    HW159361   4.298   5.165   1.794 -0.2414  0.2753 -1.9306
18653SOL    HW259362   4.307   5.014   1.800 -0.3534  0.3178 -0.2135
18654SOL     OW59363   1.406   0.564   0.406 -0.2101 -0.2853 -0.7895
18654SOL    HW159364   1.396   0.657   0.388  2.0023  0.2190  0.2309
18654SOL    HW259365   1.487   0.539   0.362  0.6695 -1.0522  1.1275
18655SOL     OW59366   5.374   0.028   4.142  0.1626 -0.2374  0.1713
18655SOL    HW159367   5.407   0.117   4.142  0.2811 -0.2486 -1.7575
18655SOL    HW259368   5.278   0.037   4.145  0.1985 -0.0854  0.9837
18656SOL     OW59369   1.404   1.173   5.579  0.3126 -0.2462  0.5451
18656SOL    HW159370   1.478   1.139   5.528  0.3541  0.7485 -0.0719
18656SOL    HW259371   1.359   1.094   5.610  1.2688 -0.8679  0.4077
18657SOL     OW59372   3.479   1.559   4.172  0.0202  0.1464  0.7129
18657SOL    HW159373   3.414   1.630   4.167 -0.2134 -0.0091  1.4324
18657SOL    HW259374   3.428   1.481   4.196  0.2365 -0.3281 -0.3399
18658SOL     OW59375   3.031   6.412   1.153 -0.3479  0.7747 -0.2376
18658SOL    HW159376   2.992   6.360   1.083 -1.5024  2.2503 -0.7586
18658SOL    HW259377   2.978   6.391   1.231 -1.0236  1.3657 -0.5202
18659SOL     OW59378   0.041   7.106  10.382 -0.2110 -0.0707 -0.5162
18659SOL    HW159379  -0.048   7.071  10.380  0.5026 -2.1356  0.6729
18659SOL    HW259380   0.044   7.159  10.461 -0.3666 -0.0685 -0.5110
18660SOL     OW59381   8.438   6.988   3.982  0.5330  0.3047  0.4161
18660SOL    HW159382   8.514   7.046   3.992 -0.3416  1.4625  0.6622
18660SOL    HW259383   8.463   6.907   4.026  1.1980  1.0901  1.5464
18661SOL     OW59384  10.545   9.920   2.018  0.2696  0.6087  0.4308
18661SOL    HW159385  10.577   9.963   2.097 -0.3732  1.0834  0.4433
18661SOL    HW259386  10.623   9.895   1.970  0.6821 -0.0596  1.4163
18662SOL     OW59387   3.748   0.002   9.347  0.2488  0.0718  0.3297
18662SOL    HW159388   3.756   0.097   9.336 -0.8853  0.4684  2.4117
18662SOL    HW259389   3.830  -0.024   9.388 -0.3870  0.6016  2.0198
18663SOL     OW59390   0.706   1.485   4.952 -0.0833 -0.2894 -0.2244
18663SOL    HW159391   0.780   1.510   4.898  0.1420 -0.0911  0.1715
18663SOL    HW259392   0.629   1.504   4.897  0.0490  1.7486  0.2128
18664SOL     OW59393  10.235  10.727   3.631 -0.4285 -0.0493  0.3457
18664SOL    HW159394  10.277  10.764   3.554  0.4583  0.8208  1.2155
18664SOL    HW259395  10.145  10.709   3.604 -0.2084  0.5068 -0.7917
18665SOL     OW59396   8.969   8.080   5.254 -0.2671 -0.1519  0.2046
18665SOL    HW159397   9.038   8.118   5.201 -0.6423 -0.3847 -0.4622
18665SOL    HW259398   8.903   8.149   5.261 -0.9838 -0.6650 -1.0720
18666SOL     OW59399   3.217   1.565   2.787 -0.3526 -0.3673  0.2831
18666SOL    HW159400   3.248   1.600   2.871 -0.6619 -0.5961  0.4936
18666SOL    HW259401   3.274   1.605   2.722 -0.2016 -0.0765  0.5923
18667SOL     OW59402   0.247   1.939   7.177 -0.5025  0.0671  0.2270
18667SOL    HW159403   0.245   1.912   7.269  0.3141 -0.6699  0.0428
18667SOL    HW259404   0.329   1.987   7.167 -1.0932  1.0836  0.1189
18668SOL     OW59405   4.438   6.451   2.464 -0.1607 -0.2696 -0.2906
18668SOL    HW159406   4.511   6.494   2.419 -0.3188  0.1066 -0.1928
18668SOL    HW259407   4.477   6.415   2.544 -0.1072  0.0464 -0.1742
18669SOL     OW59408   8.623   5.455   4.229  0.6265  0.3961  0.4146
18669SOL    HW159409   8.620   5.366   4.195  0.1693  0.1427  1.0771
18669SOL    HW259410   8.570   5.506   4.167  2.5551  0.6461 -1.1079
18670SOL     OW59411   6.706  10.655   7.142 -0.3241 -0.2888 -0.0686
18670SOL    HW159412   6.685  10.717   7.072 -0.1817  1.0425  1.0334
18670SOL    HW259413   6.700  10.706   7.222 -0.3677 -1.7611  0.8990
18671SOL     OW59414   1.856   7.408   6.513  0.6268  0.1190 -0.4825
18671SOL    HW159415   1.908   7.371   6.442 -0.9941 -0.0962 -1.6158
18671SOL    HW259416   1.774   7.434   6.472 -0.0175  0.8269  1.1528
18672SOL     OW59417   4.812   3.418   8.301  0.1838 -0.3238  0.1712
18672SOL    HW159418   4.722   3.392   8.321  0.7496 -0.9815  2.0372
18672SOL    HW259419   4.803   3.503   8.258 -1.2335  0.8005  2.5285
18673SOL     OW59420   5.383  10.382   1.157 -0.0820  0.2482 -0.1823
18673SOL    HW159421   5.407  10.474   1.146 -0.0123  0.0622 -1.8406
18673SOL    HW259422   5.400  10.342   1.072  1.7900 -1.7553  1.0335
18674SOL     OW59423   0.501   3.906   2.558  0.5989 -0.3562 -0.2434
18674SOL    HW159424   0.414   3.868   2.558 -0.6715  2.2959 -0.2878
18674SOL    HW259425   0.516   3.932   2.467  1.2674 -0.3993 -0.1550
18675SOL     OW59426   1.572   7.575   7.539  0.2466 -0.2793 -0.9425
18675SOL    HW159427   1.648   7.590   7.595  0.6625  1.5204 -1.9461
18675SOL    HW259428   1.498   7.570   7.600  0.9451 -0.4817 -0.0878
18676SOL     OW59429   8.602   7.544   5.660  0.4942 -0.6356 -0.4657
18676SOL    HW159430   8.697   7.541   5.651  0.8292  2.8621  0.5072
18676SOL    HW259431   8.573   7.598   5.586 -0.3837  0.6149  0.7437
18677SOL     OW59432   8.481   4.211   7.477  0.1843 -0.2744  0.6381
18677SOL    HW159433   8.434   4.168   7.406  1.1039  0.3767 -0.4063
18677SOL    HW259434   8.455   4.164   7.556 -1.2334 -0.7004 -0.0643
18678SOL     OW59435   2.082   2.892   8.617 -0.0078  0.5651  0.0751
18678SOL    HW159436   2.070   2.940   8.699 -0.7020  1.0872 -0.3227
18678SOL    HW259437   2.087   2.960   8.550 -1.9495  0.0892 -0.6130
18679SOL     OW59438   3.403   8.762   4.066  0.2191 -0.5178 -0.0029
18679SOL    HW159439   3.403   8.726   4.155 -0.8196  0.5920  0.4725
18679SOL    HW259440   3.466   8.708   4.019  0.9097 -1.0357  1.4409
18680SOL     OW59441   7.582   9.266   4.717 -0.2972 -0.0829 -0.0270
18680SOL    HW159442   7.492   9.237   4.734  0.0326 -1.1813 -0.1269
18680SOL    HW259443   7.583   9.287   4.624 -0.5531  0.3276  0.0589
18681SOL     OW59444   7.719   8.106   1.600 -0.3334 -0.0500  0.8418
18681SOL    HW159445   7.737   8.024   1.553  0.4659  0.2867  0.5470
18681SOL    HW259446   7.694   8.078   1.688 -1.0560 -0.6520  0.4539
18682SOL     OW59447   5.041   2.759   0.152 -1.0769 -0.5453  0.0831
18682SOL    HW159448   5.075   2.848   0.155 -0.2568 -0.7553 -1.6471
18682SOL    HW259449   4.949   2.769   0.130 -0.9407 -0.1189 -0.3154
18683SOL     OW59450   5.789   3.647   0.681  0.2145  0.5511 -0.8132
18683SOL    HW159451   5.719   3.711   0.668 -1.1737 -0.5035  1.0116
18683SOL    HW259452   5.756   3.567   0.641  0.6057  0.1824 -0.4112
18684SOL     OW59453  10.553  10.189   1.883  0.1927 -0.5292  0.3645
18684SOL    HW159454  10.557  10.108   1.934  0.1570 -0.6796  0.1319
18684SOL    HW259455  10.465  10.189   1.845  0.2982 -0.5332  0.1177
18685SOL     OW59456   4.091   2.195   7.508 -0.6779  0.4020  0.1814
18685SOL    HW159457   4.039   2.246   7.445 -1.1602 -1.5927 -1.1336
18685SOL    HW259458   4.126   2.122   7.457  1.4448  0.3390  1.5965
18686SOL     OW59459   7.250   8.306   8.379  0.5670 -0.3507  0.5670
18686SOL    HW159460   7.328   8.329   8.429 -0.4387  0.8533  1.6412
18686SOL    HW259461   7.194   8.260   8.442  0.2622 -0.8952 -0.0965
18687SOL     OW59462  10.902   7.761   2.472 -0.7483  0.1846  0.8473
18687SOL    HW159463  10.905   7.707   2.393 -0.4191 -0.4470  1.2839
18687SOL    HW259464  10.981   7.815   2.468  0.3849 -1.3129  1.7473
18688SOL     OW59465   4.561   8.665   3.147 -0.2260 -1.0693 -0.0252
18688SOL    HW159466   4.573   8.741   3.090 -0.3792  0.0954  1.4403
18688SOL    HW259467   4.487   8.619   3.108 -0.6777 -0.0060 -0.4810
18689SOL     OW59468   2.557   5.211   3.284  0.4110  0.2409  0.2323
18689SOL    HW159469   2.596   5.134   3.243  0.9598 -0.0233  1.2125
18689SOL    HW259470   2.615   5.231   3.358 -1.3086 -0.2138  1.8090
18690SOL     OW59471   0.465   5.705   4.285  0.3044 -0.1162 -0.4323
18690SOL    HW159472   0.381   5.731   4.247 -0.0029 -0.1657  0.1954
18690SOL    HW259473   0.458   5.730   4.377  1.0212 -0.0268 -0.3995
18691SOL     OW59474   8.808   3.078   5.690  0.5391  0.3614  0.4102
18691SOL    HW159475   8.792   3.172   5.694 -0.0595  0.3496 -1.1219
18691SOL    HW259476   8.736   3.043   5.636  1.4752 -0.7811 -0.1533
18692SOL     OW59477   6.732  10.917   9.680  0.1222 -0.7898 -0.1096
18692SOL    HW159478   6.690  11.003   9.684 -2.3555 -1.9516  0.6479
18692SOL    HW259479   6.776  10.915   9.595 -0.4822  0.9021 -0.4885
18693SOL     OW59480   4.874   7.957   2.992 -0.5882 -0.1622  0.2940
18693SOL    HW159481   4.923   7.884   3.030  0.4693  0.3587 -0.0323
18693SOL    HW259482   4.822   7.916   2.923  0.8475 -0.4915 -0.6581
18694SOL     OW59483   8.989   1.781   0.952  0.1572 -0.0099 -0.4070
18694SOL    HW159484   8.969   1.875   0.948 -1.4725 -0.2989  0.3321
18694SOL    HW259485   8.914   1.739   0.910  0.6694 -1.0225 -0.3277
18695SOL     OW59486   6.812   8.191  10.819  0.3708 -0.0661 -0.0152
18695SOL    HW159487   6.854   8.200  10.734 -0.1382  0.2202 -0.2433
18695SOL    HW259488   6.871   8.236  10.880  1.2115 -1.0972 -0.0533
18696SOL     OW59489   7.480   7.674   8.944 -0.2105  0.2034  0.3590
18696SOL    HW159490   7.473   7.601   9.005 -1.1588 -0.3748 -0.3958
18696SOL    HW259491   7.560   7.657   8.895 -1.0780 -1.0964 -0.7053
18697SOL     OW59492   4.730   3.378   4.725 -0.3387 -0.0708 -0.1921
18697SOL    HW159493   4.749   3.405   4.636 -1.9624  1.2614 -0.1883
18697SOL    HW259494   4.745   3.457   4.778 -0.3231 -0.5773  0.5792
18698SOL     OW59495   0.552  10.394   3.678  1.0613 -0.6957 -0.0405
18698SOL    HW159496   0.538  10.353   3.764 -0.9439 -1.3404 -0.6100
18698SOL    HW259497   0.626  10.453   3.692  1.5193 -1.5989  1.8326
18699SOL     OW59498   9.518   1.443   9.548  0.2367 -0.4294 -0.8947
18699SOL    HW159499   9.438   1.468   9.502  0.5613 -0.1770 -1.3353
18699SOL    HW259500   9.538   1.517   9.605  0.2369 -0.4255 -0.9002
18700SOL     OW59501   4.187   2.068   6.744  0.1335  0.0335  0.1627
18700SOL    HW159502   4.141   2.062   6.827  0.0564  0.2606  0.1388
18700SOL    HW259503   4.221   1.980   6.728 -0.4765 -0.1849  0.0692
18701SOL     OW59504   8.324   1.523   0.294  0.0394  0.0914  0.3738
18701SOL    HW159505   8.394   1.462   0.273  1.4997  1.2572  1.5942
18701SOL    HW259506   8.319   1.521   0.390 -2.2278 -0.5826  0.3215
18702SOL     OW59507   7.677   7.671   3.094  0.0592  0.0931 -0.1121
18702SOL    HW159508   7.687   7.645   3.186 -0.3457  0.2030 -0.0362
18702SOL    HW259509   7.583   7.667   3.078  0.2549 -1.5088 -0.9942
18703SOL     OW59510   0.745   6.570   5.229  0.2300 -0.7334 -0.0002
18703SOL    HW159511   0.762   6.561   5.135  1.2507 -1.9858  0.2759
18703SOL    HW259512   0.818   6.525   5.271  0.5069  0.9426  1.4471
18704SOL     OW59513  10.379   9.772   0.615  0.7610  0.4506  0.1853
18704SOL    HW159514  10.321   9.700   0.639 -2.0831  2.9087  1.5003
18704SOL    HW259515  10.350   9.798   0.527  0.2198  1.3316  0.6117
18705SOL     OW59516   0.038   9.811   9.309  0.4548 -0.1229  0.4354
18705SOL    HW159517   0.123   9.821   9.352  0.6222 -3.1066  0.9800
18705SOL    HW259518  -0.002   9.734   9.350 -1.9845  0.4223 -0.6984
18706SOL     OW59519   0.072   7.380  10.068 -0.0730  0.3658  0.1681
18706SOL    HW159520   0.118   7.366  10.151  0.6850  2.5352  0.1769
18706SOL    HW259521   0.134   7.430  10.015 -1.3489  0.8355 -0.9297
18707SOL     OW59522   0.844   9.872   6.600 -0.8274  0.0285 -0.5584
18707SOL    HW159523   0.838   9.893   6.693 -1.4814 -0.1790 -0.5477
18707SOL    HW259524   0.840   9.776   6.597  1.8620 -0.1429 -0.6229
18708SOL     OW59525   2.155   7.877   6.934  0.2858  0.0402  0.0733
18708SOL    HW159526   2.175   7.855   6.843  2.6616 -0.0986  0.5758
18708SOL    HW259527   2.078   7.934   6.928  1.5782  1.7221 -2.2189
18709SOL     OW59528   1.248   7.260   1.943 -0.5876  0.4142 -0.4010
18709SOL    HW159529   1.215   7.348   1.927  1.5044  1.2177 -0.6507
18709SOL    HW259530   1.242   7.216   1.858 -0.8842  0.5773 -0.4653
18710SOL     OW59531   2.697  10.130   7.828  0.0789 -0.3588 -0.3438
18710SOL    HW159532   2.745  10.085   7.898  0.2299 -2.9611 -1.9736
18710SOL    HW259533   2.762  10.144   7.760 -0.6253 -0.2841 -1.0107
18711SOL     OW59534   9.345  10.009   6.384  0.0370  0.0836 -0.0789
18711SOL    HW159535   9.281   9.974   6.446  0.0786  0.0629 -0.0469
18711SOL    HW259536   9.358   9.938   6.321 -0.9363  0.5560 -0.8298
18712SOL     OW59537   0.287  10.784   7.911 -0.0256 -0.1888 -0.1471
18712SOL    HW159538   0.379  10.758   7.911  0.1811  0.4227  1.3348
18712SOL    HW259539   0.279  10.847   7.838  0.6931 -0.3376 -0.3564
18713SOL     OW59540   8.450   6.332   7.147 -0.1607  0.0739 -0.3788
18713SOL    HW159541   8.498   6.367   7.072  0.7146 -0.5634 -0.1358
18713SOL    HW259542   8.491   6.372   7.223 -1.1975  0.8948 -0.2246
18714SOL     OW59543   0.099   3.272  10.264  0.1793 -0.0530  0.5128
18714SOL    HW159544   0.114   3.275  10.358 -0.8115  2.1833  0.6548
18714SOL    HW259545   0.012   3.310  10.252  0.9399  1.2372 -1.4080
18715SOL     OW59546   0.816   3.630   3.272 -0.0071  0.4549 -0.3045
18715SOL    HW159547   0.726   3.662   3.275  0.4022  1.7616 -1.1117
18715SOL    HW259548   0.808   3.537   3.252 -1.1869  0.4105  0.2887
18716SOL     OW59549  10.283  10.782   8.221  0.0899 -0.1272  0.2625
18716SOL    HW159550  10.334  10.702   8.234 -0.4095 -0.2978  1.2029
18716SOL    HW259551  10.236  10.767   8.139  1.2263 -0.1307 -0.4077
18717SOL     OW59552   3.409   2.533   9.672  0.1852 -0.0554  0.0004
18717SOL    HW159553   3.448   2.487   9.746  0.2148 -0.2187 -0.1137
18717SOL    HW259554   3.482   2.546   9.611  0.4717  1.3580  0.6194
18718SOL     OW59555   3.004   9.681   9.684  0.2058 -0.0801  0.0733
18718SOL    HW159556   2.990   9.756   9.743  1.8483  0.5796 -0.3323
18718SOL    HW259557   3.036   9.720   9.603 -1.4610 -1.0377 -1.1071
18719SOL     OW59558   4.231   1.284   4.649 -0.4264  0.3962 -0.0112
18719SOL    HW159559   4.270   1.249   4.729  0.2978  2.0206  0.3996
18719SOL    HW259560   4.294   1.348   4.617 -1.0249  0.2935 -1.5176
18720SOL     OW59561   9.731   8.930   4.551 -0.0588  0.4425 -0.7175
18720SOL    HW159562   9.665   8.862   4.540 -0.6951  0.6082  1.5958
18720SOL    HW259563   9.799   8.888   4.604 -0.6957  1.7033  1.1669
18721SOL     OW59564   0.530   3.016   4.201  0.0147 -0.1792 -0.2179
18721SOL    HW159565   0.524   3.106   4.234 -0.1436 -0.3211  0.1525
18721SOL    HW259566   0.506   3.023   4.109 -1.7167 -0.0861  0.2093
18722SOL     OW59567   4.773   3.321   1.463  0.2324  0.3113 -0.0930
18722SOL    HW159568   4.721   3.248   1.431  2.6962 -2.0280  0.8888
18722SOL    HW259569   4.743   3.335   1.553  0.3576 -0.0789  0.0088
18723SOL     OW59570   5.773   8.404   5.989  0.1641 -0.2598 -0.1951
18723SOL    HW159571   5.713   8.397   6.063  0.0190 -2.0979 -0.4450
18723SOL    HW259572   5.842   8.464   6.019 -0.7217  0.2708  0.8254
18724SOL     OW59573   7.498   6.700   3.351  0.4278 -0.1222  0.7517
18724SOL    HW159574   7.433   6.634   3.375 -0.5818  0.5143 -0.0753
18724SOL    HW259575   7.572   6.685   3.409 -0.2286 -1.2632  1.3189
18725SOL     OW59576   4.035  10.482   2.464 -0.7721  0.0254 -0.4166
18725SOL    HW159577   4.070  10.393   2.459  0.1147  0.2889  0.5066
18725SOL    HW259578   3.969  10.478   2.533 -0.3555  0.1729  0.0046
18726SOL     OW59579   5.173   4.879  10.350 -0.4566  0.1834 -0.5922
18726SOL    HW159580   5.158   4.896  10.443  2.0244  0.5832 -0.1922
18726SOL    HW259581   5.268   4.887  10.339 -0.7229  0.6315 -3.2695
18727SOL     OW59582   0.307   2.581   5.840 -0.1649 -0.1302 -0.1845
18727SOL    HW159583   0.363   2.524   5.788 -0.1627  0.7740 -1.2182
18727SOL    HW259584   0.280   2.528   5.915  0.7528 -1.0940 -0.5250
18728SOL     OW59585   1.864   3.633   6.283  0.1197  0.1339  0.0481
18728SOL    HW159586   1.805   3.692   6.236  0.3382  0.4287  0.1409
18728SOL    HW259587   1.818   3.549   6.286 -0.4937  0.4816  0.5187
18729SOL     OW59588   4.357   9.638   4.861 -0.0452  0.8339 -0.4945
18729SOL    HW159589   4.304   9.597   4.793  0.6452 -0.2404 -0.4163
18729SOL    HW259590   4.355   9.576   4.934 -0.1043  1.5908  0.1647
18730SOL     OW59591   2.300   6.630   6.292 -0.9006 -0.1933 -0.1307
18730SOL    HW159592   2.229   6.655   6.232 -0.5302  0.3591 -0.3565
18730SOL    HW259593   2.258   6.625   6.378 -1.1098  0.7136 -0.1644
18731SOL     OW59594   2.736   3.710   7.609 -0.8071  0.2041 -0.2660
18731SOL    HW159595   2.697   3.674   7.530 -1.4685  0.0389  0.1318
18731SOL    HW259596   2.780   3.636   7.650 -0.8973  0.1795 -0.2148
18732SOL     OW59597   5.861   5.278   4.913 -0.3618 -0.0903 -0.0540
18732SOL    HW159598   5.801   5.297   4.986 -2.4291 -1.0352 -1.3963
18732SOL    HW259599   5.881   5.185   4.923 -2.0714 -0.6883 -1.5630
18733SOL     OW59600   0.086   8.262  10.670  0.0640  0.3164  0.3588
18733SOL    HW159601   0.027   8.327  10.631 -0.2979  0.9075  1.8184
18733SOL    HW259602   0.130   8.221  10.595  1.3648  3.2182 -0.6236
18734SOL     OW59603  10.568   4.296   8.659 -0.1354 -0.3348  0.0711
18734SOL    HW159604  10.651   4.325   8.696 -0.8153  0.1584  1.2719
18734SOL    HW259605  10.525   4.377   8.632  0.2778 -0.6730 -1.7128
18735SOL     OW59606   8.089   3.079   7.135 -0.5245  0.2252 -0.3123
18735SOL    HW159607   8.049   3.154   7.177  0.7706  1.8876 -1.8782
18735SOL    HW259608   8.141   3.037   7.204 -1.8156  0.3232  0.7513
18736SOL     OW59609   3.063   3.333   6.817  0.4890 -0.0673  0.1304
18736SOL    HW159610   3.010   3.262   6.853  0.1088 -0.3642 -0.9787
18736SOL    HW259611   3.151   3.296   6.807  0.5994  0.0210  0.7426
18737SOL     OW59612   3.949   8.063   4.737  0.2349 -0.6872 -0.3142
18737SOL    HW159613   3.942   8.096   4.827 -0.1453 -0.6580 -0.3512
18737SOL    HW259614   3.922   8.137   4.682 -2.2283 -1.5102 -0.3331
18738SOL     OW59615   7.887   7.930   2.809  0.1353 -0.3248 -0.5536
18738SOL    HW159616   7.968   7.974   2.782 -0.2177 -0.3301 -1.6837
18738SOL    HW259617   7.831   7.934   2.731 -0.0113 -2.5151 -0.6130
18739SOL     OW59618  10.134  10.261   0.511 -0.4011  0.2640 -0.2387
18739SOL    HW159619  10.126  10.268   0.416  0.8404 -0.4988 -0.4177
18739SOL    HW259620  10.131  10.167   0.529 -0.4666  0.3904  0.4644
18740SOL     OW59621   5.769   1.278   6.425 -1.1063  0.1763  0.2040
18740SOL    HW159622   5.738   1.199   6.381 -1.7509  0.2682  0.4842
18740SOL    HW259623   5.728   1.350   6.378 -1.3965  0.2948  0.6310
18741SOL     OW59624  10.584   9.906   3.134 -0.2687 -0.1058 -0.7402
18741SOL    HW159625  10.508   9.948   3.093 -0.2746  0.2872 -0.3320
18741SOL    HW259626  10.654   9.916   3.069 -0.6785 -0.8950 -1.3238
18742SOL     OW59627   4.716   2.690   6.735  0.2647  0.0500  0.2249
18742SOL    HW159628   4.745   2.599   6.736 -1.6259 -0.8303 -3.6186
18742SOL    HW259629   4.622   2.685   6.718  0.2647  2.6545 -1.1828
18743SOL     OW59630   8.737   4.736   6.029 -0.1683 -0.0038  0.3596
18743SOL    HW159631   8.764   4.799   5.962 -3.2709  1.1306  0.0034
18743SOL    HW259632   8.707   4.660   5.979 -0.4940 -0.0103  0.5628
18744SOL     OW59633   8.049  10.696   7.636 -0.3320 -0.1182 -0.2944
18744SOL    HW159634   8.002  10.717   7.555  1.5372 -2.4545 -2.1484
18744SOL    HW259635   8.065  10.602   7.630  0.4609 -0.2437  2.5266
18745SOL     OW59636   0.207   4.946   0.108  0.9108 -0.9492  0.2618
18745SOL    HW159637   0.253   5.026   0.132  1.1198 -1.2296  0.8134
18745SOL    HW259638   0.121   4.954   0.149  0.8400 -0.8965  0.1051
18746SOL     OW59639   9.483   2.180   7.322  0.2569 -0.1144 -0.0015
18746SOL    HW159640   9.517   2.177   7.232  0.3807 -0.5583  0.0556
18746SOL    HW259641   9.406   2.237   7.317  1.7773  2.0756  0.1248
18747SOL     OW59642   7.311   9.804   4.513  0.0187 -0.7939  0.4378
18747SOL    HW159643   7.374   9.820   4.583  0.9812 -0.0014 -0.5591
18747SOL    HW259644   7.294   9.710   4.516  0.3461 -0.8286  1.4678
18748SOL     OW59645  10.673   2.595   3.572 -0.7501 -0.2433 -0.0007
18748SOL    HW159646  10.658   2.502   3.557 -0.7404 -0.0898 -1.0313
18748SOL    HW259647  10.608   2.620   3.638 -0.3455 -1.1011  0.7423
18749SOL     OW59648   0.026   3.020  10.092 -0.2728  0.6710  0.2824
18749SOL    HW159649  -0.063   3.019  10.127 -0.6759  0.5295 -0.7079
18749SOL    HW259650   0.068   3.095  10.135 -1.2441  1.4732 -0.1215
18750SOL     OW59651   4.702   4.952  10.427 -0.5928 -0.0377 -0.2165
18750SOL    HW159652   4.774   5.010  10.405  1.0627 -1.6234  0.7152
18750SOL    HW259653   4.645   5.005  10.482  1.5579  0.4138  1.7437
18751SOL     OW59654   5.572   7.139   0.820 -0.2098  0.9265 -0.0771
18751SOL    HW159655   5.539   7.049   0.830  0.2565  0.6290 -1.1450
18751SOL    HW259656   5.560   7.178   0.907  1.2337 -0.7256  0.9139
18752SOL     OW59657   2.392   4.903   7.430  0.1365 -0.2587 -0.5376
18752SOL    HW159658   2.359   4.945   7.350 -1.4815  1.3314  0.8961
18752SOL    HW259659   2.330   4.833   7.448 -0.8382  0.8312  0.5184
18753SOL     OW59660   1.526   3.435  10.616 -0.0763  0.4975  0.8733
18753SOL    HW159661   1.533   3.428  10.711 -0.2877 -0.1044  0.8467
18753SOL    HW259662   1.437   3.405  10.596  0.6689 -1.4712  0.2889
18754SOL     OW59663   6.670   3.223   0.767  0.4315 -0.0450  0.0655
18754SOL    HW159664   6.661   3.316   0.784  1.5071  0.3154 -1.2009
18754SOL    HW259665   6.595   3.201   0.712  1.4249  0.6234 -1.6221
18755SOL     OW59666   4.720   9.763   1.318  0.2620 -0.1330  0.0588
18755SOL    HW159667   4.778   9.835   1.294 -0.9008  0.0692 -2.4746
18755SOL    HW259668   4.634   9.804   1.331 -0.4550 -1.0022 -1.5903
18756SOL     OW59669   5.951   8.733   4.003 -0.4549 -0.0522  0.3135
18756SOL    HW159670   5.951   8.827   4.017 -0.8089  0.1313 -0.8065
18756SOL    HW259671   6.042   8.706   4.014 -0.2860  0.4846  0.2235
18757SOL     OW59672   0.628   3.743   9.996 -0.4532  0.0448  0.2550
18757SOL    HW159673   0.673   3.661   9.975 -0.6810 -0.0112 -0.0194
18757SOL    HW259674   0.537   3.728   9.969 -0.5717  0.2600  0.5359
18758SOL     OW59675   3.662   7.038   6.756 -0.1404  0.9244  0.2527
18758SOL    HW159676   3.610   7.022   6.678 -0.8593  1.3305  0.6322
18758SOL    HW259677   3.671   7.133   6.760 -0.9030  0.9783  1.1452
18759SOL     OW59678   3.941   2.353   8.391 -0.1266 -0.7093  0.1240
18759SOL    HW159679   3.947   2.342   8.297  0.3796  0.1540  0.0484
18759SOL    HW259680   3.846   2.356   8.409 -0.2692  1.7987 -0.7128
18760SOL     OW59681   8.629   2.483   1.414 -0.1167 -0.1969 -0.1180
18760SOL    HW159682   8.586   2.527   1.341 -0.5497 -1.6017 -0.7557
18760SOL    HW259683   8.599   2.529   1.492  0.2428  1.2451 -0.8005
18761SOL     OW59684   5.193   4.623   7.244 -0.3278 -0.5067 -0.3250
18761SOL    HW159685   5.186   4.593   7.334 -1.3538  0.0962 -0.1804
18761SOL    HW259686   5.125   4.575   7.197 -2.1710  1.6500 -0.0324
18762SOL     OW59687   5.825   3.228  10.720  0.2580  0.4492 -0.0261
18762SOL    HW159688   5.787   3.295  10.778 -0.2210  1.0420 -1.0004
18762SOL    HW259689   5.853   3.276  10.643 -0.3541 -0.4987 -0.8692
18763SOL     OW59690  10.570   3.991   3.716 -0.6676 -0.0402  0.4651
18763SOL    HW159691  10.654   3.957   3.747 -1.5142 -0.9353  1.9087
18763SOL    HW259692  10.557   3.949   3.630  0.2499 -0.0757  0.3420
18764SOL     OW59693   6.345   1.216   1.188  0.1129  0.1281  0.6204
18764SOL    HW159694   6.321   1.206   1.096 -0.3311 -0.8392  0.8364
18764SOL    HW259695   6.429   1.262   1.186  0.2512 -0.1592 -0.2812
18765SOL     OW59696   6.709   3.834   5.647  0.1144  0.2421 -0.3521
18765SOL    HW159697   6.669   3.905   5.597 -0.2259 -0.2353 -0.7701
18765SOL    HW259698   6.716   3.761   5.584  0.7033 -0.0076 -0.0069
18766SOL     OW59699   5.451   4.371   2.925  0.5725 -0.1351  0.5267
18766SOL    HW159700   5.479   4.416   3.005  0.4918 -1.6977  1.4550
18766SOL    HW259701   5.434   4.281   2.951  0.7694 -0.7587 -1.3062
18767SOL     OW59702   6.595   9.217   0.773  0.0215 -0.4637  0.3708
18767SOL    HW159703   6.567   9.300   0.734  0.0766 -0.5633  0.1148
18767SOL    HW259704   6.594   9.155   0.700  1.2851 -0.3803  0.2612
18768SOL     OW59705   5.500   9.299   2.013 -0.7939 -0.0490  0.4104
18768SOL    HW159706   5.570   9.249   2.055  0.8263  0.7256 -1.2222
18768SOL    HW259707   5.508   9.387   2.048 -0.2211  0.3008 -0.5472
18769SOL     OW59708   1.346   2.118   2.165 -0.1945  0.2719  0.0560
18769SOL    HW159709   1.272   2.059   2.177  0.1117 -0.1832 -0.2313
18769SOL    HW259710   1.388   2.122   2.251 -0.3541  0.2536  0.1339
18770SOL     OW59711   9.491   8.119   0.172  0.0224  0.7167 -0.1224
18770SOL    HW159712   9.453   8.074   0.096 -0.9045  1.2534  0.0126
18770SOL    HW259713   9.440   8.199   0.180  1.9264  2.0402 -0.6184
18771SOL     OW59714   6.499   2.760   4.480 -0.2395  0.0349 -0.0904
18771SOL    HW159715   6.462   2.720   4.402  0.4632 -1.3408  0.2596
18771SOL    HW259716   6.517   2.687   4.539  0.6699  0.9000  0.7548
18772SOL     OW59717   7.713   4.677   2.027  0.2042 -0.5984  0.0662
18772SOL    HW159718   7.683   4.632   2.106 -1.0833  0.7462  0.4000
18772SOL    HW259719   7.657   4.642   1.957 -0.2240 -0.1531  0.1775
18773SOL     OW59720   0.046   5.082  10.289  0.1244 -0.4106 -0.3218
18773SOL    HW159721   0.021   5.145  10.357 -0.2080  0.7866 -1.5189
18773SOL    HW259722   0.129   5.045  10.320 -0.8354 -1.1664  1.5474
18774SOL     OW59723   4.093   7.022   8.186 -0.0277  0.2598  0.4801
18774SOL    HW159724   4.011   6.978   8.163  0.2136  0.2787 -0.4565
18774SOL    HW259725   4.086   7.039   8.280 -1.0525  0.1766  0.4250
18775SOL     OW59726   3.414   3.878   8.165 -0.4813 -0.0061 -0.2866
18775SOL    HW159727   3.467   3.956   8.145  0.5041 -0.8017 -0.8982
18775SOL    HW259728   3.333   3.891   8.116 -0.3727  0.6933 -0.2870
18776SOL     OW59729   4.787   7.437  10.038  0.3320 -0.2908 -0.2289
18776SOL    HW159730   4.835   7.486  10.105 -1.3076  0.6077  0.3452
18776SOL    HW259731   4.703   7.417  10.079 -0.0945 -1.1576 -1.4679
18777SOL     OW59732   5.349   0.496   6.239 -0.0346  0.0078 -0.2579
18777SOL    HW159733   5.310   0.417   6.201  0.2490 -0.2477 -0.0235
18777SOL    HW259734   5.313   0.568   6.187  0.2304 -0.3239 -0.9106
18778SOL     OW59735   1.425   5.463   2.555 -0.2348 -0.2326 -0.3382
18778SOL    HW159736   1.374   5.485   2.633  1.0949 -0.5856  0.6584
18778SOL    HW259737   1.360   5.426   2.495 -1.3011  0.1058  0.5551
18779SOL     OW59738   0.971   1.706   0.049  0.8639 -0.0015  0.2764
18779SOL    HW159739   0.946   1.779   0.106 -1.6517 -0.4815 -0.0775
18779SOL    HW259740   1.007   1.749  -0.029  0.6291  0.8247  0.6081
18780SOL     OW59741   8.008   6.035   6.741 -0.3135  0.0343 -0.1206
18780SOL    HW159742   7.941   5.967   6.747 -0.2123 -0.0552  0.0023
18780SOL    HW259743   7.989   6.080   6.659 -0.0277 -0.5246 -0.5002
18781SOL     OW59744   2.731   7.891   7.428 -0.0772 -0.3616  0.2690
18781SOL    HW159745   2.723   7.814   7.485 -0.6402  0.0111  0.7015
18781SOL    HW259746   2.824   7.914   7.432  0.1030 -1.0494  0.0975
18782SOL     OW59747   1.049   5.904   8.883  0.6806  0.0022 -0.4430
18782SOL    HW159748   1.102   5.963   8.829  1.2262 -0.6321 -0.6209
18782SOL    HW259749   1.097   5.897   8.966 -0.3748  1.3120  0.3149
18783SOL     OW59750   3.749   9.197   6.181  0.1590  0.4445  0.4532
18783SOL    HW159751   3.738   9.238   6.267 -1.7414 -0.0077  0.4733
18783SOL    HW259752   3.710   9.111   6.191  1.0574 -0.0929 -0.5400
18784SOL     OW59753   6.447   3.064   3.381 -0.0028  0.4627 -0.0755
18784SOL    HW159754   6.486   3.016   3.454 -0.1278 -0.4600 -0.5937
18784SOL    HW259755   6.374   3.007   3.352  0.2669  0.6362 -1.1372
18785SOL     OW59756   6.665   4.708   0.466 -0.3351  0.5616  0.5724
18785SOL    HW159757   6.724   4.743   0.399  0.1725  0.1496  0.7913
18785SOL    HW259758   6.724   4.666   0.529 -0.9247 -1.3829 -0.0869
18786SOL     OW59759   2.637   6.429   4.595  0.1229  0.2469 -0.2249
18786SOL    HW159760   2.691   6.508   4.596  1.2784 -0.5104 -0.3798
18786SOL    HW259761   2.561   6.453   4.542  1.0009  0.9323 -1.2397
18787SOL     OW59762  10.848   3.070   2.058  0.4247 -0.1534  0.5434
18787SOL    HW159763  10.914   3.133   2.087  0.3378  0.2600 -0.1298
18787SOL    HW259764  10.827   3.097   1.968 -0.3230 -0.5562  0.5881
18788SOL     OW59765   5.324   5.151   3.409  0.0587 -0.6178 -0.2451
18788SOL    HW159766   5.279   5.069   3.388 -2.4040  0.5113  0.3524
18788SOL    HW259767   5.256   5.218   3.405  1.6520  1.1726  0.9350
18789SOL     OW59768   1.106   2.546   6.938  0.2376  0.3052  0.4376
18789SOL    HW159769   1.088   2.566   6.846  1.2653  2.2442  0.6040
18789SOL    HW259770   1.200   2.558   6.947  0.2271 -0.3864  1.6435
18790SOL     OW59771   8.139   1.622   6.302 -0.5822  0.2012 -0.3474
18790SOL    HW159772   8.049   1.605   6.329 -0.6161  1.7809  0.6790
18790SOL    HW259773   8.161   1.706   6.343  1.1433  0.1654 -1.1025
18791SOL     OW59774   9.025   7.294   6.578 -0.4070  0.6872 -0.2828
18791SOL    HW159775   8.932   7.274   6.566 -0.4998  0.6883  0.4076
18791SOL    HW259776   9.026   7.363   6.645 -0.1266  3.2361 -2.7127
18792SOL     OW59777   5.636   3.583   6.842  0.4906 -0.0574  0.3698
18792SOL    HW159778   5.610   3.561   6.931  1.7408  2.6237  1.5164
18792SOL    HW259779   5.697   3.513   6.817  0.8850 -0.3491  2.0147
18793SOL     OW59780   8.488   2.221   8.923 -0.2706 -0.4205  0.9652
18793SOL    HW159781   8.550   2.201   8.993  1.4518  2.0050  0.2563
18793SOL    HW259782   8.418   2.271   8.966  1.8479  3.0080  0.8462
18794SOL     OW59783   6.617  10.250   0.720  0.1673  0.3054 -0.2489
18794SOL    HW159784   6.621  10.248   0.625 -0.3141 -1.2773 -0.2680
18794SOL    HW259785   6.528  10.221   0.741  0.1305  1.0383  0.6763
18795SOL     OW59786  10.389   1.386  10.682 -0.4281  0.0308 -0.7092
18795SOL    HW159787  10.468   1.374  10.629  0.8532 -0.3212  1.1727
18795SOL    HW259788  10.342   1.457  10.638  1.6825  1.2926 -1.0979
18796SOL     OW59789   5.179   5.744   0.247  0.2846  0.0118  0.0895
18796SOL    HW159790   5.162   5.674   0.311  1.8888  0.6543  1.2960
18796SOL    HW259791   5.233   5.807   0.295  2.1529  0.2051 -2.0723
18797SOL     OW59792   6.036   0.810   4.902  0.5394  0.3466 -0.4499
18797SOL    HW159793   5.968   0.873   4.879  1.8934  1.9689 -0.2217
18797SOL    HW259794   6.067   0.838   4.988  2.0258  0.1451 -0.8875
18798SOL     OW59795   5.227   8.988   4.287 -0.2272 -0.6480  0.6848
18798SOL    HW159796   5.201   9.076   4.260 -1.1020 -1.5704 -1.7969
18798SOL    HW259797   5.146   8.947   4.318 -0.0369 -0.9180  0.8331
18799SOL     OW59798   5.451   9.861   8.618  0.2496  0.1162  0.3073
18799SOL    HW159799   5.501   9.837   8.540 -0.3234  1.2904 -0.4505
18799SOL    HW259800   5.394   9.785   8.634  1.4848 -0.7897  0.5562
18800SOL     OW59801   0.909   0.151   1.767 -0.2306 -0.0714 -0.1292
18800SOL    HW159802   0.881   0.229   1.814 -1.8337  0.4035 -1.7613
18800SOL    HW259803   0.862   0.079   1.809  0.3031 -0.0146  0.5871
18801SOL     OW59804   8.445   4.169  10.711 -0.2315 -0.6861  0.5879
18801SOL    HW159805   8.382   4.114  10.665 -0.9301  0.0049  0.6987
18801SOL    HW259806   8.429   4.154  10.804 -0.6486 -0.0627  0.6238
18802SOL     OW59807   3.600   5.912   7.608 -0.0583 -0.2029 -0.9488
18802SOL    HW159808   3.597   6.007   7.623  2.7064 -0.2423  0.5162
18802SOL    HW259809   3.543   5.875   7.676  2.6318  0.2880  1.7996
18803SOL     OW59810   5.823   4.637   8.517 -0.0577  0.6366  0.0778
18803SOL    HW159811   5.750   4.594   8.472  0.2824 -0.7632  0.8212
18803SOL    HW259812   5.902   4.599   8.477  0.3540 -3.1640  3.8758
18804SOL     OW59813   5.832   3.257   4.326 -0.1822 -0.3373 -0.2406
18804SOL    HW159814   5.916   3.213   4.316  1.2047  2.2439 -0.8629
18804SOL    HW259815   5.827   3.316   4.251 -2.6146 -0.4383 -0.2411
18805SOL     OW59816   2.996   1.078  10.566  0.1868 -0.0048  0.5059
18805SOL    HW159817   3.066   1.136  10.535 -0.8608 -0.0508 -2.1189
18805SOL    HW259818   2.938   1.135  10.616  1.3926  0.2624  1.6882
18806SOL     OW59819   0.777   9.569   5.042 -0.0255 -0.4826  0.1298
18806SOL    HW159820   0.724   9.564   5.122  1.4562 -1.4044  1.1026
18806SOL    HW259821   0.867   9.576   5.073  0.4821  0.6099 -1.4853
18807SOL     OW59822   6.271   4.092   2.027  0.9328 -0.3127  0.3551
18807SOL    HW159823   6.226   4.171   1.997  0.4698 -0.2159  1.2639
18807SOL    HW259824   6.212   4.021   2.002  2.2095 -0.5925 -2.1695
18808SOL     OW59825   4.995   1.551   6.656  0.0869  0.4602 -0.6954
18808SOL    HW159826   5.010   1.484   6.722  0.2106  2.0333  0.9461
18808SOL    HW259827   5.081   1.567   6.617  0.2634  0.4300 -0.3202
18809SOL     OW59828   8.937   9.252   8.982  0.0298  0.0255 -0.2249
18809SOL    HW159829   8.993   9.194   8.929 -0.3287  0.0476 -0.6298
18809SOL    HW259830   8.969   9.240   9.072  1.2102  0.6407 -0.5457
18810SOL     OW59831   3.982  10.585   9.817  0.6315 -0.1109  0.8039
18810SOL    HW159832   3.960  10.523   9.887 -0.5901  1.8543  2.2410
18810SOL    HW259833   3.901  10.594   9.766  1.4300 -1.3093 -0.7626
18811SOL     OW59834   1.766   8.765   1.835  0.1969  0.7198 -0.1104
18811SOL    HW159835   1.824   8.712   1.781  2.1335  1.9692  0.6450
18811SOL    HW259836   1.706   8.702   1.876  1.0797 -0.6243 -0.8394
18812SOL     OW59837   4.158   8.739   1.020  0.2017  0.2290  0.0203
18812SOL    HW159838   4.163   8.700   1.107  1.0625 -1.5028 -0.7533
18812SOL    HW259839   4.099   8.814   1.030 -0.3673 -0.4272  1.8988
18813SOL     OW59840   7.376   7.125   4.476  0.2054  0.6083  0.5101
18813SOL    HW159841   7.344   7.066   4.545  3.5019  1.1924  2.7829
18813SOL    HW259842   7.442   7.073   4.430  0.1302  1.2094 -0.2932
18814SOL     OW59843  10.714   8.355   2.515  0.0980 -0.0577 -0.4286
18814SOL    HW159844  10.741   8.388   2.429  1.6160  0.9409  0.3843
18814SOL    HW259845  10.769   8.278   2.529  0.5039  0.3082  0.0199
18815SOL     OW59846   5.785   3.596   9.464  0.5046  1.0583 -0.1201
18815SOL    HW159847   5.848   3.545   9.515 -0.0327  0.8601  0.3604
18815SOL    HW259848   5.835   3.626   9.388  0.8818 -0.0351 -0.3312
18816SOL     OW59849   3.538   5.535   4.771 -0.0289  0.5100 -0.3791
18816SOL    HW159850   3.512   5.525   4.863  0.4304  0.0668 -0.2931
18816SOL    HW259851   3.601   5.607   4.772 -0.1783  0.6415 -0.3787
18817SOL     OW59852   7.326   2.031   7.755 -0.3289 -0.4472  0.0851
18817SOL    HW159853   7.361   1.943   7.765  2.2542  0.4689 -0.1620
18817SOL    HW259854   7.339   2.072   7.841  2.4668  0.9243 -0.8653
18818SOL     OW59855   4.324   9.471   3.513  0.4204  0.1322 -0.7558
18818SOL    HW159856   4.353   9.451   3.424 -0.1332 -0.2322 -0.8637
18818SOL    HW259857   4.306   9.565   3.512  2.2896  0.5268 -0.4653
18819SOL     OW59858   7.249   6.722   9.538 -0.1593 -0.1449  0.2564
18819SOL    HW159859   7.193   6.654   9.502 -0.9202  0.6792 -0.1542
18819SOL    HW259860   7.189   6.794   9.559  0.5738  0.2529  1.0393
18820SOL     OW59861  10.612   4.714   0.373 -1.1134  0.4330 -0.3318
18820SOL    HW159862  10.692   4.708   0.321 -0.9635  0.6970 -0.1327
18820SOL    HW259863  10.642   4.718   0.463 -1.3889 -0.4062 -0.1977
18821SOL     OW59864   0.176   2.471   8.184 -0.3316  0.6899  0.3817
18821SOL    HW159865   0.250   2.523   8.214 -0.8157  0.8748  1.2791
18821SOL    HW259866   0.148   2.421   8.261 -0.1314 -0.6022 -0.3553
18822SOL     OW59867   5.553   1.095   3.882  0.4211  0.0179  0.2506
18822SOL    HW159868   5.502   1.022   3.848 -0.1323  0.5427 -0.0555
18822SOL    HW259869   5.583   1.142   3.804 -0.8268  1.2130  0.4618
18823SOL     OW59870   9.401   7.802   3.689 -0.3084 -0.2140 -0.8427
18823SOL    HW159871   9.410   7.771   3.598  0.3666 -0.2810 -0.7568
18823SOL    HW259872   9.322   7.759   3.720 -0.8564  0.2380 -1.5740
18824SOL     OW59873   3.232   7.065   7.147  0.4253 -0.1013 -0.0522
18824SOL    HW159874   3.281   6.996   7.192 -1.3503 -0.1570  1.9584
18824SOL    HW259875   3.202   7.122   7.218 -1.4965  0.4962 -1.2848
18825SOL     OW59876   8.586   2.134  10.528  0.1171 -0.2903  0.2081
18825SOL    HW159877   8.584   2.186  10.609  2.7601  0.0382  0.1229
18825SOL    HW259878   8.578   2.044  10.557  2.6707 -0.3052  1.0713
18826SOL     OW59879   0.178   8.166   4.376  0.2886 -0.2524  0.0102
18826SOL    HW159880   0.189   8.099   4.444  0.0784 -0.9425 -0.6241
18826SOL    HW259881   0.267   8.196   4.357  0.4770 -1.0610 -0.3983
18827SOL     OW59882   2.543   3.477   9.189  0.2100  0.1488  0.1528
18827SOL    HW159883   2.458   3.498   9.229 -1.4309 -0.7473 -2.5692
18827SOL    HW259884   2.552   3.383   9.200  0.5732  0.1572 -0.0634
18828SOL     OW59885   9.322   0.266   1.362 -0.6475  0.1120  0.3399
18828SOL    HW159886   9.255   0.199   1.345  0.7747 -1.4963  0.8019
18828SOL    HW259887   9.376   0.228   1.431  1.9031  0.5019 -1.3342
18829SOL     OW59888   1.972   4.672   1.362  0.2242  0.7142 -0.1822
18829SOL    HW159889   1.971   4.576   1.361 -1.0344  0.6907  0.6997
18829SOL    HW259890   2.063   4.695   1.381  0.0431 -0.3953  2.3793
18830SOL     OW59891   6.258  10.005   6.705  0.6706  0.0151 -0.6219
18830SOL    HW159892   6.284  10.038   6.791 -0.6598  2.7310 -1.1489
18830SOL    HW259893   6.222  10.081   6.660 -0.9760 -1.8315 -2.6832
18831SOL     OW59894   5.180   4.029   6.109 -0.4929  0.7835  0.1766
18831SOL    HW159895   5.119   4.026   6.036 -1.1765 -1.0754  0.7625
18831SOL    HW259896   5.135   4.081   6.176 -0.6278  0.9943 -0.0760
18832SOL     OW59897   1.739   2.617   7.520  0.1343  0.5789 -0.3328
18832SOL    HW159898   1.656   2.633   7.565  0.4830  2.7717 -0.3370
18832SOL    HW259899   1.765   2.529   7.548 -2.0322 -0.0657 -0.1262
18833SOL     OW59900   1.717   3.738   1.931 -0.0570  0.3773  0.0692
18833SOL    HW159901   1.633   3.696   1.948 -0.2238  1.1478  1.3164
18833SOL    HW259902   1.744   3.773   2.016  1.2767  0.5953 -0.4188
18834SOL     OW59903   3.957   2.661   8.861  0.1587 -0.2412  0.0066
18834SOL    HW159904   3.970   2.755   8.848 -2.0113  0.5532  2.6241
18834SOL    HW259905   4.041   2.629   8.892  0.9310  0.7921 -0.9024
18835SOL     OW59906   4.128   8.560  10.090  0.2825 -0.1075 -0.2457
18835SOL    HW159907   4.177   8.525  10.166  2.1878  1.6204 -0.5830
18835SOL    HW259908   4.036   8.543  10.111  0.7380  0.2116  2.4314
18836SOL     OW59909  10.824   4.559   3.731 -0.0247  0.4443 -0.2829
18836SOL    HW159910  10.862   4.632   3.682 -1.7586  2.1286  0.7082
18836SOL    HW259911  10.889   4.537   3.797  1.5412 -0.5957 -2.0713
18837SOL     OW59912  10.018   4.149   5.915 -0.5170  0.2888 -0.1277
18837SOL    HW159913  10.112   4.164   5.921 -0.8540  2.4593  0.6142
18837SOL    HW259914   9.990   4.137   6.005 -1.1575  1.2015 -0.1951
18838SOL     OW59915   1.536   4.860   8.804 -0.3251 -0.1280  0.8354
18838SOL    HW159916   1.594   4.812   8.745 -0.3257  0.0704  0.6734
18838SOL    HW259917   1.557   4.827   8.891 -2.1497 -2.4016  0.5267
18839SOL     OW59918   1.889   5.037   5.347  0.1539  0.0738 -0.2391
18839SOL    HW159919   1.820   5.073   5.403  0.0255  0.3365 -0.5625
18839SOL    HW259920   1.966   5.089   5.369  0.2064 -0.0988 -0.0093
18840SOL     OW59921   0.552   8.060  10.149  0.3118  0.3818 -0.4349
18840SOL    HW159922   0.462   8.028  10.155 -0.0047  1.3506  0.4224
18840SOL    HW259923   0.591   8.009  10.079 -0.6294 -0.7117 -0.1958
18841SOL     OW59924   5.674   7.658   1.500 -0.7193 -0.8609 -0.4732
18841SOL    HW159925   5.641   7.568   1.502  0.3902 -1.2701  1.1205
18841SOL    HW259926   5.647   7.695   1.584  1.5862 -0.7740  0.3008
18842SOL     OW59927   6.292   4.245   9.837  0.0818  0.1646  0.3776
18842SOL    HW159928   6.256   4.330   9.814 -0.4446  0.2625  1.4821
18842SOL    HW259929   6.219   4.198   9.876  0.4208 -0.7236 -0.0238
18843SOL     OW59930   0.045   6.187   6.867 -0.5681  0.4313 -0.7085
18843SOL    HW159931   0.010   6.276   6.869  1.9663  1.5119 -0.4472
18843SOL    HW259932   0.127   6.194   6.818 -0.2052 -1.7425 -0.5317
18844SOL     OW59933   8.441   5.593   6.465  0.2465 -0.2159  0.3878
18844SOL    HW159934   8.392   5.528   6.416  0.2114 -0.6053  0.9369
18844SOL    HW259935   8.469   5.656   6.399 -0.2185 -0.4716 -0.0593
18845SOL     OW59936   3.557   9.911   2.983  0.0135 -0.2688  0.2401
18845SOL    HW159937   3.537   9.899   2.890  0.5468  0.6073  0.0054
18845SOL    HW259938   3.561   9.822   3.018 -2.1101 -0.5637 -0.1524
18846SOL     OW59939   7.660   9.571   2.564  0.3869 -0.3032  0.3092
18846SOL    HW159940   7.720   9.646   2.562 -0.3440  0.3016  0.4802
18846SOL    HW259941   7.622   9.569   2.477  0.2808 -0.3748  0.3579
18847SOL     OW59942   9.319   1.684   3.285 -0.4686 -0.0563 -0.1133
18847SOL    HW159943   9.250   1.626   3.319  0.2386 -0.5480  0.5195
18847SOL    HW259944   9.316   1.671   3.190  0.1384 -1.7066  0.0595
18848SOL     OW59945   4.608   6.210   0.922 -0.1394 -0.7436  0.9127
18848SOL    HW159946   4.680   6.233   0.981  1.6937  0.5704 -1.6201
18848SOL    HW259947   4.630   6.123   0.889  0.6662 -0.1060 -0.2996
18849SOL     OW59948   4.016  10.387  10.034  0.0448  0.1376  0.7069
18849SOL    HW159949   3.960  10.310  10.029 -0.5792  0.5205  1.4924
18849SOL    HW259950   4.035  10.396  10.127 -0.6671  1.4668  0.7423
18850SOL     OW59951   0.094   2.314  10.844 -0.2998  0.0439 -0.0372
18850SOL    HW159952   0.168   2.372  10.861 -0.0803 -0.4120  0.5829
18850SOL    HW259953   0.124   2.258  10.772  0.0943 -0.3570  0.4258
18851SOL     OW59954  10.436   0.093   4.059 -0.3845  0.0678 -0.2830
18851SOL    HW159955  10.527   0.066   4.075  0.4266  1.6942 -1.8163
18851SOL    HW259956  10.425   0.086   3.965 -1.1569  1.9174 -0.3637
18852SOL     OW59957   6.284   8.869   3.146 -0.4441 -0.1426  0.1696
18852SOL    HW159958   6.330   8.942   3.187  1.9900 -1.1790 -0.5463
18852SOL    HW259959   6.209   8.910   3.102  1.3798  2.1262 -1.0929
18853SOL     OW59960  10.569   2.239   0.281 -0.0724 -0.2590 -0.6806
18853SOL    HW159961  10.607   2.159   0.317  2.8438  1.2011 -0.1715
18853SOL    HW259962  10.594   2.238   0.188 -0.0683  0.0155 -0.6853
18854SOL     OW59963   7.994  10.554   6.564  0.3963  0.0835 -0.2623
18854SOL    HW159964   7.938  10.622   6.527 -1.5551 -0.9611  0.6121
18854SOL    HW259965   7.945  10.473   6.550 -0.1618 -0.5075  3.7254
18855SOL     OW59966   0.161   7.669   6.543 -0.1679 -0.9993  0.6177
18855SOL    HW159967   0.186   7.619   6.622  3.2313 -0.7668 -0.1515
18855SOL    HW259968   0.215   7.748   6.547 -0.8030 -0.4135 -1.3590
18856SOL     OW59969   5.733   5.291   0.959  0.5590 -0.0507  0.2236
18856SOL    HW159970   5.702   5.201   0.968 -0.5355  0.2897 -0.0707
18856SOL    HW259971   5.658   5.345   0.980  1.4520  0.8250  1.2826
18857SOL     OW59972   5.637   4.009   4.529 -0.1539 -0.0247 -0.3767
18857SOL    HW159973   5.544   3.997   4.513 -0.4952  0.0896  1.3331
18857SOL    HW259974   5.645   4.101   4.557  0.0638 -0.6865  1.8938
18858SOL     OW59975   3.937   6.792   9.704 -0.5370  0.2970  0.2031
18858SOL    HW159976   3.982   6.715   9.669 -1.3360 -0.1312  0.1005
18858SOL    HW259977   3.865   6.808   9.643  0.1037  1.6404 -0.2411
18859SOL     OW59978   3.909   6.042   5.157  0.9535  0.1402  0.1230
18859SOL    HW159979   3.978   6.050   5.091 -1.2238 -1.5946 -2.6025
18859SOL    HW259980   3.834   6.086   5.118 -0.3658 -0.6757  1.6277
18860SOL     OW59981  10.206  10.369   2.684  0.0931  0.3152  0.4429
18860SOL    HW159982  10.111  10.378   2.695 -0.1805 -0.4765 -0.9836
18860SOL    HW259983  10.223  10.399   2.594  1.0535 -0.4411  0.3513
18861SOL     OW59984  10.141   0.477   9.634 -0.0435  0.2228  0.3584
18861SOL    HW159985  10.059   0.524   9.628  0.5147  1.1211 -0.5685
18861SOL    HW259986  10.117   0.389   9.664 -1.5533 -0.0923 -1.6119
18862SOL     OW59987   0.650   4.581   2.228 -0.3529 -0.8013  0.2233
18862SOL    HW159988   0.675   4.511   2.288  1.3766 -0.3487  0.0834
18862SOL    HW259989   0.658   4.542   2.141 -1.6077 -1.0757  0.2134
18863SOL     OW59990   3.458   9.678   9.948 -0.4864 -0.0795  0.1053
18863SOL    HW159991   3.389   9.702   9.887 -0.1957  0.2664 -0.0897
18863SOL    HW259992   3.449   9.583   9.959 -1.6478  0.1016  0.8921
18864SOL     OW59993   1.261   5.014   5.392 -0.2435  0.5070 -0.3910
18864SOL    HW159994   1.332   4.986   5.451 -1.0258  2.1301  1.4158
18864SOL    HW259995   1.207   5.072   5.446 -1.7401  1.0326 -2.3712
18865SOL     OW59996   1.061   8.723   3.432 -0.1692  0.0051 -0.4850
18865SOL    HW159997   0.972   8.688   3.443  0.3048 -1.2009 -0.3212
18865SOL    HW259998   1.053   8.787   3.361 -1.2319  0.1750 -0.2274
18866SOL     OW59999   5.744  10.729  10.586 -0.0612 -0.2902 -0.2610
18866SOL    HW160000   5.736  10.812  10.540  0.1863 -0.5434 -0.7666
18866SOL    HW260001   5.692  10.741  10.666 -1.7223 -0.3296 -1.2746
18867SOL     OW60002   5.609   5.056   2.258  0.4329 -0.4942 -0.6889
18867SOL    HW160003   5.673   5.106   2.207 -0.6413  1.5188 -0.1719
18867SOL    HW260004   5.526   5.103   2.245 -0.2847 -1.1511  1.2041
18868SOL     OW60005   0.307  10.090   8.048  0.1009 -0.1063  0.2469
18868SOL    HW160006   0.391  10.050   8.071  0.9525  1.4916  0.0479
18868SOL    HW260007   0.243  10.042   8.101  1.1171 -1.3481  0.4149
18869SOL     OW60008   2.777   3.652   7.244  0.2922 -0.1804  0.1291
18869SOL    HW160009   2.787   3.648   7.149  1.4148 -0.6924  0.2465
18869SOL    HW260010   2.748   3.742   7.261  0.7626  0.1364 -0.6507
18870SOL     OW60011   0.012   9.674   0.447 -0.3082  0.4095 -0.0545
18870SOL    HW160012   0.070   9.722   0.389  0.0228 -1.8149 -1.6691
18870SOL    HW260013  -0.059   9.736   0.466  0.9779  2.1206 -0.5355
18871SOL     OW60014   7.069   9.668   1.876  0.1060 -0.0107 -0.3503
18871SOL    HW160015   7.010   9.725   1.925 -0.8678 -0.1199 -1.3643
18871SOL    HW260016   7.044   9.579   1.901 -1.3927 -0.1339 -2.0705
18872SOL     OW60017   7.564   4.184   2.280 -0.3705 -0.3259  0.0818
18872SOL    HW160018   7.487   4.141   2.318 -1.6097  1.4767 -0.2511
18872SOL    HW260019   7.592   4.125   2.209 -2.3107 -0.3777 -0.7010
18873SOL     OW60020   8.923   5.403   1.976 -0.7794  0.1162  0.4846
18873SOL    HW160021   8.870   5.369   2.049 -2.0563  2.6175  0.8579
18873SOL    HW260022   8.937   5.327   1.919 -4.1897 -0.8914  0.7532
18874SOL     OW60023   5.221   6.937   4.897 -0.3689  0.3942  0.0204
18874SOL    HW160024   5.234   6.854   4.852  0.1649  0.1488  0.6209
18874SOL    HW260025   5.299   6.948   4.951 -0.9578  0.7170  0.8334
18875SOL     OW60026   6.961   7.949   4.903  0.3896  0.3332 -0.0653
18875SOL    HW160027   6.866   7.945   4.913  0.0887  1.8305 -1.7442
18875SOL    HW260028   6.995   7.957   4.992 -1.0859  0.1598  0.5325
18876SOL     OW60029   3.588   6.612   1.095 -0.0142 -0.0349  0.0170
18876SOL    HW160030   3.493   6.599   1.092  0.1165 -1.0168 -0.2396
18876SOL    HW260031   3.620   6.539   1.147  0.7321 -0.4804 -1.0514
18877SOL     OW60032   9.463   4.540   6.985  0.1055  0.0239 -0.1722
18877SOL    HW160033   9.462   4.540   7.080 -2.3533 -0.9435 -0.1218
18877SOL    HW260034   9.497   4.454   6.961  0.4613  0.1633 -0.1734
18878SOL     OW60035   9.223   7.500   5.210  0.7097 -0.0619  0.0729
18878SOL    HW160036   9.237   7.423   5.155  4.6213  0.8871 -0.6009
18878SOL    HW260037   9.290   7.493   5.278  1.4687  2.8617 -0.2349
18879SOL     OW60038  10.264   4.317   5.630  0.4110 -0.7014  0.3929
18879SOL    HW160039  10.356   4.335   5.652 -0.1272  0.5356  1.7952
18879SOL    HW260040  10.255   4.222   5.644  1.5769 -0.9409 -0.2654
18880SOL     OW60041  10.438   2.998   8.741 -0.1641 -0.2202  0.4252
18880SOL    HW160042  10.356   2.958   8.769  0.1376 -1.2123 -0.0387
18880SOL    HW260043  10.421   3.028   8.652  0.9029 -3.6191 -1.1159
18881SOL     OW60044   4.996   5.590   1.701  0.2485  0.0190  0.1443
18881SOL    HW160045   4.957   5.536   1.770 -0.7508  1.1962  0.5590
18881SOL    HW260046   4.921   5.615   1.646  0.7635  0.5497 -0.3235
18882SOL     OW60047   9.016   0.831   4.261 -0.6266 -0.9406 -0.0125
18882SOL    HW160048   9.033   0.737   4.260 -0.5805 -0.9601 -1.7619
18882SOL    HW260049   9.065   0.865   4.186 -2.4763  0.1080 -0.8254
18883SOL     OW60050   1.481   1.890   8.888 -0.3647 -0.3572 -0.1193
18883SOL    HW160051   1.524   1.956   8.834 -1.3785 -0.4330 -1.0603
18883SOL    HW260052   1.394   1.880   8.849  0.4635 -3.9184 -1.5520
18884SOL     OW60053   0.366   6.628   4.999  0.1950  0.1370  0.4988
18884SOL    HW160054   0.340   6.554   4.944 -2.9987  0.7981  0.9453
18884SOL    HW260055   0.374   6.592   5.087  2.8305 -0.4179  0.1098
18885SOL     OW60056   6.015  10.887  10.315 -0.4248  0.5298 -0.0621
18885SOL    HW160057   6.049  10.928  10.394 -1.1882  2.4159 -0.6387
18885SOL    HW260058   5.920  10.892  10.324 -0.5405  1.8304 -1.5494
18886SOL     OW60059   1.784   3.255   7.994  0.8022 -0.0850  0.6865
18886SOL    HW160060   1.857   3.314   7.975  0.1412  0.3181 -0.7354
18886SOL    HW260061   1.826   3.175   8.025  1.7212  1.1102  2.7888
18887SOL     OW60062   5.696   5.311  10.103 -0.7965 -0.5520  0.5960
18887SOL    HW160063   5.711   5.368  10.029 -0.8987  0.1720  1.1225
18887SOL    HW260064   5.679   5.370  10.177  0.4978 -1.2240  1.4688
18888SOL     OW60065   1.782   2.667   1.579 -0.2266  0.1903 -0.1096
18888SOL    HW160066   1.855   2.619   1.540  0.3928 -1.2218  2.5459
18888SOL    HW260067   1.714   2.666   1.512  1.9525  1.1410 -2.4831
18889SOL     OW60068   2.419   9.406   6.772  0.5224 -0.1023 -0.0089
18889SOL    HW160069   2.438   9.316   6.798  1.0594 -0.0128 -0.0660
18889SOL    HW260070   2.342   9.431   6.823  0.9996 -0.2420  0.7949
18890SOL     OW60071   7.999   5.969   9.287  0.1985 -0.1338 -0.3044
18890SOL    HW160072   7.938   6.005   9.350 -2.3427 -0.1704 -2.5553
18890SOL    HW260073   7.963   5.993   9.201  2.4027 -1.6950 -1.8010
18891SOL     OW60074   3.229   5.434   0.574 -0.1434 -0.4619 -0.3595
18891SOL    HW160075   3.307   5.489   0.581  0.6385 -1.6113  0.2642
18891SOL    HW260076   3.184   5.465   0.495  0.4349  0.8379 -0.1963
18892SOL     OW60077   5.735   2.063   9.468  0.7763 -0.9267 -0.1793
18892SOL    HW160078   5.777   2.148   9.472  0.2720 -0.7219  1.8008
18892SOL    HW260079   5.655   2.078   9.417 -0.8512  0.5707  2.5701
18893SOL     OW60080   9.971   0.601   3.758  0.1528  0.4725 -0.1359
18893SOL    HW160081  10.024   0.548   3.818 -1.6774 -2.1656 -0.6523
18893SOL    HW260082  10.027   0.674   3.733  2.1422 -0.1455  2.1935
18894SOL     OW60083  10.371  10.471   7.928  0.4665  0.3562  0.2924
18894SOL    HW160084  10.395  10.522   7.851  0.0427  1.2289  0.7293
18894SOL    HW260085  10.303  10.412   7.896  0.8520  0.1547 -0.1811
18895SOL     OW60086   7.224  10.447  10.873  0.4341 -0.1540 -0.3388
18895SOL    HW160087   7.177  10.525  10.845  0.8192 -0.2416 -1.2742
18895SOL    HW260088   7.316  10.468  10.858  0.5464 -0.7532 -0.4976
18896SOL     OW60089   2.977   2.516   7.540 -0.6031  0.2320  0.1528
18896SOL    HW160090   3.015   2.583   7.484 -1.6699 -2.0335 -3.6172
18896SOL    HW260091   2.898   2.557   7.576 -0.4919  1.4378 -0.9160
18897SOL     OW60092   0.763  10.031   4.629  0.1074 -0.2824  0.4041
18897SOL    HW160093   0.832  10.017   4.694  1.1489 -1.0391 -0.8130
18897SOL    HW260094   0.754   9.946   4.585  1.4352  0.8687 -2.3076
18898SOL     OW60095   6.239   2.034   8.211 -0.0535  0.8424 -0.3433
18898SOL    HW160096   6.197   2.068   8.291 -1.8897  0.8021 -1.2340
18898SOL    HW260097   6.214   1.942   8.208  1.0355  0.5373 -0.3525
18899SOL     OW60098   1.428   4.630  10.464  0.4963  0.2486 -0.0914
18899SOL    HW160099   1.468   4.549  10.498  1.0342  0.5995  0.1291
18899SOL    HW260100   1.342   4.633  10.506 -0.1095 -0.9240 -1.1782
18900SOL     OW60101   5.001   1.709   8.949  0.0333  0.6656  0.1184
18900SOL    HW160102   5.045   1.656   9.015 -0.3905  0.6526  0.3901
18900SOL    HW260103   5.036   1.797   8.962  1.6887  0.2653 -1.1384
18901SOL     OW60104   5.286   5.580   1.117  0.1797 -0.6936 -0.2636
18901SOL    HW160105   5.289   5.495   1.161 -1.6498 -0.3627  0.5998
18901SOL    HW260106   5.205   5.577   1.067 -0.0408  0.6383 -0.0113
18902SOL     OW60107   0.455   8.008   3.227 -0.1692 -0.1179 -0.0894
18902SOL    HW160108   0.520   7.962   3.280  0.1503  2.3142  1.8566
18902SOL    HW260109   0.501   8.087   3.197 -1.3443  0.1384 -1.3228
18903SOL     OW60110   1.962   0.756   0.022  0.1952  0.1660 -0.4397
18903SOL    HW160111   2.002   0.673   0.045  0.6456  0.3060 -0.6982
18903SOL    HW260112   2.036   0.815   0.005 -0.0974  0.1252 -2.0068
18904SOL     OW60113   3.169   3.225   8.290  0.3572 -0.1121 -0.0486
18904SOL    HW160114   3.128   3.149   8.249 -1.6943  0.1002  1.4499
18904SOL    HW260115   3.177   3.200   8.382  1.1056  0.9042  0.1723
18905SOL     OW60116   8.593   7.535   2.194  0.5708 -0.9429 -0.0687
18905SOL    HW160117   8.526   7.470   2.171 -0.0267 -0.0561 -0.9258
18905SOL    HW260118   8.560   7.617   2.158  0.6770  0.1280  2.1431
18906SOL     OW60119  10.453   1.083   0.286  0.2322 -0.4509 -0.2103
18906SOL    HW160120  10.526   1.044   0.238  0.6202  0.3903 -0.3207
18906SOL    HW260121  10.487   1.099   0.374  0.2770  0.1819 -0.3332
18907SOL     OW60122   0.787   4.943  10.212 -0.1161  0.0935  0.0370
18907SOL    HW160123   0.865   5.000  10.209 -0.7814  1.1022  1.0822
18907SOL    HW260124   0.763   4.931  10.120  0.8136  0.4143 -0.2650
18908SOL     OW60125   7.441   9.526   5.371  0.8657 -0.2157 -0.1090
18908SOL    HW160126   7.388   9.606   5.366  0.7224 -0.3196 -0.2715
18908SOL    HW260127   7.437   9.489   5.283  1.7216  0.0917 -0.2852
18909SOL     OW60128   4.851   1.749   4.745  0.1350 -0.1376  0.3877
18909SOL    HW160129   4.936   1.764   4.785  0.1482 -0.6609  0.5712
18909SOL    HW260130   4.867   1.747   4.651  0.3590 -0.4012  0.4293
18910SOL     OW60131   6.564   0.707   7.962  0.0488 -0.2512 -0.2730
18910SOL    HW160132   6.539   0.799   7.965 -0.0725 -0.2503 -1.1098
18910SOL    HW260133   6.635   0.700   8.025 -0.0765  0.3687 -0.0500
18911SOL     OW60134   0.923   1.789   8.870 -0.0562 -0.0326  0.3250
18911SOL    HW160135   0.894   1.835   8.949 -1.3034 -0.6351  0.2474
18911SOL    HW260136   0.981   1.720   8.902 -0.2082 -0.0009  0.6808
18912SOL     OW60137  10.606   4.656   7.131 -0.7195 -0.2304 -0.1957
18912SOL    HW160138  10.691   4.638   7.092 -0.0166  0.7952  0.8253
18912SOL    HW260139  10.544   4.608   7.076  0.4977 -0.9287 -0.9937
18913SOL     OW60140   1.324   7.733   6.229  0.1593 -0.2768  0.3375
18913SOL    HW160141   1.237   7.695   6.218 -0.0723  0.0126  1.1079
18913SOL    HW260142   1.377   7.692   6.160 -1.5254  2.5296 -2.9153
18914SOL     OW60143   7.328   4.511   0.730 -0.0873  0.0480 -0.4290
18914SOL    HW160144   7.296   4.570   0.661  1.4671  0.9602 -0.4320
18914SOL    HW260145   7.367   4.570   0.795 -1.5349 -0.7910  1.2696
18915SOL     OW60146   5.453   1.538   4.010 -0.7104  0.4344 -0.7397
18915SOL    HW160147   5.383   1.573   3.954  0.1232 -0.5960 -2.5129
18915SOL    HW260148   5.454   1.444   3.991 -0.6144 -0.0182  1.3183
18916SOL     OW60149   7.960   1.687   2.584 -0.0461 -0.5949  0.0089
18916SOL    HW160150   7.975   1.593   2.586 -2.9392 -1.2304 -2.2480
18916SOL    HW260151   7.999   1.716   2.501  1.3690  0.3635  0.9675
18917SOL     OW60152   9.590   7.114   7.653  0.5278  0.0551  0.0132
18917SOL    HW160153   9.524   7.182   7.636  0.6679  0.4935  1.1528
18917SOL    HW260154   9.583   7.055   7.578 -2.0345 -0.6129  0.6946
18918SOL     OW60155   7.521   9.386   6.356  0.0254 -0.1127 -0.0897
18918SOL    HW160156   7.511   9.290   6.357  0.3148 -0.1664 -0.9951
18918SOL    HW260157   7.605   9.400   6.312 -0.9651  0.6034 -1.8274
18919SOL     OW60158   9.861   4.285   9.894 -0.5668 -0.0411 -0.1465
18919SOL    HW160159   9.789   4.302   9.833 -1.5481  2.7169  1.5569
18919SOL    HW260160   9.817   4.256   9.974  0.4358 -0.5491  0.2385
18920SOL     OW60161   0.970   9.880   2.976 -0.0349  0.6163 -0.5841
18920SOL    HW160162   0.908   9.917   2.914 -1.1818 -1.4990 -0.7677
18920SOL    HW260163   1.028   9.825   2.923 -0.1893 -0.1530  0.0253
18921SOL     OW60164   4.783   7.712   1.245 -0.2735  1.1411 -0.7692
18921SOL    HW160165   4.767   7.628   1.201 -0.3910  1.3048 -1.0429
18921SOL    HW260166   4.734   7.706   1.327  1.9602 -0.1736  0.5690
18922SOL     OW60167   2.388   9.344   2.658 -0.0914  0.3350 -0.0544
18922SOL    HW160168   2.477   9.332   2.691 -0.4346 -1.5861  0.2799
18922SOL    HW260169   2.382   9.284   2.584 -0.3275  2.3376 -1.7545
18923SOL     OW60170   7.008   2.001   0.164 -0.0883  0.1155  0.4479
18923SOL    HW160171   7.020   2.064   0.235 -0.8415 -0.3077  0.9736
18923SOL    HW260172   7.028   2.050   0.085 -0.5921  1.0002  0.8508
18924SOL     OW60173   8.729   8.949   8.382  0.4781 -0.7118  0.3507
18924SOL    HW160174   8.646   8.912   8.413 -0.1524  0.6920  0.4068
18924SOL    HW260175   8.759   9.003   8.455  0.5295  0.2074 -0.3428
18925SOL     OW60176   9.217   3.055   8.993 -0.1415  0.0870  0.2488
18925SOL    HW160177   9.184   3.122   8.932 -1.3344  0.3077  1.0940
18925SOL    HW260178   9.249   2.985   8.936 -0.4552  0.6442 -0.6405
18926SOL     OW60179   5.282   7.253   7.237 -0.0663  0.0293 -0.2803
18926SOL    HW160180   5.253   7.318   7.301  0.7901 -1.0828  1.2672
18926SOL    HW260181   5.357   7.295   7.194 -0.7819  0.8656 -0.7761
18927SOL     OW60182   6.776   2.339   6.774 -0.4033  0.0558  0.1442
18927SOL    HW160183   6.842   2.270   6.769 -1.0652 -0.5654 -0.1231
18927SOL    HW260184   6.810   2.400   6.839 -0.0596 -0.7914  0.7754
18928SOL     OW60185   7.936  10.238   7.288  0.3011 -0.1850  0.6070
18928SOL    HW160186   7.847  10.239   7.324  0.1336  1.5133  0.2500
18928SOL    HW260187   7.930  10.182   7.211 -0.7060  0.6266  0.0698
18929SOL     OW60188   9.949   8.549   4.827  0.2383  0.5315 -0.0548
18929SOL    HW160189   9.907   8.464   4.815 -0.3472  0.9502 -1.0910
18929SOL    HW260190  10.017   8.551   4.759  0.5824  0.6859  0.2936
18930SOL     OW60191   6.159  10.466   6.185  0.0610  0.5858 -0.4130
18930SOL    HW160192   6.241  10.513   6.170  0.0895  0.5713 -0.3024
18930SOL    HW260193   6.094  10.535   6.201  0.6885  0.5724  2.9205
18931SOL     OW60194   7.186   3.857   2.199  0.2622  0.0173  0.3624
18931SOL    HW160195   7.187   3.763   2.178 -2.6258 -0.6305  2.4573
18931SOL    HW260196   7.165   3.900   2.116 -0.2712 -1.4020 -0.2715
18932SOL     OW60197   3.142   6.973  10.460 -0.2524  0.4280 -0.0123
18932SOL    HW160198   3.078   7.039  10.484  1.3592  2.1484 -0.2349
18932SOL    HW260199   3.207   6.974  10.531  1.5762  1.5721 -1.5997
18933SOL     OW60200   1.478   7.317   0.210  0.4096 -0.0599  0.2720
18933SOL    HW160201   1.531   7.312   0.130  0.4095 -1.1586  0.3274
18933SOL    HW260202   1.514   7.249   0.267 -0.8516 -0.6265  0.4271
18934SOL     OW60203  10.024   3.920   5.758 -0.8980  0.2704  0.1470
18934SOL    HW160204  10.005   3.956   5.845 -0.3448 -2.1737  1.3474
18934SOL    HW260205   9.940   3.920   5.713 -1.6879 -0.6632  1.5675
18935SOL     OW60206   7.057   1.745   6.455 -0.0655 -0.3665 -0.6034
18935SOL    HW160207   7.148   1.734   6.430 -0.2440  0.3217 -1.6105
18935SOL    HW260208   7.060   1.772   6.546  0.6138 -2.9214  0.2265
18936SOL     OW60209   0.599  10.724   6.905  0.0069 -0.1261  0.0828
18936SOL    HW160210   0.554  10.643   6.931  0.0734 -0.1255  0.2001
18936SOL    HW260211   0.554  10.752   6.825  1.1096 -1.2194 -0.9592
18937SOL     OW60212   5.875   6.789   3.852 -0.6792  0.8681  0.0113
18937SOL    HW160213   5.820   6.866   3.843 -0.3351  1.3327  1.5529
18937SOL    HW260214   5.959   6.823   3.882 -0.5153 -0.0836  0.6887
18938SOL     OW60215   4.646   8.300   8.011  0.3343  0.3622  0.1711
18938SOL    HW160216   4.726   8.273   7.967 -0.9831 -0.9304 -1.5914
18938SOL    HW260217   4.612   8.219   8.049 -1.4030  0.3390 -1.3126
18939SOL     OW60218   3.969  10.355   2.090  0.0940 -0.2497  0.2533
18939SOL    HW160219   3.954  10.445   2.119  0.5013  0.4292 -1.5301
18939SOL    HW260220   4.014  10.363   2.006  0.4454 -2.1337  0.1999
18940SOL     OW60221   7.800   0.090   6.362  0.2337 -0.1088 -0.2608
18940SOL    HW160222   7.854   0.156   6.320  0.6724  0.0456  0.5128
18940SOL    HW260223   7.711   0.124   6.358  0.7051  1.7007  2.1632
18941SOL     OW60224   6.377   5.247   8.699  0.2279 -0.1755 -0.1113
18941SOL    HW160225   6.353   5.161   8.665  0.0085  0.4285 -1.5902
18941SOL    HW260226   6.332   5.254   8.783 -0.4974 -1.1378 -0.4037
18942SOL     OW60227   4.038  10.227   5.359 -0.0401 -0.0541  0.2596
18942SOL    HW160228   4.008  10.207   5.270  0.8210  0.0895 -0.0644
18942SOL    HW260229   4.110  10.166   5.375  1.3590  1.4793 -0.0295
18943SOL     OW60230  10.857   8.395  10.508  0.8718 -0.0435  0.0362
18943SOL    HW160231  10.880   8.482  10.475 -0.2081  1.0375  1.9603
18943SOL    HW260232  10.770   8.378  10.473  0.7531  0.0011  0.3098
18944SOL     OW60233   8.371   9.085   6.422  0.3570 -0.1698  0.3302
18944SOL    HW160234   8.359   9.096   6.328  0.1590  0.2447  0.4009
18944SOL    HW260235   8.316   9.153   6.461 -0.3248 -0.9576  0.7727
18945SOL     OW60236   3.056   8.657   5.288  0.1027  0.4272  0.6094
18945SOL    HW160237   3.125   8.591   5.286 -0.8045 -0.5086 -0.3284
18945SOL    HW260238   3.052   8.684   5.380  1.5741  0.3629  0.7170
18946SOL     OW60239   2.575  10.300   3.544  0.3395  0.4244  0.4537
18946SOL    HW160240   2.654  10.246   3.536  0.4481  0.8368 -2.0587
18946SOL    HW260241   2.585  10.344   3.628  2.1301 -0.5281  0.8048
18947SOL     OW60242   0.931   2.892   1.374 -0.1023  0.2054 -0.2191
18947SOL    HW160243   0.884   2.945   1.310  0.6567  0.6101 -0.4594
18947SOL    HW260244   0.872   2.888   1.450 -1.0704 -0.4056 -0.9807
18948SOL     OW60245   4.960   5.166  10.602  0.6738  0.0278  0.1566
18948SOL    HW160246   4.912   5.135  10.526  0.2504 -1.4161  0.9729
18948SOL    HW260247   5.052   5.150  10.581  0.5493 -0.5041  0.0223
18949SOL     OW60248   8.394   9.454   7.004  0.5109 -0.0887  0.1955
18949SOL    HW160249   8.473   9.443   6.952  1.1982  0.1836  1.1492
18949SOL    HW260250   8.417   9.520   7.070  0.1885 -1.5219  1.8046
18950SOL     OW60251   2.753   0.582   1.618 -0.5243  0.3093  0.0648
18950SOL    HW160252   2.657   0.584   1.614 -0.5480 -1.3776 -1.7475
18950SOL    HW260253   2.781   0.628   1.539  0.0760 -1.1913 -0.6363
18951SOL     OW60254   1.500   6.434   5.639  0.2639  0.7457  0.4146
18951SOL    HW160255   1.563   6.414   5.707 -0.3386  1.2961  1.1517
18951SOL    HW260256   1.503   6.359   5.580  0.6839  0.1951  1.1276
18952SOL     OW60257   6.230   2.882  10.605  0.5040  0.4944  0.1069
18952SOL    HW160258   6.167   2.817  10.575  0.6819  0.9646 -1.3543
18952SOL    HW260259   6.184   2.930  10.674  0.0222 -0.5150  0.5091
18953SOL     OW60260  10.421   4.251   5.082  0.1961  0.0040 -0.0178
18953SOL    HW160261  10.418   4.340   5.118 -1.9357 -0.3247  0.7169
18953SOL    HW260262  10.360   4.253   5.008  1.1602 -0.5182 -0.8503
18954SOL     OW60263   4.345   7.999   0.507  0.7697  0.0719  0.3900
18954SOL    HW160264   4.374   7.996   0.599 -0.8017 -1.1423  0.8898
18954SOL    HW260265   4.307   7.913   0.491 -2.4068  1.4469 -0.2165
18955SOL     OW60266   9.569   6.813   2.347  0.2847  0.1279 -0.1883
18955SOL    HW160267   9.500   6.876   2.370  0.8422  0.5250  0.4141
18955SOL    HW260268   9.568   6.812   2.251 -1.9307 -1.4053 -0.2237
18956SOL     OW60269  10.236   1.606   1.459 -0.1203  0.7023 -0.1937
18956SOL    HW160270  10.262   1.538   1.522  0.7728  0.2910 -0.9882
18956SOL    HW260271  10.248   1.565   1.373  0.6454  1.9392 -0.6909
18957SOL     OW60272   4.807  10.631   5.673 -0.1300 -0.1047 -0.1972
18957SOL    HW160273   4.852  10.569   5.616 -0.2856  0.2770 -0.7390
18957SOL    HW260274   4.783  10.579   5.750  2.8239  0.0487  0.9848
18958SOL     OW60275   4.125   8.472   8.314  0.5215 -0.2283  0.3876
18958SOL    HW160276   4.031   8.472   8.296  0.6354 -0.7143 -0.2487
18958SOL    HW260277   4.134   8.422   8.395  0.2144  0.0419  0.5935
18959SOL     OW60278   3.914   1.299  10.838  0.1932 -0.5038 -0.1161
18959SOL    HW160279   3.865   1.381  10.827 -0.2160 -0.8167 -0.7241
18959SOL    HW260280   3.972   1.297  10.762  0.3380 -0.6803  0.0008
18960SOL     OW60281   3.467  10.049   1.009 -0.9344  0.4519 -0.3640
18960SOL    HW160282   3.460   9.953   1.008  0.9127  0.2099  1.8696
18960SOL    HW260283   3.427  10.074   1.093  2.5621  1.1307  1.2508
18961SOL     OW60284   5.036   4.325   7.770  0.5321  0.5687 -0.1894
18961SOL    HW160285   5.019   4.241   7.814  1.1194  0.3383 -0.3934
18961SOL    HW260286   4.979   4.387   7.815  0.0974  0.0641 -0.0234
18962SOL     OW60287  10.127   8.617   9.898  0.0075  0.3260  0.2806
18962SOL    HW160288  10.119   8.708   9.925  0.3590  1.1955 -2.2606
18962SOL    HW260289  10.217   8.593   9.918 -0.0005  0.6433  0.6953
18963SOL     OW60290   0.536   6.750   0.493  0.7021  0.7840 -0.1268
18963SOL    HW160291   0.444   6.725   0.482  1.0579 -0.3523 -0.6351
18963SOL    HW260292   0.533   6.845   0.507 -0.5589  0.7408  0.0773
18964SOL     OW60293   7.723   5.561  10.702 -0.0151 -0.1324 -0.4466
18964SOL    HW160294   7.739   5.474  10.738  0.3392  0.2034  0.2479
18964SOL    HW260295   7.788   5.617  10.746  1.0212  0.1669 -2.2240
18965SOL     OW60296   2.289   8.433   7.365 -0.3915 -0.4641 -0.1598
18965SOL    HW160297   2.356   8.373   7.397  0.5561 -0.2218 -1.6246
18965SOL    HW260298   2.281   8.499   7.435 -0.4522 -1.4890  0.8314
18966SOL     OW60299   3.247   0.857   2.938  0.5355  0.4593  0.4925
18966SOL    HW160300   3.170   0.803   2.925  0.6743  0.0497  1.3086
18966SOL    HW260301   3.225   0.940   2.896  0.0162  0.0356 -0.0836
18967SOL     OW60302   5.574   1.794   4.044 -0.3363  0.5873 -0.2726
18967SOL    HW160303   5.575   1.830   3.955 -1.2744  1.5443  0.0858
18967SOL    HW260304   5.556   1.701   4.032  0.7685  0.4630 -1.1399
18968SOL     OW60305   1.813  10.665   9.235 -0.4095  0.1340  0.0267
18968SOL    HW160306   1.819  10.752   9.196  0.4920  1.5719  3.0845
18968SOL    HW260307   1.733  10.666   9.287  0.0448 -0.5531  0.7723
18969SOL     OW60308   6.280   3.247   3.516  0.4202 -0.4316  0.0343
18969SOL    HW160309   6.352   3.208   3.467  0.4858  2.1489 -2.1800
18969SOL    HW260310   6.312   3.334   3.542 -1.1036 -0.1214  1.0476
18970SOL     OW60311  10.068   0.291   9.302 -0.0743  0.2086 -0.0776
18970SOL    HW160312   9.999   0.306   9.368  0.1894 -0.6963  0.4288
18970SOL    HW260313  10.028   0.232   9.239  0.2320 -0.3116  0.2129
18971SOL     OW60314   2.465   9.165  10.097  0.1919  0.1441  0.6477
18971SOL    HW160315   2.472   9.261  10.097 -2.0086  0.3801 -0.9487
18971SOL    HW260316   2.440   9.143  10.187  2.0081  0.8932  1.3860
18972SOL     OW60317   4.806   6.014   1.174 -0.1057  0.4203  0.6502
18972SOL    HW160318   4.863   5.999   1.249  0.5343 -0.3364  0.0358
18972SOL    HW260319   4.802   6.109   1.165 -1.5019  0.6005  2.6130
18973SOL     OW60320   8.553   5.817   5.851  0.1294  0.1888  0.2742
18973SOL    HW160321   8.510   5.817   5.765  2.2406 -1.2982 -0.8776
18973SOL    HW260322   8.535   5.730   5.887  0.8467  0.1011  0.4439
18974SOL     OW60323   1.600   5.039   6.367  0.4312  0.0272  0.3150
18974SOL    HW160324   1.574   5.075   6.452 -0.5667  1.0687 -0.3886
18974SOL    HW260325   1.627   5.116   6.316 -0.3614 -0.3787 -0.7581
18975SOL     OW60326   5.422  10.160   0.869  0.1374 -0.6635 -0.0718
18975SOL    HW160327   5.470  10.187   0.790 -1.0345 -1.1178 -0.9686
18975SOL    HW260328   5.461  10.076   0.893 -0.4659 -1.2469 -1.0566
18976SOL     OW60329   4.191   5.215   5.849  0.3365 -0.5181 -0.6704
18976SOL    HW160330   4.245   5.154   5.899  0.3541 -1.7815 -2.1385
18976SOL    HW260331   4.113   5.164   5.825 -0.3221  0.4893 -0.7427
18977SOL     OW60332   3.815   1.613   2.676 -0.1566  0.6365 -0.2975
18977SOL    HW160333   3.903   1.580   2.657 -0.2120  0.5355 -0.3774
18977SOL    HW260334   3.790   1.570   2.758 -0.3877  0.1788 -0.6069
18978SOL     OW60335   7.858   6.460   0.868  0.2814 -0.8717  0.1721
18978SOL    HW160336   7.947   6.486   0.847 -0.2597 -1.2296 -3.1299
18978SOL    HW260337   7.862   6.365   0.879  0.3769 -0.8262  0.5401
18979SOL     OW60338   0.273   5.363   8.255  0.2186 -0.0119  0.1817
18979SOL    HW160339   0.367   5.376   8.244  0.3022  0.8777  1.7087
18979SOL    HW260340   0.263   5.339   8.347 -0.9484 -1.2396 -0.2355
18980SOL     OW60341   7.298   8.602   2.232 -0.2136  0.4223 -0.0482
18980SOL    HW160342   7.219   8.645   2.198 -0.2936 -0.1198 -0.5626
18980SOL    HW260343   7.327   8.545   2.161  0.1698 -0.0075  0.4445
18981SOL     OW60344   5.129   3.349   7.950 -0.0020 -0.4549 -0.2094
18981SOL    HW160345   5.121   3.374   8.042  0.1950 -0.4004 -0.2064
18981SOL    HW260346   5.087   3.421   7.903  1.1632  0.2367 -0.2386
18982SOL     OW60347   2.242   0.302   4.706  0.2534  0.5883 -0.3532
18982SOL    HW160348   2.249   0.216   4.748  1.7373  0.6104 -0.4917
18982SOL    HW260349   2.171   0.345   4.752  0.5063 -0.1465  0.7811
18983SOL     OW60350  10.857   6.003   7.278 -0.0852 -0.6972  0.1497
18983SOL    HW160351  10.801   6.078   7.300  1.0634 -0.2703  1.7950
18983SOL    HW260352  10.795   5.932   7.258 -1.2367 -0.2183  1.8061
18984SOL     OW60353   0.435   0.718   6.881  0.1376  0.2951 -0.0967
18984SOL    HW160354   0.450   0.766   6.800  2.1825  3.0119  1.7089
18984SOL    HW260355   0.357   0.757   6.919  0.5981  0.7418  0.3951
18985SOL     OW60356   3.863   3.362   7.186 -0.0168  0.8865  0.7081
18985SOL    HW160357   3.880   3.283   7.134 -0.3360  1.1957  0.1245
18985SOL    HW260358   3.858   3.331   7.276  2.7566  0.6185  0.8716
18986SOL     OW60359   6.494   6.316   1.618 -0.1388  0.2205 -0.1343
18986SOL    HW160360   6.566   6.374   1.593  1.0070 -0.5047  1.3504
18986SOL    HW260361   6.437   6.315   1.541 -0.0620  3.0363 -0.3392
18987SOL     OW60362   7.325   0.061   8.538  0.6591 -0.5247 -0.0675
18987SOL    HW160363   7.399   0.102   8.583  0.6368  0.5927 -1.0258
18987SOL    HW260364   7.258   0.051   8.606  1.2069 -0.3380  0.5058
18988SOL     OW60365   3.682   6.628   6.233  1.2014 -0.2644  0.4552
18988SOL    HW160366   3.597   6.658   6.264  1.0579 -2.0296  1.9762
18988SOL    HW260367   3.706   6.689   6.163 -1.9257 -0.5364 -0.9913
18989SOL     OW60368   4.493   3.305   6.127 -0.0620  0.1614 -0.1414
18989SOL    HW160369   4.465   3.311   6.218 -2.1430  1.3733 -0.8015
18989SOL    HW260370   4.522   3.394   6.105 -1.5680  0.4248 -1.2234
18990SOL     OW60371   6.279   7.508   4.105 -0.2827  1.0312 -0.3829
18990SOL    HW160372   6.300   7.576   4.169 -0.1441  1.2328 -0.6388
18990SOL    HW260373   6.228   7.554   4.038 -0.8957  0.7076 -0.1473
18991SOL     OW60374   0.633   6.512   1.870  0.8974 -0.1914 -0.0353
18991SOL    HW160375   0.543   6.499   1.900  0.9549 -0.2330  0.1155
18991SOL    HW260376   0.623   6.549   1.782  0.7363 -0.8301 -0.2941
18992SOL     OW60377   7.658   4.646   0.408 -0.1058  0.0323 -0.2037
18992SOL    HW160378   7.738   4.594   0.404 -0.6251 -0.8301  0.3918
18992SOL    HW260379   7.587   4.582   0.410 -0.7329  0.7197  1.7323
18993SOL     OW60380   9.098   7.385   2.717 -0.3226 -0.7028 -0.2498
18993SOL    HW160381   9.125   7.347   2.800  1.2216 -2.1427 -1.3522
18993SOL    HW260382   9.132   7.474   2.719  0.7690 -1.1115  0.1887
18994SOL     OW60383   5.107   9.841   5.132 -0.3344 -0.2111  0.3462
18994SOL    HW160384   5.069   9.765   5.176  0.3969 -0.6152  0.2867
18994SOL    HW260385   5.164   9.804   5.065  0.1770  0.3925  0.4457
18995SOL     OW60386   0.586   3.355   2.073  0.3747  0.2126  0.8915
18995SOL    HW160387   0.497   3.321   2.075  0.7884 -1.1033 -0.7551
18995SOL    HW260388   0.631   3.310   2.144  0.3895 -1.1911  0.0182
18996SOL     OW60389   1.715   2.439   0.278 -0.0147 -0.4165  0.0567
18996SOL    HW160390   1.634   2.388   0.277 -2.3888  2.9143  2.0788
18996SOL    HW260391   1.753   2.422   0.365 -0.3309  0.4377  0.3773
18997SOL     OW60392   9.128   9.637   2.984 -0.0145  0.0995  0.2320
18997SOL    HW160393   9.064   9.685   3.036  2.0094  3.1131  0.1619
18997SOL    HW260394   9.104   9.545   2.995 -2.5776  0.9322  2.4872
18998SOL     OW60395   0.310   4.261  10.489 -0.1593  0.2238 -0.0528
18998SOL    HW160396   0.356   4.333  10.532  0.0880  0.7313 -1.1541
18998SOL    HW260397   0.271   4.300  10.411  0.4168 -0.9323 -0.9554
18999SOL     OW60398   0.123   0.782   1.891 -0.4295  0.1106 -0.6735
18999SOL    HW160399   0.070   0.723   1.945 -0.6364  0.1795 -0.7997
18999SOL    HW260400   0.213   0.766   1.919 -0.2729 -1.5439 -1.8868
19000SOL     OW60401   8.591   6.366   0.055 -0.3228 -0.7882  0.0513
19000SOL    HW160402   8.553   6.321   0.131  0.2430 -1.1909  0.0984
19000SOL    HW260403   8.622   6.449   0.089 -2.0405 -0.0034 -0.1771
19001SOL     OW60404   5.570   3.543   4.264 -0.4572 -0.2430 -0.0657
19001SOL    HW160405   5.597   3.635   4.275 -1.4822  0.1300 -0.5420
19001SOL    HW260406   5.639   3.505   4.210  0.5367 -0.0507  1.0081
19002SOL     OW60407   1.786   2.643   8.260 -0.9263 -0.4530 -0.2781
19002SOL    HW160408   1.814   2.551   8.255  0.2860 -0.2559  1.7069
19002SOL    HW260409   1.848   2.690   8.204  0.3178 -0.5349  0.9615
19003SOL     OW60410   6.597   9.709   1.999  0.4571  0.3890  0.3282
19003SOL    HW160411   6.661   9.645   2.030  0.2186  0.8838  1.9197
19003SOL    HW260412   6.583   9.686   1.907  1.2442 -1.1127  0.5539
19004SOL     OW60413   0.397  10.760   5.643 -0.5349 -0.2054  0.3284
19004SOL    HW160414   0.351  10.810   5.576 -3.3740 -1.6082  1.0555
19004SOL    HW260415   0.473  10.722   5.597 -1.0165  0.8411 -1.4149
19005SOL     OW60416  10.643   8.192   6.377 -0.3148  0.3642  0.3357
19005SOL    HW160417  10.585   8.167   6.449 -0.6609 -2.4605 -0.8026
19005SOL    HW260418  10.584   8.225   6.309 -0.5822 -1.7276 -0.5056
19006SOL     OW60419   2.734   4.711   0.439 -0.0199  0.2075 -0.3751
19006SOL    HW160420   2.707   4.791   0.395 -0.9145  0.6397  0.9050
19006SOL    HW260421   2.664   4.693   0.502  0.7246 -0.9305  0.1699
19007SOL     OW60422   7.833   4.107   0.893 -0.4417 -0.5462 -0.3461
19007SOL    HW160423   7.839   4.114   0.989 -1.4029  0.2043 -0.3132
19007SOL    HW260424   7.906   4.051   0.868  0.1740 -0.2797  0.7740
19008SOL     OW60425   8.071   3.536   4.132  0.0896  0.0806 -0.1287
19008SOL    HW160426   8.053   3.443   4.141  1.8111 -0.1963  0.9229
19008SOL    HW260427   7.985   3.578   4.140 -0.6770 -1.3878 -0.3866
19009SOL     OW60428   9.835   2.277   6.323 -0.6786 -0.3908  0.0153
19009SOL    HW160429   9.824   2.229   6.405  0.2011  1.1254  1.0739
19009SOL    HW260430   9.746   2.303   6.298 -1.0318 -1.5018  0.0479
19010SOL     OW60431   7.471   7.120   2.930 -0.4358 -0.2334 -0.2342
19010SOL    HW160432   7.376   7.111   2.938 -0.2070 -2.0372  1.0850
19010SOL    HW260433   7.499   7.162   3.011 -0.1221  0.5710 -0.7486
19011SOL     OW60434   2.202   6.471   6.942  0.0034  0.2244 -0.2640
19011SOL    HW160435   2.228   6.382   6.920  0.5531  0.5103 -0.7804
19011SOL    HW260436   2.121   6.486   6.893  0.2693  0.2391 -0.6977
19012SOL     OW60437   4.335   4.838   0.596 -0.0570 -0.5330  0.1052
19012SOL    HW160438   4.396   4.768   0.572  0.3609 -0.8611  1.9880
19012SOL    HW260439   4.389   4.904   0.639 -0.5619  0.6532 -1.0077
19013SOL     OW60440   6.536   4.836   1.630 -0.0122 -0.1410 -0.3676
19013SOL    HW160441   6.581   4.883   1.700  0.1077 -0.0911 -0.4770
19013SOL    HW260442   6.443   4.842   1.651 -0.1767  1.8322 -1.4095
19014SOL     OW60443   0.953   8.386   4.715  0.4455  0.2937 -0.3338
19014SOL    HW160444   0.924   8.383   4.623 -2.1011 -2.4264  0.3940
19014SOL    HW260445   0.903   8.457   4.753  0.6786  0.7148 -0.7994
19015SOL     OW60446   7.352   4.030   6.438 -0.1834 -0.2592  0.5601
19015SOL    HW160447   7.398   3.986   6.366  0.5859  1.9650 -0.4228
19015SOL    HW260448   7.270   4.060   6.398  0.3387  1.1657  0.5103
19016SOL     OW60449   0.666   6.615   9.051 -0.2287  0.1136  0.0724
19016SOL    HW160450   0.700   6.703   9.035 -0.8985  0.5238  0.8801
19016SOL    HW260451   0.610   6.596   8.976  0.8991 -0.1400 -0.7354
19017SOL     OW60452   7.311   2.258   1.203 -0.0656  0.2193  0.5421
19017SOL    HW160453   7.338   2.205   1.128 -0.6781 -1.8913  1.7533
19017SOL    HW260454   7.226   2.293   1.177 -0.7167 -1.2741  0.5837
19018SOL     OW60455   6.365   2.570   1.408  0.1097 -0.1875  0.0262
19018SOL    HW160456   6.314   2.554   1.487 -0.4727 -1.3082 -0.5501
19018SOL    HW260457   6.301   2.605   1.345  0.9818  2.8169  0.6681
19019SOL     OW60458   5.912   7.345  10.645  0.7098  0.6829  0.0597
19019SOL    HW160459   5.847   7.277  10.664  0.2344  0.9172 -0.6771
19019SOL    HW260460   5.956   7.360  10.729  0.7065 -0.4094  0.2612
19020SOL     OW60461   3.289   8.009   4.780  0.2391 -0.4181 -0.2771
19020SOL    HW160462   3.208   7.974   4.742  0.3050 -1.0939  0.1938
19020SOL    HW260463   3.354   7.941   4.762  0.8302  0.3337 -1.0942
19021SOL     OW60464   7.092   0.522   4.691 -0.2443 -0.0084 -0.1203
19021SOL    HW160465   7.143   0.472   4.627  0.2114  1.1281 -0.6635
19021SOL    HW260466   7.038   0.581   4.638 -1.0544 -0.1793  0.4998
19022SOL     OW60467   4.159  10.858   0.290  0.1558  0.1070 -0.1745
19022SOL    HW160468   4.194  10.924   0.350  1.7515 -0.9679  0.1306
19022SOL    HW260469   4.117  10.909   0.221  1.0779  1.4372  0.1936
19023SOL     OW60470   6.345   1.183   7.907 -0.0408 -0.0527 -0.3542
19023SOL    HW160471   6.427   1.231   7.919 -0.2346  0.3502 -0.6149
19023SOL    HW260472   6.277   1.250   7.914 -0.3141 -0.2812 -0.7760
19024SOL     OW60473   8.633   8.199   0.550 -0.3950 -0.2518 -0.7993
19024SOL    HW160474   8.633   8.273   0.611  1.1794 -0.2729 -0.7436
19024SOL    HW260475   8.552   8.152   0.570 -0.8918  0.8487 -0.0997
19025SOL     OW60476   6.781   0.385   0.496  0.2495  0.0628 -0.0042
19025SOL    HW160477   6.732   0.327   0.438  1.8879  0.2859 -1.7333
19025SOL    HW260478   6.790   0.337   0.578  1.3028 -2.0554 -1.2786
19026SOL     OW60479   0.085   6.411   1.877 -0.0531 -0.2019 -0.2196
19026SOL    HW160480   0.022   6.477   1.903  0.7115  0.7426 -0.7161
19026SOL    HW260481   0.071   6.400   1.783  1.3139  0.9186 -0.5887
19027SOL     OW60482   4.510   1.108   7.339  0.0317 -0.2633  0.1742
19027SOL    HW160483   4.539   1.136   7.426  1.7064  1.0243 -0.7360
19027SOL    HW260484   4.554   1.024   7.325 -0.2140 -0.4578  0.5451
19028SOL     OW60485   8.203   5.254   1.993  0.1548 -0.3573  0.2644
19028SOL    HW160486   8.208   5.215   1.905 -0.9330 -1.8671  0.8267
19028SOL    HW260487   8.279   5.219   2.039  0.8499  0.6083 -0.1091
19029SOL     OW60488   0.535   3.401   3.222  0.2816  0.0401 -0.0394
19029SOL    HW160489   0.517   3.366   3.309  0.4279 -1.4119 -0.5767
19029SOL    HW260490   0.556   3.325   3.169  0.8280  0.9685 -1.2028
19030SOL     OW60491   0.602  10.695   7.851 -1.2050 -0.3222  0.8191
19030SOL    HW160492   0.680  10.746   7.826 -0.8503 -1.6156 -0.9310
19030SOL    HW260493   0.628  10.650   7.931 -0.6105  0.2516  0.9633
19031SOL     OW60494   1.757   2.956   1.094  0.5337  0.1271  0.5095
19031SOL    HW160495   1.780   2.935   1.184 -0.8594  0.1763  0.8991
19031SOL    HW260496   1.690   3.024   1.101  0.0654 -0.2005 -0.5388
19032SOL     OW60497   8.788   9.555   9.215  0.0851  0.0143  0.1413
19032SOL    HW160498   8.879   9.548   9.246  0.2867 -0.2853 -0.4906
19032SOL    HW260499   8.744   9.479   9.253 -0.0644  0.5135  0.9752
19033SOL     OW60500   2.198   9.260   1.206 -0.3420 -0.1503 -0.2835
19033SOL    HW160501   2.286   9.230   1.183  0.3785  1.0076  0.8262
19033SOL    HW260502   2.190   9.243   1.300 -0.0717  2.5222  0.2997
19034SOL     OW60503   6.460   1.473   2.438  0.0747  0.0749 -0.1798
19034SOL    HW160504   6.542   1.486   2.485  0.2501  2.2302 -0.9633
19034SOL    HW260505   6.394   1.462   2.506  0.8322 -0.4148  0.4791
19035SOL     OW60506   2.886   8.340   3.789 -0.8525 -0.0736  0.0731
19035SOL    HW160507   2.941   8.320   3.714 -1.6751 -0.5217 -0.4177
19035SOL    HW260508   2.799   8.353   3.753 -1.5851 -1.8004  1.0877
19036SOL     OW60509  10.164   6.946   5.417  0.0031  0.2466  0.2814
19036SOL    HW160510  10.244   6.988   5.387  0.2917 -0.0408  0.6491
19036SOL    HW260511  10.154   6.870   5.360 -0.7676  1.0407 -0.6934
19037SOL     OW60512   6.224   2.421   6.014 -0.0287  0.2531 -0.3375
19037SOL    HW160513   6.282   2.355   6.053  0.3733  0.3738 -0.7113
19037SOL    HW260514   6.281   2.470   5.954 -0.1953  1.2780  0.3095
19038SOL     OW60515   2.001   9.255   4.490  0.9069  0.4466  1.1941
19038SOL    HW160516   2.062   9.230   4.558  0.4495  0.9630  1.8049
19038SOL    HW260517   1.931   9.191   4.494  1.6744 -0.5119  0.0878
19039SOL     OW60518   2.258   9.337   7.561 -0.2205  0.4872 -0.3577
19039SOL    HW160519   2.193   9.398   7.597 -0.7179  0.2994 -0.9197
19039SOL    HW260520   2.206   9.270   7.518  0.3433  0.0834 -0.4159
19040SOL     OW60521  10.364   7.623   7.049  0.3380  0.0727  0.2057
19040SOL    HW160522  10.342   7.558   7.116 -2.0632 -1.8897 -2.2411
19040SOL    HW260523  10.282   7.668   7.031  0.6944 -0.0089 -1.9057
19041SOL     OW60524   6.762   0.663   8.137  0.7266  0.1623 -0.2484
19041SOL    HW160525   6.823   0.731   8.165 -0.0438  0.5116  0.6381
19041SOL    HW260526   6.801   0.582   8.169  0.2788  0.4736  1.1656
19042SOL     OW60527   1.819   7.257   6.900 -0.5577 -0.3478 -1.1168
19042SOL    HW160528   1.746   7.263   6.838  0.2572 -1.5115 -2.2389
19042SOL    HW260529   1.896   7.247   6.845  0.7573  2.6200 -0.0479
19043SOL     OW60530   5.373   7.356   0.357  0.7875 -0.1974 -0.1284
19043SOL    HW160531   5.405   7.290   0.419 -1.8720 -1.2588  0.2514
19043SOL    HW260532   5.453   7.396   0.321  2.4514 -1.3464  2.0307
19044SOL     OW60533   9.977   5.948   9.829  0.6291 -0.0571 -0.3794
19044SOL    HW160534   9.914   5.881   9.802  0.0976  0.9745 -1.7872
19044SOL    HW260535  10.008   5.986   9.747  1.4211  0.9822  0.3802
19045SOL     OW60536   9.357  10.443   4.871 -0.5994 -0.0526 -0.1045
19045SOL    HW160537   9.343  10.533   4.900 -0.8950 -0.0961 -0.1162
19045SOL    HW260538   9.452  10.436   4.860 -0.6411  0.5127 -0.9193
19046SOL     OW60539   7.357   2.937   6.860  0.4077 -0.6873 -0.7402
19046SOL    HW160540   7.408   2.857   6.847  0.2009 -0.9658  0.0811
19046SOL    HW260541   7.282   2.928   6.802  0.5111 -0.9766 -0.8287
19047SOL     OW60542  10.142   2.587   3.295  0.3581 -0.1899  0.2066
19047SOL    HW160543  10.137   2.682   3.300  2.0586 -0.0745  0.4269
19047SOL    HW260544  10.115   2.557   3.381 -0.4679  0.0638  0.0445
19048SOL     OW60545   4.596   2.997   9.157 -0.4144 -0.1263  1.4685
19048SOL    HW160546   4.573   2.967   9.070 -0.0268  1.4526  0.7766
19048SOL    HW260547   4.685   3.032   9.148 -1.9973  4.6144  1.1404
19049SOL     OW60548   8.322   3.961   8.146  0.1024  0.0752 -0.4270
19049SOL    HW160549   8.369   3.910   8.211 -1.1191 -1.9704 -1.0579
19049SOL    HW260550   8.351   4.051   8.160  1.1025 -0.5386  1.8251
19050SOL     OW60551   6.783   4.813   1.891  0.6613 -0.4836 -0.8306
19050SOL    HW160552   6.810   4.889   1.839  1.6793 -0.4126 -0.2122
19050SOL    HW260553   6.752   4.850   1.973  1.0921 -0.7306 -0.5549
19051SOL     OW60554   9.529   6.978   3.320 -0.5817  0.3575 -0.2661
19051SOL    HW160555   9.493   6.948   3.404 -1.8848 -0.1179 -0.9589
19051SOL    HW260556   9.477   7.055   3.298  1.7792  2.3878  0.7940
19052SOL     OW60557   4.531  10.387   3.266 -0.8008  0.0516 -0.7311
19052SOL    HW160558   4.529  10.353   3.177  0.4689 -1.7641 -0.1184
19052SOL    HW260559   4.503  10.314   3.321  2.1684 -0.1743  0.6551
19053SOL     OW60560   3.733   8.663   0.367 -0.1426  0.0858 -0.6068
19053SOL    HW160561   3.668   8.711   0.419  0.8810  0.6589  0.1721
19053SOL    HW260562   3.683   8.591   0.328 -1.4825  1.1584 -0.9602
19054SOL     OW60563   7.584   1.977   1.839 -0.1663 -0.4079 -0.2054
19054SOL    HW160564   7.551   1.939   1.758  1.4048 -2.5391  0.0456
19054SOL    HW260565   7.669   2.014   1.815 -0.4379  0.4677  0.1517
19055SOL     OW60566   2.053   4.035   6.101 -0.2147 -0.2073  0.7485
19055SOL    HW160567   2.007   4.089   6.037  0.3453  0.3745  0.8380
19055SOL    HW260568   2.061   4.090   6.178 -0.5842 -0.7883  1.2095
19056SOL     OW60569   5.549   6.215   2.184 -0.5075  0.6971 -0.6076
19056SOL    HW160570   5.638   6.201   2.151 -0.1850  1.5092 -0.1033
19056SOL    HW260571   5.506   6.267   2.117 -0.1507  1.5280 -0.1996
19057SOL     OW60572   1.760   4.332   0.961  0.0212  0.4243 -0.3717
19057SOL    HW160573   1.743   4.237   0.964 -0.4928  0.5266  0.7316
19057SOL    HW260574   1.673   4.372   0.961  0.1459  0.9180  2.5607
19058SOL     OW60575   7.876  10.269   2.947 -0.1909 -0.2200 -0.3580
19058SOL    HW160576   7.818  10.346   2.944  2.8608  2.4041  1.4705
19058SOL    HW260577   7.870  10.239   3.038 -0.1075 -1.1488 -0.6528
19059SOL     OW60578   2.663   7.703   7.649  0.1990  0.2984  0.9707
19059SOL    HW160579   2.703   7.685   7.734 -1.6699 -2.7977  1.3607
19059SOL    HW260580   2.597   7.770   7.667  1.4586  1.4474  1.4102
19060SOL     OW60581   3.896   0.152   2.764 -0.1241  0.4709  0.3477
19060SOL    HW160582   3.979   0.118   2.795  0.6345  1.3158 -0.6804
19060SOL    HW260583   3.894   0.130   2.671 -2.2330 -1.8061  0.8329
19061SOL     OW60584   0.234   9.673   6.014 -0.0336 -0.8993 -0.0499
19061SOL    HW160585   0.194   9.617   5.947  2.4322 -1.9717 -0.7188
19061SOL    HW260586   0.162   9.728   6.045 -1.5574 -1.3035 -2.6059
19062SOL     OW60587   4.975   5.585   9.534  0.3283 -0.0905  0.4962
19062SOL    HW160588   4.880   5.591   9.547  0.3033  0.7493 -0.0527
19062SOL    HW260589   4.990   5.493   9.512 -0.5991  0.1476 -1.2945
19063SOL     OW60590   9.019   1.618  10.118  0.2838  0.4435 -0.1605
19063SOL    HW160591   8.944   1.651  10.167  0.4960 -1.8021  1.8917
19063SOL    HW260592   9.052   1.694  10.070 -1.6720  2.1164  0.9628
19064SOL     OW60593   4.320   9.603   5.657 -0.8930  0.4753 -0.1391
19064SOL    HW160594   4.394   9.547   5.677 -0.4711  0.2128 -2.1782
19064SOL    HW260595   4.279   9.563   5.580 -1.5557  2.0381 -0.6597
19065SOL     OW60596   9.738   9.664   4.087 -0.2858 -0.2879 -0.2851
19065SOL    HW160597   9.737   9.760   4.083 -0.6619 -0.3108 -0.7678
19065SOL    HW260598   9.761   9.636   3.999 -1.5103 -0.6592 -0.5119
19066SOL     OW60599   6.154   2.812   9.395 -0.2491 -0.1112 -0.6398
19066SOL    HW160600   6.075   2.865   9.403  1.2593  2.0411  0.9708
19066SOL    HW260601   6.207   2.858   9.330  0.9580  0.2267  0.5568
19067SOL     OW60602  10.717  10.377   6.209  0.2335  0.6946 -0.6672
19067SOL    HW160603  10.785  10.316   6.180  0.2201  0.0383  0.6282
19067SOL    HW260604  10.762  10.434   6.271 -1.0082 -1.8566  2.8941
19068SOL     OW60605   2.526   5.349   3.741 -0.0228 -0.7222  0.5547
19068SOL    HW160606   2.455   5.392   3.693  0.8546  0.0179 -0.1158
19068SOL    HW260607   2.523   5.258   3.712 -0.5184 -0.6394  0.3272
19069SOL     OW60608   1.631   2.718   1.321  0.1577  0.5765  0.0071
19069SOL    HW160609   1.699   2.784   1.313 -0.3649  1.2001  0.6570
19069SOL    HW260610   1.584   2.722   1.237  0.7868  0.2810 -0.3640
19070SOL     OW60611   7.749   4.230   0.637 -0.2902  0.2837 -0.3549
19070SOL    HW160612   7.684   4.297   0.659  0.9439  1.3567  0.1459
19070SOL    HW260613   7.783   4.200   0.722 -0.2871 -0.4407 -0.6005
19071SOL     OW60614   7.728   6.280  10.521 -0.0806 -0.5307  0.7304
19071SOL    HW160615   7.706   6.272  10.428  0.7295  0.2669  0.4510
19071SOL    HW260616   7.815   6.240  10.527 -0.5521 -1.4955  1.3515
19072SOL     OW60617   8.344   3.672   2.183  0.2415  0.0971 -0.4732
19072SOL    HW160618   8.284   3.681   2.258  0.0754  1.0205 -0.6996
19072SOL    HW260619   8.331   3.753   2.133  1.3294  0.0904 -0.7840
19073SOL     OW60620   9.074   2.347   8.151  0.4833  0.4453 -0.6277
19073SOL    HW160621   9.070   2.303   8.066  1.8183 -1.1463  0.0729
19073SOL    HW260622   9.032   2.432   8.136 -0.0648 -0.1212 -2.6471
19074SOL     OW60623   4.329   7.413   8.403  0.0026  0.4138 -0.0457
19074SOL    HW160624   4.392   7.371   8.462 -0.5936  1.5347  1.4589
19074SOL    HW260625   4.322   7.503   8.436 -1.9921  0.4693 -0.4901
19075SOL     OW60626   7.667   2.259   7.749  0.0586  0.0355 -0.1975
19075SOL    HW160627   7.659   2.200   7.674 -1.0124 -0.1559  0.0581
19075SOL    HW260628   7.692   2.343   7.711 -0.3488 -0.0912 -0.7517
19076SOL     OW60629   9.763   6.553   6.047 -0.0652  0.2357 -0.0239
19076SOL    HW160630   9.796   6.516   6.129 -0.8376 -0.4033  0.0109
19076SOL    HW260631   9.731   6.640   6.071 -1.7843 -0.5550  0.7244
19077SOL     OW60632   3.753   1.672   7.445 -0.2022  0.2763  0.0365
19077SOL    HW160633   3.800   1.601   7.400  0.1930  0.2639  0.4661
19077SOL    HW260634   3.685   1.698   7.383 -1.2592 -1.4144  0.3959
19078SOL     OW60635   1.930   0.286   8.139  0.4773 -0.0673  0.5053
19078SOL    HW160636   1.898   0.350   8.203  0.9609  0.4423  0.2434
19078SOL    HW260637   1.993   0.233   8.187 -0.8194 -1.1642  1.0648
19079SOL     OW60638   9.235  10.203   5.778 -0.1223 -0.0708  0.5660
19079SOL    HW160639   9.284  10.204   5.696 -0.7500  1.0642  0.1830
19079SOL    HW260640   9.259  10.120   5.819  1.3366 -0.0040 -0.0760
19080SOL     OW60641  10.337  10.818   5.955 -0.7490 -0.0563  0.2104
19080SOL    HW160642  10.424  10.783   5.936  0.5089  3.6515 -1.9377
19080SOL    HW260643  10.280  10.778   5.890  0.2328  0.3200 -0.9263
19081SOL     OW60644   9.391   8.384   0.312 -0.3894  0.4865  0.6655
19081SOL    HW160645   9.364   8.372   0.403  0.3277  1.3860  1.0197
19081SOL    HW260646   9.309   8.388   0.263 -0.7645 -0.7870  1.1513
19082SOL     OW60647   4.920   1.512   9.310  0.5429  1.3048 -0.3374
19082SOL    HW160648   4.924   1.453   9.385 -0.7093  1.7209  0.0881
19082SOL    HW260649   4.872   1.463   9.243  0.5252  1.4099 -0.4020
19083SOL     OW60650   4.673   7.506   1.135 -0.0589  0.2465  0.2363
19083SOL    HW160651   4.711   7.508   1.047  0.8055 -0.8386  0.5629
19083SOL    HW260652   4.648   7.415   1.149 -3.4023  0.9727 -0.1581
19084SOL     OW60653   4.274   3.589   8.207 -0.1654  0.4052  0.2357
19084SOL    HW160654   4.295   3.558   8.296 -0.4809 -1.9418 -0.4411
19084SOL    HW260655   4.186   3.557   8.191 -0.5579  1.8022 -0.5510
19085SOL     OW60656   8.329   6.016   9.704  0.2451  0.2375 -0.1612
19085SOL    HW160657   8.290   5.954   9.766 -0.7130  0.7567 -0.2263
19085SOL    HW260658   8.370   5.960   9.638  2.1297 -0.3372  1.4023
19086SOL     OW60659  10.680   5.022   5.242  0.2631 -0.5615  0.1565
19086SOL    HW160660  10.596   4.974   5.245  0.3852 -0.7419  1.2326
19086SOL    HW260661  10.743   4.961   5.281  0.8274 -0.2860 -0.3174
19087SOL     OW60662   2.373   6.390  10.190  0.4615 -0.0573  0.5447
19087SOL    HW160663   2.436   6.461  10.177  0.2243 -0.0141 -0.5194
19087SOL    HW260664   2.395   6.326  10.121  1.0481 -1.3082  1.8463
19088SOL     OW60665   5.249   6.272   2.959  0.2293 -0.9541 -0.3948
19088SOL    HW160666   5.286   6.280   2.871  3.1946  0.3015  0.8145
19088SOL    HW260667   5.178   6.335   2.961  0.8592 -0.1669 -1.5617
19089SOL     OW60668   7.995   9.372   0.455 -0.1089 -0.9496 -0.8363
19089SOL    HW160669   8.001   9.378   0.360 -2.5014 -1.2155 -1.0685
19089SOL    HW260670   8.082   9.393   0.487  0.6532 -0.5509 -3.0723
19090SOL     OW60671   2.276   9.166   7.994 -0.1035  0.0628  0.5665
19090SOL    HW160672   2.353   9.127   7.953 -1.3728 -1.5322 -0.4158
19090SOL    HW260673   2.304   9.185   8.084  1.4721 -0.2895  0.1856
19091SOL     OW60674   5.089   7.343   6.975 -0.4583  0.2463 -0.6896
19091SOL    HW160675   5.062   7.272   7.033 -0.3363  0.4809 -0.3416
19091SOL    HW260676   5.132   7.299   6.902  0.5744 -0.0025  0.0361
19092SOL     OW60677   4.031   9.013   1.061  0.3593 -0.1634 -0.0114
19092SOL    HW160678   3.989   9.031   0.977  0.5845  0.9612  0.1030
19092SOL    HW260679   3.965   9.035   1.127  1.0805  1.6385  0.1706
19093SOL     OW60680   7.644   3.772   9.561 -0.5633 -0.1204  0.5433
19093SOL    HW160681   7.665   3.784   9.468  0.5531  0.6913  0.8739
19093SOL    HW260682   7.667   3.856   9.602  0.8261 -1.0769  1.8465
19094SOL     OW60683   8.838   9.665   1.662  0.1114 -0.0174 -0.5225
19094SOL    HW160684   8.858   9.747   1.708 -0.0468 -0.7298  0.8816
19094SOL    HW260685   8.876   9.676   1.575  2.0634  0.7011  0.3513
19095SOL     OW60686   4.037   0.294  10.648 -0.5341 -0.7102  0.1793
19095SOL    HW160687   4.017   0.341  10.566  0.1839 -1.0953 -0.2250
19095SOL    HW260688   4.081   0.214  10.619 -0.7947 -1.1267  0.9210
19096SOL     OW60689   6.106   6.654   6.298 -0.4165  0.7054  0.1188
19096SOL    HW160690   6.160   6.588   6.342 -1.4109  0.7115  1.4353
19096SOL    HW260691   6.020   6.611   6.289 -0.5691  1.1681 -0.6942
19097SOL     OW60692   4.938   8.245   2.696 -0.5237 -0.0537  0.4095
19097SOL    HW160693   4.928   8.334   2.663 -1.0781 -0.3759 -0.3419
19097SOL    HW260694   4.853   8.224   2.735 -0.0840  0.0855  1.4760
19098SOL     OW60695   2.384   5.207   2.608  0.0348 -0.5283  0.3135
19098SOL    HW160696   2.379   5.303   2.604  0.5894 -0.4103  1.6539
19098SOL    HW260697   2.292   5.179   2.610 -0.1500 -0.1243 -1.3093
19099SOL     OW60698   0.358   1.114   2.880 -0.3256 -0.0502 -0.0460
19099SOL    HW160699   0.333   1.176   2.811  1.7147  0.9512  0.0499
19099SOL    HW260700   0.362   1.030   2.835 -1.8412  0.0691 -0.4707
19100SOL     OW60701   6.025   9.696   4.398 -0.3572 -0.1348 -0.0044
19100SOL    HW160702   5.991   9.609   4.416  1.8210 -0.5955  2.4861
19100SOL    HW260703   5.966   9.755   4.444  0.3588 -0.6705  1.6680
19101SOL     OW60704   6.213   1.040   6.292 -0.1734 -0.1606 -0.7167
19101SOL    HW160705   6.132   0.992   6.280 -0.3215 -0.3392  0.8261
19101SOL    HW260706   6.267   1.016   6.217 -1.1391 -0.8640 -1.1969
19102SOL     OW60707   4.017   6.136  10.334  0.4034 -0.3499 -0.7923
19102SOL    HW160708   3.941   6.123  10.390  0.4654  3.0859  0.3018
19102SOL    HW260709   4.007   6.072  10.264 -2.1219 -1.6796  0.6559
19103SOL     OW60710   1.956   8.550   1.024  0.1321 -0.0907 -0.0805
19103SOL    HW160711   1.927   8.503   1.103  0.3227 -2.6909 -1.4550
19103SOL    HW260712   1.875   8.587   0.988 -0.1731 -0.1177  0.5455
19104SOL     OW60713   5.126   5.197   6.489  0.0284  0.4856  0.8435
19104SOL    HW160714   5.048   5.211   6.435 -0.3808 -0.0938  1.2671
19104SOL    HW260715   5.097   5.137   6.557  1.1382 -0.6126  0.3753
19105SOL     OW60716   7.950   6.838  10.726 -0.3664  0.3501  0.1900
19105SOL    HW160717   7.862   6.808  10.747 -0.6725  1.3215  0.3705
19105SOL    HW260718   7.960   6.822  10.632 -0.6761  0.1024  0.2013
19106SOL     OW60719   3.649   4.400   5.985 -0.4120 -0.3671 -0.1001
19106SOL    HW160720   3.725   4.371   5.935  0.2960 -0.6433  1.0986
19106SOL    HW260721   3.678   4.398   6.077 -1.4489  0.7920  0.2778
19107SOL     OW60722   0.408   5.680   6.169  0.4082 -0.3076  0.6503
19107SOL    HW160723   0.393   5.768   6.135  1.5117 -0.2600  0.2370
19107SOL    HW260724   0.466   5.639   6.105  0.4267 -1.1162  1.1654
19108SOL     OW60725   0.080   2.248   2.891 -0.1883  0.2522 -0.4789
19108SOL    HW160726   0.126   2.319   2.936  1.2138 -1.8154  1.6356
19108SOL    HW260727  -0.012   2.275   2.890  0.2273  1.8449  0.7315
19109SOL     OW60728   8.050   4.595   4.399 -0.2919  0.2909 -0.7489
19109SOL    HW160729   7.968   4.641   4.419 -0.0050  0.2982  0.5445
19109SOL    HW260730   8.115   4.640   4.454  0.4188 -0.2304 -1.1603
19110SOL     OW60731   4.175   8.910   4.026  0.7012  0.0147  0.4644
19110SOL    HW160732   4.083   8.902   4.053  0.3136  1.0622 -0.4387
19110SOL    HW260733   4.222   8.847   4.080 -0.8891 -2.3958 -0.7937
19111SOL     OW60734   0.625   3.527   9.076 -0.0711 -0.0098 -0.4227
19111SOL    HW160735   0.592   3.617   9.067 -0.9317  0.0082  2.0065
19111SOL    HW260736   0.546   3.474   9.087  0.4943 -0.7932 -0.0941
19112SOL     OW60737   1.563   7.555   6.565  0.4288  0.3380 -0.0964
19112SOL    HW160738   1.469   7.553   6.549  0.9339 -1.1741 -3.5268
19112SOL    HW260739   1.588   7.646   6.546 -0.1695  0.4956 -0.1588
19113SOL     OW60740   4.599   2.601   5.470  0.0334  0.0286  0.4831
19113SOL    HW160741   4.572   2.549   5.546  1.4675 -1.2281  0.1701
19113SOL    HW260742   4.682   2.562   5.442  0.2060  1.3173 -0.9222
19114SOL     OW60743   1.960   2.350   4.578  0.2826 -0.3522 -0.4820
19114SOL    HW160744   2.004   2.328   4.660  0.1706  1.8530  0.2238
19114SOL    HW260745   2.012   2.422   4.542 -1.3146  0.6413 -0.8715
19115SOL     OW60746   7.466   6.917   5.345 -0.1047  0.4707 -1.0742
19115SOL    HW160747   7.424   6.860   5.280 -1.6254 -0.1583  0.3897
19115SOL    HW260748   7.460   7.005   5.307  0.3715 -0.0588 -2.4294
19116SOL     OW60749  10.304   0.688  10.175 -0.3572  0.0547  1.0911
19116SOL    HW160750  10.273   0.687  10.084  0.6409  1.5563  0.6973
19116SOL    HW260751  10.398   0.701  10.168  0.0928 -2.1775  2.3154
19117SOL     OW60752   9.593   8.663  10.475 -0.7433 -0.2552 -0.0275
19117SOL    HW160753   9.531   8.607  10.428 -0.7398 -0.4461  0.1926
19117SOL    HW260754   9.558   8.668  10.564  0.8330 -2.4057  0.8115
19118SOL     OW60755   8.207  10.894   6.715 -0.5210 -0.4063  0.1590
19118SOL    HW160756   8.242  10.811   6.684 -1.0476 -0.4693 -0.2798
19118SOL    HW260757   8.276  10.958   6.697 -0.5256 -0.5702 -0.4415
19119SOL     OW60758   0.866   9.804   8.882 -0.2333  0.1858 -0.4324
19119SOL    HW160759   0.863   9.827   8.975  2.5719  1.0074 -0.4537
19119SOL    HW260760   0.888   9.711   8.881  1.7318  0.5971 -0.1782
19120SOL     OW60761   1.111   5.969   4.327 -0.1255  0.5209  0.0506
19120SOL    HW160762   1.123   5.993   4.235 -0.0052 -1.1995 -0.4122
19120SOL    HW260763   1.193   5.927   4.352 -0.0133  1.3187  1.0694
19121SOL     OW60764   3.549  10.091   6.172  0.0624 -0.3434 -0.3030
19121SOL    HW160765   3.587  10.161   6.226 -1.6198  0.3938  0.0275
19121SOL    HW260766   3.622  10.055   6.123  1.3110  0.3422  0.9852
19122SOL     OW60767   4.293  10.381  10.141 -0.2196 -0.2805  0.4867
19122SOL    HW160768   4.288  10.385  10.046 -0.7433  0.3476  0.5300
19122SOL    HW260769   4.386  10.390  10.161 -0.1308 -0.1948  0.0473
19123SOL     OW60770   7.796   7.048   0.665  0.1053 -0.1887  0.2982
19123SOL    HW160771   7.771   7.065   0.755  0.6152 -0.0170  0.4113
19123SOL    HW260772   7.883   7.008   0.671  0.7380  1.0541 -0.1631
19124SOL     OW60773   8.876   1.065   4.317 -0.0889 -0.0060 -0.1452
19124SOL    HW160774   8.906   0.974   4.314  2.1599  0.6689 -0.4648
19124SOL    HW260775   8.781   1.060   4.308 -0.1301 -2.3684  0.9136
19125SOL     OW60776   0.173   3.624   9.010  0.3358 -0.4977  0.6767
19125SOL    HW160777   0.188   3.678   8.931  1.6322  0.3928  1.4869
19125SOL    HW260778   0.087   3.652   9.041  0.4374  0.2012  0.3682
19126SOL     OW60779   4.645   7.854   3.613 -0.3218  0.2521  0.1422
19126SOL    HW160780   4.650   7.797   3.690  0.6037  0.9119  0.5996
19126SOL    HW260781   4.663   7.941   3.648 -0.3106  0.6115 -0.7597
19127SOL     OW60782   9.594   5.431   4.768 -0.2115  0.0199 -0.2143
19127SOL    HW160783   9.668   5.416   4.709  0.7391  0.5894  0.7993
19127SOL    HW260784   9.589   5.350   4.820 -1.8489 -1.0174 -1.8414
19128SOL     OW60785  10.346   8.515   5.829 -0.3776  0.4598 -0.2488
19128SOL    HW160786  10.354   8.610   5.830  1.4224  0.3842  2.1237
19128SOL    HW260787  10.286   8.495   5.901 -1.1651 -0.1856 -1.0725
19129SOL     OW60788   5.114   5.869   9.897  0.1070  0.7882  0.0389
19129SOL    HW160789   5.194   5.817   9.896  1.1633  2.1086  3.2931
19129SOL    HW260790   5.046   5.808   9.869  1.6887 -1.5791  0.9889
19130SOL     OW60791  10.581   0.391  10.727 -1.0073 -0.2619  0.0736
19130SOL    HW160792  10.587   0.460  10.793 -4.3145 -0.7771  1.0793
19130SOL    HW260793  10.592   0.437  10.643 -3.6834  1.7481  0.6770
19131SOL     OW60794   0.838   7.856   0.105  0.4540  0.1445 -0.1000
19131SOL    HW160795   0.794   7.784   0.149  1.0932 -0.7468 -0.8797
19131SOL    HW260796   0.860   7.917   0.175 -0.6717 -0.0962  0.4851
19132SOL     OW60797   4.644   4.580   9.580  0.3574  0.2340 -0.1445
19132SOL    HW160798   4.660   4.639   9.653  0.2002  0.2243 -0.1006
19132SOL    HW260799   4.723   4.527   9.574 -0.1966 -0.7643  0.9662
19133SOL     OW60800   5.899   9.952   0.562  0.0716 -0.0609  0.2907
19133SOL    HW160801   5.902  10.044   0.587 -0.4254 -0.2174  0.9616
19133SOL    HW260802   5.814   9.922   0.594 -1.0966 -0.0300 -2.4786
19134SOL     OW60803   1.908   7.528   3.539  0.2359 -0.5057 -0.0379
19134SOL    HW160804   1.826   7.563   3.573 -0.4836 -0.3895 -1.7642
19134SOL    HW260805   1.896   7.527   3.444  1.4476 -2.4436 -0.2308
19135SOL     OW60806   1.071   7.638   6.176 -0.0369  0.3141 -0.3755
19135SOL    HW160807   0.983   7.675   6.185 -0.0792  0.6549 -1.8095
19135SOL    HW260808   1.071   7.599   6.088  0.4245 -1.9823  0.5723
19136SOL     OW60809   3.502   2.575   0.239 -0.1317 -0.0144 -0.2514
19136SOL    HW160810   3.582   2.575   0.291  1.6738 -0.8396 -2.8236
19136SOL    HW260811   3.527   2.614   0.155 -2.8224  1.0297 -0.6874
19137SOL     OW60812   0.278   1.758   1.528  0.0460  0.6607  0.3890
19137SOL    HW160813   0.205   1.821   1.533 -1.3490 -0.8225 -0.3257
19137SOL    HW260814   0.278   1.729   1.437  0.8082 -0.2145  0.6590
19138SOL     OW60815   2.896   1.349  10.317  0.2062  0.0495  0.6879
19138SOL    HW160816   2.971   1.408  10.326 -0.4001  0.8762  0.4297
19138SOL    HW260817   2.857   1.348  10.405 -0.7307  1.3541  0.3229
19139SOL     OW60818   9.153   2.108   4.933 -0.2435  0.3130 -0.5769
19139SOL    HW160819   9.094   2.139   4.864  0.2747  0.7645 -0.8234
19139SOL    HW260820   9.095   2.082   5.005 -0.7212  1.0516 -0.6899
19140SOL     OW60821   6.917   3.063   9.781  0.3794 -0.2959  0.2863
19140SOL    HW160822   6.967   3.102   9.709 -2.0148 -0.8733 -1.8370
19140SOL    HW260823   6.898   3.136   9.840  2.4727  0.1657  0.4849
19141SOL     OW60824   5.914  10.138   8.728 -0.3618  0.8719 -0.0484
19141SOL    HW160825   5.871  10.147   8.643 -0.1675  1.9726 -0.0397
19141SOL    HW260826   5.885  10.053   8.760  0.7353 -0.2679 -1.8747
19142SOL     OW60827   4.146   0.501   5.089 -0.1610 -0.1128  0.0108
19142SOL    HW160828   4.113   0.578   5.135 -4.5360 -1.7887  0.1677
19142SOL    HW260829   4.150   0.528   4.997 -1.0806  0.4637  0.1316
19143SOL     OW60830   0.364  10.010  10.516 -0.1040  0.5875 -0.4538
19143SOL    HW160831   0.295   9.960  10.473  0.3705  0.1898 -0.7655
19143SOL    HW260832   0.333  10.021  10.606 -0.0248 -0.6439 -0.2583
19144SOL     OW60833   3.612   7.629   7.436  0.1281  0.0570 -0.1330
19144SOL    HW160834   3.555   7.555   7.415  0.2240  0.5281 -2.3285
19144SOL    HW260835   3.629   7.621   7.530 -0.3027 -2.3718 -0.2034
19145SOL     OW60836   8.803   5.099   6.882  0.5098  0.5753 -0.1918
19145SOL    HW160837   8.719   5.090   6.836  0.3139  0.4633  0.1866
19145SOL    HW260838   8.792   5.048   6.962  1.1375  0.1044 -0.4008
19146SOL     OW60839   4.959   2.003   2.059  0.2215  0.4093  0.0823
19146SOL    HW160840   4.869   1.991   2.031  0.1619  1.8565 -0.4048
19146SOL    HW260841   4.974   2.097   2.053  2.6035  0.0018 -2.5417
19147SOL     OW60842   3.251  10.405   5.818  0.0179  0.0831 -0.0896
19147SOL    HW160843   3.192  10.459   5.871 -3.1337 -1.4261 -1.8080
19147SOL    HW260844   3.237  10.435   5.728 -0.0433 -2.0131 -0.8277
19148SOL     OW60845   6.984   0.151   2.806  0.5252 -0.0706  0.6156
19148SOL    HW160846   6.947   0.235   2.831 -0.0543 -0.5090  1.2522
19148SOL    HW260847   6.917   0.086   2.831 -0.4511 -0.5155 -2.6518
19149SOL     OW60848   7.015   0.032   6.474  0.6970  0.5353  0.0648
19149SOL    HW160849   6.982   0.072   6.554 -0.1694 -0.9746  0.4852
19149SOL    HW260850   7.108   0.016   6.492  1.1399  2.4611 -0.1940
19150SOL     OW60851   0.964   5.659   2.857 -0.5616 -0.6312 -0.3724
19150SOL    HW160852   0.965   5.618   2.770 -1.2536  0.0415 -0.7052
19150SOL    HW260853   0.911   5.600   2.911 -0.6964 -0.6984 -0.5797
19151SOL     OW60854   0.341   9.430   3.759 -0.0521  0.3293 -0.0043
19151SOL    HW160855   0.328   9.416   3.665  2.0143 -1.0973 -0.1554
19151SOL    HW260856   0.319   9.345   3.798  1.7956 -0.0118  0.4177
19152SOL     OW60857   7.416   9.166   0.111  0.0970  0.0143 -0.1964
19152SOL    HW160858   7.392   9.096   0.050 -0.8755 -0.2652  0.4887
19152SOL    HW260859   7.402   9.247   0.061  0.3282 -0.2409 -0.6834
19153SOL     OW60860   8.017   7.468   9.970 -0.3535 -0.2393 -0.2826
19153SOL    HW160861   8.111   7.457   9.955 -0.4516  1.0312 -2.1734
19153SOL    HW260862   8.008   7.468  10.065  1.3624 -1.7623 -0.0615
19154SOL     OW60863  10.859   8.133   8.934 -0.4435 -0.0676 -0.0739
19154SOL    HW160864  10.866   8.224   8.904  0.2711  0.0335  0.3916
19154SOL    HW260865  10.890   8.081   8.860 -0.7063  0.0651 -0.2838
19155SOL     OW60866   2.149   9.341   8.658  0.0136  0.2590  0.3346
19155SOL    HW160867   2.230   9.392   8.652  2.4516 -2.9855  2.3384
19155SOL    HW260868   2.110   9.369   8.741 -0.0509  0.6500  0.1746
19156SOL     OW60869   4.645   6.218   8.903 -0.0893 -0.2905 -0.1706
19156SOL    HW160870   4.734   6.217   8.867 -0.4697  1.1562 -1.2764
19156SOL    HW260871   4.620   6.126   8.906  1.7678 -0.8225  1.0770
19157SOL     OW60872   9.913  10.294   2.632  0.2189 -0.3157 -0.8387
19157SOL    HW160873   9.901  10.311   2.726  2.8338 -0.1015 -0.4598
19157SOL    HW260874   9.864  10.214   2.616 -0.1134 -0.4788  0.7843
19158SOL     OW60875   3.299   7.620   6.601  0.4067  0.0282 -0.0018
19158SOL    HW160876   3.315   7.687   6.534  1.1483 -0.5895 -0.4630
19158SOL    HW260877   3.260   7.548   6.553  0.1864 -0.1092  0.3845
19159SOL     OW60878   2.705   8.853   0.918  0.5156  0.4703 -0.7195
19159SOL    HW160879   2.704   8.948   0.916  0.5541  0.5859  1.5041
19159SOL    HW260880   2.614   8.827   0.906  0.5650  0.7546 -1.7438
19160SOL     OW60881   1.716   6.060   7.379 -0.2221 -0.2282 -0.1102
19160SOL    HW160882   1.723   5.970   7.409  2.1687 -0.3095 -0.7630
19160SOL    HW260883   1.746   6.058   7.288  1.2691  1.4152  0.2895
19161SOL     OW60884   1.810   4.067   3.893 -0.4491 -0.2140  0.7097
19161SOL    HW160885   1.807   4.156   3.858  0.9091  0.0863  1.2720
19161SOL    HW260886   1.892   4.032   3.860 -1.3011 -1.5290 -0.0821
19162SOL     OW60887   6.731   9.056   2.693 -0.6300 -0.3525  0.1440
19162SOL    HW160888   6.640   9.064   2.724 -0.2726  0.7592  0.9834
19162SOL    HW260889   6.760   9.147   2.682  0.6300 -0.6780  0.6684
19163SOL     OW60890   1.853   3.845   4.455 -0.3961 -0.2271 -0.1317
19163SOL    HW160891   1.761   3.869   4.445 -0.6059 -0.7991  0.3925
19163SOL    HW260892   1.878   3.878   4.541 -0.2698 -0.5686 -0.0367
19164SOL     OW60893   9.331   8.454  10.503  0.1774  0.5691  0.4351
19164SOL    HW160894   9.353   8.511  10.577  1.4091 -0.7920  1.1640
19164SOL    HW260895   9.275   8.386  10.542  1.3956 -0.5444  0.2823
19165SOL     OW60896   9.286   6.720   8.950 -0.1024  0.3320  0.0081
19165SOL    HW160897   9.227   6.734   9.024 -0.7202 -1.4024 -0.1254
19165SOL    HW260898   9.367   6.686   8.988 -0.5085 -0.8046 -0.0986
19166SOL     OW60899   1.691   9.789   1.632 -0.1059  0.0006 -0.4143
19166SOL    HW160900   1.734   9.761   1.713 -1.9806  0.5456  0.8515
19166SOL    HW260901   1.737   9.868   1.606  0.5581 -0.2156  0.0772
19167SOL     OW60902   9.387   4.367   0.792  0.2204  0.2847 -0.0214
19167SOL    HW160903   9.437   4.327   0.722 -0.3064 -0.0711 -0.1955
19167SOL    HW260904   9.325   4.300   0.819  2.0628 -0.5754  2.5443
19168SOL     OW60905   2.462   6.183   7.315  0.0291  0.1500 -0.3972
19168SOL    HW160906   2.437   6.238   7.240 -1.4269  1.1992  0.7999
19168SOL    HW260907   2.522   6.238   7.365  1.3451 -0.7134 -0.9739
19169SOL     OW60908   4.718  10.225   8.987 -0.1813 -0.0709 -0.2306
19169SOL    HW160909   4.734  10.241   8.894 -2.9333  0.4114 -0.7058
19169SOL    HW260910   4.741  10.307   9.030  2.0799 -0.6134 -0.2600
19170SOL     OW60911   4.827   5.349   4.811  0.2781  0.2611 -0.0870
19170SOL    HW160912   4.912   5.376   4.778  1.6661 -2.4932  0.8993
19170SOL    HW260913   4.764   5.383   4.747  2.3736 -0.2049 -2.5376
19171SOL     OW60914   9.099   6.338   1.603 -0.0500  0.5273 -0.0105
19171SOL    HW160915   9.130   6.252   1.630 -1.7341 -0.6102 -1.5319
19171SOL    HW260916   9.006   6.338   1.624 -1.0033  0.3524 -3.6889
19172SOL     OW60917   3.136   4.235   8.614  0.4153  0.0989 -0.1350
19172SOL    HW160918   3.154   4.157   8.667 -0.4301 -0.1826 -0.2538
19172SOL    HW260919   3.119   4.201   8.526 -0.4282  0.3738 -0.0852
19173SOL     OW60920   3.519   9.144   4.302 -0.1127  0.6760 -0.1762
19173SOL    HW160921   3.445   9.127   4.360 -0.1652  0.0093 -0.4283
19173SOL    HW260922   3.531   9.239   4.305 -1.5702  0.9036 -0.8739
19174SOL     OW60923   6.859   2.612   1.977 -0.0145 -0.1615  0.1764
19174SOL    HW160924   6.860   2.707   1.981  4.8670  0.0659  0.0306
19174SOL    HW260925   6.918   2.584   2.047 -1.9227 -3.2045  0.7513
19175SOL     OW60926  10.017   6.720   6.666  0.7498  0.3224 -0.7862
19175SOL    HW160927   9.973   6.646   6.707 -0.6076  0.3496 -2.0978
19175SOL    HW260928  10.090   6.681   6.618  1.3569  0.1078  0.2989
19176SOL     OW60929   5.953   2.631  10.265  0.5194  0.2265  0.6892
19176SOL    HW160930   5.959   2.597  10.354  0.1465  1.9953  1.4357
19176SOL    HW260931   6.044   2.647  10.239  0.6820 -1.0479  0.4183
19177SOL     OW60932   4.237   4.700   2.537  0.1357 -0.0743  0.5276
19177SOL    HW160933   4.234   4.618   2.587  0.1938 -1.0755 -1.0464
19177SOL    HW260934   4.161   4.697   2.480  0.5792  0.5935 -0.1214
19178SOL     OW60935   8.665   0.455   3.430  0.5916  0.7129 -0.5565
19178SOL    HW160936   8.630   0.481   3.515  0.7659 -0.8256  0.0273
19178SOL    HW260937   8.601   0.393   3.396  0.7298  1.0099 -1.3707
19179SOL     OW60938   6.437   6.541   9.013  0.4667 -0.0674  0.2332
19179SOL    HW160939   6.412   6.468   9.070  0.1653 -1.3320 -1.4299
19179SOL    HW260940   6.531   6.552   9.029  0.7991 -1.6890 -0.3525
19180SOL     OW60941   2.441   1.949   1.524  0.2510 -0.5038  0.4783
19180SOL    HW160942   2.440   2.010   1.451 -1.6378  0.6838  1.4016
19180SOL    HW260943   2.500   1.988   1.588  0.0186 -0.2947  0.5644
19181SOL     OW60944   1.557   2.532   3.584  0.1895  0.0894 -0.3006
19181SOL    HW160945   1.607   2.490   3.515 -1.3648 -1.0588 -0.7981
19181SOL    HW260946   1.583   2.624   3.581  0.0974  0.1012 -2.5107
19182SOL     OW60947   8.906   0.679   6.685 -0.7624  0.0286 -0.2372
19182SOL    HW160948   8.908   0.694   6.590  1.3646 -0.4798 -0.3146
19182SOL    HW260949   8.845   0.745   6.719 -2.6713 -0.6586 -2.0710
19183SOL     OW60950   1.563   6.416   9.592  0.1099  0.4093 -0.0667
19183SOL    HW160951   1.527   6.407   9.504  1.6643  1.7332 -0.8919
19183SOL    HW260952   1.555   6.509   9.612 -0.2064  0.1338  1.2148
19184SOL     OW60953   0.534   6.002  10.055 -0.1007 -0.0506 -0.1919
19184SOL    HW160954   0.449   6.042  10.073  0.0962  0.0619  0.5351
19184SOL    HW260955   0.546   5.938  10.125  0.1011 -0.5687 -0.6927
19185SOL     OW60956   1.251   1.304   6.652 -0.9926  0.4246  0.4230
19185SOL    HW160957   1.333   1.254   6.649 -1.9383 -1.1754 -0.5205
19185SOL    HW260958   1.196   1.263   6.585 -2.5138  1.5610  0.9192
19186SOL     OW60959   7.065   1.442   3.776  0.8248 -0.2951  0.4970
19186SOL    HW160960   6.974   1.470   3.784  0.2445 -1.4700 -1.2688
19186SOL    HW260961   7.111   1.488   3.846 -1.1087  0.3567  1.4046
19187SOL     OW60962  10.815   0.286   1.151 -0.5702  0.1686  0.3328
19187SOL    HW160963  10.904   0.276   1.185 -0.5475 -1.1972 -0.0665
19187SOL    HW260964  10.760   0.247   1.218 -0.7448 -0.1771 -0.0076
19188SOL     OW60965   2.543   4.492   7.862 -0.4750 -0.0755 -0.3119
19188SOL    HW160966   2.506   4.461   7.944  1.9394 -0.8329  0.5896
19188SOL    HW260967   2.601   4.422   7.833  1.5421  1.6078 -0.6763
19189SOL     OW60968  10.570   2.419   3.994  0.2663 -0.4139 -0.1851
19189SOL    HW160969  10.642   2.357   3.994  1.1709  0.6103 -0.2676
19189SOL    HW260970  10.520   2.398   4.073  1.8909  0.2364  1.0757
19190SOL     OW60971   1.956   9.263   9.774 -0.6792  0.2728  0.2544
19190SOL    HW160972   1.867   9.243   9.743  0.1663 -3.8480 -0.1636
19190SOL    HW260973   1.999   9.302   9.698 -1.4675 -0.1137 -0.4172
19191SOL     OW60974   1.888   6.785  10.859  0.0810 -0.0138 -0.4115
19191SOL    HW160975   1.909   6.794  10.952 -0.6929 -0.9652 -0.1379
19191SOL    HW260976   1.961   6.735  10.822  0.5421  0.6294 -0.3908
19192SOL     OW60977   3.300   8.910   3.044 -0.3581  0.1221  0.0101
19192SOL    HW160978   3.373   8.877   3.096  0.4587 -1.4262 -2.0038
19192SOL    HW260979   3.227   8.852   3.067 -0.3516  0.2430  0.3458
19193SOL     OW60980   8.616   4.778   0.831 -0.0880 -0.2875  0.2423
19193SOL    HW160981   8.564   4.714   0.783  1.4003 -0.1394 -1.6825
19193SOL    HW260982   8.570   4.861   0.818  0.9898  0.0032 -2.1949
19194SOL     OW60983   1.062   3.425   1.061 -0.5296  0.2951 -0.0603
19194SOL    HW160984   1.024   3.500   1.016 -1.4562 -0.5540 -0.7422
19194SOL    HW260985   1.076   3.455   1.151 -0.8251  1.2953 -0.3401
19195SOL     OW60986   8.555   2.101   7.587  0.1703  0.4132  0.2192
19195SOL    HW160987   8.482   2.102   7.650  0.0872 -1.7678  0.2175
19195SOL    HW260988   8.585   2.011   7.586  2.2746  1.0573 -0.5343
19196SOL     OW60989   6.426   1.334   9.666  0.3567 -0.2034 -0.1532
19196SOL    HW160990   6.453   1.373   9.583 -1.1338 -1.7859 -1.4597
19196SOL    HW260991   6.427   1.407   9.728 -1.4278  1.7544 -2.2438
19197SOL     OW60992   2.061   5.576   7.896  0.2828  0.1121 -0.9715
19197SOL    HW160993   2.147   5.542   7.920  0.5696 -0.2747 -2.4394
19197SOL    HW260994   2.080   5.645   7.832 -0.5472 -1.2982 -2.8105
19198SOL     OW60995   9.417   6.992   6.726  0.0374 -1.2132 -0.3758
19198SOL    HW160996   9.361   6.996   6.648  0.1205 -1.0446 -0.4269
19198SOL    HW260997   9.428   7.083   6.752  1.7778 -1.0846 -1.4109
19199SOL     OW60998   8.103   8.091   0.573  0.3873 -0.0417  0.1528
19199SOL    HW160999   8.121   8.090   0.479 -1.1179  1.1597 -0.1783
19199SOL    HW261000   8.030   8.030   0.584 -1.3050  1.8649  0.0695
19200SOL     OW61001   5.396   8.177   3.397 -0.0011 -0.0734 -0.5608
19200SOL    HW161002   5.370   8.089   3.425  1.4024 -1.3492 -2.9379
19200SOL    HW261003   5.340   8.195   3.321  1.9634 -0.4470 -2.1922
19201SOL     OW61004  10.805   2.414   5.981 -0.5200 -0.1111  0.2693
19201SOL    HW161005  10.870   2.347   6.000  2.5309  2.6364  0.3454
19201SOL    HW261006  10.772   2.441   6.066  0.6368  0.6332  0.5000
19202SOL     OW61007   1.812   6.329   8.679 -1.1137 -0.0003 -0.0263
19202SOL    HW161008   1.907   6.330   8.674 -1.1088  0.3133  0.0525
19202SOL    HW261009   1.793   6.314   8.772 -1.1725 -2.7911 -0.4325
19203SOL     OW61010   6.562   9.697   2.307  0.0971  0.0142 -0.1092
19203SOL    HW161011   6.522   9.712   2.221 -0.8560 -1.7218  0.0012
19203SOL    HW261012   6.573   9.602   2.313  0.0282  0.0872  1.7374
19204SOL     OW61013   0.585   3.426   8.398  0.4644 -0.1329  0.1079
19204SOL    HW161014   0.497   3.448   8.369  1.6732  2.3272 -2.2270
19204SOL    HW261015   0.595   3.473   8.481  0.1972  1.3490 -0.6579
19205SOL     OW61016   5.062   5.310   9.491 -0.2679 -0.4992 -0.1975
19205SOL    HW161017   5.075   5.218   9.512 -0.4265 -0.3995  0.3511
19205SOL    HW261018   4.975   5.314   9.452 -0.7418 -0.4287  0.8168
19206SOL     OW61019   0.812  10.487   0.101 -0.6319  0.0065 -0.4494
19206SOL    HW161020   0.764  10.462   0.022  1.1734  0.3397 -1.7044
19206SOL    HW261021   0.831  10.404   0.145 -1.9060 -0.1609 -0.1424
19207SOL     OW61022   8.167   2.782   6.977  0.0189  0.7062  0.1030
19207SOL    HW161023   8.227   2.709   6.961  1.2468  1.9636 -1.3201
19207SOL    HW261024   8.110   2.782   6.899 -0.1511  1.1107  0.2289
19208SOL     OW61025   7.305   0.190   8.002 -0.1065 -0.2170 -0.0485
19208SOL    HW161026   7.329   0.281   7.984  0.0650 -0.1475  0.5168
19208SOL    HW261027   7.284   0.153   7.916 -1.5427  0.7306 -0.1218
19209SOL     OW61028   6.174   5.228   8.897  0.2646 -0.2128 -0.6729
19209SOL    HW161029   6.084   5.210   8.923  0.6504 -0.9757  0.1851
19209SOL    HW261030   6.227   5.176   8.957  1.3759  2.1009  0.4444
19210SOL     OW61031   5.775   4.816   4.095 -0.1197  0.5606  0.4811
19210SOL    HW161032   5.701   4.755   4.098 -0.1473  0.5575 -0.1743
19210SOL    HW261033   5.852   4.760   4.095 -0.1555  0.4953 -0.7658
19211SOL     OW61034   8.004   6.420   3.877  0.2997 -0.2104  0.2620
19211SOL    HW161035   8.016   6.340   3.928 -0.9245  0.2371  1.3033
19211SOL    HW261036   7.914   6.446   3.894  0.5074  1.0941 -0.5045
19212SOL     OW61037   6.613   3.349   6.975  0.4143 -0.3957  0.8475
19212SOL    HW161038   6.544   3.290   7.006  0.2458 -0.2180  0.8159
19212SOL    HW261039   6.694   3.299   6.985  0.1762 -1.0065 -0.1015
19213SOL     OW61040   0.175  10.187   8.737  0.4284  0.4935 -0.3204
19213SOL    HW161041   0.255  10.134   8.742  1.1440  1.5760 -0.0959
19213SOL    HW261042   0.200  10.272   8.772 -0.9929  0.6738  0.3211
19214SOL     OW61043   5.437   8.274   5.909  0.1014  0.4178  0.2441
19214SOL    HW161044   5.477   8.189   5.927  0.3962 -0.1315 -2.5821
19214SOL    HW261045   5.342   8.256   5.911  0.1334 -0.7268 -2.9048
19215SOL     OW61046   7.492   7.847  10.891  0.2689  0.1037  0.1597
19215SOL    HW161047   7.489   7.890  10.806  0.1665  2.0751  1.0966
19215SOL    HW261048   7.572   7.880  10.932  0.4430 -1.0050  0.7644
19216SOL     OW61049   4.339   5.518   0.437  0.3369  0.4002 -0.1577
19216SOL    HW161050   4.270   5.457   0.410  0.0460  0.5329  0.2830
19216SOL    HW261051   4.406   5.462   0.475  1.7428 -0.0604 -3.0034
19217SOL     OW61052   8.218   9.203   8.754 -0.1341 -0.2659  0.2767
19217SOL    HW161053   8.155   9.184   8.685  0.4357 -1.8750  0.1524
19217SOL    HW261054   8.196   9.291   8.784 -2.7246 -0.9323  0.5652
19218SOL     OW61055   7.121   8.221   3.386 -0.6807 -0.1468 -0.4447
19218SOL    HW161056   7.154   8.263   3.307 -1.0328 -1.1619 -1.1622
19218SOL    HW261057   7.109   8.292   3.449 -1.8695  0.9111 -1.8102
19219SOL     OW61058   2.402   8.142   2.798 -0.2795 -0.1371  0.3206
19219SOL    HW161059   2.315   8.129   2.759  0.4504  0.1976 -1.5104
19219SOL    HW261060   2.404   8.235   2.821 -0.3309 -0.0938  0.1528
19220SOL     OW61061   3.549   1.789  10.087 -0.0829 -0.0815 -0.2939
19220SOL    HW161062   3.541   1.853  10.016 -0.5180  1.6426  1.2299
19220SOL    HW261063   3.520   1.836  10.165  1.7715 -1.4406  1.3046
19221SOL     OW61064   9.760   6.227   7.732 -0.1896  0.2728 -0.7499
19221SOL    HW161065   9.782   6.260   7.819  0.6093 -0.7415 -0.5513
19221SOL    HW261066   9.718   6.301   7.688 -0.6820  0.7713  0.5222
19222SOL     OW61067   9.215   7.732   0.627  0.1075 -0.6497 -0.1803
19222SOL    HW161068   9.187   7.715   0.717 -1.4483  0.3193 -0.4326
19222SOL    HW261069   9.310   7.721   0.629 -0.0437 -2.0424  1.2458
19223SOL     OW61070   6.566   0.515   0.783 -0.1299 -0.1451 -0.3023
19223SOL    HW161071   6.490   0.544   0.833  0.2552  1.2092 -0.4589
19223SOL    HW261072   6.574   0.421   0.803  0.1300  0.3634  2.3243
19224SOL     OW61073   6.496  10.542   9.286  0.4921  0.3199 -0.2643
19224SOL    HW161074   6.568  10.481   9.302  0.3308 -0.0325 -0.8579
19224SOL    HW261075   6.537  10.628   9.285  1.3328 -0.0260 -2.9202
19225SOL     OW61076   6.333   2.919   2.084  0.2724  0.4302  0.0552
19225SOL    HW161077   6.258   2.950   2.135 -2.5947 -2.7595 -1.7450
19225SOL    HW261078   6.345   2.986   2.017  0.7194  2.1775  1.8165
19226SOL     OW61079   0.316   3.438   0.686 -0.0279  0.6452 -0.3667
19226SOL    HW161080   0.269   3.511   0.727  0.0237  1.4010 -1.5912
19226SOL    HW261081   0.257   3.364   0.694 -0.3823  0.9863  0.2758
19227SOL     OW61082   2.128   0.925   6.481  0.6573 -0.2760 -0.3528
19227SOL    HW161083   2.034   0.919   6.498  0.6234 -0.0130 -0.4389
19227SOL    HW261084   2.137   0.902   6.388  0.8452 -1.7427 -0.0047
19228SOL     OW61085   9.009   9.303   7.525  0.4988  0.3267 -0.4922
19228SOL    HW161086   8.973   9.308   7.436  2.4703 -1.0713 -1.4386
19228SOL    HW261087   9.098   9.339   7.517  1.3079 -1.3274  0.5144
19229SOL     OW61088   2.854   4.685   9.055  0.0671 -0.0257  0.3515
19229SOL    HW161089   2.889   4.724   9.135 -0.3152  0.6175  0.2110
19229SOL    HW261090   2.925   4.692   8.991  0.0635  0.2807  0.3793
19230SOL     OW61091   6.156   6.153   6.538 -0.0212 -0.4470 -0.0621
19230SOL    HW161092   6.161   6.064   6.573  0.3951 -0.6252 -0.5630
19230SOL    HW261093   6.151   6.141   6.443  1.4102  0.0926 -0.2282
19231SOL     OW61094   0.540   0.181   2.879  0.2972 -0.3033 -0.5795
19231SOL    HW161095   0.620   0.187   2.931  0.1656  0.7513 -0.4780
19231SOL    HW261096   0.570   0.153   2.793  0.4877 -2.3207  0.0886
19232SOL     OW61097  10.856   8.035   1.813  0.2218 -0.1745 -0.3887
19232SOL    HW161098  10.763   8.015   1.822  0.0600  0.9575  0.7520
19232SOL    HW261099  10.897   7.950   1.797 -0.8269 -0.9234  0.7047
19233SOL     OW61100  10.319   3.576   1.936 -0.1827  0.4248  0.0860
19233SOL    HW161101  10.229   3.607   1.951 -0.3698  1.0882 -2.0181
19233SOL    HW261102  10.310   3.512   1.865  0.7574 -1.3433  1.4955
19234SOL     OW61103   3.398   1.206  10.760  0.1322 -0.0889 -0.4973
19234SOL    HW161104   3.363   1.117  10.772 -0.6322  0.0316 -1.6199
19234SOL    HW261105   3.364   1.255  10.834 -3.4209  0.3677 -2.2228
19235SOL     OW61106   3.268   0.657   3.960 -0.1321  0.0367 -0.4714
19235SOL    HW161107   3.202   0.686   3.897 -0.1547 -0.6939 -0.7957
19235SOL    HW261108   3.345   0.709   3.940 -0.8131  1.4529  0.4050
19236SOL     OW61109   6.969   6.971   0.705  0.4709  0.5930 -0.1763
19236SOL    HW161110   6.882   6.981   0.745  1.0780  1.0036  1.0957
19236SOL    HW261111   6.964   7.020   0.623 -0.6891  0.0699 -0.4420
19237SOL     OW61112   9.285   6.167   8.720 -0.9905 -0.5512  0.2419
19237SOL    HW161113   9.291   6.255   8.684 -1.5979 -0.7225 -0.2909
19237SOL    HW261114   9.366   6.123   8.692 -0.6225 -0.1314  0.6276
19238SOL     OW61115   4.443   0.394   1.249 -0.6504  0.0684 -0.0660
19238SOL    HW161116   4.470   0.435   1.332 -0.1742 -0.3304 -0.0183
19238SOL    HW261117   4.389   0.320   1.276 -1.9755  0.9727 -0.1669
19239SOL     OW61118   6.786  10.186   6.555 -0.0120  0.3808 -0.1322
19239SOL    HW161119   6.845  10.190   6.631 -0.2979  0.8462  0.0671
19239SOL    HW261120   6.747  10.273   6.550  1.2133  0.8785 -1.7871
19240SOL     OW61121   1.539   5.966   8.119 -0.0269 -0.3484 -1.0419
19240SOL    HW161122   1.457   5.925   8.148 -1.1871  0.7845 -2.5575
19240SOL    HW261123   1.559   6.030   8.187  0.6109 -1.8285  0.2273
19241SOL     OW61124   5.675   3.770  10.321 -0.3465 -0.2358  0.2776
19241SOL    HW161125   5.714   3.742  10.239 -0.5131  1.4938 -0.4395
19241SOL    HW261126   5.672   3.691  10.375  1.1589 -1.0834 -0.8096
19242SOL     OW61127   1.251   5.289   3.676 -0.4230  0.3580 -0.3947
19242SOL    HW161128   1.192   5.323   3.743 -1.1834 -0.8013 -0.4408
19242SOL    HW261129   1.299   5.365   3.645 -0.7045  1.0556  0.8329
19243SOL     OW61130   8.124   2.617   4.374  0.2290 -0.0513 -0.1716
19243SOL    HW161131   8.108   2.684   4.308  0.1880 -0.9830 -1.1327
19243SOL    HW261132   8.186   2.658   4.434  1.7640  0.1857 -1.8257
19244SOL     OW61133   8.098   9.523   5.713 -0.2220  0.2065  0.1613
19244SOL    HW161134   8.179   9.574   5.722 -0.4560  0.4583  0.9262
19244SOL    HW261135   8.039   9.561   5.777 -0.6153 -0.6394  0.3102
19245SOL     OW61136   8.919   3.288   3.262  0.6120  0.2982  0.0408
19245SOL    HW161137   9.015   3.288   3.264  0.5975  0.3745  1.0305
19245SOL    HW261138   8.894   3.196   3.269  0.5957  0.4192  1.9618
19246SOL     OW61139   0.958   7.266   1.565  0.0236 -0.4750  0.0358
19246SOL    HW161140   0.922   7.330   1.504 -1.9995 -0.1978  1.4240
19246SOL    HW261141   0.936   7.181   1.527 -0.3902 -0.3208 -0.0678
19247SOL     OW61142   7.733   2.652   6.938 -0.1533 -0.5214 -0.1003
19247SOL    HW161143   7.814   2.632   6.891  0.9915  0.2204  1.4455
19247SOL    HW261144   7.667   2.660   6.869  1.2167 -0.4950 -1.4799
19248SOL     OW61145   8.112   6.413   1.225 -0.3781 -0.2790 -0.4411
19248SOL    HW161146   8.067   6.389   1.144 -0.3074 -0.4507 -0.4302
19248SOL    HW261147   8.066   6.364   1.294 -0.8384  0.3500 -0.2948
19249SOL     OW61148  10.177  10.911   8.427  0.4170  0.0254 -0.4347
19249SOL    HW161149  10.089  10.948   8.414  0.9083  1.0850 -0.8843
19249SOL    HW261150  10.202  10.877   8.342  0.6871  0.2817 -0.4596
19250SOL     OW61151  10.798   7.822  10.380 -0.6664  0.0701 -0.8040
19250SOL    HW161152  10.744   7.749  10.410  1.3376 -1.5338 -0.8604
19250SOL    HW261153  10.799   7.814  10.285  0.1839 -0.3500 -0.7728
19251SOL     OW61154   4.648   1.550   7.422  0.2282 -0.2014 -0.6279
19251SOL    HW161155   4.680   1.602   7.496 -0.6855 -0.2955 -0.1436
19251SOL    HW261156   4.675   1.599   7.345 -0.2346  0.7886 -0.1864
19252SOL     OW61157  10.476   3.654   0.471 -0.7670 -0.0650  0.2055
19252SOL    HW161158  10.423   3.733   0.472  1.0173  1.1888  0.9583
19252SOL    HW261159  10.426   3.592   0.417 -0.8480  2.5425 -3.0421
19253SOL     OW61160   0.981   6.564   5.489 -0.1572 -0.0513  0.1277
19253SOL    HW161161   0.913   6.631   5.499 -0.0142  0.1368 -0.1297
19253SOL    HW261162   1.055   6.611   5.448  0.5898  0.0547  1.5473
19254SOL     OW61163   2.060   2.571  10.851  0.2221 -0.1731  0.0795
19254SOL    HW161164   1.975   2.616  10.859  0.5857  0.3762  1.0873
19254SOL    HW261165   2.048   2.489  10.900  0.4110  0.1221  0.6262
19255SOL     OW61166   4.497   6.557   7.838 -0.6225  0.0252 -0.0888
19255SOL    HW161167   4.490   6.494   7.910  0.5517 -2.6599 -2.1499
19255SOL    HW261168   4.533   6.636   7.878 -0.4028 -1.2140  2.3253
19256SOL     OW61169   4.293   8.530   1.636  0.5990 -0.4340  0.3123
19256SOL    HW161170   4.335   8.512   1.721 -0.4507 -1.9145  0.5387
19256SOL    HW261171   4.203   8.552   1.659  0.0314 -1.8608 -0.4714
19257SOL     OW61172   9.719   3.257   1.322  0.1814  0.1868 -0.3010
19257SOL    HW161173   9.754   3.247   1.410  0.2559  1.0025 -0.2277
19257SOL    HW261174   9.791   3.234   1.264  0.1527 -0.2861 -0.1535
19258SOL     OW61175   9.064   6.670   0.853  0.1194 -0.2079 -0.2367
19258SOL    HW161176   8.975   6.702   0.840 -1.2683 -3.8974 -1.2348
19258SOL    HW261177   9.105   6.734   0.911 -2.4930  2.6610 -1.3107
19259SOL     OW61178   9.315   9.830   8.621  0.2874  0.1843 -0.1564
19259SOL    HW161179   9.357   9.818   8.706  0.7940  0.8034 -0.3058
19259SOL    HW261180   9.289   9.922   8.620  2.5079  0.8778 -1.6236
19260SOL     OW61181   5.607   4.894   2.749  0.4227  0.7243 -0.1102
19260SOL    HW161182   5.515   4.907   2.774  0.4387 -0.0893  0.4053
19260SOL    HW261183   5.622   4.958   2.680 -0.0548  2.0550  0.9545
19261SOL     OW61184  10.478   1.832   0.892  0.0824 -0.5946  0.4137
19261SOL    HW161185  10.484   1.785   0.975  0.3266 -1.0175  0.1573
19261SOL    HW261186  10.385   1.832   0.871  0.2340 -2.2757 -0.3371
19262SOL     OW61187   1.621   2.484   9.988 -0.3395 -0.1124  0.8421
19262SOL    HW161188   1.579   2.433  10.057  0.8528  0.0724  1.7490
19262SOL    HW261189   1.711   2.451   9.986 -0.8573 -1.6666 -2.1657
19263SOL     OW61190   6.301   6.840   0.794  0.0388  0.2956 -0.1732
19263SOL    HW161191   6.295   6.913   0.856  0.6460  0.7313 -0.6197
19263SOL    HW261192   6.321   6.764   0.848  1.3686  0.8144  0.0920
19264SOL     OW61193   8.576   9.715   5.048 -0.2899  0.1287  0.0197
19264SOL    HW161194   8.524   9.792   5.072  0.8366  1.3083 -1.1442
19264SOL    HW261195   8.511   9.649   5.022 -1.2650  0.7534  0.7851
19265SOL     OW61196   5.997   0.727   4.082  0.0550  0.5463  1.0676
19265SOL    HW161197   6.085   0.703   4.113 -0.3668 -0.3147  1.6314
19265SOL    HW261198   5.938   0.691   4.148 -0.8559 -0.9381 -0.4906
19266SOL     OW61199   4.274   0.423   3.823 -0.6411 -0.7139 -0.2520
19266SOL    HW161200   4.359   0.427   3.866 -0.9923  1.9931  0.3549
19266SOL    HW261201   4.292   0.383   3.738  1.2151 -0.3162 -0.0918
19267SOL     OW61202  10.576   4.558   5.174 -0.1397 -0.0286  0.1660
19267SOL    HW161203  10.647   4.495   5.159  0.4100 -0.2146  3.0550
19267SOL    HW261204  10.602   4.635   5.124  1.0290 -0.8297 -0.5088
19268SOL     OW61205   1.185   9.586   1.627 -0.2840 -0.3653 -0.5972
19268SOL    HW161206   1.111   9.645   1.609 -0.9888 -0.6607  1.1685
19268SOL    HW261207   1.224   9.620   1.707 -0.5025 -2.1019  0.2780
19269SOL     OW61208   9.258   9.010  10.438 -0.6202  0.0848  0.4963
19269SOL    HW161209   9.240   8.967  10.355 -0.3454  0.5629  0.1881
19269SOL    HW261210   9.338   9.061  10.423  0.3482 -1.0695  1.5104
19270SOL     OW61211   3.623   7.089   8.018 -0.5237 -0.1458  0.5621
19270SOL    HW161212   3.542   7.126   8.052 -1.3849 -0.8295 -0.6934
19270SOL    HW261213   3.670   7.058   8.096 -0.6374  1.8071  1.4587
19271SOL     OW61214   6.819   5.923  10.185 -0.0242 -0.9074  0.0822
19271SOL    HW161215   6.749   5.924  10.120  1.0572  0.8754 -1.1426
19271SOL    HW261216   6.805   6.002  10.236  1.8701  0.2753 -1.1199
19272SOL     OW61217   7.647   1.657  10.173 -0.4738  0.3355  0.3473
19272SOL    HW161218   7.620   1.593  10.106  0.2872 -1.8431  2.0018
19272SOL    HW261219   7.743   1.660  10.165 -0.4858  1.1223  0.4562
19273SOL     OW61220   3.727   2.678   7.889 -0.0720 -0.2586  0.2122
19273SOL    HW161221   3.644   2.673   7.841 -0.5638 -0.1982  1.0400
19273SOL    HW261222   3.739   2.590   7.925  0.4730 -0.4016 -0.2840
19274SOL     OW61223   0.185   8.857   6.076 -0.3800  0.7248 -0.0494
19274SOL    HW161224   0.198   8.922   6.007 -2.2682  0.7033 -0.4723
19274SOL    HW261225   0.090   8.843   6.078 -0.1428 -0.9690  1.0012
19275SOL     OW61226   7.237   8.486   8.642  0.5835  0.3614 -0.3272
19275SOL    HW161227   7.192   8.460   8.562  0.0088 -0.0509  0.1233
19275SOL    HW261228   7.175   8.543   8.687  1.7027  2.3133 -1.1500
19276SOL     OW61229  10.355   0.867   5.025  0.2329  0.6468 -0.3719
19276SOL    HW161230  10.393   0.851   4.939 -0.5122 -0.0897 -0.5788
19276SOL    HW261231  10.415   0.825   5.087  1.3349  2.0749 -0.4157
19277SOL     OW61232   3.700   1.607   3.148  0.0795 -0.4238  0.3706
19277SOL    HW161233   3.648   1.550   3.091  0.4101  0.4987 -0.8928
19277SOL    HW261234   3.759   1.653   3.089  1.4367 -0.4585  1.6216
19278SOL     OW61235   7.560   3.312   7.735  0.2287  0.2521  0.3811
19278SOL    HW161236   7.475   3.311   7.779 -0.0050 -0.4850 -0.0756
19278SOL    HW261237   7.585   3.220   7.729  0.1876  0.3221 -1.1490
19279SOL     OW61238   5.012   2.609   9.929 -0.0927 -0.6739  0.2552
19279SOL    HW161239   4.957   2.657   9.991 -0.0591  0.4899 -0.5719
19279SOL    HW261240   4.980   2.519   9.932 -1.4953 -0.1919  0.4009
19280SOL     OW61241   7.101   4.757  10.873 -0.2409 -0.4752 -0.4202
19280SOL    HW161242   7.075   4.777  10.783  0.0804 -0.7725 -0.5783
19280SOL    HW261243   7.150   4.834  10.902 -0.6233 -0.2408 -0.3843
19281SOL     OW61244   5.708   0.997   6.294 -0.5457 -0.0487 -0.2959
19281SOL    HW161245   5.693   0.907   6.265 -2.0645  0.2035 -0.3846
19281SOL    HW261246   5.667   1.051   6.227  2.1921  0.8531 -1.3827
19282SOL     OW61247   1.722  10.127   4.379 -0.3259  0.0028 -0.5341
19282SOL    HW161248   1.656  10.185   4.416 -1.0284 -2.0036  1.5201
19282SOL    HW261249   1.805  10.157   4.417 -0.6617 -0.2349  0.3942
19283SOL     OW61250   3.341   7.326   5.756 -0.3306 -0.2599  0.3216
19283SOL    HW161251   3.275   7.337   5.688 -1.0446 -4.5090  0.0650
19283SOL    HW261252   3.425   7.335   5.711 -0.7810  0.1280 -0.4469
19284SOL     OW61253   1.622   1.044   6.732 -0.4763  0.1792  0.2549
19284SOL    HW161254   1.645   1.078   6.819  0.9730 -0.7175  0.2484
19284SOL    HW261255   1.582   0.959   6.750  1.3442 -0.7850  0.0204
19285SOL     OW61256  10.219   8.378   8.601  0.1819 -0.5013 -0.3110
19285SOL    HW161257  10.289   8.312   8.598  2.0108  1.3536 -0.7770
19285SOL    HW261258  10.264   8.461   8.585 -2.1579  0.7908 -0.5701
19286SOL     OW61259   5.904   8.410   4.252 -0.1350 -0.3334 -0.0637
19286SOL    HW161260   5.892   8.315   4.253 -0.6801 -0.2655 -0.0202
19286SOL    HW261261   5.820   8.444   4.222 -0.2642  0.1888  0.8744
19287SOL     OW61262   4.849   7.011   4.718 -0.6671  0.2672 -0.1988
19287SOL    HW161263   4.835   7.102   4.691 -1.5431  0.1221 -0.2417
19287SOL    HW261264   4.773   6.963   4.684 -0.4758 -0.3874  0.2785
19288SOL     OW61265   9.910   1.768   3.504 -0.2233  0.0381 -0.0101
19288SOL    HW161266   9.977   1.702   3.520  2.0692  2.1202 -0.2807
19288SOL    HW261267   9.926   1.797   3.414  0.1576  2.2392  0.6959
19289SOL     OW61268   3.982  10.161   8.873  0.3674 -0.5584  0.0285
19289SOL    HW161269   3.907  10.215   8.897  0.3541  0.6462 -2.4430
19289SOL    HW261270   4.058  10.217   8.887  0.4722 -0.3891 -1.1093
19290SOL     OW61271   3.574   0.449   1.001  0.2665  1.0375  0.4143
19290SOL    HW161272   3.503   0.496   1.044  0.7495  2.7733 -0.5978
19290SOL    HW261273   3.645   0.448   1.065 -0.9203 -1.6187  1.8350
19291SOL     OW61274   6.421   1.715   0.090 -0.0981  0.2567 -0.0158
19291SOL    HW161275   6.516   1.715   0.095 -0.1352  0.8822  0.9823
19291SOL    HW261276   6.396   1.804   0.117 -0.9345  0.2886 -0.8557
19292SOL     OW61277   7.083   9.966   8.618  0.5019  0.3457  0.3021
19292SOL    HW161278   7.019  10.036   8.620  0.6871  0.5444 -0.5567
19292SOL    HW261279   7.113   9.958   8.709 -2.4750 -1.3877  1.2523
19293SOL     OW61280  10.681  10.499   2.295  0.3402  0.4287  0.2136
19293SOL    HW161281  10.616  10.568   2.290 -0.5959 -0.4341  0.2051
19293SOL    HW261282  10.633  10.422   2.325  0.6972 -1.0042 -2.5487
19294SOL     OW61283   6.080   0.323   3.324 -0.4258  0.6503 -0.2934
19294SOL    HW161284   6.101   0.403   3.276 -1.1186  0.4922 -0.8835
19294SOL    HW261285   6.112   0.253   3.267 -1.7638  0.4386 -0.8266
19295SOL     OW61286   9.890   6.765   1.762  0.9434  0.1477 -0.4959
19295SOL    HW161287   9.965   6.801   1.715  1.4600  0.1595  0.3228
19295SOL    HW261288   9.874   6.827   1.833 -0.8347  0.9954 -1.5493
19296SOL     OW61289   7.897   7.988   2.261  0.0819  0.7166  0.0790
19296SOL    HW161290   7.968   8.041   2.298  1.9393 -1.2733 -0.4327
19296SOL    HW261291   7.876   7.925   2.330  0.1434  0.0879 -0.4701
19297SOL     OW61292  10.427   7.059   3.897 -0.3825 -0.0304  0.1739
19297SOL    HW161293  10.358   7.014   3.946 -0.5877 -1.9288 -1.7004
19297SOL    HW261294  10.382   7.134   3.857 -1.2732 -0.9049 -0.5336
19298SOL     OW61295   3.382   4.339   5.047 -0.4787  0.2960 -0.4999
19298SOL    HW161296   3.347   4.266   4.997 -1.2206  1.0870 -1.1652
19298SOL    HW261297   3.469   4.310   5.075 -1.0012 -1.0712 -0.2075
19299SOL     OW61298  10.242   2.158   5.978 -0.5685 -0.1672 -0.5150
19299SOL    HW161299  10.221   2.066   5.958  0.7894 -0.5255 -0.4569
19299SOL    HW261300  10.227   2.166   6.072  1.3655 -1.0022 -0.0606
19300SOL     OW61301   9.818   9.765   7.773  0.6761  0.3319 -0.0471
19300SOL    HW161302   9.904   9.729   7.795  0.9507  1.2242  0.3687
19300SOL    HW261303   9.801   9.832   7.839 -1.3123 -1.2678  1.2021
19301SOL     OW61304  10.496   9.372   5.984 -0.2468 -0.9503 -0.5828
19301SOL    HW161305  10.495   9.279   6.006 -3.6277 -1.0047 -0.4175
19301SOL    HW261306  10.421   9.383   5.925  0.3594  1.5988 -0.9923
19302SOL     OW61307   0.252   4.427   5.719 -0.1118  0.4248  0.2254
19302SOL    HW161308   0.266   4.387   5.633 -0.1881 -0.2826  0.5353
19302SOL    HW261309   0.300   4.370   5.780 -0.1860  0.8341  0.6688
19303SOL     OW61310   0.491   5.146   9.559  0.3061 -0.0234  0.2670
19303SOL    HW161311   0.512   5.180   9.472  1.4394  2.0294  1.2743
19303SOL    HW261312   0.568   5.096   9.585  0.5309  0.4750  0.5896
19304SOL     OW61313   0.667   4.208   7.732 -0.3466 -0.4415  0.4658
19304SOL    HW161314   0.708   4.130   7.770 -0.1334 -1.8999 -2.4558
19304SOL    HW261315   0.579   4.179   7.705 -0.5143  0.5127 -0.0896
19305SOL     OW61316   5.075   7.531   7.835 -0.6251 -0.0163  0.0479
19305SOL    HW161317   5.024   7.515   7.915 -0.3564  0.5729  0.3452
19305SOL    HW261318   5.113   7.446   7.814  0.1813  0.0364  1.1764
19306SOL     OW61319   9.490   7.306   3.840 -0.9649  0.2950  0.4606
19306SOL    HW161320   9.482   7.223   3.793 -1.1803  1.6258 -2.0586
19306SOL    HW261321   9.532   7.283   3.923 -1.4618 -2.3659  0.0702
19307SOL     OW61322   6.978   5.484   3.855  0.1060 -0.0868  0.0575
19307SOL    HW161323   7.068   5.516   3.845 -0.1501  0.8648  0.7273
19307SOL    HW261324   6.959   5.494   3.948 -1.0201  0.6073 -0.2266
19308SOL     OW61325   9.740   2.647   5.150 -0.1096  0.1977  0.1186
19308SOL    HW161326   9.710   2.676   5.236 -2.8628 -0.5016 -0.5176
19308SOL    HW261327   9.660   2.633   5.099  1.1334 -3.7818 -1.1566
19309SOL     OW61328   7.711   1.846   9.023  0.8231 -0.4754 -0.2167
19309SOL    HW161329   7.723   1.752   9.014  1.4614 -0.4047 -0.1322
19309SOL    HW261330   7.690   1.877   8.935  0.0938 -0.7660 -0.1502
19310SOL     OW61331   4.422   7.356   6.594 -0.2269  0.6221 -0.8023
19310SOL    HW161332   4.499   7.306   6.566 -0.7202  0.1162 -1.2831
19310SOL    HW261333   4.398   7.408   6.517  1.3516  3.0398  0.2119
19311SOL     OW61334   4.257   7.509   9.620  0.6684  0.2155 -0.0849
19311SOL    HW161335   4.251   7.424   9.663  0.1998 -0.0049 -0.5695
19311SOL    HW261336   4.349   7.517   9.595  0.7269 -0.1259  0.0174
19312SOL     OW61337   5.090   1.461   4.565 -0.1859  0.6134  0.0656
19312SOL    HW161338   5.002   1.486   4.592  0.3575  4.1658 -0.9681
19312SOL    HW261339   5.136   1.444   4.647 -1.0831  1.6108  0.8071
19313SOL     OW61340   4.870   4.685   9.061  0.5824  0.0710 -0.3158
19313SOL    HW161341   4.943   4.676   9.122  1.4413 -1.7558 -1.5358
19313SOL    HW261342   4.907   4.733   8.987  0.1239  0.4614 -0.2924
19314SOL     OW61343   0.042  10.075   9.143  0.4110  0.6090  0.4943
19314SOL    HW161344  -0.007  10.085   9.062  2.0361 -1.2745 -0.8443
19314SOL    HW261345  -0.001  10.002   9.188  0.1704  0.9393  0.8054
19315SOL     OW61346   8.650   9.401   6.837 -0.5485  0.1536  0.0695
19315SOL    HW161347   8.580   9.372   6.780 -1.2724  0.3562  0.8343
19315SOL    HW261348   8.719   9.430   6.778 -0.2522 -1.9973 -0.7092
19316SOL     OW61349   9.918   8.871   8.798 -0.4987  0.2294  0.2305
19316SOL    HW161350   9.897   8.789   8.753  1.1557  0.5307 -1.2147
19316SOL    HW261351   9.957   8.843   8.881  1.9180 -0.6061 -1.0751
19317SOL     OW61352   4.761   6.915   8.562  0.0840 -0.1081 -0.9291
19317SOL    HW161353   4.716   6.837   8.595 -1.0127  1.4040  1.4001
19317SOL    HW261354   4.693   6.962   8.513  0.1038  0.4588 -0.4202
19318SOL     OW61355   7.081   0.402   8.779 -0.2847 -0.5565  0.3446
19318SOL    HW161356   7.007   0.454   8.811  0.4941  0.3492  0.7223
19318SOL    HW261357   7.158   0.456   8.798  0.4172 -1.1663 -0.6910
19319SOL     OW61358   2.465   8.856   1.443  0.4927 -0.3245  0.3179
19319SOL    HW161359   2.440   8.901   1.524  0.9393  0.3597  0.0833
19319SOL    HW261360   2.545   8.900   1.415  1.3821 -1.7755  0.4887
19320SOL     OW61361   2.866   2.890   7.418  0.0567  0.1708  0.2708
19320SOL    HW161362   2.947   2.840   7.405  0.0661 -0.1726  1.5563
19320SOL    HW261363   2.872   2.923   7.507 -1.0965  0.3870  0.2825
19321SOL     OW61364   9.746   6.110  10.596 -0.0986 -0.1255  0.4992
19321SOL    HW161365   9.822   6.156  10.562 -0.7158  0.3013 -0.3404
19321SOL    HW261366   9.703   6.173  10.654 -0.3645 -0.0072  0.1769
19322SOL     OW61367   0.211   2.032  10.608 -0.7010 -0.4248  0.2241
19322SOL    HW161368   0.224   2.003  10.698 -0.7363 -0.2099  0.2983
19322SOL    HW261369   0.214   1.952  10.556 -0.0592 -0.4839  0.3480
19323SOL     OW61370   7.909   9.666   9.863  0.6783  0.1752 -0.4874
19323SOL    HW161371   7.977   9.724   9.828  1.0000  1.4099  1.9824
19323SOL    HW261372   7.868   9.716   9.933  0.0500 -2.0821  0.8725
19324SOL     OW61373   6.037   7.538   0.558 -0.2148  0.3404 -0.4050
19324SOL    HW161374   6.118   7.497   0.527 -0.2709  0.8091 -1.1924
19324SOL    HW261375   5.989   7.466   0.599  0.3360 -0.0684 -0.4526
19325SOL     OW61376   2.013   5.343   2.017  0.2158  0.9186 -0.4502
19325SOL    HW161377   2.080   5.336   2.085 -0.3816 -0.9667  0.0246
19325SOL    HW261378   2.008   5.436   1.997  1.4943  1.3403  0.9833
19326SOL     OW61379   5.144   3.417   1.753 -0.3611 -0.5193 -0.0375
19326SOL    HW161380   5.175   3.328   1.769  0.0127 -0.4377 -0.3000
19326SOL    HW261381   5.092   3.411   1.673  1.5281 -0.1029 -1.3549
19327SOL     OW61382   3.342   8.544   9.148  0.4217  0.3098  0.7751
19327SOL    HW161383   3.432   8.541   9.115  0.4206  1.0765  0.6956
19327SOL    HW261384   3.341   8.616   9.211 -0.5819  1.4894 -0.5464
19328SOL     OW61385   3.649   6.836   0.111 -0.2102 -0.0813 -0.3591
19328SOL    HW161386   3.619   6.754   0.072  2.5531 -0.2039 -2.5521
19328SOL    HW261387   3.615   6.904   0.053  0.3846  0.0244 -0.6014
19329SOL     OW61388   4.545   1.190   2.232  0.5453  0.5784  0.8790
19329SOL    HW161389   4.465   1.232   2.201  1.0072  0.1229 -1.0271
19329SOL    HW261390   4.615   1.229   2.180  0.9409 -2.8885 -1.5446
19330SOL     OW61391   8.919   7.437   4.282  0.2727 -0.2314  0.3485
19330SOL    HW161392   8.950   7.439   4.372  1.8687  0.6925 -0.1816
19330SOL    HW261393   8.996   7.416   4.230 -0.7253 -1.2659 -0.7850
19331SOL     OW61394   4.353   2.558   7.841  0.4859 -0.4165 -0.5509
19331SOL    HW161395   4.267   2.568   7.800  0.8966  0.1598 -1.3006
19331SOL    HW261396   4.356   2.468   7.871 -1.2954  0.1627  1.5838
19332SOL     OW61397   8.356   8.060   9.544 -0.2620  0.9580  0.2884
19332SOL    HW161398   8.306   8.110   9.478 -1.7947 -0.2137  0.4966
19332SOL    HW261399   8.322   7.971   9.537  2.0108  0.0424  0.3228
19333SOL     OW61400   7.699   3.864   7.025  0.5180 -0.1129  0.2801
19333SOL    HW161401   7.717   3.918   6.947  0.4730  0.0181  0.3594
19333SOL    HW261402   7.620   3.816   7.003 -0.1827  0.8131  0.6928
19334SOL     OW61403  10.089   8.919   4.172 -0.7672 -0.7905 -0.4335
19334SOL    HW161404  10.008   8.880   4.203 -0.3411 -0.8343  0.6589
19334SOL    HW261405  10.067   9.010   4.153 -1.3186 -1.0705 -1.2182
19335SOL     OW61406   2.954   8.966   1.199 -0.5790  0.5800  0.2260
19335SOL    HW161407   3.015   8.892   1.204  0.3943  1.4626  2.2362
19335SOL    HW261408   2.950   8.986   1.105  0.6569 -0.7860 -0.1644
19336SOL     OW61409   3.926   3.092   7.240 -0.1201  0.0139 -0.1965
19336SOL    HW161410   4.021   3.079   7.234 -0.0719  0.5589 -0.6592
19336SOL    HW261411   3.894   3.013   7.283  0.7231  0.4985  1.3901
19337SOL     OW61412  10.085   8.048   5.746 -0.1713 -0.1757 -0.1498
19337SOL    HW161413  10.097   8.133   5.701  0.6730  0.9441  2.0415
19337SOL    HW261414   9.991   8.033   5.743 -0.5008  1.4929  0.4735
19338SOL     OW61415   8.555   7.478   6.733  0.1936  0.3209  0.1625
19338SOL    HW161416   8.532   7.543   6.799  1.3156 -0.3708  1.2591
19338SOL    HW261417   8.642   7.503   6.702 -0.1344  0.3859 -0.7521
19339SOL     OW61418   8.108   6.820   6.278  0.1335  0.0789  0.1054
19339SOL    HW161419   8.155   6.741   6.304  0.1915 -0.3785 -1.2897
19339SOL    HW261420   8.165   6.862   6.213  0.2777  1.4802  1.0931
19340SOL     OW61421   2.947   2.323   6.457 -0.2100  0.1141 -0.3617
19340SOL    HW161422   2.915   2.411   6.475 -0.2854 -0.2937  1.7979
19340SOL    HW261423   2.882   2.265   6.497  0.7516 -0.8563 -0.1498
19341SOL     OW61424   9.036   6.688  10.267 -0.2132 -0.1237  0.0272
19341SOL    HW161425   9.071   6.622  10.206  1.5414  0.4870  0.3113
19341SOL    HW261426   9.111   6.744  10.287 -1.0187  0.3768  1.8680
19342SOL     OW61427  10.042   4.309   1.061  0.4610 -0.8330  0.1017
19342SOL    HW161428  10.029   4.234   1.003  1.5708 -1.4699  0.6322
19342SOL    HW261429   9.974   4.300   1.127  1.3079 -2.0838  0.8449
19343SOL     OW61430   5.283   6.873   3.304  0.3616  0.0306 -0.1749
19343SOL    HW161431   5.303   6.965   3.284  0.4258  0.6322  2.3446
19343SOL    HW261432   5.364   6.839   3.343 -0.0433 -0.7562 -0.0031
19344SOL     OW61433   3.433   3.266   2.908 -0.3944  0.3761  0.4587
19344SOL    HW161434   3.429   3.176   2.942  0.1062  0.3250  0.4010
19344SOL    HW261435   3.370   3.268   2.836 -0.7042  0.1876  0.7242
19345SOL     OW61436   4.465   8.162   7.113  0.3039 -0.2379  0.5334
19345SOL    HW161437   4.545   8.204   7.145  0.8080 -0.1705 -0.7390
19345SOL    HW261438   4.429   8.225   7.050 -1.4089  0.2607  1.9341
19346SOL     OW61439   2.206   0.948   3.150  0.2430 -0.0006  0.2848
19346SOL    HW161440   2.115   0.972   3.165  0.5770  0.4141  1.9566
19346SOL    HW261441   2.255   1.030   3.162  0.8412 -0.2296 -0.5145
19347SOL     OW61442   3.482   4.793   9.830  0.1972 -0.0995  0.6055
19347SOL    HW161443   3.465   4.750   9.914  2.7126 -0.3230  1.0978
19347SOL    HW261444   3.553   4.854   9.849 -0.0145  0.7410 -1.1236
19348SOL     OW61445   4.805   5.657   1.275  0.0458 -0.2001  0.1195
19348SOL    HW161446   4.767   5.706   1.349 -0.8425  2.2645 -1.8317
19348SOL    HW261447   4.748   5.580   1.266 -0.2987 -0.1396  1.4754
19349SOL     OW61448   3.243   4.533   3.862 -0.4585  0.1021  0.5006
19349SOL    HW161449   3.236   4.521   3.767  2.2863  2.3084 -0.1392
19349SOL    HW261450   3.179   4.601   3.883  2.3443  3.5204 -0.9294
19350SOL     OW61451   8.106   2.068   9.210  0.2599 -0.6388 -0.1420
19350SOL    HW161452   8.167   2.136   9.238  0.6423 -1.0587  0.0797
19350SOL    HW261453   8.134   1.990   9.259 -0.0234 -1.0072 -0.5554
19351SOL     OW61454   3.850   8.759   0.113 -0.0832  0.6440 -0.2874
19351SOL    HW161455   3.755   8.760   0.121 -0.2235  1.9269 -1.6069
19351SOL    HW261456   3.882   8.760   0.203 -1.2393 -2.4752  0.2823
19352SOL     OW61457  10.851   9.816   5.096  0.3301  0.2037  0.1167
19352SOL    HW161458  10.855   9.722   5.112 -2.0459  0.0575  0.2272
19352SOL    HW261459  10.764   9.842   5.125  0.1595  2.0642 -1.7662
19353SOL     OW61460   6.411   8.958  10.506 -0.0441  0.1185  0.1896
19353SOL    HW161461   6.467   9.015  10.452 -0.1770 -0.0156 -0.0922
19353SOL    HW261462   6.405   9.004  10.590  2.5047 -1.0091  1.1083
19354SOL     OW61463   4.500  10.429   7.076 -0.4495 -0.1004  0.2781
19354SOL    HW161464   4.499  10.522   7.101 -1.7889 -0.0673  0.1291
19354SOL    HW261465   4.419  10.416   7.027 -0.7927 -1.6042  1.2067
19355SOL     OW61466  10.347   7.983   6.979  0.1112  0.2166  0.3230
19355SOL    HW161467  10.304   7.942   7.054  0.4956  2.2815  1.7508
19355SOL    HW261468  10.420   7.924   6.959 -0.5669 -0.8738  0.9191
19356SOL     OW61469   2.795   8.786   7.610  0.1870 -0.4219  0.1367
19356SOL    HW161470   2.825   8.699   7.582  0.2029 -0.2060 -0.5290
19356SOL    HW261471   2.876   8.833   7.631  0.2065 -0.3933 -0.0072
19357SOL     OW61472   6.794   4.344   8.395  0.1155  0.0057 -0.1208
19357SOL    HW161473   6.764   4.338   8.305 -0.5815 -1.7324  0.1902
19357SOL    HW261474   6.743   4.278   8.442 -0.0115  1.3000  1.6864
19358SOL     OW61475   3.505  10.886   0.454  0.6799 -0.2734  0.1101
19358SOL    HW161476   3.546  10.803   0.435  2.3203  0.9061 -1.8973
19358SOL    HW261477   3.536  10.910   0.541  2.1510 -0.6415 -0.3013
19359SOL     OW61478  10.552   7.584   5.027 -0.2315  0.1208  0.4431
19359SOL    HW161479  10.565   7.604   5.119  1.4847 -0.9672  0.4841
19359SOL    HW261480  10.539   7.670   4.985 -1.0690  0.6181  1.6723
19360SOL     OW61481   8.338   4.791   2.878  0.3780 -0.4697 -0.4602
19360SOL    HW161482   8.305   4.706   2.905  1.9973 -1.1354 -0.4869
19360SOL    HW261483   8.259   4.846   2.870 -0.6804 -1.9175 -0.3582
19361SOL     OW61484   7.172   3.903   6.090  0.4369  0.9718 -0.4740
19361SOL    HW161485   7.181   3.950   6.007  0.6198  1.6165 -0.0900
19361SOL    HW261486   7.207   3.815   6.071  0.7073  1.1898 -1.0144
19362SOL     OW61487   0.320   0.867   8.709 -0.0899  0.2725  0.0300
19362SOL    HW161488   0.336   0.955   8.742 -1.3532  0.8537 -0.8407
19362SOL    HW261489   0.273   0.823   8.781 -0.5304  0.6958  0.0030
19363SOL     OW61490   1.822   0.891   1.975  0.1252 -0.0410  0.0114
19363SOL    HW161491   1.801   0.818   1.916  0.1413  0.5344 -0.7247
19363SOL    HW261492   1.904   0.927   1.940  0.6722 -0.3131  0.9896
19364SOL     OW61493   3.858   7.833   9.793 -0.0061  0.5759 -0.5628
19364SOL    HW161494   3.924   7.815   9.860 -0.1102 -1.6843 -0.9783
19364SOL    HW261495   3.884   7.778   9.719 -1.1198  1.3667 -1.5764
19365SOL     OW61496   0.290   0.436   9.177 -0.1181  0.2386 -0.1174
19365SOL    HW161497   0.365   0.376   9.179  1.2197  1.8773  1.0562
19365SOL    HW261498   0.322   0.511   9.127 -1.2000  0.7126 -0.1082
19366SOL     OW61499   8.539   8.851   8.610  0.6008 -0.3837 -0.3236
19366SOL    HW161500   8.494   8.930   8.642  1.2606  0.3874 -1.2372
19366SOL    HW261501   8.474   8.781   8.619 -0.4039  0.4895 -0.5919
19367SOL     OW61502   3.904   0.187   7.741  0.1888 -0.2988 -0.4100
19367SOL    HW161503   3.915   0.251   7.811  1.1923 -0.0980 -0.7399
19367SOL    HW261504   3.835   0.129   7.773 -1.1192  1.2208 -0.3095
19368SOL     OW61505   3.621   1.938   4.923 -0.0666  0.4794 -0.3486
19368SOL    HW161506   3.601   2.028   4.948 -0.1924  0.3642 -0.0299
19368SOL    HW261507   3.715   1.930   4.939 -0.4045 -0.0708  1.6588
19369SOL     OW61508   7.437  10.664   4.088  0.6735  0.1045 -0.3286
19369SOL    HW161509   7.373  10.667   4.017  1.5197  1.1442 -1.0800
19369SOL    HW261510   7.486  10.583   4.074 -0.7125 -0.9244  0.5020
19370SOL     OW61511  10.443   3.081   3.369  0.7675  0.0309 -0.5085
19370SOL    HW161512  10.499   3.117   3.438  1.3739 -0.2576 -0.8408
19370SOL    HW261513  10.504   3.049   3.303  0.2057 -0.2922 -0.8801
19371SOL     OW61514   1.758   8.645   8.259 -0.4548  0.3640 -0.1366
19371SOL    HW161515   1.699   8.570   8.268 -0.3063  0.0954 -1.3065
19371SOL    HW261516   1.812   8.625   8.183  1.5790  0.3370  1.2379
19372SOL     OW61517   4.913   8.011   9.287  0.6106 -0.4966 -0.0241
19372SOL    HW161518   4.822   8.017   9.255  1.4745 -0.9483 -2.8522
19372SOL    HW261519   4.919   7.925   9.327 -0.6312  0.2316  1.8691
19373SOL     OW61520   3.387   5.996   6.701 -0.2368  0.0315 -0.1798
19373SOL    HW161521   3.301   6.025   6.671 -1.5918 -2.1839  1.2735
19373SOL    HW261522   3.371   5.909   6.738  2.9381 -1.2106 -1.3799
19374SOL     OW61523  10.097   9.056   0.334 -0.7288  0.3232  0.3958
19374SOL    HW161524  10.045   8.975   0.333 -0.7115  0.2748  1.8108
19374SOL    HW261525  10.185   9.028   0.309 -0.3539 -0.4039  2.3641
19375SOL     OW61526   5.573   4.788   2.018  0.1812 -0.3826 -0.5359
19375SOL    HW161527   5.517   4.758   1.947 -1.5001  0.0405  0.5608
19375SOL    HW261528   5.620   4.709   2.046  0.4756 -0.6589 -1.7362
19376SOL     OW61529   5.868   2.983  10.560  0.6504 -0.2524 -0.0595
19376SOL    HW161530   5.866   2.917  10.629 -0.0672 -0.2679 -0.0884
19376SOL    HW261531   5.862   3.067  10.607 -0.0584 -0.2704 -0.1065
19377SOL     OW61532   4.777   9.075   4.690 -1.1050  0.0410  0.2243
19377SOL    HW161533   4.756   9.147   4.750  0.1760 -0.1334  0.8930
19377SOL    HW261534   4.742   8.997   4.732 -0.0415 -0.1068  0.8416
19378SOL     OW61535   7.210   2.706   5.477 -0.4257  0.2731  0.4183
19378SOL    HW161536   7.152   2.660   5.537  0.1557  0.1092  0.8620
19378SOL    HW261537   7.283   2.646   5.463  0.2680  0.9797  0.8921
19379SOL     OW61538   1.211   8.177   7.454  0.2373  0.2753 -0.0413
19379SOL    HW161539   1.240   8.261   7.419 -1.5048  1.6325  1.5904
19379SOL    HW261540   1.293   8.129   7.469  1.2874  1.7013 -0.9096
19380SOL     OW61541   5.225  10.029   0.182  0.3233 -0.0344  0.3535
19380SOL    HW161542   5.148  10.043   0.127  0.7032 -1.2640 -0.5194
19380SOL    HW261543   5.196  10.053   0.270 -0.4410  1.4840 -0.2704
19381SOL     OW61544   7.625   6.955   9.339 -0.5787  0.2430  0.3689
19381SOL    HW161545   7.707   6.973   9.294 -0.8822  0.8170  0.0333
19381SOL    HW261546   7.622   7.020   9.410 -1.7174  1.6374 -0.8940
19382SOL     OW61547   0.533   8.580   9.942 -0.0374  0.5954 -0.2164
19382SOL    HW161548   0.592   8.634   9.994 -0.3856  1.6191 -0.8275
19382SOL    HW261549   0.590   8.536   9.879  0.0961  1.6585 -0.8723
19383SOL     OW61550   1.710   6.502   5.980  0.2304 -0.2248  0.9045
19383SOL    HW161551   1.620   6.469   5.988  0.2087  0.0590  1.9114
19383SOL    HW261552   1.703   6.574   5.917  0.0857 -1.3683 -0.4538
19384SOL     OW61553   1.559   6.316  10.112  0.0289  0.3869 -0.1111
19384SOL    HW161554   1.563   6.392  10.171  0.2448  1.6241 -1.6729
19384SOL    HW261555   1.500   6.255  10.157  1.6949  0.4157  2.3211
19385SOL     OW61556   2.109   8.247   7.282 -0.1860  0.0339  0.5017
19385SOL    HW161557   2.136   8.339   7.289 -1.3410  0.4949 -0.5590
19385SOL    HW261558   2.190   8.199   7.265  0.1107  1.3482 -2.5574
19386SOL     OW61559   8.661   2.630   5.327 -0.3932 -0.3795 -0.1120
19386SOL    HW161560   8.644   2.714   5.283 -0.2320 -0.3066 -0.0356
19386SOL    HW261561   8.685   2.655   5.416  1.2128 -0.4118 -0.5089
19387SOL     OW61562   6.542   4.404   3.779 -0.4571 -0.0576 -0.2887
19387SOL    HW161563   6.616   4.360   3.737 -1.9975 -0.2915 -3.0075
19387SOL    HW261564   6.582   4.462   3.843  1.9883 -1.0660 -0.7871
19388SOL     OW61565  10.764   6.405   8.935 -0.1366  0.0811  0.3737
19388SOL    HW161566  10.724   6.331   8.891 -1.7822  0.4174  1.2086
19388SOL    HW261567  10.797   6.369   9.018 -0.5846  0.1893  0.6042
19389SOL     OW61568   1.257   6.251   0.940 -0.7102 -0.4251  0.1702
19389SOL    HW161569   1.215   6.181   0.989 -1.2258 -1.9028 -2.1993
19389SOL    HW261570   1.184   6.302   0.905 -0.3446  1.7756  2.3674
19390SOL     OW61571  10.919  10.519   7.203  0.0623  0.3493 -0.2657
19390SOL    HW161572  10.858  10.582   7.241  0.0842 -1.2818  2.7781
19390SOL    HW261573  10.866  10.440   7.191  0.9395 -0.2447 -0.2580
19391SOL     OW61574   7.836   6.422   0.575 -0.9069 -0.1553 -0.2676
19391SOL    HW161575   7.794   6.495   0.619  1.9081  0.3172  1.9237
19391SOL    HW261576   7.820   6.346   0.632  0.0567 -0.2181 -0.0540
19392SOL     OW61577   3.803   1.691   5.106 -0.1742 -0.1647  0.1209
19392SOL    HW161578   3.712   1.664   5.096 -0.1370  0.2951 -1.8002
19392SOL    HW261579   3.843   1.621   5.159 -2.0867  0.7373  2.9686
19393SOL     OW61580   7.695   0.512   7.223 -0.1016 -0.2773 -0.8779
19393SOL    HW161581   7.658   0.424   7.233  1.0582 -0.7219 -0.4160
19393SOL    HW261582   7.681   0.554   7.307 -0.9570  0.1108 -1.2036
19394SOL     OW61583   3.868   2.347  10.060  0.1943  0.2208 -0.3386
19394SOL    HW161584   3.822   2.267  10.032 -0.1200 -0.1267  1.1170
19394SOL    HW261585   3.799   2.408  10.083  0.4501  0.4739 -0.2343
19395SOL     OW61586   5.085   3.398   3.387 -0.4082  0.1042  0.0989
19395SOL    HW161587   5.107   3.470   3.328 -2.1784 -0.0163 -0.7838
19395SOL    HW261588   4.999   3.368   3.356 -1.5088  0.1483  2.8789
19396SOL     OW61589   4.248   9.121  10.164 -0.0396  0.1789 -0.4020
19396SOL    HW161590   4.319   9.062  10.190 -0.1803 -0.4531 -1.4070
19396SOL    HW261591   4.245   9.115  10.069  0.5011  2.4897 -0.6199
19397SOL     OW61592   3.917   8.284   3.206 -0.0658  0.3879 -0.0688
19397SOL    HW161593   3.843   8.332   3.168 -0.5852  1.4185  2.0973
19397SOL    HW261594   3.914   8.305   3.300  2.1877 -0.6257  0.2964
19398SOL     OW61595   2.799  10.413   3.253 -0.1438 -0.2353 -0.1436
19398SOL    HW161596   2.719  10.459   3.227  0.0068  0.3945  0.4765
19398SOL    HW261597   2.827  10.457   3.334  0.3618 -1.0018  0.1071
19399SOL     OW61598   9.268   6.390  10.470 -0.1615  0.7258  0.2150
19399SOL    HW161599   9.259   6.295  10.472  0.8592  0.6245  0.6266
19399SOL    HW261600   9.323   6.407  10.393 -1.2783  1.0807 -0.5268
19400SOL     OW61601  10.028  10.245   0.814 -0.6233  0.0945  0.4892
19400SOL    HW161602  10.065  10.185   0.879 -1.3760  0.2108  1.0396
19400SOL    HW261603   9.957  10.195   0.773  0.6390 -0.4316 -1.1644
19401SOL     OW61604   0.709   9.656   1.609  0.1408 -0.6864 -0.2395
19401SOL    HW161605   0.694   9.749   1.627  2.6991  0.1185 -1.7994
19401SOL    HW261606   0.632   9.613   1.646 -1.7074  2.1224 -0.4636
19402SOL     OW61607   9.491   3.359   3.281  0.1597 -0.5574  0.6082
19402SOL    HW161608   9.500   3.448   3.315 -0.9080 -1.0462  2.3045
19402SOL    HW261609   9.542   3.305   3.342  0.0352 -1.2094  0.1394
19403SOL     OW61610   7.007   3.528   6.537  0.6842 -0.1640 -0.1333
19403SOL    HW161611   6.998   3.437   6.510  0.2880 -0.5820  1.3182
19403SOL    HW261612   6.921   3.552   6.571  0.9390  0.5759  0.0189
19404SOL     OW61613   8.229   8.885   1.196  0.3626 -0.6951  0.1868
19404SOL    HW161614   8.236   8.966   1.246 -0.0410 -0.2311 -0.4858
19404SOL    HW261615   8.273   8.820   1.250  0.7071 -0.0282  0.7314
19405SOL     OW61616   8.383   7.163   4.269 -0.0826 -0.0532  0.1286
19405SOL    HW161617   8.380   7.245   4.219 -2.0191  0.4135  0.8904
19405SOL    HW261618   8.444   7.107   4.221 -1.4576  0.5342 -2.4737
19406SOL     OW61619   8.349   1.607   4.006 -0.2633  0.8954 -0.6472
19406SOL    HW161620   8.408   1.596   4.081  1.1408  0.1184 -1.8080
19406SOL    HW261621   8.330   1.518   3.976 -1.0369  1.1818 -1.0489
19407SOL     OW61622   7.735   1.750   7.542  0.2219 -0.2382 -0.1990
19407SOL    HW161623   7.762   1.831   7.585 -0.6744  0.7631 -1.4493
19407SOL    HW261624   7.643   1.765   7.519  0.2597 -1.3189 -1.1176
19408SOL     OW61625   3.864  10.707  10.193 -0.5219  0.0486 -0.4626
19408SOL    HW161626   3.878  10.639  10.259 -0.2265  1.7065  1.2781
19408SOL    HW261627   3.951  10.725  10.158 -0.6036 -0.4564 -0.9443
19409SOL     OW61628   7.805   7.590   1.415 -0.0971 -0.3794 -0.3225
19409SOL    HW161629   7.765   7.580   1.501  1.3951  1.8866  0.7427
19409SOL    HW261630   7.741   7.641   1.365  0.0676  0.5019  0.3307
19410SOL     OW61631   9.757   2.274   3.351  0.3063 -0.1245 -0.0132
19410SOL    HW161632   9.826   2.324   3.395  0.3810 -0.3502  0.1243
19410SOL    HW261633   9.728   2.332   3.280  0.0052  0.3491  0.4871
19411SOL     OW61634   4.038   0.052   6.902 -0.3702 -1.0802 -0.2227
19411SOL    HW161635   4.109  -0.003   6.868  0.8247  0.9072 -1.0552
19411SOL    HW261636   4.070   0.084   6.986  0.1786  0.5689 -1.0169
19412SOL     OW61637   9.428   1.530  10.102  0.0610  0.0039 -0.5221
19412SOL    HW161638   9.386   1.561  10.022  1.0650  1.8581 -0.3723
19412SOL    HW261639   9.470   1.448  10.077  0.9656  0.9076 -2.1131
19413SOL     OW61640   1.615   5.022   4.983  0.0436 -0.2262  0.4817
19413SOL    HW161641   1.613   4.932   4.950  1.9866 -0.7983  1.7460
19413SOL    HW261642   1.598   5.014   5.077  1.0340  0.6195  0.7546
19414SOL     OW61643   3.586   9.547   0.495 -0.4788 -0.6868  0.7471
19414SOL    HW161644   3.538   9.580   0.571 -0.4529 -1.2192  0.9995
19414SOL    HW261645   3.675   9.532   0.527 -0.4997 -1.0343  0.6523
19415SOL     OW61646   6.493   8.359   8.950  0.2343  0.2608 -0.2987
19415SOL    HW161647   6.532   8.405   8.876 -0.7940  0.6258 -0.6365
19415SOL    HW261648   6.399   8.361   8.933 -0.1182  1.1777  1.4985
19416SOL     OW61649   4.077   2.245   6.055 -0.2760  0.2441 -0.1141
19416SOL    HW161650   4.029   2.278   5.979  0.7106  1.1847 -0.3521
19416SOL    HW261651   4.039   2.159   6.073 -1.8963  0.8695 -0.4150
19417SOL     OW61652   3.112   1.131   9.314 -0.0270  0.7004 -0.1467
19417SOL    HW161653   3.040   1.180   9.353 -2.1622 -2.9187  0.8537
19417SOL    HW261654   3.090   1.127   9.221 -0.8593  0.0733  0.0702
19418SOL     OW61655   2.172   4.185   8.815 -0.6504 -0.1791 -0.4952
19418SOL    HW161656   2.134   4.198   8.901  0.3615 -0.2042 -0.0347
19418SOL    HW261657   2.266   4.200   8.827 -0.7834  2.4596 -2.1270
19419SOL     OW61658   5.713   4.764   1.278 -0.0796  0.1510 -0.5250
19419SOL    HW161659   5.713   4.853   1.243 -1.9082  0.5902  0.4549
19419SOL    HW261660   5.623   4.734   1.267  0.3987 -1.4060 -0.3968
19420SOL     OW61661   2.988   7.343   7.413  0.2790  0.4748 -0.9303
19420SOL    HW161662   2.916   7.387   7.459  0.2404 -0.7282  0.2078
19420SOL    HW261663   2.949   7.312   7.332 -1.0560 -1.7581  0.4557
19421SOL     OW61664   6.490   1.515   5.185 -0.0796  0.2453  0.2535
19421SOL    HW161665   6.438   1.576   5.133 -1.3049  0.3606  1.5586
19421SOL    HW261666   6.509   1.563   5.266  0.5041 -0.4735  0.5522
19422SOL     OW61667  10.649   2.928   6.719  0.4437 -0.8440 -0.2453
19422SOL    HW161668  10.620   2.971   6.638  0.9823 -1.1580 -0.6175
19422SOL    HW261669  10.575   2.935   6.778  0.0183 -0.6523 -0.7906
19423SOL     OW61670   6.744   1.488   1.386 -0.0348  0.7796  0.0102
19423SOL    HW161671   6.725   1.500   1.479  0.6034 -0.8171  0.3726
19423SOL    HW261672   6.829   1.530   1.374  0.2800  0.2396  0.3379
19424SOL     OW61673   5.014   4.211   3.830 -0.0641 -0.2708  0.4517
19424SOL    HW161674   5.021   4.249   3.742 -1.7122  0.0966  0.4519
19424SOL    HW261675   5.055   4.275   3.887  1.2832 -0.6409 -0.0520
19425SOL     OW61676   8.952   0.892  10.427 -0.0675 -0.9800  0.3143
19425SOL    HW161677   9.042   0.891  10.395  0.2994 -1.2567  1.3346
19425SOL    HW261678   8.959   0.876  10.521 -0.8950  2.3266  1.0852
19426SOL     OW61679   8.607   6.019   0.946  0.0432 -0.1651 -0.3191
19426SOL    HW161680   8.556   5.942   0.973 -0.7461  0.1104 -1.0080
19426SOL    HW261681   8.698   5.993   0.961 -0.3042 -0.2339  2.0593
19427SOL     OW61682   3.376   9.211   3.103 -0.0352 -0.3735  0.1310
19427SOL    HW161683   3.327   9.287   3.133 -0.5430 -0.8404  0.5261
19427SOL    HW261684   3.309   9.145   3.086  0.4875 -1.3603  1.6545
19428SOL     OW61685   6.368   9.938   2.289  0.0466  0.1531  0.2284
19428SOL    HW161686   6.356   9.952   2.196 -0.1776 -1.2071  0.0256
19428SOL    HW261687   6.330  10.015   2.331  1.0399  1.2352 -0.8247
19429SOL     OW61688  10.661   3.570   0.239 -0.0965 -0.3126  0.3178
19429SOL    HW161689  10.579   3.606   0.204 -0.1027  0.4587  1.0675
19429SOL    HW261690  10.645   3.565   0.334  0.6313 -0.3903  0.4399
19430SOL     OW61691   8.886   3.677   4.929  0.2595  0.0586  0.1756
19430SOL    HW161692   8.979   3.685   4.950  0.4236 -0.1375 -0.4800
19430SOL    HW261693   8.884   3.641   4.841 -0.4384  0.2850  0.0960
19431SOL     OW61694   9.517   2.015   0.476 -0.2502 -0.8457  0.5878
19431SOL    HW161695   9.470   2.046   0.553  0.7179  0.2218  0.7680
19431SOL    HW261696   9.587   1.959   0.511 -0.3688 -1.1013  0.4228
19432SOL     OW61697   6.496   4.568   9.029  0.2771 -0.4348 -0.8997
19432SOL    HW161698   6.555   4.493   9.035 -1.2233 -1.8107 -2.3415
19432SOL    HW261699   6.409   4.531   9.040 -0.3881  1.6496  2.0109
19433SOL     OW61700   8.247  10.149   0.332  0.1465  0.3105 -0.0295
19433SOL    HW161701   8.249  10.243   0.317  2.1657  0.3820  0.3801
19433SOL    HW261702   8.252  10.140   0.427 -0.4943 -0.2170 -0.0411
19434SOL     OW61703   3.304   3.129   9.395 -0.2019  0.1081  0.0505
19434SOL    HW161704   3.341   3.111   9.482  0.5605  1.8592  0.1159
19434SOL    HW261705   3.228   3.184   9.412 -0.1564  0.3076 -0.3925
19435SOL     OW61706   8.629   8.799   5.828  0.3124  0.3422  0.0727
19435SOL    HW161707   8.722   8.788   5.847  0.8108  1.6695 -1.4214
19435SOL    HW261708   8.601   8.869   5.887  0.1752 -0.2180  0.6911
19436SOL     OW61709   3.699   8.526   5.818 -0.0619 -0.1084  0.4654
19436SOL    HW161710   3.665   8.451   5.868  1.2124 -0.7571  0.3967
19436SOL    HW261711   3.732   8.586   5.884 -1.7132  0.7507  0.5599
19437SOL     OW61712   2.423   8.437   2.741 -0.0280 -0.5303  0.3556
19437SOL    HW161713   2.369   8.463   2.816 -1.2710 -1.2192 -0.2551
19437SOL    HW261714   2.416   8.510   2.680  0.9684  0.0223  0.8822
19438SOL     OW61715   3.230   3.784   6.047  0.1460  0.9538 -0.4000
19438SOL    HW161716   3.184   3.861   6.081 -0.2464  0.2984  0.5952
19438SOL    HW261717   3.287   3.756   6.118  0.6761  0.6250 -0.9445
19439SOL     OW61718   8.931   7.157   9.718 -0.2680  0.2740 -0.1588
19439SOL    HW161719   8.939   7.236   9.665  0.2135  0.2567 -0.1140
19439SOL    HW261720   8.913   7.190   9.807  0.8938  0.3711  0.0481
19440SOL     OW61721   7.377  10.309   7.819 -0.3542  0.0270  0.2284
19440SOL    HW161722   7.303  10.285   7.764  0.8156  1.4494 -2.1384
19440SOL    HW261723   7.416  10.226   7.846 -2.4552 -0.7332  1.1024
19441SOL     OW61724   9.421   2.055   9.560 -0.2681 -0.1685 -0.3704
19441SOL    HW161725   9.451   1.964   9.563  0.8416  0.1199 -1.7978
19441SOL    HW261726   9.325   2.048   9.568 -0.3452 -1.5822 -1.8297
19442SOL     OW61727   1.861   4.273   2.187 -0.6435  0.1460  0.1826
19442SOL    HW161728   1.869   4.261   2.093  0.5461  0.8538  0.1684
19442SOL    HW261729   1.921   4.345   2.207 -0.0059 -0.7593  1.6524
19443SOL     OW61730   8.993   4.995   3.625  0.0673 -0.1658 -0.1007
19443SOL    HW161731   8.940   4.927   3.585  0.3263  0.7495 -2.1301
19443SOL    HW261732   8.947   5.077   3.604  0.4220  0.3943  1.1986
19444SOL     OW61733   3.444   1.810   6.962 -0.1429 -0.0806 -0.3751
19444SOL    HW161734   3.353   1.826   6.936 -0.4736  0.9335  1.2237
19444SOL    HW261735   3.450   1.715   6.971 -1.0180 -0.1650 -0.6026
19445SOL     OW61736   5.167   0.653   4.567 -0.3490  0.6834 -0.1439
19445SOL    HW161737   5.123   0.628   4.649  1.3637  0.2737  0.7014
19445SOL    HW261738   5.247   0.601   4.567  1.2956  3.0842 -0.4471
19446SOL     OW61739   3.374   3.805  10.227  0.1962 -0.2692  0.2107
19446SOL    HW161740   3.310   3.875  10.241 -0.8947 -1.3821  1.0651
19446SOL    HW261741   3.419   3.829  10.146 -0.8999  0.8567 -0.1010
19447SOL     OW61742   6.697   0.760   1.474 -0.4324 -0.2919  0.3238
19447SOL    HW161743   6.652   0.812   1.408 -0.7029 -1.4790 -0.4555
19447SOL    HW261744   6.630   0.699   1.507 -0.3213  0.3073  1.7468
19448SOL     OW61745   6.270   0.241   3.963  0.2067 -0.2866  0.0950
19448SOL    HW161746   6.298   0.328   3.992  2.7215 -1.1375  0.5062
19448SOL    HW261747   6.231   0.202   4.042  1.4325 -0.4157  0.6603
19449SOL     OW61748   4.194   8.538   9.222  0.5666 -0.0695 -0.3203
19449SOL    HW161749   4.145   8.599   9.167 -1.1098  0.4345  1.6122
19449SOL    HW261750   4.173   8.451   9.186 -1.8051  0.1303  0.4126
19450SOL     OW61751   3.300   8.033   1.308  0.0402  0.1530 -0.3841
19450SOL    HW161752   3.252   8.083   1.374  0.8950 -0.6498  0.8915
19450SOL    HW261753   3.391   8.061   1.319  0.5126 -1.5109  0.2535
19451SOL     OW61754  10.794   3.382   8.105 -0.0861 -0.3302 -0.1599
19451SOL    HW161755  10.840   3.447   8.158 -0.0016  1.7643 -2.6239
19451SOL    HW261756  10.861   3.348   8.045 -0.4523 -1.7126  0.1731
19452SOL     OW61757   0.613   0.907   9.733  0.1868  0.2463  0.0648
19452SOL    HW161758   0.559   0.859   9.670 -0.4004 -0.5446  1.1322
19452SOL    HW261759   0.694   0.926   9.686 -0.5520  0.3769 -1.1763
19453SOL     OW61760  10.142   1.845   6.824  0.1921  0.1723 -0.2488
19453SOL    HW161761  10.144   1.793   6.744  1.4938  0.2540 -0.2836
19453SOL    HW261762  10.097   1.926   6.798 -0.0863 -0.1166 -0.6851
19454SOL     OW61763   7.229  10.156   4.977 -0.3036 -0.0695 -0.2218
19454SOL    HW161764   7.155  10.096   4.977  0.6675 -1.3591 -1.1728
19454SOL    HW261765   7.293  10.114   4.918  1.0172  1.1623  0.2685
19455SOL     OW61766   4.073  10.770  10.631  0.3435  0.4708 -0.1445
19455SOL    HW161767   4.066  10.765  10.727 -2.4851  0.8608 -0.2406
19455SOL    HW261768   4.094  10.861  10.613  1.0634  0.3576  0.1060
19456SOL     OW61769   6.598   7.432   0.520 -0.2514 -0.2445  0.0117
19456SOL    HW161770   6.555   7.406   0.438 -1.6453  2.5614 -0.2882
19456SOL    HW261771   6.617   7.350   0.565 -1.8981 -1.7823 -1.9079
19457SOL     OW61772   4.830   1.658   0.258  0.2788  0.6166  0.1421
19457SOL    HW161773   4.904   1.668   0.197  0.0796 -0.0818 -0.2171
19457SOL    HW261774   4.866   1.607   0.331 -0.2781 -1.2852 -0.8456
19458SOL     OW61775   4.207   7.420   7.088  1.1340  0.0177 -0.3623
19458SOL    HW161776   4.269   7.493   7.090  1.3415 -0.1661  0.9002
19458SOL    HW261777   4.256   7.346   7.124 -0.0224  0.0689  1.4570
19459SOL     OW61778   1.984   6.137   0.868  0.0137  0.1282  0.0872
19459SOL    HW161779   1.999   6.227   0.838 -1.7749  1.0758  1.8362
19459SOL    HW261780   2.045   6.126   0.941  0.1228 -0.0291 -0.0280
19460SOL     OW61781   2.337   1.647  10.751  0.2279 -0.3112  0.1562
19460SOL    HW161782   2.429   1.639  10.725  0.3640  0.8279  0.2249
19460SOL    HW261783   2.328   1.738  10.780 -0.9623 -0.3567 -0.0084
19461SOL     OW61784   9.693  10.144   3.099  0.3016  0.4777 -0.2187
19461SOL    HW161785   9.758  10.150   3.029  1.0987  1.4707  0.5816
19461SOL    HW261786   9.736  10.181   3.176 -0.3340 -1.1768  0.9846
19462SOL     OW61787  10.289   3.080   1.292 -0.4706 -0.0688  0.1133
19462SOL    HW161788  10.273   3.169   1.325  1.7699  0.6191 -0.4864
19462SOL    HW261789  10.217   3.065   1.231 -0.6053  1.5842 -0.1927
19463SOL     OW61790   1.918  10.739   4.944  0.2825  0.3168 -0.1163
19463SOL    HW161791   1.962  10.816   4.906 -0.2779  1.6243  1.7189
19463SOL    HW261792   1.841  10.726   4.888  1.6586 -0.5092 -1.9265
19464SOL     OW61793   5.434   7.701   2.699  0.2104 -1.0929 -0.2893
19464SOL    HW161794   5.407   7.613   2.674 -1.3350 -0.3222 -1.4760
19464SOL    HW261795   5.435   7.750   2.617 -0.2074  0.3113  0.5184
19465SOL     OW61796   3.157   7.196   8.798  0.0029  0.1922 -0.1046
19465SOL    HW161797   3.154   7.291   8.810  0.4123  0.0880  0.9562
19465SOL    HW261798   3.102   7.161   8.869 -1.2178 -0.3259 -1.2625
19466SOL     OW61799   9.121   3.690   6.638  0.9265 -0.2099 -0.2502
19466SOL    HW161800   9.111   3.728   6.551  0.3273  1.5686  0.5475
19466SOL    HW261801   9.034   3.654   6.657  1.0522 -0.5805 -0.3752
19467SOL     OW61802   0.534   2.942   6.731 -0.6787  0.1893  0.0767
19467SOL    HW161803   0.551   2.886   6.655  1.1044  1.2083 -0.3290
19467SOL    HW261804   0.438   2.950   6.734 -0.8080  1.3666 -3.0519
19468SOL     OW61805   4.518   6.025   5.393 -0.2657  0.0686 -0.2687
19468SOL    HW161806   4.599   6.011   5.345  0.0009  0.8602 -0.0699
19468SOL    HW261807   4.449   6.007   5.329  0.0447 -1.0280 -0.3221
19469SOL     OW61808   0.413   1.191   9.153  0.2554  0.2901 -0.2948
19469SOL    HW161809   0.331   1.142   9.149  1.7773 -2.4411 -0.3849
19469SOL    HW261810   0.386   1.283   9.162 -2.7730 -0.4131 -1.1670
19470SOL     OW61811   9.764   7.381   8.137 -0.0730  0.6368  0.3860
19470SOL    HW161812   9.787   7.474   8.138 -2.0387  1.1736  1.7547
19470SOL    HW261813   9.839   7.338   8.096  0.5822  2.8891 -0.9335
19471SOL     OW61814  10.072   3.131   8.081  0.5200  0.3225  0.5855
19471SOL    HW161815  10.060   3.058   8.142 -0.7751  0.8763  1.0177
19471SOL    HW261816  10.166   3.151   8.088  0.3094  0.8627  3.0169
19472SOL     OW61817   3.630   7.003   4.996 -0.0623 -0.0960 -0.1747
19472SOL    HW161818   3.541   7.011   5.031 -0.0482 -1.9868  0.4117
19472SOL    HW261819   3.670   7.088   5.011 -2.0226  1.0754 -1.2062
19473SOL     OW61820   0.791   4.913   0.926 -0.1234 -0.3704  0.1484
19473SOL    HW161821   0.769   5.000   0.960  0.9399 -0.0897  0.1555
19473SOL    HW261822   0.765   4.916   0.834  0.1305  0.0467  0.0846
19474SOL     OW61823  10.431   9.466   6.483 -0.4385  0.7743  0.1434
19474SOL    HW161824  10.389   9.540   6.527  2.0288  2.5737 -0.2568
19474SOL    HW261825  10.383   9.457   6.401 -0.5946  2.2122  0.0378
19475SOL     OW61826   9.523   3.882   3.400  0.2900  0.2554 -0.3821
19475SOL    HW161827   9.439   3.929   3.399 -0.0297 -0.2782  0.5287
19475SOL    HW261828   9.564   3.906   3.483  1.1828  0.7340 -0.9485
19476SOL     OW61829   3.541   6.241   4.193 -0.2410  0.2146 -0.1204
19476SOL    HW161830   3.596   6.183   4.141 -0.6987  0.0872 -0.4644
19476SOL    HW261831   3.454   6.233   4.155 -0.4163  0.7318  0.1572
19477SOL     OW61832   5.686   4.654   0.475 -0.1616  0.1278 -0.0392
19477SOL    HW161833   5.662   4.726   0.533  3.3752  0.9151  0.6562
19477SOL    HW261834   5.672   4.575   0.527  2.2360  0.7776  1.7289
19478SOL     OW61835   7.907   3.876  10.502  0.5316  0.4322 -0.4568
19478SOL    HW161836   7.992   3.862  10.460  0.3065 -0.3816 -0.6491
19478SOL    HW261837   7.927   3.886  10.595  0.6511 -2.0947 -0.1541
19479SOL     OW61838   0.380  10.318   3.454 -0.1625 -0.8566 -0.0941
19479SOL    HW161839   0.404  10.362   3.535 -1.2959  0.9295 -0.6614
19479SOL    HW261840   0.460  10.318   3.401 -0.2170  1.0067 -0.2505
19480SOL     OW61841   3.554   4.922   1.774 -0.7875 -0.5325 -0.3887
19480SOL    HW161842   3.471   4.924   1.821 -0.0114 -0.3688  1.0274
19480SOL    HW261843   3.604   4.995   1.810 -0.6417  0.4679 -2.4559
19481SOL     OW61844   7.382   3.332   1.825 -0.0951  0.3454  0.5764
19481SOL    HW161845   7.414   3.363   1.740  0.8378 -0.2858  0.6872
19481SOL    HW261846   7.396   3.237   1.823 -0.8222  0.2157  1.1245
19482SOL     OW61847   3.421   1.182   8.552 -0.1208  0.3258 -0.0697
19482SOL    HW161848   3.397   1.128   8.627 -0.1521 -1.8562 -1.5608
19482SOL    HW261849   3.512   1.208   8.570  0.4360 -1.5388 -0.0053
19483SOL     OW61850   1.227   3.020   0.699  0.1011  0.5244  0.3709
19483SOL    HW161851   1.292   3.068   0.751  0.1127 -0.8857  1.7379
19483SOL    HW261852   1.187   2.959   0.761 -0.8618 -0.2888 -0.9930
19484SOL     OW61853   4.276  10.274   3.929 -0.1719  0.5248  0.2184
19484SOL    HW161854   4.292  10.275   4.023 -1.1365 -1.2856  0.4444
19484SOL    HW261855   4.291  10.183   3.902 -2.8058  0.3037 -0.7917
19485SOL     OW61856   8.632   3.410   4.450 -0.4292  0.2261  0.1490
19485SOL    HW161857   8.661   3.492   4.490 -0.5555 -0.1766  1.0950
19485SOL    HW261858   8.624   3.349   4.524 -1.8898 -0.1895 -0.3190
19486SOL     OW61859   6.151   6.125   0.333  0.0970 -0.8810  0.6390
19486SOL    HW161860   6.170   6.039   0.370  1.5320 -0.9796 -0.2253
19486SOL    HW261861   6.140   6.108   0.239  2.4424  0.0845  0.1185
19487SOL     OW61862   9.601   2.108   3.750 -0.7150  0.4230  0.5921
19487SOL    HW161863   9.648   2.179   3.795  0.3226 -0.3604  0.7826
19487SOL    HW261864   9.509   2.128   3.764 -0.4454  1.6047  0.8538
19488SOL     OW61865   0.091   2.479   3.278 -0.1001 -0.1365 -0.3711
19488SOL    HW161866   0.006   2.487   3.235 -0.8151 -0.4057  0.9557
19488SOL    HW261867   0.078   2.412   3.345  1.4169 -0.8482 -0.7487
19489SOL     OW61868   1.798  10.715   5.638  0.2772  0.1712 -0.4096
19489SOL    HW161869   1.802  10.720   5.542 -0.6464  0.0867 -0.4619
19489SOL    HW261870   1.854  10.641   5.661  0.7664  0.3947 -0.8547
19490SOL     OW61871  10.193   9.680  10.497  0.1748 -0.3647 -0.2926
19490SOL    HW161872  10.161   9.622  10.428  3.3872 -1.0057 -1.4445
19490SOL    HW261873  10.241   9.623  10.556 -1.1822  0.4282  1.6571
19491SOL     OW61874   5.599   1.175   2.609  0.7567  0.8560 -0.5174
19491SOL    HW161875   5.561   1.260   2.631 -0.6779  0.2047 -0.3597
19491SOL    HW261876   5.626   1.184   2.518  0.1293  1.3233 -0.6666
19492SOL     OW61877   3.210   7.938  10.172 -0.4036  0.0678  0.1128
19492SOL    HW161878   3.196   8.002  10.242 -1.4903  0.4855 -0.4622
19492SOL    HW261879   3.247   7.990  10.100 -0.0656 -0.2003  0.0940
19493SOL     OW61880   9.259   4.512   6.805 -0.2895  0.2593  0.2186
19493SOL    HW161881   9.213   4.432   6.833  0.7462 -0.8261 -1.0225
19493SOL    HW261882   9.337   4.516   6.861 -1.7573  2.0918  2.3112
19494SOL     OW61883   4.995   3.679   5.432  0.0003  0.1624  0.7796
19494SOL    HW161884   4.961   3.765   5.458  1.3002  1.5813 -1.8044
19494SOL    HW261885   5.087   3.681   5.458  0.1459 -0.2784  0.3111
19495SOL     OW61886  10.073   6.117   4.875 -0.2468 -0.1010  0.6189
19495SOL    HW161887  10.079   6.212   4.865 -0.6396 -0.1152  0.2156
19495SOL    HW261888  10.136   6.083   4.811  1.0644 -0.0951  1.8473
19496SOL     OW61889   1.614   6.330   7.932  0.3305  0.5961 -0.4409
19496SOL    HW161890   1.593   6.355   7.842 -1.0420 -0.6384 -0.4873
19496SOL    HW261891   1.565   6.249   7.947  2.9499 -0.9506  0.3934
19497SOL     OW61892   7.346  10.166   7.482 -0.0892 -0.0424 -0.4910
19497SOL    HW161893   7.315  10.213   7.560  2.3349  1.3631 -0.3006
19497SOL    HW261894   7.283  10.188   7.414 -1.5751 -0.3144  0.7327
19498SOL     OW61895   4.508   4.007   0.175 -0.0111  0.0722 -0.2466
19498SOL    HW161896   4.571   4.079   0.172  0.7628 -0.6372 -1.4948
19498SOL    HW261897   4.453   4.027   0.251  1.0798  1.2273  0.2695
19499SOL     OW61898   9.579   8.997   9.761 -0.0540 -0.8534 -0.3585
19499SOL    HW161899   9.513   8.989   9.692  0.9624 -0.3030 -1.4362
19499SOL    HW261900   9.556   9.078   9.808 -0.0574 -0.5626 -0.8516
19500SOL     OW61901   6.359   6.048   0.623 -0.4510  0.5103  0.5015
19500SOL    HW161902   6.271   6.056   0.661  0.5806  0.1327  3.1849
19500SOL    HW261903   6.416   6.091   0.686  1.2909  1.1337 -1.4060
19501SOL     OW61904   8.542   4.909   6.413  0.6056  0.1680  0.5342
19501SOL    HW161905   8.576   4.848   6.479  3.0678  1.0932  0.2471
19501SOL    HW261906   8.524   4.989   6.462  3.2213  1.1314  0.0954
19502SOL     OW61907   5.578   2.686  10.665  0.1969 -0.2519  0.3075
19502SOL    HW161908   5.522   2.761  10.643  0.2861 -0.8472 -2.2457
19502SOL    HW261909   5.517   2.616  10.686  0.0819 -0.0938  0.5152
19503SOL     OW61910   6.206   6.059   2.512  0.0578 -0.4961  0.2832
19503SOL    HW161911   6.275   6.051   2.446  0.1336  0.7953  0.1884
19503SOL    HW261912   6.158   6.139   2.488  1.3687  1.2335  2.9524
19504SOL     OW61913   5.780   5.443  10.361 -0.4214  0.2299 -0.1469
19504SOL    HW161914   5.719   5.371  10.376  0.4016 -0.5788 -0.5376
19504SOL    HW261915   5.727   5.522  10.371 -1.3319 -0.4208  0.3691
19505SOL     OW61916  10.306   2.001   2.945  0.1286  0.0529 -0.4799
19505SOL    HW161917  10.338   2.082   2.984  2.3611 -1.5718  1.2784
19505SOL    HW261918  10.354   1.993   2.862  0.2205  0.2888 -0.4506
19506SOL     OW61919   6.046   3.616   8.732 -0.3408  0.1470 -0.5401
19506SOL    HW161920   6.022   3.639   8.642  0.1760  2.1651 -0.2053
19506SOL    HW261921   5.993   3.674   8.787 -0.0331 -0.4707  0.4359
19507SOL     OW61922   5.920  10.525   5.467  0.5061  0.1473 -0.4653
19507SOL    HW161923   5.916  10.502   5.374 -0.2102 -2.7340  0.1669
19507SOL    HW261924   6.004  10.492   5.497 -0.4928 -1.7396  0.4628
19508SOL     OW61925   7.115   6.924   9.679  0.0001  0.4952 -0.4066
19508SOL    HW161926   7.139   6.931   9.772  1.9948 -1.1720 -0.7158
19508SOL    HW261927   7.019   6.920   9.680 -0.0365  0.6072  1.5657
19509SOL     OW61928   2.063   8.549   2.685 -0.1556 -0.5541 -0.5918
19509SOL    HW161929   2.000   8.503   2.741 -0.3549  1.2866  0.7873
19509SOL    HW261930   2.114   8.479   2.644  1.9630 -2.1115  4.0538
19510SOL     OW61931   9.227   9.049   9.707 -0.0011 -0.5416 -0.1707
19510SOL    HW161932   9.191   8.960   9.714 -2.5935  0.5142  1.3305
19510SOL    HW261933   9.243   9.061   9.613 -1.2509 -1.9971 -0.6064
19511SOL     OW61934   2.466   2.091   6.468 -0.4111  0.0478 -0.0189
19511SOL    HW161935   2.470   2.062   6.377  0.4460  2.1074 -0.6923
19511SOL    HW261936   2.395   2.154   6.470 -0.8668 -0.4758  0.9224
19512SOL     OW61937   5.946   4.266   9.866 -0.1863  0.1431  0.1000
19512SOL    HW161938   5.996   4.216   9.801 -0.1669  0.5424 -0.1932
19512SOL    HW261939   5.994   4.348   9.875 -0.8637  0.5820 -0.2786
19513SOL     OW61940   4.718  10.673   0.255  0.3164 -0.2646 -0.1493
19513SOL    HW161941   4.654  10.641   0.191 -1.7566  0.3673  1.4854
19513SOL    HW261942   4.729  10.766   0.233 -1.6499  0.3691  1.2915
19514SOL     OW61943   3.043   8.712   3.077 -0.0204 -0.0966 -0.1227
19514SOL    HW161944   2.952   8.711   3.047 -0.0949  1.3531 -0.0261
19514SOL    HW261945   3.039   8.755   3.163  0.9101  1.3221 -0.7555
19515SOL     OW61946   2.139   9.199  10.349 -0.1242 -0.6272  0.0214
19515SOL    HW161947   2.112   9.187  10.258  1.1628  0.8466 -0.6042
19515SOL    HW261948   2.199   9.126  10.367 -0.8212 -1.2390 -0.1123
19516SOL     OW61949   1.006   5.345   9.023 -0.0967 -0.0265 -0.3957
19516SOL    HW161950   1.002   5.256   8.988  0.5414 -0.4832  0.6475
19516SOL    HW261951   1.059   5.393   8.960  3.0890 -1.4222  1.0005
19517SOL     OW61952  10.350   1.628   1.796  0.6770  0.4265 -0.0905
19517SOL    HW161953  10.376   1.713   1.831  3.2440 -0.5184  0.5462
19517SOL    HW261954  10.285   1.649   1.729  1.1476  2.8783  0.1092
19518SOL     OW61955   5.031   5.971   5.356 -0.2540 -0.2170 -0.2843
19518SOL    HW161956   4.936   5.970   5.351 -0.4054 -0.7824  1.7184
19518SOL    HW261957   5.061   5.953   5.267 -1.9887  0.7046 -1.1024
19519SOL     OW61958   7.844   5.376   3.870 -0.2299 -0.1831 -0.4492
19519SOL    HW161959   7.798   5.401   3.950  1.4222 -1.3758  0.9475
19519SOL    HW261960   7.840   5.454   3.815 -1.4775  0.6408  0.7305
19520SOL     OW61961   9.689  10.330   2.814  0.5239  0.5117 -0.5845
19520SOL    HW161962   9.635  10.371   2.746  0.1407 -2.2071 -2.0907
19520SOL    HW261963   9.691  10.394   2.885  0.2631  3.1844 -2.7968
19521SOL     OW61964   7.925   5.626   4.331  0.1313 -0.3175  0.5956
19521SOL    HW161965   7.877   5.570   4.392 -0.2411  0.3384  0.9123
19521SOL    HW261966   7.886   5.608   4.246  0.2969 -0.8450  0.6270
19522SOL     OW61967   2.444   9.538   1.526 -0.2883  0.9674 -0.6008
19522SOL    HW161968   2.500   9.597   1.576 -0.2183 -0.7667  1.5478
19522SOL    HW261969   2.499   9.462   1.507 -1.6437 -0.5434  1.0925
19523SOL     OW61970   5.810   1.524   6.763  0.2283 -0.4111  0.0684
19523SOL    HW161971   5.815   1.533   6.668 -1.6233 -1.6137 -0.2093
19523SOL    HW261972   5.860   1.444   6.782  0.8730  0.0109  0.1477
19524SOL     OW61973   4.427   0.808   2.725 -0.2452  0.0927 -0.2115
19524SOL    HW161974   4.456   0.769   2.808 -0.2572  0.6402  0.0607
19524SOL    HW261975   4.433   0.737   2.661 -1.1254 -0.5957  0.4414
19525SOL     OW61976   3.945   5.068   6.509  0.2588  0.2122  0.2172
19525SOL    HW161977   4.036   5.044   6.526 -0.0666 -1.2937 -0.0256
19525SOL    HW261978   3.903   5.062   6.595 -0.2016 -2.0078 -0.0859
19526SOL     OW61979   5.538   9.853  10.424  0.2904 -0.5036 -0.0155
19526SOL    HW161980   5.562   9.770  10.465 -0.7659 -2.2950 -2.7069
19526SOL    HW261981   5.619   9.903  10.422  1.9160 -2.9776 -1.5035
19527SOL     OW61982   5.499   6.572   1.002 -0.3579 -0.0011 -0.1221
19527SOL    HW161983   5.420   6.550   1.051  0.1982  1.3222  1.4380
19527SOL    HW261984   5.473   6.563   0.910 -1.7988 -1.2769  0.3631
19528SOL     OW61985   5.790   1.730   5.094 -0.1451 -0.1147  0.6727
19528SOL    HW161986   5.787   1.729   4.998 -2.1214  0.0484  0.6989
19528SOL    HW261987   5.811   1.640   5.118  1.3617  0.0566  0.0974
19529SOL     OW61988   6.911   4.492   5.586  0.3247 -0.0246 -0.6153
19529SOL    HW161989   6.950   4.469   5.670  0.1349 -0.3515 -0.6155
19529SOL    HW261990   6.862   4.572   5.603 -0.5409 -0.6373 -0.1762
19530SOL     OW61991   1.333   1.380   9.304  0.5495  0.4640 -0.6381
19530SOL    HW161992   1.422   1.376   9.338  0.1231  3.5094  1.2766
19530SOL    HW261993   1.341   1.426   9.220  0.8056  0.7636 -0.4530
19531SOL     OW61994   9.931  10.359   6.754  0.4305 -0.3830  0.1248
19531SOL    HW161995  10.011  10.376   6.804  1.4166 -1.1853 -1.1386
19531SOL    HW261996   9.956  10.368   6.663 -1.0211 -0.2816 -0.2926
19532SOL     OW61997   9.241   5.759   2.448  0.4770  0.3397  0.4092
19532SOL    HW161998   9.314   5.796   2.499 -0.0155  0.7219  0.8466
19532SOL    HW261999   9.179   5.831   2.439  0.9293  0.5417 -1.5055
19533SOL     OW62000   8.079   1.770   3.966  0.9175 -0.9009 -0.0139
19533SOL    HW162001   8.017   1.755   3.895  0.6624 -1.4437  0.3146
19533SOL    HW262002   8.139   1.695   3.963  1.1024 -0.7596  0.1347
19534SOL     OW62003   3.516   2.995   0.191  0.0600  0.2125  0.6908
19534SOL    HW162004   3.565   2.917   0.164  0.1076  0.6461 -0.5422
19534SOL    HW262005   3.559   3.024   0.271  0.7186 -0.4261  0.5774
19535SOL     OW62006   2.677   1.901   8.019 -0.0430  0.0879 -0.1548
19535SOL    HW162007   2.728   1.946   8.087  1.7904 -0.3134 -1.1899
19535SOL    HW262008   2.588   1.900   8.053  0.6468  0.6890  1.8360
19536SOL     OW62009   0.726   9.738   2.379  0.5413 -0.5621  0.3012
19536SOL    HW162010   0.654   9.791   2.344  0.9486 -0.6616 -0.7001
19536SOL    HW262011   0.765   9.794   2.447 -0.3166 -0.4092  0.6816
19537SOL     OW62012   1.519   2.207   6.619 -0.3743  0.1501  0.0176
19537SOL    HW162013   1.536   2.119   6.585 -1.1771  0.0588 -0.1650
19537SOL    HW262014   1.427   2.224   6.597 -0.4661  0.6992  0.7966
19538SOL     OW62015   3.413   9.860   5.907 -0.3123 -0.2741 -0.2655
19538SOL    HW162016   3.423   9.943   5.954 -0.1406 -0.4949  0.0945
19538SOL    HW262017   3.362   9.805   5.967  0.2057 -0.6767 -0.1903
19539SOL     OW62018   8.301   3.362   8.528  0.3147 -0.3657 -0.5636
19539SOL    HW162019   8.342   3.392   8.610  0.3209  0.4315 -0.8464
19539SOL    HW262020   8.354   3.402   8.459 -0.1886 -0.3568 -0.9485
19540SOL     OW62021   1.479   5.041   5.576 -0.0766 -0.0907  1.0650
19540SOL    HW162022   1.522   4.989   5.644 -0.3037  1.1620  2.2049
19540SOL    HW262023   1.549   5.093   5.538  0.3123 -1.7550 -0.6625
19541SOL     OW62024   4.375   0.815  10.223 -0.5920 -0.1379  0.1853
19541SOL    HW162025   4.305   0.858  10.174 -0.0393 -1.8580 -2.3266
19541SOL    HW262026   4.355   0.721  10.216  0.6484 -0.5388  1.5617
19542SOL     OW62027   6.208   9.848   2.742  0.0037  0.3963 -0.4599
19542SOL    HW162028   6.125   9.809   2.713  0.2456 -0.9221  0.5606
19542SOL    HW262029   6.189   9.883   2.829  1.3675 -3.2218  1.4748
19543SOL     OW62030   5.382   7.874   6.454  0.0701 -0.5261  0.3260
19543SOL    HW162031   5.436   7.849   6.379  0.5787  0.2741  0.4147
19543SOL    HW262032   5.426   7.951   6.491  0.3819 -1.4677  2.0392
19544SOL     OW62033   6.634  10.222   1.782 -0.4607  0.4162 -0.3133
19544SOL    HW162034   6.543  10.191   1.778 -0.2113 -0.5381  0.7229
19544SOL    HW262035   6.648  10.241   1.875  0.8198 -0.8356 -0.2247
19545SOL     OW62036   9.745   0.890  10.156  0.1105  0.1654 -0.3839
19545SOL    HW162037   9.797   0.923  10.229  1.5823 -0.7567 -0.9562
19545SOL    HW262038   9.763   0.796  10.155 -2.1626 -0.3321 -0.1866
19546SOL     OW62039   6.178   3.336   6.945  0.2260  0.3249  0.6409
19546SOL    HW162040   6.100   3.292   6.978 -0.4819 -0.3927 -1.7559
19546SOL    HW262041   6.151   3.427   6.931 -0.1082  0.1536  0.1353
19547SOL     OW62042   0.007   2.372   1.081 -0.0170  0.6833 -0.2767
19547SOL    HW162043  -0.039   2.305   1.031 -0.1164  2.2294 -2.4114
19547SOL    HW262044   0.100   2.353   1.066 -0.0324  0.4144 -0.0237
19548SOL     OW62045   2.079   3.021   5.347  0.4346  0.1927 -0.2667
19548SOL    HW162046   2.150   2.958   5.363  0.2563 -0.7801 -2.8358
19548SOL    HW262047   2.002   2.981   5.386  0.8333  0.1196  0.4658
19549SOL     OW62048   0.800   4.738   9.305 -0.6441 -0.3164 -0.1682
19549SOL    HW162049   0.799   4.683   9.227 -0.9920 -0.6817  0.0839
19549SOL    HW262050   0.740   4.693   9.366 -0.0556 -0.2717  0.4571
19550SOL     OW62051   6.880  10.282   4.562 -0.0261  0.1493  0.2601
19550SOL    HW162052   6.904  10.372   4.583 -1.4256  0.3965  0.9446
19550SOL    HW262053   6.891  10.234   4.644  1.7527 -0.5829 -0.3498
19551SOL     OW62054   7.727   0.099   5.334  0.1784  0.1753  0.0571
19551SOL    HW162055   7.654   0.160   5.321  0.2447  0.6217  1.6329
19551SOL    HW262056   7.704   0.023   5.281 -0.8218  0.8126 -0.4588
19552SOL     OW62057   6.609   0.619   2.946 -0.6230 -0.0908 -0.4651
19552SOL    HW162058   6.534   0.640   3.001 -1.1400 -1.5076 -0.5820
19552SOL    HW262059   6.571   0.586   2.864  0.1117 -0.6828 -0.5872
19553SOL     OW62060   0.733   1.814   3.836  0.4492 -0.0820 -0.4496
19553SOL    HW162061   0.694   1.728   3.821 -0.4066 -0.3391  2.5815
19553SOL    HW262062   0.674   1.875   3.792 -2.0565 -0.6905  1.8259
19554SOL     OW62063   5.306  10.186   7.298 -0.3266  0.1863 -0.4572
19554SOL    HW162064   5.244  10.125   7.258  0.6174 -0.4440 -1.0016
19554SOL    HW262065   5.278  10.272   7.268 -0.6890 -0.1260 -1.0302
19555SOL     OW62066   6.802   3.260   0.343 -0.1468  0.2311  0.1722
19555SOL    HW162067   6.830   3.253   0.434 -0.0821 -0.4384  0.1105
19555SOL    HW262068   6.878   3.293   0.296 -0.3145  0.9825  0.4254
19556SOL     OW62069   1.253   7.371   6.742  0.5597  0.2936  0.2988
19556SOL    HW162070   1.223   7.288   6.703  0.2934  0.4520  0.1599
19556SOL    HW262071   1.297   7.345   6.823  0.7911 -0.0111  0.0763
19557SOL     OW62072   5.662   2.656   3.660 -0.1454  0.2293  0.1285
19557SOL    HW162073   5.646   2.720   3.591  1.7962  1.8222  1.0532
19557SOL    HW262074   5.587   2.597   3.656 -0.5221  0.7538 -2.7392
19558SOL     OW62075  10.532   5.722   2.828 -0.3138 -0.2504 -0.2505
19558SOL    HW162076  10.488   5.723   2.913 -0.5557  0.8928 -0.3616
19558SOL    HW262077  10.626   5.717   2.849 -0.2930  1.2955  0.1600
19559SOL     OW62078   7.100   8.242   8.609  0.3939  0.3069  0.4338
19559SOL    HW162079   7.047   8.162   8.614 -0.6424  0.7986 -1.6237
19559SOL    HW262080   7.137   8.252   8.697 -1.1418 -1.2822  1.3186
19560SOL     OW62081   5.070   1.020   1.297  0.3547 -0.0576  0.6598
19560SOL    HW162082   5.047   0.927   1.294  0.7157 -0.1537  0.8773
19560SOL    HW262083   5.044   1.049   1.384 -0.0215  0.1140  0.4903
19561SOL     OW62084   2.415   9.491   0.558 -0.1712  0.2323 -0.0412
19561SOL    HW162085   2.454   9.556   0.499 -2.4994  1.0611 -0.7740
19561SOL    HW262086   2.371   9.430   0.499  0.4024 -0.9710  0.7416
19562SOL     OW62087   9.823  10.271   3.895 -0.0306 -0.1654 -0.1659
19562SOL    HW162088   9.855  10.246   3.982  0.4314  0.4673 -0.1478
19562SOL    HW262089   9.728  10.258   3.900 -0.1186  0.6478  0.7192
19563SOL     OW62090   8.051  10.167   5.834 -0.4822  0.2857 -0.6284
19563SOL    HW162091   8.124  10.198   5.781  1.0057  0.7731  1.5778
19563SOL    HW262092   8.024  10.243   5.886 -0.4746 -0.6375  0.8043
19564SOL     OW62093   1.853   5.958   7.114  0.4374 -0.4225  0.4432
19564SOL    HW162094   1.767   5.934   7.079  0.5272 -0.4145  0.2128
19564SOL    HW262095   1.916   5.916   7.055  0.5917 -0.4480  0.6231
19565SOL     OW62096   4.199   2.928   1.622  0.4353  0.0337 -0.7540
19565SOL    HW162097   4.132   2.860   1.614  1.9948 -1.8365  0.9363
19565SOL    HW262098   4.188   2.962   1.711  0.4304  1.2190 -1.1825
19566SOL     OW62099   3.682   4.783   4.600 -0.1982  0.6831  0.1786
19566SOL    HW162100   3.622   4.831   4.542  0.5291  1.3054 -0.0694
19566SOL    HW262101   3.753   4.754   4.542  0.1366  0.6211  0.6125
19567SOL     OW62102   4.111   4.906   4.371 -0.0364 -0.1191 -0.2818
19567SOL    HW162103   4.175   4.890   4.301  0.2426  0.3347 -0.1322
19567SOL    HW262104   4.028   4.920   4.324  0.1721  0.2995 -0.5358
19568SOL     OW62105   5.852   7.702   0.109 -0.0497  0.6554 -0.1224
19568SOL    HW162106   5.928   7.703   0.166 -0.1499 -1.1663  0.0955
19568SOL    HW262107   5.780   7.733   0.164 -0.1151 -0.9245  0.7234
19569SOL     OW62108   3.582   6.849  10.667 -0.1146 -0.4477 -0.0062
19569SOL    HW162109   3.618   6.763  10.689 -2.2639 -2.1286 -2.4665
19569SOL    HW262110   3.489   6.832  10.652 -0.4992  2.2172 -1.0653
19570SOL     OW62111   7.602   3.800   3.410 -0.4514 -0.0573 -0.1231
19570SOL    HW162112   7.622   3.887   3.444 -0.7149  0.2097 -0.6326
19570SOL    HW262113   7.540   3.816   3.339  0.0492 -0.6041 -0.6939
19571SOL     OW62114   0.187   7.414   4.906  0.2632  0.2451  0.2507
19571SOL    HW162115   0.107   7.365   4.888  1.7417 -1.7110 -1.4172
19571SOL    HW262116   0.230   7.365   4.976  0.9426  0.1153 -0.2442
19572SOL     OW62117   2.592   3.634   0.272  0.0114 -0.1872  0.0715
19572SOL    HW162118   2.544   3.555   0.296  0.6794 -0.8407 -0.6585
19572SOL    HW262119   2.524   3.699   0.254 -0.5928 -0.9420 -0.4459
19573SOL     OW62120   3.200   9.423   8.284  0.0245 -0.1005 -0.1815
19573SOL    HW162121   3.260   9.415   8.209  2.0889 -0.0044  1.3789
19573SOL    HW262122   3.175   9.333   8.304  0.4392 -0.2315 -0.2394
19574SOL     OW62123   1.573   5.915   7.079  0.4013  0.4475  0.0608
19574SOL    HW162124   1.504   5.893   7.016  0.8031  0.0688 -0.2581
19574SOL    HW262125   1.589   5.833   7.126  1.8399  0.0544 -1.0575
19575SOL     OW62126   8.087   1.001   2.938  0.4075  0.2767  0.1210
19575SOL    HW162127   8.062   0.964   2.853  3.0800 -1.4451 -0.0390
19575SOL    HW262128   8.005   1.033   2.975 -0.9660  0.3941 -2.7563
19576SOL     OW62129   8.921   2.011   3.124 -0.6244  0.5037  0.2317
19576SOL    HW162130   9.005   2.026   3.081 -0.3734  3.2051  1.4499
19576SOL    HW262131   8.945   1.976   3.210 -0.7742  0.6730  0.3431
19577SOL     OW62132   5.296   6.078   6.626  0.1075  0.0245  0.1220
19577SOL    HW162133   5.369   6.076   6.565 -0.4145  0.2514 -0.5206
19577SOL    HW262134   5.279   6.171   6.641 -0.5407 -0.0108 -0.3417
19578SOL     OW62135   2.313   6.502   4.896 -0.3780  0.1909 -0.0861
19578SOL    HW162136   2.375   6.565   4.859 -0.5881  1.1728  1.2030
19578SOL    HW262137   2.367   6.427   4.921 -0.3355 -1.0233 -3.2874
19579SOL     OW62138  10.608   9.885   2.513 -0.0408 -0.1206  0.0401
19579SOL    HW162139  10.562   9.955   2.559  0.0749  0.6055 -0.9085
19579SOL    HW262140  10.538   9.827   2.483 -0.1491 -0.3354  0.7060
19580SOL     OW62141  10.668   8.241   5.378  0.0303  0.3133  0.4678
19580SOL    HW162142  10.673   8.148   5.397  1.3997  0.0812 -0.8761
19580SOL    HW262143  10.579   8.266   5.404  0.4173 -0.7958  3.1354
19581SOL     OW62144   3.186   3.442   2.241  0.4303  0.4095 -0.3692
19581SOL    HW162145   3.107   3.412   2.194  0.7418 -0.0385 -0.6221
19581SOL    HW262146   3.168   3.533   2.263 -1.5686 -0.5659  2.5634
19582SOL     OW62147   0.838   9.260   8.780 -0.2581  0.9169  0.1278
19582SOL    HW162148   0.850   9.181   8.727  1.3070  1.0760  0.1920
19582SOL    HW262149   0.743   9.269   8.789 -0.4795 -0.9410  0.0873
19583SOL     OW62150   9.531   4.659   3.570 -0.0435 -0.0910  0.0379
19583SOL    HW162151   9.571   4.702   3.494 -1.4154  0.5227 -0.3596
19583SOL    HW262152   9.528   4.728   3.637 -0.4285 -0.1283  0.0612
19584SOL     OW62153   4.174   1.810  10.773 -0.3925  0.2760  0.1222
19584SOL    HW162154   4.224   1.731  10.755 -1.1213 -0.2925  0.5209
19584SOL    HW262155   4.220   1.853  10.845  0.9119  1.0699 -1.1399
19585SOL     OW62156   7.817   4.020   3.349 -0.7151  0.0897 -0.5336
19585SOL    HW162157   7.756   4.028   3.275 -0.7843 -0.9826 -0.6067
19585SOL    HW262158   7.763   4.040   3.426 -0.7732  0.6904 -0.7284
19586SOL     OW62159   9.835   9.067   6.514  0.0605  0.2007  0.5462
19586SOL    HW162160   9.868   8.979   6.533 -0.1548  0.0454  0.2138
19586SOL    HW262161   9.771   9.054   6.444  1.5271  0.8862 -0.9664
19587SOL     OW62162   1.106   6.817   5.757  0.2904 -0.4432  0.4756
19587SOL    HW162163   1.108   6.814   5.661 -0.4171  1.5926  0.3478
19587SOL    HW262164   1.025   6.773   5.781  1.7379 -3.3974  0.3672
19588SOL     OW62165  10.094  10.652   5.560 -0.3999  0.5438  0.0205
19588SOL    HW162166  10.089  10.639   5.466 -1.3394  1.2369 -0.0395
19588SOL    HW262167  10.187  10.666   5.577  0.1514 -2.1183 -0.4104
19589SOL     OW62168  10.008   7.373   4.704  0.4128  0.8990 -0.0508
19589SOL    HW162169  10.103   7.367   4.719  0.2468  0.8266  1.0474
19589SOL    HW262170   9.996   7.458   4.662  1.0109  0.6918 -0.6740
19590SOL     OW62171   2.423   6.409   9.555  0.0436  0.2073  0.2008
19590SOL    HW162172   2.330   6.430   9.545 -0.2662 -0.5823  1.3214
19590SOL    HW262173   2.428   6.314   9.546  0.8553  0.2993 -0.5399
19591SOL     OW62174   8.578   8.957   0.539  0.0394  0.1864 -0.3260
19591SOL    HW162175   8.490   8.992   0.555  0.1076  0.6902 -1.0202
19591SOL    HW262176   8.626   8.976   0.619 -0.6082 -0.5115  0.2516
19592SOL     OW62177   6.869   9.861   9.896 -0.3015 -0.4089  0.3284
19592SOL    HW162178   6.849   9.859   9.802 -1.2264 -0.5842  0.5217
19592SOL    HW262179   6.790   9.829   9.938  0.9466 -2.6786  1.0756
19593SOL     OW62180   9.169  10.058   6.089 -0.8199 -0.4267 -0.3120
19593SOL    HW162181   9.122  10.023   6.165 -0.3042  0.3807  0.4034
19593SOL    HW262182   9.174  10.152   6.106  1.1508 -0.4858 -0.2994
19594SOL     OW62183   7.113   5.678   8.215  0.1390 -0.1298  0.1241
19594SOL    HW162184   7.020   5.677   8.189  0.2344  1.2403 -0.3504
19594SOL    HW262185   7.159   5.638   8.142 -0.0063 -0.2061  0.0739
19595SOL     OW62186   8.460  10.793   1.532  0.0734 -0.3994 -0.0627
19595SOL    HW162187   8.425  10.743   1.458  2.6806 -1.5462 -0.6313
19595SOL    HW262188   8.458  10.731   1.605 -3.8474  1.1369  1.4415
19596SOL     OW62189   1.719   4.093   0.557 -0.5091  0.1775 -0.3102
19596SOL    HW162190   1.722   4.185   0.581 -0.4182  0.1111 -0.0721
19596SOL    HW262191   1.741   4.092   0.463  2.8617  0.1086  0.3777
19597SOL     OW62192  10.473   3.727   1.421  0.5159  0.4634 -0.7083
19597SOL    HW162193  10.481   3.717   1.326 -0.7641 -1.2533 -0.6935
19597SOL    HW262194  10.441   3.816   1.434  0.2198  0.5469 -1.9067
19598SOL     OW62195   0.372   8.327   9.035 -0.2101 -0.3330  0.1401
19598SOL    HW162196   0.454   8.288   9.065  1.7794  1.6610 -2.2792
19598SOL    HW262197   0.358   8.290   8.948 -2.3513 -1.1846  0.7792
19599SOL     OW62198   1.134   0.118   7.849  0.1005  0.2730  0.1791
19599SOL    HW162199   1.148   0.035   7.804  0.0785 -1.0358  2.4462
19599SOL    HW262200   1.215   0.133   7.899  0.7013  2.4099 -1.2884
19600SOL     OW62201  10.002   9.631   7.504 -0.4889 -0.1362  0.3641
19600SOL    HW162202  10.079   9.575   7.505  1.7323  2.6822  0.8835
19600SOL    HW262203   9.941   9.591   7.566  0.6708 -2.2542  0.1974
19601SOL     OW62204   6.480   7.760   0.449 -0.4127  0.4441  0.5004
19601SOL    HW162205   6.558   7.751   0.503 -0.7330  0.2097  0.9230
19601SOL    HW262206   6.509   7.811   0.373  0.6612 -1.3607 -0.3624
19602SOL     OW62207   1.915   8.134   1.728  0.0080  0.4210 -0.5628
19602SOL    HW162208   1.927   8.068   1.660 -0.3892 -1.4938  1.1448
19602SOL    HW262209   1.998   8.138   1.774 -0.4544 -0.0565  0.3296
19603SOL     OW62210   0.223   0.200   9.620  0.3000 -0.1993 -0.3644
19603SOL    HW162211   0.301   0.240   9.658 -0.1532 -0.0041  0.3760
19603SOL    HW262212   0.153   0.263   9.635  0.6170  1.3711 -4.2444
19604SOL     OW62213   1.889   9.052   7.140  0.1798 -0.3454  0.3438
19604SOL    HW162214   1.829   9.019   7.208 -0.5587 -0.7729 -0.5024
19604SOL    HW262215   1.973   9.058   7.185  0.1361 -2.4087  0.8419
19605SOL     OW62216   9.234   6.987   0.476 -0.0793  0.2039 -0.2873
19605SOL    HW162217   9.174   7.034   0.418 -0.3213  0.8102  0.4454
19605SOL    HW262218   9.195   6.996   0.563  1.4984  1.3204  0.3321
19606SOL     OW62219   6.504   4.773   5.198  0.3680 -0.1244  0.7122
19606SOL    HW162220   6.579   4.714   5.205  1.2063  1.0638  1.9542
19606SOL    HW262221   6.535   4.847   5.146 -0.3321 -0.1799  0.1825
19607SOL     OW62222   8.818   0.884   7.121 -0.1147 -0.2711 -0.2285
19607SOL    HW162223   8.911   0.862   7.114  0.2453  1.2098 -0.4047
19607SOL    HW262224   8.775   0.800   7.136  1.2899 -0.9322  0.2941
19608SOL     OW62225   4.966   6.419   1.660 -0.5510 -0.1519  0.3293
19608SOL    HW162226   5.005   6.332   1.649 -0.2651  0.1628 -1.4574
19608SOL    HW262227   5.041   6.476   1.677 -0.7067 -0.1900  1.1805
19609SOL     OW62228   3.180  10.085   4.188  0.4183 -0.4841  0.1908
19609SOL    HW162229   3.166   9.994   4.216  0.5353 -0.1595  1.3191
19609SOL    HW262230   3.235  10.123   4.256  0.5280  0.3934 -0.3755
19610SOL     OW62231   8.720   7.995   3.317  0.2047  0.4044 -0.6701
19610SOL    HW162232   8.696   7.902   3.317 -0.5233  0.5766  0.3347
19610SOL    HW262233   8.811   7.996   3.288  0.2429 -0.6288 -0.6317
19611SOL     OW62234   4.041   0.369   2.365 -0.3619 -0.3601  0.0721
19611SOL    HW162235   3.957   0.365   2.319  1.3407 -1.7847 -3.2200
19611SOL    HW262236   4.051   0.282   2.403  0.3731 -0.8417 -1.1547
19612SOL     OW62237   6.809   1.190   0.076  0.1902 -0.1123 -0.3347
19612SOL    HW162238   6.903   1.186   0.058 -0.4934 -2.3741 -4.5182
19612SOL    HW262239   6.780   1.271   0.034  0.1796  0.4143  0.6647
19613SOL     OW62240   8.965   7.405   9.585  0.1628  0.4889  1.0267
19613SOL    HW162241   8.940   7.493   9.613  0.1720  0.5786  0.7513
19613SOL    HW262242   9.041   7.418   9.529  0.0918  0.3163  0.8884
19614SOL     OW62243   3.032   1.494   6.334 -0.4574  0.0968 -0.6721
19614SOL    HW162244   3.065   1.469   6.248 -1.0555 -1.1695 -0.5501
19614SOL    HW262245   2.941   1.518   6.319 -0.9918 -1.5122 -0.1967
19615SOL     OW62246   6.226   2.395   1.707 -0.1384  0.0028  0.1870
19615SOL    HW162247   6.165   2.437   1.767  1.0702  1.0680  0.7117
19615SOL    HW262248   6.302   2.454   1.703  0.9616 -1.3732 -0.2570
19616SOL     OW62249   8.824   9.072   4.543  0.2930 -0.1895  0.7868
19616SOL    HW162250   8.818   8.997   4.484  1.7751  0.0369  0.2869
19616SOL    HW262251   8.871   9.039   4.619  1.3976  0.3253  0.3488
19617SOL     OW62252  10.875   9.440   3.244 -0.5849  0.4568  0.6404
19617SOL    HW162253  10.787   9.475   3.238 -1.3782 -1.5275 -0.0478
19617SOL    HW262254  10.873   9.381   3.319 -0.2165 -0.5583 -0.1211
19618SOL     OW62255   3.173   0.910   5.432 -0.5406  0.4249 -0.9250
19618SOL    HW162256   3.159   0.890   5.339  1.2342  0.7609 -1.3100
19618SOL    HW262257   3.153   1.003   5.440  1.2357  0.9027 -1.4683
19619SOL     OW62258   5.066   3.477   3.851 -0.3844 -0.2596  0.3200
19619SOL    HW162259   5.132   3.426   3.897  0.9582 -0.3620 -1.5869
19619SOL    HW262260   5.074   3.565   3.887  2.2478  0.2270 -1.1535
19620SOL     OW62261  10.284   1.857  10.315  0.3179  0.6404  0.7333
19620SOL    HW162262  10.287   1.893  10.226 -0.0686 -0.4356  0.2727
19620SOL    HW262263  10.368   1.812  10.326 -0.8661 -2.0298 -0.3349
19621SOL     OW62264   4.803   6.590   6.807  0.4716 -0.0859  0.4437
19621SOL    HW162265   4.838   6.565   6.893 -0.2735  0.9060  1.0581
19621SOL    HW262266   4.822   6.684   6.800  0.2949 -0.1062 -0.3722
19622SOL     OW62267   4.779   9.030   6.003  0.7114 -0.0247  0.3143
19622SOL    HW162268   4.715   8.972   6.044  0.5857  0.4474  0.8055
19622SOL    HW262269   4.864   8.992   6.025  0.6228 -0.2312  0.3058
19623SOL     OW62270   1.211   1.865   7.284 -0.5542  0.0674  0.3744
19623SOL    HW162271   1.276   1.870   7.355  0.5892 -0.5333 -0.5934
19623SOL    HW262272   1.237   1.787   7.234 -1.5936  0.2462 -0.4644
19624SOL     OW62273   9.592   7.420   6.649  0.0350  0.3223  0.3838
19624SOL    HW162274   9.545   7.503   6.644 -1.2637 -0.3586  0.6660
19624SOL    HW262275   9.528   7.359   6.685  1.0852 -0.7145  0.5572
19625SOL     OW62276   0.667   3.017   1.941  0.1272  0.8301 -0.0046
19625SOL    HW162277   0.682   3.032   2.034  0.8263 -1.3306  0.2752
19625SOL    HW262278   0.734   3.070   1.897  0.3547  1.1832  0.7476
19626SOL     OW62279   1.974  10.708   3.920  0.0858  0.3573 -0.3735
19626SOL    HW162280   1.936  10.752   3.996  1.6525 -0.1423  0.7559
19626SOL    HW262281   1.983  10.617   3.948  0.9092  0.2219 -1.0568
19627SOL     OW62282  10.717  10.468   0.178  0.0956 -0.0439  0.4454
19627SOL    HW162283  10.628  10.466   0.212  0.7319  1.7874  2.4177
19627SOL    HW262284  10.719  10.545   0.121  0.4712  0.0436  0.5730
19628SOL     OW62285   5.800   1.445   1.994 -0.2132  0.1222  0.0380
19628SOL    HW162286   5.821   1.481   2.080 -1.5628  0.7538  0.1140
19628SOL    HW262287   5.883   1.407   1.964 -0.1072 -1.7484  2.3865
19629SOL     OW62288   6.917  10.105   3.328 -0.4849 -0.7697  0.0108
19629SOL    HW162289   6.962  10.051   3.393  1.1645 -0.3660 -0.7441
19629SOL    HW262290   6.941  10.067   3.244  0.0060  0.5735 -0.4963
19630SOL     OW62291   3.729   3.065   1.661 -0.1986 -0.0152 -0.3818
19630SOL    HW162292   3.706   2.972   1.657 -0.1294 -0.0240 -0.5758
19630SOL    HW262293   3.671   3.107   1.598 -0.8983  0.2115  0.4027
19631SOL     OW62294   3.148   6.239   6.843  0.0000  0.2643  0.4285
19631SOL    HW162295   3.195   6.214   6.764 -0.0854  0.9247  0.1602
19631SOL    HW262296   3.214   6.280   6.899 -0.1886  0.9705  0.1521
19632SOL     OW62297   2.454   4.208   8.412  0.0855 -0.0728 -0.1794
19632SOL    HW162298   2.492   4.281   8.462 -0.5920 -0.2626  0.6289
19632SOL    HW262299   2.530   4.161   8.378  0.5914  2.1843 -2.5559
19633SOL     OW62300   9.947  10.025   8.576 -0.6971  0.3892  0.3221
19633SOL    HW162301   9.974  10.117   8.585  0.3949  0.2266 -1.0325
19633SOL    HW262302  10.024   9.981   8.541 -1.8610 -0.6434 -1.0082
19634SOL     OW62303   6.072   4.614   0.647 -0.7874  0.3435  0.3707
19634SOL    HW162304   6.040   4.684   0.590  1.6755  1.4111  0.1939
19634SOL    HW262305   5.998   4.554   0.654 -2.4203  2.0853 -0.8683
19635SOL     OW62306   7.213   4.829   2.994  0.0995  0.8005  0.1301
19635SOL    HW162307   7.270   4.782   3.055 -1.2478  1.7123  2.2008
19635SOL    HW262308   7.195   4.766   2.924  1.5694 -0.3452  0.7379
19636SOL     OW62309   7.273   0.745   3.426 -0.0196 -0.4338 -0.5038
19636SOL    HW162310   7.271   0.669   3.483  0.7513 -0.2512 -0.2149
19636SOL    HW262311   7.358   0.739   3.381  1.2776  1.5914  1.4462
19637SOL     OW62312   9.694   8.158   6.680 -0.0364 -0.4523 -0.4851
19637SOL    HW162313   9.782   8.126   6.700  0.4437  0.8802 -0.3453
19637SOL    HW262314   9.642   8.079   6.665  1.5296 -1.2357 -2.0583
19638SOL     OW62315   2.667   8.086  10.364 -0.1697 -0.4505  0.0346
19638SOL    HW162316   2.699   8.068  10.275 -2.0808 -0.9180 -0.5931
19638SOL    HW262317   2.605   8.016  10.381 -1.4269  0.8372  0.9122
19639SOL     OW62318   4.354   5.369   7.286 -0.5081  0.3146 -0.0414
19639SOL    HW162319   4.337   5.346   7.378 -0.4427 -1.6916 -0.4914
19639SOL    HW262320   4.436   5.325   7.265 -0.9229  0.0963 -1.2828
19640SOL     OW62321   3.678   3.774   8.146  0.0911  0.4232  0.6743
19640SOL    HW162322   3.707   3.799   8.233 -1.5749 -0.9960  1.6959
19640SOL    HW262323   3.583   3.770   8.152  0.0261 -1.5220 -0.6559
19641SOL     OW62324   8.967   1.772  10.872 -0.6126  0.5377  0.4147
19641SOL    HW162325   8.909   1.730  10.936  0.5942  0.6460  1.6349
19641SOL    HW262326   9.054   1.739  10.894 -0.2907 -0.3977 -2.0057
19642SOL     OW62327   8.267  10.076   6.841 -0.2233 -0.6672  0.1781
19642SOL    HW162328   8.330  10.018   6.799  0.2675 -0.2123  0.2756
19642SOL    HW262329   8.269  10.157   6.789  0.8300  0.1237  1.3811
19643SOL     OW62330   0.933   9.220   4.471 -0.0939  0.2364  0.3152
19643SOL    HW162331   0.878   9.239   4.547 -1.9317 -2.6300 -0.1628
19643SOL    HW262332   1.001   9.162   4.504 -0.7007 -0.7428 -0.1037
19644SOL     OW62333   9.151   0.059   6.378  0.1109 -0.2630 -0.7351
19644SOL    HW162334   9.201   0.128   6.421  2.1291 -1.2016 -1.4512
19644SOL    HW262335   9.192  -0.022   6.406 -1.2704 -1.1237 -1.0847
19645SOL     OW62336   7.892   1.836   8.707 -1.1327 -0.0445  0.4072
19645SOL    HW162337   7.972   1.875   8.743 -1.7917  1.8689 -0.0576
19645SOL    HW262338   7.868   1.768   8.770  2.5427 -2.9893 -1.0117
19646SOL     OW62339   2.207   1.372   4.630 -0.4674  0.6429  0.2704
19646SOL    HW162340   2.204   1.306   4.560 -0.4755  0.9362 -0.0044
19646SOL    HW262341   2.192   1.455   4.586  2.6484  1.2430  0.1103
19647SOL     OW62342   7.556   1.602   5.851 -0.4548 -0.0261  0.1710
19647SOL    HW162343   7.494   1.535   5.880 -0.5110  0.3010  0.8360
19647SOL    HW262344   7.559   1.664   5.924 -0.9928  1.0988 -0.7273
19648SOL     OW62345   0.674   5.472  10.093 -0.3648  0.3387  0.3074
19648SOL    HW162346   0.588   5.461  10.134 -0.4826 -0.2224 -0.0846
19648SOL    HW262347   0.733   5.417  10.145  0.0092  1.5937  1.2869
19649SOL     OW62348   8.153   9.546   0.897  0.6653 -0.2669 -0.2278
19649SOL    HW162349   8.142   9.641   0.898  1.2396 -0.1802 -0.9739
19649SOL    HW262350   8.223   9.531   0.835  1.8129 -1.0713  1.2045
19650SOL     OW62351   6.605   4.064  10.008 -0.0723 -0.7593  0.3102
19650SOL    HW162352   6.629   4.117  10.084 -1.2348  0.1882  0.0462
19650SOL    HW262353   6.687   4.023   9.981  0.4976 -0.5587  1.6407
19651SOL     OW62354   3.503  10.163   3.323 -0.0292 -0.7330  0.2214
19651SOL    HW162355   3.481  10.162   3.230 -2.3018 -0.7690  0.7155
19651SOL    HW262356   3.536  10.075   3.341  0.9178 -0.5687 -0.6340
19652SOL     OW62357   4.621   3.159   6.398  0.8155 -0.2472 -0.8528
19652SOL    HW162358   4.531   3.192   6.398  0.5121 -0.9038  1.5293
19652SOL    HW262359   4.627   3.106   6.319 -0.5295  0.6936 -1.6256
19653SOL     OW62360   1.330   8.281   3.146  0.1462 -0.4192 -0.0096
19653SOL    HW162361   1.392   8.354   3.156 -0.2862  0.3115 -2.1007
19653SOL    HW262362   1.274   8.286   3.223 -0.2781  1.9262 -0.3778
19654SOL     OW62363   5.437   3.874   8.848 -0.2512  0.2367 -0.3519
19654SOL    HW162364   5.452   3.842   8.937 -1.4406 -0.6391 -0.4392
19654SOL    HW262365   5.370   3.942   8.857 -0.3306  0.1898 -0.5778
19655SOL     OW62366   4.246   9.946   1.800  0.0023  0.5288  0.3062
19655SOL    HW162367   4.190   9.968   1.726 -0.2115 -1.7483 -0.2788
19655SOL    HW262368   4.186   9.942   1.875 -0.1118  0.9371  0.2395
19656SOL     OW62369   6.116   5.704   5.002  0.1606  0.2319 -0.0056
19656SOL    HW162370   6.169   5.733   5.076  0.8451 -0.8960 -0.0378
19656SOL    HW262371   6.131   5.610   4.996  0.8478  0.4091 -2.1257
19657SOL     OW62372   1.832  10.227   6.173 -0.2154 -0.0875  0.2914
19657SOL    HW162373   1.840  10.150   6.229  1.6391 -1.4511 -1.7033
19657SOL    HW262374   1.742  10.223   6.140 -0.2737 -1.1496  0.5435
19658SOL     OW62375   2.884   0.038   9.589  0.2832 -0.7077  0.4416
19658SOL    HW162376   2.973   0.008   9.569  1.0771  1.2166  0.7913
19658SOL    HW262377   2.829  -0.040   9.581  2.1550 -2.1873  1.2346
19659SOL     OW62378   7.928   5.879   0.119 -0.1236 -0.3562 -0.0694
19659SOL    HW162379   8.023   5.867   0.125  0.2941  0.9499 -2.5864
19659SOL    HW262380   7.917   5.957   0.064 -2.6457 -1.7275 -1.7459
19660SOL     OW62381   2.956   3.184   5.590  0.0428  0.0768 -0.4013
19660SOL    HW162382   3.001   3.153   5.511 -0.8304 -2.1120 -0.1239
19660SOL    HW262383   2.925   3.104   5.633  1.5353  1.0568  2.8362
19661SOL     OW62384   6.616   2.853   2.949 -0.5204 -0.1356  0.0100
19661SOL    HW162385   6.608   2.948   2.958 -1.2940 -0.2510  0.6155
19661SOL    HW262386   6.545   2.817   3.002 -0.2975 -1.0553 -0.2879
19662SOL     OW62387   9.543   2.474   8.445  0.1425  0.0328  0.5335
19662SOL    HW162388   9.613   2.413   8.423 -0.2752 -0.8154  1.4839
19662SOL    HW262389   9.462   2.425   8.428 -0.3391  1.5778 -2.3140
19663SOL     OW62390   5.526   3.349  10.053  0.5645 -0.1807  0.4038
19663SOL    HW162391   5.581   3.282  10.014  0.2242 -0.0222 -0.3660
19663SOL    HW262392   5.562   3.432  10.021 -0.0323 -0.0727 -0.0047
19664SOL     OW62393   5.086   5.207   9.777  0.2675  0.3628  0.5609
19664SOL    HW162394   5.097   5.136   9.713  0.2258  0.9040 -0.0545
19664SOL    HW262395   5.096   5.287   9.726 -0.0325  0.8061  1.1887
19665SOL     OW62396   4.934   1.634   8.237 -0.1689 -0.1458 -0.0491
19665SOL    HW162397   4.985   1.579   8.178  0.6578 -1.7731  2.0572
19665SOL    HW262398   4.845   1.601   8.230 -0.1344 -0.1329 -0.5770
19666SOL     OW62399   3.769   7.734   9.230 -0.1896  0.5371 -0.2332
19666SOL    HW162400   3.708   7.727   9.304  0.0581 -0.2513 -0.0934
19666SOL    HW262401   3.817   7.652   9.231  1.2883  1.3722  0.0075
19667SOL     OW62402   5.505   5.304   3.551  0.4684  0.3951 -0.1908
19667SOL    HW162403   5.502   5.272   3.641  1.9799 -0.1046 -0.2871
19667SOL    HW262404   5.439   5.252   3.505 -1.3386  1.6274  0.8766
19668SOL     OW62405   5.923   7.556   3.005 -0.6481 -0.1376  0.0624
19668SOL    HW162406   5.857   7.497   3.041  1.9023 -2.2768  1.7013
19668SOL    HW262407   5.924   7.630   3.066 -0.1598 -1.1012  1.2745
19669SOL     OW62408   1.499   5.319  10.271 -0.4772 -0.8205 -0.5352
19669SOL    HW162409   1.586   5.359  10.265 -0.6601 -0.4914 -1.1103
19669SOL    HW262410   1.511   5.231  10.234 -0.0507 -1.3684  0.8305
19670SOL     OW62411   2.021   9.137   3.454  0.2013  0.1524 -0.7112
19670SOL    HW162412   2.001   9.228   3.431 -1.2268  0.1909  0.5549
19670SOL    HW262413   2.115   9.129   3.439  0.3994  1.8945 -0.6561
19671SOL     OW62414   5.684   5.509   4.664 -0.5389  0.1644 -0.5691
19671SOL    HW162415   5.770   5.469   4.666 -0.4132  0.3363 -1.7288
19671SOL    HW262416   5.623   5.435   4.659 -0.5153  0.0180  0.8908
19672SOL     OW62417   5.283   7.586   0.183 -0.0028 -0.1257  0.1099
19672SOL    HW162418   5.188   7.593   0.174 -0.0088 -0.8625 -0.5173
19672SOL    HW262419   5.296   7.524   0.255  0.0300  1.5206  1.5858
19673SOL     OW62420  10.868   6.672   2.621 -0.3694 -0.2287 -0.3106
19673SOL    HW162421  10.906   6.585   2.637 -1.0780 -0.2461  1.5193
19673SOL    HW262422  10.942   6.732   2.621 -0.0784 -0.5829  0.5578
19674SOL     OW62423   6.610   7.089  10.497 -0.8347  0.2618 -0.2263
19674SOL    HW162424   6.529   7.137  10.517 -2.2495 -1.4272 -1.5389
19674SOL    HW262425   6.671   7.116  10.565 -2.9926  0.4510  1.7727
19675SOL     OW62426   2.944   1.798   5.316  0.3077 -0.1683 -0.0071
19675SOL    HW162427   2.988   1.737   5.375 -1.6713 -1.3756  0.3178
19675SOL    HW262428   2.976   1.774   5.229  0.1978 -1.0973  0.2012
19676SOL     OW62429   0.305   4.083   1.294  0.1758 -0.0818  0.3582
19676SOL    HW162430   0.322   4.007   1.349 -1.0231 -1.3361 -0.9489
19676SOL    HW262431   0.277   4.047   1.210  0.7835  1.7977 -0.7039
19677SOL     OW62432   5.762   3.873   9.132  0.4421 -0.0606  0.5562
19677SOL    HW162433   5.680   3.833   9.105  0.1574  1.7475 -1.5641
19677SOL    HW262434   5.809   3.804   9.179 -1.3317 -1.8149 -0.1217
19678SOL     OW62435   9.070   0.783   0.591 -0.0292  0.4117 -0.5228
19678SOL    HW162436   9.094   0.849   0.526 -0.7393  0.2998 -0.9130
19678SOL    HW262437   9.024   0.833   0.659  0.7848  0.5415 -0.0507
19679SOL     OW62438   6.983   3.473   4.306 -0.1589 -0.1701  0.2210
19679SOL    HW162439   6.992   3.560   4.344 -1.0051 -0.0354  0.1342
19679SOL    HW262440   6.975   3.488   4.212  0.1179 -0.3697  0.1657
19680SOL     OW62441   6.265   9.058   0.372 -0.4454 -0.1675 -0.0003
19680SOL    HW162442   6.332   9.057   0.303 -0.6185 -0.3122 -0.1674
19680SOL    HW262443   6.256   9.151   0.395  1.0194 -0.2828  1.2164
19681SOL     OW62444   4.335   9.768   3.198  0.7032 -0.2622 -0.3283
19681SOL    HW162445   4.411   9.816   3.164 -0.0641  1.4497  0.2603
19681SOL    HW262446   4.329   9.794   3.290 -0.9888  0.1757 -0.5319
19682SOL     OW62447   7.444  10.528   0.734  0.0825 -0.2041  0.9668
19682SOL    HW162448   7.441  10.501   0.643 -0.0524 -1.1742  1.2427
19682SOL    HW262449   7.362  10.494   0.771  0.6607 -0.8319  1.7061
19683SOL     OW62450  10.517   7.041   4.269 -0.2959  0.0124 -0.6448
19683SOL    HW162451  10.431   7.035   4.228 -1.1195 -0.5606  1.0560
19683SOL    HW262452  10.531   6.954   4.308 -0.0284  0.7750  1.0887
19684SOL     OW62453   8.396   9.206   1.626  0.0242  0.2446  0.5368
19684SOL    HW162454   8.331   9.266   1.591 -2.1245 -1.6073  1.0885
19684SOL    HW262455   8.414   9.238   1.714  0.3843  1.1520  0.1382
19685SOL     OW62456  10.311   7.236   3.729 -0.2888  0.1001  0.1780
19685SOL    HW162457  10.275   7.313   3.685  0.7269  0.6697  0.3068
19685SOL    HW262458  10.393   7.218   3.682  0.6534  0.5244  1.5938
19686SOL     OW62459   2.645   0.801   0.159  0.0855 -0.5174 -0.2361
19686SOL    HW162460   2.683   0.855   0.089 -1.1231 -0.8577 -1.2081
19686SOL    HW262461   2.681   0.836   0.240 -0.4741  1.6085 -0.8519
19687SOL     OW62462   6.858   5.700   4.338  0.8875 -0.4590 -0.0057
19687SOL    HW162463   6.784   5.738   4.386  0.2499 -0.3657 -1.0440
19687SOL    HW262464   6.933   5.754   4.363  0.3050  0.4542 -0.1845
19688SOL     OW62465   1.772   6.511  10.407 -0.1324 -0.4691 -0.0621
19688SOL    HW162466   1.678   6.509  10.420 -0.3092  2.1335 -0.4684
19688SOL    HW262467   1.801   6.422  10.426 -3.0438 -2.2687 -3.0004
19689SOL     OW62468   9.136   2.917   7.137 -0.1113 -0.3083 -0.4545
19689SOL    HW162469   9.088   2.999   7.148  0.6112  0.1500 -0.5617
19689SOL    HW262470   9.215   2.943   7.089  0.0640 -1.0956 -0.6084
19690SOL     OW62471   2.967   6.787   4.716 -0.5231 -0.1217 -0.2174
19690SOL    HW162472   2.895   6.811   4.775 -0.7365 -0.3050 -0.4011
19690SOL    HW262473   2.927   6.789   4.629  0.0426  1.1842 -0.4720
19691SOL     OW62474   5.799   6.592   8.857 -0.2857 -0.3928  0.0671
19691SOL    HW162475   5.860   6.527   8.821 -0.3608 -0.7098  0.5086
19691SOL    HW262476   5.854   6.647   8.913 -0.0230  0.5573 -1.0802
19692SOL     OW62477   5.139   6.940  10.023 -0.0135 -0.4203  0.0455
19692SOL    HW162478   5.082   6.937   9.947 -2.7024 -1.6422  1.9656
19692SOL    HW262479   5.123   6.858  10.069  0.2958  0.9107  2.7309
19693SOL     OW62480   5.477   5.090   5.690  0.3097 -0.1280  0.3630
19693SOL    HW162481   5.558   5.125   5.652  1.5948 -2.2564  0.9569
19693SOL    HW262482   5.468   5.003   5.651 -1.6818  0.0460  0.3694
19694SOL     OW62483   3.704  10.598   5.423  0.6979 -0.0895  1.1225
19694SOL    HW162484   3.614  10.586   5.455  0.3091 -4.3761 -0.9140
19694SOL    HW262485   3.759  10.563   5.494  0.3703 -1.6833  0.6432
19695SOL     OW62486   8.689   9.009   5.986  0.7956  0.0769 -0.4525
19695SOL    HW162487   8.679   8.993   6.080 -1.2098 -1.7792 -0.9060
19695SOL    HW262488   8.676   9.103   5.976  0.4504  0.2149  1.0398
19696SOL     OW62489   7.879   7.171   0.016 -0.5984 -0.3702  0.2237
19696SOL    HW162490   7.844   7.082   0.010 -0.5983 -0.3165 -0.6773
19696SOL    HW262491   7.814   7.219   0.069 -1.3390 -0.5525 -0.4967
19697SOL     OW62492   6.206   8.605  10.844  0.9367 -0.0698 -0.2686
19697SOL    HW162493   6.204   8.555  10.762  0.8352 -1.3512  0.4847
19697SOL    HW262494   6.297   8.635  10.852  0.8351  0.4765 -1.0769
19698SOL     OW62495   3.481   5.741   8.691  0.1188 -0.0954 -0.3191
19698SOL    HW162496   3.566   5.760   8.730 -0.3367  0.7025  0.3324
19698SOL    HW262497   3.488   5.775   8.601 -0.1879  1.9523  0.3819
19699SOL     OW62498   1.098   0.204   0.826  0.6371  0.2002 -0.0787
19699SOL    HW162499   1.173   0.168   0.778 -0.1107  0.5954 -1.5908
19699SOL    HW262500   1.027   0.142   0.809 -0.0986  1.2675 -0.9442
19700SOL     OW62501   9.902   9.594   8.487 -0.0666  0.4770  0.1976
19700SOL    HW162502   9.895   9.673   8.542 -2.6491  0.1767  0.3870
19700SOL    HW262503   9.942   9.529   8.544  1.4757  1.4179  0.2513
19701SOL     OW62504   4.053   4.395   5.940  1.0485  0.1380  0.2747
19701SOL    HW162505   4.124   4.458   5.953  0.2932  0.5898  3.0177
19701SOL    HW262506   4.027   4.371   6.029 -0.0294 -2.5721 -0.6709
19702SOL     OW62507  10.234   5.942   9.949  0.0561 -0.3748  0.2468
19702SOL    HW162508  10.153   5.948   9.898  0.8518  0.0377 -1.0057
19702SOL    HW262509  10.296   5.900   9.890  1.1527  0.5948  0.6722
19703SOL     OW62510   9.412   2.082   0.727 -0.0531 -0.0387  0.2018
19703SOL    HW162511   9.445   2.033   0.802 -1.5211  0.4171  1.2059
19703SOL    HW262512   9.481   2.145   0.707  0.1845  0.1317  1.4740
19704SOL     OW62513   2.626   6.457   2.801  0.0362 -0.5910  0.4644
19704SOL    HW162514   2.609   6.466   2.707 -1.6051 -0.4421  0.7471
19704SOL    HW262515   2.539   6.455   2.841  0.6697 -1.8605  1.8779
19705SOL     OW62516   4.767   1.387   8.471  0.1620  0.2054 -0.0272
19705SOL    HW162517   4.803   1.304   8.438  1.2991 -0.2341  2.1332
19705SOL    HW262518   4.834   1.452   8.450  0.4491  0.0986  0.5462
19706SOL     OW62519   7.073   5.617   4.936  0.5096 -0.1168 -0.3426
19706SOL    HW162520   7.092   5.577   5.021 -1.6498 -1.9274 -0.6229
19706SOL    HW262521   7.154   5.607   4.886  0.3486 -3.6912 -0.1451
19707SOL     OW62522   8.372   5.208   0.010 -0.2567 -0.0383  0.1406
19707SOL    HW162523   8.399   5.194  -0.081  1.8191  0.2209  0.6537
19707SOL    HW262524   8.452   5.237   0.054 -0.3411 -3.0441  2.6900
19708SOL     OW62525   8.774   8.631   1.593  0.8211 -0.1797  0.4295
19708SOL    HW162526   8.817   8.551   1.564  1.3263  0.3377 -0.3044
19708SOL    HW262527   8.727   8.607   1.672  1.9856 -0.8989  0.9150
19709SOL     OW62528   7.422   0.060   2.435 -0.3740 -0.6233  0.0488
19709SOL    HW162529   7.416   0.083   2.342 -0.8673 -1.6608 -0.1946
19709SOL    HW262530   7.474  -0.020   2.437  1.2217  0.3792  0.8620
19710SOL     OW62531   0.733   5.394   1.434  0.1792 -0.3408  0.6049
19710SOL    HW162532   0.668   5.363   1.497  1.9499 -1.7870  1.8254
19710SOL    HW262533   0.761   5.315   1.387 -0.6331  0.6082 -1.6130
19711SOL     OW62534   1.432   5.401   8.438 -0.0827  0.2170  0.4233
19711SOL    HW162535   1.372   5.353   8.495  0.2332 -0.4634  0.2035
19711SOL    HW262536   1.493   5.444   8.498 -0.1667  0.0684  0.6176
19712SOL     OW62537   8.517   4.656   9.482  0.4227  0.2606  0.0749
19712SOL    HW162538   8.505   4.744   9.517 -0.1586  1.0692 -2.0108
19712SOL    HW262539   8.431   4.633   9.446  0.7545 -0.8906 -0.0323
19713SOL     OW62540   5.005   0.348   5.561  0.4953  0.6848 -0.2724
19713SOL    HW162541   4.970   0.311   5.480  1.3768 -0.8936  0.0229
19713SOL    HW262542   4.967   0.295   5.630  0.0697  1.7655  0.3497
19714SOL     OW62543   9.398   4.143   2.634  0.4057 -0.9836 -0.1118
19714SOL    HW162544   9.410   4.072   2.696 -0.5657 -0.9831  0.0900
19714SOL    HW262545   9.397   4.222   2.688  1.6141 -0.7821 -0.3471
19715SOL     OW62546   6.966   9.700  10.464 -0.3415 -0.2264  0.0542
19715SOL    HW162547   6.944   9.607  10.462 -2.2476  0.1766 -1.1640
19715SOL    HW262548   6.959   9.728  10.373 -1.0701  1.3557  0.5538
19716SOL     OW62549   5.019   8.109   7.276  0.4194  0.0307  0.3326
19716SOL    HW162550   5.063   8.121   7.360  0.3843 -0.9627  0.5056
19716SOL    HW262551   4.927   8.131   7.293  0.0787 -1.7251  0.9942
19717SOL     OW62552   1.605   9.003   8.033 -0.0646 -0.5765  0.6601
19717SOL    HW162553   1.622   8.993   8.127  0.1371  1.0913  0.8349
19717SOL    HW262554   1.521   9.049   8.028  0.4560  0.3492  0.0808
19718SOL     OW62555   6.798   8.286   5.200 -0.0623 -0.5259 -0.0787
19718SOL    HW162556   6.769   8.364   5.152 -2.0873 -1.5905 -0.7028
19718SOL    HW262557   6.748   8.290   5.282  0.3263 -0.8367  0.1741
19719SOL     OW62558   0.588   0.064   4.485  0.3881  0.0047  0.3665
19719SOL    HW162559   0.516   0.121   4.458 -1.3095 -3.4174 -3.6434
19719SOL    HW262560   0.547  -0.001   4.542  0.6823 -0.8606 -0.3768
19720SOL     OW62561   8.660  10.798   8.562  0.3647  0.5384 -0.0553
19720SOL    HW162562   8.566  10.809   8.550  0.5400  0.0165 -2.3750
19720SOL    HW262563   8.699  10.862   8.503  1.4513 -0.4122 -0.3996
19721SOL     OW62564   0.209   2.965   0.960 -0.2619 -0.4961 -0.3750
19721SOL    HW162565   0.220   2.898   1.027  0.7975 -1.2727 -1.2845
19721SOL    HW262566   0.295   2.972   0.919  0.1938  2.7938  0.9077
19722SOL     OW62567   5.356   7.773  10.030 -0.1632 -0.6692  0.5393
19722SOL    HW162568   5.432   7.820   9.995 -1.2690 -0.8339 -2.3145
19722SOL    HW262569   5.286   7.838  10.033 -0.1026 -0.6350  2.7100
19723SOL     OW62570   2.720   8.955   1.318 -0.0477  0.3273  0.1215
19723SOL    HW162571   2.700   9.042   1.353 -2.6746 -0.1948  0.1625
19723SOL    HW262572   2.810   8.961   1.288  0.4361  2.5197  1.7492
19724SOL     OW62573   4.776   2.447   5.019 -0.2839  0.1147  0.5176
19724SOL    HW162574   4.837   2.376   5.040  0.0325  0.7124  1.6629
19724SOL    HW262575   4.725   2.412   4.945  1.8212 -0.1774 -0.9185
19725SOL     OW62576   1.496   2.248   4.037  0.0760  0.2940  0.1174
19725SOL    HW162577   1.486   2.309   3.965  1.8592  0.7478  0.1953
19725SOL    HW262578   1.410   2.208   4.047 -1.2655  2.9936  0.2727
19726SOL     OW62579   8.191   5.666  10.388 -0.1608 -0.5619  0.3296
19726SOL    HW162580   8.201   5.688  10.296 -0.0904 -0.6516  0.3157
19726SOL    HW262581   8.225   5.577  10.395 -1.1782 -0.9604  0.2347
19727SOL     OW62582   2.231   2.913   0.706  0.2833 -0.0307 -0.0861
19727SOL    HW162583   2.166   2.976   0.738 -0.3261  0.3526 -1.9157
19727SOL    HW262584   2.220   2.836   0.762 -0.6021  0.6347  0.6906
19728SOL     OW62585   8.027   6.789   1.007 -0.3419  0.1051 -0.2398
19728SOL    HW162586   8.070   6.866   0.970 -0.5518 -0.4427 -1.6934
19728SOL    HW262587   7.948   6.824   1.049  0.3400  0.8392  0.4772
19729SOL     OW62588   5.551   1.171   9.160  0.0503 -0.3851  0.1275
19729SOL    HW162589   5.552   1.126   9.076 -0.7096 -0.4245  0.1258
19729SOL    HW262590   5.563   1.102   9.225 -0.0630 -0.4481  0.0808
19730SOL     OW62591   9.126   9.522   3.339 -0.4985  0.1994  0.0016
19730SOL    HW162592   9.117   9.601   3.393  0.0653  1.6380 -1.8690
19730SOL    HW262593   9.220   9.516   3.322 -0.6107 -0.5241 -0.3845
19731SOL     OW62594   8.725   0.138  10.266  0.3262 -0.3118  0.3647
19731SOL    HW162595   8.800   0.087  10.235  0.1410 -1.1888  1.2994
19731SOL    HW262596   8.695   0.091  10.343 -0.2043  0.9225  0.9350
19732SOL     OW62597   3.053  10.303   7.186 -0.1114  0.0900 -0.2914
19732SOL    HW162598   3.136  10.255   7.196 -1.1696 -1.8049 -0.1436
19732SOL    HW262599   3.067  10.359   7.110  0.8721 -1.2347 -1.1387
19733SOL     OW62600   4.942   9.369   5.194  0.2104  0.4894 -0.2832
19733SOL    HW162601   4.927   9.408   5.108  1.0236  0.2159 -0.5558
19733SOL    HW262602   4.874   9.302   5.202 -1.4073  2.1196  0.3209
19734SOL     OW62603   6.614   0.131   0.094 -0.4854  0.0913  0.1475
19734SOL    HW162604   6.523   0.102   0.101 -0.8275  1.3014  0.9760
19734SOL    HW262605   6.635   0.119   0.001 -1.9673  1.1183 -0.3642
19735SOL     OW62606   1.180   2.334  10.822  0.5791 -0.2210  0.5315
19735SOL    HW162607   1.184   2.255  10.876 -1.6391 -1.0563 -0.4140
19735SOL    HW262608   1.095   2.328  10.778  0.3576  2.7025  0.4188
19736SOL     OW62609   5.337   7.240   0.099 -0.3231 -0.0011 -0.2615
19736SOL    HW162610   5.376   7.327   0.093 -1.6841  0.6641  0.2011
19736SOL    HW262611   5.330   7.211   0.008 -1.0862  0.9447 -0.5169
19737SOL     OW62612   2.308   7.888   6.019 -0.1540  0.1298 -0.1838
19737SOL    HW162613   2.336   7.836   5.944 -0.2059  2.5172 -1.9875
19737SOL    HW262614   2.359   7.969   6.012 -2.4007  1.6975  0.5105
19738SOL     OW62615   5.305   3.603   4.211 -0.8589  0.0630  0.3240
19738SOL    HW162616   5.261   3.540   4.269  2.3617 -0.8969  1.9625
19738SOL    HW262617   5.398   3.585   4.223  0.2451  4.5216  0.1362
19739SOL     OW62618   0.219   8.175   9.480  0.2228  0.2244  0.5292
19739SOL    HW162619   0.208   8.105   9.544  1.4184  0.6208  1.2135
19739SOL    HW262620   0.135   8.219   9.477 -0.1889 -0.5086  0.9786
19740SOL     OW62621   4.741  10.698   4.365 -0.6787 -0.3150  0.0165
19740SOL    HW162622   4.647  10.717   4.367 -0.3743  1.3877  0.3540
19740SOL    HW262623   4.760  10.664   4.453 -0.8192  0.2693  0.2773
19741SOL     OW62624   5.218   0.686   7.293 -0.4003 -0.4484  0.1062
19741SOL    HW162625   5.146   0.631   7.324 -0.4640 -0.1178  0.5514
19741SOL    HW262626   5.231   0.750   7.363  1.1926 -1.2953  0.6334
19742SOL     OW62627   6.530   6.010   8.581 -0.2437 -0.2138 -0.2574
19742SOL    HW162628   6.579   6.089   8.606 -0.4894  0.0013 -0.4457
19742SOL    HW262629   6.448   6.017   8.631 -1.1606  0.7094 -1.8058
19743SOL     OW62630   9.689   5.976   3.497 -0.2379 -0.2915 -0.2181
19743SOL    HW162631   9.763   5.977   3.436 -0.0518 -2.2261 -0.0928
19743SOL    HW262632   9.729   5.991   3.583 -0.1486 -0.1395 -0.2860
19744SOL     OW62633   1.794   5.174  10.301 -0.1565  0.4006 -0.9484
19744SOL    HW162634   1.831   5.261  10.292 -2.3931  1.3208 -2.0574
19744SOL    HW262635   1.739   5.179  10.379 -0.1095 -0.0913 -0.8792
19745SOL     OW62636   9.803   8.969   7.693  0.2443 -0.2381  0.2449
19745SOL    HW162637   9.735   8.964   7.625 -1.8002 -1.9452  2.2478
19745SOL    HW262638   9.765   9.025   7.761  1.5741  0.1544  0.6933
19746SOL     OW62639   5.232   3.012   3.484  0.3883 -0.2469  0.2447
19746SOL    HW162640   5.246   3.075   3.413 -0.7142 -0.6874 -0.3858
19746SOL    HW262641   5.284   2.936   3.458 -1.2825 -1.0358 -0.9642
19747SOL     OW62642   6.489   3.046   4.773  0.0493  0.2555  0.2474
19747SOL    HW162643   6.475   3.030   4.867 -0.2459  0.4402  0.2348
19747SOL    HW262644   6.575   3.008   4.755  0.2454  0.4933  0.6616
19748SOL     OW62645   0.160   6.986   5.535  0.2981  0.0678  0.1655
19748SOL    HW162646   0.202   6.938   5.606 -1.1910 -0.4145  0.7546
19748SOL    HW262647   0.086   6.931   5.509  1.2859 -0.1641 -2.3579
19749SOL     OW62648   9.645   8.536   4.504  0.0021 -0.1571  0.2324
19749SOL    HW162649   9.561   8.572   4.477  0.6454  1.0454 -0.2208
19749SOL    HW262650   9.636   8.442   4.489 -0.8462  0.0896 -0.9555
19750SOL     OW62651   1.017   9.954   7.722 -0.1021 -0.5772  0.4646
19750SOL    HW162652   1.020   9.880   7.783 -2.6465 -1.7807 -0.7044
19750SOL    HW262653   0.925   9.962   7.699  0.5715  0.6045 -2.2506
19751SOL     OW62654   0.090   9.454   4.135  0.7517  0.0130  0.4547
19751SOL    HW162655   0.094   9.548   4.118 -1.6757  0.2522  0.8444
19751SOL    HW262656   0.125   9.445   4.224  2.0351  0.3510  0.0146
19752SOL     OW62657   6.685   7.353  10.152  0.2200  0.0057  0.2815
19752SOL    HW162658   6.699   7.295  10.076 -0.2880 -1.1965  1.0738
19752SOL    HW262659   6.591   7.374  10.148 -0.2196 -1.5069  1.5232
19753SOL     OW62660   5.030   1.371   5.501  0.0185  0.2517  0.0235
19753SOL    HW162661   4.937   1.393   5.503 -0.1175 -0.3411  1.3558
19753SOL    HW262662   5.033   1.278   5.482  0.1973 -0.1999  1.9902
19754SOL     OW62663   3.629  10.476   6.775 -0.5610 -0.3863 -0.1542
19754SOL    HW162664   3.558  10.421   6.740 -0.6899 -0.3391  0.0321
19754SOL    HW262665   3.673  10.510   6.697 -0.7299 -0.4363 -0.2719
19755SOL     OW62666   9.765  10.231   0.297  0.8883  0.2838 -0.4522
19755SOL    HW162667   9.721  10.155   0.260  0.3939  0.5835 -0.4945
19755SOL    HW262668   9.713  10.254   0.374  1.3980  0.2001 -0.0785
19756SOL     OW62669   7.894   2.405   4.749  0.0205 -0.1346  0.4952
19756SOL    HW162670   7.855   2.332   4.797 -0.2812 -0.5671 -0.3762
19756SOL    HW262671   7.845   2.482   4.777 -0.3401 -0.4250  0.6665
19757SOL     OW62672   5.418   8.102   2.901  0.4536  0.1539 -0.5767
19757SOL    HW162673   5.343   8.073   2.849 -1.1992  0.7247  1.3497
19757SOL    HW262674   5.487   8.038   2.883 -1.1440 -1.5528 -0.9157
19758SOL     OW62675   0.575   9.367   6.551 -0.1668  0.1893 -0.3219
19758SOL    HW162676   0.617   9.376   6.465  1.8476  0.3083  0.6435
19758SOL    HW262677   0.489   9.407   6.539  0.4192  1.0333 -2.0422
19759SOL     OW62678   4.909  10.838   5.522 -0.3036 -0.2258 -0.2616
19759SOL    HW162679   5.001  10.839   5.548 -0.6872 -0.2228  1.1397
19759SOL    HW262680   4.871  10.764   5.568 -1.2459  0.4175  0.0216
19760SOL     OW62681   9.424   5.956   3.228  0.4226  0.3260 -0.4351
19760SOL    HW162682   9.329   5.958   3.240  0.4617 -1.5365  0.7265
19760SOL    HW262683   9.459   5.987   3.312  0.7917 -1.2530  0.0316
19761SOL     OW62684   8.984   4.912   3.913  0.8555 -0.0893 -0.0470
19761SOL    HW162685   8.985   4.896   3.819  0.8825  0.0201 -0.0660
19761SOL    HW262686   8.892   4.901   3.938  0.4006  2.1437 -0.4958
19762SOL     OW62687   1.171  10.102   0.023  0.3561  0.1517 -0.5551
19762SOL    HW162688   1.127  10.024   0.058  1.5285 -0.3719 -0.1715
19762SOL    HW262689   1.116  10.132  -0.049 -1.6065  0.6431  1.0643
19763SOL     OW62690   1.740   4.709   7.910 -0.4913 -0.0963  0.0083
19763SOL    HW162691   1.824   4.748   7.884 -1.1260  1.3408  0.0364
19763SOL    HW262692   1.695   4.691   7.827  0.0066 -1.2851 -0.0213
19764SOL     OW62693   4.525   2.656   9.973 -0.2664  0.1558 -0.6013
19764SOL    HW162694   4.517   2.563   9.956  1.6290 -0.2305  0.3249
19764SOL    HW262695   4.608   2.681   9.933  0.4685  0.8660  1.2401
19765SOL     OW62696   5.780   6.001   0.175 -0.5939  0.1761  0.1258
19765SOL    HW162697   5.789   5.906   0.164  0.2603  0.3246 -0.6412
19765SOL    HW262698   5.866   6.035   0.150 -1.0920  1.2027 -0.2095
19766SOL     OW62699   0.331   3.526   5.249 -0.1430 -0.1228  0.4682
19766SOL    HW162700   0.413   3.541   5.201 -0.4260  0.6287  0.1979
19766SOL    HW262701   0.293   3.614   5.257 -1.1758 -0.5331  0.1404
19767SOL     OW62702   8.361   2.238   9.824 -0.1653 -0.3823 -0.2378
19767SOL    HW162703   8.366   2.179   9.899  1.1063  1.2202  0.9997
19767SOL    HW262704   8.436   2.215   9.769  0.9350  0.6865  0.7583
19768SOL     OW62705   4.865   3.343   7.464 -0.0319 -0.7504  0.2951
19768SOL    HW162706   4.943   3.360   7.412 -0.8315  0.4805 -0.5401
19768SOL    HW262707   4.877   3.395   7.543 -1.0751  1.4626 -0.9119
19769SOL     OW62708   4.672   2.868   5.635 -0.2302  0.5069 -0.3535
19769SOL    HW162709   4.641   2.946   5.682 -0.9202  0.9783 -1.5371
19769SOL    HW262710   4.592   2.829   5.599  0.2982  0.3989 -1.4579
19770SOL     OW62711   5.213   2.220   4.282 -0.3218  0.7844 -0.0301
19770SOL    HW162712   5.231   2.161   4.355  1.6936  0.4537 -0.7001
19770SOL    HW262713   5.286   2.282   4.283 -0.5034  1.0600 -1.4542
19771SOL     OW62714   4.418   3.794   2.427  0.5603 -0.5355  1.0685
19771SOL    HW162715   4.441   3.782   2.519  0.8606  0.4103  1.1302
19771SOL    HW262716   4.471   3.729   2.381  2.0716  0.4034  1.3857
19772SOL     OW62717  10.617   5.455   7.577 -0.1977  0.5185 -0.0077
19772SOL    HW162718  10.617   5.415   7.489 -0.3446  1.8652 -0.6429
19772SOL    HW262719  10.599   5.382   7.636 -1.7925 -0.1479 -1.2294
19773SOL     OW62720   1.427   2.745   9.307 -0.0704  0.1476  0.8308
19773SOL    HW162721   1.482   2.803   9.360  0.8691 -1.7550  2.0784
19773SOL    HW262722   1.400   2.676   9.368 -0.6427 -1.0427 -0.7088
19774SOL     OW62723   9.212   4.182   0.870 -0.1713 -1.0594  0.1232
19774SOL    HW162724   9.201   4.194   0.964 -0.5025 -2.8247  0.3354
19774SOL    HW262725   9.124   4.175   0.835 -0.0283 -2.5361  0.0062
19775SOL     OW62726   7.565   0.544   1.813 -0.4858 -0.0532 -0.0709
19775SOL    HW162727   7.608   0.600   1.748 -0.3761  1.1964  1.0385
19775SOL    HW262728   7.604   0.458   1.799  0.2434  0.4111 -1.0195
19776SOL     OW62729   6.365  10.631   2.513  0.3993  0.0600 -0.1970
19776SOL    HW162730   6.379  10.561   2.576  0.5842  0.3548  0.0908
19776SOL    HW262731   6.328  10.703   2.564  0.3345  0.2190 -0.4660
19777SOL     OW62732   7.482   3.569   3.527 -0.0511  0.0419  0.3365
19777SOL    HW162733   7.526   3.644   3.487 -1.1079 -0.5585 -2.1351
19777SOL    HW262734   7.551   3.502   3.535 -0.2988 -0.9641 -3.6738
19778SOL     OW62735   0.221   1.924   7.451  0.1781  0.1347  0.7840
19778SOL    HW162736   0.286   1.981   7.493  1.4414 -0.6367 -0.0470
19778SOL    HW262737   0.214   1.848   7.510 -0.0136  0.2369  0.8949
19779SOL     OW62738   5.957   9.460   5.139  0.3202  0.4785  0.6782
19779SOL    HW162739   5.975   9.520   5.211  0.9680 -0.3575  1.2288
19779SOL    HW262740   6.042   9.422   5.117  0.1876  0.9768 -0.7721
19780SOL     OW62741   2.959   2.619   6.479  0.1644  0.3854  0.4353
19780SOL    HW162742   2.875   2.590   6.444  1.1937 -0.7096 -1.2597
19780SOL    HW262743   2.962   2.712   6.459 -0.5016  0.3749  0.2406
19781SOL     OW62744   7.760   8.622   9.919  0.2872 -0.7126 -0.1955
19781SOL    HW162745   7.851   8.626   9.946  0.1478  0.0091  0.1706
19781SOL    HW262746   7.763   8.619   9.824  0.6631  0.1925 -0.2138
19782SOL     OW62747   1.303   8.253  10.536 -0.4015  0.1565  0.2569
19782SOL    HW162748   1.326   8.341  10.505  0.3242  0.1584  0.7751
19782SOL    HW262749   1.211   8.243  10.514  0.1179  0.0631 -2.1104
19783SOL     OW62750   4.372   1.129   9.502  0.0903 -0.1868  0.2871
19783SOL    HW162751   4.349   1.186   9.575  0.1139  1.0221 -0.6236
19783SOL    HW262752   4.308   1.059   9.504 -0.3153  0.2020  1.0656
19784SOL     OW62753  10.149   8.079  10.512  1.4959 -0.4291  0.0187
19784SOL    HW162754  10.189   7.999  10.546  0.4908 -1.7239 -1.6935
19784SOL    HW262755  10.190   8.090  10.426 -1.9907 -2.0897 -2.0442
19785SOL     OW62756  10.171   0.302   8.075 -0.0065  0.4802  0.4646
19785SOL    HW162757  10.104   0.343   8.021  1.6231  1.6424 -0.7931
19785SOL    HW262758  10.186   0.217   8.034  0.3111  0.8304 -0.1674
19786SOL     OW62759   1.826   2.129   7.825 -0.1154  0.3661  0.3852
19786SOL    HW162760   1.905   2.169   7.789 -0.3038  0.2258 -0.2051
19786SOL    HW262761   1.806   2.057   7.765 -2.3531  2.1844 -1.2671
19787SOL     OW62762   4.059  10.106   5.102  0.0156  0.4120 -0.6144
19787SOL    HW162763   3.999  10.155   5.047 -0.0682 -0.9668 -1.8308
19787SOL    HW262764   4.116  10.060   5.040  0.3259 -0.7068  0.4458
19788SOL     OW62765   6.291   7.851  10.036  0.1346 -0.0580 -0.2057
19788SOL    HW162766   6.312   7.920   9.973  0.7577 -1.7857 -1.9809
19788SOL    HW262767   6.216   7.806   9.998  1.2953 -1.9204 -0.4222
19789SOL     OW62768  10.848   3.027   5.020 -0.0742 -0.0176  0.3701
19789SOL    HW162769  10.868   3.013   5.112 -1.5825  2.8801  1.2470
19789SOL    HW262770  10.753   3.018   5.014 -0.2338  1.8361 -0.4334
19790SOL     OW62771   8.567   3.106   4.463 -0.4389 -0.4095 -0.1867
19790SOL    HW162772   8.656   3.076   4.447 -0.3454  0.3649 -1.1947
19790SOL    HW262773   8.511   3.038   4.424 -0.2664 -0.3266 -0.5827
19791SOL     OW62774   3.076   9.898   8.186  0.1711 -0.6492 -0.3564
19791SOL    HW162775   3.156   9.845   8.190 -0.3741 -1.5344 -0.7850
19791SOL    HW262776   3.027   9.873   8.265  0.5835  0.3603  0.2394
19792SOL     OW62777   6.587   7.962   3.724 -0.0270 -0.1091  0.3405
19792SOL    HW162778   6.666   7.961   3.778  0.4841  0.1865 -0.3795
19792SOL    HW262779   6.526   7.904   3.770 -1.0890  3.0442  3.3703
19793SOL     OW62780   9.788   3.621   5.189  0.2289 -0.6384  0.0568
19793SOL    HW162781   9.804   3.711   5.159 -1.3190 -0.1793  0.4984
19793SOL    HW262782   9.828   3.566   5.121 -1.3540  0.3851 -1.8111
19794SOL     OW62783   4.009   5.742   6.070  0.2050 -0.2406  0.0044
19794SOL    HW162784   4.024   5.694   6.151 -0.4460 -0.1102  0.2054
19794SOL    HW262785   4.089   5.793   6.057  0.0926  0.1726  0.8669
19795SOL     OW62786   1.151   5.837   2.222 -0.0842 -0.2263  0.1280
19795SOL    HW162787   1.157   5.923   2.264  0.8151 -0.0038 -0.4287
19795SOL    HW262788   1.235   5.795   2.241 -0.5359 -1.0079  0.4409
19796SOL     OW62789   5.416   2.806   0.164  0.9464  0.5132 -0.4548
19796SOL    HW162790   5.408   2.868   0.237 -0.6117  2.8189 -2.4246
19796SOL    HW262791   5.511   2.800   0.149  1.3459 -0.4071  1.9786
19797SOL     OW62792   5.129   3.462   5.105 -0.4541  0.2396 -0.6293
19797SOL    HW162793   5.056   3.424   5.055 -0.3411 -1.6920  0.5713
19797SOL    HW262794   5.204   3.456   5.046  0.0535 -3.5198  0.1471
19798SOL     OW62795   9.411   0.558   3.661 -0.0037  0.0881 -0.3606
19798SOL    HW162796   9.417   0.611   3.581  2.8892  0.0101 -0.2950
19798SOL    HW262797   9.456   0.476   3.639  0.9060  0.0904  1.3236
19799SOL     OW62798   2.045   2.947   6.325  0.0890 -0.0139 -0.1125
19799SOL    HW162799   2.060   2.852   6.318  0.7854 -0.0433  1.2525
19799SOL    HW262800   2.128   2.986   6.299 -1.1956  0.4626 -4.0671
19800SOL     OW62801   2.882   8.375   7.239 -0.1339 -0.1369  0.0940
19800SOL    HW162802   2.869   8.343   7.328  0.4652 -1.8752 -0.4062
19800SOL    HW262803   2.966   8.338   7.213 -0.5215 -0.0326 -1.3605
19801SOL     OW62804   6.894   5.860   3.334 -0.5983 -0.0903  0.4811
19801SOL    HW162805   6.886   5.795   3.403  0.8774 -1.9114 -0.9486
19801SOL    HW262806   6.927   5.811   3.259 -0.5323  2.1176 -1.0200
19802SOL     OW62807   6.944   2.478   8.900 -0.7037 -0.5107  0.3131
19802SOL    HW162808   6.923   2.477   8.806 -0.7344 -1.6956  0.3135
19802SOL    HW262809   7.033   2.443   8.904 -0.3348  0.4350  0.6641
19803SOL     OW62810  10.780   4.260   4.979 -0.0557  0.0208  0.3269
19803SOL    HW162811  10.776   4.298   5.067  0.0454  2.9456 -0.8399
19803SOL    HW262812  10.870   4.276   4.950 -0.1155 -0.8383 -0.3647
19804SOL     OW62813   6.027  10.504   1.371  1.2319 -0.0981 -0.2740
19804SOL    HW162814   5.945  10.492   1.418  1.2003 -1.5836 -0.6537
19804SOL    HW262815   6.000  10.531   1.283  1.0934 -1.2368 -0.5987
19805SOL     OW62816   0.474   7.596   5.435 -0.4952  0.3031 -0.1476
19805SOL    HW162817   0.419   7.539   5.489  1.5645 -0.5109  1.1863
19805SOL    HW262818   0.556   7.605   5.483  0.0964  2.6069 -1.4043
19806SOL     OW62819   2.203   3.486   2.927  0.7860  0.7284 -0.1985
19806SOL    HW162820   2.138   3.456   2.991  1.0758 -0.0151 -0.2405
19806SOL    HW262821   2.159   3.556   2.878  0.4507  1.0817  0.5940
19807SOL     OW62822   9.623   7.137   8.601  0.4588 -0.0499  0.2028
19807SOL    HW162823   9.684   7.205   8.575 -0.9637  0.2160 -2.9899
19807SOL    HW262824   9.668   7.055   8.579  1.0239 -0.0377  1.2673
19808SOL     OW62825   2.457   1.708   3.484  0.1772 -0.3938 -0.5173
19808SOL    HW162826   2.448   1.687   3.391 -1.1172 -0.3617 -0.4177
19808SOL    HW262827   2.461   1.803   3.487 -1.3131 -0.3021 -0.4619
19809SOL     OW62828   5.107   8.137   1.482  0.2199  1.1375  0.1542
19809SOL    HW162829   5.150   8.174   1.405 -0.3008  2.5438  0.5132
19809SOL    HW262830   5.176   8.132   1.548  0.9494 -1.1327 -0.6919
19810SOL     OW62831   5.316   5.455   3.043 -0.3833  0.2039  0.5354
19810SOL    HW162832   5.338   5.546   3.063  0.3718  0.0577  0.3901
19810SOL    HW262833   5.310   5.412   3.128  0.5053  0.1145  0.5662
19811SOL     OW62834   7.844   1.327  10.069 -0.0003 -0.2785 -0.0058
19811SOL    HW162835   7.846   1.232  10.074 -2.0356 -0.3949 -0.7135
19811SOL    HW262836   7.770   1.347  10.012  0.0263  1.7458  0.5912
19812SOL     OW62837   2.766  10.375   1.892 -0.0782  0.3130  0.0727
19812SOL    HW162838   2.853  10.399   1.924  0.0941  1.4466 -1.1771
19812SOL    HW262839   2.735  10.310   1.956  1.8523 -0.4657  0.3075
19813SOL     OW62840   3.595   4.846   7.324  0.0704 -0.3691  0.1687
19813SOL    HW162841   3.504   4.860   7.299  0.0902  0.4755  0.5255
19813SOL    HW262842   3.595   4.763   7.370 -0.3241 -0.9175 -0.7854
19814SOL     OW62843  10.346   2.803   0.678  0.4408  0.3476 -0.5059
19814SOL    HW162844  10.342   2.709   0.660  1.1783 -0.1965  1.8738
19814SOL    HW262845  10.264   2.823   0.723  0.3300  0.8435 -0.9174
19815SOL     OW62846   8.185   4.346   7.985  0.1492  0.5511  0.1780
19815SOL    HW162847   8.124   4.298   7.929  0.7827 -1.2008  0.9078
19815SOL    HW262848   8.201   4.428   7.939 -0.4257 -0.2347 -1.5027
19816SOL     OW62849   6.711   3.964   7.630  0.1783 -0.1077 -0.0554
19816SOL    HW162850   6.656   3.991   7.557  1.0362 -1.4891 -1.2859
19816SOL    HW262851   6.792   4.013   7.618  0.0933  0.1357  0.3491
19817SOL     OW62852   7.864  10.785   1.518  0.4761 -0.3057  0.6973
19817SOL    HW162853   7.882  10.713   1.457 -1.8624  0.2212 -0.7338
19817SOL    HW262854   7.868  10.744   1.605  2.3130 -1.4248  0.1337
19818SOL     OW62855   1.096   3.624   7.778  0.1230 -0.6645  0.5007
19818SOL    HW162856   1.004   3.648   7.781 -0.3178 -1.7613 -1.7129
19818SOL    HW262857   1.099   3.535   7.812  0.0583 -1.2121 -0.8354
19819SOL     OW62858   0.904   6.643   2.043  0.0611 -0.3793  0.7246
19819SOL    HW162859   0.857   6.662   2.124 -0.2389 -1.8880  0.9361
19819SOL    HW262860   0.837   6.612   1.983  0.2962  0.6372 -0.1002
19820SOL     OW62861   7.464   1.421   5.421  0.2667  0.3143 -0.7009
19820SOL    HW162862   7.542   1.476   5.411 -0.7720  2.3922  1.5464
19820SOL    HW262863   7.419   1.427   5.337  0.7623  2.0672 -0.8713
19821SOL     OW62864   3.127  10.496   1.942 -0.3522  0.2724 -0.9888
19821SOL    HW162865   3.136  10.460   1.854 -1.9106  0.9265 -1.4583
19821SOL    HW262866   3.066  10.438   1.986  0.2621  0.0670 -0.3971
19822SOL     OW62867   9.129   3.203  10.180  0.0532 -0.0159 -0.7185
19822SOL    HW162868   9.080   3.201  10.262  1.0819 -0.4815 -0.0886
19822SOL    HW262869   9.076   3.152  10.119 -1.4570  1.5764 -0.7972
19823SOL     OW62870   1.844   6.138   0.173 -0.3568 -0.0583  0.1795
19823SOL    HW162871   1.836   6.220   0.124  3.0426  0.4777  0.2644
19823SOL    HW262872   1.866   6.073   0.106 -0.7505 -0.4101  0.3895
19824SOL     OW62873   9.912  10.187   7.813 -0.3589  0.3406 -0.2317
19824SOL    HW162874   9.969  10.135   7.756 -1.2146  0.2612 -1.0457
19824SOL    HW262875   9.890  10.127   7.885  0.7358  0.4424  0.1939
19825SOL     OW62876   5.772   1.477   5.451 -0.3228  0.3047  0.1032
19825SOL    HW162877   5.842   1.543   5.447  0.5540 -0.6425 -1.2318
19825SOL    HW262878   5.702   1.513   5.396 -1.0884  1.4219  1.7329
19826SOL     OW62879   4.861   0.309   3.483  0.1923 -0.4035  0.1868
19826SOL    HW162880   4.861   0.220   3.519 -0.9308 -0.0079  1.2539
19826SOL    HW262881   4.894   0.363   3.555 -1.0090  0.2699  0.2629
19827SOL     OW62882   6.207   2.841   5.040  0.0498 -0.2795 -0.3734
19827SOL    HW162883   6.126   2.873   5.078  0.6990 -0.3222  1.1055
19827SOL    HW262884   6.266   2.917   5.039  0.4207 -0.5584 -0.2030
19828SOL     OW62885   2.063   5.823   6.636  0.3106  0.0267 -0.8188
19828SOL    HW162886   2.021   5.748   6.594  0.1716  0.0229 -0.6736
19828SOL    HW262887   2.015   5.899   6.604 -0.5502 -0.0635  0.2349
19829SOL     OW62888   0.361   1.767   9.069  0.2009  0.2633  0.4797
19829SOL    HW162889   0.294   1.701   9.048 -1.6067  1.6670  1.4957
19829SOL    HW262890   0.355   1.778   9.163 -0.5736  2.8251  0.2186
19830SOL     OW62891   6.251   2.576   3.178  0.6038 -0.2071 -0.3542
19830SOL    HW162892   6.250   2.642   3.247  4.7995  1.1296 -1.2494
19830SOL    HW262893   6.228   2.494   3.222  1.1466  0.9168  2.2097
19831SOL     OW62894   5.714   6.537   9.932 -0.2281  0.0533 -0.5355
19831SOL    HW162895   5.787   6.481   9.908 -0.1459 -0.3020  0.4886
19831SOL    HW262896   5.752   6.602   9.991 -0.6571  0.0982 -0.3043
19832SOL     OW62897   6.135  10.210   6.027 -0.0816  0.2843  0.0801
19832SOL    HW162898   6.135  10.297   6.068 -0.4531  0.5910 -0.5653
19832SOL    HW262899   6.228  10.186   6.021 -0.0030  0.3672  0.8018
19833SOL     OW62900   6.065   4.840   1.857 -0.1731  0.7371  0.4554
19833SOL    HW162901   6.037   4.907   1.795 -1.7353 -0.4567 -0.1897
19833SOL    HW262902   6.024   4.864   1.940 -1.4624  0.1657  0.0183
19834SOL     OW62903   8.855   3.341   7.699 -0.8048 -0.8852 -0.8784
19834SOL    HW162904   8.927   3.358   7.759  0.0812  0.2622 -2.1854
19834SOL    HW262905   8.776   3.361   7.749 -0.1945 -1.3740  0.3274
19835SOL     OW62906   6.017   9.963   9.046 -0.5424 -0.9493 -0.2004
19835SOL    HW162907   6.081  10.027   9.014 -1.7779 -0.1394 -1.1595
19835SOL    HW262908   5.989   9.997   9.131 -0.1893 -0.9552 -0.0811
19836SOL     OW62909   3.974  10.612   2.151  0.0544 -0.5727  0.1476
19836SOL    HW162910   4.027  10.669   2.094 -1.2452 -0.4684 -1.0134
19836SOL    HW262911   3.999  10.637   2.239 -1.0644  2.4996 -0.2647
19837SOL     OW62912   0.699  10.849   8.782 -0.2638  0.3980 -0.4738
19837SOL    HW162913   0.734  10.791   8.715 -1.2958  2.2771 -2.7771
19837SOL    HW262914   0.607  10.860   8.759 -1.0414  0.0840  2.0915
19838SOL     OW62915  10.512   4.803   9.366  0.2369  0.2655 -0.2094
19838SOL    HW162916  10.519   4.862   9.291  0.9151 -0.2992 -0.5950
19838SOL    HW262917  10.596   4.758   9.369 -0.1688 -0.4763  0.2544
19839SOL     OW62918   2.735   9.215   1.402  0.4820  0.1231 -0.5521
19839SOL    HW162919   2.808   9.277   1.399  2.1232 -1.7235 -0.9996
19839SOL    HW262920   2.746   9.170   1.486 -0.3146  0.0196 -0.5039
19840SOL     OW62921   8.912   7.668   9.629  0.3758 -0.2997  0.5767
19840SOL    HW162922   8.821   7.680   9.654 -0.1713 -0.1031 -1.3645
19840SOL    HW262923   8.960   7.737   9.674 -0.7510  0.8477  0.0607
19841SOL     OW62924   8.200   7.259   7.771  0.4324  0.1673 -0.6891
19841SOL    HW162925   8.222   7.350   7.750 -1.2048  0.4025 -1.5813
19841SOL    HW262926   8.185   7.218   7.686  1.3185 -1.0057 -0.3003
19842SOL     OW62927   5.398   2.417  10.220 -0.3579 -0.0508  0.2233
19842SOL    HW162928   5.308   2.449  10.228 -0.7404 -1.1948  0.8271
19842SOL    HW262929   5.452   2.488  10.255 -1.0831  0.3925  0.4683
19843SOL     OW62930   9.743   8.117   0.290 -0.2145  0.8414 -0.6004
19843SOL    HW162931   9.655   8.082   0.274  0.1014 -1.4621  1.9755
19843SOL    HW262932   9.728   8.203   0.328 -1.4322  0.1579  0.5496
19844SOL     OW62933   7.628   3.160   7.251 -0.2292 -0.1013 -0.3325
19844SOL    HW162934   7.687   3.144   7.177 -0.5604  2.0044 -1.1115
19844SOL    HW262935   7.605   3.072   7.283  0.3208 -1.0560 -2.4093
19845SOL     OW62936   3.427   7.776   0.804  0.2912 -0.2742 -0.4488
19845SOL    HW162937   3.454   7.804   0.716  1.0127 -1.1772 -0.5272
19845SOL    HW262938   3.492   7.816   0.862 -0.8392  1.2798 -0.1812
19846SOL     OW62939   5.397   9.960   9.306 -0.1989  0.3689  0.5895
19846SOL    HW162940   5.323  10.021   9.305 -0.9760 -0.5013 -1.3701
19846SOL    HW262941   5.421   9.951   9.214  0.6749 -1.3296  0.9525
19847SOL     OW62942  10.820   5.671   6.547 -0.3458 -0.1481 -0.3677
19847SOL    HW162943  10.908   5.633   6.552 -0.7869 -1.3181 -1.0005
19847SOL    HW262944  10.826   5.753   6.595  1.3324  0.2560 -1.1898
19848SOL     OW62945   9.468   7.766   9.211 -0.2615  0.1507 -0.0707
19848SOL    HW162946   9.414   7.714   9.270 -0.2015 -0.3289 -0.4381
19848SOL    HW262947   9.450   7.732   9.124  1.4397 -0.7886 -0.1128
19849SOL     OW62948   0.791   6.095   0.771 -0.3451 -0.3158 -0.1262
19849SOL    HW162949   0.736   6.173   0.784 -0.7592 -0.3855 -1.3229
19849SOL    HW262950   0.878   6.130   0.752 -0.6641 -0.1250 -1.2550
19850SOL     OW62951   1.260   0.397   5.866  0.2312  0.3785 -0.6745
19850SOL    HW162952   1.228   0.385   5.777  1.0269  1.9287 -1.2005
19850SOL    HW262953   1.349   0.361   5.865  0.9648  2.0982 -1.0682
19851SOL     OW62954   3.902   7.271   1.364 -0.5351 -0.5504  0.0314
19851SOL    HW162955   3.843   7.345   1.379 -0.9386 -0.9118  0.2651
19851SOL    HW262956   3.984   7.297   1.406  0.0811  0.7150 -1.8407
19852SOL     OW62957   9.094   1.401   4.622  0.1282  0.3824 -0.7016
19852SOL    HW162958   9.179   1.361   4.637 -0.3588 -0.7787 -0.9005
19852SOL    HW262959   9.033   1.327   4.620 -1.2208  1.3131  1.6234
19853SOL     OW62960   4.492   3.733   0.186  0.1667 -0.0191  0.1277
19853SOL    HW162961   4.503   3.825   0.166 -0.9867 -0.3208 -2.2531
19853SOL    HW262962   4.581   3.700   0.199  0.5687  1.4517  1.3634
19854SOL     OW62963   6.620   3.015   3.839 -0.3164 -0.0411 -0.2889
19854SOL    HW162964   6.691   3.079   3.846 -0.9361  0.5054  1.3915
19854SOL    HW262965   6.544   3.067   3.813 -0.5178 -0.3281 -0.2750
19855SOL     OW62966   0.823   3.198   4.603 -0.1821  0.4103 -0.6935
19855SOL    HW162967   0.837   3.108   4.572  0.3725  0.7927 -1.5918
19855SOL    HW262968   0.777   3.188   4.687  1.1457 -0.7526 -0.0746
19856SOL     OW62969   3.432   9.429   5.267  0.5986  0.0762  0.1800
19856SOL    HW162970   3.468   9.363   5.326 -0.8673 -1.2513 -0.3624
19856SOL    HW262971   3.440   9.391   5.180  0.9623  1.2000 -0.2996
19857SOL     OW62972   9.043  10.877   2.593 -0.7277  0.5020  0.0260
19857SOL    HW162973   9.014  10.966   2.575 -0.2782  0.8274  0.8722
19857SOL    HW262974   9.137  10.878   2.576 -0.9692 -0.2642 -1.6026
19858SOL     OW62975   6.447   3.275   1.627  0.1214  0.3387 -0.2177
19858SOL    HW162976   6.403   3.270   1.542  0.8319  0.2360 -0.5850
19858SOL    HW262977   6.539   3.253   1.608 -0.2460 -2.9768  1.0429
19859SOL     OW62978  10.358   9.889   6.461  0.3943  0.2178 -0.3794
19859SOL    HW162979  10.362   9.937   6.378 -0.5460  1.0327  0.0161
19859SOL    HW262980  10.347   9.957   6.527 -1.8424 -0.5498  0.1234
19860SOL     OW62981   4.574   3.383   2.307  0.4077  0.4183  0.4265
19860SOL    HW162982   4.493   3.337   2.326  1.4715 -0.7805  2.4842
19860SOL    HW262983   4.548   3.475   2.296 -1.1185  0.2399  2.1472
19861SOL     OW62984   7.395   5.780   7.387 -0.5505 -0.4344 -0.7388
19861SOL    HW162985   7.459   5.709   7.378  1.6355  1.1875  0.9445
19861SOL    HW262986   7.440   5.857   7.353 -1.4733  0.8007  0.6986
19862SOL     OW62987   9.107   1.356   1.532  0.0729  0.1356 -0.2025
19862SOL    HW162988   9.127   1.446   1.506  0.7807 -0.2262 -0.9401
19862SOL    HW262989   9.130   1.353   1.625  0.4312  0.6062 -0.2726
19863SOL     OW62990   2.444   1.514   7.436  0.4049 -0.1458  0.3871
19863SOL    HW162991   2.493   1.596   7.429  0.6795 -0.3054  0.4306
19863SOL    HW262992   2.507   1.446   7.412  1.4703 -0.7502  4.1980
19864SOL     OW62993   5.858   2.320   6.367  0.0393  0.1006  0.0546
19864SOL    HW162994   5.787   2.384   6.368  1.1262  1.3525 -0.4512
19864SOL    HW262995   5.929   2.364   6.321  0.8912 -1.4045 -0.1132
19865SOL     OW62996   8.275   9.744   5.765  0.3881  0.6057  0.2747
19865SOL    HW162997   8.356   9.753   5.715  0.0870  1.0197 -0.1575
19865SOL    HW262998   8.302   9.754   5.856  0.8071  0.8831  0.1281
19866SOL     OW62999   4.114   8.816   4.895  0.6657 -0.0167 -0.5669
19866SOL    HW163000   4.170   8.771   4.958  0.4984 -0.7755 -0.9396
19866SOL    HW263001   4.083   8.894   4.941  2.3964  0.6844 -0.5162
19867SOL     OW63002   1.784   5.261   4.929 -0.2334 -0.2490  0.3272
19867SOL    HW163003   1.718   5.195   4.947 -1.1014 -0.1549 -2.1031
19867SOL    HW263004   1.755   5.339   4.977 -1.1945 -0.5988  0.3292
19868SOL     OW63005   6.674   7.485   8.619 -0.1807  0.3111 -0.2088
19868SOL    HW163006   6.678   7.415   8.684 -0.5345  0.5570  0.0873
19868SOL    HW263007   6.585   7.480   8.585 -0.7643  1.6322  0.9872
19869SOL     OW63008   9.461   1.373   2.599 -0.2890 -0.2683  0.3915
19869SOL    HW163009   9.522   1.361   2.525  2.4457 -1.0044  2.5854
19869SOL    HW263010   9.419   1.457   2.581  1.6613  0.4714 -1.1096
19870SOL     OW63011   9.509   1.894   6.193 -0.2133  0.1710 -0.2764
19870SOL    HW163012   9.542   1.869   6.279  0.4484  0.8336 -0.3211
19870SOL    HW263013   9.421   1.929   6.210 -0.0306  0.4350  0.1593
19871SOL     OW63014   0.976   2.367   9.712 -0.4801 -0.3174  0.3644
19871SOL    HW163015   1.056   2.405   9.748 -1.4355  2.7083 -0.4171
19871SOL    HW263016   0.963   2.412   9.629 -3.8063  0.5767  1.2060
19872SOL     OW63017   3.691   5.225   6.944  0.1741 -0.1332 -0.0836
19872SOL    HW163018   3.700   5.289   7.014 -0.3808 -0.4449  0.2762
19872SOL    HW263019   3.610   5.178   6.964  0.2706 -0.5593 -0.6596
19873SOL     OW63020   5.775   7.859   3.445  0.0512 -0.1599 -0.8672
19873SOL    HW163021   5.723   7.937   3.423 -0.1468  0.1225  0.5030
19873SOL    HW263022   5.858   7.895   3.478 -0.7401 -0.3991  1.5933
19874SOL     OW63023   1.631   5.840   7.892  0.5342  0.6535  0.2047
19874SOL    HW163024   1.594   5.895   7.823 -2.1079  0.8713  1.6628
19874SOL    HW263025   1.592   5.875   7.973  2.4937 -0.4074  1.6834
19875SOL     OW63026   7.914   6.669   4.912 -0.8208 -0.0928 -0.5201
19875SOL    HW163027   8.007   6.668   4.887 -0.6109 -1.2551  0.2269
19875SOL    HW263028   7.868   6.636   4.836 -0.2759 -2.7390  0.2029
19876SOL     OW63029   0.454   2.137   8.323  0.5426 -0.2487  0.5066
19876SOL    HW163030   0.407   2.064   8.363  1.3686  0.7694  3.6530
19876SOL    HW263031   0.545   2.107   8.318  0.5453 -0.1513 -0.1746
19877SOL     OW63032   9.353   2.195   7.962  0.3095  0.4903  0.9011
19877SOL    HW163033   9.356   2.290   7.968  0.2759  0.3872  3.2422
19877SOL    HW263034   9.261   2.173   7.971 -0.0543  0.2933 -2.2565
19878SOL     OW63035   8.257   9.910   3.273 -0.3629  0.1517 -0.4939
19878SOL    HW163036   8.223   9.882   3.188 -0.3578 -0.0856 -0.4187
19878SOL    HW263037   8.265   9.829   3.324 -3.3497  0.5269  0.8128
19879SOL     OW63038   8.135   3.819  10.332 -0.3654 -0.1768  0.1187
19879SOL    HW163039   8.201   3.766  10.287 -0.6805 -1.5181  1.1537
19879SOL    HW263040   8.110   3.886  10.269 -0.4169 -1.6594 -1.5079
19880SOL     OW63041   1.859   7.410   7.129  0.2764  0.3897 -0.0978
19880SOL    HW163042   1.824   7.327   7.095  1.1971  0.4969 -1.4043
19880SOL    HW263043   1.785   7.471   7.126  0.1769  0.2287 -1.3953
19881SOL     OW63044   7.408   1.175   8.043 -0.6034  0.1393 -0.7784
19881SOL    HW163045   7.329   1.122   8.057 -0.8425  0.4634 -0.8929
19881SOL    HW263046   7.387   1.229   7.967 -0.6660  0.9898 -0.1651
19882SOL     OW63047   1.169   4.170   5.381 -0.4924  0.6810  0.6226
19882SOL    HW163048   1.206   4.258   5.393 -1.0379  1.0007  0.0315
19882SOL    HW263049   1.098   4.165   5.445 -1.2743  1.1573 -0.1730
19883SOL     OW63050   2.647  10.312   6.331  0.2164 -0.0429 -0.5910
19883SOL    HW163051   2.717  10.277   6.276 -0.1966  1.4191 -2.1286
19883SOL    HW263052   2.635  10.402   6.300  0.5047  1.1484  2.4580
19884SOL     OW63053   1.091   0.442   5.374  0.3778 -0.6149  0.7081
19884SOL    HW163054   1.024   0.392   5.420  0.8965 -1.1881  0.8618
19884SOL    HW263055   1.128   0.379   5.311 -0.1403  0.0732 -0.3127
19885SOL     OW63056  10.700  10.823  10.052 -0.2191  0.1674 -0.3770
19885SOL    HW163057  10.688  10.863   9.966 -1.5898 -0.7158 -0.6296
19885SOL    HW263058  10.637  10.751  10.054  0.1700 -0.1703  1.1649
19886SOL     OW63059   0.696   8.087   1.397  0.0230 -0.4299  0.2297
19886SOL    HW163060   0.703   8.180   1.417 -0.1742 -0.1966 -0.7497
19886SOL    HW263061   0.700   8.082   1.302  1.4683 -1.5417  0.3088
19887SOL     OW63062   1.213   4.642   3.559  0.5555  0.3987  0.0909
19887SOL    HW163063   1.181   4.715   3.611  0.5038 -0.8812  1.9304
19887SOL    HW263064   1.244   4.578   3.623  3.7921  0.1811 -1.4720
19888SOL     OW63065   5.634   5.091   2.566 -0.1799 -0.5407  0.7447
19888SOL    HW163066   5.645   5.186   2.574  0.8551 -0.4635 -1.0214
19888SOL    HW263067   5.633   5.076   2.471 -2.7763 -2.0431  0.9257
19889SOL     OW63068   9.401   7.618   8.986  0.4939  0.2753  0.0089
19889SOL    HW163069   9.372   7.528   8.972 -0.1143  0.5419 -0.4429
19889SOL    HW263070   9.364   7.667   8.913  0.1390  1.0452  0.7005
19890SOL     OW63071   4.452  10.836   6.346  0.3434 -0.3089  0.1256
19890SOL    HW163072   4.496  10.879   6.419  1.3973  1.6034 -1.5336
19890SOL    HW263073   4.509  10.763   6.323  1.7405  1.0206 -0.7931
19891SOL     OW63074   0.961   5.453   4.126  0.3835 -0.1382 -0.2060
19891SOL    HW163075   0.974   5.358   4.133 -3.1619 -0.6435  2.7841
19891SOL    HW263076   1.005   5.488   4.204  4.7180  1.4069 -2.9753
19892SOL     OW63077  10.083   9.812   3.502  0.8669  0.4093 -0.3945
19892SOL    HW163078  10.038   9.774   3.427  0.3817  1.4618 -0.6571
19892SOL    HW263079  10.154   9.865   3.464  2.0700 -0.8466 -0.0046
19893SOL     OW63080   6.691   5.925   9.706  0.2598 -0.0007 -0.6477
19893SOL    HW163081   6.729   5.886   9.627 -0.9171  0.1012 -1.2923
19893SOL    HW263082   6.766   5.954   9.757  1.0436  0.1069 -1.8194
19894SOL     OW63083   2.966   0.686   1.814 -0.1409 -0.2234 -0.5309
19894SOL    HW163084   2.905   0.685   1.888  2.1938 -1.1721  1.5013
19894SOL    HW263085   2.918   0.642   1.743 -1.6615 -1.3390  1.1112
19895SOL     OW63086   8.712   1.521   5.722  0.0545  0.6863 -0.8531
19895SOL    HW163087   8.688   1.434   5.753  1.9258 -0.2388 -1.8156
19895SOL    HW263088   8.754   1.563   5.796 -2.4678  1.5681  0.2107
19896SOL     OW63089  10.439   6.459   4.132  0.1341 -0.0526 -0.7171
19896SOL    HW163090  10.404   6.470   4.221  0.9579 -1.3675 -0.1906
19896SOL    HW263091  10.369   6.415   4.084  0.2204 -0.6830 -0.2858
19897SOL     OW63092   0.819   9.382   9.974 -0.3711 -0.6265  0.3128
19897SOL    HW163093   0.762   9.417   9.906 -0.0005 -2.1259 -0.8469
19897SOL    HW263094   0.833   9.454  10.035 -3.2708 -0.1189  0.5128
19898SOL     OW63095   0.376   3.322   1.743  0.4058 -0.1727 -0.6137
19898SOL    HW163096   0.463   3.320   1.783 -0.0724 -0.7832  0.4355
19898SOL    HW263097   0.340   3.234   1.759 -0.0580 -0.2169 -1.8218
19899SOL     OW63098   9.153   9.785   3.857  0.7344  0.4410  0.5006
19899SOL    HW163099   9.155   9.708   3.800  1.7750  1.2169 -0.5664
19899SOL    HW263100   9.196   9.756   3.937 -0.0874 -0.4601  0.6291
19900SOL     OW63101   9.828   9.899   3.862  0.2327 -0.3970 -0.6919
19900SOL    HW163102   9.778   9.931   3.937  3.5971 -1.7242  2.4238
19900SOL    HW263103   9.869   9.977   3.825 -1.9784  0.3592 -1.6984
19901SOL     OW63104   3.270   2.922   8.013  0.5791  0.1628  0.1210
19901SOL    HW163105   3.183   2.916   8.053  0.2358  0.8923 -0.5038
19901SOL    HW263106   3.269   2.858   7.942  1.3259 -1.4298  1.4520
19902SOL     OW63107   6.494   6.031   1.938  1.2087  0.5647 -0.1478
19902SOL    HW163108   6.527   5.965   2.000  0.9524  0.0036 -0.5930
19902SOL    HW263109   6.512   6.115   1.980  0.1091  0.1804  1.1513
19903SOL     OW63110   2.486   3.712   1.099 -0.1871  0.6990  0.6306
19903SOL    HW163111   2.469   3.672   1.184 -1.6684 -0.7309 -0.2865
19903SOL    HW263112   2.548   3.652   1.057  1.1572  1.8062  0.9494
19904SOL     OW63113   9.815  10.620   0.805 -0.0636  0.2841 -0.1838
19904SOL    HW163114   9.864  10.666   0.873  0.5481  1.2730 -1.2381
19904SOL    HW263115   9.808  10.530   0.837 -0.8096  0.9674  1.6864
19905SOL     OW63116   1.445   1.357   8.840 -0.4081 -0.1697  0.4863
19905SOL    HW163117   1.369   1.312   8.803  1.2421 -2.0280 -0.8650
19905SOL    HW263118   1.410   1.407   8.914 -3.0885 -0.0462 -0.7516
19906SOL     OW63119   5.020   0.712   3.290  0.7248  0.3390 -0.5208
19906SOL    HW163120   5.026   0.617   3.283 -0.3177  0.2648 -0.5733
19906SOL    HW263121   5.050   0.745   3.206 -0.3519 -0.0191 -1.0608
19907SOL     OW63122   3.687  10.143   7.201 -0.2977 -0.5976  0.2544
19907SOL    HW163123   3.660  10.229   7.232  0.8085 -0.5002  0.9840
19907SOL    HW263124   3.781  10.151   7.184 -0.3628 -1.3911 -0.6248
19908SOL     OW63125   3.040  10.554   0.317  0.0999 -0.3104  0.1846
19908SOL    HW163126   3.012  10.642   0.291  1.2524 -0.0750 -0.3209
19908SOL    HW263127   3.093  10.569   0.396 -0.7131 -0.6927  0.8195
19909SOL     OW63128   9.882   5.209   5.458  0.0995 -0.5684 -0.3073
19909SOL    HW163129   9.974   5.207   5.431 -0.0587 -1.0719 -0.8429
19909SOL    HW263130   9.859   5.302   5.462 -0.1049 -0.4347 -2.7987
19910SOL     OW63131   6.991   6.361   1.362 -0.6631 -0.0138  0.3976
19910SOL    HW163132   7.003   6.417   1.285 -1.3114 -1.3077 -0.6802
19910SOL    HW263133   6.904   6.324   1.352  0.0579 -1.8756  0.6161
19911SOL     OW63134   5.764   2.573   5.411 -0.2209 -0.4627 -0.3467
19911SOL    HW163135   5.802   2.659   5.394 -2.9345  0.8234 -0.3552
19911SOL    HW263136   5.813   2.540   5.486 -1.7272  2.9503  2.3972
19912SOL     OW63137   8.725   2.316   4.697 -0.2720 -0.1508 -0.2367
19912SOL    HW163138   8.709   2.236   4.646  1.1056 -0.7081  0.1396
19912SOL    HW263139   8.653   2.320   4.759  0.4166 -1.9948  0.7847
19913SOL     OW63140   4.803   3.898   8.339  0.1271  0.2979 -0.1502
19913SOL    HW163141   4.787   3.861   8.425 -2.6811 -0.3133 -0.8279
19913SOL    HW263142   4.826   3.823   8.284  0.9530  0.5479 -0.1588
19914SOL     OW63143   1.287   5.747   3.656  0.3327  0.7271 -0.0491
19914SOL    HW163144   1.327   5.785   3.577 -0.1914  2.5916  0.5322
19914SOL    HW263145   1.283   5.820   3.718  0.8534 -0.7249  1.7794
19915SOL     OW63146   5.966   8.168   3.753 -0.0660  0.4077  0.4438
19915SOL    HW163147   5.942   8.235   3.818 -0.0887 -1.8146  2.8945
19915SOL    HW263148   6.060   8.159   3.763 -0.0608  0.1041  0.1150
19916SOL     OW63149   4.951   7.744   4.931 -0.6441 -0.7031 -0.4516
19916SOL    HW163150   4.880   7.773   4.874  1.4467  0.1385 -2.8550
19916SOL    HW263151   5.030   7.781   4.890  1.0542 -0.2581  2.9207
19917SOL     OW63152   7.382   2.348  10.208  0.3262  0.2172  1.0114
19917SOL    HW163153   7.460   2.379  10.163 -0.2196  2.0028  1.2118
19917SOL    HW263154   7.340   2.427  10.241 -1.6171 -0.6771  0.8326
19918SOL     OW63155   8.366   7.125   5.826  0.0712  0.4596  0.5993
19918SOL    HW163156   8.381   7.200   5.883  0.4004  1.7925 -1.1460
19918SOL    HW263157   8.433   7.132   5.758  0.1071 -1.4309  0.3636
19919SOL     OW63158   6.618   4.163   3.339 -0.1920 -0.2316 -0.1973
19919SOL    HW163159   6.584   4.209   3.416 -2.2253 -0.2415 -1.0116
19919SOL    HW263160   6.579   4.075   3.345  0.9746 -0.7753 -0.3804
19920SOL     OW63161   8.534   5.653   6.140  0.3076  0.4493  0.4513
19920SOL    HW163162   8.444   5.686   6.132  0.4191  0.7505  0.4329
19920SOL    HW263163   8.523   5.560   6.158 -0.1394  1.0977  4.5256
19921SOL     OW63164   7.259   9.490   4.330  0.2322  0.5101 -0.0778
19921SOL    HW163165   7.243   9.465   4.239  0.7118  2.2466 -0.6762
19921SOL    HW263166   7.198   9.562   4.346  1.7155  1.7377  0.2215
19922SOL     OW63167  10.153   0.292  10.040 -0.1670  0.1084 -0.4408
19922SOL    HW163168  10.108   0.210  10.062  0.4438 -0.1265 -0.0226
19922SOL    HW263169  10.095   0.361  10.073 -0.8422 -0.1333 -1.0914
19923SOL     OW63170   5.940  10.665   7.325  0.0376 -0.4942 -0.4344
19923SOL    HW163171   6.005  10.675   7.256  1.2593  3.5725  1.0242
19923SOL    HW263172   5.855  10.673   7.280  0.6711 -0.9300 -1.7505
19924SOL     OW63173   4.465   3.207   5.157  0.3216  0.5503 -0.1927
19924SOL    HW163174   4.390   3.220   5.215  0.1388  0.0547 -0.3172
19924SOL    HW263175   4.427   3.194   5.070  0.5344 -0.0750 -0.1933
19925SOL     OW63176   7.695   8.300   9.936  0.3948 -0.4243  0.0490
19925SOL    HW163177   7.736   8.385   9.924 -0.4629  0.0698  0.5511
19925SOL    HW263178   7.739   8.243   9.873  1.0188  0.3688 -0.2421
19926SOL     OW63179   0.958   3.600  10.403 -0.2479  0.7059 -0.3737
19926SOL    HW163180   0.894   3.606  10.332  0.0433  0.1808 -0.6883
19926SOL    HW263181   1.032   3.553  10.365 -1.5097 -2.9519  1.2368
19927SOL     OW63182   4.453   3.919   9.593  0.2071 -0.3346  0.2420
19927SOL    HW163183   4.524   3.981   9.607 -0.6170  0.8276 -0.4981
19927SOL    HW263184   4.382   3.951   9.650 -0.5339 -0.0221 -0.8088
19928SOL     OW63185  10.844   0.924   4.246 -0.0801 -0.2851  0.4797
19928SOL    HW163186  10.782   0.861   4.210 -1.3198  0.8874  0.5045
19928SOL    HW263187  10.855   0.989   4.177 -0.1600  0.3858  1.0863
19929SOL     OW63188   3.376   6.739   9.450 -0.1999  0.0211 -0.0134
19929SOL    HW163189   3.322   6.688   9.389 -0.7440 -0.9183  1.2014
19929SOL    HW263190   3.409   6.674   9.512 -0.3157  1.0523  1.1546
19930SOL     OW63191   1.620   4.230   4.529 -0.0192  0.0766  0.3138
19930SOL    HW163192   1.674   4.298   4.569  0.9101 -1.0903  1.1334
19930SOL    HW263193   1.545   4.277   4.492 -0.8718  1.2992  3.2702
19931SOL     OW63194   2.687   9.509   3.421  0.3685 -0.0857  0.8937
19931SOL    HW163195   2.699   9.595   3.382 -0.8682 -0.6045 -0.7497
19931SOL    HW263196   2.673   9.451   3.346  0.6371 -1.6329  1.9921
19932SOL     OW63197   4.438   7.041   7.763  0.1494 -0.2770  0.7546
19932SOL    HW163198   4.523   6.997   7.769  0.4949  0.4537  1.4056
19932SOL    HW263199   4.395   6.999   7.688  1.0697 -0.6825  0.4331
19933SOL     OW63200   1.026   5.285  10.895 -0.3990  0.2824  0.4277
19933SOL    HW163201   1.106   5.337  10.896 -0.8215  0.9510  1.5575
19933SOL    HW263202   1.055   5.196  10.880  0.3900  0.7473 -0.9764
19934SOL     OW63203   1.029   5.786   7.794  0.3434 -0.0509 -0.1323
19934SOL    HW163204   0.961   5.744   7.741  0.4995 -0.6863  0.1667
19934SOL    HW263205   0.996   5.781   7.884  0.9840 -0.7822  0.0772
19935SOL     OW63206   8.040   4.174   2.022 -0.1939  0.0429  0.3685
19935SOL    HW163207   8.128   4.212   2.017  0.4858 -1.4986 -0.1029
19935SOL    HW263208   7.996   4.203   1.943 -0.0059  0.5718  0.4579
19936SOL     OW63209   3.142   3.094   0.217  0.3947 -0.0972  0.0626
19936SOL    HW163210   3.200   3.144   0.275 -0.3694  1.4107 -0.4299
19936SOL    HW263211   3.179   3.006   0.217  1.0532  0.1229  1.9778
19937SOL     OW63212   8.182   6.411   0.237 -0.3996 -0.4332 -0.0781
19937SOL    HW163213   8.135   6.470   0.177  1.8830 -0.8702 -2.4989
19937SOL    HW263214   8.123   6.336   0.248 -2.3243  1.1646  1.1083
19938SOL     OW63215   0.255   2.401   7.287  0.6817 -0.2518  0.1256
19938SOL    HW163216   0.222   2.354   7.210  0.5557 -2.0480  1.2198
19938SOL    HW263217   0.336   2.356   7.310  0.1350 -0.4982  1.6991
19939SOL     OW63218   2.661   2.247   2.529 -0.1509 -0.5238  0.3445
19939SOL    HW163219   2.741   2.195   2.516 -0.4373 -0.9771  0.3844
19939SOL    HW263220   2.693   2.336   2.546  0.3469 -0.7114  0.4091
19940SOL     OW63221   5.686   7.967   6.221  0.6121 -0.0356 -0.3908
19940SOL    HW163222   5.592   7.972   6.209  0.1036 -2.2841  1.8147
19940SOL    HW263223   5.710   8.050   6.262 -0.5940  0.1480 -0.0437
19941SOL     OW63224   8.738   2.146   7.257 -0.5290  0.1405 -0.0571
19941SOL    HW163225   8.786   2.088   7.316 -1.4808 -0.6912 -0.0789
19941SOL    HW263226   8.684   2.200   7.314  0.4716  1.1458 -0.0266
19942SOL     OW63227   6.705   1.484  10.579 -0.2274  0.0169 -0.1947
19942SOL    HW163228   6.660   1.568  10.579 -1.8060 -0.8016 -0.1073
19942SOL    HW263229   6.650   1.427  10.525  2.0021 -0.3824 -2.2220
19943SOL     OW63230   2.405   0.284   6.533  0.5051  0.6681  0.4026
19943SOL    HW163231   2.464   0.267   6.606  0.8832  0.5359  0.0685
19943SOL    HW263232   2.344   0.351   6.566  0.0820 -0.0691  1.1510
19944SOL     OW63233   7.811   0.991   2.537 -0.5507 -0.0721 -0.4551
19944SOL    HW163234   7.751   0.996   2.463 -0.5758  1.0804 -0.3754
19944SOL    HW263235   7.843   1.081   2.548 -0.1154 -0.3412  0.5763
19945SOL     OW63236   3.672  10.542   4.441  0.3218  0.1484  0.3843
19945SOL    HW163237   3.601  10.478   4.436 -0.3876  0.9463  0.0230
19945SOL    HW263238   3.627  10.625   4.459  1.0388  0.8955 -1.1469
19946SOL     OW63239   5.552   2.529   5.624 -0.3716 -0.0714  0.0432
19946SOL    HW163240   5.565   2.434   5.633  0.5092  0.0591  0.2831
19946SOL    HW263241   5.599   2.552   5.544  0.3827  0.3235  0.5822
19947SOL     OW63242   4.549   9.354   5.293 -0.4735 -0.4046 -0.1862
19947SOL    HW163243   4.501   9.434   5.314 -0.3140 -0.2583 -0.3777
19947SOL    HW263244   4.521   9.291   5.360  0.0662  0.0637  0.4966
19948SOL     OW63245   5.231   8.800   9.969  0.0759 -0.9394  0.2874
19948SOL    HW163246   5.189   8.723  10.006 -0.9470 -0.2742  0.5356
19948SOL    HW263247   5.291   8.765   9.902 -1.1859 -1.8830 -0.3942
19949SOL     OW63248   0.977   6.293   2.467 -0.1701  0.7969  0.0376
19949SOL    HW163249   0.939   6.375   2.436  1.9259  2.3471  1.2819
19949SOL    HW263250   0.919   6.265   2.537 -0.7805  1.3550 -0.2313
19950SOL     OW63251   8.136   2.873   1.501 -0.6589  0.1757 -0.1607
19950SOL    HW163252   8.066   2.813   1.527 -1.1683  0.3926 -1.0036
19950SOL    HW263253   8.108   2.959   1.535 -1.1700  0.3997 -1.1261
19951SOL     OW63254   1.273   9.629   5.327 -0.2013  0.5212 -0.0766
19951SOL    HW163255   1.238   9.617   5.415 -0.7681  0.5093 -0.2988
19951SOL    HW263256   1.206   9.680   5.282 -0.4308 -0.3998 -0.8189
19952SOL     OW63257   9.310   7.076   8.979 -0.2403  0.3013 -0.2406
19952SOL    HW163258   9.250   7.088   8.905 -0.6182 -1.6324 -0.2929
19952SOL    HW263259   9.382   7.024   8.943 -0.8950 -1.4908  0.9211
19953SOL     OW63260   3.961  10.831   4.570  0.0643  0.5627  0.9440
19953SOL    HW163261   3.962  10.812   4.476 -0.7541  0.6316  0.9136
19953SOL    HW263262   3.933  10.923   4.576  0.2281  0.5938  1.2520
19954SOL     OW63263   7.096   5.251   2.739  0.5529  0.2901 -0.1245
19954SOL    HW163264   7.013   5.299   2.742  0.6966  0.7381 -1.8742
19954SOL    HW263265   7.157   5.306   2.788  0.3241  1.1035 -0.7211
19955SOL     OW63266   7.570   9.757   9.793 -0.2979  0.4264  0.1589
19955SOL    HW163267   7.600   9.669   9.773  0.0217  0.4407  0.5592
19955SOL    HW263268   7.546   9.754   9.886  0.2129  0.8885  0.3156
19956SOL     OW63269  10.503  10.003   9.928  0.5972  0.5327 -0.4860
19956SOL    HW163270  10.431  10.059   9.900  0.0081 -0.1295 -0.3496
19956SOL    HW263271  10.472   9.965  10.011  0.3861 -1.0165 -1.2275
19957SOL     OW63272   4.428   1.425   4.248  0.2162 -0.6462 -0.3381
19957SOL    HW163273   4.348   1.477   4.242  0.3369 -0.5943 -1.8368
19957SOL    HW263274   4.399   1.335   4.235  0.4111 -0.6125 -1.0371
19958SOL     OW63275   5.888   5.742   2.597  0.7388  0.3800 -0.1445
19958SOL    HW163276   5.802   5.737   2.640 -0.1231 -0.2117 -1.8419
19958SOL    HW263277   5.881   5.683   2.522  2.6209  0.3892 -0.3693
19959SOL     OW63278   4.141   3.276   0.576  0.1901  0.2402  0.2681
19959SOL    HW163279   4.075   3.322   0.628  0.2853  1.4959 -0.6559
19959SOL    HW263280   4.219   3.274   0.632 -0.0194  0.6158  0.5807
19960SOL     OW63281   5.846   9.099   5.832 -0.2792  0.4225 -0.4107
19960SOL    HW163282   5.930   9.067   5.797 -0.3919 -0.8934  0.4632
19960SOL    HW263283   5.819   9.032   5.894 -1.5774  1.2530 -0.0483
19961SOL     OW63284  10.125   8.462   9.084 -0.0333  0.2742 -0.1267
19961SOL    HW163285  10.212   8.428   9.106 -0.1379 -1.3469 -1.9711
19961SOL    HW263286  10.100   8.513   9.160  1.1779 -1.8927  1.8682
19962SOL     OW63287   0.886   2.947  10.370 -0.4966 -0.6138 -0.1123
19962SOL    HW163288   0.864   2.956  10.462 -0.5736 -0.0072 -0.1868
19962SOL    HW263289   0.842   3.021  10.327 -1.2919 -1.4553 -0.7815
19963SOL     OW63290  10.880   1.440   1.434 -0.0954 -0.6059  0.0581
19963SOL    HW163291  10.881   1.348   1.461  3.7853 -0.9441 -0.5610
19963SOL    HW263292  10.891   1.437   1.339 -0.3450  0.5175 -0.0230
19964SOL     OW63293   1.603   7.724   8.906 -0.4950 -0.0845 -0.1881
19964SOL    HW163294   1.522   7.680   8.878  0.6154 -1.9647 -0.6306
19964SOL    HW263295   1.666   7.653   8.917  2.1116  1.4942 -3.1651
19965SOL     OW63296   5.287   3.636   7.943  0.3951  0.2651  0.2279
19965SOL    HW163297   5.230   3.589   8.004  0.2535  0.9791  0.6473
19965SOL    HW263298   5.340   3.693   7.997 -0.1289  1.3265 -0.3520
19966SOL     OW63299   6.925   8.331   1.697 -0.3753 -0.1917  0.5563
19966SOL    HW163300   6.841   8.285   1.701 -0.4805  0.0313  0.9316
19966SOL    HW263301   6.990   8.261   1.698 -0.5547 -0.5646 -2.5819
19967SOL     OW63302  10.499   0.033   7.958 -0.3563 -0.0923 -0.2848
19967SOL    HW163303  10.516   0.075   7.874 -0.5081  1.8041  0.5593
19967SOL    HW263304  10.554  -0.045   7.959  0.9262  0.7590 -1.4577
19968SOL     OW63305   5.066   0.346   4.659  0.6951 -0.0214 -0.2080
19968SOL    HW163306   5.005   0.272   4.661  0.4477  0.1837 -0.0162
19968SOL    HW263307   5.098   0.350   4.569  0.5867 -0.2619 -0.2561
19969SOL     OW63308   5.961   1.266   8.607  0.5193 -0.1636 -0.8416
19969SOL    HW163309   6.023   1.241   8.676 -0.4863  1.9671  0.9746
19969SOL    HW263310   6.006   1.335   8.558  0.4818 -0.2860 -1.0489
19970SOL     OW63311   9.646   2.602   1.213 -0.1045 -0.5210  0.2652
19970SOL    HW163312   9.684   2.660   1.147  0.0003 -0.4043  0.4262
19970SOL    HW263313   9.717   2.588   1.276 -0.6573  0.6572  1.2035
19971SOL     OW63314   9.109   8.184  10.874 -0.3191  0.5343 -0.3160
19971SOL    HW163315   9.073   8.267  10.904  1.5892  1.1357  0.4503
19971SOL    HW263316   9.151   8.205  10.791  2.4976  1.0353  1.1204
19972SOL     OW63317   8.005   5.482   3.434 -0.4001 -0.1539 -0.3561
19972SOL    HW163318   7.989   5.528   3.516  0.4799 -0.0863 -0.2153
19972SOL    HW263319   7.922   5.439   3.415 -1.0553  0.9840 -0.1774
19973SOL     OW63320   5.598   9.261   6.058 -0.1258  0.3230 -0.3618
19973SOL    HW163321   5.570   9.185   6.007  2.5359  1.4749 -3.8924
19973SOL    HW263322   5.529   9.326   6.044  0.3638  0.4742 -2.2983
19974SOL     OW63323   4.990  10.305   9.414 -0.3223  0.4673 -0.4700
19974SOL    HW163324   5.051  10.234   9.394  0.0913  0.9984 -1.1430
19974SOL    HW263325   4.936  10.271   9.485 -0.4868 -0.7250 -1.1443
19975SOL     OW63326   6.137   8.632   1.591  0.8595 -0.7125  0.0109
19975SOL    HW163327   6.126   8.570   1.663  0.9693 -1.9229 -0.9826
19975SOL    HW263328   6.191   8.702   1.628 -0.8504 -0.1780  1.7340
19976SOL     OW63329   3.935   7.333   9.584 -0.4981  0.0063 -0.4024
19976SOL    HW163330   3.871   7.339   9.655  0.2485 -0.7517  0.3596
19976SOL    HW263331   3.886   7.294   9.512 -0.4973 -2.3458  0.7662
19977SOL     OW63332   0.920   6.816   4.753 -0.1623 -0.4888 -0.0173
19977SOL    HW163333   1.012   6.822   4.727 -0.3389 -2.5530 -1.2998
19977SOL    HW263334   0.883   6.902   4.730  1.2834  0.1478 -0.0519
19978SOL     OW63335   6.260   4.378   8.130 -0.7890 -0.2951  0.4155
19978SOL    HW163336   6.273   4.287   8.102 -0.4602  0.0648 -0.6281
19978SOL    HW263337   6.317   4.387   8.206 -1.0848 -1.0560  0.7438
19979SOL     OW63338   8.350   6.594   1.532 -0.3398 -0.1431  0.8018
19979SOL    HW163339   8.310   6.589   1.618 -2.6735 -1.1714 -0.2499
19979SOL    HW263340   8.431   6.644   1.546 -0.9219  0.2214  3.4401
19980SOL     OW63341   2.023   0.633   8.890 -0.0278  0.3423  0.3167
19980SOL    HW163342   1.978   0.668   8.966  0.7488  3.7513 -0.6482
19980SOL    HW263343   2.013   0.700   8.822  1.4475 -1.4126 -1.7967
19981SOL     OW63344   5.893   9.593  10.534  0.5568  0.8542  0.1846
19981SOL    HW163345   5.884   9.511  10.583 -0.0195  0.5090 -0.4725
19981SOL    HW263346   5.976   9.584  10.487 -0.4004 -0.2321 -1.4144
19982SOL     OW63347   7.010   1.733   3.075 -0.0433  0.1354 -0.2066
19982SOL    HW163348   7.071   1.663   3.051 -0.1680  0.3037 -1.0248
19982SOL    HW263349   7.063   1.812   3.073  0.2458  0.0112  1.3167
19983SOL     OW63350   6.126  10.293   6.625  0.0141  0.2207 -0.1095
19983SOL    HW163351   6.126  10.296   6.720  3.1739 -3.0868  0.2005
19983SOL    HW263352   6.178  10.369   6.599  0.3169  0.3677  0.8915
19984SOL     OW63353   9.007   2.384   9.605 -0.0870 -0.0593  0.1346
19984SOL    HW163354   9.029   2.386   9.698  2.0189 -1.6400 -0.2584
19984SOL    HW263355   8.924   2.337   9.600  0.2858 -0.8498  1.1549
19985SOL     OW63356  10.239   2.893   8.526 -1.2104  0.0050  0.1403
19985SOL    HW163357  10.167   2.845   8.484 -1.8008  0.8666  0.1356
19985SOL    HW263358  10.216   2.893   8.619 -0.7939 -0.4130  0.2458
19986SOL     OW63359   9.661   4.446   1.653 -0.7466 -0.5178  0.5076
19986SOL    HW163360   9.715   4.486   1.722  1.1668 -0.2947 -1.0207
19986SOL    HW263361   9.596   4.512   1.632  0.6539  0.7503 -0.0555
19987SOL     OW63362   0.266   5.774   8.658 -0.0641 -0.2038 -0.3525
19987SOL    HW163363   0.172   5.772   8.672 -0.1034 -0.8097 -0.6409
19987SOL    HW263364   0.277   5.813   8.571 -0.1812 -1.9347 -1.1851
19988SOL     OW63365   1.419   2.208   8.503 -0.1620 -0.1422 -0.7262
19988SOL    HW163366   1.408   2.295   8.541 -0.1852 -0.6459  0.4512
19988SOL    HW263367   1.444   2.225   8.412  0.2235  1.0885 -0.4103
19989SOL     OW63368  10.702   5.743   1.047 -0.0032 -0.2076  0.6001
19989SOL    HW163369  10.762   5.800   0.999 -0.3509 -1.8342 -1.9593
19989SOL    HW263370  10.759   5.677   1.087  0.1141 -0.2041  0.4395
19990SOL     OW63371   9.552   6.197   4.283  0.4932 -0.4988  0.5972
19990SOL    HW163372   9.466   6.228   4.310 -0.0463 -1.1470 -0.3080
19990SOL    HW263373   9.588   6.155   4.361  0.7335  1.2705  1.4865
19991SOL     OW63374   8.291   1.763   3.387 -0.1328 -0.2439  0.0493
19991SOL    HW163375   8.268   1.676   3.357 -3.6228  0.6095 -0.2265
19991SOL    HW263376   8.254   1.769   3.475 -0.2344  1.0294 -0.0530
19992SOL     OW63377   4.254   9.066   4.278  0.4740 -0.1150  0.4155
19992SOL    HW163378   4.301   9.095   4.356  1.0332 -1.5869  0.6621
19992SOL    HW263379   4.198   8.995   4.309 -0.2893  0.1685 -0.2827
19993SOL     OW63380   1.328   0.923   2.185 -0.2209 -0.3885 -0.0140
19993SOL    HW163381   1.397   0.858   2.176 -0.5882 -1.1819  2.3668
19993SOL    HW263382   1.375   1.006   2.197  0.4386 -1.0386  2.5329
19994SOL     OW63383   6.816   3.771  10.796  0.4299  0.9231 -0.1640
19994SOL    HW163384   6.800   3.683  10.764  2.0633  0.6581 -0.3571
19994SOL    HW263385   6.730   3.803  10.825 -0.1504 -0.7912  0.0911
19995SOL     OW63386   2.968   8.373   5.909  0.0721 -0.3863  0.4759
19995SOL    HW163387   2.883   8.413   5.890  1.1776  1.8748 -0.0593
19995SOL    HW263388   2.959   8.336   5.997 -0.6573  2.3392  1.6312
19996SOL     OW63389   5.778   1.863   3.790  0.4973 -0.6078  1.1220
19996SOL    HW163390   5.812   1.934   3.845 -0.3445  0.2281  0.5925
19996SOL    HW263391   5.686   1.886   3.776  1.0253  0.0402 -1.8822
19997SOL     OW63392   8.696   5.034   1.900 -0.1223 -0.6176 -0.2167
19997SOL    HW163393   8.777   5.086   1.899 -0.3945 -0.0998  1.5504
19997SOL    HW263394   8.703   4.980   1.978 -0.4227 -2.3830 -1.3627
19998SOL     OW63395   8.070   5.191   1.046  0.5004  0.5386 -0.0143
19998SOL    HW163396   8.009   5.260   1.019  1.3669  1.5338  0.4790
19998SOL    HW263397   8.106   5.223   1.128 -0.2022 -1.2412  1.0363
19999SOL     OW63398   2.916   3.527   4.220 -0.1623  0.2703  0.4655
19999SOL    HW163399   2.998   3.479   4.232 -1.1797 -1.2816  1.6298
19999SOL    HW263400   2.854   3.461   4.188 -1.8874  0.4773  3.1108
20000SOL     OW63401   4.356   7.210   0.998  0.6218  0.4787 -0.0172
20000SOL    HW163402   4.405   7.250   1.069 -0.7340  0.2266  1.1054
20000SOL    HW263403   4.299   7.147   1.040  1.2992 -1.2591 -1.5593
20001SOL     OW63404   0.567   4.222   0.987 -0.1322  0.2793  0.1153
20001SOL    HW163405   0.649   4.174   0.977 -0.0075  0.6134 -0.5114
20001SOL    HW263406   0.570   4.256   1.076 -0.1017 -0.6424  0.4738
20002SOL     OW63407   4.439   1.394   5.662  0.4068 -0.0079  0.3130
20002SOL    HW163408   4.527   1.360   5.672 -0.4658 -1.7713  2.8465
20002SOL    HW263409   4.401   1.342   5.590  0.9401 -0.3108  0.2503
20003SOL     OW63410   4.447   7.830   2.139 -0.1565  0.3957 -0.2325
20003SOL    HW163411   4.495   7.846   2.057  0.9367  1.6073  0.6088
20003SOL    HW263412   4.500   7.872   2.206 -1.3693 -0.0291  1.0254
20004SOL     OW63413   6.883   7.537   3.453 -0.0389  0.1995 -0.2905
20004SOL    HW163414   6.810   7.502   3.403 -0.2105 -1.5634  1.0946
20004SOL    HW263415   6.858   7.525   3.545  2.1287 -0.8370  0.2269
20005SOL     OW63416   0.859   3.393   9.399  0.2643  0.3634 -0.0546
20005SOL    HW163417   0.766   3.397   9.420  0.4597  1.3549  0.7257
20005SOL    HW263418   0.861   3.366   9.307 -0.7629 -0.2512  0.0851
20006SOL     OW63419   7.503   1.993   6.196  0.0023  0.0416 -0.2589
20006SOL    HW163420   7.435   2.038   6.145 -0.2328 -1.3811 -1.2522
20006SOL    HW263421   7.500   1.902   6.166  1.2729 -0.3966  0.8332
20007SOL     OW63422   1.334   0.671   8.771  0.1531  0.3178  0.2803
20007SOL    HW163423   1.344   0.578   8.793 -0.0660  0.4624  1.0139
20007SOL    HW263424   1.417   0.710   8.797 -0.6687  0.7745  2.4429
20008SOL     OW63425   2.510   1.670  10.424  0.3008 -0.5210  0.4013
20008SOL    HW163426   2.589   1.680  10.369 -0.4025  2.4365 -0.2629
20008SOL    HW263427   2.542   1.683  10.513  0.8452 -1.3223  0.3341
20009SOL     OW63428   3.961   5.182   7.700 -0.1974  0.0902  0.5272
20009SOL    HW163429   3.965   5.256   7.760 -0.0132  0.2669  0.2976
20009SOL    HW263430   4.043   5.135   7.713  1.2350  1.7583 -1.6646
20010SOL     OW63431  10.631   7.264   5.175 -0.0293  0.2280  0.3161
20010SOL    HW163432  10.706   7.313   5.142  0.5005 -0.8641 -0.1198
20010SOL    HW263433  10.596   7.218   5.099 -0.0355 -0.7087  0.8730
20011SOL     OW63434   8.621   5.993   8.350  0.5362 -0.2412  0.5478
20011SOL    HW163435   8.633   5.917   8.294  1.4880  0.6251 -0.4753
20011SOL    HW263436   8.624   6.068   8.290  1.6816  0.7323  1.7538
20012SOL     OW63437   9.688   4.931   0.053 -0.1292 -0.3228 -0.1964
20012SOL    HW163438   9.673   4.982  -0.027 -0.5281 -0.6183 -0.3123
20012SOL    HW263439   9.759   4.871   0.031 -0.3248 -0.4927 -0.3732
20013SOL     OW63440   9.917   6.325  10.209 -0.8523  0.2491 -0.7157
20013SOL    HW163441   9.943   6.389  10.276 -0.4503 -0.6181 -0.0052
20013SOL    HW263442   9.981   6.254  10.219 -1.6421 -0.5277 -1.0788
20014SOL     OW63443  10.349   5.829   1.418 -0.3380 -0.2120 -0.2588
20014SOL    HW163444  10.412   5.833   1.346  0.8424  0.6131  0.7782
20014SOL    HW263445  10.347   5.737   1.444 -0.6345 -0.4844 -1.2094
20015SOL     OW63446   1.657   4.342   9.617  0.2998 -0.0924 -0.2576
20015SOL    HW163447   1.606   4.419   9.643  0.7255 -0.6321  2.4189
20015SOL    HW263448   1.606   4.268   9.649  1.3653 -0.7735 -0.1079
20016SOL     OW63449   3.598   3.782   7.471 -0.5231 -0.2543  0.5741
20016SOL    HW163450   3.608   3.724   7.395  0.1312 -1.3038  1.4280
20016SOL    HW263451   3.662   3.852   7.457  0.1439 -0.8620  0.5226
20017SOL     OW63452   3.089  10.042   2.919 -0.1043 -0.7302 -0.1226
20017SOL    HW163453   3.149   9.973   2.947 -0.1464 -0.0847  1.7271
20017SOL    HW263454   3.064  10.086   3.001  0.2012  1.6808 -1.2369
20018SOL     OW63455   5.298   3.910   9.109 -0.1147  0.0620  0.1661
20018SOL    HW163456   5.249   3.837   9.071  2.7997 -1.9208 -0.1939
20018SOL    HW263457   5.348   3.870   9.180  1.1185  1.8474  0.3682
20019SOL     OW63458   7.714  10.806   6.561 -0.3632 -0.2722  0.2678
20019SOL    HW163459   7.775  10.812   6.487 -0.2893 -1.9803  0.1452
20019SOL    HW263460   7.771  10.796   6.638 -0.4588  0.2830  0.4111
20020SOL     OW63461   3.447   6.826   1.991 -0.3701 -0.3410 -0.0888
20020SOL    HW163462   3.416   6.793   2.075  0.9559 -0.8933  0.2084
20020SOL    HW263463   3.517   6.887   2.013  0.1481 -0.6601 -0.7793
20021SOL     OW63464   4.032   3.520   1.686  0.0433  0.0477 -0.8038
20021SOL    HW163465   4.070   3.514   1.599  2.1357  0.6314  0.0180
20021SOL    HW263466   4.029   3.429   1.717 -0.4441 -0.1310 -1.3578
20022SOL     OW63467  10.728   7.430   8.225 -0.3896  0.3713  0.3132
20022SOL    HW163468  10.809   7.480   8.214  1.3266 -2.6391 -1.9606
20022SOL    HW263469  10.727   7.408   8.318  0.9258  1.1880  0.5544
20023SOL     OW63470   1.299   2.642   8.321 -0.5701  0.0308  0.1179
20023SOL    HW163471   1.367   2.595   8.271 -1.2116 -2.6304  1.5442
20023SOL    HW263472   1.347   2.711   8.366  1.5712 -2.4609  1.9978
20024SOL     OW63473   8.166   0.058   0.900  0.7098  0.6806  0.6459
20024SOL    HW163474   8.191   0.141   0.860  1.7877 -0.9169 -2.2981
20024SOL    HW263475   8.246   0.025   0.940  0.1349  1.2514  2.3983
20025SOL     OW63476   8.859   8.178   4.910  0.0739 -0.7892 -0.8585
20025SOL    HW163477   8.953   8.174   4.926  0.1750 -0.7668 -1.4467
20025SOL    HW263478   8.825   8.233   4.981  0.5115 -0.7285 -0.6933
20026SOL     OW63479   9.352   4.561   8.283  0.2322 -0.2434  0.6867
20026SOL    HW163480   9.311   4.475   8.290  1.1955 -0.9475 -1.5732
20026SOL    HW263481   9.341   4.600   8.370  1.0194 -3.2062  2.2364
20027SOL     OW63482   4.029   3.726   3.947  0.1550 -0.2570  0.0506
20027SOL    HW163483   4.071   3.644   3.976 -0.4153 -0.5260  0.1219
20027SOL    HW263484   4.084   3.756   3.875 -1.0955 -2.1101 -1.7865
20028SOL     OW63485   0.450   7.919   0.097 -0.2134  0.3564 -0.2085
20028SOL    HW163486   0.466   7.854   0.165 -1.2839 -0.1327 -0.3986
20028SOL    HW263487   0.357   7.908   0.075  0.2133  0.1759 -2.0839
20029SOL     OW63488   5.133   6.973   4.168 -0.6401 -0.3411 -0.3528
20029SOL    HW163489   5.135   7.005   4.078 -0.2360 -2.0746 -1.0055
20029SOL    HW263490   5.158   7.048   4.221 -0.1657  0.5192 -1.7452
20030SOL     OW63491   0.668   8.420  10.452 -0.4752  0.6738 -0.4551
20030SOL    HW163492   0.630   8.393  10.368 -0.9526 -0.8807  0.2338
20030SOL    HW263493   0.650   8.348  10.511  1.2728  1.0456  0.5913
20031SOL     OW63494   1.364   8.374   0.296  0.1676  0.2160 -0.0802
20031SOL    HW163495   1.357   8.290   0.342 -3.4307  0.3960  0.0077
20031SOL    HW263496   1.363   8.440   0.365 -0.0690  0.3818 -0.2404
20032SOL     OW63497   1.003   8.774   4.551 -0.1097  0.4917 -0.3637
20032SOL    HW163498   0.919   8.747   4.514  0.4859  0.2834 -1.5948
20032SOL    HW263499   1.068   8.720   4.506  0.9755  2.7585 -1.6501
20033SOL     OW63500   7.277   3.883   1.901  0.7056  0.2834 -0.4399
20033SOL    HW163501   7.307   3.973   1.907 -0.0955  0.5406 -0.2815
20033SOL    HW263502   7.330   3.835   1.965  1.4243  0.5494 -0.8168
20034SOL     OW63503   7.251   9.679   9.311  0.0174 -0.0223  0.1678
20034SOL    HW163504   7.193   9.631   9.370  1.3767 -0.0448  1.5303
20034SOL    HW263505   7.274   9.615   9.243  0.1356 -0.6782  0.8082
20035SOL     OW63506   7.112   3.124   8.429  0.4301  0.1494 -0.3480
20035SOL    HW163507   7.027   3.094   8.461 -0.0865 -0.4763 -2.1901
20035SOL    HW263508   7.165   3.134   8.508 -0.3700 -2.5313  0.6343
20036SOL     OW63509   5.842   6.044  10.772  0.2500 -0.2411 -0.0971
20036SOL    HW163510   5.774   5.979  10.789 -0.7444  0.5727 -0.9065
20036SOL    HW263511   5.890   6.050  10.856  1.2972 -3.0084 -0.3866
20037SOL     OW63512   2.130   2.135   2.484  0.3876  0.0625  0.2018
20037SOL    HW163513   2.178   2.172   2.410 -0.9575 -2.2125 -1.9695
20037SOL    HW263514   2.158   2.043   2.487  1.1817  0.2904  3.2804
20038SOL     OW63515  10.343   1.518  10.383 -0.3113 -0.6203  0.1493
20038SOL    HW163516  10.328   1.548  10.293 -1.3444 -0.3071  0.4070
20038SOL    HW263517  10.328   1.424  10.380  0.9630 -0.8285 -0.2596
20039SOL     OW63518   1.277  10.092   8.737  0.0309  0.0402  0.6104
20039SOL    HW163519   1.229  10.012   8.759 -1.1390  0.5274 -0.1070
20039SOL    HW263520   1.270  10.099   8.642  1.2296  0.3188  0.5315
20040SOL     OW63521  10.305   3.193   6.639  0.0988  0.0758  0.0626
20040SOL    HW163522  10.250   3.177   6.715 -1.1791 -0.2186 -0.8794
20040SOL    HW263523  10.323   3.287   6.641  1.9868 -0.2755  1.9374
20041SOL     OW63524   1.631   7.880  10.642 -0.3131 -0.3870  0.2000
20041SOL    HW163525   1.549   7.918  10.610  0.6776  2.0200  0.2893
20041SOL    HW263526   1.628   7.894  10.737 -0.4041 -1.6387  0.4052
20042SOL     OW63527  10.135   6.576   3.580 -0.1536  0.2382  0.1387
20042SOL    HW163528  10.119   6.500   3.635 -2.3725 -0.1259 -0.9001
20042SOL    HW263529  10.206   6.623   3.624  2.6409 -3.2913 -0.1156
20043SOL     OW63530   5.605   2.151   7.130 -0.1125  0.1995 -0.2204
20043SOL    HW163531   5.670   2.101   7.080 -0.4231  0.0866 -0.5179
20043SOL    HW263532   5.656   2.202   7.192  0.2036 -0.7402  0.3220
20044SOL     OW63533   5.652   2.064   0.907  0.0348  0.4906  0.0294
20044SOL    HW163534   5.623   2.014   0.983 -0.9646  1.1191  0.0744
20044SOL    HW263535   5.716   2.007   0.864 -0.4810 -0.4903  0.5253
20045SOL     OW63536   6.543   7.889   3.428  0.0096 -0.1357  0.1999
20045SOL    HW163537   6.550   7.920   3.519 -1.2852 -0.1551  0.3166
20045SOL    HW263538   6.595   7.951   3.378 -0.2291  0.5722  0.8091
20046SOL     OW63539  10.656   9.464   0.717  0.0776 -0.4336  0.1255
20046SOL    HW163540  10.634   9.555   0.737 -0.6610 -0.9267  1.7628
20046SOL    HW263541  10.626   9.415   0.793  1.2034 -1.9646 -0.3610
20047SOL     OW63542   8.087   0.072   3.621  0.2583  0.4399  0.1808
20047SOL    HW163543   8.062   0.015   3.549  3.4226 -1.0804  0.1256
20047SOL    HW263544   8.019   0.058   3.687  0.1980 -2.4248 -0.3674
20048SOL     OW63545   4.987   2.493   8.731 -0.5187  0.6322 -0.0278
20048SOL    HW163546   4.925   2.473   8.801 -0.1396 -0.2572  0.0625
20048SOL    HW263547   4.939   2.551   8.672 -0.6075  2.0397  1.3446
20049SOL     OW63548  10.317   7.559   2.401 -0.4746 -0.0183 -0.3801
20049SOL    HW163549  10.270   7.565   2.483  1.2877 -0.7799  0.7652
20049SOL    HW263550  10.286   7.633   2.349 -1.8080  0.3303  0.8535
20050SOL     OW63551   0.401  10.424   4.160 -0.0119 -0.0159  0.0876
20050SOL    HW163552   0.478  10.427   4.216  0.8897 -0.1809 -1.0969
20050SOL    HW263553   0.429  10.376   4.082 -1.3123 -0.0843 -0.3716
20051SOL     OW63554   8.473   4.318  10.159 -0.0858  0.0556 -0.0724
20051SOL    HW163555   8.455   4.237  10.113 -0.5848 -1.2357  2.2462
20051SOL    HW263556   8.564   4.311  10.187  0.0392  0.5533 -0.3443
20052SOL     OW63557   8.674   1.730   1.334  0.3655 -0.0613 -0.1006
20052SOL    HW163558   8.598   1.672   1.333  0.7492 -0.6787  1.9226
20052SOL    HW263559   8.640   1.814   1.365  0.4582 -0.2647  0.5565
20053SOL     OW63560   5.539   6.967   4.429 -0.3812  0.2185  0.0906
20053SOL    HW163561   5.609   6.906   4.449  0.0649  0.4233 -0.8073
20053SOL    HW263562   5.461   6.927   4.467 -0.1991 -1.1815 -0.9281
20054SOL     OW63563  10.679  10.590   0.502  0.8948  0.1040  0.0997
20054SOL    HW163564  10.687  10.557   0.592  0.5560  1.4085  0.6285
20054SOL    HW263565  10.770  10.607   0.475  0.9228  0.8714  0.6545
20055SOL     OW63566   3.777   7.348   6.112  0.7049  0.6374  0.1133
20055SOL    HW163567   3.799   7.272   6.059 -0.1063  1.8113 -2.0545
20055SOL    HW263568   3.742   7.312   6.193  1.8115 -1.2570 -0.2033
20056SOL     OW63569   3.474   7.958   0.576  0.1245  0.0934  0.2775
20056SOL    HW163570   3.406   8.001   0.628  1.2147  0.8250  1.1392
20056SOL    HW263571   3.551   8.013   0.588  0.7004 -0.3434 -1.2349
20057SOL     OW63572   9.294   6.288   0.093  0.5011 -0.5126  0.1384
20057SOL    HW163573   9.284   6.380   0.069  0.4989 -0.6393 -0.3537
20057SOL    HW263574   9.352   6.251   0.026  0.7658 -0.7940  0.5171
20058SOL     OW63575   5.418   4.882   6.812 -0.4291  0.2810  0.1174
20058SOL    HW163576   5.343   4.922   6.769  0.1823  1.3583  0.0138
20058SOL    HW263577   5.402   4.788   6.806 -1.1290  0.4597 -1.0464
20059SOL     OW63578   9.337   9.184   4.689  0.2618  0.4913 -0.2612
20059SOL    HW163579   9.314   9.157   4.600  1.0370  0.5434 -0.4817
20059SOL    HW263580   9.431   9.168   4.695  0.5880  2.2994 -0.0969
20060SOL     OW63581  10.698   9.502   2.833 -0.0558  0.4673 -1.0913
20060SOL    HW163582  10.754   9.431   2.865 -0.0678  1.5497  1.5717
20060SOL    HW263583  10.758   9.574   2.814 -0.3346  1.0471  0.1091
20061SOL     OW63584   1.144  10.554   8.065  0.1205 -0.4485 -0.2271
20061SOL    HW163585   1.056  10.577   8.036 -0.1270 -1.2215 -0.1167
20061SOL    HW263586   1.173  10.628   8.118 -0.7254 -0.4842  0.2974
20062SOL     OW63587   2.929  10.526   7.710 -0.5709 -0.3949 -0.2017
20062SOL    HW163588   2.967  10.544   7.624 -1.5408  0.5667 -0.4556
20062SOL    HW263589   3.001  10.540   7.771 -0.4370  1.1839 -0.6815
20063SOL     OW63590   3.288   5.752   4.784 -0.5054  0.2186  0.5028
20063SOL    HW163591   3.314   5.825   4.840  4.0322 -0.1527 -0.7860
20063SOL    HW263592   3.219   5.788   4.729 -0.9451  2.3564  2.2862
20064SOL     OW63593   2.129   4.398   7.975  0.8658 -0.1613  0.1629
20064SOL    HW163594   2.114   4.489   8.001 -1.6282 -0.7934  1.2453
20064SOL    HW263595   2.159   4.355   8.055 -0.0674 -0.6796  0.2599
20065SOL     OW63596   9.924   2.574   1.692 -0.0408 -0.4878 -0.5805
20065SOL    HW163597   9.861   2.639   1.659 -0.1978  0.0631  0.7281
20065SOL    HW263598   9.980   2.624   1.751 -1.3738 -1.8712  2.0021
20066SOL     OW63599   9.045   6.517   5.371 -0.0535 -0.2773  0.1357
20066SOL    HW163600   9.036   6.609   5.346  1.4980 -0.0679  0.2791
20066SOL    HW263601   9.033   6.468   5.290 -2.6171 -0.1037  0.3254
20067SOL     OW63602  10.408   7.368   9.190  0.6443  0.4130 -0.1517
20067SOL    HW163603  10.314   7.385   9.197  0.5304 -0.6620  1.3551
20067SOL    HW263604  10.425   7.368   9.096 -1.4652 -2.3469 -0.6479
20068SOL     OW63605   9.818   9.030   0.841 -0.4286 -0.2291 -0.2072
20068SOL    HW163606   9.821   9.126   0.842  0.2854 -0.1952 -2.1874
20068SOL    HW263607   9.769   9.008   0.763  1.0484 -1.4754 -0.8431
20069SOL     OW63608   7.556   5.854   5.979  0.1263 -0.1283 -0.1702
20069SOL    HW163609   7.489   5.786   5.966 -0.2646  0.2195 -0.0162
20069SOL    HW263610   7.547   5.912   5.903  1.5778 -1.1431 -1.1711
20070SOL     OW63611   3.424   2.184   8.535  0.3153  0.0315 -0.6144
20070SOL    HW163612   3.364   2.257   8.550  0.1561 -0.1727 -0.2548
20070SOL    HW263613   3.373   2.122   8.482  0.0835 -0.3082  0.0040
20071SOL     OW63614   0.942   2.519   9.467  0.4737  0.2838 -0.0373
20071SOL    HW163615   0.867   2.578   9.468  0.1999 -0.0448  1.0235
20071SOL    HW263616   1.011   2.567   9.513 -0.4208 -0.9631  2.8764
20072SOL     OW63617   9.796   0.579   6.206 -0.2781 -0.5897  1.1707
20072SOL    HW163618   9.764   0.610   6.121  2.4244  0.1331  0.3301
20072SOL    HW263619   9.748   0.497   6.221 -2.5291  0.4381  0.1273
20073SOL     OW63620   1.336   1.847   6.960  0.0217 -0.2712 -0.3851
20073SOL    HW163621   1.286   1.845   6.879 -0.8712 -0.3933  0.1557
20073SOL    HW263622   1.364   1.757   6.974 -2.7334 -1.0182  1.1670
20074SOL     OW63623   9.880   0.266   8.353  0.0308  0.2283 -0.1828
20074SOL    HW163624   9.815   0.319   8.308  0.0534 -0.5672 -1.1945
20074SOL    HW263625   9.870   0.179   8.314  0.8695 -0.1881  0.5174
20075SOL     OW63626   6.054   8.280   0.747  0.0259  0.6856 -0.1922
20075SOL    HW163627   6.093   8.193   0.750  1.8855  1.5023  0.3649
20075SOL    HW263628   6.062   8.308   0.656  1.5027  1.1629  0.0708
20076SOL     OW63629  10.705   5.664  10.296  0.0700  0.0483  0.2680
20076SOL    HW163630  10.661   5.597  10.245 -0.7801  1.3800 -0.8185
20076SOL    HW263631  10.797   5.637  10.296 -0.0830 -0.5812 -1.0565
20077SOL     OW63632   4.205   5.084   6.567 -0.2922 -0.8202  0.4667
20077SOL    HW163633   4.262   5.153   6.599 -0.4501  0.2348 -1.3711
20077SOL    HW263634   4.227   5.007   6.621  1.7368 -0.0443  0.8352
20078SOL     OW63635   0.945   1.998   8.482  0.3630  0.2758 -1.0745
20078SOL    HW163636   1.038   2.013   8.496  0.1534  0.2254  0.4997
20078SOL    HW263637   0.936   1.903   8.481  0.0325  0.2104  1.3384
20079SOL     OW63638   1.356   5.712   2.334 -0.6328  0.4909 -0.9040
20079SOL    HW163639   1.424   5.732   2.269 -0.6868  4.7431  0.0761
20079SOL    HW263640   1.401   5.661   2.401  1.0562  1.4072 -1.2944
20080SOL     OW63641   3.942   9.461  10.691  0.2679  0.0137 -0.3879
20080SOL    HW163642   4.017   9.496  10.739 -0.3715  0.6417  0.1883
20080SOL    HW263643   3.939   9.513  10.610 -0.5818  1.2304  0.3919
20081SOL     OW63644   4.975   5.222   1.682  0.4297  0.1370  0.1515
20081SOL    HW163645   4.974   5.283   1.756  2.1182 -0.3032  0.5822
20081SOL    HW263646   4.956   5.137   1.721  0.7940 -0.0175 -0.0043
20082SOL     OW63647   6.837   3.453   5.444  0.3043 -0.4217  0.3093
20082SOL    HW163648   6.786   3.375   5.464 -0.7164  0.4778  1.3836
20082SOL    HW263649   6.906   3.423   5.385  0.0125 -2.1449  0.8030
20083SOL     OW63650   5.604   8.651   1.182  0.4274  0.3512  0.3188
20083SOL    HW163651   5.551   8.583   1.224  0.3176  0.7202  0.7901
20083SOL    HW263652   5.575   8.652   1.091  0.9931 -0.7855  0.1063
20084SOL     OW63653   9.600   7.121   1.233  0.1779  0.0011  0.4550
20084SOL    HW163654   9.515   7.079   1.219 -0.1887  1.2132 -1.3272
20084SOL    HW263655   9.649   7.060   1.288 -1.4343 -1.2601  0.5423
20085SOL     OW63656   0.380   4.852   4.076  0.1029  0.5109 -0.5002
20085SOL    HW163657   0.386   4.809   3.991 -3.1018 -0.3992 -0.3855
20085SOL    HW263658   0.413   4.787   4.138 -1.1909 -0.3947 -0.7158
20086SOL     OW63659   4.306   6.614   5.608  0.0996  1.1478  0.3300
20086SOL    HW163660   4.344   6.559   5.539  1.5798  0.9550  1.2392
20086SOL    HW263661   4.238   6.665   5.564 -0.6849 -0.7196 -0.7398
20087SOL     OW63662   3.708   4.813   0.054  0.0028 -0.3511  0.5570
20087SOL    HW163663   3.698   4.733   0.105 -4.8327  0.4525  1.3160
20087SOL    HW263664   3.689   4.787  -0.036 -2.5717 -0.0245  0.9469
20088SOL     OW63665   3.171   5.075   0.859 -0.3687  0.0672 -0.3396
20088SOL    HW163666   3.128   4.993   0.881 -1.2001  0.8226  1.0008
20088SOL    HW263667   3.105   5.125   0.811 -0.2134  0.3374 -0.2740
20089SOL     OW63668   5.239  10.512   1.636  0.1261  0.0663 -0.1219
20089SOL    HW163669   5.276  10.600   1.625 -2.4790  1.2427 -0.3460
20089SOL    HW263670   5.162  10.512   1.578 -0.7977 -1.8108  1.0338
20090SOL     OW63671   3.210   6.837   3.158 -0.2079 -0.3554 -0.3322
20090SOL    HW163672   3.226   6.869   3.247  0.7692 -2.9064  0.4822
20090SOL    HW263673   3.288   6.864   3.109 -0.6386  0.8396 -0.4021
20091SOL     OW63674   1.841   3.621   7.154  0.0073  0.0018  0.0542
20091SOL    HW163675   1.816   3.705   7.194 -0.0318 -0.2229  0.5078
20091SOL    HW263676   1.879   3.645   7.070  0.5555  0.5167  0.4411
20092SOL     OW63677   4.038   3.221   0.984  0.4611  0.2247 -0.0056
20092SOL    HW163678   4.051   3.287   0.916 -0.6382  0.4938  0.0306
20092SOL    HW263679   4.015   3.271   1.062 -1.6720 -0.2290 -0.2929
20093SOL     OW63680   3.737   0.718   7.483  0.8512 -0.2426  0.3505
20093SOL    HW163681   3.662   0.768   7.516  1.0968 -1.1226  2.4344
20093SOL    HW263682   3.743   0.741   7.391 -0.5314  1.6632  0.6736
20094SOL     OW63683  10.877   6.639   3.467 -0.4915  0.0425  0.0717
20094SOL    HW163684  10.841   6.654   3.554  2.6534  1.6928  1.2597
20094SOL    HW263685  10.947   6.576   3.480 -0.9191 -0.8268 -1.5785
20095SOL     OW63686   5.250   7.099   3.132  0.0362  0.1227 -0.3108
20095SOL    HW163687   5.231   7.147   3.052  0.9811  1.9708  0.5025
20095SOL    HW263688   5.167   7.095   3.179 -0.0886  0.8599 -0.4632
20096SOL     OW63689   1.595   4.716   3.574  0.1069  0.0608 -0.6559
20096SOL    HW163690   1.598   4.620   3.570 -0.3676  0.0064  0.0505
20096SOL    HW263691   1.547   4.735   3.655 -1.9367  0.8729 -1.9671
20097SOL     OW63692   2.067   3.049  10.494 -0.2244 -0.1521 -0.1072
20097SOL    HW163693   2.076   3.118  10.560 -1.0902 -0.1822  0.0542
20097SOL    HW263694   2.056   3.097  10.412  0.4110 -0.1142 -0.1802
20098SOL     OW63695  10.453   2.436   9.919  0.0207 -0.0835  0.0792
20098SOL    HW163696  10.417   2.375   9.854 -0.6890 -1.4157  1.6473
20098SOL    HW263697  10.546   2.416   9.920 -0.0582 -0.4776 -0.0963
20099SOL     OW63698   0.956   4.379   1.810  0.2460  0.0648  0.2821
20099SOL    HW163699   0.940   4.473   1.801  0.3171  0.2596  1.8226
20099SOL    HW263700   0.877   4.338   1.775  0.2443  0.6863 -0.4741
20100SOL     OW63701   2.264   4.186   2.342  0.4670 -0.0215  0.4670
20100SOL    HW163702   2.348   4.206   2.300 -0.1252  0.3759 -0.5683
20100SOL    HW263703   2.240   4.268   2.386 -0.0827  0.3607 -0.5042
20101SOL     OW63704   3.233   9.746   3.799  0.3348 -0.6359  0.0432
20101SOL    HW163705   3.183   9.828   3.797  1.2876  0.0800  2.3011
20101SOL    HW263706   3.183   9.688   3.857  1.1854 -0.5352  0.9061
20102SOL     OW63707   1.732   1.244   9.835 -0.1228 -0.0736 -0.7159
20102SOL    HW163708   1.759   1.219   9.923 -0.3949 -0.1222 -0.6459
20102SOL    HW263709   1.812   1.238   9.783  0.5902  2.3263  0.0081
20103SOL     OW63710  10.714   0.959   3.421 -0.2347 -0.0821  0.4856
20103SOL    HW163711  10.800   0.986   3.387 -1.3404  2.8711 -0.2441
20103SOL    HW263712  10.662   0.943   3.342 -0.7882 -0.4386  0.9164
20104SOL     OW63713   8.724   7.323   7.289  0.0892 -0.5761 -0.0015
20104SOL    HW163714   8.806   7.282   7.260  0.4397 -0.2443  0.4996
20104SOL    HW263715   8.732   7.414   7.261  0.1536 -0.4032  0.5699
20105SOL     OW63716   5.100   2.211   3.638 -0.2735 -0.2252  0.0279
20105SOL    HW163717   5.028   2.253   3.686  0.7023  2.2157 -0.5150
20105SOL    HW263718   5.064   2.195   3.551  0.2795  2.6401 -0.8118
20106SOL     OW63719   7.635   7.213   9.131 -0.5227  0.6843 -0.3154
20106SOL    HW163720   7.556   7.211   9.185 -1.6748  0.8168 -1.9187
20106SOL    HW263721   7.646   7.123   9.101  0.1543  0.5981  0.1522
20107SOL     OW63722   1.739   0.495   2.820  0.2242  0.2809 -0.1891
20107SOL    HW163723   1.651   0.508   2.784 -0.2076 -0.2891  0.6461
20107SOL    HW263724   1.786   0.575   2.795  0.4407 -0.6991 -3.3753
20108SOL     OW63725   2.341   2.075   0.361 -0.1188  0.2866  0.1489
20108SOL    HW163726   2.348   1.983   0.390  0.1396  0.3063  0.1574
20108SOL    HW263727   2.418   2.087   0.305 -1.2426 -0.1086 -1.5455
20109SOL     OW63728   3.780   0.443   3.969 -0.0239  0.0243 -0.1021
20109SOL    HW163729   3.822   0.529   3.977  0.5639 -0.2850  0.2594
20109SOL    HW263730   3.761   0.434   3.876 -0.5102  0.7383 -0.0807
20110SOL     OW63731   7.966   4.024   4.932  0.3939 -0.5296  0.2823
20110SOL    HW163732   8.041   4.036   4.990 -0.1610  2.6396  0.5359
20110SOL    HW263733   7.890   4.025   4.990 -0.0172 -0.2830 -0.2489
20111SOL     OW63734   3.482   1.227  10.027 -0.3587  0.7200  0.2314
20111SOL    HW163735   3.467   1.273   9.945 -0.2055 -0.8441 -0.7192
20111SOL    HW263736   3.395   1.213  10.064 -0.5734  0.0052 -0.5085
20112SOL     OW63737   3.885  10.810   0.684  0.1237  0.2622 -0.3313
20112SOL    HW163738   3.922  10.792   0.770 -0.0520 -0.2920 -0.3661
20112SOL    HW263739   3.878  10.724   0.642 -0.9927  0.3704 -0.4058
20113SOL     OW63740  10.334   6.487   3.776  0.5225 -0.3529  0.4862
20113SOL    HW163741  10.408   6.513   3.722  1.0422  2.5252  2.3525
20113SOL    HW263742  10.324   6.559   3.839 -3.4898 -0.8805  0.7091
20114SOL     OW63743  10.628  10.236   8.822  0.4320  0.4023 -0.3160
20114SOL    HW163744  10.544  10.242   8.867 -0.2028 -0.1614 -1.3838
20114SOL    HW263745  10.644  10.142   8.813  1.0751  0.5065 -0.3139
20115SOL     OW63746   7.584   4.337   6.270  0.4306  0.3811 -0.6531
20115SOL    HW163747   7.509   4.278   6.270 -0.2121  1.1366  1.2773
20115SOL    HW263748   7.615   4.336   6.179 -1.7664 -0.1139 -1.4520
20116SOL     OW63749   2.266   7.423   0.673  0.6337 -0.1933  0.1067
20116SOL    HW163750   2.265   7.470   0.757  0.4270 -1.4151  0.8173
20116SOL    HW263751   2.342   7.365   0.679 -0.6014 -1.8855  0.4066
20117SOL     OW63752   4.165   4.039   1.273  0.4545  0.0808 -0.2595
20117SOL    HW163753   4.084   3.992   1.254  0.9139  0.5214 -4.0385
20117SOL    HW263754   4.234   3.984   1.235  1.4217  1.7790 -1.0512
20118SOL     OW63755   1.759   0.653   1.810  0.0153  0.0081 -0.0619
20118SOL    HW163756   1.722   0.608   1.886 -0.2628 -2.3844 -1.5085
20118SOL    HW263757   1.818   0.589   1.771  0.4290  1.3041 -1.6769
20119SOL     OW63758  10.453   3.540   1.605  0.5934  0.2484 -0.4270
20119SOL    HW163759  10.448   3.605   1.535  0.0905 -0.5840 -1.1871
20119SOL    HW263760  10.362   3.511   1.617  0.7129  0.2013  0.4031
20120SOL     OW63761   7.492   2.691   6.794 -0.4111 -0.5377 -0.1664
20120SOL    HW163762   7.499   2.642   6.712  0.1992 -0.2542 -0.2904
20120SOL    HW263763   7.420   2.649   6.841 -0.9111 -0.5700 -0.9403
20121SOL     OW63764   1.034   3.934   8.267  0.8467 -0.0890 -0.3388
20121SOL    HW163765   1.085   3.952   8.188  0.6221  0.2084 -0.4172
20121SOL    HW263766   0.955   3.892   8.235  0.0257  1.4554 -0.4318
20122SOL     OW63767   4.735   6.251   1.684  0.2320  0.0692 -0.2070
20122SOL    HW163768   4.730   6.253   1.780  0.5369 -0.1640 -0.1848
20122SOL    HW263769   4.816   6.297   1.664  1.1882 -1.5323 -0.2503
20123SOL     OW63770   6.349   2.761   9.591  0.2067  0.4196 -0.4498
20123SOL    HW163771   6.298   2.788   9.515 -0.3480 -0.6948 -0.4956
20123SOL    HW263772   6.435   2.801   9.578 -0.1732  1.0265 -1.1694
20124SOL     OW63773   3.605   6.140   9.826  0.1992  0.3693 -0.9734
20124SOL    HW163774   3.687   6.152   9.875  0.4495 -1.9322 -0.7025
20124SOL    HW263775   3.550   6.214   9.852  2.2054  2.0474 -1.2570
20125SOL     OW63776   6.648   6.488   9.802 -0.4111  0.4979 -0.1827
20125SOL    HW163777   6.724   6.541   9.777  0.0203  0.2630  0.5895
20125SOL    HW263778   6.659   6.406   9.754  1.9175 -1.0868  2.6932
20126SOL     OW63779   2.133   8.834   2.060  0.3368 -0.3776 -0.3819
20126SOL    HW163780   2.092   8.874   1.984 -1.2289 -0.2857  0.4741
20126SOL    HW263781   2.162   8.908   2.114 -1.1551 -0.3651  0.4555
20127SOL     OW63782   2.541   4.577   4.655  0.9416  0.2130  0.4121
20127SOL    HW163783   2.528   4.589   4.561  1.2023 -2.0164  0.0364
20127SOL    HW263784   2.596   4.651   4.681  0.0492  1.4147 -0.9736
20128SOL     OW63785   1.127   6.580   1.480  0.1518 -0.6086 -0.3845
20128SOL    HW163786   1.190   6.508   1.473 -0.0051 -0.7841 -0.0208
20128SOL    HW263787   1.098   6.577   1.571  1.6286  1.1757  0.2029
20129SOL     OW63788  10.915   9.336   5.410  0.2993 -1.1245 -0.0465
20129SOL    HW163789  10.844   9.400   5.423  0.2824 -1.2791  0.6381
20129SOL    HW263790  10.872   9.261   5.370  0.3949 -0.5555 -1.2870
20130SOL     OW63791   5.094   6.751   9.679 -0.0010  0.3840  0.2185
20130SOL    HW163792   5.083   6.845   9.669  0.4455  0.3287 -1.0976
20130SOL    HW263793   5.063   6.731   9.767 -0.6166  1.6737  0.3045
20131SOL     OW63794   3.528   1.903   6.342  0.0242 -0.3826 -0.2086
20131SOL    HW163795   3.442   1.867   6.363  0.2008 -1.2214 -0.8516
20131SOL    HW263796   3.589   1.831   6.361  0.5411  0.0703 -0.1345
20132SOL     OW63797   0.645   9.151   8.410  0.1863  0.1671  0.1295
20132SOL    HW163798   0.612   9.124   8.496  1.5820  1.4319  1.1013
20132SOL    HW263799   0.737   9.173   8.425 -0.0499  2.3715 -1.2269
20133SOL     OW63800   5.900  10.202   6.466 -0.0823  0.4078 -0.2524
20133SOL    HW163801   5.885  10.280   6.412  0.2630  0.6440 -0.0156
20133SOL    HW263802   5.973  10.226   6.523 -1.5940  0.8292  1.5984
20134SOL     OW63803  10.201  10.098   6.577  0.1004 -0.4431  0.1343
20134SOL    HW163804  10.117  10.086   6.531  0.5990  0.1866 -0.9739
20134SOL    HW263805  10.192  10.181   6.623  0.8402  0.7283 -1.7169
20135SOL     OW63806  10.579  10.276   7.954 -0.3826 -0.1980 -0.0181
20135SOL    HW163807  10.628  10.271   8.037  0.2886  0.6479 -0.3551
20135SOL    HW263808  10.515  10.345   7.968 -0.4495 -0.2423 -0.1085
20136SOL     OW63809   8.426   2.884   7.902  0.1955 -0.3721  0.6887
20136SOL    HW163810   8.355   2.849   7.849  1.0362  0.4108 -1.0087
20136SOL    HW263811   8.493   2.816   7.901  0.1625 -0.4107  0.8889
20137SOL     OW63812   6.715   8.759   3.566  0.1439 -0.3597 -0.0336
20137SOL    HW163813   6.755   8.844   3.586  1.8043 -0.3906 -2.7029
20137SOL    HW263814   6.766   8.725   3.493 -0.9309 -3.3779  0.4647
20138SOL     OW63815   5.449   0.305   9.711  0.6770 -0.1867  0.1126
20138SOL    HW163816   5.375   0.300   9.771 -1.0461 -1.0572 -1.9498
20138SOL    HW263817   5.475   0.214   9.696  0.9682 -0.0052 -0.5504
20139SOL     OW63818   2.672   6.263   1.949  0.0952 -0.2204 -0.4458
20139SOL    HW163819   2.683   6.354   1.923  1.0930 -0.3443 -0.5100
20139SOL    HW263820   2.759   6.236   1.979 -0.7383 -0.3853  2.0618
20140SOL     OW63821   5.910   2.079   3.903  0.3136  0.1493 -0.0354
20140SOL    HW163822   5.967   2.104   3.830  0.6133 -0.4755 -0.0258
20140SOL    HW263823   5.970   2.049   3.971  0.1698  2.6771  1.2988
20141SOL     OW63824   4.828   7.097   7.004 -0.0745 -0.3911  0.3713
20141SOL    HW163825   4.853   7.117   6.914 -0.9511  2.8239  0.7238
20141SOL    HW263826   4.911   7.079   7.048  0.7259  1.1960 -0.4071
20142SOL     OW63827   0.117   0.944   6.100  0.1770 -0.0547  0.1909
20142SOL    HW163828   0.109   1.006   6.172 -1.3291  1.1524 -0.9690
20142SOL    HW263829   0.211   0.942   6.080  0.3364  1.3064  0.7213
20143SOL     OW63830   0.927   2.240   0.545  0.0239  0.2845 -0.3814
20143SOL    HW163831   1.022   2.233   0.554  0.1074 -1.3452 -1.9707
20143SOL    HW263832   0.914   2.313   0.484  0.4226 -0.9132 -1.9667
20144SOL     OW63833   0.563   6.100   4.054  0.3223  0.5221  0.3035
20144SOL    HW163834   0.641   6.152   4.076 -0.3707  0.8773  2.1581
20144SOL    HW263835   0.584   6.012   4.086 -0.4867  0.9193  2.0959
20145SOL     OW63836   2.821   6.853   8.728  0.0083  0.5334  0.3326
20145SOL    HW163837   2.813   6.850   8.632  1.1600  1.3800  0.1953
20145SOL    HW263838   2.748   6.799   8.759 -0.5824  0.5094 -1.0091
20146SOL     OW63839   3.002   2.927   1.347 -0.1100  0.0399 -0.5771
20146SOL    HW163840   3.082   2.915   1.297  3.2315 -0.4564  4.1490
20146SOL    HW263841   2.957   2.842   1.341 -0.5080  0.3546 -3.3899
20147SOL     OW63842   7.346   2.310   4.172  0.1862 -0.0450  0.2290
20147SOL    HW163843   7.328   2.362   4.094  1.2632  1.9526  1.2517
20147SOL    HW263844   7.354   2.220   4.140 -1.7851  0.3553 -1.5887
20148SOL     OW63845   9.555   2.307   8.207  0.4900 -0.4365  0.4958
20148SOL    HW163846   9.541   2.352   8.124 -1.8220 -1.8168  0.0335
20148SOL    HW263847   9.629   2.249   8.191  0.6744  0.0116 -0.3012
20149SOL     OW63848   5.140   8.603   2.122  0.6479  0.0166 -0.1221
20149SOL    HW163849   5.077   8.532   2.135  0.0672  0.6641  0.7888
20149SOL    HW263850   5.186   8.580   2.042 -0.9956 -0.3110 -1.0193
20150SOL     OW63851   4.015   8.392   7.502  0.0100 -1.0443  0.1735
20150SOL    HW163852   4.077   8.465   7.502 -1.9686  0.7307  0.2458
20150SOL    HW263853   4.064   8.319   7.539  1.6078  0.6550  1.6101
20151SOL     OW63854   9.826   4.271   0.215  0.2229 -0.0159  0.5561
20151SOL    HW163855   9.739   4.306   0.235 -1.1151 -0.7728 -3.0998
20151SOL    HW263856   9.880   4.349   0.202 -0.5209  0.5261  0.6334
20152SOL     OW63857   0.006   5.004   1.230  0.2785 -0.1282  0.0590
20152SOL    HW163858  -0.028   4.996   1.320 -0.5610 -0.2356 -0.2596
20152SOL    HW263859  -0.067   5.041   1.180  2.1104  4.4630  0.3004
20153SOL     OW63860   7.914   1.051   4.593 -0.5379 -0.2351  0.3197
20153SOL    HW163861   7.990   1.107   4.610 -1.6131  0.8414  1.8630
20153SOL    HW263862   7.858   1.104   4.536 -0.4352 -0.7598 -0.2771
20154SOL     OW63863   9.376  10.781   3.793 -0.5735 -0.0450  0.3682
20154SOL    HW163864   9.282  10.762   3.792 -0.6709  0.2200 -2.2028
20154SOL    HW263865   9.417  10.697   3.814 -1.3220 -1.0844 -1.9502
20155SOL     OW63866   6.345   2.685   2.763  0.0628 -0.4522 -0.2469
20155SOL    HW163867   6.299   2.711   2.843  1.2776 -1.3767  0.7875
20155SOL    HW263868   6.400   2.761   2.741  0.1568 -0.4165  0.1135
20156SOL     OW63869   6.743   2.639   3.813  0.0290  0.2267 -0.4891
20156SOL    HW163870   6.714   2.678   3.895 -1.2124 -0.3841 -0.6103
20156SOL    HW263871   6.767   2.549   3.837  0.7516  0.3829 -0.6025
20157SOL     OW63872  10.668   0.387   8.231 -0.0639 -0.1703  0.2316
20157SOL    HW163873  10.635   0.312   8.280 -0.0009 -0.2430  0.1643
20157SOL    HW263874  10.642   0.464   8.282 -0.7404 -0.2014 -0.0511
20158SOL     OW63875   2.463   1.059   2.064  0.2968  0.5231 -0.2934
20158SOL    HW163876   2.530   1.115   2.025  0.0886  0.6297 -0.5060
20158SOL    HW263877   2.409   1.032   1.989 -1.6141  2.7273  0.1630
20159SOL     OW63878  10.759   5.428   5.132 -0.2800 -0.0677  0.5602
20159SOL    HW163879  10.758   5.523   5.134  0.1121 -0.0582  0.3653
20159SOL    HW263880  10.680   5.404   5.083 -0.2419  0.1647  0.3862
20160SOL     OW63881   0.128   3.761   2.353  0.1516 -0.8047 -0.0051
20160SOL    HW163882   0.159   3.726   2.270 -0.1055  0.7315 -0.7807
20160SOL    HW263883   0.033   3.754   2.350  0.1622 -1.1959  0.3816
20161SOL     OW63884   0.530  10.381   6.625 -0.0810 -0.4212 -0.0909
20161SOL    HW163885   0.610  10.432   6.619 -0.3308 -0.1255 -1.1521
20161SOL    HW263886   0.471  10.420   6.560 -1.0513 -0.6930  0.6018
20162SOL     OW63887  10.617   0.557   7.356 -0.7546 -0.5554  0.1821
20162SOL    HW163888  10.689   0.585   7.300  1.0089 -1.8401  1.7005
20162SOL    HW263889  10.573   0.638   7.380  0.9873  0.4157  0.2684
20163SOL     OW63890   9.460   0.686   9.345  0.0849 -0.2876 -0.0747
20163SOL    HW163891   9.539   0.684   9.398 -1.1737 -0.7438  1.8771
20163SOL    HW263892   9.398   0.739   9.395 -1.2012 -0.8395 -1.0093
20164SOL     OW63893   0.610   2.439   8.636  0.4529  0.3363 -0.4899
20164SOL    HW163894   0.590   2.440   8.543 -0.7283 -2.2623 -0.3600
20164SOL    HW263895   0.675   2.369   8.645 -0.5733 -0.5011  0.7764
20165SOL     OW63896   3.642   2.879   8.674 -0.1071  0.9588  0.8383
20165SOL    HW163897   3.688   2.851   8.595  1.0788  2.1799  1.0591
20165SOL    HW263898   3.653   2.806   8.735 -2.4510 -0.7221 -0.5851
20166SOL     OW63899   9.619   6.815   3.988  0.2025 -0.1623 -0.3599
20166SOL    HW163900   9.662   6.818   3.902 -0.2806  0.0782 -0.5991
20166SOL    HW263901   9.661   6.885   4.038 -0.0765  0.2308 -0.6734
20167SOL     OW63902   0.686   2.489   6.344  0.3387  0.0259 -0.7536
20167SOL    HW163903   0.718   2.527   6.426  1.3517 -2.3128  0.0340
20167SOL    HW263904   0.717   2.549   6.276  0.3378  1.4928  0.4903
20168SOL     OW63905   2.782   6.948   4.254 -0.1985  0.0100  0.0801
20168SOL    HW163906   2.852   6.941   4.189  0.9047 -1.4009  1.3499
20168SOL    HW263907   2.702   6.953   4.202  0.6558 -0.7602 -1.3887
20169SOL     OW63908   8.729   6.475   8.103  0.0552  0.0431 -0.5736
20169SOL    HW163909   8.802   6.451   8.046  0.0911  1.4631 -1.1719
20169SOL    HW263910   8.653   6.476   8.044 -0.4346 -1.2571  0.0079
20170SOL     OW63911  10.471   0.097   8.211  0.0745 -0.0820 -0.0263
20170SOL    HW163912  10.404   0.031   8.229 -1.2666  1.1917 -0.1712
20170SOL    HW263913  10.495   0.083   8.119  1.5059 -1.8035  0.5443
20171SOL     OW63914   3.066   1.045   2.043 -0.4095  0.3637  0.3949
20171SOL    HW163915   2.978   1.082   2.034 -1.4911 -1.6482  1.9306
20171SOL    HW263916   3.086   1.010   1.956 -0.0084  3.0262 -0.6590
20172SOL     OW63917   0.248   9.477   6.340 -0.0838  0.5975  0.1881
20172SOL    HW163918   0.247   9.472   6.435 -0.3313 -0.1432  0.1528
20172SOL    HW263919   0.339   9.461   6.316 -0.1839 -0.1183  0.2640
20173SOL     OW63920  10.459   0.020  10.301 -0.2129  0.9545 -0.0038
20173SOL    HW163921  10.538  -0.011  10.346 -0.0086  1.7130  0.1605
20173SOL    HW263922  10.467   0.115  10.299 -1.3289  1.0781  0.3955
20174SOL     OW63923   7.046   9.797   0.038  0.1632 -0.3452 -0.1737
20174SOL    HW163924   6.969   9.762  -0.007  0.1662 -0.5170 -0.0426
20174SOL    HW263925   7.080   9.864  -0.022 -1.2846  1.2224  0.6934
20175SOL     OW63926   9.562   2.084   7.080  0.0973  0.0400 -0.8771
20175SOL    HW163927   9.597   2.079   6.991 -0.0914 -3.9572 -0.8863
20175SOL    HW263928   9.467   2.077   7.069  0.1572 -2.6033 -0.4288
20176SOL     OW63929   9.953   1.746   3.779 -0.1971  0.3545  0.4820
20176SOL    HW163930  10.039   1.771   3.814  0.5197 -1.6270  0.3161
20176SOL    HW263931   9.950   1.785   3.692  1.2518 -0.7834 -0.1322
20177SOL     OW63932   7.735   9.708   3.844  0.0560  0.2520  0.3727
20177SOL    HW163933   7.762   9.798   3.859  1.6250  0.1178 -1.2700
20177SOL    HW263934   7.641   9.708   3.859  0.2247  1.8324  1.7347
20178SOL     OW63935   5.224   7.822   8.935 -0.2957  0.4913  0.1619
20178SOL    HW163936   5.262   7.792   9.018  0.7410  1.4057  0.0451
20178SOL    HW263937   5.299   7.855   8.885 -0.8948 -0.0601 -1.1582
20179SOL     OW63938   5.781   9.704   5.407 -0.3386 -0.1719 -0.4591
20179SOL    HW163939   5.757   9.726   5.317  1.1113 -1.5269 -1.2277
20179SOL    HW263940   5.719   9.634   5.432  1.1976 -2.0553 -1.6178
20180SOL     OW63941  10.769  10.054   0.197 -0.4213  0.1775 -0.1197
20180SOL    HW163942  10.718   9.974   0.208 -1.5471  1.0230  1.1741
20180SOL    HW263943  10.705  10.119   0.169  0.0952  1.0484  0.6730
20181SOL     OW63944   4.622   4.775   9.108 -0.4082  0.1043  0.0949
20181SOL    HW163945   4.600   4.730   9.189 -0.8829 -0.5525 -0.3860
20181SOL    HW263946   4.718   4.774   9.106 -0.3788  0.5764  0.8859
20182SOL     OW63947   3.371   3.559   0.998 -0.2864  0.6487  0.4223
20182SOL    HW163948   3.344   3.537   1.087 -2.6801 -1.3433 -0.6673
20182SOL    HW263949   3.407   3.478   0.963  2.1242  1.8189  0.0040
20183SOL     OW63950   3.374   8.450   4.086  0.0823 -0.6809 -0.2661
20183SOL    HW163951   3.409   8.418   4.169 -0.3607  0.1425  0.2508
20183SOL    HW263952   3.436   8.418   4.020  1.7671  0.6118  0.6033
20184SOL     OW63953   1.641   8.386   0.849  0.0897  0.1192 -0.4379
20184SOL    HW163954   1.551   8.382   0.817  0.3892 -0.7129 -1.2222
20184SOL    HW263955   1.694   8.355   0.776  1.1083  1.4691 -0.3128
20185SOL     OW63956   7.047   7.467   2.246 -0.2130 -0.0808 -0.6730
20185SOL    HW163957   7.054   7.372   2.258 -0.9261 -0.0530  0.0394
20185SOL    HW263958   6.990   7.477   2.170  1.2645 -0.2259 -1.8333
20186SOL     OW63959   8.517  10.123   8.364 -0.1579 -0.6234 -0.1111
20186SOL    HW163960   8.454  10.127   8.436 -0.5430  1.3992 -0.5175
20186SOL    HW263961   8.466  10.138   8.285  0.5953 -0.5429 -0.5999
20187SOL     OW63962   1.921   4.415   1.491 -0.1643 -0.4367 -0.2013
20187SOL    HW163963   1.926   4.407   1.587  3.5344  0.2826 -0.1807
20187SOL    HW263964   1.926   4.325   1.459 -0.8214 -0.6452  0.2703
20188SOL     OW63965   6.965   3.430  10.829  0.2014  0.6063  0.0377
20188SOL    HW163966   6.918   3.480  10.762 -1.1944 -0.0521  0.4914
20188SOL    HW263967   7.039   3.391  10.782 -1.0281 -0.2456 -1.2726
20189SOL     OW63968  10.422   4.439   5.356  0.3301  0.1381  0.0477
20189SOL    HW163969  10.472   4.366   5.394  1.1627  1.2798  1.2572
20189SOL    HW263970  10.486   4.484   5.300 -0.7813 -1.3007 -2.5506
20190SOL     OW63971  10.526   0.846   5.278  0.1860  0.3768 -0.2337
20190SOL    HW163972  10.560   0.936   5.273  2.0803 -0.1293  1.8314
20190SOL    HW263973  10.446   0.854   5.330  0.2471  0.8854 -0.2064
20191SOL     OW63974  10.424   0.337   4.401 -0.7427  0.1862 -0.5506
20191SOL    HW163975  10.368   0.330   4.478  2.6618  0.4712  2.2213
20191SOL    HW263976  10.460   0.249   4.390 -1.3051  0.1111 -1.9777
20192SOL     OW63977   0.898   6.903   7.192  0.5736  0.2129 -0.1430
20192SOL    HW163978   0.965   6.961   7.156  0.0142  0.4875 -0.7738
20192SOL    HW263979   0.906   6.823   7.140 -0.8522  0.9374 -1.6036
20193SOL     OW63980   5.238   2.348   6.181 -0.0828  0.3643 -0.6978
20193SOL    HW163981   5.261   2.362   6.089 -0.1885 -0.5612 -0.8719
20193SOL    HW263982   5.142   2.341   6.180 -0.0160 -0.6510 -0.6650
20194SOL     OW63983   7.494   8.924   8.221 -0.2201  0.4736 -0.6609
20194SOL    HW163984   7.550   8.877   8.283 -0.5688  0.5041 -0.3197
20194SOL    HW263985   7.466   9.003   8.268  0.1631  0.9104 -1.1405
20195SOL     OW63986   8.711   6.450   7.628  0.5625 -0.0331  0.4456
20195SOL    HW163987   8.724   6.408   7.543  0.7543 -1.2529  1.0564
20195SOL    HW263988   8.776   6.409   7.685  0.4523  0.7918  1.1784
20196SOL     OW63989   9.100   6.651   5.000  0.3798  0.1130 -0.0669
20196SOL    HW163990   9.074   6.665   5.091 -0.0023 -0.1953 -0.1268
20196SOL    HW263991   9.151   6.729   4.977  1.0782 -0.1325  0.6251
20197SOL     OW63992   1.540   9.460  10.015 -0.4551  0.1642  0.4098
20197SOL    HW163993   1.467   9.463   9.953  0.2075 -1.8215 -0.5483
20197SOL    HW263994   1.527   9.379  10.063  1.2345 -0.3428  0.0591
20198SOL     OW63995   7.922  10.845   0.885  0.0073 -0.2156  0.1362
20198SOL    HW163996   7.996  10.901   0.861 -0.0350 -0.6131 -1.0255
20198SOL    HW263997   7.855  10.905   0.916  0.8552  0.1416  1.3257
20199SOL     OW63998   9.576   9.885   1.622 -0.7153  0.1448  0.0048
20199SOL    HW163999   9.526   9.819   1.671 -0.6324  1.0132  1.3371
20199SOL    HW264000   9.513   9.955   1.607 -0.5095  0.2400 -0.4066
20200SOL     OW64001   2.298   6.240   1.077 -0.0982 -0.4264 -0.1312
20200SOL    HW164002   2.294   6.323   1.124  0.0926  0.8815 -2.2702
20200SOL    HW264003   2.322   6.265   0.987 -1.4625 -2.6633 -1.1997
20201SOL     OW64004   0.238   0.782   0.048 -0.1785  0.1381  0.1141
20201SOL    HW164005   0.167   0.811  -0.008 -0.3699 -1.6615 -0.6521
20201SOL    HW264006   0.318   0.802  -0.000 -0.3406 -1.3681 -0.8608
20202SOL     OW64007   9.166  10.824  10.333  0.0181  0.5089  0.1229
20202SOL    HW164008   9.221  10.827  10.255  0.1330  2.1109  0.2463
20202SOL    HW264009   9.214  10.874  10.399  0.4102 -1.6559  1.5882
20203SOL     OW64010   6.901   2.721   4.344 -0.0306  0.0818 -0.4632
20203SOL    HW164011   6.974   2.719   4.283 -0.6839  0.5882 -1.2908
20203SOL    HW264012   6.853   2.801   4.322 -0.4473  0.1153  0.5181
20204SOL     OW64013   5.828   8.354   4.936  0.2240  0.0051 -0.0546
20204SOL    HW164014   5.733   8.347   4.943  0.2542 -0.4550 -0.0895
20204SOL    HW264015   5.857   8.267   4.909  0.5449  0.4552 -1.2383
20205SOL     OW64016   4.304   3.854   0.599  0.4419 -0.2055  0.4761
20205SOL    HW164017   4.377   3.802   0.634  0.3294 -0.5509  0.2043
20205SOL    HW264018   4.252   3.877   0.675 -0.5201 -2.0395  0.4305
20206SOL     OW64019   3.755   9.874   5.206 -0.0964 -0.2257 -0.4218
20206SOL    HW164020   3.759   9.939   5.276  1.2224  0.0421 -0.7169
20206SOL    HW264021   3.678   9.822   5.226  1.7427 -1.9933  2.8720
20207SOL     OW64022   5.213  10.894   1.139 -0.9000 -0.3079 -0.0562
20207SOL    HW164023   5.303  10.917   1.164 -0.7354 -0.4962 -0.4757
20207SOL    HW264024   5.160  10.927   1.211 -0.4679 -0.4422  0.3315
20208SOL     OW64025   0.094   5.926   5.913 -0.2182  0.1828 -0.1734
20208SOL    HW164026   0.139   5.934   5.829  2.0346  1.3747  1.0549
20208SOL    HW264027   0.002   5.943   5.893  0.1779 -0.1078 -2.4577
20209SOL     OW64028   4.414   1.944   7.549 -0.0439  0.3505  0.2536
20209SOL    HW164029   4.509   1.944   7.535  0.0883  0.1993  1.0981
20209SOL    HW264030   4.403   1.910   7.638 -0.9813 -0.9518 -0.3334
20210SOL     OW64031   6.850   9.011  10.281  0.2076 -0.7677  0.1072
20210SOL    HW164032   6.813   8.925  10.262  0.7389 -1.1767  0.8930
20210SOL    HW264033   6.862   9.012  10.376  0.3517  0.1165  0.0912
20211SOL     OW64034   0.011  10.086   3.557  0.9207 -0.0972  0.4406
20211SOL    HW164035   0.049  10.010   3.601  3.1666 -0.2697 -1.5915
20211SOL    HW264036   0.065  10.159   3.587  0.3105  0.3127  0.5418
20212SOL     OW64037   8.679   6.410   6.656 -0.3510 -0.1983 -0.0420
20212SOL    HW164038   8.744   6.480   6.661 -1.6693  1.1199 -0.4274
20212SOL    HW264039   8.616   6.442   6.591 -1.7278 -1.1244  0.7994
20213SOL     OW64040   6.510   5.265   1.609  0.1149  0.4037 -0.0719
20213SOL    HW164041   6.545   5.176   1.599 -1.1558  0.1036 -2.5620
20213SOL    HW264042   6.555   5.315   1.541  1.3076  1.9043  1.7248
20214SOL     OW64043   8.015   2.839   2.493  0.3208  0.4563  0.0610
20214SOL    HW164044   8.078   2.889   2.441 -0.8175  0.4712 -1.3630
20214SOL    HW264045   8.055   2.752   2.503 -0.9372 -0.8262 -4.1103
20215SOL     OW64046   9.255   5.087   9.831  0.6825 -0.2409  0.3699
20215SOL    HW164047   9.333   5.034   9.823  0.9261  0.0611  0.7154
20215SOL    HW264048   9.283   5.166   9.878  0.2393  0.0030  0.2389
20216SOL     OW64049   8.015   5.204   4.062  0.2220 -0.2615  0.7697
20216SOL    HW164050   7.941   5.178   4.007 -0.2692 -0.1671  1.3654
20216SOL    HW264051   7.983   5.191   4.152  1.1356 -0.7729  1.0307
20217SOL     OW64052   9.577   4.959   8.964  0.0789  0.3739  0.6846
20217SOL    HW164053   9.617   4.918   8.886  0.3384 -0.5388  1.2813
20217SOL    HW264054   9.523   4.890   9.002  0.6975  0.4999  1.8369
20218SOL     OW64055   7.339   4.671   4.885 -0.1689  0.3503  0.1006
20218SOL    HW164056   7.337   4.587   4.840  0.3025  1.1452 -1.4989
20218SOL    HW264057   7.432   4.695   4.887  0.2342 -0.8070  3.9068
20219SOL     OW64058  10.291   2.062   5.266 -0.3317  0.4728 -0.0713
20219SOL    HW164059  10.305   1.969   5.284  4.0722  0.7993 -0.5360
20219SOL    HW264060  10.269   2.065   5.173  0.4414 -0.1025 -0.2841
20220SOL     OW64061   8.003  10.054   2.873 -0.3400  0.0899 -0.3850
20220SOL    HW164062   7.995  10.120   2.941 -1.5582 -0.7962  0.3708
20220SOL    HW264063   7.982   9.971   2.917  1.0301 -0.8120 -1.3197
20221SOL     OW64064   8.170   9.869  10.207 -0.0878 -0.1906 -0.5230
20221SOL    HW164065   8.248   9.849  10.258 -0.3873  1.3431  0.6289
20221SOL    HW264066   8.103   9.809  10.240  0.1812 -0.4014 -0.3593
20222SOL     OW64067   9.945   8.106   6.779 -0.3439 -0.2753 -0.0667
20222SOL    HW164068   9.988   8.125   6.863 -1.0348  1.5540 -0.0779
20222SOL    HW264069  10.017   8.109   6.715 -0.1024  0.3422  0.2203
20223SOL     OW64070   8.253  10.768  10.125  0.0063  0.0534 -0.2885
20223SOL    HW164071   8.171  10.794  10.167 -0.7578 -0.6863 -1.2796
20223SOL    HW264072   8.312  10.841  10.141 -0.9218  0.7198  0.2233
20224SOL     OW64073   6.814   6.877   0.395  0.1142 -0.1898  0.0228
20224SOL    HW164074   6.754   6.883   0.469 -0.9927  1.2619 -0.9411
20224SOL    HW264075   6.773   6.929   0.326  1.3410 -1.0973 -1.4675
20225SOL     OW64076   2.807   4.439   5.206  0.1674 -0.5603 -0.5252
20225SOL    HW164077   2.769   4.408   5.288 -0.3192  1.5528  0.0899
20225SOL    HW264078   2.732   4.469   5.154  0.7385  1.2510 -0.3483
20226SOL     OW64079   2.086   5.271   9.633  0.7086  0.1758 -0.1099
20226SOL    HW164080   2.020   5.298   9.697  0.7160  1.2918 -0.5422
20226SOL    HW264081   2.072   5.178   9.621 -1.7649  0.6254 -1.2916
20227SOL     OW64082   8.292   3.911   7.000 -0.0423 -0.3535  0.2036
20227SOL    HW164083   8.197   3.923   7.003 -0.2024 -1.5185  0.3375
20227SOL    HW264084   8.306   3.826   7.043  1.0424 -0.2739  0.0207
20228SOL     OW64085   7.569   3.389   7.011 -0.7462  0.1322  0.0259
20228SOL    HW164086   7.636   3.408   7.077 -0.2368  1.0474 -0.7369
20228SOL    HW264087   7.618   3.371   6.931 -1.3862  0.3287 -0.4216
20229SOL     OW64088   1.005   4.278  10.461  0.4083  0.2478  0.4304
20229SOL    HW164089   1.036   4.319  10.381  0.5358  0.6894  0.7048
20229SOL    HW264090   0.909   4.282  10.455  0.4134  1.0422  0.6769
20230SOL     OW64091   7.209   9.977   9.607 -0.2613 -0.5148 -0.0192
20230SOL    HW164092   7.290   9.930   9.629 -0.0796 -0.2889 -0.2014
20230SOL    HW264093   7.208  10.051   9.668  1.2588  1.2598 -2.0198
20231SOL     OW64094   0.968   0.037   7.292 -0.2521  0.3490  0.3836
20231SOL    HW164095   1.060   0.013   7.282 -0.0955  1.4486 -1.3760
20231SOL    HW264096   0.971   0.128   7.321 -0.7313  0.8457 -1.0188
20232SOL     OW64097   5.063   3.087   8.357 -0.6323 -0.5363  0.4411
20232SOL    HW164098   5.005   3.043   8.295 -0.1949 -0.8005  0.2229
20232SOL    HW264099   5.143   3.035   8.357  0.3850  0.9507 -0.7731
20233SOL     OW64100   8.385   0.891   7.172  0.5141  0.1180  0.1794
20233SOL    HW164101   8.296   0.857   7.175  0.5124 -0.1193 -1.7230
20233SOL    HW264102   8.391   0.937   7.089  2.7138 -1.4287 -0.6148
20234SOL     OW64103  10.561   7.777   1.346 -0.2448 -0.0955  0.3662
20234SOL    HW164104  10.645   7.818   1.322 -0.6592  0.1688 -0.6914
20234SOL    HW264105  10.584   7.716   1.415  0.9421 -0.4753 -0.3249
20235SOL     OW64106  10.834   1.679   9.286 -0.1257  0.0608 -0.6096
20235SOL    HW164107  10.860   1.769   9.263  1.0328  0.0355  0.4569
20235SOL    HW264108  10.754   1.689   9.337  2.0451  0.9473  2.9825
20236SOL     OW64109  10.097   0.438   0.722  0.0255 -0.1357  0.2906
20236SOL    HW164110  10.119   0.393   0.804 -1.4587  0.4280  1.0315
20236SOL    HW264111  10.006   0.415   0.705 -0.5299  1.8671  0.2498
20237SOL     OW64112   5.509   2.766   1.048 -0.4337  0.1151 -0.2639
20237SOL    HW164113   5.528   2.860   1.044 -1.0311  0.2102 -0.9905
20237SOL    HW264114   5.529   2.734   0.960 -2.0043 -0.0849 -0.5805
20238SOL     OW64115   3.574   0.400   4.496  0.6590 -0.1462  0.9517
20238SOL    HW164116   3.496   0.444   4.531 -0.0728 -0.9315  0.3423
20238SOL    HW264117   3.643   0.420   4.559  0.5155  2.3573  0.4432
20239SOL     OW64118  10.051   1.251   3.214 -0.0111 -0.1343 -0.7975
20239SOL    HW164119   9.972   1.302   3.194 -0.2319 -0.0613  0.2463
20239SOL    HW264120  10.108   1.267   3.138  0.0579  1.9449 -0.3759
20240SOL     OW64121   6.554   6.840   1.016 -0.0966 -0.1647  0.2479
20240SOL    HW164122   6.606   6.805   1.088  0.0673 -0.4933 -0.0262
20240SOL    HW264123   6.465   6.806   1.031  0.3858 -2.1313 -0.9143
20241SOL     OW64124   7.449   0.096   1.386 -0.2770  0.3046 -0.2725
20241SOL    HW164125   7.405   0.057   1.462  0.9832  0.1204  0.3788
20241SOL    HW264126   7.541   0.102   1.411  0.0767  0.7565 -1.5834
20242SOL     OW64127  10.347   1.439   2.702 -0.3584  0.0525 -0.1040
20242SOL    HW164128  10.322   1.348   2.717  1.0341 -0.1592  1.2189
20242SOL    HW264129  10.441   1.435   2.684 -0.0754  1.2923  0.9718
20243SOL     OW64130   9.987   6.183   2.281 -0.2942  0.3296  0.4393
20243SOL    HW164131   9.982   6.090   2.304  1.6718  0.0596 -0.0592
20243SOL    HW264132   9.902   6.203   2.242 -1.5300 -0.6949  2.4758
20244SOL     OW64133   2.248   2.832   8.922 -0.5746  0.4290 -0.1618
20244SOL    HW164134   2.277   2.869   8.839  0.6598  3.9073  1.6018
20244SOL    HW264135   2.202   2.904   8.966 -4.5155 -2.3067  0.8126
20245SOL     OW64136   3.602   5.800   0.019  0.5599 -0.1847  0.1669
20245SOL    HW164137   3.635   5.727   0.071  1.4192  0.5230  0.6473
20245SOL    HW264138   3.527   5.833   0.069 -0.5276 -1.3766 -0.5916
20246SOL     OW64139   7.159   6.173   8.827 -0.4489  0.2743  0.0066
20246SOL    HW164140   7.113   6.097   8.791  1.2794 -0.3895 -0.9153
20246SOL    HW264141   7.162   6.236   8.755  1.1118 -0.1796 -0.3570
20247SOL     OW64142   0.084   6.475   4.454 -0.8890 -0.7719  0.6821
20247SOL    HW164143   0.129   6.495   4.536  0.1838  0.5400 -0.1902
20247SOL    HW264144   0.023   6.548   4.441  0.1928 -0.0389 -0.5239
20248SOL     OW64145   5.325   2.878   3.272  0.5638  0.2070  0.4752
20248SOL    HW164146   5.364   2.953   3.227 -0.1664  1.3333  1.6478
20248SOL    HW264147   5.399   2.821   3.292  1.1451  0.6463 -0.3580
20249SOL     OW64148   3.896   8.310   8.440  0.2459 -0.6680  0.2437
20249SOL    HW164149   3.854   8.328   8.523  2.7407 -1.0631  1.7030
20249SOL    HW264150   3.916   8.217   8.442  0.1921 -0.7254 -0.8873
20250SOL     OW64151   0.350   3.217   2.671  0.2322  0.3393 -0.4319
20250SOL    HW164152   0.340   3.206   2.766  1.9203 -0.1626 -0.2822
20250SOL    HW264153   0.279   3.166   2.634  1.6993 -2.5778  0.5094
20251SOL     OW64154   9.128   6.627   1.411 -0.2589  0.3489  0.3360
20251SOL    HW164155   9.083   6.710   1.430  1.2808  0.7838  2.3550
20251SOL    HW264156   9.114   6.574   1.489 -2.9174 -2.2153 -1.6651
20252SOL     OW64157   4.440   7.483   5.529  0.4568 -0.7047  0.0679
20252SOL    HW164158   4.425   7.393   5.501 -0.7228 -0.7165  0.6910
20252SOL    HW264159   4.362   7.506   5.579  0.6859  0.7091 -0.1926
20253SOL     OW64160  10.872   9.970  10.230 -0.1336  0.2089 -0.4421
20253SOL    HW164161  10.819  10.021  10.168 -1.7793 -1.2690 -0.3338
20253SOL    HW264162  10.808   9.918  10.278  1.3962 -1.1870  0.1577
20254SOL     OW64163   3.899   1.153   2.757  0.2587 -0.1423 -0.5230
20254SOL    HW164164   3.834   1.156   2.827 -1.4605 -0.0262 -2.0425
20254SOL    HW264165   3.931   1.063   2.758 -0.0208 -0.2398  0.1548
20255SOL     OW64166   3.166   6.835  10.866  0.0995 -0.8736 -0.2582
20255SOL    HW164167   3.081   6.873  10.889  0.6718 -0.3723  1.1645
20255SOL    HW264168   3.224   6.860  10.938  1.2252 -2.0194 -0.7159
20256SOL     OW64169   2.896  10.349   1.467 -0.4605  0.3531  0.1226
20256SOL    HW164170   2.862  10.427   1.511  0.1340  1.4332 -1.2435
20256SOL    HW264171   2.938  10.383   1.387 -0.2132 -1.3712 -0.5246
20257SOL     OW64172   2.245   5.577   1.871 -0.3624 -0.3725  0.6096
20257SOL    HW164173   2.233   5.622   1.787  0.3733 -0.9879  0.1641
20257SOL    HW264174   2.291   5.641   1.926  1.9584 -1.0004 -0.4726
20258SOL     OW64175   9.199   8.962   1.287  0.0229  0.0594 -0.0232
20258SOL    HW164176   9.270   8.937   1.347  0.7532  0.3328 -0.7622
20258SOL    HW264177   9.218   9.053   1.263 -1.6368  0.7996  1.2501
20259SOL     OW64178   3.963   2.039   3.882  0.8301  0.0815 -0.1674
20259SOL    HW164179   4.002   1.952   3.890 -0.3080 -0.3533  0.9369
20259SOL    HW264180   4.038   2.099   3.881  1.5739 -0.7733  1.1802
20260SOL     OW64181   9.184   2.903   1.291 -0.2046 -0.0782  0.1650
20260SOL    HW164182   9.260   2.845   1.289 -0.6447 -0.6459 -0.3193
20260SOL    HW264183   9.124   2.866   1.227 -0.9739  0.2632  0.6786
20261SOL     OW64184   0.665   5.014   5.382  0.3644  0.6952 -0.2406
20261SOL    HW164185   0.729   4.943   5.373  0.0167  0.4798 -1.1595
20261SOL    HW264186   0.692   5.079   5.317 -0.8476  0.1875 -1.3295
20262SOL     OW64187   8.084   5.417   7.279 -0.0547 -0.6380  0.3495
20262SOL    HW164188   8.124   5.471   7.348  0.2382 -1.8092  1.1406
20262SOL    HW264189   8.123   5.330   7.292  0.3094 -0.7886 -1.5745
20263SOL     OW64190   0.550   0.278   6.173  0.9163  0.1840 -0.1774
20263SOL    HW164191   0.460   0.310   6.179  0.8621  0.3014 -1.4084
20263SOL    HW264192   0.541   0.187   6.143  1.2148  0.2834 -0.5697
20264SOL     OW64193   8.487   2.281   6.623 -0.1027 -0.2248  0.1733
20264SOL    HW164194   8.398   2.245   6.630 -0.2155 -0.0708 -0.4223
20264SOL    HW264195   8.520   2.280   6.713  0.4509 -3.1829  0.0535
20265SOL     OW64196   1.454   4.649   0.371 -0.2785  0.0258  0.3105
20265SOL    HW164197   1.372   4.672   0.326 -0.4334  1.6587  1.3290
20265SOL    HW264198   1.454   4.554   0.372 -1.0762 -0.0482 -1.6386
20266SOL     OW64199   1.000  10.704   4.415  0.4824  0.5714  0.3987
20266SOL    HW164200   1.063  10.637   4.386 -0.0417  0.8658 -1.5654
20266SOL    HW264201   1.043  10.787   4.393  2.0377  1.1255  4.6422
20267SOL     OW64202   3.685   5.328   6.687 -0.0340 -0.5671 -0.0701
20267SOL    HW164203   3.656   5.279   6.764  2.1607 -2.3976 -0.3052
20267SOL    HW264204   3.781   5.328   6.693  0.1226  1.3046 -1.5946
20268SOL     OW64205   9.848  10.210   4.173  0.2185  0.1337 -0.0525
20268SOL    HW164206   9.941  10.235   4.173  0.1086  0.5470 -0.2728
20268SOL    HW264207   9.817  10.236   4.260  0.5485 -0.9280  0.3980
20269SOL     OW64208  10.059   7.553   3.004  0.1922  0.3287  0.1309
20269SOL    HW164209  10.106   7.609   2.942  0.1681  0.1823 -0.0229
20269SOL    HW264210  10.118   7.479   3.018 -0.4062 -0.3677 -0.8567
20270SOL     OW64211   9.241   3.263   2.396 -0.3026 -0.2819  0.0769
20270SOL    HW164212   9.306   3.285   2.463  0.2059  0.7738 -0.7354
20270SOL    HW264213   9.294   3.237   2.320 -0.7447  1.8160 -1.0232
20271SOL     OW64214   4.403   2.270   3.512  0.2099  0.1845 -0.3021
20271SOL    HW164215   4.466   2.329   3.551  0.2581  0.2260 -0.4418
20271SOL    HW264216   4.379   2.311   3.429  1.3428 -0.6954 -1.1050
20272SOL     OW64217   7.528   3.782   2.481 -0.0720 -0.2515 -0.5477
20272SOL    HW164218   7.616   3.757   2.451  0.0873  0.8540 -1.0557
20272SOL    HW264219   7.539   3.800   2.574 -0.1690 -1.8901 -0.1915
20273SOL     OW64220   6.886   9.994   8.310 -0.1474  0.6856  0.2196
20273SOL    HW164221   6.967  10.041   8.289 -1.4592  1.6433 -3.5226
20273SOL    HW264222   6.909   9.902   8.301  0.1805  0.9791 -3.0497
20274SOL     OW64223   1.208   2.427   3.403 -0.2747 -0.1582  0.0802
20274SOL    HW164224   1.185   2.341   3.436 -2.2258 -0.6805 -2.3663
20274SOL    HW264225   1.276   2.410   3.338  0.4730  0.3671  0.7027
20275SOL     OW64226   1.154   9.111   1.831  0.1901 -0.0640  0.1945
20275SOL    HW164227   1.143   9.176   1.762 -1.5118  0.9627  1.3518
20275SOL    HW264228   1.219   9.150   1.891 -0.8921  0.6525  0.9320
20276SOL     OW64229   1.685   9.596   1.454 -0.5664 -0.0911 -0.0463
20276SOL    HW164230   1.591   9.576   1.448 -0.2434 -1.3538 -1.9943
20276SOL    HW264231   1.690   9.673   1.510 -2.6241 -0.9444  1.4309
20277SOL     OW64232   5.126   0.240   9.568  0.3225  0.6585  0.2853
20277SOL    HW164233   5.170   0.156   9.552 -0.7693 -0.1202  1.2199
20277SOL    HW264234   5.161   0.270   9.651 -1.1160 -0.1378  1.2105
20278SOL     OW64235   3.644   2.007   6.864 -0.4722 -0.0738 -1.0202
20278SOL    HW164236   3.572   1.955   6.827 -1.7895  1.1459 -0.2911
20278SOL    HW264237   3.694   1.944   6.916  0.0990 -1.3362 -2.9623
20279SOL     OW64238   3.047   5.623   5.825  0.5416 -0.6674 -0.0643
20279SOL    HW164239   2.957   5.651   5.806 -0.7474 -2.1277  3.0774
20279SOL    HW264240   3.084   5.695   5.877  0.5620 -0.8298  0.1446
20280SOL     OW64241   1.962   0.884   1.091 -0.3458 -0.3566 -0.0643
20280SOL    HW164242   1.974   0.823   1.163 -2.1884 -0.6833 -0.0111
20280SOL    HW264243   1.984   0.970   1.129  0.2498 -0.7124  0.4170
20281SOL     OW64244   9.247   8.733   5.422 -0.6782  0.1916  0.1227
20281SOL    HW164245   9.293   8.792   5.362  2.4493 -1.2257  0.9141
20281SOL    HW264246   9.311   8.715   5.492 -2.5678 -1.7421  1.4752
20282SOL     OW64247   3.823   2.210   4.556 -0.2115  0.0586  0.7043
20282SOL    HW164248   3.881   2.137   4.578  2.6056  1.6596 -0.8202
20282SOL    HW264249   3.791   2.189   4.468  0.7434  0.6823  0.1907
20283SOL     OW64250   4.245   0.803   3.704 -0.5826  0.0428 -0.0996
20283SOL    HW164251   4.280   0.860   3.635  0.0524 -0.1867  0.0298
20283SOL    HW264252   4.298   0.822   3.781 -0.8371 -0.2083  0.1431
20284SOL     OW64253   1.362   8.990  10.401 -0.0855  0.0012  0.6965
20284SOL    HW164254   1.298   8.985  10.472  0.7181 -0.9768  1.3900
20284SOL    HW264255   1.433   9.044  10.436  0.4631 -0.7531  0.7712
20285SOL     OW64256   2.769   7.628   6.087  0.1391 -0.2404  0.1393
20285SOL    HW164257   2.678   7.609   6.110 -0.4196  2.5571  0.6242
20285SOL    HW264258   2.809   7.654   6.169  1.0524 -0.2797 -0.2868
20286SOL     OW64259  10.720   3.214   6.329  0.1770  0.2044 -0.0090
20286SOL    HW164260  10.693   3.197   6.419  1.7024  1.7830  0.7922
20286SOL    HW264261  10.706   3.307   6.316  2.7591  0.6161 -0.3543
20287SOL     OW64262   2.844   8.078   0.829  0.0650 -0.4670 -0.3795
20287SOL    HW164263   2.763   8.095   0.782  0.3943  0.9894 -0.4801
20287SOL    HW264264   2.817   8.036   0.910 -0.8109  0.1904 -0.3165
20288SOL     OW64265   6.507   4.701   2.873 -0.2532  0.5251  0.3937
20288SOL    HW164266   6.460   4.771   2.920  1.0111  1.2874  0.5861
20288SOL    HW264267   6.454   4.685   2.795  0.0033  2.5337 -0.2436
20289SOL     OW64268   3.745   5.578   3.760  0.2096  0.2422  0.6194
20289SOL    HW164269   3.662   5.536   3.782  0.5484 -1.1068 -0.5360
20289SOL    HW264270   3.724   5.637   3.687  0.0561  0.8029  1.1107
20290SOL     OW64271   8.348   6.763   3.290 -0.2968 -0.9373  0.1110
20290SOL    HW164272   8.442   6.755   3.269 -0.2429 -1.1713  0.4518
20290SOL    HW264273   8.331   6.693   3.352 -0.8857 -1.4143 -0.5725
20291SOL     OW64274  10.514  10.320   3.059 -0.1206  0.2413  0.5071
20291SOL    HW164275  10.583  10.367   3.011 -0.9243  1.2653  0.3267
20291SOL    HW264276  10.514  10.359   3.146  0.3825 -0.6520  0.9250
20292SOL     OW64277   2.059   2.149   9.978 -0.2870 -0.0858 -0.2174
20292SOL    HW164278   2.006   2.164  10.056 -1.9850 -1.4880 -1.0195
20292SOL    HW264279   2.104   2.232   9.963 -0.0326  0.2489  2.1398
20293SOL     OW64280   8.615   4.241   1.711  0.3284 -0.5685 -0.0605
20293SOL    HW164281   8.681   4.259   1.645  0.3035 -0.4406 -0.0510
20293SOL    HW264282   8.627   4.149   1.734  0.6936 -0.4674  0.1516
20294SOL     OW64283   8.769  10.720   2.532 -0.5424  0.3514  0.2689
20294SOL    HW164284   8.863  10.739   2.535 -0.3021 -0.7782 -0.0539
20294SOL    HW264285   8.751  10.698   2.441 -1.2484  1.1151  0.2055
20295SOL     OW64286   5.770   8.272   9.149 -0.1414  0.0291 -0.0105
20295SOL    HW164287   5.774   8.177   9.154  0.8481  0.1216  1.5551
20295SOL    HW264288   5.683   8.294   9.184 -0.4317 -0.2819 -0.5172
20296SOL     OW64289  10.873   8.468   3.511  0.0204 -0.3683 -0.0303
20296SOL    HW164290  10.874   8.564   3.515  2.4369 -0.3692  1.6152
20296SOL    HW264291  10.817   8.441   3.583 -2.4146 -0.2896 -1.7588
20297SOL     OW64292   3.426   1.635   0.338  0.6346 -0.1229 -0.2777
20297SOL    HW164293   3.480   1.641   0.417  0.4905  0.6302 -0.2311
20297SOL    HW264294   3.358   1.571   0.361  0.3736  0.3696  0.3467
20298SOL     OW64295   4.504   1.727   6.608 -0.5385 -0.7676  0.5043
20298SOL    HW164296   4.449   1.759   6.680 -0.8051 -2.8488  1.2729
20298SOL    HW264297   4.518   1.635   6.627  0.8623 -0.9581 -1.2154
20299SOL     OW64298   6.888  10.539   9.465  0.5584  0.3672 -0.7184
20299SOL    HW164299   6.819  10.477   9.438  0.0838  1.2737 -1.6831
20299SOL    HW264300   6.941  10.490   9.528  0.4088 -1.1433 -1.7109
20300SOL     OW64301  10.542   3.932   3.436  0.0244  0.0625 -0.3690
20300SOL    HW164302  10.466   3.957   3.383 -0.7138 -0.3833  0.4570
20300SOL    HW264303  10.565   3.845   3.405 -0.6941 -0.3909  0.3272
20301SOL     OW64304   6.524   6.784   0.091 -0.1979  0.4674 -0.3418
20301SOL    HW164305   6.466   6.758   0.162 -0.3719 -0.7104 -0.8882
20301SOL    HW264306   6.475   6.765   0.011  0.3515  0.8935 -0.7958
20302SOL     OW64307   2.226   7.656   0.479  0.2281  0.0620 -0.0198
20302SOL    HW164308   2.260   7.581   0.528  0.3421  0.4356  0.4799
20302SOL    HW264309   2.186   7.712   0.545 -0.1071  0.3070 -0.4263
20303SOL     OW64310   5.995   4.140   8.655  0.3383  0.7129  0.6003
20303SOL    HW164311   6.012   4.149   8.749  0.4104 -1.9326  0.9316
20303SOL    HW264312   5.902   4.119   8.650  0.1279  1.7240 -0.0342
20304SOL     OW64313   3.239  10.722   9.798 -0.2073  0.3843  0.7337
20304SOL    HW164314   3.223  10.802   9.848 -1.1712 -0.7357  2.3014
20304SOL    HW264315   3.329  10.731   9.766 -0.7247  2.6650 -0.2980
20305SOL     OW64316   1.664   5.381   3.616 -0.7739 -0.5977 -0.0682
20305SOL    HW164317   1.597   5.401   3.681 -0.9449 -0.8984 -0.1485
20305SOL    HW264318   1.615   5.363   3.536 -0.5997 -0.8266 -0.1262
20306SOL     OW64319   3.789   0.825   7.822 -0.4520  0.3724  0.6517
20306SOL    HW164320   3.708   0.865   7.791  0.3982  0.0726 -2.2355
20306SOL    HW264321   3.802   0.749   7.765  1.8779  0.4294  1.0206
20307SOL     OW64322   3.746   7.304   6.760 -0.0351  0.2750 -0.1942
20307SOL    HW164323   3.659   7.343   6.748 -0.6579 -1.1815 -0.5864
20307SOL    HW264324   3.779   7.293   6.671  0.2044  0.0610 -0.0763
20308SOL     OW64325   8.609   7.010  10.430  0.2306 -0.1910 -0.2549
20308SOL    HW164326   8.655   7.006  10.346 -1.6025  0.4608 -1.3467
20308SOL    HW264327   8.671   7.050  10.490  1.1931  0.3653 -1.5863
20309SOL     OW64328   9.020   6.118   8.337  0.6625 -0.2843  0.2938
20309SOL    HW164329   9.083   6.117   8.266  1.4467 -1.4028  0.9710
20309SOL    HW264330   8.990   6.027   8.344  0.0536 -0.0460  0.9075
20310SOL     OW64331   1.320  10.721   5.627  0.5144  0.0225 -0.7174
20310SOL    HW164332   1.378  10.760   5.694 -0.2953 -0.5250  0.3323
20310SOL    HW264333   1.355  10.633   5.614  0.1452 -0.1801 -0.3523
20311SOL     OW64334   2.141   0.383   1.227 -0.1732 -0.3942  0.2891
20311SOL    HW164335   2.059   0.381   1.275 -1.0621 -1.0158 -1.2156
20311SOL    HW264336   2.154   0.475   1.206  0.3971 -0.0533  1.9103
20312SOL     OW64337   9.442   2.653   5.803 -0.3919  0.2962  0.5067
20312SOL    HW164338   9.364   2.649   5.747  0.3343  1.0687 -0.6109
20312SOL    HW264339   9.420   2.718   5.870  0.1823  2.5508 -1.3605
20313SOL     OW64340   3.963   6.399   0.514 -0.5023 -0.0925 -0.0852
20313SOL    HW164341   4.057   6.400   0.532 -0.5659  0.1134  0.2392
20313SOL    HW264342   3.956   6.371   0.423 -0.1515 -0.6102  0.0437
20314SOL     OW64343   9.045   9.028   9.953  0.3138  0.3124  0.4574
20314SOL    HW164344   8.990   8.969  10.004 -1.4680  2.8060  1.6447
20314SOL    HW264345   9.103   8.970   9.903 -1.3512 -2.3835  1.4277
20315SOL     OW64346   2.865   3.712   1.709  0.1706 -0.2820 -0.0031
20315SOL    HW164347   2.819   3.723   1.792 -1.5116  1.7160 -1.1099
20315SOL    HW264348   2.813   3.646   1.662 -1.9213  2.1680 -1.3610
20316SOL     OW64349   6.649   3.258  10.520  0.3129  0.5029  0.2833
20316SOL    HW164350   6.656   3.272  10.614 -0.8958  2.0244  0.1887
20316SOL    HW264351   6.701   3.179  10.503  0.1772 -0.0698  2.2790
20317SOL     OW64352   7.960   7.471   0.182  0.5326  0.1924  0.2178
20317SOL    HW164353   8.053   7.480   0.207  0.9070 -1.5601 -0.4496
20317SOL    HW264354   7.935   7.385   0.215 -0.0266 -0.5885 -2.1130
20318SOL     OW64355   9.772   3.639  10.707 -0.3454 -0.1785 -0.3284
20318SOL    HW164356   9.824   3.624  10.786 -1.6214  0.0692  0.5786
20318SOL    HW264357   9.830   3.691  10.651  0.9111 -1.1206  0.0402
20319SOL     OW64358   5.085   5.826   5.590 -0.1696  0.3527 -0.1241
20319SOL    HW164359   5.098   5.869   5.506  0.6043  0.6926  0.1518
20319SOL    HW264360   4.991   5.809   5.595 -0.3621  1.2219 -0.6290
20320SOL     OW64361   9.291   0.342   8.865 -0.0260 -0.3863 -0.3535
20320SOL    HW164362   9.307   0.419   8.811  1.2205  1.5724  2.5511
20320SOL    HW264363   9.367   0.286   8.851  0.2180  0.0323 -0.6966
20321SOL     OW64364   5.007   5.932   1.356  0.2963  0.0694  0.3609
20321SOL    HW164365   4.987   5.842   1.383  2.9506 -0.1541  2.0741
20321SOL    HW264366   4.982   5.986   1.431 -1.3636  0.8306 -0.6915
20322SOL     OW64367   3.705   2.761   6.087 -0.1884 -0.7666  0.5306
20322SOL    HW164368   3.685   2.695   6.154  1.6662 -0.3851  1.5189
20322SOL    HW264369   3.798   2.749   6.069 -0.0976  0.7905 -0.1602
20323SOL     OW64370   9.815   2.587   7.257 -0.1773 -0.0507  0.5011
20323SOL    HW164371   9.857   2.568   7.340 -0.0646  1.8789  0.9436
20323SOL    HW264372   9.876   2.555   7.191  1.3254  1.3466  1.1515
20324SOL     OW64373   5.147   7.590   1.550  0.5073  0.7191  0.1513
20324SOL    HW164374   5.212   7.570   1.618  1.7742 -1.1395 -1.4993
20324SOL    HW264375   5.164   7.681   1.526  0.7065  1.0794  1.5781
20325SOL     OW64376   7.860   1.237   6.222  0.0254 -0.3713  0.1564
20325SOL    HW164377   7.955   1.241   6.209 -0.1547 -0.1743 -1.2733
20325SOL    HW264378   7.837   1.320   6.263  0.2598  0.3621 -1.1393
20326SOL     OW64379   1.351   1.466  10.185  0.1209  0.3425  0.0643
20326SOL    HW164380   1.300   1.386  10.201  0.8892  0.1257  1.6372
20326SOL    HW264381   1.433   1.435  10.148  0.2100  0.4472  0.1743
20327SOL     OW64382   2.890   7.571   9.198  0.4161  0.1766  0.1954
20327SOL    HW164383   2.819   7.574   9.135 -0.2970  1.2036  1.0035
20327SOL    HW264384   2.918   7.663   9.207  0.2654  0.1078  1.6147
20328SOL     OW64385  10.197  10.158   4.636 -0.5388 -0.1750  0.3336
20328SOL    HW164386  10.128  10.222   4.617  1.0837  1.9699  1.2171
20328SOL    HW264387  10.239  10.143   4.551 -0.2636  0.8300  0.2704
20329SOL     OW64388   5.371   6.931   3.753  0.7018 -0.0609 -0.0058
20329SOL    HW164389   5.402   7.021   3.738  0.2176  0.0026 -0.6374
20329SOL    HW264390   5.441   6.890   3.804  0.2831  1.1043  1.5736
20330SOL     OW64391   0.331   3.070   9.955 -0.1697 -0.0098 -0.0273
20330SOL    HW164392   0.304   3.039   9.868  2.3217 -0.9675 -0.5613
20330SOL    HW264393   0.329   2.992  10.010  1.2505 -0.1114 -0.0722
20331SOL     OW64394   4.106   3.153   6.297  0.3024 -0.5354  0.1298
20331SOL    HW164395   4.079   3.061   6.298 -1.3122 -0.1140 -0.7652
20331SOL    HW264396   4.061   3.191   6.373 -0.2329 -0.1988 -0.3446
20332SOL     OW64397   4.788   1.602   3.727 -0.2876  0.4664 -0.7917
20332SOL    HW164398   4.809   1.689   3.692  3.0966  0.0095 -0.1979
20332SOL    HW264399   4.796   1.613   3.822 -2.2602 -0.0041 -0.5265
20333SOL     OW64400   1.950   5.939   8.250  0.6026  0.4448  0.2340
20333SOL    HW164401   1.883   5.871   8.252 -0.4192  1.4095  1.8099
20333SOL    HW264402   1.947   5.973   8.161 -1.3987  0.7709  0.3686
20334SOL     OW64403   5.387   4.032   4.453 -0.0231  0.0827  0.4931
20334SOL    HW164404   5.341   3.981   4.386 -2.0674  0.4295  1.5361
20334SOL    HW264405   5.337   4.016   4.533  1.3331  1.0392  1.5764
20335SOL     OW64406   6.270   0.818   7.719  0.6851 -0.3663 -0.6672
20335SOL    HW164407   6.343   0.758   7.708  1.3734 -0.2076  2.2336
20335SOL    HW264408   6.306   0.904   7.697  1.1085 -0.4199 -0.2037
20336SOL     OW64409   5.647   3.133   1.261 -0.0592 -0.0827 -0.0061
20336SOL    HW164410   5.683   3.221   1.255  2.2946 -0.6762  2.9751
20336SOL    HW264411   5.592   3.134   1.339  0.4768 -1.3688  0.4228
20337SOL     OW64412  10.536   6.886   7.330 -0.3907  0.4665 -0.5074
20337SOL    HW164413  10.539   6.831   7.252 -0.6881 -2.7794  1.5585
20337SOL    HW264414  10.622   6.874   7.371 -2.0049 -2.7040  2.4687
20338SOL     OW64415  10.550   7.918   9.085  0.1564 -0.2078  0.2287
20338SOL    HW164416  10.614   7.849   9.102 -0.2502 -0.5945  0.1985
20338SOL    HW264417  10.578   7.991   9.140  1.3377  0.0658 -0.6984
20339SOL     OW64418  10.611   5.838   3.628 -0.6641 -0.0288  0.0106
20339SOL    HW164419  10.686   5.814   3.682 -1.9657 -1.9605  1.0474
20339SOL    HW264420  10.648   5.895   3.560  1.9283 -1.7515 -0.1371
20340SOL     OW64421   0.675   5.305   3.722  0.1780 -0.2604  0.1396
20340SOL    HW164422   0.734   5.367   3.679 -0.1216 -0.0415  0.0458
20340SOL    HW264423   0.588   5.330   3.692 -0.7890  3.2743  4.7575
20341SOL     OW64424  10.088   2.186   5.601  0.1532 -0.3214 -0.0861
20341SOL    HW164425  10.033   2.166   5.676  0.2908 -2.1951 -0.4300
20341SOL    HW264426  10.158   2.121   5.604  1.1204  0.6283 -0.8944
20342SOL     OW64427  10.105   4.248   5.429  0.1204  0.2492  0.9924
20342SOL    HW164428  10.147   4.275   5.510  2.1382  0.4990 -0.0769
20342SOL    HW264429  10.160   4.178   5.395 -0.9991 -0.2369  0.1121
20343SOL     OW64430   9.182   7.037   8.553  0.2055  0.4332  0.4286
20343SOL    HW164431   9.104   7.069   8.508 -0.2085  0.5794  1.2411
20343SOL    HW264432   9.255   7.082   8.510  0.1077 -1.5125 -1.9973
20344SOL     OW64433   6.906   9.059   6.627  0.3089 -0.4930  0.4519
20344SOL    HW164434   6.972   9.004   6.670 -0.3625 -1.2703  0.5139
20344SOL    HW264435   6.872   9.004   6.557  0.2933  0.2044 -0.0955
20345SOL     OW64436   6.181   4.777   3.087 -0.2518  0.2592  0.1362
20345SOL    HW164437   6.104   4.730   3.120  0.1923 -0.9639 -0.5010
20345SOL    HW264438   6.193   4.742   2.999 -0.7914  2.6923 -0.9579
20346SOL     OW64439   0.409   2.991  10.483 -0.2892  0.6130  0.2544
20346SOL    HW164440   0.355   2.914  10.500  2.0989 -1.0458  0.8125
20346SOL    HW264441   0.429   3.026  10.570 -1.0450  1.6632  0.0182
20347SOL     OW64442   4.821   5.323   9.397 -0.1701  0.0460 -0.2710
20347SOL    HW164443   4.821   5.239   9.353  0.2298 -0.0753 -0.0472
20347SOL    HW264444   4.741   5.366   9.368 -0.1480 -0.2257 -0.7361
20348SOL     OW64445   5.829   1.229  10.699  0.2255 -0.2521  0.6058
20348SOL    HW164446   5.852   1.144  10.737 -0.9257  0.0333  2.0545
20348SOL    HW264447   5.857   1.223  10.608  0.4467 -2.0727  0.7549
20349SOL     OW64448   2.240   7.265   4.931  0.0965 -0.2814  0.3368
20349SOL    HW164449   2.328   7.279   4.965 -0.4006  1.3115  1.1132
20349SOL    HW264450   2.209   7.353   4.908 -1.9417 -0.5217  1.8079
20350SOL     OW64451  10.564   1.170   1.028 -0.2014  1.0684  0.1623
20350SOL    HW164452  10.487   1.148   0.977  0.3357 -0.5596 -0.0016
20350SOL    HW264453  10.538   1.157   1.119 -0.0880  0.4091  0.1006
20351SOL     OW64454   3.167   8.138  10.723 -0.7156  0.5385 -0.2450
20351SOL    HW164455   3.172   8.122  10.817 -0.0576 -1.7456 -0.6146
20351SOL    HW264456   3.080   8.108  10.698 -0.2560 -0.5475 -0.6102
20352SOL     OW64457   0.186   4.750   7.560 -0.3017 -0.0367  0.3323
20352SOL    HW164458   0.117   4.744   7.493 -2.0783  1.9288  1.8439
20352SOL    HW264459   0.157   4.693   7.631  0.0344  0.1949  0.6632
20353SOL     OW64460   6.972   0.242   3.118  0.4818 -0.2373  0.7510
20353SOL    HW164461   6.955   0.336   3.120  3.4801  0.4347  0.2627
20353SOL    HW264462   6.919   0.207   3.189 -1.2104  1.7032  0.5330
20354SOL     OW64463   4.052   4.830  10.116 -0.3961  0.1349  0.1789
20354SOL    HW164464   4.096   4.758  10.162 -2.9077 -0.7641  1.3599
20354SOL    HW264465   4.074   4.816  10.024  2.7322  0.5093  0.7481
20355SOL     OW64466   1.555   7.184   7.199 -0.1684 -0.2548  0.2035
20355SOL    HW164467   1.510   7.108   7.235 -1.6760 -0.2428 -1.5020
20355SOL    HW264468   1.538   7.254   7.263 -3.3960 -0.0499 -0.6798
20356SOL     OW64469   3.785  10.181   4.412  0.2121 -0.1197 -0.0361
20356SOL    HW164470   3.739  10.205   4.493  0.5810  0.5783 -0.0280
20356SOL    HW264471   3.875  10.165   4.440  0.0236 -1.3573 -0.0743
20357SOL     OW64472   9.925   7.579   4.509 -0.0307 -0.3849 -0.4159
20357SOL    HW164473   9.868   7.551   4.437  0.3928  1.0899 -1.3774
20357SOL    HW264474   9.871   7.641   4.559 -0.1916 -1.1132  0.3378
20358SOL     OW64475  10.125   3.286   5.519  0.2043 -0.1714 -0.1667
20358SOL    HW164476  10.216   3.262   5.535  0.3204  0.5021  0.2407
20358SOL    HW264477  10.075   3.207   5.537  0.8198 -0.9623 -1.7865
20359SOL     OW64478  10.507  10.211   5.753 -0.2785 -0.1524  0.3282
20359SOL    HW164479  10.524  10.304   5.767 -0.4173  0.0820 -0.9584
20359SOL    HW264480  10.458  10.207   5.671 -1.8514 -1.2309  1.2676
20360SOL     OW64481  10.366   3.413   9.553 -0.2087 -0.5810 -0.2620
20360SOL    HW164482  10.417   3.494   9.557 -1.9075  0.5912 -0.9636
20360SOL    HW264483  10.349   3.390   9.645 -0.2803  0.2545 -0.0607
20361SOL     OW64484   8.306   1.522  10.195 -0.1210  0.0918  0.1460
20361SOL    HW164485   8.218   1.497  10.225 -0.1499 -1.4034 -1.0677
20361SOL    HW264486   8.304   1.506  10.100  1.4892 -0.0724  0.1138
20362SOL     OW64487   7.191   4.550  10.579 -0.1195  0.2820 -0.2589
20362SOL    HW164488   7.243   4.469  10.573 -1.3376 -0.4471 -1.5899
20362SOL    HW264489   7.100   4.521  10.578 -0.5967  1.6921 -1.4027
20363SOL     OW64490   1.183   5.980   3.844 -0.9368  0.4674  0.0817
20363SOL    HW164491   1.248   6.023   3.789 -0.0959 -0.5012  0.2934
20363SOL    HW264492   1.105   5.974   3.789 -0.6425  1.0075 -0.4104
20364SOL     OW64493   3.183   4.870   8.408 -0.1211 -0.3192 -0.0604
20364SOL    HW164494   3.190   4.847   8.315  0.6963 -2.4990  0.4869
20364SOL    HW264495   3.208   4.963   8.411  0.4929 -0.3766 -1.9298
20365SOL     OW64496   9.561   3.453  10.362 -0.2906 -0.1212  0.4018
20365SOL    HW164497   9.648   3.453  10.401  0.2872 -0.0573 -0.8522
20365SOL    HW264498   9.530   3.363  10.373  0.4403 -0.4576 -0.2120
20366SOL     OW64499   8.718   9.653   8.483  0.5875  0.0176 -0.1819
20366SOL    HW164500   8.671   9.736   8.476  1.3407  0.5109  0.4833
20366SOL    HW264501   8.687   9.615   8.566  1.7116  0.5933  0.5326
20367SOL     OW64502   4.717   4.631   7.345 -0.4020 -0.0851 -0.0658
20367SOL    HW164503   4.641   4.644   7.402  0.6651  2.4877  0.9460
20367SOL    HW264504   4.710   4.700   7.279  0.1196 -0.9588 -1.0568
20368SOL     OW64505   0.347   3.575  10.112 -0.7157  0.1203 -0.4849
20368SOL    HW164506   0.329   3.482  10.098 -0.4946 -0.0945  0.5639
20368SOL    HW264507   0.361   3.611  10.024 -0.2174 -0.9541 -0.8580
20369SOL     OW64508   3.093   2.756   7.386  0.0957  0.8151  0.3267
20369SOL    HW164509   3.175   2.782   7.427  0.5485  0.4889 -0.3432
20369SOL    HW264510   3.119   2.690   7.321 -0.8436 -0.2170  0.9659
20370SOL     OW64511   3.931   4.088   6.084  0.0117 -0.2662  0.1748
20370SOL    HW164512   3.928   4.146   6.160 -1.0281  0.8243 -0.6564
20370SOL    HW264513   3.887   4.008   6.113  1.1504 -0.5315  1.2250
20371SOL     OW64514   4.687   2.921   1.982 -0.3246 -0.3326  0.2590
20371SOL    HW164515   4.640   2.921   1.899 -0.0953  1.2598  0.0899
20371SOL    HW264516   4.778   2.937   1.958 -0.5563  2.4539  0.8811
20372SOL     OW64517   4.694   1.968  10.063 -0.2857  0.6660 -0.5504
20372SOL    HW164518   4.660   1.961   9.974  0.8168 -0.2894 -0.9176
20372SOL    HW264519   4.678   2.059  10.087 -0.0765  1.1078 -1.9526
20373SOL     OW64520   7.344   8.516  10.843  0.6073  0.5562 -0.2694
20373SOL    HW164521   7.344   8.530  10.937 -0.4558  0.3845 -0.2314
20373SOL    HW264522   7.338   8.604  10.805  0.1459  0.5800 -0.1516
20374SOL     OW64523   8.628   0.161  10.003  0.4193 -0.2790 -0.2055
20374SOL    HW164524   8.670   0.190  10.084  2.0129  2.9509 -1.9819
20374SOL    HW264525   8.700   0.145   9.943 -0.7644 -0.5687 -1.6083
20375SOL     OW64526   5.317   9.673   5.358 -0.3782 -0.8116 -0.6901
20375SOL    HW164527   5.357   9.748   5.403 -2.0155  0.4366 -1.2039
20375SOL    HW264528   5.253   9.638   5.420 -0.5935 -0.9029 -0.9592
20376SOL     OW64529   9.134   1.244   0.401  0.0809  0.2438 -0.3807
20376SOL    HW164530   9.201   1.190   0.358  1.2685 -0.0365  1.7159
20376SOL    HW264531   9.160   1.246   0.493 -1.3368  2.3620  0.0344
20377SOL     OW64532  10.918   3.507   4.915 -0.0183 -0.7493  0.4932
20377SOL    HW164533  10.998   3.464   4.882  0.0411 -0.6610  0.5233
20377SOL    HW264534  10.861   3.434   4.938  0.3518 -0.8224  1.2005
20378SOL     OW64535   1.145   3.303   9.404  0.0191  0.4125 -0.1425
20378SOL    HW164536   1.188   3.372   9.454  0.4052 -1.5511  2.4217
20378SOL    HW264537   1.051   3.320   9.416  0.1089  0.0980  1.1066
20379SOL     OW64538   7.872   4.132   1.198  0.3688  0.2796 -1.0744
20379SOL    HW164539   7.956   4.117   1.154  0.9406  1.9987 -0.6321
20379SOL    HW264540   7.877   4.079   1.277  0.6927 -0.2635 -1.4481
20380SOL     OW64541   5.637   3.865   0.642  0.2292 -0.5974  0.0313
20380SOL    HW164542   5.623   3.902   0.555 -1.6696  1.0397  0.9691
20380SOL    HW264543   5.697   3.926   0.684 -0.8666  0.0323  0.7081
20381SOL     OW64544   1.396   0.666   6.611  0.3791 -0.2082 -0.2922
20381SOL    HW164545   1.432   0.642   6.525  1.7210  1.6014 -0.2985
20381SOL    HW264546   1.411   0.589   6.665 -0.8899 -1.5566 -1.7582
20382SOL     OW64547   2.116   4.197   3.034 -0.3329  0.0808  0.0730
20382SOL    HW164548   2.096   4.290   3.043 -0.2561 -0.0364  1.6157
20382SOL    HW264549   2.208   4.194   3.008 -0.1133  0.4239  0.8002
20383SOL     OW64550   1.148   5.790   5.473 -0.2348 -0.2367 -0.3068
20383SOL    HW164551   1.207   5.725   5.511 -1.6612 -0.8205  0.9714
20383SOL    HW264552   1.202   5.869   5.466  0.2828 -0.2783  2.3622
20384SOL     OW64553  10.267  10.158   2.861  0.1358 -0.0459  0.5376
20384SOL    HW164554  10.259  10.228   2.796 -1.7613  0.8343  1.6355
20384SOL    HW264555  10.211  10.088   2.828  1.2729 -0.7004 -0.0704
20385SOL     OW64556   4.322   8.013   3.743  0.0444  0.2147  0.4147
20385SOL    HW164557   4.360   8.022   3.830  0.9452 -1.6479  0.2561
20385SOL    HW264558   4.229   8.031   3.755  0.3428  1.1367  1.5141
20386SOL     OW64559   9.381   0.552   5.320  0.0718 -0.0609  0.0811
20386SOL    HW164560   9.453   0.540   5.382  0.1006 -0.2579  0.0105
20386SOL    HW264561   9.355   0.463   5.296  0.3442  0.0162 -0.5164
20387SOL     OW64562   5.712   7.512  10.878 -0.2736 -0.8034  0.2260
20387SOL    HW164563   5.766   7.582  10.916 -1.5194  0.3110  0.0327
20387SOL    HW264564   5.670   7.471  10.953 -0.8016 -0.2514  0.2394
20388SOL     OW64565   8.378   5.560   3.193 -0.9457  0.2582  0.7477
20388SOL    HW164566   8.431   5.509   3.133 -2.2566 -1.1825  0.7326
20388SOL    HW264567   8.354   5.638   3.144  0.0542  0.3092  0.3099
20389SOL     OW64568   4.909   2.978   7.559  0.2782  0.8536  0.2385
20389SOL    HW164569   4.924   3.019   7.644  1.8826 -0.0740  0.4323
20389SOL    HW264570   4.973   3.019   7.501 -0.1806  0.8074 -0.3101
20390SOL     OW64571   3.140   3.521   5.511  0.6529  0.5130 -0.3071
20390SOL    HW164572   3.172   3.588   5.571  0.1434  0.5761 -0.1055
20390SOL    HW264573   3.047   3.541   5.499  0.3954 -0.4025  0.0828
20391SOL     OW64574  10.254   4.746   9.361  0.0176  0.1663 -0.1993
20391SOL    HW164575  10.337   4.774   9.399 -0.8830  1.9624  0.5866
20391SOL    HW264576  10.250   4.790   9.276 -1.3715  2.5778  1.0097
20392SOL     OW64577  10.421   7.743   4.626 -0.0124  0.0076 -0.0209
20392SOL    HW164578  10.342   7.755   4.573  0.0112 -3.1268 -1.0019
20392SOL    HW264579  10.493   7.767   4.568 -0.0961 -1.2961 -0.7030
20393SOL     OW64580   4.647   6.635   5.916  0.0613 -0.5135 -0.4321
20393SOL    HW164581   4.737   6.639   5.883  0.5390  0.5687  0.9144
20393SOL    HW264582   4.656   6.637   6.011 -1.4196  1.0443 -0.2714
20394SOL     OW64583  10.676   6.403   5.894 -0.3280 -0.0338  0.5031
20394SOL    HW164584  10.614   6.473   5.872 -0.9376 -1.0129 -1.1244
20394SOL    HW264585  10.752   6.420   5.837  0.6040  0.7019  1.9133
20395SOL     OW64586   5.490   7.372   7.120  0.0140 -0.3438 -0.0065
20395SOL    HW164587   5.496   7.355   7.026 -1.8315 -0.5366 -0.1282
20395SOL    HW264588   5.534   7.456   7.132 -0.8877  0.3378 -1.2708
20396SOL     OW64589  10.793   1.803   5.067  0.6005  0.0017  0.1850
20396SOL    HW164590  10.811   1.812   4.974 -0.8830  0.6685 -0.0731
20396SOL    HW264591  10.703   1.770   5.071 -0.7679  3.3570  1.3175
20397SOL     OW64592   5.057   3.377   0.815  0.4652  0.0434  0.0459
20397SOL    HW164593   5.048   3.469   0.838 -0.1345 -0.3042  1.2781
20397SOL    HW264594   4.986   3.360   0.754  1.4858  0.7423 -1.3914
20398SOL     OW64595   2.654   8.478   6.596  0.4201  0.0786  0.7674
20398SOL    HW164596   2.604   8.400   6.572  0.3584  0.8701 -2.0780
20398SOL    HW264597   2.587   8.542   6.622  0.2037  0.0915  0.1984
20399SOL     OW64598   0.645   2.417   9.381 -0.3081  0.2020  0.0602
20399SOL    HW164599   0.670   2.393   9.470 -1.8519  0.3031  0.5597
20399SOL    HW264600   0.723   2.458   9.344  0.1775  0.7363  1.5881
20400SOL     OW64601   0.433   5.496   5.635  0.2870 -0.4309 -0.3242
20400SOL    HW164602   0.495   5.431   5.602  1.8497  0.3731  0.9075
20400SOL    HW264603   0.418   5.555   5.561  2.5850  0.5025 -0.1072
20401SOL     OW64604   2.031   2.021   3.419 -0.0707  0.2566  0.3988
20401SOL    HW164605   1.954   2.009   3.474 -0.5163  1.2008 -0.0086
20401SOL    HW264606   2.049   2.115   3.422  0.3824  0.2056 -0.4218
20402SOL     OW64607   3.378   8.892   6.393  0.1150  0.4355 -0.0156
20402SOL    HW164608   3.401   8.805   6.425 -0.8188  0.4570  0.7609
20402SOL    HW264609   3.391   8.950   6.468 -0.7700  0.7054 -0.0584
20403SOL     OW64610  10.878   0.824   1.146  0.4328 -0.5491 -0.0899
20403SOL    HW164611  10.844   0.908   1.177  1.2073 -0.4788  0.6147
20403SOL    HW264612  10.972   0.828   1.166  0.7249 -1.0374 -1.2887
20404SOL     OW64613   4.953  10.866   8.558  0.2251 -0.5288 -0.1893
20404SOL    HW164614   4.892  10.915   8.503  0.2178 -0.2762  0.0446
20404SOL    HW264615   4.963  10.920   8.637 -1.5294 -1.9751  1.0815
20405SOL     OW64616   0.898   1.978   1.445 -0.1062 -0.0333 -0.2292
20405SOL    HW164617   0.837   1.920   1.399 -0.2815 -0.1805  0.1858
20405SOL    HW264618   0.872   1.972   1.537  0.3244  0.1567 -0.0931
20406SOL     OW64619   8.519   8.863   0.878  0.2710  0.7489  0.3042
20406SOL    HW164620   8.603   8.830   0.847 -0.1192  0.5244 -0.5412
20406SOL    HW264621   8.540   8.909   0.960  1.4371  1.8730 -0.5754
20407SOL     OW64622   5.956   1.748   3.606 -0.1257  0.3273 -0.1130
20407SOL    HW164623   5.879   1.776   3.655 -0.9728  0.5247 -1.4981
20407SOL    HW264624   6.026   1.805   3.638 -1.0977  1.8401 -0.5454
20408SOL     OW64625   4.323  10.863  10.200 -0.0335  0.2173  0.5135
20408SOL    HW164626   4.401  10.819  10.165  0.9358  1.7795  0.6119
20408SOL    HW264627   4.289  10.802  10.266  0.9033 -0.6533  0.2203
20409SOL     OW64628  10.044   2.449   6.427 -0.4332  0.4393 -0.4947
20409SOL    HW164629   9.996   2.432   6.346  1.6128  0.1210 -1.7089
20409SOL    HW264630   9.995   2.520   6.469 -3.8896 -2.0088  0.1112
20410SOL     OW64631  10.587   6.164   5.992 -0.0951 -0.4161 -0.0987
20410SOL    HW164632  10.494   6.164   6.011  0.0022 -0.4666  0.3799
20410SOL    HW264633  10.603   6.249   5.950 -0.0631  0.2822  1.2726
20411SOL     OW64634   8.411   0.995  10.377 -0.3866  0.0213  0.2379
20411SOL    HW164635   8.446   0.951  10.454  1.0114  1.0593  0.2280
20411SOL    HW264636   8.459   0.957  10.303  0.5957  1.2693  0.2012
20412SOL     OW64637   1.971   5.429   6.869  0.5871  0.3864 -0.1199
20412SOL    HW164638   2.056   5.468   6.889  0.6812 -0.4330  1.2111
20412SOL    HW264639   1.983   5.386   6.784  1.9628 -0.9785  0.7251
20413SOL     OW64640   2.546  10.397   3.817  0.5148 -0.4218 -0.6225
20413SOL    HW164641   2.593  10.480   3.825  1.5364 -1.0979  0.9091
20413SOL    HW264642   2.502  10.386   3.902  0.3930 -1.4433 -0.8021
20414SOL     OW64643  10.470   8.227   8.627  0.3982 -0.5127  0.3072
20414SOL    HW164644  10.483   8.290   8.699 -0.0480 -1.0239  0.8417
20414SOL    HW264645  10.483   8.142   8.668 -1.5104 -0.9102  0.1777
20415SOL     OW64646   9.907   8.055   7.329 -0.7351  0.4243  0.0968
20415SOL    HW164647   9.880   7.965   7.313 -2.3028  1.0294 -0.9768
20415SOL    HW264648   9.927   8.090   7.243  0.5970  0.9034  0.5839
20416SOL     OW64649   1.710   6.164   3.401  0.1243 -0.5530  0.5370
20416SOL    HW164650   1.624   6.128   3.375 -0.0150 -0.1626  0.4482
20416SOL    HW264651   1.733   6.116   3.481  0.3795 -1.5051 -0.0861
20417SOL     OW64652   9.772   4.694   3.899 -0.0886  0.5453 -0.0645
20417SOL    HW164653   9.815   4.640   3.964 -1.0435  1.5571  1.4824
20417SOL    HW264654   9.812   4.780   3.909 -0.3033  0.7334 -0.7631
20418SOL     OW64655   3.470   8.354   7.929 -0.2095 -0.3557  0.6127
20418SOL    HW164656   3.502   8.436   7.968  0.1453 -0.7460  1.1491
20418SOL    HW264657   3.450   8.377   7.838 -1.8017  0.7695  1.1935
20419SOL     OW64658   4.009   3.287   3.590  0.5611  0.1797  0.0700
20419SOL    HW164659   3.942   3.278   3.521  1.2442 -0.9496 -0.4555
20419SOL    HW264660   4.082   3.330   3.546  0.0026  2.0297  0.8062
20420SOL     OW64661   5.417   0.186   1.518  0.4908  0.1758  0.5247
20420SOL    HW164662   5.404   0.180   1.612 -0.2083 -1.6438  0.3579
20420SOL    HW264663   5.407   0.279   1.498 -0.8239  0.4030  2.0372
20421SOL     OW64664   5.955   7.322   9.918  0.0567 -0.2404 -0.3284
20421SOL    HW164665   5.871   7.302   9.961 -0.8516  0.2457 -1.7881
20421SOL    HW264666   6.008   7.361   9.987 -1.0409 -0.2597  0.5640
20422SOL     OW64667   3.084   5.827   7.290  0.4672 -0.3793  0.1112
20422SOL    HW164668   3.053   5.895   7.229  1.1693  0.5175  0.7324
20422SOL    HW264669   3.019   5.757   7.282 -0.4338  0.4811 -0.3420
20423SOL     OW64670   3.926   9.767   0.127 -0.0307 -0.1226 -0.3967
20423SOL    HW164671   3.861   9.751   0.196  1.8653 -1.8883  1.1037
20423SOL    HW264672   3.882   9.739   0.047 -1.5158 -0.1585  0.3786
20424SOL     OW64673   4.245   5.362   8.445 -0.9867  0.3611  0.0146
20424SOL    HW164674   4.205   5.281   8.479 -1.3747  0.9470  1.0089
20424SOL    HW264675   4.177   5.429   8.457 -0.8543  0.7384 -1.2828
20425SOL     OW64676   2.255   4.725   1.336 -0.1049 -0.1742 -0.3099
20425SOL    HW164677   2.279   4.755   1.248  1.0031  0.4472  0.1726
20425SOL    HW264678   2.290   4.636   1.341  0.7103  0.1353 -0.1883
20426SOL     OW64679   2.291   5.847   6.359 -0.0918  0.2253  0.5121
20426SOL    HW164680   2.368   5.874   6.409  0.8486 -0.9010 -0.2904
20426SOL    HW264681   2.302   5.752   6.347  0.2802  0.5733 -2.7123
20427SOL     OW64682   5.336   0.635   8.847 -0.5222  0.2905  0.1553
20427SOL    HW164683   5.425   0.670   8.858 -0.8293  0.4052  3.6078
20427SOL    HW264684   5.346   0.541   8.859 -0.8223  0.2957  0.4756
20428SOL     OW64685   1.437   7.803   2.151 -0.1533 -0.0064 -0.1303
20428SOL    HW164686   1.393   7.719   2.138  0.5638 -0.6171  1.1322
20428SOL    HW264687   1.500   7.786   2.221  1.0673  1.2042 -0.8772
20429SOL     OW64688   9.115   3.927   3.831  0.0230  0.2843  0.1579
20429SOL    HW164689   9.044   3.936   3.767  0.4581  1.1063 -0.2253
20429SOL    HW264690   9.194   3.920   3.778  0.1655 -1.5023  0.5561
20430SOL     OW64691   4.062   3.288   6.053  0.1276  0.4064 -0.5571
20430SOL    HW164692   4.094   3.378   6.064  2.2610 -0.2839 -0.5971
20430SOL    HW264693   4.070   3.249   6.139 -0.4780  0.1563 -0.6141
20431SOL     OW64694   2.574   4.200   2.375  0.4487  0.0529 -0.2511
20431SOL    HW164695   2.619   4.232   2.453  0.7369 -1.3653  0.1868
20431SOL    HW264696   2.599   4.261   2.306 -0.0725  1.5317  0.8196
20432SOL     OW64697   3.422   6.172   7.989  0.0959 -0.1435  0.4275
20432SOL    HW164698   3.429   6.258   7.948  1.1337 -0.7979 -0.8382
20432SOL    HW264699   3.382   6.116   7.922 -0.4761 -0.6791  1.1970
20433SOL     OW64700   5.306   6.856   4.505  0.6186  0.2004 -0.1117
20433SOL    HW164701   5.308   6.830   4.597  2.5511  1.4736  0.2615
20433SOL    HW264702   5.218   6.893   4.492 -0.3145 -1.6392  0.6905
20434SOL     OW64703   0.397   6.396   6.162 -0.2245  0.4407  0.4558
20434SOL    HW164704   0.354   6.473   6.127  0.8577  0.4377 -0.9709
20434SOL    HW264705   0.338   6.323   6.140  0.4005  0.4507 -1.3549
20435SOL     OW64706   0.178  10.679   0.691  0.1888 -0.5543 -0.2653
20435SOL    HW164707   0.261  10.718   0.719 -1.4462  2.2538  1.0203
20435SOL    HW264708   0.151  10.625   0.765  0.9389 -1.7166 -0.8033
20436SOL     OW64709   3.686   9.590   1.058 -0.3268  0.1656  0.2195
20436SOL    HW164710   3.727   9.505   1.075  0.2818  0.3099 -0.4827
20436SOL    HW264711   3.657   9.585   0.967 -0.9143  0.4624  0.3862
20437SOL     OW64712   1.030   4.574   5.548 -0.1064 -0.7979  0.2425
20437SOL    HW164713   0.951   4.520   5.545 -0.3165 -0.5135  0.5959
20437SOL    HW264714   1.090   4.533   5.485  0.0256 -1.8968  1.0610
20438SOL     OW64715   7.928   1.612  10.083 -0.6965 -0.0592  0.0999
20438SOL    HW164716   7.864   1.649  10.022 -0.7064 -1.5718 -0.8676
20438SOL    HW264717   7.911   1.517  10.080 -0.5851 -0.2015  2.3509
20439SOL     OW64718   6.222   4.467   2.543 -0.1646 -0.1678  0.0796
20439SOL    HW164719   6.138   4.467   2.495 -0.3174 -0.3803  0.3473
20439SOL    HW264720   6.277   4.527   2.493 -0.7220  0.5641  0.3222
20440SOL     OW64721   7.891   5.528   5.622  0.3757 -0.6003  1.1403
20440SOL    HW164722   7.904   5.452   5.678  1.1011  0.1536  2.0037
20440SOL    HW264723   7.803   5.560   5.645  0.8863  0.0371  2.2705
20441SOL     OW64724   9.096   0.554   0.353  0.6305 -0.3574 -0.0601
20441SOL    HW164725   9.048   0.627   0.392  3.2032  0.9643  0.9012
20441SOL    HW264726   9.137   0.591   0.275  3.1129 -0.2382  1.1899
20442SOL     OW64727  10.348   8.973   4.243  0.1953 -0.3525  0.4317
20442SOL    HW164728  10.257   8.954   4.223  0.3050 -0.8658  0.4043
20442SOL    HW264729  10.355   8.959   4.337 -0.3360  2.1157  0.9056
20443SOL     OW64730   9.560   0.232   8.806  0.3615 -0.6571  0.3269
20443SOL    HW164731   9.607   0.259   8.884  0.0342 -0.0266  0.3098
20443SOL    HW264732   9.626   0.189   8.752  0.8066 -0.2285  0.5200
20444SOL     OW64733   7.038  10.378   3.158  0.1014  0.1631 -0.4612
20444SOL    HW164734   6.973  10.314   3.188  1.0311 -0.7170 -0.2849
20444SOL    HW264735   7.103  10.326   3.111 -0.3937  1.2914 -2.5180
20445SOL     OW64736   9.327   1.335   5.889  0.1193  0.0443  0.7203
20445SOL    HW164737   9.387   1.260   5.887 -0.8423 -0.7459  0.2930
20445SOL    HW264738   9.338   1.376   5.803  0.0664 -0.0905  0.6479
20446SOL     OW64739  10.128   6.202   8.572  0.0052 -0.2054 -0.4160
20446SOL    HW164740  10.113   6.212   8.666 -1.5831 -2.0990 -0.4151
20446SOL    HW264741  10.163   6.287   8.545 -0.0278  0.5719  1.7682
20447SOL     OW64742   2.776   1.714  10.341 -0.4520 -0.4103 -0.0300
20447SOL    HW164743   2.838   1.706  10.269 -0.9077 -0.6060 -0.4062
20447SOL    HW264744   2.830   1.704  10.420 -0.2815 -2.6332 -0.3727
20448SOL     OW64745   4.418  10.501   8.531 -0.0944 -0.1141 -0.5039
20448SOL    HW164746   4.420  10.592   8.560  1.3713 -0.2979  0.0206
20448SOL    HW264747   4.325  10.477   8.535 -0.3561  0.9886  0.4801
20449SOL     OW64748   8.139  10.128   7.452  0.2501  0.2457 -0.3254
20449SOL    HW164749   8.087  10.184   7.395 -1.5022 -1.1116 -0.1350
20449SOL    HW264750   8.129  10.166   7.540 -1.7248 -0.8047 -0.0311
20450SOL     OW64751   6.713   7.512   1.897  0.2127  0.1460  0.4682
20450SOL    HW164752   6.635   7.490   1.948 -0.7123  3.3953  0.7312
20450SOL    HW264753   6.709   7.608   1.888  2.0442  0.0666 -2.9888
20451SOL     OW64754   2.381   6.542   5.600  0.2585  0.4607  0.3367
20451SOL    HW164755   2.443   6.553   5.528  0.3440 -0.4405  0.2592
20451SOL    HW264756   2.333   6.625   5.602  1.6122  1.2771  0.5576
20452SOL     OW64757  10.103   8.573   0.102  0.1698 -0.4381 -0.5795
20452SOL    HW164758  10.078   8.488   0.138 -1.5360  0.1143 -0.3850
20452SOL    HW264759  10.177   8.553   0.044  1.0441 -1.7555  0.9126
20453SOL     OW64760   7.448  10.102   4.791  0.1301 -0.0375 -0.4440
20453SOL    HW164761   7.503  10.172   4.826  1.1905 -0.6195 -0.8713
20453SOL    HW264762   7.479  10.091   4.701 -1.3149  0.2120 -0.9933
20454SOL     OW64763   2.206   5.374   0.786  0.1009  0.5995 -0.4105
20454SOL    HW164764   2.202   5.305   0.720  0.1556  0.0791  0.1308
20454SOL    HW264765   2.299   5.394   0.794  0.2240 -0.3094  0.5126
20455SOL     OW64766   2.206   3.241   0.128 -0.2784  0.2536 -0.1800
20455SOL    HW164767   2.252   3.216   0.209  1.4780  1.2504 -0.8133
20455SOL    HW264768   2.194   3.159   0.081  0.7162 -0.0716  0.1073
20456SOL     OW64769   1.692   3.712   6.612  0.2166  0.2167  0.7549
20456SOL    HW164770   1.785   3.692   6.600 -0.1490 -1.2690  0.2492
20456SOL    HW264771   1.672   3.680   6.700 -0.4447 -2.1270 -0.1729
20457SOL     OW64772   0.137   1.084   0.071 -0.2886  0.4935 -0.4417
20457SOL    HW164773   0.096   1.015   0.018  2.3750 -0.5543 -1.3267
20457SOL    HW264774   0.185   1.137   0.008 -0.3611  1.7288  0.5083
20458SOL     OW64775   1.026   0.125   1.243 -0.1729 -0.0843 -0.2492
20458SOL    HW164776   0.964   0.113   1.315  1.7099  0.6742  1.6105
20458SOL    HW264777   1.032   0.220   1.233  1.4967 -0.0915  0.4106
20459SOL     OW64778   4.098   9.168   7.242  0.0322  0.4239  0.5109
20459SOL    HW164779   4.141   9.253   7.243  2.8255 -0.8796  0.1889
20459SOL    HW264780   4.157   9.110   7.289 -0.4766 -1.8974 -1.4849
20460SOL     OW64781   6.230   2.193   8.667 -0.0192  0.0692  0.0913
20460SOL    HW164782   6.255   2.233   8.751 -1.4082 -0.3040  0.7045
20460SOL    HW264783   6.159   2.133   8.689 -0.1139 -0.3551 -1.2990
20461SOL     OW64784   1.419   9.011   4.353  0.0870  0.2455  0.2372
20461SOL    HW164785   1.409   8.990   4.446  1.7946 -1.2968  0.1237
20461SOL    HW264786   1.440   9.105   4.353 -2.4527  0.8868  1.1691
20462SOL     OW64787   6.982   5.485   1.288  0.0381  0.1196 -0.3550
20462SOL    HW164788   6.902   5.503   1.239 -0.2440 -0.0001  0.0571
20462SOL    HW264789   7.045   5.551   1.257 -0.0846 -0.0543 -0.9869
20463SOL     OW64790   2.791   2.392   3.346 -0.3704 -0.2126  0.3281
20463SOL    HW164791   2.737   2.423   3.419  0.4098  1.2330  0.3250
20463SOL    HW264792   2.761   2.443   3.271  0.6931  0.3100  0.2391
20464SOL     OW64793   9.270   8.310   9.408 -0.2819  0.2464 -0.2749
20464SOL    HW164794   9.178   8.328   9.390 -0.5050 -1.0651 -0.5555
20464SOL    HW264795   9.271   8.217   9.434  0.7799  0.6037  1.0444
20465SOL     OW64796   6.884  10.072   0.690  0.7477 -0.5256 -0.3500
20465SOL    HW164797   6.812  10.101   0.745  1.5304 -1.2677  1.1453
20465SOL    HW264798   6.900   9.981   0.717  3.5903  0.2361  0.9311
20466SOL     OW64799   1.692   1.565   4.369  0.1445  0.5745  0.3529
20466SOL    HW164800   1.653   1.639   4.414 -0.9713  0.6407 -0.6672
20466SOL    HW264801   1.628   1.495   4.377  0.6095  0.1196  0.1934
20467SOL     OW64802   6.516   8.837   5.607 -0.4471  0.0262 -0.3994
20467SOL    HW164803   6.591   8.894   5.621 -1.4231  1.2573 -0.0985
20467SOL    HW264804   6.483   8.817   5.694 -1.1503  0.4132 -0.5708
20468SOL     OW64805   3.701   5.808   6.952  0.3704 -0.6278  0.0686
20468SOL    HW164806   3.752   5.885   6.925 -0.2812  0.3852  1.6007
20468SOL    HW264807   3.704   5.750   6.875  1.3788  0.6461 -0.9177
20469SOL     OW64808   5.175   2.716   3.424 -0.3700 -0.7928 -0.2182
20469SOL    HW164809   5.210   2.648   3.367  2.0941 -0.3031  0.5742
20469SOL    HW264810   5.220   2.796   3.395 -1.2825  0.0053  0.5162
20470SOL     OW64811  10.150   3.471   2.819  0.1208 -0.2105 -0.7397
20470SOL    HW164812  10.183   3.474   2.908  0.2876 -1.6787 -0.7230
20470SOL    HW264813  10.215   3.519   2.767  0.3314  0.1295 -0.1744
20471SOL     OW64814   1.285   1.823   2.515  0.2945 -0.4113 -0.6193
20471SOL    HW164815   1.346   1.758   2.549 -1.1445 -1.6394 -0.2601
20471SOL    HW264816   1.203   1.806   2.562 -0.6345  0.4709 -1.8466
20472SOL     OW64817   1.209   4.761   4.391  0.1995  0.1612  0.3433
20472SOL    HW164818   1.194   4.817   4.315  0.1431 -1.3644 -0.8266
20472SOL    HW264819   1.196   4.818   4.466 -0.3575  1.5774 -0.7829
20473SOL     OW64820   4.130  10.720  10.100  0.2546  0.1636  0.1037
20473SOL    HW164821   4.159  10.629  10.108  0.0616  0.1251  0.3954
20473SOL    HW264822   4.211  10.771  10.106  0.4470 -0.0151 -0.8104
20474SOL     OW64823   3.870   7.239   7.685 -0.3017 -0.4652 -0.4958
20474SOL    HW164824   3.964   7.254   7.688 -0.1468 -1.3590 -0.5731
20474SOL    HW264825   3.851   7.222   7.593 -0.7156  0.7528 -0.6422
20475SOL     OW64826   1.672   2.757  10.071 -0.3795 -0.4974 -0.4690
20475SOL    HW164827   1.732   2.769   9.997  0.0827  1.4210  0.1484
20475SOL    HW264828   1.658   2.663  10.076  0.9497 -0.8136 -1.9209
20476SOL     OW64829   3.571   7.522  10.802 -0.0394  0.3037  0.2360
20476SOL    HW164830   3.513   7.511  10.877  1.1646 -1.3609  0.9754
20476SOL    HW264831   3.609   7.609  10.813 -1.5451  0.9930  0.2990
20477SOL     OW64832   3.585   8.841  10.106  0.0520 -0.6128 -0.3676
20477SOL    HW164833   3.519   8.858  10.038 -1.8444 -2.5707  0.8789
20477SOL    HW264834   3.535   8.831  10.187  2.2748  2.3080  1.5982
20478SOL     OW64835  10.056   4.402  10.142  0.3317  0.0002 -0.0205
20478SOL    HW164836  10.074   4.334  10.207 -0.8553 -0.9586 -0.6508
20478SOL    HW264837  10.012   4.356  10.071  0.4506  1.2593 -0.9463
20479SOL     OW64838   6.536   5.176   2.853  0.3646  0.3770 -0.1492
20479SOL    HW164839   6.589   5.141   2.925  1.4319  2.1317 -0.0178
20479SOL    HW264840   6.593   5.170   2.776 -0.0607  0.2897 -0.4613
20480SOL     OW64841   9.737   6.675   0.642 -0.5292 -0.0520  0.6020
20480SOL    HW164842   9.673   6.628   0.589  0.5096 -0.6976 -0.1014
20480SOL    HW264843   9.711   6.767   0.635 -0.7620 -0.1881 -0.5399
20481SOL     OW64844   1.638   1.654   5.892  0.1206 -0.8398 -0.5186
20481SOL    HW164845   1.564   1.604   5.926 -1.1165  0.5666 -1.0146
20481SOL    HW264846   1.615   1.673   5.801  0.3046  0.9887 -0.2274
20482SOL     OW64847   4.999   9.173   9.803 -0.0143  0.2225 -0.4722
20482SOL    HW164848   5.092   9.170   9.827  0.6526 -0.3132 -2.7908
20482SOL    HW264849   4.981   9.265   9.786 -0.0580  0.3865  0.4075
20483SOL     OW64850   1.822   3.034   7.751  0.0143  0.5712  0.2729
20483SOL    HW164851   1.779   3.117   7.775  1.2240  1.3079 -0.0448
20483SOL    HW264852   1.843   3.044   7.659 -1.0199 -0.6565 -0.1328
20484SOL     OW64853   7.059   3.487   5.032  0.0652 -0.0596  0.3965
20484SOL    HW164854   7.062   3.545   4.956  1.5205 -0.7889 -0.1326
20484SOL    HW264855   6.972   3.447   5.027 -0.3107  0.7907 -0.1899
20485SOL     OW64856   3.234   9.235   4.604  0.3312 -0.0707 -0.4342
20485SOL    HW164857   3.248   9.287   4.683 -1.3992  2.1993 -1.5319
20485SOL    HW264858   3.268   9.289   4.532  0.0471 -1.2108 -1.4735
20486SOL     OW64859   7.968   1.748   0.758 -0.5562 -0.2489 -0.8129
20486SOL    HW164860   7.988   1.834   0.795  0.0175 -1.0393  0.8266
20486SOL    HW264861   7.935   1.767   0.670  1.3350  1.5538 -1.2349
20487SOL     OW64862   3.331   6.085   2.420 -0.5940 -0.0912  0.4690
20487SOL    HW164863   3.415   6.117   2.388 -1.7618  0.9276 -1.7874
20487SOL    HW264864   3.308   6.144   2.492  0.3612 -0.0546  0.7519
20488SOL     OW64865   5.230   1.553   9.526  0.2969  0.4024  0.0161
20488SOL    HW164866   5.260   1.525   9.439 -0.9074 -0.3193 -0.1928
20488SOL    HW264867   5.233   1.473   9.579 -0.2957  0.5272  0.2488
20489SOL     OW64868   6.386   7.674   5.753 -0.0835 -0.4589 -0.1470
20489SOL    HW164869   6.298   7.664   5.719  0.2867 -2.1087 -0.6936
20489SOL    HW264870   6.435   7.717   5.683  0.0712 -1.5565 -0.7190
20490SOL     OW64871   4.967   1.702   2.123  0.2120  0.1899  0.0254
20490SOL    HW164872   4.956   1.797   2.110  1.0646  0.3139  0.1533
20490SOL    HW264873   5.057   1.685   2.097  0.1747 -0.5324  0.3549
20491SOL     OW64874   5.490   6.798   8.965 -0.3965  0.4793 -0.2919
20491SOL    HW164875   5.492   6.862   9.036  0.1104  1.8215 -1.4738
20491SOL    HW264876   5.531   6.719   9.002  0.1220  1.2473  0.8044
20492SOL     OW64877   1.022   5.174   3.277 -0.2200  0.0745  0.2590
20492SOL    HW164878   0.969   5.112   3.226  0.1466  0.3868 -0.5313
20492SOL    HW264879   0.964   5.205   3.346 -0.5511 -0.8021  0.3779
20493SOL     OW64880   7.278  10.836   4.705  0.2197  0.0620 -0.0872
20493SOL    HW164881   7.204  10.881   4.747 -0.2724 -0.1876 -0.6692
20493SOL    HW264882   7.244  10.807   4.621  0.7016 -0.8838  0.0277
20494SOL     OW64883   9.802   5.478   0.001  0.0233  0.1530  0.9072
20494SOL    HW164884   9.845   5.461   0.085 -1.7387 -0.2784  1.7689
20494SOL    HW264885   9.717   5.435   0.008 -1.5908  3.0129  0.2377
20495SOL     OW64886   2.421   4.268   1.903  0.1419  0.1988  0.2104
20495SOL    HW164887   2.374   4.246   1.984 -0.4535  0.2674 -0.1092
20495SOL    HW264888   2.361   4.325   1.855  0.7543  0.6890  0.0070
20496SOL     OW64889   3.566   9.128   1.883  0.4818  0.1244 -0.0054
20496SOL    HW164890   3.621   9.176   1.821  0.3671  0.1996 -0.0491
20496SOL    HW264891   3.512   9.071   1.828  0.8084 -0.2552  0.0607
20497SOL     OW64892   1.437   8.170   3.687 -0.2628  0.1118 -0.0140
20497SOL    HW164893   1.366   8.203   3.742 -2.0150 -1.4129 -1.2208
20497SOL    HW264894   1.482   8.248   3.656 -1.4142  1.1329  0.7803
20498SOL     OW64895   3.954   4.191   3.030 -0.3506 -0.8398  0.2776
20498SOL    HW164896   3.898   4.125   3.070 -0.6330 -0.0243  1.2819
20498SOL    HW264897   3.925   4.274   3.068  0.6534 -0.2507 -0.1823
20499SOL     OW64898   1.143   4.443   5.112  0.3028  0.4717  0.2124
20499SOL    HW164899   1.218   4.407   5.064 -0.0092  0.6296 -0.4004
20499SOL    HW264900   1.086   4.480   5.044 -0.0481  0.8826  0.7193
20500SOL     OW64901   1.362   4.015   6.024  0.2118 -0.1935  0.3074
20500SOL    HW164902   1.434   4.068   6.059 -1.1932  1.1771  1.2739
20500SOL    HW264903   1.364   3.935   6.076 -0.1365  0.6623  1.7019
20501SOL     OW64904   1.276   3.791   2.107  0.2757 -0.0427  0.8698
20501SOL    HW164905   1.195   3.793   2.158  0.9767 -1.2678  2.0786
20501SOL    HW264906   1.315   3.878   2.120 -0.6035  0.4016  0.6298
20502SOL     OW64907  10.105   0.039   8.695 -0.3912 -0.3001 -0.3823
20502SOL    HW164908  10.154   0.015   8.617  1.4915 -2.3128  1.3058
20502SOL    HW264909  10.102   0.135   8.693  0.9011 -0.2542 -2.1441
20503SOL     OW64910   0.319   2.675   1.372  0.1978 -0.2201 -0.1676
20503SOL    HW164911   0.315   2.693   1.278 -1.5709 -0.9340 -0.2740
20503SOL    HW264912   0.376   2.598   1.380 -0.8862 -1.1167 -0.8431
20504SOL     OW64913   0.054  10.327   5.502 -0.4580 -0.3089 -0.2569
20504SOL    HW164914   0.046  10.350   5.410 -0.9506 -0.8337 -0.3517
20504SOL    HW264915   0.028  10.406   5.549 -0.0242  0.0215 -0.5600
20505SOL     OW64916   5.333   0.327   3.890 -0.4356 -0.3789 -0.2079
20505SOL    HW164917   5.401   0.312   3.955 -0.5278 -1.4943 -0.3441
20505SOL    HW264918   5.254   0.342   3.942 -0.0915  0.9945 -0.0491
20506SOL     OW64919   6.890   1.759  10.257 -0.2742 -0.1114  0.0958
20506SOL    HW164920   6.957   1.820  10.287 -0.3623  0.0820 -0.1023
20506SOL    HW264921   6.916   1.675  10.295 -0.5405  0.1841  0.9532
20507SOL     OW64922   3.728   1.027   3.686 -0.0838 -0.1584  0.7707
20507SOL    HW164923   3.776   1.083   3.746  0.0888  1.1285 -0.4865
20507SOL    HW264924   3.636   1.040   3.710 -0.3816  3.4225 -1.5237
20508SOL     OW64925  10.847   6.797   1.801  0.4246  0.9872  0.4654
20508SOL    HW164926  10.919   6.821   1.742 -0.6544  0.1439 -1.2737
20508SOL    HW264927  10.772   6.847   1.770 -1.0148 -1.8900 -1.1148
20509SOL     OW64928   6.067  10.148   1.784  0.0449  0.0442 -0.5033
20509SOL    HW164929   6.054  10.097   1.704 -0.3829  1.4304 -1.3474
20509SOL    HW264930   6.012  10.226   1.772  0.2203  0.4287  1.0046
20510SOL     OW64931   1.014   8.061   0.762  0.0075  0.1380 -0.1734
20510SOL    HW164932   0.981   7.977   0.729  0.5227  0.5674 -1.8751
20510SOL    HW264933   0.941   8.098   0.811 -0.7129 -0.6790 -0.5953
20511SOL     OW64934  10.356   7.141   9.483  0.6305  0.6108 -0.0328
20511SOL    HW164935  10.405   7.107   9.558  1.2305  2.6046  0.5344
20511SOL    HW264936  10.275   7.176   9.521  0.1554  0.1318 -0.5704
20512SOL     OW64937   0.203   7.789   5.591  0.1011 -0.6279 -0.0934
20512SOL    HW164938   0.201   7.847   5.668  0.6840 -0.0231 -0.5164
20512SOL    HW264939   0.235   7.705   5.625  0.0400 -0.4595  0.3876
20513SOL     OW64940   6.322   5.654   8.926 -0.3006  0.1870  0.7778
20513SOL    HW164941   6.247   5.604   8.896  1.6893 -1.3170 -2.2050
20513SOL    HW264942   6.364   5.685   8.845  2.6527  0.3599  2.2450
20514SOL     OW64943   7.732   3.304   4.969  0.0357  0.1949 -0.2681
20514SOL    HW164944   7.746   3.398   4.977 -1.2800  0.7757 -3.4259
20514SOL    HW264945   7.663   3.284   5.033 -0.0999  1.4764  0.0033
20515SOL     OW64946   5.590   4.611   3.393 -0.8488  0.2569  0.1859
20515SOL    HW164947   5.575   4.583   3.483 -2.6487 -2.5828 -0.8359
20515SOL    HW264948   5.586   4.706   3.396  0.9257  0.3637  3.3136
20516SOL     OW64949  10.264   6.654   9.711 -0.1356  0.2393 -0.1233
20516SOL    HW164950  10.171   6.662   9.694 -0.3983  0.0928  1.1416
20516SOL    HW264951  10.273   6.674   9.804  1.0615  0.0319 -0.1776
20517SOL     OW64952   8.440   2.708   0.748  0.0322  0.1331 -0.2995
20517SOL    HW164953   8.460   2.632   0.694 -1.9553 -0.5013 -0.2289
20517SOL    HW264954   8.344   2.713   0.749  0.0813  2.1190  0.4333
20518SOL     OW64955   1.025   9.150   8.970  0.0813  0.5703 -0.1702
20518SOL    HW164956   1.093   9.217   8.976 -1.3388  2.1211 -0.6428
20518SOL    HW264957   0.976   9.172   8.891 -1.2940 -0.1867  0.4342
20519SOL     OW64958   9.017   7.587   2.090 -0.1451  0.1673 -0.2172
20519SOL    HW164959   8.957   7.548   2.027  0.3692 -1.8716  0.4646
20519SOL    HW264960   9.077   7.516   2.114  1.1250  1.5067  0.8217
20520SOL     OW64961   2.242   2.052   5.361  0.0034  0.0782  0.5460
20520SOL    HW164962   2.304   1.983   5.384  1.4563  1.6110  1.4071
20520SOL    HW264963   2.259   2.070   5.269  1.7595  1.3108  1.0603
20521SOL     OW64964   0.898   4.671   8.856 -0.2003  0.0142  0.6030
20521SOL    HW164965   0.912   4.722   8.935 -0.0070 -0.3853  0.8274
20521SOL    HW264966   0.880   4.582   8.887 -1.4846  0.1356  0.2594
20522SOL     OW64967   3.893   4.841   6.138 -0.5410  0.1497  0.6822
20522SOL    HW164968   3.931   4.831   6.051 -0.2562  1.1801  0.6823
20522SOL    HW264969   3.926   4.924   6.170 -2.1903  0.7342  0.9809
20523SOL     OW64970  10.243   4.065   5.647 -0.6460 -0.3954  0.0848
20523SOL    HW164971  10.305   3.994   5.629  0.2854  0.8024 -1.7600
20523SOL    HW264972  10.173   4.023   5.697  0.1544 -2.4659 -0.4052
20524SOL     OW64973   0.504   2.824   8.565 -0.0121 -0.2583 -0.5909
20524SOL    HW164974   0.566   2.810   8.493  1.4702 -0.2252  0.6221
20524SOL    HW264975   0.466   2.910   8.547 -1.2030 -1.0852 -2.3839
20525SOL     OW64976   6.459   3.847   5.435 -0.7500 -0.2703 -0.2268
20525SOL    HW164977   6.519   3.912   5.471 -1.1678 -1.2430  2.4033
20525SOL    HW264978   6.516   3.780   5.398 -0.1959 -0.6026  1.1696
20526SOL     OW64979   0.934   2.668   0.822 -0.0813 -0.1533 -0.7177
20526SOL    HW164980   0.893   2.653   0.736  1.6744 -0.4995 -1.5434
20526SOL    HW264981   1.016   2.713   0.801 -0.0606  0.6024  0.8790
20527SOL     OW64982   5.726   3.486  10.790 -0.2565  0.0986 -0.1924
20527SOL    HW164983   5.675   3.520  10.717  0.3799 -0.4740 -0.9233
20527SOL    HW264984   5.673   3.504  10.867 -2.0556 -1.3711 -1.0144
20528SOL     OW64985   8.863   2.012   9.405 -0.0678 -0.0712 -0.2694
20528SOL    HW164986   8.940   1.983   9.355  0.4465 -1.7932  1.4137
20528SOL    HW264987   8.789   1.987   9.351  0.4842  1.4630 -1.8512
20529SOL     OW64988   0.905   1.119  10.510  0.6070  0.3559  0.4959
20529SOL    HW164989   0.980   1.119  10.570  1.5428  0.7557 -0.6456
20529SOL    HW264990   0.860   1.201  10.528  0.8755  0.4706  0.6518
20530SOL     OW64991   0.126   1.760   8.274  0.4457  1.3857  0.3454
20530SOL    HW164992   0.129   1.678   8.323  0.8663  2.4982  2.3441
20530SOL    HW264993   0.072   1.742   8.198 -0.6260 -0.3679  1.4530
20531SOL     OW64994   1.856   5.888   6.112 -0.2203  0.1023  0.1012
20531SOL    HW164995   1.894   5.928   6.034 -0.4600 -0.3351 -0.2427
20531SOL    HW264996   1.920   5.906   6.181  0.5498 -0.5101 -0.4333
20532SOL     OW64997   7.307   3.305   7.850 -0.0156 -0.5888  0.0451
20532SOL    HW164998   7.303   3.372   7.919 -0.7132  0.2076 -0.7410
20532SOL    HW264999   7.268   3.228   7.890  2.4351 -1.1291  1.5735
20533SOL     OW65000   1.434   3.237   8.400 -0.2398  0.1522 -0.0770
20533SOL    HW165001   1.463   3.233   8.309  1.2511 -4.3938  0.3005
20533SOL    HW265002   1.513   3.259   8.450 -0.2765 -0.4138  0.2478
20534SOL     OW65003   9.428   6.151   3.006 -0.9311  0.7107 -0.4433
20534SOL    HW165004   9.453   6.095   3.080 -1.3222  0.5110 -0.4565
20534SOL    HW265005   9.511   6.176   2.965 -0.7813 -1.8688 -1.9332
20535SOL     OW65006   6.552   1.737   2.613 -0.2206  0.2078  0.5679
20535SOL    HW165007   6.599   1.654   2.606 -1.0672 -0.1297 -2.8944
20535SOL    HW265008   6.620   1.802   2.631  0.7383 -0.9270  1.2060
20536SOL     OW65009   0.830   0.981   3.473  0.3080  0.6229  0.2260
20536SOL    HW165010   0.900   1.026   3.520 -1.1077  3.6499 -0.2954
20536SOL    HW265011   0.751   1.029   3.498 -1.4969 -2.0856  0.0827
20537SOL     OW65012   1.304   5.546   5.907  0.2000  0.4605 -0.8687
20537SOL    HW165013   1.322   5.623   5.960 -2.0215  0.9855 -0.8065
20537SOL    HW265014   1.391   5.517   5.878  1.1441  2.5470 -0.3312
20538SOL     OW65015   8.047  10.773   3.463  0.2845  0.0112  0.6817
20538SOL    HW165016   8.115  10.709   3.484  0.1105 -0.4068  0.0267
20538SOL    HW265017   8.052  10.782   3.367 -0.1673  0.4386  0.6958
20539SOL     OW65018   6.167   1.552   9.484  0.1330 -0.5357 -0.1980
20539SOL    HW165019   6.253   1.536   9.445 -0.0501 -3.1686  0.2708
20539SOL    HW265020   6.106   1.505   9.427 -0.8493  0.2950  0.1471
20540SOL     OW65021   9.169   6.334   9.124 -0.0394 -0.2869 -0.2359
20540SOL    HW165022   9.102   6.396   9.153  2.3890  2.0478  0.8367
20540SOL    HW265023   9.163   6.262   9.186 -1.9069 -0.4305 -0.5366
20541SOL     OW65024   1.693   8.980   7.310 -0.3114 -0.1727 -0.2805
20541SOL    HW165025   1.643   8.953   7.387  0.9927 -0.6440  0.4272
20541SOL    HW265026   1.648   9.059   7.279 -1.0824 -0.1956  0.7289
20542SOL     OW65027   2.979   4.723   4.851 -0.0116 -0.2952 -0.3814
20542SOL    HW165028   2.976   4.800   4.907 -1.6479 -1.1256  0.7672
20542SOL    HW265029   2.936   4.655   4.902 -1.8923 -1.0325 -2.7389
20543SOL     OW65030  10.345  10.088   0.663  0.1371  0.2522 -0.1937
20543SOL    HW165031  10.287  10.042   0.603 -0.1725 -0.1794  0.4274
20543SOL    HW265032  10.426  10.101   0.614 -0.5662  1.1172 -1.1801
20544SOL     OW65033  10.778   1.380   4.040 -0.3410 -0.0357 -0.2609
20544SOL    HW165034  10.738   1.315   3.983 -1.8082 -0.0957  0.7800
20544SOL    HW265035  10.810   1.330   4.115 -0.6434  0.3418  0.1200
20545SOL     OW65036   8.559   1.371   6.461  0.0606  0.0932 -0.2450
20545SOL    HW165037   8.498   1.351   6.533 -1.3975  2.6900 -0.6029
20545SOL    HW265038   8.646   1.361   6.500 -0.6567 -0.3244  1.3467
20546SOL     OW65039   1.671   2.106  10.316  0.0827  0.5094  0.2172
20546SOL    HW165040   1.627   2.058  10.246  1.0203 -2.9447  1.7714
20546SOL    HW265041   1.667   2.047  10.392  1.1207  3.0827  2.4584
20547SOL     OW65042  10.643   3.784   2.561 -0.2960  0.1321  0.2092
20547SOL    HW165043  10.685   3.854   2.511  1.1825 -1.7190 -1.3107
20547SOL    HW265044  10.696   3.706   2.542 -1.8774 -1.4181  1.7911
20548SOL     OW65045   0.968   0.001   5.851  0.2477  0.3666  0.1627
20548SOL    HW165046   0.886   0.051   5.849  0.6338  0.9949 -0.8545
20548SOL    HW265047   0.980  -0.022   5.943 -0.2881  1.5769  0.5531
20549SOL     OW65048   0.732  10.251   3.501 -0.0164 -0.2014  0.7119
20549SOL    HW165049   0.674  10.177   3.520 -1.2606  0.8455  1.1286
20549SOL    HW265050   0.692  10.325   3.547 -1.5070  1.8277 -3.3790
20550SOL     OW65051   3.915   6.680   5.210 -0.2026  0.0952 -0.3622
20550SOL    HW165052   3.852   6.608   5.216 -0.6866  0.3761 -1.7036
20550SOL    HW265053   3.996   6.644   5.243 -0.8277 -0.5833  0.4652
20551SOL     OW65054   9.975   3.889   2.996 -0.1775  0.0185 -0.0270
20551SOL    HW165055  10.001   3.957   2.934 -0.0077 -1.2505 -1.3809
20551SOL    HW265056   9.994   3.928   3.082  0.4150  1.4717 -0.7705
20552SOL     OW65057   9.312   2.298   3.589  0.3155  0.3459 -0.2569
20552SOL    HW165058   9.330   2.366   3.653  1.7632 -1.4478  1.3456
20552SOL    HW265059   9.379   2.310   3.522  2.2567 -1.0287  1.3478
20553SOL     OW65060   5.569   1.788  10.314 -0.3333  0.1450 -0.6620
20553SOL    HW165061   5.576   1.712  10.257 -1.3741  0.2180 -0.9126
20553SOL    HW265062   5.622   1.766  10.391 -2.2054 -1.7278  0.1903
20554SOL     OW65063  10.296   7.715   3.184  0.1789  0.3721  0.1211
20554SOL    HW165064  10.207   7.689   3.206  0.3329 -0.3946 -0.1295
20554SOL    HW265065  10.291   7.809   3.166 -0.1475  0.8876  2.4774
20555SOL     OW65066   4.287   8.842   1.862 -0.1517 -0.7468 -0.0707
20555SOL    HW165067   4.369   8.848   1.813  0.3872 -1.6322  0.6997
20555SOL    HW265068   4.301   8.771   1.924 -0.7355  0.4687  1.5158
20556SOL     OW65069   5.435   4.229   5.504 -0.3106  0.0441 -0.6709
20556SOL    HW165070   5.507   4.280   5.543  1.7213 -2.1277 -1.3279
20556SOL    HW265071   5.376   4.210   5.577  1.2952 -0.5152  0.5375
20557SOL     OW65072   1.639   2.284   7.938  0.3631 -0.1460 -0.4927
20557SOL    HW165073   1.675   2.369   7.914  0.4998 -0.1780 -0.4028
20557SOL    HW265074   1.703   2.221   7.907  0.3937 -0.2028 -0.3156
20558SOL     OW65075   1.673   1.301   8.372  0.4770 -0.9528 -0.5076
20558SOL    HW165076   1.626   1.384   8.368  1.8156 -0.0854  1.0276
20558SOL    HW265077   1.653   1.266   8.458  1.8187 -1.0548 -0.2193
20559SOL     OW65078   1.199  10.370   0.841  0.2104  0.1239  0.3159
20559SOL    HW165079   1.147  10.442   0.804 -2.7765 -1.1506  1.7128
20559SOL    HW265080   1.215  10.312   0.767 -0.8648  0.2783 -0.0563
20560SOL     OW65081   4.051   8.464   1.036  0.3605  0.3198  0.0720
20560SOL    HW165082   3.966   8.505   1.052  0.8793  0.5421  2.7650
20560SOL    HW265083   4.054   8.451   0.941 -2.2076  1.2705 -0.2215
20561SOL     OW65084   8.124   2.364   6.905 -0.0069 -0.0874  0.6343
20561SOL    HW165085   8.035   2.339   6.928 -0.7133  0.3405 -1.4003
20561SOL    HW265086   8.172   2.280   6.902 -0.4687 -0.3772  1.1634
20562SOL     OW65087   5.440   5.249   2.171  0.5807 -0.3769 -0.2425
20562SOL    HW165088   5.389   5.308   2.226 -0.7946 -1.9602  0.2561
20562SOL    HW265089   5.530   5.282   2.177 -0.0262  1.2588  0.5094
20563SOL     OW65090   7.968   2.061   3.890  0.0245  0.4302 -0.6714
20563SOL    HW165091   7.873   2.061   3.883 -0.1594  1.2977  1.3447
20563SOL    HW265092   7.986   2.054   3.984  1.9074  2.0607 -0.8410
20564SOL     OW65093   2.330  10.387  10.763  0.3819 -0.1689  0.3736
20564SOL    HW165094   2.352  10.480  10.770  0.9742 -0.0064 -2.5855
20564SOL    HW265095   2.414  10.343  10.751 -0.0863 -0.7631 -0.8526
20565SOL     OW65096   0.885   5.274   4.669  0.2903 -0.2613 -0.5612
20565SOL    HW165097   0.817   5.249   4.731  2.2149 -0.3333  1.6927
20565SOL    HW265098   0.857   5.358   4.634 -1.6790 -1.0256 -0.9161
20566SOL     OW65099   2.619   9.208   0.291 -0.1938 -0.1478 -0.0502
20566SOL    HW165100   2.556   9.252   0.347 -0.5441 -0.7485  0.0352
20566SOL    HW265101   2.590   9.117   0.288  0.1706 -0.2539 -0.7073
20567SOL     OW65102   2.361   3.363   0.818  0.1891  0.0911 -0.0154
20567SOL    HW165103   2.413   3.440   0.795  2.4304 -1.2644  0.2545
20567SOL    HW265104   2.340   3.375   0.910  0.1825  0.5603 -0.0744
20568SOL     OW65105   3.254  10.584   5.221  0.2195 -0.3771  0.4071
20568SOL    HW165106   3.175  10.578   5.167  0.6486  0.7448 -0.3763
20568SOL    HW265107   3.264  10.496   5.257 -0.3598 -1.0323 -0.9429
20569SOL     OW65108  10.472  10.855   9.858  0.3006 -0.1842  0.1385
20569SOL    HW165109  10.495  10.764   9.840 -3.6666 -1.0866 -1.4398
20569SOL    HW265110  10.472  10.897   9.772  0.4926  0.8990  0.6525
20570SOL     OW65111   2.265   9.501   5.502  0.3676 -0.4215  0.3487
20570SOL    HW165112   2.312   9.583   5.517 -0.6846  0.2133  0.2398
20570SOL    HW265113   2.271   9.455   5.586  2.2535 -0.9396 -0.0228
20571SOL     OW65114   0.793   1.303   1.324  0.0952  0.3637  0.3631
20571SOL    HW165115   0.755   1.245   1.258 -1.7408  1.3036  0.5238
20571SOL    HW265116   0.718   1.330   1.378  1.2226  1.2648  1.5483
20572SOL     OW65117   2.460   5.244   1.014  0.1912  0.0647 -0.1699
20572SOL    HW165118   2.548   5.214   0.992  0.7908  2.5502 -1.5317
20572SOL    HW265119   2.439   5.309   0.946 -2.0735  0.6543  0.9907
20573SOL     OW65120   8.249   3.687   6.676 -0.0388  0.3777 -0.1092
20573SOL    HW165121   8.245   3.752   6.606 -0.9990  0.6314  0.1670
20573SOL    HW265122   8.271   3.605   6.632  1.1572  0.8575 -0.4655
20574SOL     OW65123   8.603   9.873   6.128 -0.6688  0.0651  0.2889
20574SOL    HW165124   8.645   9.794   6.094  0.7104  1.2076 -0.7784
20574SOL    HW265125   8.532   9.891   6.067  0.1401  0.6283 -0.5052
20575SOL     OW65126   0.015   0.345   0.628  0.3927 -0.6876 -0.1236
20575SOL    HW165127   0.084   0.381   0.572  0.7799  0.1062  0.8259
20575SOL    HW265128  -0.006   0.417   0.688 -0.2721 -1.3973  0.5077
20576SOL     OW65129   5.733   1.749   1.155  0.1640 -0.1484 -0.6667
20576SOL    HW165130   5.709   1.668   1.200  1.3322 -0.3058 -0.3023
20576SOL    HW265131   5.791   1.794   1.215 -0.3685  0.9105 -0.9288
20577SOL     OW65132   0.731   6.687   1.380 -0.0168 -0.6525 -0.3664
20577SOL    HW165133   0.669   6.737   1.326  1.1606 -0.1928 -1.3331
20577SOL    HW265134   0.720   6.722   1.468 -0.6400 -0.0983 -0.6562
20578SOL     OW65135   9.484   5.365   2.448 -0.2085  0.0366 -0.1560
20578SOL    HW165136   9.459   5.318   2.527  0.8892  0.3911  0.4129
20578SOL    HW265137   9.403   5.406   2.418 -0.5381  0.2807  1.0327
20579SOL     OW65138   9.884   1.926   4.578  0.1932 -0.2847  1.0065
20579SOL    HW165139   9.822   1.951   4.647 -1.5151 -1.2640 -0.0977
20579SOL    HW265140   9.855   1.839   4.551  0.4114  0.3156 -1.3630
20580SOL     OW65141   1.553   1.250   8.127  0.3158  0.1778 -0.1683
20580SOL    HW165142   1.605   1.241   8.207  0.6265 -1.0896 -0.4902
20580SOL    HW265143   1.565   1.342   8.100 -0.2203  0.7696  1.5031
20581SOL     OW65144   5.740   7.310  10.304 -0.2625 -0.8354  0.4087
20581SOL    HW165145   5.689   7.284  10.381 -0.9094 -1.2775 -0.1569
20581SOL    HW265146   5.674   7.337  10.240 -0.0201 -3.7776 -1.2531
20582SOL     OW65147   4.517   9.672   1.541 -0.0058 -0.5377  0.1582
20582SOL    HW165148   4.568   9.650   1.619  0.3068  1.1053  0.4383
20582SOL    HW265149   4.559   9.624   1.470  1.5155  0.2221  0.5076
20583SOL     OW65150   5.732   3.601   3.131 -0.2487 -0.5402  0.1014
20583SOL    HW165151   5.684   3.624   3.211  0.3133 -0.4795  0.4251
20583SOL    HW265152   5.695   3.657   3.063  1.6998  2.0708  1.0205
20584SOL     OW65153   4.554   6.072   6.324 -0.3420  0.0958  0.6149
20584SOL    HW165154   4.568   5.985   6.289  0.3556  0.3904  0.1331
20584SOL    HW265155   4.622   6.082   6.391 -0.3294  0.3214  0.5704
20585SOL     OW65156   4.548  10.668   7.186  0.3823  0.2036 -0.6036
20585SOL    HW165157   4.516  10.754   7.158 -1.0095 -0.1262 -0.1158
20585SOL    HW265158   4.515  10.659   7.276  0.2609 -0.9635 -0.7550
20586SOL     OW65159   2.312   4.032   5.442  0.1554 -0.0349 -0.5270
20586SOL    HW165160   2.330   4.125   5.436 -0.1191 -0.0331 -1.3371
20586SOL    HW265161   2.226   4.026   5.482 -0.1851  0.0828 -1.2382
20587SOL     OW65162   0.018   2.014   3.242 -0.6253  0.2900 -0.5119
20587SOL    HW165163   0.070   2.009   3.161  0.6769 -0.7083  0.3494
20587SOL    HW265164   0.075   2.058   3.305 -0.5878 -1.2698  0.6017
20588SOL     OW65165   5.199   9.208   1.563  0.1011  0.5107  0.1039
20588SOL    HW165166   5.183   9.258   1.484 -1.0321 -0.3798 -0.2592
20588SOL    HW265167   5.252   9.265   1.618 -0.0685  1.5829 -0.8229
20589SOL     OW65168   6.020   3.571   4.038  0.1101 -0.4569  0.5479
20589SOL    HW165169   6.029   3.658   4.076  0.0344  0.2825 -1.0257
20589SOL    HW265170   6.061   3.578   3.952 -2.5540 -1.0757 -0.8971
20590SOL     OW65171   8.027   0.216   3.333 -0.5118 -0.3245  0.0904
20590SOL    HW165172   8.016   0.201   3.239  2.5946 -2.4984 -0.0599
20590SOL    HW265173   8.072   0.300   3.339  1.2955 -1.2067 -0.5802
20591SOL     OW65174   5.543  10.644   8.562 -0.3338  0.3087  0.0448
20591SOL    HW165175   5.486  10.718   8.541  0.7783  1.2769  0.3125
20591SOL    HW265176   5.574  10.612   8.478  1.4438  2.0278 -0.0341
20592SOL     OW65177   0.512   9.749   6.077 -0.1534 -0.3640 -0.3231
20592SOL    HW165178   0.426   9.708   6.063 -0.2171 -0.2930 -0.1454
20592SOL    HW265179   0.501   9.838   6.045 -0.6522  0.1615  1.2262
20593SOL     OW65180   7.317   1.077   5.647  0.1661  0.4026 -0.2728
20593SOL    HW165181   7.223   1.062   5.634 -0.2361  1.5085  1.1981
20593SOL    HW265182   7.357   0.991   5.633 -1.1289 -0.2100 -0.3171
20594SOL     OW65183   5.939   8.729   1.413  0.0816  0.1406 -0.4331
20594SOL    HW165184   5.882   8.781   1.470  1.8376  1.1421  0.5111
20594SOL    HW265185   6.008   8.698   1.471  0.0117 -1.8692 -1.3420
20595SOL     OW65186  10.220   9.675   5.134 -0.6331  0.2447  0.4495
20595SOL    HW165187  10.222   9.615   5.059  1.3007  0.5934  0.1732
20595SOL    HW265188  10.227   9.762   5.095 -2.1922  0.5995  0.9192
20596SOL     OW65189  10.555   3.080   6.528 -0.3068  0.1929  0.5119
20596SOL    HW165190  10.527   3.023   6.456 -0.7290  0.7589  0.2186
20596SOL    HW265191  10.474   3.120   6.560 -0.1063  0.0563  1.2084
20597SOL     OW65192   0.191   0.156   0.483  0.3726 -0.2239  0.6737
20597SOL    HW165193   0.153   0.203   0.558 -0.7985 -0.5168  0.2723
20597SOL    HW265194   0.117   0.134   0.428  1.2845  0.5176 -0.9069
20598SOL     OW65195   6.594   6.178   5.015 -0.2828  0.3318  0.3719
20598SOL    HW165196   6.642   6.232   5.077  0.0515 -1.5683  1.8644
20598SOL    HW265197   6.519   6.145   5.065 -1.4197  0.7306 -0.9937
20599SOL     OW65198  10.147   1.981   7.087  0.2863  0.1440 -0.2266
20599SOL    HW165199  10.075   2.017   7.138 -0.5619 -1.1955 -0.4459
20599SOL    HW265200  10.109   1.958   7.003  1.0523 -0.2789 -0.4683
20600SOL     OW65201   0.473   1.606   4.860 -0.0593 -0.4541  0.4283
20600SOL    HW165202   0.446   1.674   4.922  0.2829  0.4689 -0.3966
20600SOL    HW265203   0.393   1.559   4.839 -0.6364  0.7528 -0.2062
20601SOL     OW65204   5.407   0.098   5.631 -0.1420 -0.0038  0.0720
20601SOL    HW165205   5.469   0.154   5.583 -1.1225 -0.6002 -1.9606
20601SOL    HW265206   5.460   0.024   5.661  0.1192 -0.6575 -1.8955
20602SOL     OW65207   2.727  10.714  10.864 -0.2479  0.8149  0.2694
20602SOL    HW165208   2.734  10.751  10.952  1.7780 -0.6748  0.8068
20602SOL    HW265209   2.673  10.636  10.876  1.8439 -0.6642  0.7371
20603SOL     OW65210   9.849   1.076   9.633  0.1401 -0.3519 -0.5323
20603SOL    HW165211   9.809   1.055   9.718 -0.3685 -0.4342 -0.7920
20603SOL    HW265212   9.780   1.121   9.585  1.0265  1.4883 -0.1808
20604SOL     OW65213   2.451   4.547   5.486 -0.4444 -0.5089 -0.0033
20604SOL    HW165214   2.473   4.596   5.565 -1.6785 -0.9134  0.6248
20604SOL    HW265215   2.384   4.601   5.443  1.3807  0.5488 -1.6981
20605SOL     OW65216   8.197   5.789   5.045  0.0614  0.3746 -0.4238
20605SOL    HW165217   8.140   5.787   5.123  0.4233 -0.1804 -0.1671
20605SOL    HW265218   8.138   5.812   4.973 -0.4355  0.1007 -0.1117
20606SOL     OW65219   7.806   3.108   6.507 -0.6440 -0.3276  0.5886
20606SOL    HW165220   7.783   3.201   6.498 -3.2612 -0.8850  0.7297
20606SOL    HW265221   7.846   3.086   6.423 -1.4660  0.5652 -0.0649
20607SOL     OW65222   1.284   8.866   1.499 -0.2611 -0.8068  0.1923
20607SOL    HW165223   1.235   8.946   1.520  0.3958 -0.6400  1.1584
20607SOL    HW265224   1.227   8.818   1.440 -0.4149  0.6683 -0.9165
20608SOL     OW65225   1.596   9.369   2.591 -0.9334  0.2566  0.1089
20608SOL    HW165226   1.607   9.461   2.568 -0.4080  0.0562 -0.4823
20608SOL    HW265227   1.598   9.367   2.686 -0.3236  0.7880  0.1143
20609SOL     OW65228  10.630   3.701   3.351 -0.1792  0.3842 -0.1553
20609SOL    HW165229  10.720   3.677   3.328 -0.1823 -0.9452  1.1083
20609SOL    HW265230  10.576   3.628   3.321 -0.6922  0.6202  0.1704
20610SOL     OW65231   5.574   1.561  10.150 -0.0231  0.6957 -0.2539
20610SOL    HW165232   5.517   1.574  10.074 -1.4971  0.9531  0.8421
20610SOL    HW265233   5.524   1.503  10.207  0.7833  0.9909  0.7881
20611SOL     OW65234   9.191   7.195   7.177 -0.2599 -0.3874  0.3448
20611SOL    HW165235   9.261   7.254   7.152 -0.5480 -0.9410 -2.0028
20611SOL    HW265236   9.233   7.109   7.184 -0.7402 -0.8736 -1.8664
20612SOL     OW65237   8.755   2.965   4.849 -0.6619  0.4409  0.4649
20612SOL    HW165238   8.753   2.944   4.755  0.4217  0.1933  0.4839
20612SOL    HW265239   8.799   3.050   4.853 -0.3545  0.2666  0.7767
20613SOL     OW65240   1.663   9.854  10.622  0.4664  1.0405 -0.0035
20613SOL    HW165241   1.702   9.809  10.547 -1.4814  0.5180 -0.7472
20613SOL    HW265242   1.666   9.789  10.693  1.4734  1.2249  0.1443
20614SOL     OW65243   1.237   5.694   4.059 -0.4252 -0.0410 -0.8260
20614SOL    HW165244   1.181   5.635   4.108 -0.4150  0.9470  0.4187
20614SOL    HW265245   1.195   5.780   4.068 -1.3717 -0.0378 -3.9624
20615SOL     OW65246   2.376   8.382   4.040  0.1117  0.8552  0.3793
20615SOL    HW165247   2.331   8.303   4.011 -0.2763  1.1281  0.2418
20615SOL    HW265248   2.431   8.407   3.965  2.3349 -0.8033  1.3349
20616SOL     OW65249  10.768   9.908   8.788  0.0317 -0.6218  0.0423
20616SOL    HW165250  10.682   9.870   8.806 -0.1208  0.0925  0.8982
20616SOL    HW265251  10.819   9.887   8.867  0.0493  0.6279  0.3758
20617SOL     OW65252   9.041   4.057   8.190 -0.2679  0.0159  0.4421
20617SOL    HW165253   9.108   3.989   8.177  0.0770  0.0377  1.9436
20617SOL    HW265254   9.065   4.126   8.128 -1.2384 -1.6208 -1.8956
20618SOL     OW65255  10.045   1.726   6.559  0.5084 -0.1055  0.2062
20618SOL    HW165256  10.097   1.646   6.563  3.5359  1.7337  2.2471
20618SOL    HW265257  10.054   1.757   6.469 -0.4151 -1.7924 -0.5050
20619SOL     OW65258   2.249   2.922   3.197  0.5308  0.5091 -0.3074
20619SOL    HW165259   2.247   2.864   3.121  0.5304  0.9779 -0.6703
20619SOL    HW265260   2.209   3.004   3.166 -0.3228  0.3927  0.4633
20620SOL     OW65261   8.411   4.767   0.184  0.0069 -0.4187 -0.0071
20620SOL    HW165262   8.332   4.723   0.151 -1.3114  0.5991  1.6163
20620SOL    HW265263   8.449   4.704   0.246 -0.6821 -0.1655  0.7009
20621SOL     OW65264   5.381   7.334  10.586  0.7991 -0.2055  0.7743
20621SOL    HW165265   5.440   7.284  10.530 -0.1175  0.6973 -1.0935
20621SOL    HW265266   5.321   7.268  10.622 -0.8756 -0.5358 -2.2363
20622SOL     OW65267   0.019   2.920   2.454  0.1426  0.1648  0.0630
20622SOL    HW165268  -0.076   2.930   2.448  0.2426  1.1739 -0.0608
20622SOL    HW265269   0.039   2.842   2.403 -0.5000  0.6688 -0.9796
20623SOL     OW65270  10.393   8.701   8.380  0.2034 -0.0962 -0.3173
20623SOL    HW165271  10.387   8.611   8.348  1.1619 -0.4300  0.3918
20623SOL    HW265272  10.331   8.749   8.327  1.1204 -0.7887 -2.1079
20624SOL     OW65273   9.464   6.669  10.147 -0.6575 -0.0443  0.5000
20624SOL    HW165274   9.416   6.709  10.219 -1.0619  2.4114 -1.0591
20624SOL    HW265275   9.407   6.678  10.071  0.6670 -0.5999 -0.6001
20625SOL     OW65276   6.336   7.835   2.084  0.4093 -0.1793 -0.0346
20625SOL    HW165277   6.351   7.757   2.031  0.3299  0.1315 -0.5186
20625SOL    HW265278   6.266   7.810   2.145 -0.9754  0.0791 -1.4420
20626SOL     OW65279  10.571   3.451   2.676  0.3842  0.0496 -0.0421
20626SOL    HW165280  10.655   3.479   2.641 -0.4808  1.5036 -1.0524
20626SOL    HW265281  10.507   3.479   2.611 -1.1139  1.1871  1.8171
20627SOL     OW65282   4.201   4.743   1.319 -0.1693  0.0688  0.3368
20627SOL    HW165283   4.270   4.677   1.317  1.2198  1.4333  0.5545
20627SOL    HW265284   4.147   4.724   1.242 -1.0554 -2.5106  1.4971
20628SOL     OW65285   7.570   9.341   7.228  0.2181 -0.3371 -0.5067
20628SOL    HW165286   7.511   9.295   7.169  0.7581 -0.7077 -0.7636
20628SOL    HW265287   7.522   9.346   7.311 -0.4462 -0.0232 -0.9031
20629SOL     OW65288   8.554   1.911   8.644 -0.5571  0.4376  0.6889
20629SOL    HW165289   8.588   1.982   8.589 -1.0978 -0.0567 -0.3146
20629SOL    HW265290   8.617   1.840   8.635 -1.7341 -0.4736 -1.1610
20630SOL     OW65291   1.869   9.402   2.316 -0.5802  0.4771 -0.0977
20630SOL    HW165292   1.900   9.440   2.399 -1.1255 -1.5602  1.1124
20630SOL    HW265293   1.946   9.401   2.260 -0.2699  2.1893  0.2262
20631SOL     OW65294   5.951   9.903   3.115  0.2611  0.0626  0.1692
20631SOL    HW165295   5.857   9.920   3.110 -0.0138 -0.8166  1.7359
20631SOL    HW265296   5.958   9.809   3.132  1.3973  0.2305  0.7345
20632SOL     OW65297   4.207   6.652  10.779 -0.2603 -0.4073 -0.1620
20632SOL    HW165298   4.266   6.589  10.821 -0.0545 -0.4755 -0.5460
20632SOL    HW265299   4.176   6.606  10.700 -2.4747 -1.1854  1.0862
20633SOL     OW65300   3.154   7.704   9.858  0.3618 -0.1234  0.2915
20633SOL    HW165301   3.208   7.641   9.811 -0.7439 -1.7061  1.0678
20633SOL    HW265302   3.173   7.688   9.951  0.2907  0.9144  0.5019
20634SOL     OW65303   6.935   0.885   1.479  0.9538  0.2773  0.1985
20634SOL    HW165304   6.864   0.824   1.458 -0.6762  2.3358 -0.5557
20634SOL    HW265305   7.012   0.846   1.437 -0.3308 -0.5433 -1.5184
20635SOL     OW65306   8.433   0.150   5.248  0.1909 -0.0335 -0.2540
20635SOL    HW165307   8.379   0.169   5.171 -0.7589  3.0687  1.0238
20635SOL    HW265308   8.371   0.123   5.316  0.4760  1.2507  0.5508
20636SOL     OW65309   9.200   3.287   7.436 -0.4503  0.0642 -0.0558
20636SOL    HW165310   9.216   3.321   7.524 -0.2645  0.1658 -0.1276
20636SOL    HW265311   9.238   3.200   7.436 -1.5769 -0.4428  0.3561
20637SOL     OW65312   0.037   3.537   4.480 -0.4194  0.2506  0.2122
20637SOL    HW165313  -0.010   3.462   4.516 -0.1592  0.5603  1.2327
20637SOL    HW265314   0.015   3.609   4.538 -0.5540  0.9436 -0.6812
20638SOL     OW65315   0.667   6.110   2.490 -0.0641 -0.3901 -0.3175
20638SOL    HW165316   0.742   6.103   2.431  0.9133  1.2641  0.6420
20638SOL    HW265317   0.611   6.176   2.449 -0.4944 -0.8812 -0.5217
20639SOL     OW65318   4.095   2.177   2.827  0.4403 -0.0778  0.2059
20639SOL    HW165319   4.121   2.116   2.897 -1.4213 -0.4832  0.5845
20639SOL    HW265320   4.097   2.125   2.747 -1.0043 -0.6523  0.5093
20640SOL     OW65321   1.051  10.100   0.903 -0.0674  0.1602  0.3934
20640SOL    HW165322   1.005  10.139   0.977 -0.5342 -0.9853  0.7084
20640SOL    HW265323   1.143  10.101   0.929 -0.1940  0.0699  0.8411
20641SOL     OW65324   9.917   4.386   0.689  0.0164 -0.3764  0.3399
20641SOL    HW165325   9.859   4.460   0.671  0.6540  0.2080  0.6689
20641SOL    HW265326   9.984   4.391   0.621  1.0597  0.4060  1.4024
20642SOL     OW65327   6.125   5.744   3.526  0.3256  0.6805  0.4369
20642SOL    HW165328   6.033   5.716   3.524  0.0159  1.5735  1.3904
20642SOL    HW265329   6.162   5.698   3.601  0.2937  1.3470  0.8737
20643SOL     OW65330   1.044   7.124   8.269 -0.7645 -0.4298  0.1133
20643SOL    HW165331   1.034   7.038   8.309 -0.6005 -0.6309 -0.2804
20643SOL    HW265332   0.970   7.132   8.208 -1.9577  0.5320  1.6065
20644SOL     OW65333   1.936   1.097   8.637 -0.1188 -0.1442 -0.4092
20644SOL    HW165334   1.877   1.044   8.692  0.5773  0.5868  1.1161
20644SOL    HW265335   1.899   1.185   8.640  0.4224  0.0876 -0.3640
20645SOL     OW65336   1.315   2.294   7.743 -0.2476 -0.0289  0.3690
20645SOL    HW165337   1.295   2.360   7.677  0.7563 -0.5215 -0.4629
20645SOL    HW265338   1.397   2.255   7.713 -1.6998 -2.9190 -0.2072
20646SOL     OW65339   9.436   2.730   3.623 -0.9127  0.8147  0.6437
20646SOL    HW165340   9.355   2.711   3.672 -0.8803  2.3629  1.3546
20646SOL    HW265341   9.489   2.781   3.684  0.2895  0.4797 -0.0920
20647SOL     OW65342   5.656   0.273   8.588 -0.8336  0.0283 -0.1749
20647SOL    HW165343   5.604   0.285   8.667 -0.4285  0.2761  0.0568
20647SOL    HW265344   5.696   0.187   8.598 -1.9523 -0.5849 -0.7984
20648SOL     OW65345   9.179   1.252   3.668  0.3529  0.5224 -0.3157
20648SOL    HW165346   9.193   1.157   3.672 -0.0833  0.4629 -0.1517
20648SOL    HW265347   9.246   1.283   3.606  2.8250  0.5860  2.1928
20649SOL     OW65348   7.058   6.453   2.869  0.3214 -0.5678 -0.1366
20649SOL    HW165349   6.984   6.433   2.925 -1.6588  1.1772 -1.9571
20649SOL    HW265350   7.037   6.411   2.786  1.3204  0.0381 -0.7144
20650SOL     OW65351   3.828   6.209   0.021  0.0379  0.6484  0.0901
20650SOL    HW165352   3.772   6.258  -0.039 -1.6302 -1.2886 -0.0680
20650SOL    HW265353   3.914   6.210  -0.019 -0.1224  2.7445 -0.2775
20651SOL     OW65354   4.352   6.369   6.754  0.3183  0.3624 -0.4945
20651SOL    HW165355   4.442   6.367   6.788  0.2279  1.2776 -0.1692
20651SOL    HW265356   4.313   6.287   6.784  1.0814 -0.1072 -0.7493
20652SOL     OW65357  10.068   7.019   0.942  0.8229 -0.0739 -0.1907
20652SOL    HW165358   9.979   7.002   0.912  0.8134 -1.8384  0.7150
20652SOL    HW265359  10.092   7.103   0.902 -1.7271  1.1439  0.6497
20653SOL     OW65360   5.396   8.514   4.554 -0.5642 -0.6645 -0.2552
20653SOL    HW165361   5.472   8.456   4.553  0.6409  0.8098  0.9706
20653SOL    HW265362   5.428   8.595   4.594 -2.5878  0.2917 -0.4438
20654SOL     OW65363   4.568   6.278   1.453  0.1567  0.1499 -0.2720
20654SOL    HW165364   4.610   6.252   1.535  0.2797  0.3776 -0.2619
20654SOL    HW265365   4.640   6.288   1.391  0.0657 -0.0028 -0.4040
20655SOL     OW65366   3.824   9.119  10.153  0.1586 -0.2643  0.1546
20655SOL    HW165367   3.811   9.086  10.064 -0.3089  0.6333 -0.1219
20655SOL    HW265368   3.740   9.108  10.196 -0.1229  0.8998 -0.0655
20656SOL     OW65369   3.271   6.186   2.853  0.0157 -0.1652  0.9305
20656SOL    HW165370   3.353   6.220   2.887  0.6343 -1.3336  0.6595
20656SOL    HW265371   3.204   6.219   2.913  0.6807  0.7356  1.1956
20657SOL     OW65372   9.536   4.867   2.342 -0.4645 -0.0858  0.0027
20657SOL    HW165373   9.526   4.869   2.247 -0.3889  0.5147  0.0028
20657SOL    HW265374   9.629   4.850   2.356 -0.2607  0.9231 -0.0449
20658SOL     OW65375   6.356   6.343   9.184 -0.0821 -0.3549  0.0078
20658SOL    HW165376   6.342   6.254   9.215 -0.1532 -0.5952 -0.7058
20658SOL    HW265377   6.287   6.357   9.119  0.4600 -0.0874 -0.5142
20659SOL     OW65378   4.087  10.110   1.264  0.0604 -0.3944 -0.1385
20659SOL    HW165379   4.146  10.181   1.238 -0.0870 -0.0294  0.5035
20659SOL    HW265380   4.000  10.140   1.241 -0.0111 -0.3317  0.2114
20660SOL     OW65381   9.467   3.082   9.496 -0.1616  0.0838 -0.5199
20660SOL    HW165382   9.505   3.038   9.420 -2.5095 -1.6206 -0.8110
20660SOL    HW265383   9.500   3.171   9.491  3.3969 -1.0848 -0.9379
20661SOL     OW65384   7.401   2.881   5.015 -0.3358 -0.4306 -0.2270
20661SOL    HW165385   7.482   2.873   5.066 -0.1985 -2.1166 -0.6699
20661SOL    HW265386   7.331   2.865   5.078 -0.2447 -0.7409 -0.2052
20662SOL     OW65387   5.898   9.074  10.823 -0.2179  0.1155  0.1571
20662SOL    HW165388   5.874   9.065  10.731 -0.0426  1.9311 -0.1139
20662SOL    HW265389   5.923   8.986  10.851  1.6609 -0.1548 -2.0837
20663SOL     OW65390   8.541   0.630   7.643  0.1007 -0.3873  0.4938
20663SOL    HW165391   8.490   0.703   7.678  1.3589  0.7776  0.0287
20663SOL    HW265392   8.593   0.599   7.717  0.1113 -0.3029  0.5216
20664SOL     OW65393   6.727   1.367   9.802 -0.3492  0.0044 -0.1406
20664SOL    HW165394   6.742   1.412   9.886  1.0405  1.3460 -1.0387
20664SOL    HW265395   6.712   1.439   9.740 -1.3579 -0.9712 -1.0561
20665SOL     OW65396   4.496   4.907   2.456  0.2362 -0.0603  0.2373
20665SOL    HW165397   4.411   4.882   2.421  2.1077 -1.3636 -4.0542
20665SOL    HW265398   4.537   4.823   2.481  1.0629  0.2594  0.0049
20666SOL     OW65399   7.783   0.484   7.922  1.0378 -0.0188  0.4827
20666SOL    HW165400   7.875   0.491   7.947  0.9705  0.7669  0.5209
20666SOL    HW265401   7.777   0.529   7.838  1.0363 -1.6516 -0.4425
20667SOL     OW65402   6.483   4.386   7.931  0.4651 -0.3014  0.3799
20667SOL    HW165403   6.463   4.465   7.880  1.8544 -0.2433 -0.1099
20667SOL    HW265404   6.452   4.315   7.875 -1.2551 -0.1242  1.0413
20668SOL     OW65405   2.727   2.347   2.880 -0.3397 -0.1207 -0.3429
20668SOL    HW165406   2.731   2.408   2.953  0.4569 -0.7892  0.1886
20668SOL    HW265407   2.640   2.306   2.888  0.1761 -1.0159  0.9304
20669SOL     OW65408   4.167   6.773   2.679 -0.1274  0.0302  0.1494
20669SOL    HW165409   4.102   6.703   2.691 -0.5251  0.7210  2.3293
20669SOL    HW265410   4.238   6.731   2.630 -1.4311 -1.2057 -0.7865
20670SOL     OW65411   9.220  10.641   4.424 -0.0567  0.1729  0.0992
20670SOL    HW165412   9.155  10.608   4.361  0.0770  0.9106 -0.4391
20670SOL    HW265413   9.192  10.730   4.443  1.9284  1.2810 -1.7778
20671SOL     OW65414   9.831   7.269   8.387  0.0278 -0.7145  0.2282
20671SOL    HW165415   9.851   7.178   8.367 -0.6359 -0.7904 -0.1285
20671SOL    HW265416   9.796   7.304   8.305 -1.9822 -0.8008  0.9834
20672SOL     OW65417   0.341   7.752   8.557 -0.0541 -0.7563  0.4019
20672SOL    HW165418   0.434   7.742   8.575  0.0202 -1.8054 -0.4820
20672SOL    HW265419   0.337   7.794   8.471 -0.4142  0.2443  0.8860
20673SOL     OW65420   9.342   8.882   5.205 -0.1894 -0.4237 -0.2404
20673SOL    HW165421   9.314   8.872   5.114  0.6204 -2.1466 -0.3343
20673SOL    HW265422   9.428   8.840   5.209  0.0033  0.0439  1.2222
20674SOL     OW65423   2.258   7.697   0.205 -0.2428  0.2502 -0.3346
20674SOL    HW165424   2.317   7.772   0.194  1.0433 -0.5784  0.6324
20674SOL    HW265425   2.244   7.691   0.299 -1.0548 -0.2141 -0.4729
20675SOL     OW65426   9.767   1.314   6.517 -0.2370 -0.1090  0.4557
20675SOL    HW165427   9.825   1.262   6.462 -0.7864 -0.2636  0.0070
20675SOL    HW265428   9.683   1.268   6.512 -1.2045  1.6740 -1.2991
20676SOL     OW65429   2.293   3.478  10.908 -0.1772 -0.0402  0.1337
20676SOL    HW165430   2.269   3.411  10.972 -3.0724 -0.4767 -1.2506
20676SOL    HW265431   2.384   3.500  10.930 -0.4747 -1.3360  3.2910
20677SOL     OW65432  10.005   3.144   4.625 -0.6115  0.3103  0.2356
20677SOL    HW165433  10.093   3.123   4.656 -0.7138  0.2920  0.5224
20677SOL    HW265434  10.009   3.237   4.603 -0.9712  0.7727  1.9269
20678SOL     OW65435   4.148   4.443   5.655  0.0744  0.3400 -0.1232
20678SOL    HW165436   4.055   4.441   5.633  0.4785 -0.5555 -1.9086
20678SOL    HW265437   4.191   4.400   5.582  1.7387 -1.1780  1.6553
20679SOL     OW65438   4.766   5.752   7.082 -0.3289 -0.2950  0.8262
20679SOL    HW165439   4.837   5.736   7.020 -1.8880  0.4716 -1.2840
20679SOL    HW265440   4.760   5.848   7.086 -1.7351 -0.3354  0.2995
20680SOL     OW65441   8.381   0.319   1.239  0.7362  0.2484  1.0460
20680SOL    HW165442   8.352   0.387   1.300 -0.7578 -0.1180  0.7686
20680SOL    HW265443   8.301   0.272   1.215  1.4991 -0.4964 -0.1229
20681SOL     OW65444   1.086   6.683   0.957  0.0863  0.4801  0.1143
20681SOL    HW165445   1.137   6.650   1.031  1.1119  0.7695 -0.4545
20681SOL    HW265446   1.013   6.621   0.949  1.1974 -0.8578 -0.0319
20682SOL     OW65447   3.264   2.179   9.740  0.4328  0.5883 -0.4266
20682SOL    HW165448   3.331   2.211   9.679 -0.4485  0.7599 -1.3343
20682SOL    HW265449   3.217   2.113   9.691 -0.3254  0.7575  0.0586
20683SOL     OW65450   7.348   4.956   7.574 -0.5011 -0.3012  0.1546
20683SOL    HW165451   7.298   4.902   7.635  0.7176 -0.7007  0.8328
20683SOL    HW265452   7.365   4.899   7.499  0.1915 -0.6504  0.5688
20684SOL     OW65453   5.336   5.406   2.395  0.8220 -0.2374  0.0057
20684SOL    HW165454   5.307   5.486   2.351  1.9023 -0.8058 -1.8755
20684SOL    HW265455   5.386   5.436   2.470 -1.4080  0.7820  1.1917
20685SOL     OW65456   0.941   1.968  10.126 -0.0516 -0.2349  0.6071
20685SOL    HW165457   0.855   1.966  10.085 -0.5964  2.6370  1.3734
20685SOL    HW265458   1.002   1.981  10.053 -0.2370 -2.1821  0.0714
20686SOL     OW65459   8.741   1.535  10.702 -0.4740 -0.3630 -0.1806
20686SOL    HW165460   8.792   1.614  10.685 -0.6584 -0.6033 -2.0869
20686SOL    HW265461   8.676   1.533  10.631 -1.3274 -1.5208  0.6026
20687SOL     OW65462  10.043   0.573   4.733  0.3961  0.1854  0.4122
20687SOL    HW165463  10.102   0.513   4.688  1.1980  0.4801  1.0289
20687SOL    HW265464  10.094   0.604   4.809 -0.2413  1.1105  0.4841
20688SOL     OW65465   3.195   1.246  10.565 -0.1834  0.1098  0.0140
20688SOL    HW165466   3.265   1.219  10.625 -0.8990  0.2172  0.9109
20688SOL    HW265467   3.187   1.341  10.578 -0.8224  0.0253  0.2684
20689SOL     OW65468   4.657   3.392   1.741  0.9646 -0.1084  0.0997
20689SOL    HW165469   4.583   3.399   1.801  0.3506 -2.6020 -0.2829
20689SOL    HW265470   4.718   3.333   1.785  1.6114 -0.0354 -0.6770
20690SOL     OW65471   5.004   7.777   7.751  0.5263  0.2016  0.0277
20690SOL    HW165472   5.000   7.772   7.656 -1.1564  1.0852  0.0190
20690SOL    HW265473   5.015   7.686   7.779  0.2389 -0.1659 -0.9884
20691SOL     OW65474   0.437   3.211   0.526 -0.1856 -0.2001 -0.2968
20691SOL    HW165475   0.508   3.167   0.571 -0.0945  0.3403  0.0996
20691SOL    HW265476   0.415   3.285   0.583 -0.6626 -0.0219 -0.7060
20692SOL     OW65477   7.978   6.349   5.152  0.2031  0.7124 -0.6172
20692SOL    HW165478   7.941   6.396   5.226  0.1795 -1.2160  0.6690
20692SOL    HW265479   7.984   6.258   5.182  0.1085 -0.1619 -3.0077
20693SOL     OW65480   0.626   7.276   2.526  0.0651  0.3030  0.2530
20693SOL    HW165481   0.594   7.294   2.614  0.2679 -0.9354  0.6048
20693SOL    HW265482   0.634   7.362   2.484 -2.0153  0.7666  0.7359
20694SOL     OW65483   5.168   1.027   5.018  0.1830 -0.5996  0.0483
20694SOL    HW165484   5.085   0.982   5.031  1.2908 -2.5441  0.9422
20694SOL    HW265485   5.234   0.960   5.035  1.9515  1.1685  0.5517
20695SOL     OW65486   6.125   4.881   9.043  0.4065 -0.2640 -0.1618
20695SOL    HW165487   6.094   4.805   9.091 -0.7487  0.6880  0.6619
20695SOL    HW265488   6.060   4.894   8.973  0.4550  0.1126 -0.1394
20696SOL     OW65489   0.552   2.141   0.344 -0.0449 -0.0550  0.3629
20696SOL    HW165490   0.503   2.138   0.426 -1.2343  0.4980 -0.2902
20696SOL    HW265491   0.596   2.226   0.344  0.3975 -0.2813  0.6613
20697SOL     OW65492   4.988   4.063   8.742  0.1161 -0.2250  0.1962
20697SOL    HW165493   5.003   3.969   8.728 -0.9233 -0.2878 -0.6458
20697SOL    HW265494   4.909   4.067   8.797  0.6135  0.1453  0.8894
20698SOL     OW65495   3.592   3.804  10.019 -0.9630 -0.1271 -0.9005
20698SOL    HW165496   3.629   3.744  10.084 -0.1577  0.7492 -0.5230
20698SOL    HW265497   3.669   3.838   9.972 -1.5538 -1.0867 -2.6344
20699SOL     OW65498  10.779   9.203  10.377 -0.1603  0.1751  0.0811
20699SOL    HW165499  10.699   9.225  10.329 -0.0044  0.7093  0.0567
20699SOL    HW265500  10.849   9.214  10.314 -0.1200 -0.9255 -0.0756
20700SOL     OW65501   0.461   7.634   7.134  0.3559  0.1027  0.1948
20700SOL    HW165502   0.518   7.705   7.102 -0.7835  0.1489 -1.9099
20700SOL    HW265503   0.463   7.569   7.064  0.3873 -1.4146  1.5539
20701SOL     OW65504   8.570   4.442   0.478  0.3038 -0.2075  0.4864
20701SOL    HW165505   8.610   4.521   0.514  0.5130  1.2549 -2.6440
20701SOL    HW265506   8.531   4.470   0.396  0.1185 -3.3326 -0.6204
20702SOL     OW65507   0.494   5.619   6.430  0.1184 -0.0231 -0.2658
20702SOL    HW165508   0.563   5.553   6.423  2.7415  2.5035 -0.1400
20702SOL    HW265509   0.454   5.621   6.344  0.8267 -0.8881 -0.6384
20703SOL     OW65510   4.243   9.838   9.356  0.5536 -0.3692 -0.4645
20703SOL    HW165511   4.325   9.794   9.376  0.4842 -0.9280 -1.3545
20703SOL    HW265512   4.260   9.930   9.374  0.4348 -0.7888  2.3033
20704SOL     OW65513   1.486   6.649   8.215  0.4748  0.0836  0.4425
20704SOL    HW165514   1.493   6.714   8.285  1.2818 -0.1525  0.5925
20704SOL    HW265515   1.545   6.681   8.146  0.7317 -0.3832  0.4392
20705SOL     OW65516   1.373   1.829   0.856  0.0053  0.4410  0.2255
20705SOL    HW165517   1.372   1.841   0.951  2.6917  0.6645  0.3158
20705SOL    HW265518   1.417   1.745   0.843 -0.3248  0.4151 -0.8303
20706SOL     OW65519   6.919   3.661   6.846  0.2741  0.2885 -0.1281
20706SOL    HW165520   6.980   3.734   6.839  0.3210  0.2296 -0.3224
20706SOL    HW265521   6.849   3.695   6.902  1.2752 -0.1806  1.4752
20707SOL     OW65522   7.776   8.890   0.073 -0.2292 -0.0577 -0.3367
20707SOL    HW165523   7.806   8.979   0.054 -2.1202  0.6371 -0.2183
20707SOL    HW265524   7.855   8.845   0.104  1.1568  1.0456 -2.0541
20708SOL     OW65525   3.498   5.484   5.036 -0.0031  0.1572  0.6856
20708SOL    HW165526   3.533   5.438   5.113  1.3013 -2.2594 -1.2071
20708SOL    HW265527   3.412   5.446   5.022  0.6199 -0.9995 -0.2179
20709SOL     OW65528   8.259   9.277   4.200  0.0085 -0.0410 -0.1681
20709SOL    HW165529   8.175   9.245   4.169 -0.2760 -0.5131  1.0224
20709SOL    HW265530   8.237   9.347   4.262  0.5108  0.2768 -0.3415
20710SOL     OW65531   1.045   9.876   9.445 -0.0770  0.1574 -0.9809
20710SOL    HW165532   1.069   9.799   9.495 -2.4527 -0.3206 -0.4480
20710SOL    HW265533   1.066   9.950   9.502  1.3810 -0.1058 -1.1387
20711SOL     OW65534   9.225   8.035   3.143 -0.0069 -0.6729  0.1652
20711SOL    HW165535   9.203   7.967   3.206  0.8681 -0.0815  1.1269
20711SOL    HW265536   9.159   8.103   3.158  0.1929 -0.5386  0.4333
20712SOL     OW65537   2.106   0.569  10.452  0.2027 -0.5591 -0.0479
20712SOL    HW165538   2.106   0.483  10.494 -0.8715 -0.3677  0.3837
20712SOL    HW265539   2.164   0.622  10.505  1.8927 -1.3353 -1.0441
20713SOL     OW65540   8.968   2.394  10.684  0.0125  0.1815  0.3605
20713SOL    HW165541   8.982   2.300  10.698  1.2207  0.4546  1.1114
20713SOL    HW265542   9.023   2.415  10.609 -0.9585  0.1306 -0.3869
20714SOL     OW65543   1.357   6.240   2.246  0.1717 -0.2836  0.0999
20714SOL    HW165544   1.381   6.170   2.185  0.1302 -0.1433 -0.0767
20714SOL    HW265545   1.435   6.296   2.251 -0.0284  0.0350 -0.2845
20715SOL     OW65546   4.076   6.123   7.032 -0.2059 -0.1853  0.3005
20715SOL    HW165547   4.146   6.066   7.063 -1.6179 -1.4714  1.3062
20715SOL    HW265548   4.042   6.165   7.111  1.3551  2.8560 -0.4902
20716SOL     OW65549   1.053   6.301   4.911  0.2750 -0.5600 -0.5430
20716SOL    HW165550   1.101   6.377   4.878 -0.4447  0.1769  0.0728
20716SOL    HW265551   1.059   6.308   5.006 -0.6352 -0.7243 -0.4656
20717SOL     OW65552   3.995   5.669   7.461 -0.3184 -0.3020 -0.1135
20717SOL    HW165553   4.055   5.631   7.397 -0.3448 -0.1944 -0.2032
20717SOL    HW265554   4.039   5.749   7.491 -0.7539  0.1882 -0.7462
20718SOL     OW65555   1.542   9.320   7.838 -0.3324  0.1607  0.6900
20718SOL    HW165556   1.601   9.385   7.877  1.0212 -0.8617  0.3898
20718SOL    HW265557   1.475   9.373   7.793 -0.0702  1.3371  1.6226
20719SOL     OW65558   6.587   2.940   0.815  0.5464  0.0227  0.2378
20719SOL    HW165559   6.643   3.017   0.810  1.8248 -0.8073  1.3888
20719SOL    HW265560   6.633   2.873   0.763  0.7723 -0.7341  1.3843
20720SOL     OW65561   0.137  10.161   6.810  0.6808  0.5132 -0.5251
20720SOL    HW165562   0.088  10.103   6.868  1.2538  2.3877  2.0072
20720SOL    HW265563   0.078  10.233   6.792  1.5213  1.4506  0.3200
20721SOL     OW65564   8.005   9.107   4.297  0.4400  0.2212 -0.0204
20721SOL    HW165565   8.021   9.158   4.377 -0.6617  1.3415 -0.4870
20721SOL    HW265566   7.960   9.167   4.238  0.0418 -0.9882 -1.0008
20722SOL     OW65567   3.102   9.013   4.711  0.2911 -0.4780 -0.0047
20722SOL    HW165568   3.162   9.088   4.711 -0.2541  0.0148 -2.3475
20722SOL    HW265569   3.050   9.025   4.791  2.2054 -0.0667  1.2576
20723SOL     OW65570   8.631   7.069   9.449 -0.4013 -0.6020  0.0462
20723SOL    HW165571   8.571   7.034   9.383 -0.9716  0.6909 -0.1500
20723SOL    HW265572   8.644   7.160   9.423 -0.5294 -0.1064  1.6509
20724SOL     OW65573  10.300   1.247   0.930  0.1613 -0.1141 -0.0205
20724SOL    HW165574  10.235   1.187   0.965 -0.7836  0.1950 -1.1682
20724SOL    HW265575  10.261   1.334   0.939  0.3600  0.0676 -0.7727
20725SOL     OW65576   8.903   5.395   6.695  0.3579 -0.4132  0.3325
20725SOL    HW165577   8.938   5.342   6.768  1.8014  0.3753  0.2570
20725SOL    HW265578   8.901   5.484   6.730  1.6395  0.0685 -0.7505
20726SOL     OW65579   7.917   5.753   3.315 -0.4826 -0.1510  0.2650
20726SOL    HW165580   7.851   5.756   3.384  0.7239 -1.0959  1.5123
20726SOL    HW265581   7.967   5.673   3.333  0.6315  0.2256 -0.9900
20727SOL     OW65582  10.905   1.261   6.928 -0.3152 -0.0022  0.0218
20727SOL    HW165583  10.852   1.213   6.864 -1.0393 -0.3310  0.8508
20727SOL    HW265584  10.994   1.231   6.912 -0.9474 -3.5832  2.0799
20728SOL     OW65585   4.690  10.427   0.974  0.1150  0.3683 -0.6585
20728SOL    HW165586   4.664  10.399   0.886 -1.8692  2.3102 -0.7622
20728SOL    HW265587   4.724  10.516   0.962  0.2406  0.4854  0.4747
20729SOL     OW65588   8.457   7.344   1.122  0.3199 -0.1578  0.1132
20729SOL    HW165589   8.409   7.356   1.204 -0.1795  1.9096 -0.4016
20729SOL    HW265590   8.389   7.327   1.057  0.3340  1.5005 -0.3949
20730SOL     OW65591   1.317   8.062   8.054 -0.0883 -0.1700  0.9350
20730SOL    HW165592   1.258   8.088   7.983  1.4375 -1.0610 -0.7022
20730SOL    HW265593   1.351   7.977   8.028  0.5446 -0.5075  2.7376
20731SOL     OW65594   8.213  10.374   9.619 -0.2894  0.5142 -0.9631
20731SOL    HW165595   8.151  10.308   9.651  0.5275  0.2013  0.0336
20731SOL    HW265596   8.289  10.324   9.589  0.0244  0.9629 -0.9300
20732SOL     OW65597   2.418   3.669   3.966 -0.1036 -0.0848  0.6936
20732SOL    HW165598   2.441   3.702   4.054  0.9074  0.8704  0.1000
20732SOL    HW265599   2.344   3.723   3.939  1.4169  1.6527 -0.1898
20733SOL     OW65600   7.181   4.569   3.130 -0.1786  0.0776 -0.6539
20733SOL    HW165601   7.177   4.474   3.141 -2.1560  0.2630  0.8214
20733SOL    HW265602   7.220   4.601   3.212 -2.4611  0.6562  0.3081
20734SOL     OW65603   0.599   4.356   9.101 -0.2182  0.1698 -0.3531
20734SOL    HW165604   0.506   4.334   9.115 -0.0487 -0.9749 -0.9668
20734SOL    HW265605   0.640   4.338   9.186  0.0047 -2.4698 -0.9605
20735SOL     OW65606   4.902   0.043   3.975  0.4015 -0.0808  0.1839
20735SOL    HW165607   4.864   0.084   3.897 -0.5607 -0.8921  0.2160
20735SOL    HW265608   4.835   0.052   4.042 -0.3551 -2.7062 -0.1175
20736SOL     OW65609   2.987   1.542   1.956 -0.3488  0.2183 -0.4702
20736SOL    HW165610   3.031   1.464   1.922 -0.0212  0.5629 -0.8538
20736SOL    HW265611   2.936   1.575   1.882 -0.8769  0.0942 -0.1664
20737SOL     OW65612   2.629   2.115   3.272  0.6323 -0.6994 -0.3850
20737SOL    HW165613   2.599   2.206   3.280 -1.6083 -1.3601 -0.7503
20737SOL    HW265614   2.710   2.113   3.323  0.8690  1.5446 -0.5409
20738SOL     OW65615   5.194   5.608  10.070  0.2745  0.5729 -0.0673
20738SOL    HW165616   5.248   5.551  10.125  1.6015  1.1237 -0.7604
20738SOL    HW265617   5.139   5.656  10.133 -0.6191 -1.1744  0.5443
20739SOL     OW65618   5.614   5.230   9.417 -0.1421  1.0363 -0.4777
20739SOL    HW165619   5.544   5.201   9.359  0.3327 -0.5451 -0.3127
20739SOL    HW265620   5.689   5.175   9.394  0.4998  1.4180  0.5992
20740SOL     OW65621   8.926   1.240   2.646  0.1546  0.3267  0.2224
20740SOL    HW165622   8.887   1.327   2.653 -0.4423  0.1602 -0.8228
20740SOL    HW265623   9.016   1.256   2.617 -0.0956  0.5954 -0.4422
20741SOL     OW65624   7.244   1.798   3.892  0.0745  0.2898 -0.0155
20741SOL    HW165625   7.185   1.757   3.955  0.6760  1.2587  1.2244
20741SOL    HW265626   7.206   1.778   3.806 -1.7859  0.4686  0.7233
20742SOL     OW65627   3.419   7.735   6.357 -0.3055  0.3241  0.1675
20742SOL    HW165628   3.498   7.717   6.305 -0.2203 -1.3915  0.8149
20742SOL    HW265629   3.451   7.783   6.433 -0.2315  1.6330 -0.6751
20743SOL     OW65630   2.389   3.251   7.969  0.2967 -0.3053  0.2444
20743SOL    HW165631   2.417   3.336   8.003 -0.2782 -0.3254  0.7869
20743SOL    HW265632   2.408   3.255   7.875  0.8043  0.2030  0.3647
20744SOL     OW65633   0.408   7.806  10.386  0.1037 -0.3941 -0.1437
20744SOL    HW165634   0.397   7.854  10.305  0.8122  0.0847  0.0352
20744SOL    HW265635   0.496   7.769  10.381  0.3857  0.1219  0.6389
20745SOL     OW65636   1.706   4.106   2.324  0.1087 -0.1689 -0.0556
20745SOL    HW165637   1.754   4.183   2.293  1.8036 -1.4014 -0.6494
20745SOL    HW265638   1.664   4.135   2.405  1.9884  0.9640  0.5809
20746SOL     OW65639   0.368   7.184   0.467  0.1284  0.3081  0.4127
20746SOL    HW165640   0.375   7.255   0.403 -0.0253  0.9961  1.1470
20746SOL    HW265641   0.283   7.198   0.509 -0.1306 -0.6149  0.2146
20747SOL     OW65642   1.730   0.168   2.184  0.2214  0.7556 -0.2535
20747SOL    HW165643   1.683   0.249   2.163 -0.1968  0.4993 -0.3101
20747SOL    HW265644   1.662   0.103   2.200  0.5513  0.5415  0.3271
20748SOL     OW65645   2.640   3.400   8.659  0.3584 -1.0001  0.8104
20748SOL    HW165646   2.706   3.374   8.595 -0.7936 -0.5029 -0.6346
20748SOL    HW265647   2.688   3.449   8.725  1.3674 -0.1559 -0.5085
20749SOL     OW65648   2.205   4.699   8.317  0.2543  0.3110  0.1874
20749SOL    HW165649   2.188   4.619   8.366 -1.2506  1.5829  1.9228
20749SOL    HW265650   2.292   4.726   8.345 -0.1269  0.4039  1.3698
20750SOL     OW65651   9.046   4.517   3.652  0.2018 -0.4281  0.2774
20750SOL    HW165652   9.053   4.612   3.646  0.6645 -0.4810 -0.1458
20750SOL    HW265653   9.017   4.500   3.741  1.7372  0.0388  0.9037
20751SOL     OW65654   5.096   7.663   3.361  0.4575 -0.1641  0.3316
20751SOL    HW165655   5.016   7.703   3.395  0.0746 -1.5378  1.1340
20751SOL    HW265656   5.154   7.657   3.437  0.7649 -0.5075  0.0745
20752SOL     OW65657   5.310   1.126   0.656  0.3325  0.8076  0.2972
20752SOL    HW165658   5.273   1.180   0.726 -0.3536  1.5825 -0.6285
20752SOL    HW265659   5.321   1.187   0.583  1.0122  0.0105 -0.2878
20753SOL     OW65660   3.990   4.517   2.506 -0.4164  0.1996 -0.5974
20753SOL    HW165661   3.977   4.478   2.592 -1.4118  0.3361 -0.6725
20753SOL    HW265662   4.010   4.442   2.449  1.1435  0.2073 -0.0997
20754SOL     OW65663   7.375   1.414   5.904 -0.4769  0.4122 -0.1314
20754SOL    HW165664   7.329   1.334   5.930 -0.8166  0.4006 -0.7473
20754SOL    HW265665   7.347   1.429   5.814  1.1424  0.1022 -0.7299
20755SOL     OW65666   0.109   6.006  10.732  0.4083  0.6073 -0.2817
20755SOL    HW165667   0.181   5.966  10.685  2.9108  1.9481  2.0931
20755SOL    HW265668   0.141   6.094  10.755 -1.4851  0.8332  1.8659
20756SOL     OW65669   5.699   2.159   1.295 -0.2151  0.2710  0.1812
20756SOL    HW165670   5.786   2.132   1.326 -0.3246 -0.0240  0.2399
20756SOL    HW265671   5.706   2.157   1.200 -0.1146  0.3890  0.1858
20757SOL     OW65672   3.564   1.415   0.855 -0.4219  0.1247 -0.0543
20757SOL    HW165673   3.518   1.360   0.792 -0.9564 -0.7040  1.0269
20757SOL    HW265674   3.629   1.356   0.894 -0.7136  0.3673  0.8093
20758SOL     OW65675  10.143   3.721   7.243 -0.3081 -0.3875  0.2775
20758SOL    HW165676  10.075   3.786   7.262  0.8077  0.6534  0.8066
20758SOL    HW265677  10.183   3.701   7.328  1.6220  0.8115 -0.2863
20759SOL     OW65678   8.139   5.194   5.872 -0.7895 -0.5081  0.0783
20759SOL    HW165679   8.090   5.253   5.814 -0.1513 -0.1719 -0.1367
20759SOL    HW265680   8.077   5.125   5.894 -1.5910  0.2952  0.4110
20760SOL     OW65681   5.049   0.769   2.326  0.0424  0.7319 -0.6079
20760SOL    HW165682   5.052   0.714   2.404 -2.5213  0.4967 -0.5880
20760SOL    HW265683   5.009   0.714   2.259 -2.5989  2.4266 -0.5815
20761SOL     OW65684   0.097   1.529   3.844 -0.6171  0.1648  0.6779
20761SOL    HW165685   0.052   1.613   3.839 -1.4381 -0.3029 -1.5181
20761SOL    HW265686   0.042   1.476   3.902 -0.1090  1.0892  2.0503
20762SOL     OW65687   0.096   1.486   7.422 -0.4019  0.0352 -0.4132
20762SOL    HW165688   0.146   1.503   7.342 -1.0857  1.8395 -0.5151
20762SOL    HW265689   0.146   1.529   7.491  0.3294 -1.7458  0.2348
20763SOL     OW65690   8.792  10.666   7.623 -0.4028  0.6266  0.4377
20763SOL    HW165691   8.754  10.611   7.692 -0.7550  0.3676  0.0358
20763SOL    HW265692   8.717  10.700   7.575 -0.1973  1.5799  0.7661
20764SOL     OW65693   3.523   2.786   1.285 -0.1419  0.8431  0.0509
20764SOL    HW165694   3.472   2.788   1.203 -1.0062 -0.7280  0.5061
20764SOL    HW265695   3.611   2.762   1.257 -0.0992  1.6227 -0.5396
20765SOL     OW65696   7.668   4.716   2.723  0.1744  0.3798  0.1522
20765SOL    HW165697   7.591   4.709   2.668  1.5182 -0.9120 -1.6807
20765SOL    HW265698   7.733   4.659   2.682  2.4249  2.0897  1.0982
20766SOL     OW65699   6.377   2.835   6.741  0.4863  0.4704 -0.3465
20766SOL    HW165700   6.455   2.800   6.698  1.6273  1.9957  0.3676
20766SOL    HW265701   6.384   2.804   6.831 -0.0523  0.1195 -0.4256
20767SOL     OW65702   3.731   0.791   9.019  0.1477 -0.0018 -0.3357
20767SOL    HW165703   3.706   0.844   9.095 -0.1314  1.3036 -1.2924
20767SOL    HW265704   3.735   0.701   9.052  0.9334  0.6425  1.4179
20768SOL     OW65705   1.513   4.053   9.119  0.0217  0.0123  0.3726
20768SOL    HW165706   1.507   4.140   9.080 -2.3115  0.0679  0.7008
20768SOL    HW265707   1.582   4.061   9.186  0.5117  1.3058 -0.2586
20769SOL     OW65708   0.771   2.206   8.633  0.4428 -0.1509  0.8965
20769SOL    HW165709   0.797   2.158   8.712  1.2610 -1.2562 -0.0158
20769SOL    HW265710   0.771   2.141   8.564  0.2143  0.8968 -0.1234
20770SOL     OW65711   3.597   5.415   2.156  0.4958  0.2788 -1.1530
20770SOL    HW165712   3.575   5.502   2.123 -0.0602  0.0427 -1.4393
20770SOL    HW265713   3.679   5.392   2.112  0.9767  0.9070 -0.5954
20771SOL     OW65714   1.334   0.244   0.079  0.8315 -0.3860  0.4534
20771SOL    HW165715   1.305   0.252   0.170  0.8361  1.4649  0.3378
20771SOL    HW265716   1.282   0.173   0.043 -2.2906  1.5266  0.7982
20772SOL     OW65717   7.017   9.111   4.899  0.5407  0.3776  0.1328
20772SOL    HW165718   7.072   9.051   4.950 -0.3445 -1.3813 -0.8909
20772SOL    HW265719   7.049   9.103   4.810  0.1312  1.1395 -0.0899
20773SOL     OW65720  10.735   5.404   6.747  0.0334 -0.2296  0.3965
20773SOL    HW165721  10.784   5.436   6.671 -1.3479  1.9364  0.3437
20773SOL    HW265722  10.667   5.348   6.711 -0.1071  0.1248  0.1152
20774SOL     OW65723   6.182   6.354   1.024  0.1762 -0.1216  0.1565
20774SOL    HW165724   6.212   6.263   1.026 -0.0267 -0.1920  0.0002
20774SOL    HW265725   6.108   6.354   0.963 -0.8999 -0.1744  1.4325
20775SOL     OW65726   4.074   1.317   8.593  0.4775 -0.7338 -0.3019
20775SOL    HW165727   4.149   1.351   8.642 -0.6713  1.9759 -0.2512
20775SOL    HW265728   4.018   1.278   8.660 -0.2441  1.3531  0.3929
20776SOL     OW65729   9.255   7.274   5.504  0.0827 -0.1805 -0.1876
20776SOL    HW165730   9.305   7.254   5.584 -0.5655 -1.1013  0.0057
20776SOL    HW265731   9.311   7.335   5.456  0.7419 -0.0518  0.7048
20777SOL     OW65732   2.683   9.893   5.907  0.0002  0.0481  0.4288
20777SOL    HW165733   2.642   9.808   5.886  2.2229 -1.0573  0.2895
20777SOL    HW265734   2.660   9.948   5.832 -2.9174  0.1989  1.2939
20778SOL     OW65735   6.190   1.080   4.426 -0.4276  0.0526  0.3172
20778SOL    HW165736   6.106   1.124   4.422 -1.0339 -0.6998  2.6413
20778SOL    HW265737   6.254   1.151   4.435 -1.1302  0.5868  1.4006
20779SOL     OW65738   9.869   5.736   4.017  0.1496 -0.3612 -0.0269
20779SOL    HW165739   9.826   5.741   4.103  0.9842 -0.0774  0.3881
20779SOL    HW265740   9.953   5.693   4.035  1.0780  1.2250 -0.3968
20780SOL     OW65741   7.997   0.949  10.416  0.6318  0.4802  0.2880
20780SOL    HW165742   7.934   1.021  10.428 -0.1763 -0.4425  1.9326
20780SOL    HW265743   8.056   0.957  10.491  1.6747  0.5020 -0.5122
20781SOL     OW65744   0.194   2.132   8.136 -0.1160  0.1658 -0.1006
20781SOL    HW165745   0.272   2.152   8.188 -1.0096  1.4625  0.8142
20781SOL    HW265746   0.138   2.082   8.196 -1.3324  2.0242  0.3983
20782SOL     OW65747   5.961   0.216   5.557  0.2852 -0.0853 -0.0171
20782SOL    HW165748   5.885   0.203   5.614  1.5559 -1.3519  1.4963
20782SOL    HW265749   5.972   0.311   5.554 -0.8689  0.0800  0.4104
20783SOL     OW65750   4.747   5.733  10.747 -0.3567 -0.4681 -0.0725
20783SOL    HW165751   4.818   5.796  10.738 -0.0071 -0.6048  1.4228
20783SOL    HW265752   4.699   5.762  10.824 -2.3645  0.0055 -1.4213
20784SOL     OW65753   5.524   6.332   6.815  0.5336  0.3651 -1.0419
20784SOL    HW165754   5.436   6.350   6.781  1.0916  2.6357 -1.4390
20784SOL    HW265755   5.583   6.360   6.744  1.6004 -0.3219 -0.4494
20785SOL     OW65756   1.472   8.280   5.342  0.2017  0.0263  0.2057
20785SOL    HW165757   1.481   8.192   5.380 -1.1572 -1.0750 -1.7770
20785SOL    HW265758   1.432   8.264   5.256  1.0698  2.5062 -0.7421
20786SOL     OW65759   3.278   7.624  10.596  0.3596  0.6944  0.0981
20786SOL    HW165760   3.280   7.633  10.501  0.4881  1.0353  0.1324
20786SOL    HW265761   3.305   7.710  10.630  1.7370  0.1562  0.4336
20787SOL     OW65762  10.690   5.094  10.190  0.2283 -0.1646  0.5483
20787SOL    HW165763  10.635   5.068  10.116  0.1435  0.7672  0.2781
20787SOL    HW265764  10.780   5.078  10.161  0.1714 -0.2835  0.4369
20788SOL     OW65765   4.182   2.338   0.103  0.1918  0.3022 -0.0849
20788SOL    HW165766   4.138   2.260   0.070  0.9023 -0.0573 -0.2037
20788SOL    HW265767   4.248   2.358   0.036 -0.0216  1.0299 -0.0771
20789SOL     OW65768   1.014   7.461   6.428  0.4170 -0.7674 -0.5940
20789SOL    HW165769   1.077   7.466   6.356  1.3788  0.8856  0.2980
20789SOL    HW265770   0.975   7.374   6.420  2.0204 -1.4170 -1.8411
20790SOL     OW65771  10.595   8.743  10.052 -0.2644  0.0102 -0.3175
20790SOL    HW165772  10.644   8.769   9.973  0.4556 -1.1907 -0.2913
20790SOL    HW265773  10.653   8.681  10.096 -1.1564 -0.2162  0.5611
20791SOL     OW65774   7.744   5.315   4.241  0.0789  0.0488  0.3520
20791SOL    HW165775   7.714   5.245   4.183 -0.5734  0.2372  0.4489
20791SOL    HW265776   7.807   5.273   4.299 -0.8748 -0.6503  0.9187
20792SOL     OW65777   7.486   8.705   3.882 -0.2531 -0.3021 -0.2557
20792SOL    HW165778   7.422   8.656   3.934 -0.2556  0.5537  0.5757
20792SOL    HW265779   7.505   8.648   3.807  0.1875 -1.8266  0.9607
20793SOL     OW65780   1.264   4.458   2.129 -0.2350  0.6515  0.0230
20793SOL    HW165781   1.258   4.367   2.160  1.0694  0.9702  1.3536
20793SOL    HW265782   1.282   4.450   2.036 -0.4628 -0.4545  0.0578
20794SOL     OW65783   9.990   1.325   4.610  0.5136  0.4232  0.1123
20794SOL    HW165784  10.065   1.356   4.559  0.9707  0.5023  0.8143
20794SOL    HW265785   9.919   1.386   4.590 -0.0960 -0.9821 -2.3795
20795SOL     OW65786   7.581   7.424   4.382 -0.0276  0.1966 -0.6288
20795SOL    HW165787   7.590   7.456   4.292  0.7102 -0.3039 -0.7412
20795SOL    HW265788   7.610   7.498   4.436  0.3543  0.2096 -0.8415
20796SOL     OW65789   0.650   5.201   8.076 -0.0219 -0.1419  0.5359
20796SOL    HW165790   0.734   5.187   8.119  0.9279 -1.8587 -1.6690
20796SOL    HW265791   0.593   5.133   8.112  0.2349 -0.4435  0.3798
20797SOL     OW65792   4.034   7.735   2.369 -0.1112 -0.3120 -0.6580
20797SOL    HW165793   3.960   7.728   2.309 -0.8517 -1.5118  0.3377
20797SOL    HW265794   4.101   7.677   2.333 -0.9679 -1.9021  0.1981
20798SOL     OW65795   8.297   8.300   1.645 -0.1775 -0.1285 -0.5042
20798SOL    HW165796   8.374   8.251   1.673  0.1654 -0.0236 -1.2659
20798SOL    HW265797   8.332   8.376   1.598 -0.7177  0.4909  0.0686
20799SOL     OW65798   9.467   5.198   6.527 -0.1502  0.6528  0.3263
20799SOL    HW165799   9.413   5.207   6.448  2.3692 -0.6390 -1.7139
20799SOL    HW265800   9.407   5.166   6.594 -2.2597  1.0272 -1.2761
20800SOL     OW65801   8.770   8.149  10.808  0.1896 -0.1528  0.1619
20800SOL    HW165802   8.688   8.158  10.758 -0.2805  0.0375  0.9542
20800SOL    HW265803   8.831   8.208  10.764 -0.0429 -0.4188 -0.5407
20801SOL     OW65804   8.378  10.656   1.314  0.2459 -0.0875 -0.3603
20801SOL    HW165805   8.317  10.728   1.295 -0.2762 -1.0226 -2.5578
20801SOL    HW265806   8.324  10.577   1.309  1.2579 -0.7950 -0.3352
20802SOL     OW65807  10.894   6.463   5.699  0.6360  0.5156  0.2442
20802SOL    HW165808  10.923   6.543   5.742  2.3876  1.4266 -2.3988
20802SOL    HW265809  10.955   6.396   5.730  0.8717  0.7840  0.3650
20803SOL     OW65810   6.117   3.060   2.183  0.1125 -0.3376 -0.2333
20803SOL    HW165811   6.057   3.032   2.113  0.2983 -0.7525 -0.2306
20803SOL    HW265812   6.138   3.150   2.161 -1.2259  0.1110  0.2653
20804SOL     OW65813   2.718   9.944   0.356 -0.2331  0.1070 -0.2170
20804SOL    HW165814   2.691  10.011   0.419  0.0385 -1.5441  1.7494
20804SOL    HW265815   2.683   9.974   0.273 -1.2965  1.9883  0.8442
20805SOL     OW65816   9.668   2.849   7.973  0.6265 -0.4109  0.1126
20805SOL    HW165817   9.597   2.785   7.973  2.1676 -2.2661 -1.4514
20805SOL    HW265818   9.645   2.910   7.903  1.1658 -1.8095 -1.3455
20806SOL     OW65819   2.149   7.663   7.655 -0.4387  0.1362 -0.2558
20806SOL    HW165820   2.176   7.709   7.576  0.1412  1.4956  0.6785
20806SOL    HW265821   2.124   7.576   7.626  0.1413  0.4807 -1.8629
20807SOL     OW65822   3.614   6.572   2.084 -0.4052 -0.1167 -0.3857
20807SOL    HW165823   3.600   6.497   2.025 -1.8922 -0.4883  0.4103
20807SOL    HW265824   3.546   6.634   2.060  0.8772  1.0682 -1.1011
20808SOL     OW65825   8.020   4.507   9.055 -0.0962  0.4425 -0.6994
20808SOL    HW165826   8.017   4.588   9.106 -1.4396 -0.2006  0.3103
20808SOL    HW265827   7.992   4.439   9.116  0.4271 -0.7140 -1.6929
20809SOL     OW65828   6.276   7.680   9.410  0.1712 -0.0508  0.2589
20809SOL    HW165829   6.237   7.738   9.475 -2.7988 -0.5439 -0.9000
20809SOL    HW265830   6.279   7.732   9.330 -0.6841 -0.8561 -0.3184
20810SOL     OW65831   5.708   9.905   4.791  0.2718  0.0236  0.3991
20810SOL    HW165832   5.650   9.860   4.730  0.5352  1.5993 -1.0888
20810SOL    HW265833   5.776   9.840   4.812 -0.3704 -0.8621 -0.2019
20811SOL     OW65834   0.606   1.050  10.717 -0.0123  0.7146 -0.3873
20811SOL    HW165835   0.550   1.107  10.769  1.0492 -0.2716  1.9930
20811SOL    HW265836   0.693   1.091  10.723  0.6645 -0.7995  0.9598
20812SOL     OW65837   3.129   1.257  10.118  0.0908 -0.0894  0.1431
20812SOL    HW165838   3.071   1.290  10.187  0.8780  1.3541  0.1517
20812SOL    HW265839   3.213   1.243  10.161  0.5063  0.5290 -0.4431
20813SOL     OW65840   2.815   9.368   6.319  0.5954 -0.3722  0.2790
20813SOL    HW165841   2.776   9.388   6.404 -0.2624  0.0205 -0.1966
20813SOL    HW265842   2.899   9.415   6.320 -0.1903  1.0975  0.2316
20814SOL     OW65843  10.462   6.707   4.966  0.5095  0.4090 -0.1736
20814SOL    HW165844  10.488   6.741   5.051 -0.6402  0.7430  0.0671
20814SOL    HW265845  10.481   6.613   4.971 -0.2671  0.2851  0.7534
20815SOL     OW65846   9.376   4.833   0.763  0.4014  0.3574 -0.4574
20815SOL    HW165847   9.355   4.813   0.854 -1.0182  1.0523 -0.5971
20815SOL    HW265848   9.302   4.798   0.713  0.2065  1.6911 -1.1485
20816SOL     OW65849   3.235   2.223   6.140  0.5377  0.1047  0.2018
20816SOL    HW165850   3.327   2.245   6.154  0.8903 -1.3632  0.4010
20816SOL    HW265851   3.201   2.208   6.228 -0.2725  1.9160  0.2391
20817SOL     OW65852   2.453   5.237   9.989 -0.1308  0.4029  0.1085
20817SOL    HW165853   2.514   5.281  10.048  1.7426 -1.9752  0.1302
20817SOL    HW265854   2.422   5.161  10.038  0.8364 -1.1705 -1.5828
20818SOL     OW65855   0.044   5.572   3.396 -0.3306 -0.0501 -0.1452
20818SOL    HW165856   0.040   5.599   3.304  2.0257 -0.1052 -0.3481
20818SOL    HW265857   0.064   5.653   3.444 -1.5292 -0.0247  0.3402
20819SOL     OW65858   7.852   4.622   5.251 -0.4884 -0.1550 -0.0040
20819SOL    HW165859   7.910   4.686   5.210 -2.2943  2.0414  0.6609
20819SOL    HW265860   7.771   4.627   5.201 -0.8205 -1.6467  0.3439
20820SOL     OW65861   5.387   2.186   7.473 -0.4549  0.0762  0.0924
20820SOL    HW165862   5.481   2.181   7.457 -0.6109  1.8965 -1.7947
20820SOL    HW265863   5.349   2.200   7.387 -2.4837 -0.5882  0.8275
20821SOL     OW65864   9.138   9.459   1.159  0.5117  0.0237 -0.2803
20821SOL    HW165865   9.187   9.510   1.223  0.0449  0.8406 -0.5576
20821SOL    HW265866   9.061   9.427   1.206 -1.2055  2.7631 -0.9943
20822SOL     OW65867   0.685   4.378  10.480  0.5101 -0.6802 -0.0178
20822SOL    HW165868   0.663   4.300  10.429 -0.1603 -0.5801  0.0990
20822SOL    HW265869   0.601   4.424  10.490  0.7888 -0.2575  0.4317
20823SOL     OW65870   0.012   8.637  10.437 -0.0964  0.3515 -0.3733
20823SOL    HW165871   0.030   8.649  10.530  0.3585  1.4758 -0.5983
20823SOL    HW265872  -0.064   8.692  10.420  0.9327  1.6246 -1.0357
20824SOL     OW65873   7.173   3.607   2.065  0.3828 -0.5123 -0.7715
20824SOL    HW165874   7.204   3.531   2.114 -0.6671 -0.8514 -0.6191
20824SOL    HW265875   7.169   3.577   1.974 -0.1117 -0.6632 -0.6993
20825SOL     OW65876   8.045   8.213   3.393  0.5253  0.1870  0.4952
20825SOL    HW165877   8.012   8.300   3.372  0.6742  0.4347  1.2672
20825SOL    HW265878   7.976   8.173   3.446 -0.4392 -0.9357 -1.4958
20826SOL     OW65879   9.937   0.323   0.030  0.5708 -0.3754  0.2807
20826SOL    HW165880   9.903   0.237   0.006  0.2256 -0.5685  1.3902
20826SOL    HW265881  10.032   0.315   0.019  0.6390 -1.2384  1.3169
20827SOL     OW65882   0.393  10.057   1.116  0.0541 -0.5960  0.2303
20827SOL    HW165883   0.346  10.107   1.049 -0.3849  0.1519  1.0758
20827SOL    HW265884   0.457  10.005   1.067  1.6028  1.9158 -0.6198
20828SOL     OW65885   0.614   4.457   1.975 -0.5133  0.0256  0.1097
20828SOL    HW165886   0.631   4.513   1.899 -0.9686 -0.4652 -0.3543
20828SOL    HW265887   0.540   4.403   1.950 -1.7527  0.9838  1.5118
20829SOL     OW65888   6.467   5.149   3.264 -0.1784 -0.0215 -0.1289
20829SOL    HW165889   6.511   5.208   3.325 -0.3105 -0.4936  0.4288
20829SOL    HW265890   6.484   5.061   3.298 -0.4515 -0.2822 -0.6419
20830SOL     OW65891   8.922   1.027   3.457  0.9964  0.1674  0.4909
20830SOL    HW165892   8.835   1.014   3.496  1.4169  3.5413  3.0415
20830SOL    HW265893   8.915   1.112   3.413  3.3286  1.2741  2.0771
20831SOL     OW65894  10.643   1.926   2.355  0.1317 -0.5219  0.1410
20831SOL    HW165895  10.627   1.833   2.368  0.9960 -0.8884 -1.2195
20831SOL    HW265896  10.584   1.970   2.417  0.3496 -1.9724  1.4273
20832SOL     OW65897   3.352   6.620   7.577  0.0011 -0.9978 -0.2907
20832SOL    HW165898   3.425   6.647   7.522  1.7040 -0.3874  2.1440
20832SOL    HW265899   3.364   6.668   7.659 -2.7405 -1.4331  0.4660
20833SOL     OW65900   5.534   5.566   3.550 -0.3918 -0.2423 -0.5248
20833SOL    HW165901   5.476   5.608   3.614  0.2470  0.3505 -0.3140
20833SOL    HW265902   5.521   5.472   3.563  0.4764 -0.1628  1.2041
20834SOL     OW65903  10.702  10.029   2.223  0.3357  0.1300 -0.0021
20834SOL    HW165904  10.690  10.004   2.314 -2.4540 -0.7477 -0.5384
20834SOL    HW265905  10.778   9.978   2.194  1.6722  0.9099  1.9443
20835SOL     OW65906   9.199   7.759   3.023 -0.2090 -0.2825 -0.4781
20835SOL    HW165907   9.221   7.844   3.061 -0.5651 -0.7358  0.7761
20835SOL    HW265908   9.201   7.774   2.928  2.6939  0.3741 -0.3806
20836SOL     OW65909   0.314   5.209   0.191 -0.1011 -0.0685  0.4880
20836SOL    HW165910   0.405   5.197   0.166 -0.1755  0.0780  0.1316
20836SOL    HW265911   0.291   5.295   0.157 -0.8635 -0.7971 -0.9540
20837SOL     OW65912   8.748   9.728   5.310 -0.0095 -0.5201  0.1837
20837SOL    HW165913   8.670   9.767   5.349  1.4633  2.1225  0.7918
20837SOL    HW265914   8.741   9.749   5.217 -1.5639 -3.2863 -0.4318
20838SOL     OW65915   8.161   7.668   0.595 -0.5289  0.1147 -0.5991
20838SOL    HW165916   8.082   7.716   0.569 -1.4239 -0.6061  0.6653
20838SOL    HW265917   8.138   7.628   0.679  0.8391 -0.9533 -0.6967
20839SOL     OW65918  10.359   0.629   2.658  0.0313  0.1990 -0.0842
20839SOL    HW165919  10.388   0.540   2.642  1.2537  0.9871 -2.9887
20839SOL    HW265920  10.439   0.682   2.654 -0.8831  1.6208 -0.5472
20840SOL     OW65921   3.188   5.271   6.763 -0.4686  0.0096  0.5220
20840SOL    HW165922   3.102   5.234   6.785  0.0559 -2.1525 -0.7990
20840SOL    HW265923   3.234   5.275   6.846 -2.2050  2.4388  1.4977
20841SOL     OW65924  10.716   7.643   4.223 -0.1009 -0.6021  0.0406
20841SOL    HW165925  10.667   7.712   4.178 -0.3361  0.0309  1.2393
20841SOL    HW265926  10.653   7.572   4.233  0.2649 -1.1986 -1.5913
20842SOL     OW65927   9.685   5.476  10.393 -0.3124  0.2741 -0.0068
20842SOL    HW165928   9.715   5.468  10.484 -1.3993  1.5061  0.4863
20842SOL    HW265929   9.595   5.443  10.394 -0.4205  0.5388 -0.5853
20843SOL     OW65930   4.163   4.876  10.653  0.2150 -0.7336  0.2356
20843SOL    HW165931   4.245   4.827  10.666  0.6158 -0.3760 -0.8652
20843SOL    HW265932   4.122   4.834  10.577 -0.3527 -0.5441  0.4317
20844SOL     OW65933   8.450   6.831   2.645 -0.3020 -0.4184  0.4291
20844SOL    HW165934   8.362   6.842   2.609 -0.2428 -1.2140  0.0289
20844SOL    HW265935   8.508   6.857   2.574 -0.1975  0.6995  0.8922
20845SOL     OW65936   6.321   0.194  10.610  0.1360 -0.2221 -0.3185
20845SOL    HW165937   6.416   0.204  10.618  0.0957  0.0722 -0.2053
20845SOL    HW265938   6.300   0.237  10.527  0.0313  0.1886 -0.0822
20846SOL     OW65939   5.280   7.928   1.135 -0.0733 -0.6292  0.3070
20846SOL    HW165940   5.267   7.935   1.040 -0.2660  0.1719  0.3882
20846SOL    HW265941   5.196   7.899   1.169 -0.1933 -0.2834  0.3031
20847SOL     OW65942   4.272   4.885   4.144  0.0319  0.1778  0.0875
20847SOL    HW165943   4.365   4.899   4.127  0.2474 -0.2087  0.9022
20847SOL    HW265944   4.238   4.846   4.063  0.7258 -0.3082  0.0203
20848SOL     OW65945   0.799   1.747   1.267 -0.0651 -0.2295 -0.3034
20848SOL    HW165946   0.872   1.697   1.232  0.3361  0.5833 -0.6592
20848SOL    HW265947   0.729   1.736   1.204 -0.0864 -0.6040 -0.2151
20849SOL     OW65948   8.371   0.841   9.565 -0.2772 -0.3660  0.1121
20849SOL    HW165949   8.446   0.896   9.586 -0.4121 -0.1041 -0.0813
20849SOL    HW265950   8.388   0.758   9.609 -0.9860  0.4418  2.0501
20850SOL     OW65951   8.100   7.644   3.936 -0.0622 -0.7279  0.5342
20850SOL    HW165952   8.151   7.715   3.974 -1.7012  0.2700  0.9599
20850SOL    HW265953   8.157   7.607   3.868  0.5665  1.4438 -0.2053
20851SOL     OW65954   5.399   0.130   7.386 -0.3468 -0.0168 -0.0735
20851SOL    HW165955   5.363   0.156   7.302 -0.0276  1.4613  0.2055
20851SOL    HW265956   5.423   0.038   7.376  1.6429  0.6540 -2.3120
20852SOL     OW65957   2.457   4.307  10.396 -0.3044  0.4142 -0.2566
20852SOL    HW165958   2.486   4.367  10.327  0.5876  1.5185  1.0333
20852SOL    HW265959   2.487   4.348  10.477 -1.5788 -0.7106  0.8208
20853SOL     OW65960   6.290   1.569   4.204 -0.0108 -0.1821  0.4359
20853SOL    HW165961   6.360   1.634   4.200 -0.8913  0.7457 -2.0675
20853SOL    HW265962   6.333   1.485   4.190  1.0100 -0.1317  2.7296
20854SOL     OW65963   1.477   1.264   0.903  0.3587 -0.5686  0.1905
20854SOL    HW165964   1.386   1.284   0.923  1.0467  2.8220  0.5911
20854SOL    HW265965   1.493   1.179   0.943 -2.3079 -0.7333  1.0701
20855SOL     OW65966   2.970  10.626   3.307  0.4509 -0.0427 -0.2606
20855SOL    HW165967   2.981  10.571   3.229 -2.5760 -0.2029 -0.7107
20855SOL    HW265968   2.981  10.716   3.275 -0.6761 -0.1139 -0.9116
20856SOL     OW65969   9.569   3.037   0.196  0.2747  0.2964  0.0887
20856SOL    HW165970   9.618   3.117   0.176  2.5789 -0.8774  0.6841
20856SOL    HW265971   9.608   2.971   0.139  0.6090 -1.0625  1.8284
20857SOL     OW65972   8.172   6.542   9.702 -0.5500 -0.5370  0.8618
20857SOL    HW165973   8.203   6.534   9.612 -1.7075  0.0040  0.3977
20857SOL    HW265974   8.251   6.535   9.756  0.5354  1.7243 -0.3031
20858SOL     OW65975   4.111  10.356  10.341  0.0481  0.2618  0.2983
20858SOL    HW165976   4.107  10.264  10.366 -2.5575 -0.2200 -1.5139
20858SOL    HW265977   4.192  10.364  10.290 -0.4125 -1.4273 -0.7638
20859SOL     OW65978   5.251   8.219   4.123 -0.1487  0.5031 -0.3111
20859SOL    HW165979   5.343   8.235   4.101  0.1551  1.0971  1.2739
20859SOL    HW265980   5.204   8.291   4.081  0.3957  1.5218  0.7748
20860SOL     OW65981   5.899  10.502   3.371  0.3746 -0.4749 -0.3510
20860SOL    HW165982   5.885  10.522   3.464 -1.0311 -2.2882 -0.1050
20860SOL    HW265983   5.994  10.493   3.362  0.6510  1.1631  0.5489
20861SOL     OW65984   5.132   9.012   0.206 -0.7918  0.0632 -0.5943
20861SOL    HW165985   5.117   9.025   0.300 -0.2652 -0.1034 -0.4827
20861SOL    HW265986   5.098   8.925   0.188 -0.3648 -0.1399 -0.4337
20862SOL     OW65987   5.879   3.008   3.455  0.0051 -0.2731 -0.1436
20862SOL    HW165988   5.828   2.935   3.420 -2.2823  0.7394  0.8700
20862SOL    HW265989   5.827   3.040   3.529  2.5892  0.3004  1.5425
20863SOL     OW65990   0.345   3.677   4.595  0.1891  0.3790  0.2719
20863SOL    HW165991   0.435   3.696   4.570  0.0536 -1.2756 -1.7619
20863SOL    HW265992   0.346   3.585   4.623 -0.7005  0.6344  1.2430
20864SOL     OW65993   1.295  10.412   8.531  0.5057  0.3540 -0.0890
20864SOL    HW165994   1.216  10.361   8.547  0.9844  0.2814  2.4174
20864SOL    HW265995   1.346  10.359   8.470 -1.8564  1.0208 -2.8475
20865SOL     OW65996   1.692   0.886  10.485 -0.6082  0.0746  0.0340
20865SOL    HW165997   1.771   0.937  10.501 -1.1986  0.7676  0.8064
20865SOL    HW265998   1.714   0.797  10.514  0.4396 -0.1455 -1.3677
20866SOL     OW65999   6.229   3.125   0.855  0.1242 -0.1061  0.8837
20866SOL    HW166000   6.195   3.035   0.858 -0.5528  0.1510  1.2112
20866SOL    HW266001   6.201   3.158   0.770  0.6053 -0.2929  0.6524
20867SOL     OW66002   1.872   5.318   8.509 -0.1006 -0.5174  1.0268
20867SOL    HW166003   1.844   5.303   8.599  0.3767 -0.6272  1.1597
20867SOL    HW266004   1.875   5.413   8.500 -1.1662 -0.4912  0.8025
20868SOL     OW66005   2.908   8.155   2.087  0.0072  0.4708 -0.4259
20868SOL    HW166006   2.855   8.102   2.147 -1.0359  0.1305 -1.5956
20868SOL    HW266007   2.995   8.158   2.128 -0.0793 -1.5626  0.0336
20869SOL     OW66008   0.423   9.657   8.209 -0.4166  0.7113 -0.2089
20869SOL    HW166009   0.502   9.633   8.257 -1.2500 -0.0616  0.8441
20869SOL    HW266010   0.439   9.747   8.180  0.7501  0.6473  0.1760
20870SOL     OW66011   5.541   5.887   1.053 -0.1675  0.1605 -0.5834
20870SOL    HW166012   5.564   5.829   1.125 -1.1145 -0.0039 -0.3918
20870SOL    HW266013   5.475   5.946   1.090  0.9730  1.5702 -0.6833
20871SOL     OW66014   5.639   4.617   2.566 -0.0273  0.2643  0.4698
20871SOL    HW166015   5.610   4.684   2.627 -0.7558  0.3906  0.0052
20871SOL    HW266016   5.651   4.664   2.483  1.3201  0.1718  0.5881
20872SOL     OW66017   2.038   2.505   6.131 -0.5340  0.6910 -0.8718
20872SOL    HW166018   2.006   2.536   6.046 -0.8656  0.3194 -0.8876
20872SOL    HW266019   2.096   2.575   6.162 -2.6650  2.2191 -0.0637
20873SOL     OW66020   1.790   3.777  10.388 -0.0045  0.0246  0.2015
20873SOL    HW166021   1.872   3.743  10.352  0.1765 -1.0160  1.5288
20873SOL    HW266022   1.737   3.699  10.407 -1.7702  0.6872 -1.5872
20874SOL     OW66023   4.207  10.086   5.755 -0.4149 -0.2893 -0.5284
20874SOL    HW166024   4.241  10.024   5.690  0.0833 -0.7891  0.1897
20874SOL    HW266025   4.238  10.051   5.839 -0.6804  0.5850 -0.0616
20875SOL     OW66026   7.138   7.015   0.121 -0.9202 -0.0476 -1.1075
20875SOL    HW166027   7.164   7.014   0.029  0.0151 -1.7616 -0.8577
20875SOL    HW266028   7.215   7.050   0.167 -0.5919 -1.1645 -0.7837
20876SOL     OW66029   6.662   0.736   9.875 -0.0551 -0.0833 -0.5778
20876SOL    HW166030   6.739   0.772   9.918 -2.0919  1.4365  2.1391
20876SOL    HW266031   6.651   0.648   9.912  0.1183 -0.1164 -0.6074
20877SOL     OW66032  10.223   1.285   0.533 -0.0131 -0.4604 -0.2307
20877SOL    HW166033  10.280   1.322   0.466  1.1499 -0.0019  0.9678
20877SOL    HW266034  10.186   1.361   0.578  0.7892 -0.7295  0.9264
20878SOL     OW66035   8.051   4.780   5.159 -0.1021  0.1052  0.1264
20878SOL    HW166036   8.140   4.747   5.174 -0.3996 -0.3994  0.8486
20878SOL    HW266037   8.053   4.870   5.194 -0.0445 -0.1329  0.7604
20879SOL     OW66038   7.980   3.540   1.509  0.0294 -0.3340  0.0506
20879SOL    HW166039   7.993   3.589   1.590 -0.5979  1.2720 -0.7698
20879SOL    HW266040   7.932   3.462   1.536  1.7369 -0.9642  1.5109
20880SOL     OW66041   7.440   4.424  10.918 -0.1375  0.4915 -0.4233
20880SOL    HW166042   7.420   4.444  10.827 -1.6616 -2.4379 -0.8733
20880SOL    HW266043   7.527   4.385  10.916 -0.3658 -0.0165 -0.7429
20881SOL     OW66044   3.194   0.861   0.603 -0.2897  0.4448  0.0482
20881SOL    HW166045   3.285   0.833   0.593 -0.7564 -1.0653 -0.2639
20881SOL    HW266046   3.191   0.902   0.690  0.3357 -1.0592  0.8105
20882SOL     OW66047  10.623   6.183  10.280  0.4133 -0.5456 -0.6167
20882SOL    HW166048  10.620   6.101  10.329 -0.1678 -0.7006 -0.8958
20882SOL    HW266049  10.616   6.251  10.347  0.8916 -0.7226 -0.3853
20883SOL     OW66050   2.066   3.430   1.949  0.2273  0.4514  0.5166
20883SOL    HW166051   2.119   3.355   1.923  1.2032  1.3338 -0.1063
20883SOL    HW266052   2.012   3.449   1.872  1.8586  1.9750 -0.3125
20884SOL     OW66053   1.802   3.040   4.240  0.5570 -0.1408  0.8029
20884SOL    HW166054   1.879   3.026   4.295 -0.1486 -0.9266  1.6065
20884SOL    HW266055   1.838   3.053   4.152  1.6189 -0.2175  1.2097
20885SOL     OW66056   0.359   7.107   9.501  0.0695  0.0104 -0.1987
20885SOL    HW166057   0.333   7.015   9.513 -0.1212  0.1937  0.9037
20885SOL    HW266058   0.386   7.135   9.588  2.2599  0.3679 -0.9558
20886SOL     OW66059   0.423   9.887   4.803 -0.0019 -0.0764 -0.1054
20886SOL    HW166060   0.394   9.888   4.894  0.5280 -0.7303  0.0765
20886SOL    HW266061   0.477   9.808   4.796  2.3808  1.4679 -0.2417
20887SOL     OW66062   0.506  10.118   0.427 -0.0260  0.1553 -0.0918
20887SOL    HW166063   0.461  10.119   0.342  0.9781  1.8978 -0.6698
20887SOL    HW266064   0.436  10.129   0.491 -0.7349 -0.4346 -0.7460
20888SOL     OW66065   3.068   8.698   4.925  0.1439  0.0173 -0.0452
20888SOL    HW166066   3.099   8.659   5.007  0.7108  2.0113  0.7596
20888SOL    HW266067   3.048   8.789   4.948 -0.5575  0.3830 -1.9261
20889SOL     OW66068   4.816   7.087   3.989  0.2153 -0.0969  0.3723
20889SOL    HW166069   4.731   7.118   4.020 -0.7193 -0.3177 -1.8063
20889SOL    HW266070   4.825   6.999   4.027  0.2036  0.5310  1.8638
20890SOL     OW66071   7.858   9.482   3.929 -0.3037 -0.5285 -0.3047
20890SOL    HW166072   7.898   9.432   3.858 -2.1246 -1.7764 -0.5482
20890SOL    HW266073   7.832   9.565   3.889  1.3338  0.0214 -0.3016
20891SOL     OW66074   2.425   7.958   8.251  0.0285  0.1132  0.6555
20891SOL    HW166075   2.509   7.956   8.296  0.0410  1.2328  0.7056
20891SOL    HW266076   2.436   8.023   8.182 -0.4182 -0.6061 -0.1175
20892SOL     OW66077   6.212  10.153   9.096 -0.6592  0.1843  0.4047
20892SOL    HW166078   6.151  10.213   9.054  0.1537  0.2260 -0.7552
20892SOL    HW266079   6.259  10.207   9.160 -1.6869  0.1890  1.1733
20893SOL     OW66080   4.467   0.870  10.527  0.3016 -0.1114 -0.2838
20893SOL    HW166081   4.537   0.929  10.554  0.2729 -0.6241  0.9949
20893SOL    HW266082   4.466   0.875  10.432  0.5405  1.6558 -0.2154
20894SOL     OW66083  10.712   5.061   4.503  0.3602 -0.1766 -0.2921
20894SOL    HW166084  10.732   4.988   4.561 -0.3548  1.0054  1.5096
20894SOL    HW266085  10.796   5.106   4.492  0.4302 -0.1924  0.1533
20895SOL     OW66086   9.719   9.520   1.409  0.1838 -0.4409  0.2510
20895SOL    HW166087   9.768   9.566   1.477  0.1878  0.0228 -0.0631
20895SOL    HW266088   9.784   9.498   1.343  0.1921 -0.9577  0.4301
20896SOL     OW66089  10.823   4.543   3.181  0.4111  0.2531  0.0250
20896SOL    HW166090  10.816   4.549   3.276  1.4518  0.9002  0.0764
20896SOL    HW266091  10.749   4.593   3.148 -0.6351 -0.9419  0.4771
20897SOL     OW66092   3.326   6.072   1.046  0.4190 -0.1126  0.7156
20897SOL    HW166093   3.404   6.057   1.099 -0.9749  0.4155  3.0327
20897SOL    HW266094   3.265   6.003   1.073 -0.3921  0.2491 -0.1278
20898SOL     OW66095   1.550   6.410   4.210  0.3155  0.2918  0.6967
20898SOL    HW166096   1.470   6.375   4.248  1.7435 -1.9592  1.8792
20898SOL    HW266097   1.596   6.451   4.284  0.7708  0.5530  0.2750
20899SOL     OW66098   7.807   1.150   6.940 -0.1911  0.2457  0.3312
20899SOL    HW166099   7.803   1.212   6.867  0.4830  0.3693  0.3946
20899SOL    HW266100   7.728   1.096   6.929 -0.1350  0.3033 -0.4570
20900SOL     OW66101   0.270  10.762   1.622  0.5390  0.4565  0.1805
20900SOL    HW166102   0.284  10.784   1.714  1.9197  0.7969 -0.0941
20900SOL    HW266103   0.306  10.836   1.574  2.2644 -0.8848 -0.6847
20901SOL     OW66104   2.992   7.916   9.143  0.0531 -0.0359  0.5382
20901SOL    HW166105   2.908   7.900   9.185 -0.3647 -0.7534 -0.5104
20901SOL    HW266106   2.971   7.924   9.050  1.2470 -1.4136  0.1004
20902SOL     OW66107   2.482  10.784   4.336  0.6676 -0.2733  0.5382
20902SOL    HW166108   2.502  10.751   4.424  1.6917 -1.3206 -0.0550
20902SOL    HW266109   2.551  10.747   4.281 -0.8510 -0.9184 -0.9919
20903SOL     OW66110   3.286   5.317   4.965  0.2798 -0.7010 -0.6263
20903SOL    HW166111   3.335   5.277   5.037 -0.9370 -3.4862 -1.2000
20903SOL    HW266112   3.232   5.245   4.930 -0.3024  0.9077 -3.3474
20904SOL     OW66113   1.036   3.292   0.594 -0.0808  0.3266  0.6195
20904SOL    HW166114   1.057   3.229   0.663 -0.1730  0.5276  0.8342
20904SOL    HW266115   0.973   3.352   0.635 -0.7204  0.0071  0.1359
20905SOL     OW66116   9.684   3.099   8.091 -0.5532  0.2586 -0.0549
20905SOL    HW166117   9.606   3.102   8.035  0.6000  0.4770 -1.7162
20905SOL    HW266118   9.711   3.008   8.090  1.1184  0.6872 -2.3286
20906SOL     OW66119   4.443   0.756  10.813  0.6246 -0.4226  0.3876
20906SOL    HW166120   4.492   0.787  10.737  0.7461 -1.1756  0.1478
20906SOL    HW266121   4.351   0.756  10.784  0.7050 -1.0529  0.1045
20907SOL     OW66122   9.761   2.783   5.396 -0.1694  0.0896  0.5908
20907SOL    HW166123   9.788   2.874   5.381  1.8015 -0.1830  2.0863
20907SOL    HW266124   9.731   2.782   5.487 -1.7226 -0.4585  0.1033
20908SOL     OW66125   0.100   3.963   2.022 -0.1243  0.6506  0.1523
20908SOL    HW166126   0.181   3.915   2.037 -0.8133 -0.4308  0.5632
20908SOL    HW266127   0.036   3.895   2.000 -0.8953  1.4928 -0.3012
20909SOL     OW66128  10.678   0.072   6.535 -0.6154 -0.7475 -0.1643
20909SOL    HW166129  10.682   0.134   6.462  0.0055 -0.2870  0.2500
20909SOL    HW266130  10.709   0.122   6.610 -1.4891 -1.1395  0.4787
20910SOL     OW66131   3.268   1.480   5.809  0.7479  0.4374  0.5695
20910SOL    HW166132   3.264   1.425   5.887 -2.9769  1.0886  1.0071
20910SOL    HW266133   3.273   1.570   5.843  1.4148  0.6229 -0.0040
20911SOL     OW66134   9.378   2.935  10.459  0.0463 -0.2857  0.2874
20911SOL    HW166135   9.301   2.904  10.412  0.0583 -0.5872  0.4688
20911SOL    HW266136   9.352   3.021  10.492  0.7897  0.9967 -2.2072
20912SOL     OW66137   0.370   6.703   0.796  0.1029 -0.3247  0.1840
20912SOL    HW166138   0.373   6.650   0.716 -0.1638  0.2759 -0.2291
20912SOL    HW266139   0.460   6.731   0.810 -0.2923  2.3184 -1.7947
20913SOL     OW66140   5.665   3.348   9.227 -0.3958  0.2610  0.6552
20913SOL    HW166141   5.629   3.366   9.314 -0.0757  0.7340  0.6922
20913SOL    HW266142   5.597   3.376   9.167 -0.6841 -0.2136  0.7479
20914SOL     OW66143   8.105   5.109   3.209  0.2291  0.4002 -0.3473
20914SOL    HW166144   8.156   5.188   3.224  0.5480  0.3634 -1.1970
20914SOL    HW266145   8.170   5.038   3.208  0.1584  0.3320 -1.2687
20915SOL     OW66146   5.274   2.851   5.872 -0.1820  0.2379 -0.8091
20915SOL    HW166147   5.367   2.861   5.857  0.0599  0.0565  0.4228
20915SOL    HW266148   5.254   2.762   5.843  0.0098  0.2962 -1.1240
20916SOL     OW66149   2.605   1.498   0.680 -0.0131 -0.3314  0.7180
20916SOL    HW166150   2.624   1.508   0.586  0.4725  1.2228  0.9447
20916SOL    HW266151   2.517   1.534   0.691  0.3572  0.5215  1.0070
20917SOL     OW66152   7.685   4.488  10.336 -0.3786 -0.3713  0.5454
20917SOL    HW166153   7.662   4.556  10.399  0.4243  1.2467 -0.8219
20917SOL    HW266154   7.737   4.426  10.385 -2.2037 -0.7303  2.1475
20918SOL     OW66155   4.258   6.468   8.420 -0.0100  0.1768  0.1157
20918SOL    HW166156   4.332   6.528   8.408  0.2137 -0.1589 -0.2052
20918SOL    HW266157   4.221   6.457   8.332  0.8099 -1.2425 -0.0800
20919SOL     OW66158   0.950   4.521   9.514  0.2838 -0.0838  0.2710
20919SOL    HW166159   0.905   4.484   9.589  0.3868 -1.0891 -0.1462
20919SOL    HW266160   0.892   4.590   9.482 -0.1345 -0.2033  0.7751
20920SOL     OW66161   1.121   1.319  10.332  0.1678 -0.0167 -0.3751
20920SOL    HW166162   1.027   1.302  10.341 -0.0869  1.1334 -0.6580
20920SOL    HW266163   1.156   1.311  10.421 -0.0008 -1.4583 -0.4188
20921SOL     OW66164   9.200   6.284   5.625  0.2650  0.1287 -0.8073
20921SOL    HW166165   9.143   6.352   5.661 -1.6476 -1.7298 -0.1232
20921SOL    HW266166   9.265   6.332   5.574 -0.8622  2.4718 -0.1815
20922SOL     OW66167   6.647   4.596  10.363 -0.1696  0.2734 -0.4463
20922SOL    HW166168   6.572   4.548  10.399 -0.0010 -0.0270 -0.4969
20922SOL    HW266169   6.720   4.534  10.367  0.1535  0.6641 -0.1164
20923SOL     OW66170   1.481   0.092   9.520 -0.1992 -0.0951  0.1025
20923SOL    HW166171   1.543   0.064   9.586 -0.0041 -2.0108 -0.8311
20923SOL    HW266172   1.535   0.114   9.444 -0.6117 -2.3137 -0.9049
20924SOL     OW66173   8.910   2.769   9.647  0.0599  0.4434 -0.3816
20924SOL    HW166174   8.973   2.830   9.685  0.1499  0.4680 -0.5689
20924SOL    HW266175   8.869   2.726   9.723 -0.8404  1.5595 -0.2069
20925SOL     OW66176   4.974   4.148   9.656 -0.3497 -0.1573 -0.1919
20925SOL    HW166177   4.967   4.087   9.729  0.6088 -1.7872 -1.3949
20925SOL    HW266178   5.012   4.097   9.585 -1.2492  1.3598 -1.8611
20926SOL     OW66179   3.619   0.064   8.491  0.5822 -0.4415 -0.0990
20926SOL    HW166180   3.531   0.027   8.483  0.7418 -0.6554 -1.0041
20926SOL    HW266181   3.648   0.039   8.579 -1.0572  1.4604  1.0644
20927SOL     OW66182   3.825   8.683   6.037 -0.5692  0.3121 -0.0394
20927SOL    HW166183   3.768   8.757   6.018 -0.8607  0.1186  0.0802
20927SOL    HW266184   3.804   8.658   6.126 -0.5261  0.0342 -0.1071
20928SOL     OW66185   5.708   4.183   8.951  0.0076  0.4365  0.0443
20928SOL    HW166186   5.784   4.134   8.918 -0.1720  0.1219  0.1010
20928SOL    HW266187   5.636   4.121   8.947 -0.7256  1.3093 -1.9826
20929SOL     OW66188   1.165   8.653   4.384 -0.3445  0.4035  1.0816
20929SOL    HW166189   1.148   8.712   4.310 -0.2504  0.5001  1.1374
20929SOL    HW266190   1.259   8.637   4.382 -0.6854 -2.0486 -0.6835
20930SOL     OW66191   6.146   1.527   2.397  0.8741 -0.1241 -0.0704
20930SOL    HW166192   6.100   1.485   2.470  1.9740  0.6058  1.0881
20930SOL    HW266193   6.159   1.457   2.333 -0.1833 -0.7654  0.3934
20931SOL     OW66194   8.575   8.192   3.389 -0.1725 -0.1995  0.2905
20931SOL    HW166195   8.617   8.111   3.361 -0.5194 -1.3468  2.7997
20931SOL    HW266196   8.481   8.172   3.391 -0.5920  1.1786 -1.6450
20932SOL     OW66197   6.751   6.660   1.522 -0.0959  0.0925 -0.2822
20932SOL    HW166198   6.760   6.572   1.557  0.1747  0.0419 -0.4737
20932SOL    HW266199   6.680   6.700   1.573  2.3989  1.1767  2.6533
20933SOL     OW66200   7.471  10.543   8.700 -0.2575  0.1927 -0.3759
20933SOL    HW166201   7.503  10.566   8.613  1.7212 -1.2645 -0.0914
20933SOL    HW266202   7.441  10.453   8.692  2.1168 -0.8088  0.8958
20934SOL     OW66203   5.964   4.948   2.860  0.3699 -0.3322  0.2969
20934SOL    HW166204   5.891   4.920   2.915 -0.1172  0.3784  0.0215
20934SOL    HW266205   6.034   4.967   2.921  0.4827 -1.4503  0.5368
20935SOL     OW66206   0.687  10.344   1.119 -0.2848 -0.1341 -0.3749
20935SOL    HW166207   0.775  10.373   1.094 -0.1272 -1.4377 -1.3997
20935SOL    HW266208   0.666  10.398   1.195  1.2387  0.4786 -0.3415
20936SOL     OW66209   9.078   2.480   3.364  0.2392 -0.1941  0.0001
20936SOL    HW166210   9.011   2.412   3.374  1.7632 -1.6519  0.8019
20936SOL    HW266211   9.148   2.438   3.315  1.4453  0.6248  0.9760
20937SOL     OW66212   8.891   4.994   5.073  0.0586  0.0284 -0.5581
20937SOL    HW166213   8.871   5.087   5.057 -1.1529  0.0971  1.0960
20937SOL    HW266214   8.813   4.947   5.045  0.9536 -0.6218 -2.1001
20938SOL     OW66215   1.198   0.673   9.912 -0.1359  0.0242 -0.0121
20938SOL    HW166216   1.239   0.636   9.835  0.1200  0.7960 -0.2569
20938SOL    HW266217   1.173   0.597   9.965 -0.3027 -0.5101 -0.8375
20939SOL     OW66218   9.094   0.754   0.974 -0.8203  0.1156 -0.6844
20939SOL    HW166219   9.134   0.749   1.061  0.2632 -0.5875 -1.2103
20939SOL    HW266220   9.050   0.670   0.963 -2.0177  0.6751 -0.3344
20940SOL     OW66221   3.079   1.359   6.578 -0.2810  0.3555  0.4028
20940SOL    HW166222   3.074   1.425   6.509 -1.8591 -0.6740 -0.5235
20940SOL    HW266223   3.136   1.291   6.543  0.6256  0.7927  0.9955
20941SOL     OW66224   1.494   5.187  10.789 -0.0403 -0.5037  0.0176
20941SOL    HW166225   1.554   5.160  10.859 -0.5902 -1.8234  0.0037
20941SOL    HW266226   1.447   5.107  10.765 -1.8783  0.4907  0.0915
20942SOL     OW66227   7.649   7.939   4.080  0.0488 -0.2268  0.2196
20942SOL    HW166228   7.707   8.003   4.038 -0.0136 -0.3475 -0.0531
20942SOL    HW266229   7.690   7.854   4.061  2.3105 -0.1416  3.8066
20943SOL     OW66230  10.341   0.099   2.351 -0.1688 -0.0023  0.1588
20943SOL    HW166231  10.350   0.174   2.292 -2.7029 -1.1015 -1.7667
20943SOL    HW266232  10.247   0.089   2.365  0.1386 -2.2302  1.1758
20944SOL     OW66233   8.515   3.991   5.056 -0.1038  0.0454  0.0043
20944SOL    HW166234   8.520   3.980   5.151  1.1823 -0.4744 -0.1071
20944SOL    HW266235   8.568   4.069   5.038 -2.2738  1.5937 -0.0824
20945SOL     OW66236   0.817   5.637   1.288 -0.0239  0.1100 -0.3829
20945SOL    HW166237   0.780   5.558   1.328  0.9909  0.0273  0.4126
20945SOL    HW266238   0.851   5.608   1.204 -1.1155  0.0493 -0.8267
20946SOL     OW66239   8.175   6.075   2.882 -0.1555 -0.3672 -0.4542
20946SOL    HW166240   8.109   6.062   2.950 -0.2356  0.5908 -0.3328
20946SOL    HW266241   8.210   6.162   2.899  1.7630 -1.1751  0.0166
20947SOL     OW66242   5.132   4.392   8.873 -0.4806 -0.5313 -0.5277
20947SOL    HW166243   5.069   4.426   8.809 -0.3204 -0.0604 -0.4363
20947SOL    HW266244   5.078   4.343   8.935 -0.8114  0.2125 -0.2226
20948SOL     OW66245  10.796  10.498   8.319 -0.4200  0.2175  0.7392
20948SOL    HW166246  10.754  10.584   8.321 -0.7199  0.3748 -3.3257
20948SOL    HW266247  10.878  10.512   8.271  0.8010 -1.3885  2.2002
20949SOL     OW66248   6.109   0.043  10.556  0.6364 -0.2447 -0.2777
20949SOL    HW166249   6.188   0.095  10.537  0.8608 -0.6574 -0.4954
20949SOL    HW266250   6.130  -0.003  10.637  0.4700 -0.0586 -0.1303
20950SOL     OW66251   3.175   6.210  10.615  0.2171 -0.1204 -0.0139
20950SOL    HW166252   3.219   6.270  10.556 -0.5554 -2.0276 -2.7592
20950SOL    HW266253   3.082   6.221  10.596 -0.1474 -0.2006  1.5265
20951SOL     OW66254   1.177   9.574  10.324  0.5349 -0.1102 -0.0059
20951SOL    HW166255   1.187   9.483  10.352  1.5767  0.2336  0.8197
20951SOL    HW266256   1.244   9.586  10.257  1.2004  0.3604  0.7277
20952SOL     OW66257   7.073   1.821   9.512  0.2046 -0.1755 -0.6209
20952SOL    HW166258   7.093   1.847   9.602  0.0432 -0.2146 -0.5736
20952SOL    HW266259   7.070   1.903   9.463 -0.6599 -0.0683 -0.4026
20953SOL     OW66260   6.621   9.253   3.315 -0.4096 -0.1907 -0.1238
20953SOL    HW166261   6.594   9.267   3.225  0.4732 -0.0900 -0.3869
20953SOL    HW266262   6.658   9.338   3.342 -4.5534  1.2780  1.8164
20954SOL     OW66263   0.107   1.497   8.378 -0.4316  0.3842  0.0311
20954SOL    HW166264   0.049   1.425   8.402 -1.2611  0.5259 -1.4219
20954SOL    HW266265   0.195   1.461   8.387 -0.8036 -0.4678  0.3755
20955SOL     OW66266   3.679   9.569   1.622  0.2097 -0.5716  0.3477
20955SOL    HW166267   3.713   9.582   1.533  0.7281  1.5338  0.8190
20955SOL    HW266268   3.673   9.474   1.631 -0.2013 -0.8295 -2.0599
20956SOL     OW66269   9.198   6.576   9.696  0.0256  0.0041  0.2823
20956SOL    HW166270   9.184   6.481   9.700 -0.3510  0.0804  1.1417
20956SOL    HW266271   9.240   6.591   9.612  0.3112 -0.9553  0.2442
20957SOL     OW66272   3.863   7.623   3.590 -0.2643  0.0523 -0.2560
20957SOL    HW166273   3.802   7.697   3.587 -1.8113 -1.1748 -0.9179
20957SOL    HW266274   3.924   7.644   3.660 -1.8331  1.0785  0.8536
20958SOL     OW66275   4.343   3.665   2.940 -0.0497 -0.1169  0.0577
20958SOL    HW166276   4.306   3.739   2.891  0.0031  0.7566  1.2957
20958SOL    HW266277   4.266   3.616   2.969 -0.0604 -1.1624 -1.6373
20959SOL     OW66278  10.406   4.046   1.378 -0.4158 -0.0926 -0.0442
20959SOL    HW166279  10.499   4.063   1.364 -0.4915  0.4632  0.1064
20959SOL    HW266280  10.362   4.098   1.311 -0.5209 -3.4715 -2.9440
20960SOL     OW66281   3.319   4.454   2.133  0.7286 -0.0788 -0.0258
20960SOL    HW166282   3.333   4.366   2.098  2.9046 -0.4125  1.5359
20960SOL    HW266283   3.330   4.512   2.058 -1.5497 -1.1150 -1.2555
20961SOL     OW66284   9.955   6.476   2.298 -0.0958 -0.0260  0.1143
20961SOL    HW166285   9.990   6.394   2.263  0.8790  1.1080 -1.7260
20961SOL    HW266286  10.033   6.527   2.320 -0.5831  1.3499 -1.1709
20962SOL     OW66287   8.858   8.541   8.007 -0.1858 -0.0170  0.0144
20962SOL    HW166288   8.904   8.462   8.038  0.7223  0.2892 -0.5206
20962SOL    HW266289   8.906   8.613   8.048 -1.1523  0.2631  0.6832
20963SOL     OW66290   5.956   1.077   8.427 -0.2448 -0.0521  0.0044
20963SOL    HW166291   6.007   1.104   8.350  0.6945 -1.0531  0.2505
20963SOL    HW266292   5.965   1.150   8.488  0.0369  0.2189 -0.3526
20964SOL     OW66293   2.166   3.180   9.785 -0.1973 -0.2334 -0.7632
20964SOL    HW166294   2.179   3.270   9.816 -0.6450 -0.8299  1.2778
20964SOL    HW266295   2.242   3.132   9.817 -0.3238 -0.7443 -1.2125
20965SOL     OW66296   1.992   2.825   3.292 -0.4371  0.4261  0.0842
20965SOL    HW166297   1.958   2.912   3.273  0.6583  0.8169 -0.1502
20965SOL    HW266298   2.085   2.839   3.311  0.2599 -0.9060 -1.9569
20966SOL     OW66299   8.637   6.561   4.333 -0.4865  0.0195 -0.1917
20966SOL    HW166300   8.567   6.625   4.347 -0.5043  0.4678 -2.0233
20966SOL    HW266301   8.593   6.476   4.337 -0.9069  0.2426 -0.0594
20967SOL     OW66302   1.972   6.120   1.316  0.1325  0.3248  0.5129
20967SOL    HW166303   2.003   6.210   1.326  2.1898 -0.0941 -1.3610
20967SOL    HW266304   2.005   6.075   1.394 -2.1158  1.3770  2.2068
20968SOL     OW66305   7.617   2.907   8.990 -0.6128  0.9112 -0.5255
20968SOL    HW166306   7.530   2.922   9.027  0.3107  0.6185  1.9581
20968SOL    HW266307   7.652   2.995   8.975 -1.3983  1.0309 -1.7930
20969SOL     OW66308   7.924   3.206   4.634 -0.2837  0.5472 -0.4322
20969SOL    HW166309   8.011   3.176   4.658 -0.6334  0.5363  0.8621
20969SOL    HW266310   7.914   3.180   4.542  0.3364 -1.1946 -0.0429
20970SOL     OW66311   5.473   4.543   4.607 -0.9402 -0.7270  0.4260
20970SOL    HW166312   5.456   4.554   4.701 -0.2590  2.8901  0.2478
20970SOL    HW266313   5.422   4.612   4.565  1.5287  0.0661 -1.4957
20971SOL     OW66314   3.139   4.456   8.309  0.2795  0.3569 -0.2290
20971SOL    HW166315   3.186   4.440   8.227 -0.3635  1.3528 -0.8131
20971SOL    HW266316   3.208   4.477   8.372  0.9040 -1.8087 -0.1210
20972SOL     OW66317   0.137   0.289   7.696  0.5423  0.4495  0.3099
20972SOL    HW166318   0.191   0.228   7.747 -0.4092 -0.9818 -0.3222
20972SOL    HW266319   0.180   0.373   7.706  1.8849 -0.3128  1.2745
20973SOL     OW66320   1.116   3.701   0.054 -0.2472 -0.5130  0.0515
20973SOL    HW166321   1.043   3.756   0.085  0.3501 -0.3303  1.2093
20973SOL    HW266322   1.143   3.742  -0.028 -0.1688  0.6149  0.6163
20974SOL     OW66323   1.940  10.183   7.744 -0.3080  0.7114 -0.3693
20974SOL    HW166324   1.985  10.187   7.828  1.9222 -0.0739 -1.4361
20974SOL    HW266325   1.911  10.092   7.737 -1.8446  1.1282  0.1558
20975SOL     OW66326  10.660   9.439   1.320  0.4398  0.4510 -0.2013
20975SOL    HW166327  10.744   9.440   1.365  0.5618 -1.2245 -0.3443
20975SOL    HW266328  10.605   9.499   1.370  0.7879 -0.8062  1.7719
20976SOL     OW66329  10.806   0.119   2.587 -0.3030 -0.1605  0.0403
20976SOL    HW166330  10.860   0.144   2.662  0.0273 -0.6274 -0.0346
20976SOL    HW266331  10.820   0.024   2.579 -0.2059 -0.0876 -0.7068
20977SOL     OW66332   0.412   3.236   4.280  0.6303  0.0900  0.3347
20977SOL    HW166333   0.403   3.325   4.313  3.1603  0.9988 -1.1261
20977SOL    HW266334   0.328   3.216   4.239 -0.1327  1.6156  1.1027
20978SOL     OW66335   8.422   2.968   5.061  0.2681  0.4516 -0.6780
20978SOL    HW166336   8.354   2.976   4.994  1.0825  2.9409 -1.3005
20978SOL    HW266337   8.471   2.890   5.037  0.3928  1.1504 -2.8797
20979SOL     OW66338   5.382   9.581  10.498 -0.2327  0.2273 -0.1748
20979SOL    HW166339   5.332   9.507  10.534  0.1532 -0.8430 -1.7502
20979SOL    HW266340   5.470   9.569  10.534 -0.8842  1.7780  2.1255
20980SOL     OW66341   0.105   7.459   9.053  0.1909 -0.9078  0.0891
20980SOL    HW166342   0.074   7.386   8.999  0.9359 -1.0734 -0.1232
20980SOL    HW266343   0.072   7.440   9.141  1.7249 -2.3732  0.4067
20981SOL     OW66344   0.010   5.198   2.892 -0.4061 -0.1312 -0.0116
20981SOL    HW166345  -0.052   5.265   2.862  1.5655  1.3885 -0.9515
20981SOL    HW266346   0.076   5.195   2.822  2.5348  1.0086  2.4942
20982SOL     OW66347  10.869   1.795   3.939 -0.1743 -0.2793  0.2347
20982SOL    HW166348  10.807   1.863   3.913 -1.0958 -0.6446  1.3850
20982SOL    HW266349  10.818   1.737   3.996  0.9449 -1.1962  0.3389
20983SOL     OW66350   1.559   5.961   3.244  0.2697 -0.0314 -0.6367
20983SOL    HW166351   1.645   5.920   3.241 -0.1351 -1.0556  0.7838
20983SOL    HW266352   1.497   5.887   3.252 -0.5245  0.7677  1.2404
20984SOL     OW66353   1.126   9.292   3.303  0.0482  0.4524 -0.0081
20984SOL    HW166354   1.199   9.312   3.245 -0.6343  0.9618 -0.7220
20984SOL    HW266355   1.162   9.232   3.368  1.0167  0.4575 -0.5222
20985SOL     OW66356   9.397   0.730   3.433 -0.5624  0.5467  0.0114
20985SOL    HW166357   9.483   0.770   3.417 -0.4095 -0.3840 -1.6780
20985SOL    HW266358   9.397   0.651   3.380 -3.1570  1.4119 -1.4343
20986SOL     OW66359  10.236   5.748   7.997  0.1528  0.3275 -0.3147
20986SOL    HW166360  10.310   5.695   8.029 -1.9319 -1.1348  2.4986
20986SOL    HW266361  10.258   5.838   8.021  0.3204 -0.3009  2.1891
20987SOL     OW66362   5.041   3.920   2.772  0.2036  0.1105  0.0723
20987SOL    HW166363   5.009   3.851   2.713  0.5240 -1.8569  2.0628
20987SOL    HW266364   5.136   3.910   2.771  0.1619 -1.1396  2.1386
20988SOL     OW66365   9.786   9.821   8.640  0.1736  0.0243 -0.5293
20988SOL    HW166366   9.846   9.895   8.632  0.6586 -0.3755 -0.6806
20988SOL    HW266367   9.728   9.844   8.713  0.7796  0.2369 -0.1053
20989SOL     OW66368   1.756   4.173   0.032 -0.5592 -0.3937 -0.0941
20989SOL    HW166369   1.808   4.097   0.007 -1.5724 -1.9984  2.2254
20989SOL    HW266370   1.774   4.238  -0.035  1.9662 -1.9424 -1.0746
20990SOL     OW66371   9.230   3.459   9.091 -0.0973  0.3576  0.3622
20990SOL    HW166372   9.161   3.475   9.026  0.1448 -0.7628 -0.1875
20990SOL    HW266373   9.236   3.542   9.139 -0.6449  1.0482 -0.6930
20991SOL     OW66374   4.668   9.024   8.483 -0.1006 -0.7563  0.5980
20991SOL    HW166375   4.590   9.067   8.518  0.9818  0.8601  1.1140
20991SOL    HW266376   4.685   9.069   8.400  0.6819 -0.6034  0.8320
20992SOL     OW66377   8.627   2.164   7.017 -0.7324  0.2076  0.3944
20992SOL    HW166378   8.551   2.114   7.047 -1.0262  0.6849  0.4575
20992SOL    HW266379   8.682   2.174   7.095 -0.4320 -0.4358  0.2702
20993SOL     OW66380  10.045  10.171   4.901 -0.2143  0.3290  0.3919
20993SOL    HW166381  10.109  10.191   4.833 -0.9029 -0.8221 -0.6329
20993SOL    HW266382  10.086  10.104   4.955 -0.8620 -1.0413 -0.7817
20994SOL     OW66383   7.220  10.727   6.603  0.0965 -0.1466 -0.1689
20994SOL    HW166384   7.135  10.708   6.642  0.8789 -0.1108  1.6989
20994SOL    HW266385   7.281  10.726   6.678  1.4421  1.6666 -1.1567
20995SOL     OW66386   0.408  10.100  10.046  0.6209 -0.2855  0.2565
20995SOL    HW166387   0.391  10.177  10.100 -0.2574 -1.0456  1.1098
20995SOL    HW266388   0.496  10.071  10.072  0.3733 -0.4002  0.9960
20996SOL     OW66389   5.788  10.614   0.626  0.3952 -0.1543  0.4763
20996SOL    HW166390   5.835  10.563   0.560 -1.9480 -0.0678 -1.3837
20996SOL    HW266391   5.703  10.572   0.633 -1.1735  2.6496 -0.1663
20997SOL     OW66392   7.559  10.632   3.124  0.3777 -0.3548  0.1952
20997SOL    HW166393   7.610  10.560   3.161  0.6828 -0.0339  0.4120
20997SOL    HW266394   7.626  10.694   3.092  0.1221  0.1025  0.5427
20998SOL     OW66395   8.147   0.767   5.749 -0.0781  0.3415  0.1647
20998SOL    HW166396   8.212   0.707   5.712 -0.0976  1.1418 -1.2422
20998SOL    HW266397   8.197   0.846   5.769 -0.5430  0.8624 -0.6630
20999SOL     OW66398   5.139   0.910   4.658 -0.7456  0.1199 -0.0251
20999SOL    HW166399   5.207   0.970   4.626 -1.2768  1.9653  2.0174
20999SOL    HW266400   5.153   0.829   4.609  0.9529  1.4237 -1.8798
21000SOL     OW66401   4.971   3.279   9.131 -0.4963 -0.5114  0.1942
21000SOL    HW166402   5.025   3.251   9.056 -0.2613 -2.3128  0.9832
21000SOL    HW266403   5.000   3.223   9.203 -0.8354  1.0684  1.6258
21001SOL     OW66404   9.217   9.848   6.575  0.3153 -0.3013 -0.2039
21001SOL    HW166405   9.130   9.873   6.542  0.2560 -0.5479 -0.2349
21001SOL    HW266406   9.210   9.754   6.591 -0.0017  0.0015  1.5694
21002SOL     OW66407   8.598   5.521   0.432  0.1882  0.1349 -0.1932
21002SOL    HW166408   8.688   5.554   0.436  0.0596  0.3931  1.2558
21002SOL    HW266409   8.564   5.553   0.348  1.5021 -0.1460 -0.8584
21003SOL     OW66410   9.930   8.759   9.060 -0.1140 -0.3919  0.4170
21003SOL    HW166411   9.900   8.724   9.143 -1.0126  0.7944  0.6245
21003SOL    HW266412  10.025   8.766   9.069  0.3788 -4.1004 -0.1934
21004SOL     OW66413   4.272   3.666   1.865 -0.6625 -0.3257  0.4221
21004SOL    HW166414   4.198   3.624   1.910 -2.1106  1.0798 -0.5209
21004SOL    HW266415   4.243   3.675   1.774  1.5357 -1.5855 -0.4780
21005SOL     OW66416   5.808   5.359   4.116 -0.4033  0.1658  0.3751
21005SOL    HW166417   5.762   5.427   4.166 -0.9669  0.1019 -0.0408
21005SOL    HW266418   5.829   5.291   4.180  2.6638  1.9010  1.4239
21006SOL     OW66419   0.727   7.529   0.950 -0.1293 -0.5600 -0.2401
21006SOL    HW166420   0.764   7.560   1.033  3.7500 -0.4652 -1.7965
21006SOL    HW266421   0.750   7.598   0.887  0.0630 -2.1552 -1.9951
21007SOL     OW66422   4.566   5.629   7.337  0.5109  0.5298  0.7314
21007SOL    HW166423   4.616   5.608   7.258 -0.4245 -1.0564  0.5268
21007SOL    HW266424   4.632   5.651   7.402  1.3128  1.5283 -0.3792
21008SOL     OW66425  10.297   6.375   9.391 -0.2197 -0.5069  0.4670
21008SOL    HW166426  10.377   6.399   9.438 -0.2892 -1.2219  0.9688
21008SOL    HW266427  10.322   6.297   9.341 -0.2875 -0.0501 -0.2977
21009SOL     OW66428   2.784   9.958   8.040  0.7253 -0.0988  0.5035
21009SOL    HW166429   2.712   9.898   8.060  1.0049  0.0817  2.2261
21009SOL    HW266430   2.862   9.903   8.043  0.7684 -0.0724 -0.1812
21010SOL     OW66431   7.138   7.964   3.478  0.4733 -0.4187  0.2742
21010SOL    HW166432   7.135   8.054   3.445 -0.4971 -0.9488 -1.2478
21010SOL    HW266433   7.150   7.973   3.572 -1.3033  1.3700  0.4132
21011SOL     OW66434   2.491   5.363   8.850 -0.6546 -0.0604 -0.4354
21011SOL    HW166435   2.493   5.369   8.945 -1.1708 -0.6502 -0.3871
21011SOL    HW266436   2.571   5.315   8.827 -1.2224 -1.1466 -0.1968
21012SOL     OW66437   9.244   4.910   5.567 -0.2165  0.3648 -0.2017
21012SOL    HW166438   9.260   4.865   5.649 -0.8687  1.4898  0.5790
21012SOL    HW266439   9.196   4.847   5.513  0.5322 -0.5032  0.1370
21013SOL     OW66440   1.769   5.637   9.870 -0.1421  0.5558  0.1356
21013SOL    HW166441   1.794   5.726   9.846  2.0590  0.2108  0.9552
21013SOL    HW266442   1.674   5.642   9.885 -0.2268  2.5054 -0.8143
21014SOL     OW66443   6.176   7.506   2.576 -0.3694 -0.5507  0.1017
21014SOL    HW166444   6.135   7.513   2.662 -1.7965  0.1272 -0.6094
21014SOL    HW266445   6.125   7.441   2.529  0.1441 -0.6094 -0.3927
21015SOL     OW66446   0.030   8.609   1.798  0.4167 -0.6859 -0.1707
21015SOL    HW166447   0.014   8.540   1.862  2.8597 -0.2059  1.0482
21015SOL    HW266448  -0.020   8.684   1.831  0.3158 -0.9312  0.2428
21016SOL     OW66449   4.785   3.522   9.584  1.1850 -0.7551 -0.1811
21016SOL    HW166450   4.877   3.498   9.582  1.7783  1.2922 -2.3443
21016SOL    HW266451   4.742   3.460   9.525  1.8451  0.3050 -1.8644
21017SOL     OW66452   0.693   2.371   9.637  0.2589  0.2941 -0.0352
21017SOL    HW166453   0.637   2.342   9.709  0.7353 -0.0818  0.1942
21017SOL    HW266454   0.779   2.333   9.658 -0.0170 -1.3991 -1.7470
21018SOL     OW66455   9.084   9.678   7.385 -0.1195  0.5703  0.1045
21018SOL    HW166456   9.146   9.731   7.436  0.2207 -0.4903  0.8222
21018SOL    HW266457   9.133   9.649   7.309  0.3914 -0.4883  0.8038
21019SOL     OW66458   4.668   3.270   8.776 -0.2649 -0.0617  0.0082
21019SOL    HW166459   4.589   3.268   8.721  1.7596  2.2423 -3.4515
21019SOL    HW266460   4.658   3.350   8.828 -0.3091  0.1426 -0.3080
21020SOL     OW66461   1.751   9.494   8.521  0.4497  1.1371 -0.2455
21020SOL    HW166462   1.690   9.421   8.529  0.9061  0.8286  0.5673
21020SOL    HW266463   1.771   9.518   8.612 -0.1136  2.6291 -0.4795
21021SOL     OW66464   5.770   2.068   5.109  0.3424  0.1933  0.3303
21021SOL    HW166465   5.733   1.981   5.125  0.5098  0.0321 -0.1747
21021SOL    HW266466   5.815   2.061   5.025  1.6729  0.3499  1.0023
21022SOL     OW66467   9.799   3.483   4.682 -0.3286  0.6747  0.0685
21022SOL    HW166468   9.744   3.407   4.700  0.5486  0.1896  0.7598
21022SOL    HW266469   9.737   3.552   4.656 -1.2989  0.2615  1.2025
21023SOL     OW66470   7.284   0.839   8.305 -0.5513  0.3504  0.4728
21023SOL    HW166471   7.368   0.883   8.319 -1.4090  1.7777  1.3744
21023SOL    HW266472   7.304   0.746   8.319  0.7158  0.7456  1.5699
21024SOL     OW66473   2.465   6.371   7.694 -0.4822 -0.0211 -0.4025
21024SOL    HW166474   2.490   6.376   7.602 -0.3697  2.6469 -0.3171
21024SOL    HW266475   2.483   6.459   7.728 -2.5879 -0.2803  1.6325
21025SOL     OW66476   5.852   4.553   4.946  0.5490 -0.7133  0.0250
21025SOL    HW166477   5.927   4.493   4.952  1.5743  0.5189  0.0935
21025SOL    HW266478   5.841   4.568   4.852  0.2851 -1.0097  0.0074
21026SOL     OW66479   2.653   0.317   2.440  0.1557 -0.2725 -0.0117
21026SOL    HW166480   2.592   0.381   2.476  0.2040 -0.4621  0.4139
21026SOL    HW266481   2.598   0.252   2.397  0.0632 -0.3584  0.2337
21027SOL     OW66482   7.519   1.205   2.654  0.2873  0.4680  0.0298
21027SOL    HW166483   7.595   1.153   2.627  0.4540 -0.2842  1.8129
21027SOL    HW266484   7.444   1.148   2.639  0.2619  0.5022  0.0281
21028SOL     OW66485   2.920   0.928   0.518  0.3928  0.5059  0.6212
21028SOL    HW166486   3.011   0.905   0.539  0.2295 -1.5413 -0.7085
21028SOL    HW266487   2.899   0.998   0.580  1.9434 -0.9276  2.9226
21029SOL     OW66488   4.383   2.132   2.700  0.2725 -0.0888 -0.4279
21029SOL    HW166489   4.333   2.096   2.627  0.2808 -2.8491  0.8208
21029SOL    HW266490   4.322   2.191   2.743 -0.7549 -0.7590 -0.9167
21030SOL     OW66491   5.780   6.318   3.342 -0.2142 -0.2433 -0.0554
21030SOL    HW166492   5.836   6.356   3.275 -0.4435 -0.5179 -0.4103
21030SOL    HW266493   5.691   6.329   3.308 -0.3357 -0.3379  0.2258
21031SOL     OW66494   3.946  10.537   0.228  0.2888 -0.3555 -0.0719
21031SOL    HW166495   3.961  10.525   0.134 -2.6363 -0.5592 -0.6175
21031SOL    HW266496   3.965  10.451   0.266  1.7795 -0.1893 -0.4061
21032SOL     OW66497   1.760   3.931   4.125 -0.1770  0.7572 -0.0925
21032SOL    HW166498   1.795   3.956   4.040 -0.7161  0.2094 -0.4883
21032SOL    HW266499   1.792   3.841   4.138  0.8564  1.2401  0.8151
21033SOL     OW66500   2.725   6.765   9.602 -0.2372  0.2664 -0.1810
21033SOL    HW166501   2.719   6.855   9.635  1.4822  0.2578  0.2457
21033SOL    HW266502   2.818   6.744   9.606 -0.5133 -1.2804 -0.9970
21034SOL     OW66503  10.754   4.755   9.069  0.1263 -0.1127 -0.2762
21034SOL    HW166504  10.736   4.848   9.061  0.2732 -0.2268 -2.8228
21034SOL    HW266505  10.667   4.715   9.076  0.0459  0.1912  0.4734
21035SOL     OW66506   2.442   4.791   8.434  0.0992  0.1643 -0.2692
21035SOL    HW166507   2.494   4.784   8.514 -0.3409 -0.9402 -0.0666
21035SOL    HW266508   2.399   4.876   8.441 -1.6249 -0.7591  1.7482
21036SOL     OW66509   3.005   4.271   3.899 -0.1763  1.0925  0.1867
21036SOL    HW166510   2.948   4.194   3.891  0.7559  0.3735  0.2269
21036SOL    HW266511   2.974   4.330   3.830 -0.4828  0.3932 -0.2945
21037SOL     OW66512   7.423   3.724   4.511  0.1413  0.0482 -0.0355
21037SOL    HW166513   7.476   3.648   4.535 -0.6949 -0.6275 -0.2351
21037SOL    HW266514   7.465   3.759   4.433  0.9848  0.2731  0.5065
21038SOL     OW66515   3.469   1.540   2.225  0.1408  0.3623 -0.1291
21038SOL    HW166516   3.386   1.527   2.180  0.2073  0.3093 -0.2345
21038SOL    HW266517   3.460   1.489   2.306 -0.0475  0.6054  0.0050
21039SOL     OW66518   9.224   0.901   5.896 -0.6095  0.4391 -0.5811
21039SOL    HW166519   9.250   0.891   5.805  1.4269 -0.7421  0.0801
21039SOL    HW266520   9.141   0.854   5.902 -0.1764 -0.4865 -1.5679
21040SOL     OW66521   1.644   8.815   5.455 -0.2675 -0.8545 -0.3269
21040SOL    HW166522   1.646   8.737   5.511 -2.7327  0.5437  1.9512
21040SOL    HW266523   1.553   8.821   5.426 -0.0132  0.9132 -0.8165
21041SOL     OW66524   6.658   6.200   9.895 -0.3075 -0.4203  0.1724
21041SOL    HW166525   6.691   6.259   9.962 -0.6466  0.7910 -0.6780
21041SOL    HW266526   6.734   6.150   9.866  0.5607  1.4294 -0.8643
21042SOL     OW66527   2.505  10.109  10.440 -0.4490  0.3425 -0.1629
21042SOL    HW166528   2.588  10.157  10.439 -0.6387  0.6723 -0.8225
21042SOL    HW266529   2.439  10.177  10.454 -0.4528 -0.2289  3.4108
21043SOL     OW66530   8.003   2.580   5.348 -0.5434 -0.3836 -0.6010
21043SOL    HW166531   8.009   2.508   5.411 -0.2014 -0.0643 -0.2661
21043SOL    HW266532   7.925   2.629   5.374  1.6283  2.0331  2.0434
21044SOL     OW66533   8.786   1.432   3.075 -1.0328 -0.2259 -0.1429
21044SOL    HW166534   8.758   1.522   3.091  0.3128  0.2309 -0.2373
21044SOL    HW266535   8.722   1.398   3.012 -1.7233  0.5530  0.1122
21045SOL     OW66536   3.960   4.249   0.599  0.1311 -0.5659  0.6431
21045SOL    HW166537   4.044   4.291   0.582  0.7731 -1.6442  0.9986
21045SOL    HW266538   3.939   4.203   0.518  0.3877 -1.0846  0.8584
21046SOL     OW66539   3.392   7.263   6.934 -0.5758  0.0534 -0.0758
21046SOL    HW166540   3.347   7.180   6.916 -0.5875  0.0470 -0.0184
21046SOL    HW266541   3.431   7.288   6.850 -0.5275 -0.0371 -0.0808
21047SOL     OW66542   2.833   4.169   8.712 -0.1844  0.3207 -0.0396
21047SOL    HW166543   2.824   4.150   8.619 -3.0534  0.8980  0.0185
21047SOL    HW266544   2.834   4.264   8.717 -0.1037  0.2942  0.5021
21048SOL     OW66545   8.904   3.567   9.930  0.3004 -0.2164 -0.0090
21048SOL    HW166546   8.869   3.525  10.008 -0.6889 -1.5053 -1.0966
21048SOL    HW266547   8.969   3.504   9.897 -0.6212 -0.5600 -1.2183
21049SOL     OW66548   8.081   2.138  10.689 -0.1651 -0.1703 -0.1576
21049SOL    HW166549   8.139   2.213  10.695  0.9656 -0.9343 -0.9580
21049SOL    HW266550   8.011   2.166  10.630 -1.3875  1.1912  1.8147
21050SOL     OW66551   5.270   3.608   4.609 -0.0661  0.2434 -0.3754
21050SOL    HW166552   5.350   3.575   4.568  0.0730  0.8544 -0.6082
21050SOL    HW266553   5.230   3.531   4.649 -0.5094 -0.5021 -2.1410
21051SOL     OW66554   2.019   8.547   3.797 -0.4030  0.2262 -0.1885
21051SOL    HW166555   2.013   8.568   3.704  0.3588  1.2029 -0.0283
21051SOL    HW266556   2.073   8.468   3.801 -0.1298  0.3949 -0.5458
21052SOL     OW66557   7.795   6.875   1.266 -0.1752  0.4129  0.1405
21052SOL    HW166558   7.826   6.800   1.316  0.0893  0.9875  0.8602
21052SOL    HW266559   7.748   6.837   1.192  1.2471 -0.4732 -0.3494
21053SOL     OW66560   1.796   5.780   5.562 -0.5813 -1.2298  0.2186
21053SOL    HW166561   1.868   5.749   5.506  0.0055 -1.2813  0.9873
21053SOL    HW266562   1.763   5.857   5.517 -0.7099 -1.7762 -0.6627
21054SOL     OW66563   0.812   4.582   8.406 -0.0344 -0.1223 -0.2553
21054SOL    HW166564   0.861   4.513   8.451 -1.4116 -1.4753 -0.7600
21054SOL    HW266565   0.879   4.644   8.377  1.2135 -1.1111  0.4218
21055SOL     OW66566   2.177   0.070   2.126  0.1795  0.1239 -0.1749
21055SOL    HW166567   2.088   0.034   2.126  0.5451 -0.8120 -0.4316
21055SOL    HW266568   2.213   0.044   2.211 -0.0018  1.0612  0.1989
21056SOL     OW66569   4.909   2.373   4.292 -0.4300  0.0952 -0.4118
21056SOL    HW166570   4.997   2.358   4.258 -0.5377  0.2575 -0.7765
21056SOL    HW266571   4.862   2.291   4.274 -0.8149  0.5701 -1.7428
21057SOL     OW66572   1.669   9.961   9.311  0.2561 -0.1172 -0.0502
21057SOL    HW166573   1.579   9.957   9.279  0.2643 -0.6382 -0.0163
21057SOL    HW266574   1.698  10.050   9.291 -0.2800  0.0645 -0.0212
21058SOL     OW66575   7.998   9.067   9.069 -0.2266 -0.3784  0.3805
21058SOL    HW166576   7.926   9.079   9.008 -0.5246 -1.2132  0.5632
21058SOL    HW266577   8.032   9.156   9.084 -1.1225  0.0027  0.1919
21059SOL     OW66578   4.762   0.643   7.487 -0.4402  0.0293  0.0909
21059SOL    HW166579   4.746   0.572   7.550 -0.1948  0.9546  1.2133
21059SOL    HW266580   4.801   0.599   7.412 -1.6794 -1.2497  0.1417
21060SOL     OW66581   8.144   9.536   6.583 -0.4946 -0.1483 -0.0803
21060SOL    HW166582   8.130   9.584   6.502 -0.7995 -0.1012 -0.0012
21060SOL    HW266583   8.065   9.552   6.635 -0.4723 -0.4923  0.0661
21061SOL     OW66584   3.937   9.520   9.576 -0.0302 -0.3181  0.5307
21061SOL    HW166585   4.030   9.534   9.561 -0.1297 -1.1903 -1.2083
21061SOL    HW266586   3.913   9.452   9.513 -1.9791  0.3694  0.4624
21062SOL     OW66587   3.056   4.169   3.567  0.5373 -0.0279 -1.0009
21062SOL    HW166588   3.028   4.081   3.594  0.0357  0.3290 -0.3172
21062SOL    HW266589   3.106   4.202   3.642  1.4475 -0.0559 -1.5957
21063SOL     OW66590   1.336   1.511   1.452  0.3099  0.5787  1.2254
21063SOL    HW166591   1.243   1.522   1.469 -0.3391  2.0702 -2.4615
21063SOL    HW266592   1.341   1.438   1.389  1.4243  1.5038  0.1910
21064SOL     OW66593   7.685   8.039   9.011  0.3339  0.3295  0.1789
21064SOL    HW166594   7.708   7.985   8.935  0.1588 -0.4120  0.6376
21064SOL    HW266595   7.656   7.976   9.077 -0.8561  1.0636  0.3916
21065SOL     OW66596   2.239   6.872   3.495 -0.2360  0.3637 -0.8587
21065SOL    HW166597   2.173   6.818   3.537 -0.4725  0.9958 -0.4159
21065SOL    HW266598   2.218   6.962   3.521 -1.2844  0.9820 -3.4467
21066SOL     OW66599   7.955   9.415   7.732 -1.0174  0.1037 -0.4387
21066SOL    HW166600   7.991   9.467   7.805  1.3772 -0.6141 -1.0098
21066SOL    HW266601   7.883   9.367   7.771 -0.0087 -0.0268  1.4198
21067SOL     OW66602   0.795   2.845   4.093 -0.7046  0.1422  0.0717
21067SOL    HW166603   0.772   2.835   4.001  0.2928 -0.3882 -0.1279
21067SOL    HW266604   0.874   2.792   4.104 -1.8130 -1.3151  1.6400
21068SOL     OW66605   4.247   0.405   7.720 -0.3853 -0.1090 -0.5248
21068SOL    HW166606   4.189   0.382   7.647 -0.7969  0.7228 -0.4726
21068SOL    HW266607   4.254   0.501   7.716 -0.4080 -0.0487  0.5185
21069SOL     OW66608   6.706   8.121   0.221 -0.2735  0.2072  0.4139
21069SOL    HW166609   6.676   8.033   0.242  1.8903 -0.6222  0.3102
21069SOL    HW266610   6.716   8.121   0.126  3.1232 -0.7465  0.6223
21070SOL     OW66611   5.581   4.934   0.348  0.2333 -0.2581 -0.3847
21070SOL    HW166612   5.627   4.993   0.288  2.2719 -1.1212  0.2182
21070SOL    HW266613   5.527   4.879   0.291 -0.3928  1.0481 -1.0982
21071SOL     OW66614   9.098   7.115   2.663 -0.0173  0.0025  0.5698
21071SOL    HW166615   9.180   7.066   2.668 -0.7573 -1.4509 -0.7307
21071SOL    HW266616   9.123   7.206   2.682  1.5220 -0.7212  2.2323
21072SOL     OW66617   9.860   4.750   5.263  0.4171  0.2499 -0.2588
21072SOL    HW166618   9.778   4.751   5.313 -0.5172  1.5924 -1.7413
21072SOL    HW266619   9.921   4.803   5.316  0.2839 -0.5495  0.7281
21073SOL     OW66620   1.798  10.543   7.764  0.4672  0.4340  0.8919
21073SOL    HW166621   1.890  10.517   7.768  0.0275 -1.1629  1.2969
21073SOL    HW266622   1.792  10.599   7.687  1.9681  1.4048  1.4588
21074SOL     OW66623   9.975   4.755   1.435  0.1576  0.7416 -0.3190
21074SOL    HW166624   9.957   4.739   1.528 -0.4385 -1.9520 -0.8228
21074SOL    HW266625  10.059   4.713   1.419 -0.7388 -0.7315 -1.4168
21075SOL     OW66626   9.230   0.761  10.041 -0.5647  0.0102  0.1685
21075SOL    HW166627   9.174   0.728  10.111 -1.2079  1.9040  0.6086
21075SOL    HW266628   9.187   0.842  10.011  0.1061 -0.3207 -1.8827
21076SOL     OW66629  10.356   9.889   0.120  0.3476  0.7191  0.2842
21076SOL    HW166630  10.386   9.854   0.036  0.2006  1.2103  0.0208
21076SOL    HW266631  10.432   9.882   0.178 -0.0399 -1.2408  0.6308
21077SOL     OW66632   7.430   1.661   6.694  0.2107  0.2265 -0.2911
21077SOL    HW166633   7.513   1.613   6.685  0.5606  0.9287 -0.8589
21077SOL    HW266634   7.456   1.748   6.723 -0.3325  0.4420 -0.4514
21078SOL     OW66635   1.987   6.965   1.546  0.2789  0.0752  0.1095
21078SOL    HW166636   2.023   6.977   1.458 -2.3343  0.7480 -0.9686
21078SOL    HW266637   1.992   7.052   1.586  1.1500 -0.1560  0.5262
21079SOL     OW66638   4.476   4.322   9.918  0.6219  0.4438  0.0491
21079SOL    HW166639   4.552   4.265   9.925 -0.5709 -1.2574 -0.2121
21079SOL    HW266640   4.492   4.392   9.981  0.4737 -2.1699  3.2643
21080SOL     OW66641   7.835   2.917   1.844 -0.0409  0.3092 -0.6054
21080SOL    HW166642   7.824   2.999   1.892  1.3416  0.4764 -0.5324
21080SOL    HW266643   7.822   2.849   1.910 -0.3892  0.4832 -0.4923
21081SOL     OW66644   3.335   8.292   4.773  0.2080 -0.2897  0.0477
21081SOL    HW166645   3.301   8.204   4.758 -0.8602 -0.2272  1.8516
21081SOL    HW266646   3.430   8.280   4.777  0.1697 -1.1216 -1.0444
21082SOL     OW66647   5.314   2.473   7.302  0.0722  0.3559  0.1839
21082SOL    HW166648   5.280   2.384   7.304 -1.7910  1.0468  1.4382
21082SOL    HW266649   5.334   2.489   7.209  2.6180 -2.0647  0.1786
21083SOL     OW66650   9.431   6.062   4.056  0.5620 -0.2219  0.0556
21083SOL    HW166651   9.513   6.109   4.042  2.5262 -3.3495  0.0900
21083SOL    HW266652   9.416   6.069   4.150  0.8050  0.3077  0.0612
21084SOL     OW66653   8.887   5.534   4.410  0.1319  0.7500  0.5707
21084SOL    HW166654   8.878   5.439   4.410  1.1791  0.6197 -0.6446
21084SOL    HW266655   8.976   5.550   4.442  0.3129  1.2629 -0.1614
21085SOL     OW66656   6.372   5.037   9.010 -0.3553 -0.7134  0.0536
21085SOL    HW166657   6.291   4.990   8.990 -0.0894 -2.3806  2.5047
21085SOL    HW266658   6.434   4.968   9.036  1.3745  0.6703 -0.1606
21086SOL     OW66659   7.860   2.633   9.745 -0.0711  0.1275  0.1711
21086SOL    HW166660   7.950   2.657   9.722  0.0685  0.2819  0.8595
21086SOL    HW266661   7.806   2.680   9.681  0.2837  0.9973  0.4916
21087SOL     OW66662   1.234   2.196   8.021 -0.3395  0.6183 -0.1502
21087SOL    HW166663   1.239   2.272   7.964  1.7097  0.5136 -0.1832
21087SOL    HW266664   1.240   2.121   7.962 -1.0871  0.4520 -0.0197
21088SOL     OW66665   8.545   0.131   7.368  0.3486 -0.1796 -0.1405
21088SOL    HW166666   8.518   0.221   7.387  1.9663  0.7278 -1.8111
21088SOL    HW266667   8.518   0.081   7.445  0.4124  1.9213  1.3319
21089SOL     OW66668  10.323   0.172   4.721  0.3564 -0.1761  0.5222
21089SOL    HW166669  10.263   0.159   4.795 -1.0687 -0.0999 -0.5868
21089SOL    HW266670  10.301   0.103   4.659  0.6643  0.5122 -0.3867
21090SOL     OW66671  10.232   9.453   3.189  0.5566 -0.1487  0.1811
21090SOL    HW166672  10.284   9.403   3.127  0.4087  0.0958 -0.1423
21090SOL    HW266673  10.272   9.540   3.190  1.0777 -0.3822  1.0599
21091SOL     OW66674   4.934  10.838   6.604 -0.2350  0.2181  0.2929
21091SOL    HW166675   4.949  10.744   6.602 -1.6879 -0.0489  0.5640
21091SOL    HW266676   4.978  10.868   6.684  3.4648  0.4528 -1.6270
21092SOL     OW66677   7.987   1.466   2.168  0.2959 -0.3577  0.2205
21092SOL    HW166678   7.956   1.403   2.233 -0.2505 -0.4704 -0.1403
21092SOL    HW266679   7.929   1.453   2.092  1.8457 -1.2791 -0.8730
21093SOL     OW66680   7.989   8.798  10.346  0.1706  0.2419  0.5467
21093SOL    HW166681   7.962   8.811  10.436 -2.3445  4.0599 -0.5390
21093SOL    HW266682   8.072   8.845  10.339  0.3451 -0.0182  0.8416
21094SOL     OW66683   9.805   1.075   9.902  0.3962 -0.0790  0.1143
21094SOL    HW166684   9.715   1.044   9.914  0.9030 -1.1633  1.3442
21094SOL    HW266685   9.826   1.120   9.984  0.7729  0.7453 -0.4170
21095SOL     OW66686   1.982  10.866   4.329 -0.2370 -0.0209 -0.5804
21095SOL    HW166687   1.955  10.776   4.348 -0.5247 -0.4891 -2.9291
21095SOL    HW266688   2.067  10.875   4.372 -0.3433 -1.3083 -0.0555
21096SOL     OW66689   6.560   9.921   3.804 -0.3258  0.0965 -0.3569
21096SOL    HW166690   6.578   9.828   3.792 -1.4462 -0.0225 -1.2931
21096SOL    HW266691   6.485   9.924   3.864 -0.3415  0.3829 -0.3884
21097SOL     OW66692   9.407   9.550   5.814 -0.9613  0.0121 -0.3595
21097SOL    HW166693   9.383   9.559   5.722 -1.9389 -0.4586 -0.1553
21097SOL    HW266694   9.350   9.482   5.848 -0.2810 -0.1583  0.4875
21098SOL     OW66695   7.019   0.567   0.804 -0.4008  0.3916 -0.2834
21098SOL    HW166696   6.928   0.594   0.789 -0.6480  0.6003  1.3842
21098SOL    HW266697   7.020   0.536   0.895  1.2105  0.4739 -0.2514
21099SOL     OW66698   7.773   6.515   2.833  0.2678 -0.2581  0.1228
21099SOL    HW166699   7.800   6.588   2.889  0.4071  1.0512 -1.5657
21099SOL    HW266700   7.717   6.461   2.889  0.6607  0.8010  1.6002
21100SOL     OW66701   7.884   3.952   9.703 -0.6580 -0.3073  0.2867
21100SOL    HW166702   7.798   3.918   9.728 -0.5634 -0.3025  0.6247
21100SOL    HW266703   7.905   3.906   9.623 -0.7065 -0.7629  0.5321
21101SOL     OW66704   6.050   3.093   8.333  0.4050  0.5603 -0.8389
21101SOL    HW166705   6.070   3.095   8.240 -0.7593  1.2428 -1.0932
21101SOL    HW266706   6.008   3.008   8.347 -0.6155  0.9919 -1.2127
21102SOL     OW66707  10.805   3.874   4.101  0.2449 -0.2666 -0.0733
21102SOL    HW166708  10.885   3.875   4.048  0.3928 -0.7632  0.1350
21102SOL    HW266709  10.834   3.850   4.189 -0.0489  0.1989  0.1549
21103SOL     OW66710   3.908   8.263  10.294  0.5793  0.8705  0.2798
21103SOL    HW166711   3.964   8.307  10.358  0.7582  1.1070 -0.0377
21103SOL    HW266712   3.969   8.223  10.232  0.4140  0.4072  0.4068
21104SOL     OW66713   0.682   8.095   2.926 -0.2475 -0.4834 -0.7651
21104SOL    HW166714   0.719   8.020   2.878  3.2332 -0.4551  1.5269
21104SOL    HW266715   0.731   8.171   2.893  0.9617 -0.2298  1.4686
21105SOL     OW66716   4.195  10.820   8.122  0.3414  0.2937 -0.5043
21105SOL    HW166717   4.113  10.824   8.073  0.0683  0.4682 -0.0364
21105SOL    HW266718   4.219  10.728   8.122  0.5108  0.3278 -1.2310
21106SOL     OW66719   3.736   7.706   7.685  0.3053  0.6152 -0.0986
21106SOL    HW166720   3.742   7.775   7.751 -0.4266  0.8085 -0.2168
21106SOL    HW266721   3.765   7.627   7.730 -1.0427  0.5700  0.7567
21107SOL     OW66722   5.920   3.998   5.271 -0.6159 -0.3947 -0.3004
21107SOL    HW166723   5.958   4.085   5.286 -2.6719  0.7764 -1.4284
21107SOL    HW266724   5.896   3.966   5.358  0.2739  0.0991  0.1357
21108SOL     OW66725   8.363   4.782   9.840 -0.0868 -0.4998  0.0210
21108SOL    HW166726   8.378   4.875   9.857  0.2573 -0.7216  0.9803
21108SOL    HW266727   8.447   4.750   9.807  0.2318 -0.7743  1.0780
21109SOL     OW66728   1.931   1.100   1.440  0.1197  0.0321 -0.3606
21109SOL    HW166729   2.011   1.051   1.455  0.7574  0.9474 -0.6764
21109SOL    HW266730   1.861   1.041   1.468  0.9711 -0.1738  1.5159
21110SOL     OW66731   8.339   4.422   1.341  0.2109 -0.0411  0.2079
21110SOL    HW166732   8.320   4.511   1.370 -0.8984  0.0595 -0.7491
21110SOL    HW266733   8.253   4.383   1.327  0.6986 -0.6936 -1.0960
21111SOL     OW66734   9.225   2.329   3.025 -0.0384 -0.0872 -0.1626
21111SOL    HW166735   9.138   2.367   3.033  0.3489  0.9119 -0.5320
21111SOL    HW266736   9.256   2.322   3.116 -2.0006 -4.2529  0.4273
21112SOL     OW66737   8.453   4.154   8.733 -0.5314 -0.1858  0.0798
21112SOL    HW166738   8.519   4.123   8.795 -0.3158  0.7942  0.3511
21112SOL    HW266739   8.376   4.172   8.787  0.0494  1.8890  0.3025
21113SOL     OW66740  10.746   3.332   0.810 -0.0677 -0.3681  0.9344
21113SOL    HW166741  10.722   3.388   0.884  0.2649  0.6375  0.3037
21113SOL    HW266742  10.804   3.266   0.847  0.4134  0.3668  1.5077
21114SOL     OW66743   7.819   7.658  10.249  0.2826 -0.0098 -0.5704
21114SOL    HW166744   7.771   7.672  10.330  3.7399  4.2236  1.1816
21114SOL    HW266745   7.909   7.643  10.276  1.2777 -0.3953 -3.6386
21115SOL     OW66746   6.689   4.341   0.122  0.3423 -0.1858 -0.2552
21115SOL    HW166747   6.696   4.364   0.215 -1.5653  0.3870 -0.2067
21115SOL    HW266748   6.769   4.375   0.083  0.2413  1.4729  0.8471
21116SOL     OW66749  10.908   8.036   5.376 -0.1899 -0.2098 -0.1662
21116SOL    HW166750  10.842   7.991   5.323 -0.5248  0.5090 -0.3838
21116SOL    HW266751  10.896   8.003   5.464 -1.1071  0.1835 -0.1332
21117SOL     OW66752   6.828   7.795   5.182 -0.3139 -0.3937 -0.3286
21117SOL    HW166753   6.865   7.883   5.173  0.0183 -0.1409  2.5631
21117SOL    HW266754   6.735   7.810   5.197 -0.2848 -0.5466  0.0050
21118SOL     OW66755   3.848   1.826  10.067 -0.2613  0.5646 -0.1328
21118SOL    HW166756   3.768   1.859  10.108  1.2475 -0.6595  4.3850
21118SOL    HW266757   3.915   1.890  10.091  0.8596 -0.6689  0.1055
21119SOL     OW66758   2.873   9.848   9.880 -0.0703 -0.3553  0.4873
21119SOL    HW166759   2.846   9.893   9.960  1.1964 -0.4732  1.0036
21119SOL    HW266760   2.796   9.849   9.824 -0.7765  0.3091  1.4560
21120SOL     OW66761   2.391   1.528   6.398 -0.5592 -0.0824 -0.2434
21120SOL    HW166762   2.353   1.541   6.485 -1.3749 -0.7807 -0.4837
21120SOL    HW266763   2.454   1.457   6.410 -1.1166 -0.6014 -0.3384
21121SOL     OW66764   1.181   7.449   3.400 -0.7242 -0.2922 -0.0802
21121SOL    HW166765   1.230   7.483   3.475 -0.6392 -2.0316  0.7007
21121SOL    HW266766   1.091   7.443   3.431 -0.6051 -1.4768  0.0571
21122SOL     OW66767   8.086   2.657   5.862 -0.1030 -0.0440 -0.2829
21122SOL    HW166768   8.045   2.601   5.928  1.7612 -0.2140  0.8169
21122SOL    HW266769   8.063   2.616   5.778 -0.1646 -1.5085  0.4133
21123SOL     OW66770   5.009  10.865   6.876 -1.0986 -0.4485 -0.6458
21123SOL    HW166771   5.035  10.786   6.923 -0.8569  0.0375  0.0575
21123SOL    HW266772   4.913  10.868   6.884 -1.0064  0.0150  0.4741
21124SOL     OW66773   8.565   4.305   1.303  0.6392 -0.1315 -0.0935
21124SOL    HW166774   8.624   4.327   1.375  0.1132  0.0285  0.2945
21124SOL    HW266775   8.484   4.353   1.322  0.7647  0.5441 -1.2120
21125SOL     OW66776   2.719   1.562   6.680 -0.7822 -0.3941  0.5846
21125SOL    HW166777   2.671   1.491   6.636 -1.2315 -0.3105  0.9374
21125SOL    HW266778   2.655   1.632   6.689 -0.4106 -0.0373  0.4798
21126SOL     OW66779   8.951   0.350  10.185 -0.4767 -1.1286  0.3218
21126SOL    HW166780   8.881   0.301  10.227 -1.0451 -1.5604 -1.0601
21126SOL    HW266781   9.031   0.318  10.225 -1.0599  0.1557  2.7463
21127SOL     OW66782   0.387   3.933   5.937 -0.7787 -0.4155  0.1589
21127SOL    HW166783   0.317   3.989   5.904 -1.9517 -1.0977  1.3590
21127SOL    HW266784   0.405   3.967   6.025  0.6841 -0.0248 -0.2676
21128SOL     OW66785   7.349   2.574   1.697 -0.1566 -0.5370  0.0162
21128SOL    HW166786   7.259   2.606   1.695  1.3259  4.5310  0.8846
21128SOL    HW266787   7.381   2.586   1.608  0.0651 -0.9434  0.0417
21129SOL     OW66788   0.568   2.025   9.300  0.1571 -0.0405 -0.8295
21129SOL    HW166789   0.495   2.087   9.301  1.5626  1.6852 -0.3665
21129SOL    HW266790   0.624   2.053   9.373 -0.2899 -3.3619  1.0195
21130SOL     OW66791   8.720   1.172   7.699  0.0251 -0.0908 -0.1635
21130SOL    HW166792   8.724   1.086   7.741 -0.8458 -0.5278 -0.9343
21130SOL    HW266793   8.787   1.169   7.631 -0.8709 -0.6769 -1.0620
21131SOL     OW66794   5.294   9.029   5.223  0.0772  0.2036  0.0409
21131SOL    HW166795   5.349   9.106   5.215 -0.4051  0.5944  0.4397
21131SOL    HW266796   5.214   9.060   5.265 -1.0821 -0.0432 -1.8363
21132SOL     OW66797   1.800   0.371   4.902 -0.4904 -0.1772 -0.0845
21132SOL    HW166798   1.740   0.301   4.928 -0.8951  0.1245 -0.2126
21132SOL    HW266799   1.769   0.449   4.948 -0.0219 -0.0860  0.0792
21133SOL     OW66800  10.460   3.473   2.916  0.5368 -0.0484 -0.1968
21133SOL    HW166801  10.509   3.472   2.834  1.5730  0.5138  0.3914
21133SOL    HW266802  10.461   3.382   2.946 -0.6952 -0.4483 -1.2650
21134SOL     OW66803   8.792   5.639   2.646 -0.4087 -0.3183 -0.0633
21134SOL    HW166804   8.764   5.724   2.681 -1.7292  0.2888 -2.3810
21134SOL    HW266805   8.732   5.576   2.684 -0.6025  0.0557  0.2544
21135SOL     OW66806   8.399   7.450   1.739 -0.1116  0.3512 -0.0737
21135SOL    HW166807   8.378   7.516   1.673 -3.0818  0.5272  0.9030
21135SOL    HW266808   8.378   7.492   1.823 -0.5325 -1.2781  0.6809
21136SOL     OW66809   0.557   3.535   5.097 -0.3646  0.2539  0.5158
21136SOL    HW166810   0.612   3.594   5.149 -0.4666  0.8758 -0.0665
21136SOL    HW266811   0.554   3.575   5.010  0.1975 -1.0220 -0.1258
21137SOL     OW66812   6.665   7.990   4.905 -0.6632  0.2593 -0.0565
21137SOL    HW166813   6.631   7.976   4.993  0.8918  1.6416  0.8275
21137SOL    HW266814   6.647   8.082   4.887  1.0375  0.5925 -0.2266
21138SOL     OW66815   4.514   3.823   1.644  0.2727  0.3066  0.3177
21138SOL    HW166816   4.420   3.808   1.641  0.5446 -1.7952  0.4920
21138SOL    HW266817   4.539   3.836   1.553 -0.1474  0.5177  0.2319
21139SOL     OW66818   2.723   4.262   2.600 -0.1983  0.1015  0.1605
21139SOL    HW166819   2.686   4.346   2.626 -1.1002  0.1120 -1.0982
21139SOL    HW266820   2.758   4.226   2.682 -0.7155  1.2272  0.9120
21140SOL     OW66821  10.514   0.170   8.668  0.2827  0.5098 -0.0230
21140SOL    HW166822  10.420   0.168   8.687  0.3552 -0.4543  0.2674
21140SOL    HW266823  10.553   0.111   8.733  0.9401 -0.0472 -0.9019
21141SOL     OW66824   0.635   3.700   8.768 -0.1119 -0.6917  0.0320
21141SOL    HW166825   0.710   3.715   8.711  0.0864 -0.3302  0.3861
21141SOL    HW266826   0.571   3.766   8.741 -0.6248 -1.4988 -0.8065
21142SOL     OW66827   3.307   5.028   9.750  0.4250  0.6728  0.3100
21142SOL    HW166828   3.241   5.000   9.687  0.5997  0.6141  0.1548
21142SOL    HW266829   3.370   4.957   9.753  0.4268  0.6823  0.5384
21143SOL     OW66830   0.745   2.308   3.270 -0.0319  0.4931  0.5555
21143SOL    HW166831   0.813   2.241   3.276 -1.6724 -1.3071  0.0263
21143SOL    HW266832   0.789   2.389   3.292  2.1790 -0.6708  0.6521
21144SOL     OW66833   9.921   6.773  10.199  0.0132  0.9832  0.4124
21144SOL    HW166834   9.878   6.792  10.283  1.2393 -0.7547  1.5121
21144SOL    HW266835   9.967   6.853  10.176 -1.8640  2.1099  0.3999
21145SOL     OW66836   7.008   0.477   0.279 -0.6334 -0.4314 -0.0545
21145SOL    HW166837   6.928   0.453   0.326 -0.0624 -0.5457  0.9146
21145SOL    HW266838   7.073   0.487   0.349 -0.1000  0.8820 -0.7180
21146SOL     OW66839   9.194   1.170   1.126  0.4995 -0.1171  0.3691
21146SOL    HW166840   9.136   1.244   1.106  2.3132  0.9437 -1.3812
21146SOL    HW266841   9.220   1.185   1.217 -0.1111  0.7310  0.4216
21147SOL     OW66842   0.907   2.695   5.522 -0.3406 -0.2297 -0.1857
21147SOL    HW166843   0.887   2.684   5.615  2.0403 -0.0884  0.4158
21147SOL    HW266844   0.928   2.788   5.513 -2.4605  0.2000 -1.3331
21148SOL     OW66845   3.217   0.611   8.375  0.7263 -0.7982 -0.4428
21148SOL    HW166846   3.306   0.575   8.369  0.7361 -0.8861  0.1437
21148SOL    HW266847   3.200   0.648   8.289  1.7130  0.1053 -0.2704
21149SOL     OW66848   1.639   7.375   1.045 -0.1949 -0.4839 -0.0379
21149SOL    HW166849   1.548   7.348   1.037  0.3033 -2.5016  0.5919
21149SOL    HW266850   1.685   7.330   0.974  0.5923 -0.9331  0.7319
21150SOL     OW66851   7.497   2.984  10.293 -0.0795  0.0342 -0.5591
21150SOL    HW166852   7.543   3.067  10.276 -0.1283  0.7131  2.1623
21150SOL    HW266853   7.562   2.930  10.338 -0.8143 -0.3826  0.0234
21151SOL     OW66854   3.998   5.634   7.915  0.0396  0.1772  0.4267
21151SOL    HW166855   3.974   5.726   7.904  1.1174  0.3616 -0.6294
21151SOL    HW266856   4.074   5.636   7.974 -0.6181 -0.1434  1.3059
21152SOL     OW66857   8.409   2.740   8.971 -0.3839  0.5360 -0.2687
21152SOL    HW166858   8.337   2.780   9.020 -0.1823  0.2053  0.3041
21152SOL    HW266859   8.481   2.733   9.034 -0.5929 -1.2378 -0.1751
21153SOL     OW66860   1.294   4.265   7.876  0.2729  0.1305 -0.2795
21153SOL    HW166861   1.200   4.243   7.872 -0.1474  1.9495 -2.3111
21153SOL    HW266862   1.297   4.360   7.866  2.3726 -0.0194 -1.7569
21154SOL     OW66863   4.947   4.602   7.504  0.2041 -0.2010 -0.3713
21154SOL    HW166864   4.877   4.571   7.561  1.5447 -0.8160  1.0138
21154SOL    HW266865   4.903   4.659   7.440 -1.1414  1.9416  2.2903
21155SOL     OW66866   4.007   3.544   3.686 -0.3789  0.2851 -0.2096
21155SOL    HW166867   4.102   3.553   3.693 -0.4679  0.2023  1.7704
21155SOL    HW266868   3.991   3.450   3.695 -0.7334  0.4797  1.5245
21156SOL     OW66869  10.786   1.768  10.082  0.7123 -0.0468  0.0059
21156SOL    HW166870  10.706   1.717  10.069  0.3637  0.7645 -1.1806
21156SOL    HW266871  10.843   1.710  10.132  0.7461 -2.0274 -2.1520
21157SOL     OW66872   1.070   0.087   9.795  0.7144  0.4221  0.0386
21157SOL    HW166873   1.094   0.094   9.888  0.1382 -0.0499  0.2278
21157SOL    HW266874   1.147   0.119   9.748  1.3086 -0.0762  0.6568
21158SOL     OW66875   7.821   7.341   3.334 -0.2946 -0.0156  0.2622
21158SOL    HW166876   7.856   7.279   3.270  1.8416  0.3400  1.0083
21158SOL    HW266877   7.784   7.286   3.403  0.4237 -0.4603  0.3018
21159SOL     OW66878   4.074   3.696   2.360 -0.1784 -0.4005  0.1512
21159SOL    HW166879   4.086   3.654   2.445 -1.8520 -0.9080  0.1738
21159SOL    HW266880   3.981   3.687   2.342  0.1820 -0.5297 -1.8670
21160SOL     OW66881   9.713   7.641   4.986  0.3475  0.9058 -0.1372
21160SOL    HW166882   9.658   7.701   4.936  2.0688  2.0342 -0.7635
21160SOL    HW266883   9.672   7.555   4.974 -0.6692  1.5352 -1.4174
21161SOL     OW66884   2.501   7.213   3.047  0.3529 -0.0232 -0.2473
21161SOL    HW166885   2.427   7.153   3.063 -3.2166  4.2108  1.1667
21161SOL    HW266886   2.571   7.180   3.103 -1.5037 -2.5800  0.7684
21162SOL     OW66887   2.210   9.777   3.448 -0.3826 -0.1384  0.7704
21162SOL    HW166888   2.129   9.829   3.440  0.0340  0.7139  1.7996
21162SOL    HW266889   2.182   9.698   3.495 -1.0585 -0.9793 -0.9666
21163SOL     OW66890   2.722   3.848   5.480  0.1511  0.1095  0.8006
21163SOL    HW166891   2.637   3.832   5.521 -1.0553  1.0700 -1.1755
21163SOL    HW266892   2.786   3.817   5.544 -1.6289  0.5568  2.8953
21164SOL     OW66893   6.124   7.766   4.252 -0.7158  0.3657  0.2297
21164SOL    HW166894   6.092   7.700   4.192  1.1221 -0.1689 -0.1964
21164SOL    HW266895   6.110   7.849   4.206  1.2366 -0.0751 -1.2468
21165SOL     OW66896   8.892   3.392   2.071  0.4057  0.1267 -0.3297
21165SOL    HW166897   8.886   3.480   2.034  0.8859  0.4595  0.3828
21165SOL    HW266898   8.937   3.403   2.154 -2.1492 -0.3483  1.2413
21166SOL     OW66899   8.780   1.661  10.251 -0.3995 -0.2113  0.0856
21166SOL    HW166900   8.713   1.628  10.311 -2.2441  0.1478 -1.6872
21166SOL    HW266901   8.808   1.744  10.290 -0.2732 -0.8032  1.3215
21167SOL     OW66902   0.922   5.549   7.447  0.6144  0.1377 -0.4795
21167SOL    HW166903   0.956   5.461   7.469  0.1767 -0.1821 -1.0727
21167SOL    HW266904   0.900   5.587   7.532  1.2689 -0.1338 -0.1758
21168SOL     OW66905   1.492   2.730   2.321  0.5237  0.2946  0.3891
21168SOL    HW166906   1.471   2.810   2.273 -0.1506  0.4108  0.8584
21168SOL    HW266907   1.468   2.750   2.411 -1.1984 -0.9697  0.2559
21169SOL     OW66908  10.685   1.639   8.492 -0.0341 -0.0406 -0.1382
21169SOL    HW166909  10.660   1.600   8.408  0.3135 -2.5880  0.8522
21169SOL    HW266910  10.602   1.656   8.536 -0.1913  0.0512 -0.4688
21170SOL     OW66911   9.364   0.035   4.059 -0.2932  0.0929 -0.0199
21170SOL    HW166912   9.436   0.054   3.999 -0.2617  1.0741  0.3170
21170SOL    HW266913   9.307   0.111   4.053  0.3903  0.8523  2.1752
21171SOL     OW66914  10.879   3.364   2.052  0.1727 -0.5113  0.2072
21171SOL    HW166915  10.862   3.370   1.957  1.1795 -1.6509 -0.0701
21171SOL    HW266916  10.945   3.431   2.069 -0.2770 -0.0533  0.1865
21172SOL     OW66917   3.165   2.967   9.651  0.7537 -0.3795  0.1817
21172SOL    HW166918   3.142   3.051   9.691  1.0898 -0.8281  1.3922
21172SOL    HW266919   3.082   2.921   9.642  0.6294 -0.1204  0.0236
21173SOL     OW66920   6.052   3.930   3.058 -0.5471  0.0108  0.0505
21173SOL    HW166921   6.038   3.922   2.964 -0.4901  1.1064 -0.0727
21173SOL    HW266922   6.083   3.844   3.086  0.1966 -0.1114 -1.0790
21174SOL     OW66923   6.179  10.488   2.381 -0.1178  0.2261 -0.1049
21174SOL    HW166924   6.175  10.530   2.295  0.3803  0.2634 -0.1139
21174SOL    HW266925   6.267  10.509   2.413  0.9239 -2.3936 -0.9310
21175SOL     OW66926   7.068   2.486   7.953  0.1907  0.1143 -0.0107
21175SOL    HW166927   6.996   2.534   7.995  0.2792  1.0416 -0.8653
21175SOL    HW266928   7.083   2.533   7.871  2.1476  0.2834  0.3922
21176SOL     OW66929   1.356   0.874   0.521 -0.1295 -0.2543  0.0191
21176SOL    HW166930   1.402   0.820   0.586 -0.3084 -0.7458 -0.2512
21176SOL    HW266931   1.364   0.963   0.554 -0.0015 -0.4680  0.5853
21177SOL     OW66932   9.017   1.689   9.340  0.4989 -0.3832 -0.5259
21177SOL    HW166933   9.014   1.673   9.245 -1.6488 -0.9409 -0.3971
21177SOL    HW266934   9.039   1.604   9.377  1.0591 -0.2276 -0.4908
21178SOL     OW66935   4.878   9.417   1.485  0.2810  0.1243 -0.3511
21178SOL    HW166936   4.948   9.361   1.519 -0.1808 -0.1404  0.1825
21178SOL    HW266937   4.876   9.491   1.546 -0.6657 -0.4344  0.3349
21179SOL     OW66938   9.783   0.170   9.953  0.3769 -0.8715 -0.3078
21179SOL    HW166939   9.724   0.244   9.941 -2.6712 -3.0231  0.1731
21179SOL    HW266940   9.835   0.192  10.030 -1.4979  0.2108  0.7178
21180SOL     OW66941   0.541   5.913   2.653 -0.0746  0.2037  0.2847
21180SOL    HW166942   0.597   5.848   2.612 -1.7679 -0.9218 -0.3702
21180SOL    HW266943   0.562   5.995   2.608 -1.0447 -0.7746 -2.1275
21181SOL     OW66944  10.886   6.025   5.299  0.3102  0.1598 -0.1756
21181SOL    HW166945  10.976   5.992   5.294  0.1928 -0.0552 -0.9117
21181SOL    HW266946  10.883   6.097   5.237  0.0395  0.3316  0.0354
21182SOL     OW66947   8.745  10.240   6.196 -0.0205  0.3331 -0.3659
21182SOL    HW166948   8.761  10.331   6.169  0.3210  1.4901  3.1971
21182SOL    HW266949   8.650  10.234   6.204 -0.0665  0.2363 -0.9155
21183SOL     OW66950   8.469   6.766   8.417  0.1474  0.2232 -0.8332
21183SOL    HW166951   8.508   6.834   8.472 -0.3048  1.4644 -1.9966
21183SOL    HW266952   8.375   6.783   8.420 -0.0428 -0.8028 -0.5686
21184SOL     OW66953   8.651   7.241   6.005  0.3295 -0.2390 -0.5372
21184SOL    HW166954   8.623   7.187   5.931  1.0772  1.1152 -1.8613
21184SOL    HW266955   8.600   7.322   5.996  0.6499  0.0555  0.2433
21185SOL     OW66956   5.667  10.184   9.006  0.3339 -0.0714  0.2206
21185SOL    HW166957   5.581  10.185   9.047  0.4643 -1.4930  0.5846
21185SOL    HW266958   5.656  10.232   8.924 -1.4126 -2.1765 -0.8722
21186SOL     OW66959   4.134  10.705   2.356 -0.3327 -0.9171  0.3904
21186SOL    HW166960   4.132  10.781   2.413 -0.5816  0.9397 -1.9311
21186SOL    HW266961   4.116  10.631   2.413 -0.4170  0.7812  2.6903
21187SOL     OW66962   6.447   1.415  10.733  0.8377 -0.2262 -0.3139
21187SOL    HW166963   6.450   1.319  10.737  1.2174 -0.1966  0.1731
21187SOL    HW266964   6.525   1.444  10.780  1.8082  0.3098 -2.1550
21188SOL     OW66965   8.754   2.683   8.612 -0.1421  0.7207  0.2861
21188SOL    HW166966   8.660   2.671   8.621 -0.4914  2.6987 -0.2830
21188SOL    HW266967   8.764   2.755   8.549  1.7921 -0.4811 -0.8951
21189SOL     OW66968   3.772   5.411   8.119 -0.2375  0.3371  0.0417
21189SOL    HW166969   3.828   5.380   8.047 -1.0021 -1.5627  0.2121
21189SOL    HW266970   3.763   5.505   8.103  1.8768  0.4678 -0.7529
21190SOL     OW66971  10.837   1.967   8.932  0.1969  0.2272  0.0909
21190SOL    HW166972  10.900   2.030   8.896 -0.4559  1.2618  0.6898
21190SOL    HW266973  10.873   1.881   8.909  0.9531  0.8147 -1.0223
21191SOL     OW66974   3.650   4.246   7.190  0.6387 -0.4694 -0.7319
21191SOL    HW166975   3.715   4.296   7.238 -0.1781 -1.1331  1.1737
21191SOL    HW266976   3.685   4.157   7.189  0.0262 -0.7301 -0.1180
21192SOL     OW66977   3.296   5.377   0.216 -0.4894 -0.3470  0.0011
21192SOL    HW166978   3.382   5.389   0.255  0.4868  0.0347 -2.1193
21192SOL    HW266979   3.235   5.406   0.284  1.1467  1.4385  0.8092
21193SOL     OW66980   7.732   1.549   9.067 -0.5745  0.5876 -0.3943
21193SOL    HW166981   7.641   1.524   9.053  0.0553 -1.4445 -1.2842
21193SOL    HW266982   7.749   1.524   9.158 -0.3621 -1.0991 -0.8521
21194SOL     OW66983   2.744   4.459   0.277  0.4551  0.1246 -0.3744
21194SOL    HW166984   2.690   4.504   0.212  1.0429  0.8240 -0.3901
21194SOL    HW266985   2.743   4.516   0.354  0.4049 -0.3147 -0.0434
21195SOL     OW66986   4.032   6.191   3.407 -0.1944  0.1455 -0.2215
21195SOL    HW166987   4.019   6.134   3.483 -0.2520  0.8011  0.2670
21195SOL    HW266988   4.123   6.221   3.416  0.3238 -1.0138 -1.2771
21196SOL     OW66989   8.225   7.701   9.652  0.4516  0.8202  0.4510
21196SOL    HW166990   8.262   7.752   9.725 -0.1248  0.3046  1.1184
21196SOL    HW266991   8.230   7.760   9.577  1.3867  1.2434  0.8210
21197SOL     OW66992   2.548  10.403   7.864 -0.5649  0.2745  0.3799
21197SOL    HW166993   2.466  10.353   7.867 -0.5347  0.1158 -0.9550
21197SOL    HW266994   2.606  10.350   7.808 -0.0111  1.0433  0.2206
21198SOL     OW66995   1.902   3.771   0.039 -0.3403  0.1638 -0.7272
21198SOL    HW166996   1.992   3.737   0.039  0.3282  1.7946 -1.6902
21198SOL    HW266997   1.903   3.842  -0.026 -2.5480 -0.3151 -1.3688
21199SOL     OW66998   5.786   9.207   3.071 -0.3723  0.1684  0.4626
21199SOL    HW166999   5.785   9.296   3.035 -2.2894  0.7680  1.8448
21199SOL    HW267000   5.860   9.165   3.028 -1.5643  1.2744 -3.0141
21200SOL     OW67001   1.808   5.805   9.286  0.2443  0.2545  0.2235
21200SOL    HW167002   1.900   5.833   9.288  1.5155 -3.2608  2.9385
21200SOL    HW267003   1.783   5.810   9.194  2.4916  3.0668 -0.3754
21201SOL     OW67004  10.698   8.600   6.438 -0.0132 -0.3721  0.1708
21201SOL    HW167005  10.785   8.616   6.475 -0.6591 -2.9003  3.2338
21201SOL    HW267006  10.641   8.661   6.484 -0.1320  0.0059 -0.4709
21202SOL     OW67007   1.613   0.744   5.500  0.3463 -0.2806  0.2284
21202SOL    HW167008   1.693   0.776   5.458  0.6781 -1.0799  0.2397
21202SOL    HW267009   1.591   0.812   5.564  0.5878  0.3064 -0.2933
21203SOL     OW67010   8.609   4.498   4.031 -0.4446 -0.4786 -0.2847
21203SOL    HW167011   8.576   4.445   4.104 -1.3400  0.0515 -0.2982
21203SOL    HW267012   8.535   4.507   3.972  0.0087 -0.1090 -0.8080
21204SOL     OW67013   9.086  10.032   4.212  0.3598  0.0953  0.0786
21204SOL    HW167014   9.069   9.938   4.221  0.5120  0.1071  0.5154
21204SOL    HW267015   9.016  10.075   4.261  0.8059  0.1803  0.6514
21205SOL     OW67016   6.881  10.037  10.309 -0.0764  0.1809 -0.1521
21205SOL    HW167017   6.873  10.108  10.245 -0.8719 -1.5683 -2.1097
21205SOL    HW267018   6.791  10.009  10.325 -0.1889  2.1298  3.7607
21206SOL     OW67019   0.505   4.546   6.994 -0.4422 -0.1235 -0.0728
21206SOL    HW167020   0.517   4.630   6.950  0.8660 -0.0091  0.4558
21206SOL    HW267021   0.584   4.496   6.971  0.5506  0.1124  2.4859
21207SOL     OW67022   2.564   6.683   5.185 -0.1640 -0.2784  0.3377
21207SOL    HW167023   2.604   6.752   5.133  1.3140 -0.4729  1.1572
21207SOL    HW267024   2.486   6.657   5.136  0.0301  0.9906 -0.6789
21208SOL     OW67025   9.615   8.115   9.839  0.0941  0.0579  0.4242
21208SOL    HW167026   9.587   8.167   9.763 -2.1784 -1.5776  0.0246
21208SOL    HW267027   9.684   8.167   9.880 -0.4545  2.2447 -1.2391
21209SOL     OW67028   0.243   1.720   2.997 -0.0171 -0.5655  0.1459
21209SOL    HW167029   0.187   1.693   3.069  1.1361  0.7171  1.5764
21209SOL    HW267030   0.307   1.779   3.036  0.4489  0.4475 -1.9778
21210SOL     OW67031   2.941   2.768   2.660  0.3296  0.1156  0.3195
21210SOL    HW167032   3.029   2.742   2.635  0.3041 -0.8356  1.1789
21210SOL    HW267033   2.893   2.686   2.669 -0.6629  0.6244 -0.1666
21211SOL     OW67034   5.097   0.652   6.946 -0.3253  0.3898  0.0148
21211SOL    HW167035   5.068   0.735   6.984 -0.1654  0.0092  0.9978
21211SOL    HW267036   5.037   0.587   6.983  1.6912 -0.4245  2.1404
21212SOL     OW67037   9.587   0.817   2.778  0.0748  0.1900  0.3738
21212SOL    HW167038   9.591   0.849   2.688  2.9965 -0.0476  0.3358
21212SOL    HW267039   9.527   0.878   2.822 -0.6074  0.9284 -1.4508
21213SOL     OW67040   7.701   5.666   3.150 -0.2045  0.4573 -0.3672
21213SOL    HW167041   7.683   5.656   3.057  0.7636  2.0687 -0.7668
21213SOL    HW267042   7.796   5.676   3.155 -0.2177  0.0803  0.8297
21214SOL     OW67043   8.370   3.478   2.464  0.3024  0.7110 -0.3666
21214SOL    HW167044   8.465   3.489   2.469  0.4705 -0.8353  1.7654
21214SOL    HW267045   8.357   3.400   2.410  0.4525 -0.4001  1.1245
21215SOL     OW67046   6.557  10.401   4.784 -0.4001  0.0526  0.0851
21215SOL    HW167047   6.540  10.361   4.699  1.6223  0.3086 -0.4997
21215SOL    HW267048   6.644  10.441   4.775 -0.1393  0.1202  2.2679
21216SOL     OW67049   1.788   6.507   1.627 -0.6692 -0.1499 -0.0913
21216SOL    HW167050   1.874   6.549   1.620 -1.4682  1.2959 -2.8988
21216SOL    HW267051   1.730   6.577   1.656 -0.7782 -1.4692  3.2647
21217SOL     OW67052   2.464   9.642   0.795 -0.5219 -0.3244 -0.0697
21217SOL    HW167053   2.441   9.569   0.738  0.0765  0.6494 -1.6199
21217SOL    HW267054   2.560   9.638   0.802 -0.3851  0.8445 -0.9605
21218SOL     OW67055   4.644   9.637   8.719 -0.3013 -0.6412  0.0137
21218SOL    HW167056   4.598   9.682   8.648 -0.5584 -0.6305  0.1840
21218SOL    HW267057   4.584   9.642   8.793  0.8197  1.1613  0.8430
21219SOL     OW67058   2.555   6.628   7.172 -0.2985  0.5961 -0.0973
21219SOL    HW167059   2.621   6.580   7.221 -0.3716  1.5250  0.9455
21219SOL    HW267060   2.511   6.682   7.237 -4.1451 -2.0830 -0.0926
21220SOL     OW67061   1.780   4.347   3.831  0.1606  0.2568  0.3014
21220SOL    HW167062   1.810   4.390   3.911  0.6311  0.9904 -0.2623
21220SOL    HW267063   1.688   4.372   3.823  0.2794  0.6941  0.2856
21221SOL     OW67064   4.586   9.666   3.659 -0.3639 -0.6700 -0.0789
21221SOL    HW167065   4.553   9.707   3.739  0.6232 -0.0347  0.0073
21221SOL    HW267066   4.584   9.572   3.678  0.2011 -0.5078  0.8243
21222SOL     OW67067   3.210   8.780   3.875  0.2503 -0.4798  0.4048
21222SOL    HW167068   3.156   8.847   3.917  0.0590 -1.0993  1.1758
21222SOL    HW267069   3.288   8.774   3.930  0.7829 -0.1010 -0.2976
21223SOL     OW67070   6.527   4.016   7.435 -0.3472  0.1933 -0.2464
21223SOL    HW167071   6.574   4.057   7.362  1.4172 -0.3628  0.5495
21223SOL    HW267072   6.437   4.006   7.402 -0.0434  1.6959 -1.6323
21224SOL     OW67073   4.807   9.758   4.495  0.5391  0.6076 -0.4085
21224SOL    HW167074   4.750   9.760   4.572  0.4345  0.0634 -0.4712
21224SOL    HW267075   4.895   9.766   4.532  0.6459 -1.6345 -0.0425
21225SOL     OW67076   1.738  10.590   1.723  0.5384 -0.3205  0.5448
21225SOL    HW167077   1.761  10.648   1.795  0.3494  1.7820 -0.9927
21225SOL    HW267078   1.822  10.553   1.694  0.8038  0.0513  0.8327
21226SOL     OW67079   0.189   8.284  10.099 -0.1544  0.0431  0.0930
21226SOL    HW167080   0.161   8.360  10.150 -0.8930 -0.8435  1.0457
21226SOL    HW267081   0.246   8.321  10.031  1.7590  1.1811  2.1815
21227SOL     OW67082   1.586   3.276   8.854  0.2580 -0.0566 -0.0227
21227SOL    HW167083   1.531   3.202   8.830 -1.8281  1.5900 -0.5471
21227SOL    HW267084   1.539   3.353   8.823  1.9959  1.5748  1.1452
21228SOL     OW67085   6.796   6.794   8.554 -0.2012 -0.6883 -0.1882
21228SOL    HW167086   6.864   6.836   8.501  0.5399 -1.3848  0.1852
21228SOL    HW267087   6.716   6.840   8.531  0.4885  0.5553 -0.2093
21229SOL     OW67088   1.446   6.857   9.089 -0.2905  1.0221  0.3280
21229SOL    HW167089   1.387   6.847   9.163  0.2653  0.3266  0.6968
21229SOL    HW267090   1.482   6.769   9.076 -0.9008  0.9804 -1.2138
21230SOL     OW67091   3.342   1.957   1.903  0.4663  0.3431  0.2860
21230SOL    HW167092   3.271   2.005   1.861  0.8018 -0.2937 -1.0426
21230SOL    HW267093   3.419   1.974   1.848  0.8875 -0.6003  0.5601
21231SOL     OW67094   9.627   4.190   8.258  0.3398  0.2521  0.3495
21231SOL    HW167095   9.660   4.138   8.186 -1.6548  0.6958 -0.9668
21231SOL    HW267096   9.625   4.130   8.333 -0.9584 -1.3181 -0.8787
21232SOL     OW67097   1.084   1.986   4.664 -0.3362  0.1433  0.5847
21232SOL    HW167098   1.014   2.037   4.705 -0.6665 -0.8624  1.3188
21232SOL    HW267099   1.048   1.898   4.655 -0.5342  0.4272 -2.5409
21233SOL     OW67100  10.483   1.795   7.941  0.0423 -0.0592 -0.0342
21233SOL    HW167101  10.437   1.714   7.917  1.3499 -1.5498  2.0939
21233SOL    HW267102  10.512   1.780   8.031  2.3455  1.8664 -0.3576
21234SOL     OW67103   2.121   3.573   0.608 -0.1837  0.3063 -0.4970
21234SOL    HW167104   2.146   3.632   0.679 -4.2128  0.7439  0.8022
21234SOL    HW267105   2.089   3.631   0.538 -2.1106 -0.1856 -0.0817
21235SOL     OW67106   4.698   3.728   9.132 -0.5681 -0.0592  0.3886
21235SOL    HW167107   4.755   3.659   9.164  0.0681 -0.1159 -0.8170
21235SOL    HW267108   4.622   3.725   9.190 -0.1735 -1.2010  0.8749
21236SOL     OW67109   0.186   9.305   1.596 -0.9649 -0.1521  0.6462
21236SOL    HW167110   0.165   9.268   1.682 -2.4165 -0.4434  0.1805
21236SOL    HW267111   0.225   9.232   1.548 -2.2130 -0.6349  0.3224
21237SOL     OW67112   5.415  10.834   8.210 -0.3164  0.5046 -0.1774
21237SOL    HW167113   5.393  10.866   8.298 -1.5875 -0.0667 -0.2647
21237SOL    HW267114   5.450  10.746   8.225  0.0299  0.6332 -0.2089
21238SOL     OW67115   8.176   1.854   4.888 -0.5073 -0.2638  0.3258
21238SOL    HW167116   8.260   1.823   4.855  0.0537  0.8650  0.6512
21238SOL    HW267117   8.191   1.870   4.981 -1.0884 -0.0586  0.3906
21239SOL     OW67118   1.170   7.161   5.418  0.6463  0.4519 -0.8118
21239SOL    HW167119   1.075   7.170   5.408  0.5994 -0.6797 -1.6912
21239SOL    HW267120   1.183   7.149   5.512 -0.3059 -1.1750 -0.8375
21240SOL     OW67121  10.866   7.138   6.009  0.8107  0.0562 -0.1743
21240SOL    HW167122  10.906   7.089   6.081  0.7346 -0.0398 -0.1982
21240SOL    HW267123  10.940   7.181   5.965  0.6261  2.7505  1.8904
21241SOL     OW67124   5.392   7.452   1.769  0.1008  0.2485 -0.0503
21241SOL    HW167125   5.408   7.363   1.801 -1.5072 -0.3429 -0.8078
21241SOL    HW267126   5.407   7.448   1.675 -0.7811  0.5669 -0.2166
21242SOL     OW67127   2.162   8.799   2.731  0.0141 -0.5986  0.5968
21242SOL    HW167128   2.106   8.730   2.695  1.6839 -1.8353  0.1956
21242SOL    HW267129   2.153   8.790   2.826  0.6437 -1.7993  0.5644
21243SOL     OW67130   7.191   3.979   0.208 -0.3876 -0.2122 -0.1622
21243SOL    HW167131   7.200   3.966   0.302  0.6497 -0.9028 -0.3380
21243SOL    HW267132   7.255   4.046   0.186  3.1649 -3.5632 -1.0822
21244SOL     OW67133   1.066   7.506   7.595  0.2046 -0.4327 -0.1475
21244SOL    HW167134   1.131   7.553   7.543  0.1461 -0.8943 -0.6482
21244SOL    HW267135   0.983   7.520   7.549  0.1660 -0.9095 -0.2284
21245SOL     OW67136   2.738   4.568   7.645  0.1647 -0.0517  0.9603
21245SOL    HW167137   2.716   4.546   7.735  0.5428  2.2192  1.6443
21245SOL    HW267138   2.704   4.656   7.631  2.8881  0.9783 -0.0318
21246SOL     OW67139   2.155   3.567   5.678  0.2046  0.0675 -0.1343
21246SOL    HW167140   2.063   3.558   5.706  0.6911  2.7260  2.9896
21246SOL    HW267141   2.204   3.518   5.744  1.1374  0.0593 -0.8266
21247SOL     OW67142   5.204   9.977   9.113 -0.1861 -0.2977  0.5948
21247SOL    HW167143   5.124  10.029   9.118  1.4599  2.4027  1.0659
21247SOL    HW267144   5.206   9.945   9.023 -0.4930  1.9476 -0.2823
21248SOL     OW67145   1.452  10.798   0.072  0.1051 -0.0266  0.5215
21248SOL    HW167146   1.490  10.771  -0.012 -0.7346 -1.4822  0.5763
21248SOL    HW267147   1.525  10.837   0.120  0.8045  0.0093 -0.5380
21249SOL     OW67148   9.636   8.797   7.985  0.1962  0.0742  0.1153
21249SOL    HW167149   9.545   8.784   8.011  0.0910 -0.1195 -0.3395
21249SOL    HW267150   9.643   8.891   7.967  0.1897  0.1556  0.5303
21250SOL     OW67151   2.768  10.144  10.489 -0.0324 -0.5069 -0.3842
21250SOL    HW167152   2.858  10.178  10.482  0.7394 -2.0439  1.1482
21250SOL    HW267153   2.779  10.049  10.489 -1.6136 -0.7126  0.3883
21251SOL     OW67154   2.722   3.085  10.625 -0.1102  0.6164  0.5099
21251SOL    HW167155   2.728   3.019  10.694  0.0870  1.5333  1.3983
21251SOL    HW267156   2.651   3.144  10.654 -0.9498  0.2593 -0.7487
21252SOL     OW67157   0.577   0.015   5.776 -0.1278  0.1407  0.2691
21252SOL    HW167158   0.555   0.082   5.711  1.2467  0.2870 -0.0642
21252SOL    HW267159   0.536  -0.065   5.742  1.1272  0.0569 -1.1604
21253SOL     OW67160   8.653   3.573  10.736 -0.0649  0.8518 -0.2196
21253SOL    HW167161   8.657   3.575  10.831  1.8438  1.2988 -0.2770
21253SOL    HW267162   8.723   3.513  10.710  1.7108  3.2536 -1.3991
21254SOL     OW67163   3.396   8.768   6.139  1.0243  0.5633  0.8004
21254SOL    HW167164   3.376   8.704   6.207 -2.4221  0.3512 -0.1974
21254SOL    HW267165   3.411   8.715   6.060 -0.5005  0.8649  0.2693
21255SOL     OW67166   1.628   3.978   4.930  0.2883  0.3242 -0.3935
21255SOL    HW167167   1.537   3.949   4.934  0.2996  0.3176 -0.1675
21255SOL    HW267168   1.658   3.977   5.021  0.9542 -1.0407 -0.6106
21256SOL     OW67169   0.578   4.185   4.468 -0.0465 -0.2576 -0.3192
21256SOL    HW167170   0.654   4.146   4.425  0.4303 -0.2343  0.4872
21256SOL    HW267171   0.589   4.163   4.560 -0.2543  0.9887  0.0180
21257SOL     OW67172   0.908   3.859   0.174  0.0950 -0.8000 -0.4771
21257SOL    HW167173   0.827   3.819   0.205  0.5152  1.1788  3.8816
21257SOL    HW267174   0.881   3.945   0.142  0.2811 -0.8280 -0.7114
21258SOL     OW67175   2.956   7.166  10.567  0.0923 -0.6942  0.0130
21258SOL    HW167176   2.877   7.196  10.521  1.0709 -0.4612 -1.5993
21258SOL    HW267177   3.007   7.246  10.580  0.0436 -0.8304  1.1351
21259SOL     OW67178   2.541   8.094   5.055 -0.2213  0.7050  0.5192
21259SOL    HW167179   2.607   8.047   5.106 -1.6413 -2.0108  0.0264
21259SOL    HW267180   2.578   8.182   5.043  3.0874 -0.5250  0.6410
21260SOL     OW67181   3.026  10.771   1.492  0.3707 -0.3315  0.1544
21260SOL    HW167182   2.970  10.818   1.430  1.6094  0.8146 -0.1428
21260SOL    HW267183   2.977  10.774   1.575  0.1305  0.9451 -0.0083
21261SOL     OW67184   2.906   1.063   4.278 -0.1923  0.3701 -0.6464
21261SOL    HW167185   2.877   0.992   4.220 -1.0090  2.0199 -2.4011
21261SOL    HW267186   2.933   1.133   4.218  0.9010  1.4280  1.0049
21262SOL     OW67187   1.017   5.511   5.353 -0.2138  0.3177  0.3372
21262SOL    HW167188   0.934   5.558   5.343 -0.8500 -0.6907  0.6777
21262SOL    HW267189   1.084   5.579   5.347 -0.9964  1.0144 -0.9949
21263SOL     OW67190   5.697   8.585   4.302 -0.2838  0.4578 -0.5067
21263SOL    HW167191   5.750   8.656   4.265  0.3040  0.5900  0.5645
21263SOL    HW267192   5.717   8.585   4.395 -0.7405 -0.7322 -0.3857
21264SOL     OW67193   7.089   4.779   2.667  0.7030  0.2212 -0.0470
21264SOL    HW167194   7.125   4.709   2.721 -1.8859 -1.5523 -0.4845
21264SOL    HW267195   7.030   4.827   2.725 -0.6458 -0.5367 -0.7366
21265SOL     OW67196   9.969  10.601   5.322  0.1442  0.0661  0.0651
21265SOL    HW167197   9.920  10.520   5.304 -0.9520  0.2991  1.7221
21265SOL    HW267198   9.975  10.645   5.238  0.3429 -1.5191 -0.7764
21266SOL     OW67199   7.562   1.177   4.345  0.0937 -0.3720  0.3287
21266SOL    HW167200   7.541   1.106   4.406 -1.3609  0.9152  1.4225
21266SOL    HW267201   7.631   1.227   4.388  2.4026 -2.0187 -1.2279
21267SOL     OW67202   0.058   2.405   1.680  0.0388  0.1140 -0.1968
21267SOL    HW167203   0.153   2.393   1.681 -0.1599 -1.7330  0.6355
21267SOL    HW267204   0.027   2.339   1.617 -0.6680  1.1863 -1.0139
21268SOL     OW67205   4.337   0.782   9.154 -0.0960  0.4200  0.3489
21268SOL    HW167206   4.285   0.703   9.166 -1.2607  0.6700 -2.4150
21268SOL    HW267207   4.285   0.852   9.193  0.9694 -0.0647  2.8653
21269SOL     OW67208   7.082  10.564   9.997  0.5496  0.0361 -0.1054
21269SOL    HW167209   7.034  10.604  10.069  0.8864 -0.7026  0.5438
21269SOL    HW267210   7.084  10.631   9.929 -0.9660  0.2608  0.0396
21270SOL     OW67211   4.039  10.742   7.538 -0.0587 -0.2026 -0.0546
21270SOL    HW167212   3.945  10.726   7.528 -0.2729  1.3029 -0.6615
21270SOL    HW267213   4.049  10.773   7.627  0.0073 -1.1890  0.2972
21271SOL     OW67214   9.793   7.785   8.553 -0.1236 -0.0933  0.1172
21271SOL    HW167215   9.865   7.829   8.598 -0.0845  1.7818 -1.6588
21271SOL    HW267216   9.714   7.818   8.597  0.0073 -0.9741  1.0551
21272SOL     OW67217   2.830   8.131   1.336  0.4747  0.1435 -0.5272
21272SOL    HW167218   2.877   8.172   1.264  2.6578 -2.0651 -0.4777
21272SOL    HW267219   2.874   8.047   1.349 -1.9242 -0.9595  1.2493
21273SOL     OW67220   7.043   9.382   3.816  0.0805 -0.3671 -0.2482
21273SOL    HW167221   7.068   9.416   3.729 -0.2954 -1.4337 -0.7918
21273SOL    HW267222   6.980   9.313   3.797 -0.0723 -0.5572  0.8982
21274SOL     OW67223   5.678   3.397   6.242  0.3168  0.4133 -0.0790
21274SOL    HW167224   5.614   3.405   6.171 -1.3298 -0.4603  1.2273
21274SOL    HW267225   5.627   3.406   6.322  1.7778 -0.6469  1.0371
21275SOL     OW67226   7.336   3.067   2.493 -0.3988  0.3521 -0.2199
21275SOL    HW167227   7.370   3.016   2.419 -2.1295  0.7529 -1.3533
21275SOL    HW267228   7.337   3.157   2.462 -0.0468  0.6667  0.7006
21276SOL     OW67229   9.515   8.724   8.751 -0.0805  0.2401  0.5574
21276SOL    HW167230   9.488   8.696   8.664 -0.7060 -1.2213  1.1941
21276SOL    HW267231   9.562   8.649   8.788 -1.5611  0.0606  2.2253
21277SOL     OW67232   5.249  10.099  10.685  0.3131  0.0576  0.3598
21277SOL    HW167233   5.269  10.040  10.612 -1.6828 -1.1340  0.7015
21277SOL    HW267234   5.330  10.149  10.698  1.3680 -1.0904 -1.3584
21278SOL     OW67235   2.677   0.350   4.650 -0.0322 -0.1685 -0.2672
21278SOL    HW167236   2.672   0.374   4.742 -2.5184 -0.5185 -0.2373
21278SOL    HW267237   2.619   0.275   4.642 -0.3545  0.2328 -2.2195
21279SOL     OW67238   7.738   6.359   3.497  0.1463  0.1085 -0.4316
21279SOL    HW167239   7.814   6.308   3.470 -0.3628 -1.4395  0.9379
21279SOL    HW267240   7.678   6.353   3.423 -0.3010 -2.1569  0.0405
21280SOL     OW67241   9.166   3.515   0.405 -0.3569 -0.8375 -0.3609
21280SOL    HW167242   9.178   3.430   0.361 -2.5738 -0.7727 -1.2125
21280SOL    HW267243   9.098   3.559   0.355 -0.3342  0.8396  0.9775
21281SOL     OW67244   3.163  10.346   0.707  0.1182 -0.4352 -0.3128
21281SOL    HW167245   3.194  10.436   0.701  0.8363 -0.4350  2.2207
21281SOL    HW267246   3.168  10.325   0.800 -2.6190 -2.1979 -0.4435
21282SOL     OW67247   9.829   7.011   2.679 -0.4635  0.0205 -0.0480
21282SOL    HW167248   9.861   6.948   2.743  0.8992  1.5662  0.8588
21282SOL    HW267249   9.876   6.990   2.598  1.4297  0.9868  0.7386
21283SOL     OW67250   1.268   1.820   6.695  0.2464  0.0093 -0.4021
21283SOL    HW167251   1.174   1.808   6.683  0.2173 -0.0130 -0.1412
21283SOL    HW267252   1.304   1.731   6.695  0.3310  0.0337 -1.0066
21284SOL     OW67253   7.642   7.748   0.963  0.1829  0.3208  0.3898
21284SOL    HW167254   7.715   7.730   0.904  0.1127  1.2861 -0.0164
21284SOL    HW267255   7.684   7.772   1.046  0.5899  4.6006 -0.8211
21285SOL     OW67256   9.758  10.846   9.851 -0.3098  0.1493 -0.2055
21285SOL    HW167257   9.756  10.941   9.866 -0.4176 -0.0117  0.8719
21285SOL    HW267258   9.667  10.819   9.851 -0.2390 -0.3903  2.6805
21286SOL     OW67259   3.420   2.417  10.531  0.2243  0.3941  0.6225
21286SOL    HW167260   3.394   2.508  10.516  0.3930  0.1662 -1.2556
21286SOL    HW267261   3.382   2.368  10.459  2.1040 -0.6410  0.2554
21287SOL     OW67262   5.000   0.507   6.711  0.5126  0.0418 -0.0777
21287SOL    HW167263   5.089   0.490   6.741  0.3670  0.1552  0.4371
21287SOL    HW267264   4.950   0.524   6.791 -0.3935 -1.9078 -0.1564
21288SOL     OW67265   2.268   5.967   8.486  0.1408 -0.1335  0.5679
21288SOL    HW167266   2.307   5.915   8.416  0.1770  0.1086  0.4086
21288SOL    HW267267   2.316   5.940   8.565 -0.5900 -1.1638  0.6879
21289SOL     OW67268   5.421  10.489   0.340 -0.0678  0.1864 -0.2585
21289SOL    HW167269   5.346  10.452   0.294 -1.0223  0.6509  0.8592
21289SOL    HW267270   5.482  10.514   0.271 -1.0862  0.0902 -1.2184
21290SOL     OW67271   5.234   9.548   8.910  0.3065 -0.5948  0.5035
21290SOL    HW167272   5.165   9.608   8.937  0.8956  0.6508 -0.6715
21290SOL    HW267273   5.241   9.485   8.983 -0.0452  0.9917  1.9658
21291SOL     OW67274   3.330   9.591   9.379 -0.3085  0.3160 -0.2813
21291SOL    HW167275   3.278   9.574   9.301  1.1337 -2.3213 -0.7913
21291SOL    HW267276   3.349   9.504   9.414  1.8646  1.2763  1.1237
21292SOL     OW67277   0.850   8.187   6.860  0.4529 -0.3871  0.0781
21292SOL    HW167278   0.814   8.197   6.772 -0.2228 -0.6769  0.3164
21292SOL    HW267279   0.835   8.095   6.882  2.0193 -0.7210 -0.1075
21293SOL     OW67280   6.305   4.596   7.931  0.1061 -0.1550 -0.3657
21293SOL    HW167281   6.309   4.509   7.970 -0.1105  0.0104  0.0247
21293SOL    HW267282   6.220   4.631   7.957  0.4525  0.4215  0.0134
21294SOL     OW67283   1.144   1.586   6.379  0.0700 -0.1745 -0.8189
21294SOL    HW167284   1.100   1.504   6.399 -1.0368  0.8884  1.3924
21294SOL    HW267285   1.232   1.576   6.417  0.2040 -0.5905 -1.2264
21295SOL     OW67286   0.932   1.335   8.937 -0.2241 -0.5183 -0.2166
21295SOL    HW167287   0.894   1.340   9.025  0.2473  1.4280 -0.0729
21295SOL    HW267288   0.984   1.415   8.930 -0.0718 -0.7655 -2.1855
21296SOL     OW67289   0.169   8.919   0.456  0.1539 -0.2279 -0.6215
21296SOL    HW167290   0.229   8.886   0.390  0.5677 -2.0101  0.5836
21296SOL    HW267291   0.221   8.978   0.509 -0.0509  0.8086 -1.5296
21297SOL     OW67292   1.720   8.158   2.229  0.2262 -0.2519  0.0611
21297SOL    HW167293   1.741   8.105   2.152  2.0509 -0.1636  0.4544
21297SOL    HW267294   1.650   8.216   2.199  0.9521 -0.1490 -1.5634
21298SOL     OW67295   4.981   2.428  10.844  0.1663  0.2949 -0.2574
21298SOL    HW167296   5.008   2.356  10.786 -2.2081 -0.4278 -0.5609
21298SOL    HW267297   4.945   2.385  10.921  2.9713  1.2537  1.7380
21299SOL     OW67298  10.427   8.316   4.527  0.3790 -0.4462 -0.1926
21299SOL    HW167299  10.473   8.260   4.465 -1.1249 -0.4661 -1.3428
21299SOL    HW267300  10.440   8.273   4.612 -0.2889 -2.2746 -0.9628
21300SOL     OW67301   1.591  10.453   5.973 -0.3715  0.1623  0.0772
21300SOL    HW167302   1.509  10.417   6.006  0.2698 -0.5314  0.9619
21300SOL    HW267303   1.642  10.377   5.948  0.0216  0.5900 -0.4528
21301SOL     OW67304   3.758  10.758   7.797  0.7108  0.2035  0.2931
21301SOL    HW167305   3.667  10.729   7.806  0.4096  0.8858 -0.4370
21301SOL    HW267306   3.773  10.765   7.703  0.3652  3.4657  0.3568
21302SOL     OW67307   6.853  10.761  10.736 -0.1309 -0.2764  0.4063
21302SOL    HW167308   6.765  10.778  10.768  0.1645 -0.5121  1.4006
21302SOL    HW267309   6.870  10.831  10.673 -0.5559  0.5180  1.1558
21303SOL     OW67310   8.676   7.947   9.797 -0.1818 -0.2158 -0.2316
21303SOL    HW167311   8.698   7.898   9.718 -1.7852 -0.3999 -0.6143
21303SOL    HW267312   8.650   8.034   9.765 -0.1038 -0.0395  0.1719
21304SOL     OW67313   7.948   6.177  10.086 -0.4538  0.3737 -0.0955
21304SOL    HW167314   7.887   6.103  10.086  0.9741 -0.8781 -1.2600
21304SOL    HW267315   7.998   6.167  10.168 -1.6782  1.3394  0.8061
21305SOL     OW67316  10.097   6.852   2.916 -0.2446  0.9639 -0.1689
21305SOL    HW167317  10.125   6.908   2.844  0.5420  0.5727 -0.1754
21305SOL    HW267318  10.157   6.872   2.988  0.6327 -0.4829 -0.4509
21306SOL     OW67319  10.004  10.764   9.894 -0.4117 -0.0522 -0.1297
21306SOL    HW167320   9.919  10.789   9.858  0.1371 -0.2453 -1.6541
21306SOL    HW267321  10.027  10.836   9.953 -0.8630  0.8827 -1.0456
21307SOL     OW67322   6.162   5.662  10.295  0.5076 -0.0489 -0.0296
21307SOL    HW167323   6.102   5.724  10.337  1.4642 -0.0719  1.4140
21307SOL    HW267324   6.143   5.672  10.201 -1.2637  0.4255  0.3348
21308SOL     OW67325   8.012   5.451   1.301  0.1865  0.5436 -0.0765
21308SOL    HW167326   7.962   5.487   1.374  1.8842  3.1729 -0.0861
21308SOL    HW267327   8.029   5.360   1.326 -2.3666  0.3060  1.0553
21309SOL     OW67328   4.124   4.096   6.708  0.0698 -0.4906  0.6091
21309SOL    HW167329   4.172   4.020   6.742 -0.6444  0.5836  4.5751
21309SOL    HW267330   4.189   4.166   6.705  0.0716 -0.5161 -0.1398
21310SOL     OW67331   1.611   7.502   3.007  0.4953  0.4126 -0.2153
21310SOL    HW167332   1.544   7.468   3.067  1.3043  0.7921  0.9438
21310SOL    HW267333   1.622   7.433   2.942  0.4966 -0.5811  0.8018
21311SOL     OW67334   3.966   9.990   6.234 -0.1216  0.1454  0.4896
21311SOL    HW167335   3.974   9.973   6.328 -0.7477  1.6529  0.8338
21311SOL    HW267336   4.043  10.042   6.213  0.7830 -1.3993 -0.1604
21312SOL     OW67337   3.056   9.870   5.699  0.1362  0.4429  0.3788
21312SOL    HW167338   3.147   9.861   5.669 -0.0820  2.0496 -0.9433
21312SOL    HW267339   3.046   9.964   5.717 -1.3501  0.3597  0.1205
21313SOL     OW67340  10.169   8.596   6.045 -0.7889  0.0337  0.3472
21313SOL    HW167341  10.194   8.516   6.093  0.5924  0.0312 -0.3295
21313SOL    HW267342  10.074   8.590   6.037 -0.7936 -1.1539  0.9941
21314SOL     OW67343   2.000   1.279   3.528 -0.5958  0.4816 -0.2255
21314SOL    HW167344   2.047   1.199   3.507 -1.0752  0.0689  0.2326
21314SOL    HW267345   1.931   1.251   3.589 -1.2972  1.0931 -0.7122
21315SOL     OW67346   7.603  10.074   2.655 -0.0399 -0.7458 -0.4854
21315SOL    HW167347   7.697  10.066   2.671  0.3184  0.9718 -1.4541
21315SOL    HW267348   7.594  10.069   2.560 -0.9685 -1.1191 -0.3947
21316SOL     OW67349   0.197   2.092   3.952 -0.3066  0.4587  0.4767
21316SOL    HW167350   0.255   2.020   3.927  2.0572  2.3022  0.2866
21316SOL    HW267351   0.176   2.075   4.044 -0.7262 -1.0178  0.1365
21317SOL     OW67352   2.315   0.909   6.695  0.5308 -0.0486 -0.4677
21317SOL    HW167353   2.241   0.900   6.636 -0.1522 -1.9506  0.6004
21317SOL    HW267354   2.316   1.002   6.719 -3.1025 -0.3363  1.4349
21318SOL     OW67355   6.252   3.872   0.029 -0.2817 -0.0991  0.2972
21318SOL    HW167356   6.285   3.955  -0.007  2.0654 -0.5243  1.2548
21318SOL    HW267357   6.202   3.833  -0.042  0.7436  0.9749 -1.0727
21319SOL     OW67358   8.365   3.501   3.792  0.0204 -0.4800  0.2888
21319SOL    HW167359   8.356   3.429   3.731  1.1763 -0.0705 -0.4169
21319SOL    HW267360   8.451   3.540   3.770 -1.1642  1.9984 -0.3570
21320SOL     OW67361   0.841   7.869   6.497  0.1685  0.3485  0.7360
21320SOL    HW167362   0.929   7.843   6.472 -0.0976 -0.2445  0.4177
21320SOL    HW267363   0.843   7.965   6.496  0.4599  0.3377 -0.4960
21321SOL     OW67364   0.487   4.818   7.281 -0.1692  0.2353 -0.2804
21321SOL    HW167365   0.440   4.888   7.237 -1.5951  0.2684  1.1898
21321SOL    HW267366   0.430   4.742   7.275  0.0806 -0.0330  0.5810
21322SOL     OW67367   0.221   9.729   4.086  0.3448 -0.6267  0.0885
21322SOL    HW167368   0.285   9.702   4.021  0.4727  1.7623 -0.8682
21322SOL    HW267369   0.143   9.751   4.036 -0.3190 -0.8769  0.9733
21323SOL     OW67370   2.921   0.705   1.007 -0.0654 -0.2353  0.3042
21323SOL    HW167371   2.866   0.782   0.991 -0.6623 -0.8472 -0.6522
21323SOL    HW267372   3.007   0.741   1.031 -0.4469  0.7209  0.2672
21324SOL     OW67373   5.964   2.560   7.829  0.1984  0.2255 -0.0615
21324SOL    HW167374   5.948   2.559   7.734  0.3659 -0.5113 -0.0875
21324SOL    HW267375   5.897   2.501   7.865  0.9841 -0.5745  0.1312
21325SOL     OW67376   5.555   6.215   5.771  0.3339  0.0370  0.0681
21325SOL    HW167377   5.599   6.209   5.856 -0.0033 -0.5414  0.2039
21325SOL    HW267378   5.544   6.124   5.744 -0.9945  0.1651  0.1479
21326SOL     OW67379   0.850   8.865   5.379 -0.1326 -0.1378  0.3112
21326SOL    HW167380   0.851   8.811   5.300 -0.1624 -0.0627  0.2598
21326SOL    HW267381   0.938   8.903   5.384 -0.9294  2.0993 -1.2265
21327SOL     OW67382  10.146   0.032   1.727  0.6243  0.3593 -0.2123
21327SOL    HW167383  10.209   0.045   1.797  0.2821 -0.0906  0.1848
21327SOL    HW267384  10.178  -0.045   1.680  0.5909  0.3709 -0.2531
21328SOL     OW67385   2.872   8.928   3.873  0.1446  0.1595  0.1460
21328SOL    HW167386   2.910   8.914   3.960  1.0391 -0.8441 -0.3793
21328SOL    HW267387   2.816   9.005   3.883 -0.2797 -0.3276  1.7598
21329SOL     OW67388  10.619   4.103   6.183  0.2729 -0.2311 -0.4708
21329SOL    HW167389  10.637   4.158   6.107  0.0622 -0.7119 -0.8751
21329SOL    HW267390  10.550   4.149   6.230  0.8774  0.4173 -0.1947
21330SOL     OW67391   7.917   1.206   3.557 -0.6269  0.5382  0.6403
21330SOL    HW167392   7.869   1.169   3.631 -0.4034  3.2365  2.2523
21330SOL    HW267393   8.005   1.169   3.564 -1.2995 -1.2498  0.1003
21331SOL     OW67394   7.808   9.804   2.503 -0.3894  0.1125  0.2277
21331SOL    HW167395   7.851   9.824   2.420 -0.8336  1.5679  0.3192
21331SOL    HW267396   7.820   9.883   2.556 -1.5364 -0.1646  0.9391
21332SOL     OW67397   7.929   9.348   1.639 -0.0816  0.3155  0.0428
21332SOL    HW167398   7.840   9.341   1.671  0.0455  0.2126  0.3758
21332SOL    HW267399   7.983   9.304   1.705  0.2637  0.7740  0.0790
21333SOL     OW67400   6.972   7.341   4.218  0.2226  0.1135  0.5218
21333SOL    HW167401   6.975   7.246   4.203  0.4795 -0.0786  1.6928
21333SOL    HW267402   7.010   7.379   4.139  0.1406 -0.7612  0.0469
21334SOL     OW67403   8.885   5.260   4.406 -0.3585  0.0711  0.1188
21334SOL    HW167404   8.933   5.179   4.425 -0.0211  0.0399 -0.7926
21334SOL    HW267405   8.793   5.234   4.405 -0.2523 -0.3048 -0.1439
21335SOL     OW67406   3.642   7.105   6.006 -0.3152 -0.1833  0.3545
21335SOL    HW167407   3.636   7.049   5.929 -0.2764  1.0073 -0.5341
21335SOL    HW267408   3.572   7.169   5.996  1.9630  2.3448 -0.6940
21336SOL     OW67409   0.298   7.721   4.197 -0.3226 -0.1179 -0.7222
21336SOL    HW167410   0.206   7.737   4.174 -0.3371  1.6298  0.3582
21336SOL    HW267411   0.348   7.767   4.130 -0.1951 -1.3162 -1.4799
21337SOL     OW67412   7.762   3.725   3.662 -0.3531  0.5934 -0.1441
21337SOL    HW167413   7.845   3.682   3.643  1.5501  4.2218 -0.9622
21337SOL    HW267414   7.709   3.713   3.584 -0.1662 -0.7774 -0.0728
21338SOL     OW67415   0.655   3.098  10.187 -0.0217  0.2471  0.5348
21338SOL    HW167416   0.722   3.113  10.120  0.4848  0.9838  1.1916
21338SOL    HW267417   0.638   3.184  10.224 -0.7959 -0.0475  0.8930
21339SOL     OW67418   2.962   7.461   9.625  0.0393  0.3828 -0.3980
21339SOL    HW167419   2.933   7.376   9.591  0.3852  0.4671 -0.9233
21339SOL    HW267420   3.045   7.478   9.580  0.0964  0.8856 -0.1152
21340SOL     OW67421   6.658   1.222   1.419  0.3269  0.1156  0.1491
21340SOL    HW167422   6.568   1.189   1.412  0.6688 -0.8304  0.1606
21340SOL    HW267423   6.650   1.316   1.401 -0.5563 -0.0995 -0.6752
21341SOL     OW67424   3.141   6.854   2.523 -0.3585  0.1538 -0.0903
21341SOL    HW167425   3.094   6.790   2.577  1.2350 -1.2399 -0.2783
21341SOL    HW267426   3.097   6.937   2.540 -1.0645 -0.5817  1.9360
21342SOL     OW67427   8.904   0.335   3.616  0.1172 -0.3133  0.0057
21342SOL    HW167428   8.848   0.329   3.539 -0.0422 -2.4256  0.2214
21342SOL    HW267429   8.922   0.244   3.640  0.6296  0.2794  2.1261
21343SOL     OW67430   9.280  10.669   2.067 -0.0767  0.0962  0.0957
21343SOL    HW167431   9.281  10.715   1.983  1.9139  1.4449  0.7830
21343SOL    HW267432   9.201  10.701   2.111 -0.9654 -0.3873 -1.1070
21344SOL     OW67433   4.841   2.270   0.093 -0.0513 -0.1156 -0.5509
21344SOL    HW167434   4.893   2.190   0.095  0.1013 -0.0077 -0.2476
21344SOL    HW267435   4.777   2.260   0.163 -0.4353 -0.2424 -0.9123
21345SOL     OW67436   2.324   9.227   9.625 -0.3835 -1.0428  0.2089
21345SOL    HW167437   2.321   9.294   9.557  0.3021 -1.2015  0.0184
21345SOL    HW267438   2.390   9.258   9.686  0.1853 -1.7125 -0.0572
21346SOL     OW67439   4.167   6.411   1.765  0.1480 -0.0636  0.3013
21346SOL    HW167440   4.252   6.449   1.748  0.1826  0.0992  0.8273
21346SOL    HW267441   4.104   6.476   1.735  0.2094  0.0898  0.5033
21347SOL     OW67442   8.859   7.137   7.897  0.2645 -0.1184 -0.0989
21347SOL    HW167443   8.809   7.094   7.828  0.8489 -0.6108 -0.2270
21347SOL    HW267444   8.881   7.223   7.861  0.3303 -0.2663 -0.4112
21348SOL     OW67445   8.581   5.184   8.323  0.1531  0.0618  0.3567
21348SOL    HW167446   8.577   5.217   8.413 -0.9508  1.1523 -0.0633
21348SOL    HW267447   8.575   5.263   8.269  0.1400 -0.6388 -0.6794
21349SOL     OW67448   5.999   7.956   3.571  0.1676  0.7384  0.0168
21349SOL    HW167449   5.970   8.022   3.634 -0.3064 -0.5244  1.1861
21349SOL    HW267450   6.089   7.936   3.598 -0.3953 -0.5833  1.0322
21350SOL     OW67451   3.100   2.047   8.516 -0.2425  0.7940  0.2666
21350SOL    HW167452   3.048   1.971   8.541  0.3478  0.6171  0.9644
21350SOL    HW267453   3.065   2.119   8.569  1.4560  0.2804  2.2110
21351SOL     OW67454   0.049   8.595   3.913  0.5084 -0.1417  0.2136
21351SOL    HW167455   0.042   8.517   3.858 -0.7775  0.7780 -0.9879
21351SOL    HW267456  -0.039   8.631   3.916  0.9391  0.8952  1.3136
21352SOL     OW67457   0.574   4.429   6.718  0.4282  0.3681 -0.5362
21352SOL    HW167458   0.484   4.411   6.746  0.6720  0.0372  0.0469
21352SOL    HW267459   0.567   4.442   6.624 -0.5612  2.4744 -0.2261
21353SOL     OW67460   1.665   2.011   0.999 -0.4397 -0.2916 -0.4662
21353SOL    HW167461   1.590   1.952   1.013  0.4765 -1.4750 -0.3882
21353SOL    HW267462   1.706   1.979   0.918  1.8132 -1.7646  1.1140
21354SOL     OW67463   5.059   4.216  10.033 -0.5333  0.1098 -0.1884
21354SOL    HW167464   5.101   4.178   9.956  0.7052  1.1289 -0.0392
21354SOL    HW267465   5.058   4.310  10.016 -0.8485  0.2892  0.7649
21355SOL     OW67466   1.187   7.975   5.211  0.3879  0.1294 -0.1700
21355SOL    HW167467   1.115   7.915   5.192 -0.3837  1.1565 -0.6196
21355SOL    HW267468   1.159   8.022   5.290  0.6046  0.4583 -0.2836
21356SOL     OW67469   3.894   1.955   2.923  0.3110  0.0684  0.0938
21356SOL    HW167470   3.926   1.868   2.945  1.4362  0.8472  1.7744
21356SOL    HW267471   3.922   2.010   2.996 -0.8565  1.7425 -0.6426
21357SOL     OW67472   5.835   5.367   1.793  0.5017 -0.3931 -0.4883
21357SOL    HW167473   5.812   5.459   1.780  0.7370 -0.2599  0.0046
21357SOL    HW267474   5.808   5.348   1.883  1.1354 -0.5987 -0.3406
21358SOL     OW67475   1.682   0.550   7.966  0.2605 -0.2876 -0.6063
21358SOL    HW167476   1.745   0.520   8.031  0.7534 -1.1026 -1.4452
21358SOL    HW267477   1.719   0.523   7.882 -0.2818  0.8977 -1.2475
21359SOL     OW67478   0.636   0.359  10.318 -0.4009  0.1486  0.7559
21359SOL    HW167479   0.654   0.429  10.255 -1.6331 -0.6160 -0.5107
21359SOL    HW267480   0.705   0.368  10.383  2.3952 -0.4259 -1.8885
21360SOL     OW67481   3.839   7.959  10.595 -0.3939  0.0886  0.1734
21360SOL    HW167482   3.878   7.918  10.672  2.9543 -0.3690 -1.5546
21360SOL    HW267483   3.855   8.052  10.606  2.0696 -0.1209 -0.7574
21361SOL     OW67484   9.371   4.893   1.605  0.1329 -0.0780  0.8129
21361SOL    HW167485   9.390   4.889   1.699  3.2107  0.3617  0.3308
21361SOL    HW267486   9.361   4.986   1.586  1.8006  0.0563  0.4081
21362SOL     OW67487   5.542   1.231   0.131  0.0116 -0.1542  0.5003
21362SOL    HW167488   5.604   1.177   0.180 -2.0720 -2.5424  0.6989
21362SOL    HW267489   5.544   1.195   0.042 -0.1026  0.6905  0.1434
21363SOL     OW67490   9.949   0.552   5.314  0.3757 -0.6277 -0.6590
21363SOL    HW167491   9.952   0.501   5.395 -0.4653  1.2249  0.6154
21363SOL    HW267492   9.856   0.553   5.291  0.2271  1.0247 -0.1327
21364SOL     OW67493   6.720   6.488   1.712  0.1568  0.5760 -0.0426
21364SOL    HW167494   6.782   6.415   1.709 -0.3056  0.1540  0.4677
21364SOL    HW267495   6.688   6.488   1.803 -2.2236 -0.5768 -0.8084
21365SOL     OW67496   8.887   5.986   1.005  0.1913 -0.3442 -0.3780
21365SOL    HW167497   8.927   5.919   0.950  1.0777  0.2715 -0.5034
21365SOL    HW267498   8.863   5.940   1.085  0.9242 -0.7819 -0.4024
21366SOL     OW67499   5.007   2.291  10.524  0.0243 -0.1898  0.3881
21366SOL    HW167500   5.037   2.208  10.486 -0.1569 -0.5339  0.9894
21366SOL    HW267501   4.932   2.267  10.577  0.1422  0.3237  0.7883
21367SOL     OW67502   9.040   4.698   7.348  0.3350  0.3625 -0.3042
21367SOL    HW167503   9.008   4.614   7.317 -1.0326  0.3758  0.9423
21367SOL    HW267504   9.060   4.747   7.268 -0.6946 -0.4557 -1.0888
21368SOL     OW67505   1.773  10.694   0.189  0.3266 -0.3590 -0.5717
21368SOL    HW167506   1.739  10.631   0.253  0.4308 -0.6047 -0.7553
21368SOL    HW267507   1.864  10.668   0.175  0.1142 -0.7315 -1.3298
21369SOL     OW67508  10.621   9.749   8.162 -0.0414 -0.0635  0.0852
21369SOL    HW167509  10.622   9.714   8.073  0.3064 -0.9823  0.4352
21369SOL    HW267510  10.530   9.774   8.177 -0.9186 -3.0962  0.6324
21370SOL     OW67511   9.648   6.783   7.634 -0.2110  0.0016 -0.0191
21370SOL    HW167512   9.702   6.802   7.711 -1.0157 -0.4676  0.6759
21370SOL    HW267513   9.669   6.854   7.572 -0.6577  1.2465  1.2067
21371SOL     OW67514   5.819   9.933   4.214  0.2784 -0.0153 -0.6095
21371SOL    HW167515   5.902   9.916   4.170  0.9576 -1.6062  1.1837
21371SOL    HW267516   5.843   9.982   4.293 -0.5662  0.0635 -0.3945
21372SOL     OW67517   9.494   2.095   7.716 -0.1017 -0.5101 -0.6093
21372SOL    HW167518   9.449   2.115   7.798  0.4889 -2.0932  0.1392
21372SOL    HW267519   9.536   2.177   7.691 -0.0705 -0.0692  0.8245
21373SOL     OW67520   8.436   5.819   1.001 -0.5315  0.7916 -0.3666
21373SOL    HW167521   8.448   5.724   1.005 -1.8678  0.6102 -0.2040
21373SOL    HW267522   8.371   5.838   1.068 -0.4419  1.7986 -0.5492
21374SOL     OW67523   9.160   9.762   4.232  0.2927  0.5592  0.0486
21374SOL    HW167524   9.179   9.815   4.310  1.5156  0.7979 -0.3905
21374SOL    HW267525   9.111   9.687   4.266  0.8328  0.6470  1.0629
21375SOL     OW67526   9.034   8.811   3.239 -0.6793  0.2651 -0.0217
21375SOL    HW167527   8.960   8.850   3.193 -1.4176 -0.7285  0.2877
21375SOL    HW267528   9.093   8.885   3.256 -1.0893  0.8915 -1.2024
21376SOL     OW67529  10.476   6.218   7.995  0.7002 -0.0336  0.2496
21376SOL    HW167530  10.514   6.272   7.926  1.1942 -0.5749  0.0958
21376SOL    HW267531  10.486   6.128   7.965 -1.6356 -0.1848 -0.2822
21377SOL     OW67532   6.119  10.556   7.941 -0.0098  0.0845 -0.7935
21377SOL    HW167533   6.106  10.625   7.877  1.3924  0.2217 -0.9542
21377SOL    HW267534   6.185  10.499   7.902 -1.2659 -1.4766 -0.7540
21378SOL     OW67535   1.460   7.521   1.811 -0.5118 -0.6764  0.0025
21378SOL    HW167536   1.493   7.537   1.723  1.5205  2.2319  1.1395
21378SOL    HW267537   1.374   7.565   1.813  0.1736  0.7163 -0.1015
21379SOL     OW67538   0.443   1.399   8.298  0.2340  0.5664  0.1018
21379SOL    HW167539   0.488   1.391   8.214 -0.8342 -0.4600 -0.4064
21379SOL    HW267540   0.468   1.485   8.331  0.7935  0.9236 -1.2012
21380SOL     OW67541   1.891   8.485   0.601  0.5202  0.4730  0.0238
21380SOL    HW167542   1.810   8.536   0.601 -1.4417 -2.3442 -1.1427
21380SOL    HW267543   1.946   8.527   0.536 -1.7643  0.1577 -2.2772
21381SOL     OW67544   8.092   3.271   7.617  0.3769 -0.2328 -0.5488
21381SOL    HW167545   8.128   3.278   7.529  0.6388  0.7380 -0.3761
21381SOL    HW267546   8.095   3.177   7.637  0.6489 -0.4167 -1.4318
21382SOL     OW67547   8.123   2.894   0.987  0.2574 -0.1843 -0.2478
21382SOL    HW167548   8.088   2.830   1.049  1.0392  0.3611  0.7896
21382SOL    HW267549   8.143   2.971   1.040 -0.8398  1.0170 -1.5108
21383SOL     OW67550  10.153   3.895  10.195  0.3718 -0.5461 -1.1241
21383SOL    HW167551  10.065   3.930  10.204  0.4228 -0.5095 -0.7262
21383SOL    HW267552  10.194   3.911  10.281  0.5962 -1.0225 -1.1404
21384SOL     OW67553   4.748   0.533   0.909  0.4753  0.0274  0.0336
21384SOL    HW167554   4.793   0.498   0.832 -1.2136  0.1063 -1.0364
21384SOL    HW267555   4.673   0.581   0.874 -0.8562 -0.6578  1.7444
21385SOL     OW67556   3.619   3.212   3.802 -0.3218 -0.4536  0.1103
21385SOL    HW167557   3.668   3.258   3.734 -0.0461 -2.2989 -0.9950
21385SOL    HW267558   3.578   3.282   3.853  2.1905  1.1139  0.1523
21386SOL     OW67559   8.442   5.536   0.662 -0.2154 -0.0112  0.1379
21386SOL    HW167560   8.454   5.450   0.700 -1.6972 -0.4009 -0.2121
21386SOL    HW267561   8.499   5.537   0.585  1.4868  0.1642  1.3449
21387SOL     OW67562   1.906   8.581  10.332 -0.2339  0.1093  0.3697
21387SOL    HW167563   1.934   8.663  10.374  0.6023 -0.5821  1.2213
21387SOL    HW267564   1.900   8.602  10.239  0.5792  0.9916  0.5015
21388SOL     OW67565   8.142   7.763   1.824 -0.4990  0.0839 -0.0877
21388SOL    HW167566   8.080   7.786   1.894 -1.0040  0.3578 -0.6139
21388SOL    HW267567   8.182   7.682   1.854 -2.3178 -1.0149 -0.4621
21389SOL     OW67568   7.977   1.836   8.452  0.2048  0.1299  0.1042
21389SOL    HW167569   7.930   1.846   8.534 -1.5611 -0.2838 -0.8003
21389SOL    HW267570   7.927   1.770   8.403  1.2432  0.3010 -1.2735
21390SOL     OW67571   6.519   8.110  10.228  0.0410 -0.1337  0.5976
21390SOL    HW167572   6.597   8.165  10.227 -0.2333  0.2612  0.5019
21390SOL    HW267573   6.455   8.159  10.177 -0.2401 -0.4991  0.5967
21391SOL     OW67574   9.261   6.607   3.668 -0.2794 -0.4942 -0.3146
21391SOL    HW167575   9.251   6.512   3.673  1.7881 -0.7305  0.0471
21391SOL    HW267576   9.325   6.621   3.598  0.7709  0.5045  0.7921
21392SOL     OW67577   6.845   9.739   0.474  0.5134  0.2163  0.6319
21392SOL    HW167578   6.762   9.766   0.514  0.2585  0.8065 -0.2796
21392SOL    HW267579   6.866   9.808   0.412  0.9989 -0.5844 -0.1230
21393SOL     OW67580   5.495  10.858   6.318 -0.2849 -0.3184 -0.3275
21393SOL    HW167581   5.586  10.829   6.328 -0.6041 -1.4392 -0.4799
21393SOL    HW267582   5.487  10.934   6.375  0.7538 -0.1938 -0.3308
21394SOL     OW67583  10.718   5.714   8.215  0.0314  0.1482 -0.4395
21394SOL    HW167584  10.788   5.758   8.263  0.3638 -0.6449 -0.1800
21394SOL    HW267585  10.764   5.656   8.154 -0.4004  0.0535 -0.6780
21395SOL     OW67586   0.679   0.776   6.457 -0.3838 -0.0284  0.0661
21395SOL    HW167587   0.589   0.807   6.463 -0.2328  0.5666 -0.5985
21395SOL    HW267588   0.678   0.691   6.500 -0.5812  1.3553  3.0866
21396SOL     OW67589  10.484   9.662   7.902  0.4628 -0.4157  0.4517
21396SOL    HW167590  10.394   9.638   7.924 -0.2629  1.7544  0.0874
21396SOL    HW267591  10.522   9.582   7.867 -0.6100 -1.9878  2.6364
21397SOL     OW67592   9.787   1.030   3.456  0.0265  0.1517 -0.3540
21397SOL    HW167593   9.795   1.109   3.402 -0.3967  1.5406  1.5223
21397SOL    HW267594   9.703   1.040   3.502  0.2072 -1.1418  0.3145
21398SOL     OW67595   1.874   6.130   0.494 -0.1148  0.3073  0.2557
21398SOL    HW167596   1.849   6.059   0.553  0.6908 -0.9787 -0.8850
21398SOL    HW267597   1.792   6.162   0.458 -0.4446 -0.4555  0.3262
21399SOL     OW67598   5.905   7.146   4.404 -0.3440 -0.0272  0.0790
21399SOL    HW167599   5.952   7.202   4.465 -2.4005  0.4507  1.3375
21399SOL    HW267600   5.853   7.207   4.352 -0.9083 -0.6208 -0.0578
21400SOL     OW67601   9.384   8.908   6.738 -0.1422  0.1885  0.5019
21400SOL    HW167602   9.351   8.896   6.827 -0.7566 -0.7152  0.1665
21400SOL    HW267603   9.434   8.989   6.742  0.2195 -0.0697  1.7805
21401SOL     OW67604   2.273   2.771   9.898  0.0849 -0.2495 -0.0148
21401SOL    HW167605   2.355   2.731   9.927  1.0658  0.6833 -1.4138
21401SOL    HW267606   2.297   2.858   9.868 -1.8300  1.0634  1.8795
21402SOL     OW67607   7.300   3.693   1.684 -0.4802  0.3792  0.2295
21402SOL    HW167608   7.260   3.746   1.753  1.6101  0.2757  1.6285
21402SOL    HW267609   7.392   3.719   1.686  0.3218 -2.1946 -0.0873
21403SOL     OW67610   6.926   7.181   2.908  0.0603  0.1644 -0.1155
21403SOL    HW167611   6.907   7.241   2.836 -0.6433 -1.6290 -1.4888
21403SOL    HW267612   6.845   7.134   2.922  0.9068 -1.2617  0.1337
21404SOL     OW67613   7.866  10.545   5.726  0.4623  0.7557  0.2680
21404SOL    HW167614   7.824  10.551   5.812 -0.6498  0.4056 -0.2206
21404SOL    HW267615   7.911  10.628   5.715 -0.8276  1.5120  0.4846
21405SOL     OW67616   0.563   6.507   8.507 -0.2732  0.2856 -0.3700
21405SOL    HW167617   0.558   6.602   8.515  0.0844  0.1649  2.0844
21405SOL    HW267618   0.657   6.488   8.499 -0.3855  0.1460 -1.5472
21406SOL     OW67619   3.384   6.835  10.295 -0.4638  0.5007  1.1503
21406SOL    HW167620   3.450   6.801  10.234 -1.0415  0.0395  0.7619
21406SOL    HW267621   3.302   6.825  10.248 -0.8938  0.3830  1.9103
21407SOL     OW67622   3.020   3.082   8.059 -0.5763 -0.0060 -0.4443
21407SOL    HW167623   3.025   3.020   8.132  1.6559 -1.5624 -1.7668
21407SOL    HW267624   2.942   3.056   8.010 -1.0349 -0.1622  0.3579
21408SOL     OW67625   1.322  10.711   7.390 -0.1743 -0.1646  0.1031
21408SOL    HW167626   1.323  10.654   7.313 -0.0801  0.8851 -0.6790
21408SOL    HW267627   1.286  10.655   7.459 -0.4217 -1.0720 -0.7319
21409SOL     OW67628   8.396   9.322   4.577 -0.2648  0.2404 -0.0088
21409SOL    HW167629   8.302   9.338   4.583 -0.3633 -0.7646  1.9901
21409SOL    HW267630   8.403   9.229   4.560  0.3817  0.3290 -0.2447
21410SOL     OW67631   9.631   3.377  10.721 -0.3922  0.2167 -0.6918
21410SOL    HW167632   9.536   3.376  10.711 -0.2541 -0.2169 -2.4516
21410SOL    HW267633   9.653   3.469  10.735 -1.0796  0.3088 -0.1978
21411SOL     OW67634   0.283   8.970   9.942 -0.4712 -0.6574  0.1667
21411SOL    HW167635   0.361   8.934   9.985 -0.4459 -1.2741 -0.3809
21411SOL    HW267636   0.318   9.024   9.871 -0.4766  1.3106  1.5948
21412SOL     OW67637   4.876   9.223   3.282  0.2277  0.3941 -0.4902
21412SOL    HW167638   4.876   9.155   3.214 -0.3463 -0.0650 -0.0373
21412SOL    HW267639   4.965   9.220   3.318  0.2962  0.0879 -0.6764
21413SOL     OW67640   8.264   3.709  10.089  0.0952 -0.0877  0.3042
21413SOL    HW167641   8.248   3.634  10.032 -3.2606  0.1611  0.6812
21413SOL    HW267642   8.253   3.785  10.031 -0.4167  0.1177  0.6591
21414SOL     OW67643   2.980   4.197   9.968  0.2790  0.7541 -0.1012
21414SOL    HW167644   3.068   4.225   9.990  0.8739 -0.1714 -1.1726
21414SOL    HW267645   2.969   4.223   9.877 -0.6092  0.9790  0.0630
21415SOL     OW67646   3.449   8.490   1.239 -0.4742  0.2067  0.1203
21415SOL    HW167647   3.503   8.417   1.207 -1.1107  0.0791 -0.7092
21415SOL    HW267648   3.373   8.447   1.280 -2.3955  0.2942 -2.9851
21416SOL     OW67649   5.378   3.940  10.555  0.0154  0.0989 -0.1659
21416SOL    HW167650   5.327   4.005  10.507  0.6781  0.5279 -0.3037
21416SOL    HW267651   5.353   3.856  10.516 -0.6423  0.2958 -0.1701
21417SOL     OW67652   8.417   1.623   1.053  0.1554  0.0816 -0.0675
21417SOL    HW167653   8.400   1.612   0.959 -0.6453 -1.8637  0.2477
21417SOL    HW267654   8.446   1.536   1.082  0.3696  0.6492  1.4917
21418SOL     OW67655   2.345   4.822   6.262  0.1250  0.0663 -0.2632
21418SOL    HW167656   2.320   4.734   6.235  1.6488 -0.1780 -0.9742
21418SOL    HW267657   2.376   4.811   6.352  2.0830 -0.5364 -0.9415
21419SOL     OW67658   2.720   7.463   5.411  0.1149 -0.1512 -0.4991
21419SOL    HW167659   2.642   7.511   5.437  0.3984  0.1123 -0.1293
21419SOL    HW267660   2.687   7.391   5.357 -0.7091 -1.9015  2.1552
21420SOL     OW67661   6.789   1.948   9.893  0.6103  0.3034  0.6301
21420SOL    HW167662   6.733   2.020   9.923  2.2593  1.5492  0.8239
21420SOL    HW267663   6.754   1.871   9.937 -0.6453  1.1224  1.1270
21421SOL     OW67664   2.065   5.624   3.362 -0.2093 -0.1744 -0.2153
21421SOL    HW167665   2.035   5.645   3.450  1.1609  0.2246  0.1747
21421SOL    HW267666   2.056   5.529   3.356  2.5266 -0.6230  1.4985
21422SOL     OW67667   5.948   4.590   3.494 -0.0385 -0.0466 -0.2168
21422SOL    HW167668   6.027   4.536   3.486  0.9594  0.7645  2.7207
21422SOL    HW267669   5.942   4.636   3.411  1.5659 -1.4395 -1.1762
21423SOL     OW67670   2.978   7.703   8.642 -0.7177  0.2839 -0.0158
21423SOL    HW167671   2.926   7.761   8.587 -2.5018  0.0455  1.3592
21423SOL    HW267672   2.915   7.643   8.682  0.8243 -1.2268  0.2981
21424SOL     OW67673   3.158  10.907   0.198  0.2735 -0.4071  0.1303
21424SOL    HW167674   3.112  10.950   0.126 -1.7257 -1.5868  0.6117
21424SOL    HW267675   3.161  10.973   0.267  1.5160  0.4795 -0.7503
21425SOL     OW67676   2.448  10.112   9.573 -0.4762  0.0840 -0.4303
21425SOL    HW167677   2.400  10.194   9.581 -0.7444 -0.0447 -0.7201
21425SOL    HW267678   2.383  10.044   9.588 -0.2179 -0.0755 -0.0153
21426SOL     OW67679   7.445   0.834   5.644 -0.0206 -0.1120  0.3069
21426SOL    HW167680   7.391   0.781   5.586 -1.0356  1.5050 -0.2995
21426SOL    HW267681   7.534   0.802   5.630 -0.6969 -2.3535  0.7932
21427SOL     OW67682   0.706   7.569   5.580 -0.1247 -0.5878 -0.1203
21427SOL    HW167683   0.747   7.483   5.587  0.2658 -0.3472  0.6535
21427SOL    HW267684   0.779   7.631   5.583 -0.5005 -0.1751  0.8299
21428SOL     OW67685   8.063   3.893   3.844  0.2564  0.0449  0.8163
21428SOL    HW167686   8.155   3.911   3.862 -0.1699  0.9123  2.3406
21428SOL    HW267687   8.055   3.798   3.853  1.4007 -0.3595 -1.5809
21429SOL     OW67688   2.913   2.820   3.308 -1.1924 -0.5630 -0.5762
21429SOL    HW167689   2.913   2.811   3.212  0.7797  0.6606 -0.7384
21429SOL    HW267690   2.993   2.775   3.336 -0.9889  0.3501  0.3508
21430SOL     OW67691   1.618   6.931   5.682  0.2429  0.0913  0.2824
21430SOL    HW167692   1.613   6.907   5.590  0.4167  0.2535  0.2298
21430SOL    HW267693   1.527   6.937   5.710  0.1880 -1.5976  0.5583
21431SOL     OW67694   8.552   1.215   4.019 -0.2007 -0.5664 -1.0278
21431SOL    HW167695   8.567   1.305   4.047  0.7563 -0.5210 -1.6532
21431SOL    HW267696   8.620   1.198   3.955  1.2126 -2.5378  0.8454
21432SOL     OW67697   0.741   6.834   4.273  0.6029 -0.3799  0.3904
21432SOL    HW167698   0.660   6.804   4.231  1.1537 -1.7637  0.2378
21432SOL    HW267699   0.738   6.797   4.361  0.0082  1.5285  1.2222
21433SOL     OW67700   3.313   6.707   1.168  0.1431 -0.7390  0.2893
21433SOL    HW167701   3.303   6.788   1.217  2.5261 -0.2363  0.0850
21433SOL    HW267702   3.241   6.708   1.104 -0.8932  0.3092  1.4316
21434SOL     OW67703   4.057   5.573   9.940 -0.5280  0.4418 -0.2033
21434SOL    HW167704   4.044   5.523  10.021 -0.8917  0.9774  0.0758
21434SOL    HW267705   3.993   5.644   9.945 -0.4934  0.5282 -0.9239
21435SOL     OW67706   3.253   2.866   5.749  0.2197 -0.0706 -0.0735
21435SOL    HW167707   3.217   2.909   5.826  0.1173  1.3442 -0.8633
21435SOL    HW267708   3.343   2.899   5.742  0.1818 -0.0656 -0.6264
21436SOL     OW67709   3.801   2.624   0.333  0.0421 -0.4020 -0.0718
21436SOL    HW167710   3.815   2.539   0.291  1.0172 -0.4035  0.2296
21436SOL    HW267711   3.890   2.655   0.353 -0.1490  1.5312 -1.8344
21437SOL     OW67712   7.705   2.623   8.578  0.5241 -0.4814 -0.2427
21437SOL    HW167713   7.611   2.641   8.577 -0.2436 -3.6938  1.3660
21437SOL    HW267714   7.723   2.583   8.493  0.5187  0.3807 -0.6558
21438SOL     OW67715   3.640   1.028   8.819 -0.0022  0.0164  0.3436
21438SOL    HW167716   3.634   0.968   8.893  0.3947  2.2347  2.2889
21438SOL    HW267717   3.550   1.053   8.801 -0.0902 -0.4291  0.1602
21439SOL     OW67718  10.666   4.065   1.235 -0.3764  0.4060  0.6984
21439SOL    HW167719  10.598   4.050   1.169 -1.4296 -1.8228  2.1370
21439SOL    HW267720  10.748   4.069   1.185 -1.2866  0.4168 -0.8534
21440SOL     OW67721   3.563  10.403   8.708  0.1184 -0.1434  0.4895
21440SOL    HW167722   3.631  10.466   8.731  0.7965  0.0393 -1.7310
21440SOL    HW267723   3.483  10.455   8.700  0.4125  0.2384 -0.0633
21441SOL     OW67724   0.207   1.703   1.150  0.0453  0.2378  0.2721
21441SOL    HW167725   0.221   1.796   1.166 -1.5586  0.8390 -1.4769
21441SOL    HW267726   0.263   1.683   1.075  0.5497 -0.2758  0.7763
21442SOL     OW67727   7.169   5.815   2.952  0.1300 -0.3506  0.0441
21442SOL    HW167728   7.261   5.790   2.947  0.0748 -0.4730 -0.3809
21442SOL    HW267729   7.160   5.857   3.038  0.6579 -0.0012 -0.0712
21443SOL     OW67730   8.887   3.733   7.633  0.0004  0.3187  0.0056
21443SOL    HW167731   8.880   3.704   7.724 -1.1347  1.1953  0.2257
21443SOL    HW267732   8.837   3.815   7.630  2.4017  1.8676 -0.7436
21444SOL     OW67733   7.086   1.503  10.303  0.6449 -0.3512 -0.1825
21444SOL    HW167734   7.056   1.445  10.373  1.9451 -0.7776  0.0532
21444SOL    HW267735   7.178   1.481  10.292  0.7894  0.6429 -1.1224
21445SOL     OW67736   7.907   6.996   2.295 -0.6721 -0.1131  0.3417
21445SOL    HW167737   7.995   6.959   2.285 -0.1781  1.0120  0.4723
21445SOL    HW267738   7.906   7.031   2.384 -1.5839 -0.9431  0.6871
21446SOL     OW67739   3.572   3.609   8.713 -0.1533  0.2969 -0.3523
21446SOL    HW167740   3.619   3.557   8.647  1.0480  0.9815 -0.0569
21446SOL    HW267741   3.501   3.651   8.664  0.6489  0.7025 -1.1932
21447SOL     OW67742   6.065   8.959   4.752  0.4416 -0.4125 -0.5560
21447SOL    HW167743   6.109   8.944   4.668  0.5314  1.7768 -0.9763
21447SOL    HW267744   6.111   9.035   4.789 -2.5973  1.7150 -0.8194
21448SOL     OW67745   4.457   2.199   4.039  0.2712  0.0399  0.5814
21448SOL    HW167746   4.494   2.133   3.981 -0.1642 -0.1931  0.5653
21448SOL    HW267747   4.453   2.156   4.124 -1.2663 -0.4407  0.3025
21449SOL     OW67748   4.926   7.284   1.932 -0.7013 -0.2029 -0.2459
21449SOL    HW167749   4.978   7.302   1.853 -0.9863 -0.5195 -0.5044
21449SOL    HW267750   4.878   7.204   1.912 -0.8127 -0.2598  0.2335
21450SOL     OW67751   1.246   9.522   6.681 -0.3061 -0.4345 -0.7614
21450SOL    HW167752   1.215   9.558   6.598 -0.9048 -1.7948 -1.1576
21450SOL    HW267753   1.177   9.462   6.708  1.0821 -2.0525 -0.6680
21451SOL     OW67754   5.600   6.629   5.003 -0.0160 -0.4711  0.0778
21451SOL    HW167755   5.669   6.584   5.052 -1.1613 -1.7248  0.6071
21451SOL    HW267756   5.572   6.566   4.938 -0.3922  0.1785 -0.4020
21452SOL     OW67757   0.965   1.985   9.407  0.1881  0.3131  0.3810
21452SOL    HW167758   1.015   1.915   9.449 -0.2389 -0.1963  0.0648
21452SOL    HW267759   1.022   2.018   9.338 -0.2085 -0.8356 -0.5327
21453SOL     OW67760   7.664   3.438   6.012  0.5775 -0.6665 -0.3356
21453SOL    HW167761   7.601   3.376   6.049 -1.1953  0.7412 -0.8418
21453SOL    HW267762   7.632   3.454   5.923  1.4677  0.3579 -0.4927
21454SOL     OW67763   2.325   6.145   3.714  0.0380  0.9062  0.5761
21454SOL    HW167764   2.378   6.147   3.794 -0.3834  3.1996  0.8828
21454SOL    HW267765   2.385   6.171   3.645 -0.0073  0.6931  0.4580
21455SOL     OW67766   0.725   9.787   3.698  0.1941  0.6934 -0.3741
21455SOL    HW167767   0.770   9.725   3.640 -1.4630 -0.4423 -0.5122
21455SOL    HW267768   0.792   9.815   3.760  1.3790  0.0060 -1.2959
21456SOL     OW67769   0.852   1.360   8.674 -0.1937 -0.4079 -0.2945
21456SOL    HW167770   0.882   1.334   8.760  0.0559  0.2554 -0.1746
21456SOL    HW267771   0.777   1.418   8.691  0.7664  0.9288 -0.4480
21457SOL     OW67772   2.847   9.660   7.703 -0.2734  0.3508  0.1971
21457SOL    HW167773   2.888   9.646   7.788 -0.5478 -2.6923 -0.0428
21457SOL    HW267774   2.753   9.659   7.721 -0.3240  0.8434 -0.0191
21458SOL     OW67775   3.892   6.455   5.474 -0.0689  0.5981  0.1284
21458SOL    HW167776   3.985   6.464   5.455 -0.1453  1.0183 -0.0631
21458SOL    HW267777   3.851   6.446   5.388 -0.2006  0.3658  0.2151
21459SOL     OW67778   3.215   9.536  10.076 -0.8338 -0.7224  0.0174
21459SOL    HW167779   3.306   9.505  10.077 -0.1936  1.0603 -0.3330
21459SOL    HW267780   3.169   9.474  10.019 -0.0436 -2.1065  0.8079
21460SOL     OW67781   9.046   0.382   5.642  0.0908 -0.2764  0.4464
21460SOL    HW167782   8.958   0.389   5.606  0.0119 -1.6839  0.3029
21460SOL    HW267783   9.034   0.377   5.737  0.0158 -0.3710  0.4319
21461SOL     OW67784   2.434   0.789   0.860  0.0313 -0.2280 -0.0040
21461SOL    HW167785   2.432   0.721   0.793 -0.3441 -1.0930  0.8585
21461SOL    HW267786   2.526   0.814   0.866  0.0064  0.1692 -1.1296
21462SOL     OW67787   8.585   8.414   2.286 -0.4612 -0.5717 -0.2920
21462SOL    HW167788   8.643   8.338   2.292 -2.2372 -1.9378  0.8312
21462SOL    HW267789   8.595   8.458   2.370  1.2366  1.0277 -1.2742
21463SOL     OW67790   5.643   7.121   5.776  0.5135 -0.0312 -0.4630
21463SOL    HW167791   5.732   7.105   5.745  1.1523 -1.1750  1.7344
21463SOL    HW267792   5.627   7.052   5.841 -1.9184  0.2446 -0.6571
21464SOL     OW67793   8.255   2.698   5.328 -0.2061  0.1424 -0.3775
21464SOL    HW167794   8.319   2.641   5.286 -1.5114 -0.6265 -1.4264
21464SOL    HW267795   8.180   2.641   5.345 -0.3260  0.8066  1.6227
21465SOL     OW67796   0.021   0.321   3.003 -0.0059  0.4131  0.1582
21465SOL    HW167797   0.080   0.396   2.996 -1.0159  1.2119 -0.0288
21465SOL    HW267798  -0.062   0.358   3.033  0.3073 -1.0351  3.2309
21466SOL     OW67799   3.094   6.684   0.956  0.0054 -0.4290 -0.1219
21466SOL    HW167800   3.076   6.778   0.946  0.7640 -0.2759 -0.1190
21466SOL    HW267801   3.010   6.647   0.984 -0.6827  0.0112 -1.5188
21467SOL     OW67802   0.111   5.795   1.719 -0.3152  0.2031  0.3942
21467SOL    HW167803   0.168   5.864   1.686  1.2400 -1.3071 -0.2092
21467SOL    HW267804   0.153   5.765   1.799 -2.8394  2.2473  2.7269
21468SOL     OW67805   0.399   2.516   2.640  0.8099  0.0249  0.2746
21468SOL    HW167806   0.421   2.449   2.574  1.6213  0.7504 -0.2144
21468SOL    HW267807   0.414   2.472   2.723  0.9674 -0.5251 -0.0328
21469SOL     OW67808   4.287   9.078   7.449  0.2416 -0.0775  0.0934
21469SOL    HW167809   4.289   9.170   7.475  1.2980  0.1625 -0.7625
21469SOL    HW267810   4.363   9.040   7.492 -0.8523 -0.8647  1.4250
21470SOL     OW67811   0.109   0.976   7.270 -0.4861 -0.1178  0.0155
21470SOL    HW167812   0.171   0.915   7.310 -0.0131 -0.5422 -1.2993
21470SOL    HW267813   0.137   1.062   7.300 -1.1843 -0.5214  1.9252
21471SOL     OW67814  10.634   9.591   3.205  0.2209 -0.4602 -0.4905
21471SOL    HW167815  10.562   9.547   3.160 -0.5478 -1.3872  1.5325
21471SOL    HW267816  10.594   9.672   3.239 -0.2608 -1.5050  1.6044
21472SOL     OW67817   7.464   4.233   2.672 -0.3486 -0.0109  0.2360
21472SOL    HW167818   7.389   4.209   2.616  0.9989 -0.2214 -1.5795
21472SOL    HW267819   7.540   4.217   2.617  0.9646  1.9778  1.3647
21473SOL     OW67820   9.352   6.107  10.338  0.3995 -0.2961 -0.1596
21473SOL    HW167821   9.392   6.065  10.414 -1.0645  0.9498  1.3833
21473SOL    HW267822   9.425   6.153  10.296  1.0451  0.0437  1.2501
21474SOL     OW67823   9.721   9.192  10.388  0.2141 -0.0238  0.4066
21474SOL    HW167824   9.747   9.108  10.427 -0.5821 -0.2350  0.5160
21474SOL    HW267825   9.783   9.255  10.423  0.1964 -0.4003  1.1489
21475SOL     OW67826   6.955  10.739   2.768 -0.3881 -0.3305 -0.4991
21475SOL    HW167827   7.045  10.747   2.799 -0.0064  2.1197 -2.0031
21475SOL    HW267828   6.907  10.804   2.819 -0.6139  0.6306 -1.8817
21476SOL     OW67829   9.792  10.139   7.249 -0.1859 -0.2396 -0.6955
21476SOL    HW167830   9.712  10.177   7.213 -0.5509  0.0347  0.3841
21476SOL    HW267831   9.831  10.092   7.175 -0.2041  1.4426 -1.8319
21477SOL     OW67832   2.397   4.801   9.524 -0.1101 -0.2455  0.6000
21477SOL    HW167833   2.324   4.857   9.548  0.7695  1.4587 -0.4687
21477SOL    HW267834   2.369   4.713   9.549 -3.3994 -0.0155 -1.6385
21478SOL     OW67835  10.209   2.815   4.402 -0.1519 -0.4900 -0.0162
21478SOL    HW167836  10.213   2.779   4.491  1.7850  0.7320  0.4694
21478SOL    HW267837  10.150   2.757   4.355 -1.8169 -0.7792  2.2371
21479SOL     OW67838   6.580   4.540   3.091 -0.1061 -0.3900  0.5399
21479SOL    HW167839   6.534   4.586   3.022  2.4806 -0.4220 -1.3667
21479SOL    HW267840   6.543   4.452   3.091 -1.2762  0.0837  0.3970
21480SOL     OW67841   4.318   9.228   6.918 -0.2386  0.4506  0.0979
21480SOL    HW167842   4.353   9.257   6.834  1.5916 -2.9260 -0.4989
21480SOL    HW267843   4.231   9.194   6.898 -0.9461  2.1453  0.1631
21481SOL     OW67844  10.781   3.445   7.200  0.1917  0.0494 -0.3457
21481SOL    HW167845  10.838   3.424   7.274  1.0818  1.9401 -0.4392
21481SOL    HW267846  10.839   3.447   7.124 -0.1587  0.9942 -0.6116
21482SOL     OW67847   4.138   2.576   1.677 -0.0852 -0.0930  0.2091
21482SOL    HW167848   4.148   2.485   1.650 -2.1625 -0.5393  0.7136
21482SOL    HW267849   4.217   2.596   1.726  1.0262 -1.1750 -1.0749
21483SOL     OW67850   9.387   4.923   8.255  0.0549 -0.3423 -0.4336
21483SOL    HW167851   9.325   4.993   8.236 -1.9521 -2.2536 -1.3130
21483SOL    HW267852   9.364   4.894   8.344 -0.5935 -1.2876 -0.8943
21484SOL     OW67853   9.822   2.500   2.631  0.5054  0.5749 -0.5138
21484SOL    HW167854   9.781   2.451   2.703  2.1719  0.5865  0.5004
21484SOL    HW267855   9.783   2.463   2.552 -0.8693  0.0695  0.3496
21485SOL     OW67856   1.457   4.467   7.780  0.6130 -0.1256 -0.3322
21485SOL    HW167857   1.534   4.519   7.758  0.3580 -0.3619 -1.8710
21485SOL    HW267858   1.476   4.379   7.748  0.3662 -0.5973  0.7696
21486SOL     OW67859   3.960   5.965  10.131  0.1326 -0.0024 -0.7978
21486SOL    HW167860   3.998   5.906  10.196 -0.1431  0.2229 -0.4244
21486SOL    HW267861   3.938   5.908  10.057 -0.7962 -0.5049 -0.1624
21487SOL     OW67862   2.613   3.784   2.515  0.6378  0.4477  0.3892
21487SOL    HW167863   2.631   3.784   2.421 -0.0742 -0.7430  0.2352
21487SOL    HW267864   2.699   3.772   2.556  0.7444 -0.9285 -0.1859
21488SOL     OW67865   1.649   7.689   4.512  0.0814  0.1265  0.5601
21488SOL    HW167866   1.582   7.750   4.544 -0.2220 -1.1428  2.5346
21488SOL    HW267867   1.728   7.713   4.560  0.7592  0.8155 -0.8471
21489SOL     OW67868   7.389   1.065   4.557 -0.1081  0.1179  0.1423
21489SOL    HW167869   7.429   1.044   4.641 -0.4822 -1.1891  0.0171
21489SOL    HW267870   7.308   1.014   4.556 -0.3418  0.4852 -0.8135
21490SOL     OW67871   6.011   4.278   7.183  0.6994 -0.0285  0.1902
21490SOL    HW167872   5.999   4.238   7.270 -3.6550 -3.7153 -1.7043
21490SOL    HW267873   5.930   4.328   7.169  1.6889  1.1917 -1.5109
21491SOL     OW67874   5.232   7.212   6.745  0.6666 -0.0732 -0.3724
21491SOL    HW167875   5.312   7.266   6.747 -0.3865  1.5493  1.0494
21491SOL    HW267876   5.252   7.138   6.801  0.7811  0.9904  1.0485
21492SOL     OW67877   3.705   6.794   8.916 -0.0336 -0.0630 -0.1458
21492SOL    HW167878   3.611   6.799   8.901 -0.2886 -0.8018  1.0346
21492SOL    HW267879   3.743   6.861   8.859 -1.3936  1.2432  0.4370
21493SOL     OW67880   0.332   2.147   2.830 -0.2925  0.2982 -0.2006
21493SOL    HW167881   0.323   2.132   2.736 -0.3106  0.0455 -0.1587
21493SOL    HW267882   0.243   2.166   2.860 -0.0135  2.5290 -0.5955
21494SOL     OW67883   5.686  10.563   8.781 -0.1187  0.5542 -0.3013
21494SOL    HW167884   5.630  10.584   8.706 -0.6494 -0.8818 -0.3350
21494SOL    HW267885   5.668  10.471   8.799  1.6814  0.2618  0.1821
21495SOL     OW67886   5.932  10.318   9.969 -0.2744  0.3736  0.2651
21495SOL    HW167887   5.933  10.318   9.874  1.3457 -1.3725  0.1987
21495SOL    HW267888   5.855  10.369   9.993 -1.5494 -0.3567 -1.9913
21496SOL     OW67889   2.640   8.183   7.198  0.7304  0.8694  0.1151
21496SOL    HW167890   2.680   8.262   7.160  0.5325  0.5392 -0.8054
21496SOL    HW267891   2.569   8.161   7.138 -0.0575  0.7350  1.0747
21497SOL     OW67892   8.752   8.608   6.520 -0.2867 -0.0529 -0.2697
21497SOL    HW167893   8.742   8.703   6.530 -0.1796  0.0119 -0.7646
21497SOL    HW267894   8.711   8.572   6.598  0.4218  0.4425  0.3487
21498SOL     OW67895   1.707   2.137   6.804  0.8144 -0.0107 -0.5056
21498SOL    HW167896   1.749   2.201   6.746 -0.0287 -0.5229 -1.7428
21498SOL    HW267897   1.619   2.173   6.819  0.6182 -0.4597 -0.5463
21499SOL     OW67898   7.434  10.725  10.581 -0.9345 -0.3854 -0.3354
21499SOL    HW167899   7.502  10.720  10.514  0.9576  2.0905  1.1914
21499SOL    HW267900   7.357  10.757  10.536  0.0422  0.4139 -1.5053
21500SOL     OW67901   9.985   3.520   4.276 -0.3216 -0.3683  0.4735
21500SOL    HW167902   9.933   3.600   4.287 -1.5330 -0.8972 -1.0766
21500SOL    HW267903  10.057   3.530   4.338  0.0567  2.3274 -0.2623
21501SOL     OW67904   9.680   9.810  10.382 -0.0893 -0.3148 -0.1494
21501SOL    HW167905   9.726   9.888  10.352  1.2143 -0.7390  0.6390
21501SOL    HW267906   9.617   9.842  10.446  1.6252  0.0022  1.4940
21502SOL     OW67907   4.104   1.778   0.934 -0.8501  0.4626  0.4447
21502SOL    HW167908   4.125   1.860   0.888 -0.2503  0.5704  0.8913
21502SOL    HW267909   4.168   1.715   0.900 -0.2066  0.6185  1.3353
21503SOL     OW67910   3.219   6.666   4.890  0.4607  0.0590 -0.2376
21503SOL    HW167911   3.307   6.649   4.923  1.1077  0.2591 -1.7822
21503SOL    HW267912   3.232   6.726   4.816 -0.8893 -0.5353 -0.9913
21504SOL     OW67913   6.310   5.570   1.557 -0.1592 -0.0487 -0.1436
21504SOL    HW167914   6.379   5.600   1.617  0.7470 -0.1653 -1.0908
21504SOL    HW267915   6.266   5.499   1.604  0.5393 -0.1446  0.3804
21505SOL     OW67916   6.214   2.252   1.996  0.1486  0.3156  0.4357
21505SOL    HW167917   6.171   2.209   1.922 -0.9908  0.3386  1.0594
21505SOL    HW267918   6.249   2.333   1.960 -1.8808  1.1603  0.2356
21506SOL     OW67919   3.663   5.726  10.306  0.3398 -0.2902 -0.6255
21506SOL    HW167920   3.620   5.789  10.248  0.2119 -0.9071 -1.2136
21506SOL    HW267921   3.597   5.706  10.373 -0.0172 -0.6473 -1.0806
21507SOL     OW67922   4.626   4.214   7.972  0.1507 -0.4340  0.0591
21507SOL    HW167923   4.531   4.220   7.980  0.2791  1.9443  0.5050
21507SOL    HW267924   4.653   4.159   8.046 -0.9927 -3.3182 -1.5124
21508SOL     OW67925   9.504   4.749  10.238  0.2142 -0.6691  0.6155
21508SOL    HW167926   9.500   4.685  10.309 -0.2179 -1.1821  0.1370
21508SOL    HW267927   9.413   4.774  10.223  0.4535  1.0641  1.6660
21509SOL     OW67928   5.771   3.387   1.247 -0.1152  0.2343 -0.0840
21509SOL    HW167929   5.745   3.447   1.317  2.2084  0.8208  0.3609
21509SOL    HW267930   5.822   3.441   1.187  1.4964 -1.0992 -0.0025
21510SOL     OW67931   8.664   2.130   0.510 -0.2808  0.4638 -0.4182
21510SOL    HW167932   8.575   2.150   0.481 -1.2381 -0.5509  1.6108
21510SOL    HW267933   8.658   2.043   0.550  1.4524  0.6916  0.4691
21511SOL     OW67934   3.480  10.794   7.861 -0.0968  0.1335  0.1510
21511SOL    HW167935   3.400  10.843   7.843 -1.2395 -0.9917  1.8096
21511SOL    HW267936   3.497  10.809   7.954 -0.1084 -2.0206  0.5584
21512SOL     OW67937   8.584   5.539   1.318  0.3353  0.2230 -0.8765
21512SOL    HW167938   8.555   5.536   1.409 -0.1337 -0.3154 -1.0385
21512SOL    HW267939   8.505   5.521   1.267  0.1006  2.6754 -1.4861
21513SOL     OW67940   7.041   2.274   3.182  0.3796  0.5192  0.2833
21513SOL    HW167941   7.050   2.226   3.099 -2.8358  1.7546 -0.9482
21513SOL    HW267942   7.100   2.348   3.173 -1.4204  1.8269 -1.9853
21514SOL     OW67943   6.114   5.550   8.426  0.1560  0.2734 -0.3678
21514SOL    HW167944   6.112   5.454   8.427  1.1539  0.2398  0.6091
21514SOL    HW267945   6.199   5.571   8.387  0.4733  0.7377  0.5615
21515SOL     OW67946   8.860   9.874   4.652 -0.1849 -0.4524 -0.1811
21515SOL    HW167947   8.806   9.795   4.655  0.6760 -1.1172 -1.2972
21515SOL    HW267948   8.945   9.846   4.685  0.2468 -0.1049 -0.9685
21516SOL     OW67949  10.671   9.782   9.868 -0.0886  0.4916 -0.4064
21516SOL    HW167950  10.624   9.711   9.913  1.2598  0.1633  0.5230
21516SOL    HW267951  10.611   9.857   9.874 -1.1998 -0.3303 -0.7193
21517SOL     OW67952   8.919   7.620   8.713  0.4122 -0.3131 -0.5587
21517SOL    HW167953   8.942   7.709   8.739  0.1912  0.1701 -1.9268
21517SOL    HW267954   8.857   7.591   8.779  1.2213  0.1847  0.4353
21518SOL     OW67955   9.968   6.981   6.978 -0.4003 -0.1562 -0.3895
21518SOL    HW167956  10.027   6.996   6.904  1.0848  3.2850  1.2373
21518SOL    HW267957  10.025   6.950   7.048 -0.7150  1.5534  0.7070
21519SOL     OW67958   5.071   1.736   3.969  0.5269  0.0932  0.4954
21519SOL    HW167959   5.054   1.813   3.914 -2.1208 -0.1735  0.8334
21519SOL    HW267960   5.102   1.669   3.908  3.7565  1.5685  0.3101
21520SOL     OW67961  10.200   7.884   1.859  0.5219  0.3710  0.6151
21520SOL    HW167962  10.220   7.808   1.805  0.8567  1.0308 -0.2022
21520SOL    HW267963  10.267   7.948   1.837 -1.0966  1.7843 -0.4565
21521SOL     OW67964   1.602   0.507   1.098  0.0807  0.3370  0.4853
21521SOL    HW167965   1.659   0.449   1.148 -1.7313  0.9414  3.4782
21521SOL    HW267966   1.586   0.459   1.016  2.0582 -1.3633  0.9991
21522SOL     OW67967   1.938   4.573  10.839 -0.2806  0.0520 -0.2436
21522SOL    HW167968   1.877   4.562  10.912 -1.0477 -1.1452 -1.0352
21522SOL    HW267969   1.902   4.519  10.769  0.6927  0.8061 -1.3650
21523SOL     OW67970   8.738   2.404   3.618 -0.5759 -0.4524  0.0064
21523SOL    HW167971   8.791   2.460   3.676 -0.2103  1.4839 -2.0546
21523SOL    HW267972   8.716   2.328   3.672  1.8528  0.0248  1.8837
21524SOL     OW67973   3.618   8.167   4.149  0.3487 -0.1932 -0.9068
21524SOL    HW167974   3.643   8.258   4.135  0.6883 -0.3991 -1.6644
21524SOL    HW267975   3.549   8.150   4.085 -1.9656  0.4135  1.2442
21525SOL     OW67976   2.785   8.570  10.518  0.0700 -0.3698  0.0603
21525SOL    HW167977   2.876   8.586  10.491  0.3017 -1.7907 -0.0850
21525SOL    HW267978   2.778   8.475  10.522 -1.5652 -0.2926 -0.4253
21526SOL     OW67979  10.700   5.970   2.703  0.0507 -0.6015  0.4446
21526SOL    HW167980  10.651   5.988   2.783 -1.5798  0.9290 -0.7974
21526SOL    HW267981  10.700   6.053   2.656  3.2767 -0.7181 -0.0098
21527SOL     OW67982   2.197   7.924   7.809 -0.6236 -0.4719  0.1480
21527SOL    HW167983   2.165   7.935   7.898 -0.0513  0.3679  0.2630
21527SOL    HW267984   2.151   7.847   7.776 -0.1215 -1.3837  1.4929
21528SOL     OW67985   4.280   0.770   4.247 -0.9738  0.1502 -0.1598
21528SOL    HW167986   4.247   0.690   4.206 -1.4840  0.1708  0.1946
21528SOL    HW267987   4.254   0.840   4.187  0.6335 -0.0474 -1.1473
21529SOL     OW67988   0.472   3.558   0.060 -0.2043  0.2750 -0.7684
21529SOL    HW167989   0.426   3.640   0.078  1.1887  1.0807 -0.6913
21529SOL    HW267990   0.481   3.556  -0.035 -0.7862 -0.1039 -0.8157
21530SOL     OW67991   7.306   9.200  10.378 -0.1745  0.3866  0.1849
21530SOL    HW167992   7.271   9.268  10.436  0.2628 -0.6628  1.7451
21530SOL    HW267993   7.229   9.166  10.332 -0.7068  0.4379  1.0215
21531SOL     OW67994   8.621   3.147   1.745  0.1389 -0.3178  0.1350
21531SOL    HW167995   8.575   3.063   1.750 -1.2013  0.3919  0.4468
21531SOL    HW267996   8.566   3.200   1.687  0.2410  0.7473  0.9810
21532SOL     OW67997   8.983   3.101   3.941  0.3218 -0.4678  0.0703
21532SOL    HW167998   8.948   3.189   3.931  1.2236 -0.2293 -1.1599
21532SOL    HW267999   8.911   3.050   3.979  0.1416  1.0307  1.8873
21533SOL     OW68000   8.998   6.706   7.828 -0.0496 -0.0659  0.2004
21533SOL    HW168001   9.037   6.785   7.792  1.3973 -1.2025 -0.8865
21533SOL    HW268002   8.912   6.700   7.788  0.9540 -0.5173 -2.0088
21534SOL     OW68003   0.882   2.952   3.507  0.2771 -0.1785  0.3781
21534SOL    HW168004   0.800   2.995   3.485  0.3409  0.0359  0.5535
21534SOL    HW268005   0.911   2.911   3.425  0.4364  0.4929  0.0930
21535SOL     OW68006   2.095   9.254   5.989  0.0869 -0.1787 -0.0620
21535SOL    HW168007   2.061   9.305   6.063  1.7315  1.8560 -0.6134
21535SOL    HW268008   2.190   9.265   5.993  0.2678 -0.4925 -2.1290
21536SOL     OW68009   7.172   6.155   2.088 -0.6023 -0.2041 -0.1408
21536SOL    HW168010   7.166   6.087   2.154  1.5596 -0.1671  0.1794
21536SOL    HW268011   7.265   6.157   2.065 -1.1968  0.1918 -2.7656
21537SOL     OW68012   8.720   7.245   6.434  0.0517 -0.2049 -0.2359
21537SOL    HW168013   8.758   7.158   6.450 -1.5139 -0.9225 -0.1532
21537SOL    HW268014   8.670   7.264   6.513  0.4372  0.8097 -0.2311
21538SOL     OW68015   2.053   6.066   7.345 -0.1423  0.3778 -0.2553
21538SOL    HW168016   1.975   6.029   7.305 -0.9223  0.9067  0.7080
21538SOL    HW268017   2.023   6.148   7.384  0.7351  0.2586  0.7243
21539SOL     OW68018   3.500   6.304   2.977 -0.5240 -0.3855  1.2308
21539SOL    HW168019   3.429   6.284   3.038 -1.5779  1.8202  0.8315
21539SOL    HW268020   3.571   6.336   3.033 -0.7490 -0.2709  1.4522
21540SOL     OW68021   0.479  10.403   0.837  0.0986  0.7578  0.0837
21540SOL    HW168022   0.538  10.329   0.851 -1.1483 -0.0573  1.1979
21540SOL    HW268023   0.431  10.412   0.919 -1.6760  1.0715 -0.9418
21541SOL     OW68024   9.615   1.654   9.916  0.1409 -0.2037  0.2638
21541SOL    HW168025   9.708   1.675   9.930  0.4687  0.8130 -2.6964
21541SOL    HW268026   9.606   1.563   9.945  1.8452 -0.0598  1.3702
21542SOL     OW68027   8.912   0.771   8.973  0.2101 -0.1639  0.0516
21542SOL    HW168028   8.969   0.830   8.923  0.9860  0.1566  1.2728
21542SOL    HW268029   8.883   0.823   9.047  0.3161 -1.0904  0.7645
21543SOL     OW68030   9.573   0.118   3.442 -0.3815 -0.4728  0.8535
21543SOL    HW168031   9.542   0.032   3.470 -1.3417 -0.3517  0.2352
21543SOL    HW268032   9.579   0.110   3.346 -0.8964  0.2748  0.7568
21544SOL     OW68033   4.957   7.535   0.766  0.4853 -0.2690 -0.5819
21544SOL    HW168034   4.934   7.626   0.784  0.3894 -0.7140  1.8086
21544SOL    HW268035   4.880   7.484   0.791  0.6165 -1.0591 -1.6679
21545SOL     OW68036   8.571   3.542   3.446  0.0132  0.4973  0.1493
21545SOL    HW168037   8.607   3.531   3.359  1.0645 -0.0562  0.6409
21545SOL    HW268038   8.612   3.622   3.479  1.8081 -0.7841  1.1721
21546SOL     OW68039   3.826  10.776   1.977 -0.1778 -0.1440 -0.7433
21546SOL    HW168040   3.907  10.821   1.999  0.0162 -0.0300 -1.6326
21546SOL    HW268041   3.807  10.721   2.053  1.6225 -1.4061 -1.1461
21547SOL     OW68042  10.062   4.609   7.456  0.4735 -0.4359 -0.2979
21547SOL    HW168043  10.022   4.541   7.401 -1.2751  1.1715 -1.1122
21547SOL    HW268044  10.110   4.664   7.395 -0.4446  0.6448 -0.0747
21548SOL     OW68045  10.170   4.033   2.551  0.0495 -0.3899 -0.4806
21548SOL    HW168046  10.235   3.978   2.508  0.8574 -0.3358  0.6457
21548SOL    HW268047  10.091   4.021   2.498  0.6926 -1.2330 -1.2892
21549SOL     OW68048   4.778   9.704   9.994 -0.0214  0.3821 -0.0247
21549SOL    HW168049   4.714   9.636   9.972  0.1640  0.8029 -2.1044
21549SOL    HW268050   4.805   9.684  10.083 -0.8480 -1.5584 -0.1610
21550SOL     OW68051   3.829   1.194   7.823  0.9155  0.2183  0.1977
21550SOL    HW168052   3.806   1.131   7.891 -2.3166 -0.3364 -1.2262
21550SOL    HW268053   3.871   1.141   7.755 -0.6886 -0.2405 -0.4707
21551SOL     OW68054   7.105   4.045   4.785 -0.3335  0.0131 -0.1272
21551SOL    HW168055   7.160   4.074   4.857 -0.9340  2.0681 -0.4428
21551SOL    HW268056   7.164   3.998   4.726  0.4117 -0.5800  1.0560
21552SOL     OW68057   1.456  10.712   6.909 -0.6038  0.1116 -0.0612
21552SOL    HW168058   1.551  10.709   6.898 -0.3547  0.6927  1.6220
21552SOL    HW268059   1.423  10.642   6.854  0.9530 -1.3168  0.7408
21553SOL     OW68060   6.286   9.342   5.891 -0.2742 -0.1493 -0.2297
21553SOL    HW168061   6.248   9.300   5.814  1.3946 -1.7553 -0.2407
21553SOL    HW268062   6.323   9.424   5.858 -0.2630 -0.4519 -0.9736
21554SOL     OW68063   3.101   4.246   2.014  0.2888  0.3096  0.2294
21554SOL    HW168064   3.014   4.212   2.035  0.1752  0.3040 -0.2358
21554SOL    HW268065   3.085   4.313   1.948  0.6628  0.0812 -0.0978
21555SOL     OW68066   2.350   8.037   3.479  0.1326 -0.4495 -0.0813
21555SOL    HW168067   2.425   8.006   3.428  2.7585  1.2466  2.3541
21555SOL    HW268068   2.328   7.963   3.536  0.0515 -0.9185 -0.7118
21556SOL     OW68069   6.977   2.758   1.553 -0.2728  0.3386 -0.1454
21556SOL    HW168070   6.989   2.840   1.506  1.4274 -0.3520 -1.0009
21556SOL    HW268071   6.889   2.728   1.528 -1.8374  2.8406  1.8158
21557SOL     OW68072   9.412   9.544   7.300  0.8687  0.1824  0.3726
21557SOL    HW168073   9.496   9.577   7.267  0.7150  2.0730  1.7148
21557SOL    HW268074   9.346   9.585   7.244  0.7564  0.2372  0.5460
21558SOL     OW68075   2.700  10.349   6.984  0.5007 -0.0332 -0.1279
21558SOL    HW168076   2.618  10.312   7.018  1.6960 -0.1112  3.0383
21558SOL    HW268077   2.680  10.441   6.968  0.1490  0.4342  2.4754
21559SOL     OW68078   9.388   1.821   6.539 -0.2370  0.2344  0.5262
21559SOL    HW168079   9.356   1.896   6.488  2.5373 -0.1407 -2.0594
21559SOL    HW268080   9.313   1.795   6.593 -2.3186  2.8275 -0.8589
21560SOL     OW68081   7.437   2.641   7.181 -0.2658  0.0752 -0.1921
21560SOL    HW168082   7.365   2.699   7.157 -0.2939 -0.2939 -1.0243
21560SOL    HW268083   7.446   2.581   7.107 -0.8689 -1.6145  1.0381
21561SOL     OW68084   4.694   4.851   7.605  0.5043  0.4941 -0.4031
21561SOL    HW168085   4.749   4.822   7.532  2.5137 -0.5449  1.4475
21561SOL    HW268086   4.748   4.913   7.654  0.3515 -1.0509  1.8452
21562SOL     OW68087   0.853  10.694   2.258  0.1115 -0.4920  0.0578
21562SOL    HW168088   0.918  10.634   2.221  0.4929 -1.0454  1.5769
21562SOL    HW268089   0.892  10.781   2.247 -0.4552 -0.4383 -2.1780
21563SOL     OW68090   8.327   9.302   5.157 -0.2575  0.5416  0.1106
21563SOL    HW168091   8.349   9.312   5.250  0.5489  0.4463 -0.0556
21563SOL    HW268092   8.369   9.219   5.133  0.4897  1.1158 -0.6021
21564SOL     OW68093   0.400   6.489   2.606 -0.1751  0.2013  0.2010
21564SOL    HW168094   0.483   6.509   2.564 -1.4608 -0.3363 -2.8867
21564SOL    HW268095   0.407   6.397   2.632 -0.0637 -0.0985 -0.8407
21565SOL     OW68096   9.959   3.976   4.503 -0.4637  0.1264  0.0861
21565SOL    HW168097   9.930   4.064   4.528 -0.4176 -0.0078  0.6263
21565SOL    HW268098   9.967   3.980   4.408 -0.1287  0.8092  0.1350
21566SOL     OW68099   7.523   1.241   8.280 -0.4713  0.4164  0.4329
21566SOL    HW168100   7.490   1.218   8.193  0.2725 -0.0254  0.2507
21566SOL    HW268101   7.447   1.274   8.327 -0.8349  0.8952 -0.4673
21567SOL     OW68102   5.177   4.991   3.077 -0.0245 -0.1048  0.0542
21567SOL    HW168103   5.121   5.007   3.002  1.3141 -1.6078 -1.3525
21567SOL    HW268104   5.249   5.053   3.067  0.4593 -0.7081 -0.2578
21568SOL     OW68105   6.848   8.284   8.417 -0.1701 -0.3315  0.0127
21568SOL    HW168106   6.767   8.300   8.465  1.1082  1.9268  1.5854
21568SOL    HW268107   6.915   8.276   8.485  1.0925 -1.2471 -1.2826
21569SOL     OW68108   8.581   5.025   5.809  0.1554 -1.1158  0.3061
21569SOL    HW168109   8.640   4.950   5.800  2.0647  0.2851  0.5213
21569SOL    HW268110   8.592   5.054   5.900  1.5264  0.9725 -0.4390
21570SOL     OW68111   5.183   4.403   3.197  0.0713 -0.6300 -0.0479
21570SOL    HW168112   5.097   4.428   3.229 -0.8362  1.5197 -3.5984
21570SOL    HW268113   5.167   4.330   3.137  1.1108 -1.7832  1.0181
21571SOL     OW68114   0.151   8.164   8.677  0.0806  0.0110  0.2297
21571SOL    HW168115   0.120   8.074   8.662  0.6002 -0.1160 -0.1109
21571SOL    HW268116   0.084   8.219   8.636 -0.4953 -0.1988  0.8730
21572SOL     OW68117   8.335   0.163   9.410  0.3960 -0.0938 -0.1335
21572SOL    HW168118   8.272   0.092   9.427  0.9037 -0.6740 -0.6046
21572SOL    HW268119   8.287   0.226   9.357 -0.3537  0.3930  1.0779
21573SOL     OW68120   8.068   2.867   6.123  0.0244 -0.3304  0.7908
21573SOL    HW168121   8.137   2.909   6.174  1.1756  0.4822 -1.3256
21573SOL    HW268122   8.074   2.774   6.146  2.1904 -0.3530  0.2772
21574SOL     OW68123   9.300   2.207   8.278 -0.1717 -0.4534  0.4102
21574SOL    HW168124   9.392   2.227   8.261  0.2084 -0.8915  1.8299
21574SOL    HW268125   9.252   2.282   8.243  0.6502 -0.5649 -1.0250
21575SOL     OW68126   2.562   1.280   6.740 -0.5299 -0.1759 -0.3636
21575SOL    HW168127   2.604   1.295   6.825 -2.1333  1.3283  0.2234
21575SOL    HW268128   2.534   1.189   6.744 -0.9336 -0.0164  0.9032
21576SOL     OW68129   1.140   2.384   4.740 -0.4265  0.3857 -0.2620
21576SOL    HW168130   1.168   2.343   4.822  3.3684  2.2639 -0.4098
21576SOL    HW268131   1.172   2.326   4.671 -1.5007  0.0215 -0.4800
21577SOL     OW68132   7.736   3.950   8.254 -0.3211 -0.1526  0.1407
21577SOL    HW168133   7.768   3.862   8.233  1.7119  0.1664  1.6959
21577SOL    HW268134   7.808   4.009   8.231 -0.8870  0.9141  1.0124
21578SOL     OW68135   4.068  10.318   0.923  0.1496 -0.2273  0.0612
21578SOL    HW168136   4.153  10.358   0.942 -0.2673  0.1597  1.1744
21578SOL    HW268137   4.057  10.330   0.829  1.6824 -0.9991 -0.2526
21579SOL     OW68138   1.567   5.048   5.273 -0.0220  0.4827  0.3715
21579SOL    HW168139   1.494   4.987   5.259 -1.1365  1.7062  0.5842
21579SOL    HW268140   1.636   4.995   5.313 -1.7867 -0.1710  2.7436
21580SOL     OW68141   4.014   0.880   2.965 -0.5115 -0.2198  0.1289
21580SOL    HW168142   4.065   0.808   2.927  0.2460  0.8083 -0.8759
21580SOL    HW268143   3.967   0.917   2.891 -1.2449  0.0491  0.7206
21581SOL     OW68144   3.200   2.896   0.553  0.2573  0.8706  0.1553
21581SOL    HW168145   3.170   2.837   0.484  0.5978  0.5088  0.3099
21581SOL    HW268146   3.217   2.838   0.628  1.5724  1.0100 -0.0023
21582SOL     OW68147   9.244  10.629   3.094 -0.0066 -0.4536  0.0445
21582SOL    HW168148   9.214  10.688   3.025 -1.1643 -1.0056  0.0579
21582SOL    HW268149   9.290  10.559   3.047  1.0213  0.2324  0.0008
21583SOL     OW68150   5.271   3.896   4.646  0.2628 -0.2876  0.1489
21583SOL    HW168151   5.189   3.854   4.671 -0.3646 -0.0261 -1.4032
21583SOL    HW268152   5.330   3.824   4.626 -0.1062 -0.4518 -0.3403
21584SOL     OW68153   4.951   9.957   1.101  0.1661 -0.3153 -0.3351
21584SOL    HW168154   4.928  10.023   1.166 -0.7511  1.3099 -2.2039
21584SOL    HW268155   4.986  10.006   1.027 -1.6545 -1.7387 -2.2865
21585SOL     OW68156   0.127   2.702   4.747 -0.5146 -0.0159 -0.2297
21585SOL    HW168157   0.080   2.708   4.664  0.7647 -0.1018 -0.9864
21585SOL    HW268158   0.206   2.652   4.726 -0.1648 -0.0213  1.0365
21586SOL     OW68159   5.479   4.217   7.590  0.1327  0.3979  0.0747
21586SOL    HW168160   5.439   4.238   7.674 -0.5108  0.1475 -0.1537
21586SOL    HW268161   5.480   4.121   7.587 -1.1217  0.3850 -0.7601
21587SOL     OW68162   9.986  10.632   4.054  0.1783 -0.3724 -0.7840
21587SOL    HW168163  10.007  10.725   4.064  1.2622 -0.5879 -0.9272
21587SOL    HW268164  10.025  10.608   3.970 -1.1607 -0.6776 -1.3490
21588SOL     OW68165   8.793   7.070  10.646 -0.4590  0.1754  0.2191
21588SOL    HW168166   8.768   7.162  10.656 -0.5182 -0.0267  2.5086
21588SOL    HW268167   8.841   7.050  10.727 -0.8544 -1.9437 -0.0239
21589SOL     OW68168   6.861  10.202   7.874 -0.0765 -0.1690  0.6195
21589SOL    HW168169   6.908  10.266   7.821  1.4716 -0.5494  1.4800
21589SOL    HW268170   6.787  10.175   7.819  0.5608  0.6283 -0.6764
21590SOL     OW68171   4.434   3.523   0.378  0.1756  0.1449  0.3079
21590SOL    HW168172   4.476   3.583   0.316 -0.8006 -0.6189 -1.1441
21590SOL    HW268173   4.342   3.548   0.377 -0.0945 -0.8166  0.3560
21591SOL     OW68174   9.153   4.337  10.337 -0.2547  0.1868  0.1467
21591SOL    HW168175   9.081   4.276  10.317 -1.2600  1.2583  0.3953
21591SOL    HW268176   9.208   4.288  10.398  0.2265 -1.3136 -1.4101
21592SOL     OW68177   3.549   1.630   0.582 -0.0169  0.0507 -0.2426
21592SOL    HW168178   3.644   1.627   0.597  0.3128  0.5338 -2.0084
21592SOL    HW268179   3.511   1.633   0.670  1.7374  3.3802  0.5719
21593SOL     OW68180   4.912   7.151   2.914 -0.6389  0.1643  0.1197
21593SOL    HW168181   4.842   7.105   2.867 -0.9174 -0.5492  1.2009
21593SOL    HW268182   4.868   7.224   2.958 -0.3151  1.0609 -1.0000
21594SOL     OW68183   9.337   8.554   5.222 -0.1907 -0.0070 -0.1181
21594SOL    HW168184   9.427   8.584   5.234 -0.6432  2.2372 -1.5804
21594SOL    HW268185   9.291   8.584   5.301 -0.2974  1.8741 -0.8555
21595SOL     OW68186   5.598   4.997   1.863 -0.1811 -0.5803 -0.1179
21595SOL    HW168187   5.522   5.050   1.884  1.1282  1.2083  0.3090
21595SOL    HW268188   5.600   4.929   1.931 -1.1997 -0.4678  0.0381
21596SOL     OW68189   3.575   5.441   0.336  0.0540 -0.6712 -0.5732
21596SOL    HW168190   3.590   5.473   0.425 -0.0780 -0.3962 -0.6486
21596SOL    HW268191   3.625   5.360   0.332  1.0500 -0.0731 -0.6293
21597SOL     OW68192   1.058   5.548   5.019  0.5984  0.6151  0.4512
21597SOL    HW168193   1.056   5.570   4.926  1.4002  0.4617  0.3891
21597SOL    HW268194   1.077   5.632   5.063 -1.5364  1.0524  0.6360
21598SOL     OW68195   6.110   6.977   3.805 -0.2804  0.1292 -0.1792
21598SOL    HW168196   6.083   7.069   3.800 -1.4207 -0.2012 -0.3868
21598SOL    HW268197   6.131   6.964   3.898 -0.1193  0.5956 -0.1449
21599SOL     OW68198   1.443   2.050   5.379  0.3716  0.4250 -0.3606
21599SOL    HW168199   1.472   2.012   5.461 -1.3229 -0.0425  0.0530
21599SOL    HW268200   1.522   2.056   5.326  1.7800  2.0838  1.7906
21600SOL     OW68201  10.129   4.563   0.530  0.0927 -0.2430 -0.2868
21600SOL    HW168202  10.076   4.545   0.452  0.9980 -0.7794 -0.8048
21600SOL    HW268203  10.096   4.647   0.563 -0.9379 -0.4725 -0.6956
21601SOL     OW68204   3.030  10.838   2.235 -0.3963  0.6188  0.1379
21601SOL    HW168205   3.038  10.830   2.140  1.5456 -1.9847  0.4101
21601SOL    HW268206   3.053  10.929   2.253  2.3047  0.4352 -1.7202
21602SOL     OW68207   1.320  10.351   9.830  0.9965  0.0407 -0.0829
21602SOL    HW168208   1.346  10.432   9.873  0.8885 -0.4416  0.9266
21602SOL    HW268209   1.391  10.333   9.768  0.9438  0.9762 -0.4251
21603SOL     OW68210   0.614   2.208   6.296 -0.3137 -0.4377  0.7624
21603SOL    HW168211   0.623   2.292   6.340 -0.0814  2.1141 -3.5699
21603SOL    HW268212   0.699   2.166   6.306  0.5798  1.2533  0.5690
21604SOL     OW68213   6.521   4.397   4.153 -0.6123 -0.5462  0.6663
21604SOL    HW168214   6.505   4.462   4.222  0.5645  0.6649 -0.1531
21604SOL    HW268215   6.439   4.395   4.103 -0.2461  1.3930 -0.1205
21605SOL     OW68216   1.959   1.253   0.257  0.0612 -0.3566 -0.1696
21605SOL    HW168217   2.051   1.255   0.282  0.0188 -0.6689  0.0152
21605SOL    HW268218   1.929   1.165   0.281 -0.2615 -0.2855 -0.3062
21606SOL     OW68219   9.634  10.362   2.401 -0.2942 -0.7625  0.4714
21606SOL    HW168220   9.625  10.328   2.490  0.2630 -0.6515  0.5748
21606SOL    HW268221   9.553  10.410   2.385 -0.3306 -0.6471  0.9819
21607SOL     OW68222   1.114   3.945   7.660  0.9351  0.9819  0.0617
21607SOL    HW168223   1.054   3.871   7.669  1.1147  0.9587  1.1957
21607SOL    HW268224   1.184   3.928   7.723  1.5456  1.5816 -0.4305
21608SOL     OW68225   2.644   0.607   3.631  0.2908 -0.5766  0.5912
21608SOL    HW168226   2.684   0.680   3.678  1.1700 -1.2992  0.9997
21608SOL    HW268227   2.665   0.623   3.539  0.4105 -0.2771  0.6697
21609SOL     OW68228   3.960   8.681  10.391  0.4248 -0.3807  0.0138
21609SOL    HW168229   4.023   8.745  10.360  1.9938 -1.9080 -0.0907
21609SOL    HW268230   3.889   8.684  10.327  1.2013  0.1452 -0.8503
21610SOL     OW68231  10.432   5.439  10.701  0.7300 -0.6453  0.1102
21610SOL    HW168232  10.431   5.468  10.610  1.9395  0.0719  0.3059
21610SOL    HW268233  10.365   5.371  10.705  1.8239 -1.9440 -1.7344
21611SOL     OW68234   7.452   6.885   3.801 -0.4973 -0.2352 -0.7540
21611SOL    HW168235   7.507   6.827   3.854 -1.7869 -2.3578 -1.6016
21611SOL    HW268236   7.426   6.831   3.726 -2.8246  1.0121 -0.9327
21612SOL     OW68237   5.331   2.769   0.563  0.1894 -0.0980  0.4350
21612SOL    HW168238   5.239   2.784   0.541 -0.2421 -0.6549  1.7747
21612SOL    HW268239   5.379   2.837   0.515 -1.1248  1.6471  1.4614
21613SOL     OW68240   9.847  10.019   7.523  0.0894  0.2346 -0.1751
21613SOL    HW168241   9.814  10.051   7.438  1.6482  0.3115 -0.7738
21613SOL    HW268242   9.767  10.003   7.574 -0.8486  1.9121 -1.0076
21614SOL     OW68243   7.291   1.285   8.401  0.0031  0.2347 -0.5520
21614SOL    HW168244   7.263   1.198   8.371 -0.6127  0.1755  0.1544
21614SOL    HW268245   7.243   1.298   8.483  2.6655 -0.2198  1.1972
21615SOL     OW68246   1.440   6.057   0.993 -0.2211 -0.0935 -0.1249
21615SOL    HW168247   1.393   6.140   0.983 -1.3719 -0.4967  1.5414
21615SOL    HW268248   1.529   6.083   1.016 -0.3960  0.6848 -0.2902
21616SOL     OW68249   1.756   7.400  10.526 -0.5733  0.4765 -0.2006
21616SOL    HW168250   1.723   7.314  10.553 -1.8487  0.8275 -0.5737
21616SOL    HW268251   1.808   7.431  10.600 -0.9439 -0.1749  0.3348
21617SOL     OW68252   3.815   3.317   4.437  0.4009  0.0661 -0.0628
21617SOL    HW168253   3.753   3.328   4.509  0.1392 -0.3323 -0.2186
21617SOL    HW268254   3.776   3.247   4.383 -0.7630  2.0761 -2.0346
21618SOL     OW68255   1.452   3.101  10.414  0.1379  0.1394  0.2824
21618SOL    HW168256   1.385   3.034  10.428 -1.6691  1.9235  0.6137
21618SOL    HW268257   1.518   3.083  10.481  1.3727 -3.1304 -1.5427
21619SOL     OW68258   5.081   9.340   6.065  0.3835  0.6939  0.3748
21619SOL    HW168259   4.987   9.338   6.043  0.7529 -2.3695 -1.5691
21619SOL    HW268260   5.089   9.280   6.139  0.8007  1.0990  0.6610
21620SOL     OW68261   5.191  10.582   3.547  0.0561  0.1458  0.3610
21620SOL    HW168262   5.176  10.593   3.641  1.1237  0.2510  0.5346
21620SOL    HW268263   5.111  10.541   3.514  0.0038 -0.6628  1.4626
21621SOL     OW68264   5.389  10.216   9.054 -0.6467  0.1698 -0.0794
21621SOL    HW168265   5.316  10.155   9.065  1.4198 -2.1610  1.7684
21621SOL    HW268266   5.368  10.290   9.111 -1.3946 -0.6321  0.7005
21622SOL     OW68267   8.767   4.861  10.612 -0.1674 -0.5701  0.3220
21622SOL    HW168268   8.750   4.892  10.523  0.9304  0.1525  0.3463
21622SOL    HW268269   8.769   4.765  10.604 -0.9041 -0.5433 -0.2665
21623SOL     OW68270   0.805   1.673   4.465  0.4263 -0.7010  0.0498
21623SOL    HW168271   0.757   1.731   4.524  0.8196  0.0120 -0.3101
21623SOL    HW268272   0.740   1.644   4.401  0.5620  0.7207 -0.7804
21624SOL     OW68273   0.798   5.301   9.789  0.0852 -0.6286 -0.0834
21624SOL    HW168274   0.864   5.349   9.840  0.5427 -1.8397  0.4977
21624SOL    HW268275   0.740   5.370   9.755  1.8788  0.5276 -0.9735
21625SOL     OW68276   6.215   1.195  10.319  0.1048  0.5101  0.7983
21625SOL    HW168277   6.211   1.278  10.365  1.2381  0.5057  0.9321
21625SOL    HW268278   6.309   1.181  10.303 -0.0775 -0.6877  0.6902
21626SOL     OW68279   6.644   3.237   8.476 -0.3314 -0.3405 -0.2408
21626SOL    HW168280   6.688   3.284   8.547  1.6641 -2.0832 -0.2229
21626SOL    HW268281   6.567   3.290   8.456  0.6294  1.7472  1.2189
21627SOL     OW68282   4.111   7.693   3.778  0.6124 -0.1553 -0.3416
21627SOL    HW168283   4.201   7.681   3.747  1.2075  0.0519  1.1810
21627SOL    HW268284   4.094   7.616   3.832  0.9326  1.0521  1.6140
21628SOL     OW68285   1.305  10.789   4.733 -0.3255 -0.4663  0.4940
21628SOL    HW168286   1.368  10.849   4.773  0.1830 -1.1112  0.6814
21628SOL    HW268287   1.332  10.702   4.763  1.0282 -1.1874 -2.4245
21629SOL     OW68288   1.951   3.978   9.107  0.0331 -0.1420 -0.0572
21629SOL    HW168289   2.036   4.021   9.092 -0.3733  0.8818  0.4938
21629SOL    HW268290   1.968   3.886   9.089  0.4450  0.4337 -3.3351
21630SOL     OW68291   3.838   3.055   6.920  0.2631 -0.0057 -0.2471
21630SOL    HW168292   3.929   3.084   6.911  0.4898 -0.7221 -0.3300
21630SOL    HW268293   3.842   2.980   6.979 -0.1989 -0.4014 -0.7064
21631SOL     OW68294   5.536  10.709   2.676 -0.1319 -0.5109 -0.1480
21631SOL    HW168295   5.485  10.693   2.755  0.1142 -1.5203 -0.1785
21631SOL    HW268296   5.557  10.802   2.679 -0.0592 -0.5572  1.0070
21632SOL     OW68297  10.753   7.821   5.232 -0.1531 -0.3394 -0.1974
21632SOL    HW168298  10.848   7.819   5.220 -0.0507  0.9354  0.3299
21632SOL    HW268299  10.732   7.735   5.270  0.9398 -0.2198  0.7211
21633SOL     OW68300   9.820   9.502   3.864 -0.5096 -0.1133  0.5143
21633SOL    HW168301   9.879   9.539   3.798  2.5104 -3.7779  0.8581
21633SOL    HW268302   9.759   9.447   3.815 -0.3436 -0.3183  0.5368
21634SOL     OW68303   7.573  10.406   1.810  0.0525  0.2892 -0.2108
21634SOL    HW168304   7.566  10.410   1.906 -1.3349 -0.6576 -0.2382
21634SOL    HW268305   7.502  10.348   1.784 -0.4333  1.5733 -1.9218
21635SOL     OW68306   7.491   2.308   9.743  0.4889  0.2149 -0.2082
21635SOL    HW168307   7.547   2.248   9.791 -1.1630  1.0948  3.1384
21635SOL    HW268308   7.536   2.392   9.747  1.0936 -0.0044 -1.7186
21636SOL     OW68309   4.733   3.789   7.433 -0.4382 -0.2639 -0.4290
21636SOL    HW168310   4.666   3.791   7.501 -0.9828  0.4409 -0.9715
21636SOL    HW268311   4.709   3.860   7.373 -1.0251 -1.9485 -2.3391
21637SOL     OW68312  10.116   1.401   2.959  0.4011  0.2965 -0.3852
21637SOL    HW168313  10.162   1.361   2.884 -1.1493  0.0121 -1.2303
21637SOL    HW268314  10.107   1.493   2.935  1.9618  0.7383  0.5477
21638SOL     OW68315   7.122   0.727   6.812  0.2367  0.7009  0.4567
21638SOL    HW168316   7.186   0.759   6.748 -0.1990  0.1172 -0.2941
21638SOL    HW268317   7.171   0.671   6.871  0.2372 -0.7003 -0.8173
21639SOL     OW68318   1.691   1.139   4.416  0.0593  0.1206 -0.4748
21639SOL    HW168319   1.598   1.135   4.398  0.4103 -1.1214 -2.1868
21639SOL    HW268320   1.733   1.139   4.330  1.7415 -2.9043  0.1926
21640SOL     OW68321   0.520   0.880   6.684  0.4684  0.3933  0.4512
21640SOL    HW168322   0.596   0.902   6.629 -0.1599  1.0730 -0.1664
21640SOL    HW268323   0.523   0.943   6.755  0.9514 -0.1208  0.9028
21641SOL     OW68324   7.954  10.702   1.244 -0.3950  0.1716 -0.1456
21641SOL    HW168325   8.040  10.732   1.273 -0.8601  1.8996 -0.4207
21641SOL    HW268326   7.971  10.617   1.203  0.4743 -1.7822  3.8116
21642SOL     OW68327   5.683   3.402   8.656  0.3020  0.2988 -0.0991
21642SOL    HW168328   5.603   3.428   8.701  0.5959  0.4688  0.3308
21642SOL    HW268329   5.750   3.399   8.724  0.8232  0.8723 -0.5665
21643SOL     OW68330   0.196   0.043   5.255  0.6700 -0.0799 -0.0738
21643SOL    HW168331   0.275   0.032   5.201  1.1609 -0.3343  0.6839
21643SOL    HW268332   0.127   0.002   5.203  0.8617  0.8636 -1.1162
21644SOL     OW68333   2.979   7.077   3.616 -0.7668  0.1348  0.0745
21644SOL    HW168334   2.968   7.172   3.614 -2.4835  0.0116  1.2039
21644SOL    HW268335   2.923   7.048   3.688 -0.5145 -1.7708 -0.4399
21645SOL     OW68336   4.569   0.365   3.357 -0.7029  0.4662 -0.2159
21645SOL    HW168337   4.650   0.338   3.400 -0.7191 -0.4388 -0.7221
21645SOL    HW268338   4.509   0.385   3.429 -0.9536 -1.6959  0.2623
21646SOL     OW68339   0.493   8.893   5.274 -0.6960  0.8814  0.3074
21646SOL    HW168340   0.417   8.835   5.275 -0.0322 -0.0210  0.6961
21646SOL    HW268341   0.538   8.872   5.192  0.1795 -0.0466  0.9920
21647SOL     OW68342   6.806   3.711   7.771 -0.5804 -0.0622  0.0532
21647SOL    HW168343   6.847   3.742   7.852  0.7749 -0.3685 -0.4795
21647SOL    HW268344   6.779   3.790   7.726  1.2510  0.3150 -0.4781
21648SOL     OW68345   2.433   0.738   4.177 -0.1141  0.4092  0.3215
21648SOL    HW168346   2.444   0.651   4.215 -0.4885 -1.0497 -2.6441
21648SOL    HW268347   2.516   0.783   4.195  0.9189 -1.3429  0.1266
21649SOL     OW68348   7.497   3.825   0.944  0.2511  0.0857  0.8324
21649SOL    HW168349   7.422   3.870   0.905  0.4455 -0.4714 -0.2069
21649SOL    HW268350   7.458   3.762   1.005 -0.0693  0.6998  1.2713
21650SOL     OW68351   3.737   1.067   1.085  0.5912  0.2354 -0.0174
21650SOL    HW168352   3.650   1.053   1.048  0.1085  1.4496  0.5778
21650SOL    HW268353   3.759   0.984   1.126 -0.5000  0.0361  0.2079
21651SOL     OW68354   1.672   0.198   9.330 -0.1799  0.4605 -0.2990
21651SOL    HW168355   1.724   0.118   9.323 -1.3375 -0.3522 -0.1062
21651SOL    HW268356   1.735   0.268   9.346  1.2245  0.1795 -3.8009
21652SOL     OW68357   6.844   3.104   8.213  0.1024 -0.2910 -0.2002
21652SOL    HW168358   6.886   3.096   8.128  0.4964  1.1157 -0.1692
21652SOL    HW268359   6.760   3.147   8.195 -0.2412 -0.8605  0.0158
21653SOL     OW68360   9.732   3.425   1.796  0.0526 -0.0597 -0.2322
21653SOL    HW168361   9.739   3.329   1.803 -1.2712 -0.1526  0.0318
21653SOL    HW268362   9.639   3.441   1.782  0.6645  0.9618 -4.5168
21654SOL     OW68363   6.618   6.967   9.919  0.3427  0.2704  0.7782
21654SOL    HW168364   6.640   7.059   9.904 -1.2476  0.7534  1.1239
21654SOL    HW268365   6.547   6.970   9.983  0.0523 -1.1829  0.5647
21655SOL     OW68366   9.510   4.276   6.885 -0.2378  0.2435  0.0035
21655SOL    HW168367   9.580   4.259   6.822 -0.4329  0.1416 -0.1872
21655SOL    HW268368   9.487   4.189   6.919  2.2559  0.5620  2.8269
21656SOL     OW68369   4.546   3.105   9.734 -0.3485  0.1088  0.0693
21656SOL    HW168370   4.503   3.164   9.672 -1.8197 -1.0997 -0.1220
21656SOL    HW268371   4.638   3.128   9.730 -0.7527  1.6848 -0.7596
21657SOL     OW68372   7.576   4.752   8.976  0.3741 -0.1797 -0.4725
21657SOL    HW168373   7.509   4.820   8.986  0.9012  0.5235 -1.5813
21657SOL    HW268374   7.541   4.695   8.907  0.0924 -0.8560  0.2155
21658SOL     OW68375  10.756   3.812   8.016  0.2274 -0.1801  0.2690
21658SOL    HW168376  10.685   3.810   8.081  1.0580 -1.5858  1.1815
21658SOL    HW268377  10.743   3.733   7.964 -1.0399  1.4300 -2.0456
21659SOL     OW68378   1.369   8.656   8.586  0.2715 -0.3325  0.2378
21659SOL    HW168379   1.430   8.678   8.656  0.0123  0.4838  0.2254
21659SOL    HW268380   1.303   8.600   8.627 -0.6872  1.3028  1.0362
21660SOL     OW68381   1.335   8.168   0.481  0.0675  0.0747  0.0487
21660SOL    HW168382   1.297   8.180   0.568  2.4535  0.3618  1.1399
21660SOL    HW268383   1.425   8.139   0.498  0.6386  0.2406 -2.3255
21661SOL     OW68384   2.916   8.035   3.171  0.1237  0.5791 -1.0680
21661SOL    HW168385   2.984   7.985   3.216 -0.7377  0.0476 -0.3200
21661SOL    HW268386   2.870   7.969   3.118 -0.4604  0.7291 -0.7565
21662SOL     OW68387   4.460   5.688   6.587  0.3497  0.0741 -0.4061
21662SOL    HW168388   4.527   5.659   6.526  0.2415  1.6610 -1.3369
21662SOL    HW268389   4.509   5.732   6.657  0.4844 -1.8580  0.7992
21663SOL     OW68390   2.917   8.984   6.153 -0.2207  0.0316  0.4179
21663SOL    HW168391   2.851   9.032   6.203  0.1067  0.6741  0.2445
21663SOL    HW268392   2.926   8.900   6.199 -0.1637  0.4801  1.2404
21664SOL     OW68393   4.336   7.589   4.959 -0.2193 -0.0475 -0.0636
21664SOL    HW168394   4.399   7.565   4.891 -1.7575 -0.9884 -1.2020
21664SOL    HW268395   4.366   7.676   4.988  0.9564  0.0169 -1.3315
21665SOL     OW68396   3.014   7.969   9.508 -0.1679  0.5206  0.7469
21665SOL    HW168397   3.059   8.039   9.459  0.7954  0.0704  0.9544
21665SOL    HW268398   2.965   8.015   9.576 -2.1773  1.2270 -1.0757
21666SOL     OW68399   5.145  10.451   6.926 -0.2138  0.1588 -0.0913
21666SOL    HW168400   5.133  10.445   7.021 -1.6299 -0.3562 -0.2858
21666SOL    HW268401   5.226  10.501   6.916 -1.0643  1.9535  1.3857
21667SOL     OW68402   9.304   1.216   4.658  0.3411  0.2414 -0.0505
21667SOL    HW168403   9.291   1.138   4.711 -0.5767  0.5022  0.1307
21667SOL    HW268404   9.344   1.279   4.717 -0.7950  0.5741  0.3979
21668SOL     OW68405  10.441   8.531   3.846  0.2608  0.5382  0.1154
21668SOL    HW168406  10.447   8.562   3.936  0.0124  0.2418  0.2405
21668SOL    HW268407  10.439   8.610   3.792  1.4641  0.6966  0.2953
21669SOL     OW68408   4.432   5.297   5.955 -0.7346 -0.1406  0.2795
21669SOL    HW168409   4.487   5.274   5.880 -0.0515  0.8966  0.4502
21669SOL    HW268410   4.353   5.334   5.916  0.1671  1.6421  0.0550
21670SOL     OW68411   5.057   4.114   1.051 -0.6370 -0.5860 -0.2829
21670SOL    HW168412   4.966   4.138   1.069 -0.2968 -0.4364  1.3125
21670SOL    HW268413   5.060   4.105   0.956 -2.0950  0.3234 -0.4528
21671SOL     OW68414  10.090   1.191   9.009  0.2895  0.0118  0.6621
21671SOL    HW168415  10.026   1.262   9.017 -0.3926 -0.4023 -0.8271
21671SOL    HW268416  10.037   1.112   9.000  1.0375 -0.5739  1.2612
21672SOL     OW68417   1.774   9.869   4.305 -0.0853  0.0791 -0.2481
21672SOL    HW168418   1.756   9.960   4.329  0.1688 -0.0937  0.6413
21672SOL    HW268419   1.783   9.824   4.389  0.9482 -0.5380 -0.6659
21673SOL     OW68420   8.416   9.905  10.878 -0.1046 -0.4613  0.0849
21673SOL    HW168421   8.356   9.978  10.881 -1.5296 -1.6280  1.5536
21673SOL    HW268422   8.480   9.929  10.810 -1.6552  1.2232 -0.8585
21674SOL     OW68423   9.507   6.060   9.410  0.1822  0.2920 -0.0817
21674SOL    HW168424   9.573   6.121   9.441  0.5053  0.5982 -1.3249
21674SOL    HW268425   9.444   6.054   9.482 -0.4861  2.9863 -0.3541
21675SOL     OW68426   1.292   8.969   8.881  0.1223 -0.5763 -0.3505
21675SOL    HW168427   1.344   8.938   8.955 -0.6381 -1.8416 -0.3185
21675SOL    HW268428   1.303   8.903   8.814  0.7491  0.5279 -1.3839
21676SOL     OW68429   6.882   1.421   9.073  0.5674 -0.0529  0.2190
21676SOL    HW168430   6.883   1.514   9.096  3.1464  0.3462 -1.1325
21676SOL    HW268431   6.862   1.420   8.980 -1.5198 -1.0604  0.6257
21677SOL     OW68432   0.883   3.066   0.405  0.6244  0.0315 -0.2829
21677SOL    HW168433   0.920   3.079   0.318 -0.0011 -0.2911 -0.6017
21677SOL    HW268434   0.930   3.128   0.461 -1.2044  2.6736 -1.4340
21678SOL     OW68435   8.079   8.358   0.363  0.1634  0.3576 -0.3053
21678SOL    HW168436   8.044   8.368   0.452  0.6202  0.9448 -0.1875
21678SOL    HW268437   8.022   8.293   0.322 -1.7580  2.0607 -0.4811
21679SOL     OW68438   3.400   3.346   3.561 -0.0010  0.1254 -0.2067
21679SOL    HW168439   3.449   3.371   3.483  1.8265  0.3983  0.9569
21679SOL    HW268440   3.400   3.425   3.616  0.4807 -0.6096  0.8888
21680SOL     OW68441   5.028   1.524  10.811 -0.2431  0.1573 -0.1020
21680SOL    HW168442   5.034   1.463  10.737 -0.7519  2.1957 -1.9531
21680SOL    HW268443   4.938   1.516  10.842  0.1538 -1.1868  0.8018
21681SOL     OW68444   9.313   8.208   6.225 -0.4434 -0.4076 -0.3327
21681SOL    HW168445   9.335   8.215   6.132  1.8614  0.4143  0.2076
21681SOL    HW268446   9.370   8.272   6.268 -1.3944 -0.8238  1.6743
21682SOL     OW68447   9.947  10.376   7.525  0.0447  0.5703 -0.1357
21682SOL    HW168448   9.854  10.359   7.539  0.0100 -2.7122 -3.0500
21682SOL    HW268449   9.992  10.302   7.564  1.4648  1.8603  0.7971
21683SOL     OW68450   5.132   8.406   5.889  0.2946  0.2956 -0.3707
21683SOL    HW168451   5.137   8.317   5.924  0.8125  0.2157 -0.6362
21683SOL    HW268452   5.151   8.462   5.964 -2.5207  0.3289  0.4321
21684SOL     OW68453   0.508   1.471   9.231  0.0364 -0.0020 -0.7167
21684SOL    HW168454   0.560   1.462   9.311  0.6247 -1.5835 -1.2408
21684SOL    HW268455   0.549   1.543   9.183  0.8667 -0.2951 -0.4565
21685SOL     OW68456   3.887   8.409   2.005  0.0893  0.4894 -0.0444
21685SOL    HW168457   3.932   8.491   1.986 -0.8868  1.1560  0.4361
21685SOL    HW268458   3.798   8.421   1.971 -0.6715  0.4243  1.7564
21686SOL     OW68459   9.430   1.095   4.444  0.1102  0.3194  0.3263
21686SOL    HW168460   9.366   1.152   4.486 -0.2026 -0.1245  0.4589
21686SOL    HW268461   9.514   1.126   4.477 -0.0625  0.6697  0.4391
21687SOL     OW68462   3.688   9.973  10.296 -0.2747  0.1922 -0.1241
21687SOL    HW168463   3.729  10.059  10.286  3.2961 -1.3294  0.1372
21687SOL    HW268464   3.627   9.984  10.369  0.9082  2.2415  0.6455
21688SOL     OW68465   2.469   9.465   7.647  0.1556 -0.3490 -0.0172
21688SOL    HW168466   2.399   9.401   7.630 -0.6702  0.7899 -1.0430
21688SOL    HW268467   2.521   9.465   7.567  0.4393 -0.0759  0.1664
21689SOL     OW68468   8.815   5.488   5.959  0.1063  0.6536  0.5090
21689SOL    HW168469   8.815   5.393   5.944  0.1222  0.9054 -1.2520
21689SOL    HW268470   8.812   5.497   6.054 -0.2218 -1.1118  0.6971
21690SOL     OW68471   9.162   3.410   3.911  0.0542  0.4096  0.1985
21690SOL    HW168472   9.084   3.362   3.883  1.3078 -0.9345 -1.1544
21690SOL    HW268473   9.179   3.376   3.999  0.8060 -1.5736 -0.6608
21691SOL     OW68474   7.063   1.212   0.015  0.2358 -0.5088  0.2386
21691SOL    HW168475   7.088   1.296   0.053 -0.7096 -0.4506  0.7428
21691SOL    HW268476   7.052   1.230  -0.079 -0.1627 -0.0306  0.3785
21692SOL     OW68477  10.623   9.833   9.571  0.1530  0.1984 -0.1351
21692SOL    HW168478  10.678   9.754   9.575  0.1632  0.2048 -0.1522
21692SOL    HW268479  10.671   9.898   9.623  1.5398  1.0517 -2.3656
21693SOL     OW68480   8.875   1.861   5.609  0.0100 -0.5126 -0.2633
21693SOL    HW168481   8.821   1.936   5.583  0.2537 -0.3393 -0.2678
21693SOL    HW268482   8.814   1.802   5.652  0.0127  0.1487  0.6770
21694SOL     OW68483   0.059  10.394   0.833 -0.1662  0.5934  0.6686
21694SOL    HW168484   0.103  10.373   0.915 -0.8151 -0.9604  0.6581
21694SOL    HW268485   0.019  10.312   0.805 -0.8616  1.3377 -0.6627
21695SOL     OW68486   4.357   5.363   2.997 -0.1536 -0.1712 -0.2587
21695SOL    HW168487   4.335   5.452   3.024 -0.2187 -0.5840  1.1056
21695SOL    HW268488   4.275   5.314   3.003  0.2944 -0.7975  1.0336
21696SOL     OW68489   2.202   7.086   0.840  0.2238 -0.3068  0.0357
21696SOL    HW168490   2.229   7.156   0.899 -1.0382 -0.5526  0.9551
21696SOL    HW268491   2.143   7.128   0.778  0.3380 -0.3424 -0.0977
21697SOL     OW68492   5.092   2.989   0.785  0.5462  0.4245  0.4941
21697SOL    HW168493   5.179   3.002   0.823  0.1132  0.4759  1.4847
21697SOL    HW268494   5.093   3.043   0.706  2.1284 -1.1761 -0.6645
21698SOL     OW68495   1.893   9.991   3.197 -0.0959 -0.1003 -0.2884
21698SOL    HW168496   1.956  10.031   3.137 -0.9171  1.4620 -0.1591
21698SOL    HW268497   1.940   9.985   3.281 -0.1809  1.3150 -0.1182
21699SOL     OW68498   1.669   7.361   6.326  0.0003  0.1078  0.4305
21699SOL    HW168499   1.700   7.271   6.335 -0.1288 -0.0969 -0.9167
21699SOL    HW268500   1.575   7.357   6.345 -0.5439 -0.5523 -2.0103
21700SOL     OW68501   4.048   3.993   8.154 -0.0791 -0.4754 -0.1775
21700SOL    HW168502   3.986   4.052   8.198 -2.1003 -1.4286 -1.6064
21700SOL    HW268503   4.105   3.962   8.225 -1.7918 -0.2398  1.3849
21701SOL     OW68504   6.470   5.809   9.560 -0.1172 -0.1497 -0.1047
21701SOL    HW168505   6.385   5.804   9.602  0.0589 -0.4636  0.2236
21701SOL    HW268506   6.529   5.841   9.628 -0.4450  2.6513 -1.0425
21702SOL     OW68507   8.010   5.241   0.341 -0.0798  0.3285 -0.3235
21702SOL    HW168508   7.999   5.171   0.277 -1.4847 -0.5077  0.7628
21702SOL    HW268509   7.924   5.282   0.347 -0.6344 -1.0441  2.5754
21703SOL     OW68510   0.877  10.744  10.482 -0.1427  0.4622  0.1620
21703SOL    HW168511   0.884  10.726  10.388  0.0516 -0.8341  0.4033
21703SOL    HW268512   0.882  10.658  10.523 -0.4305  0.9955  1.3573
21704SOL     OW68513   9.413   0.456   6.637 -0.1705  0.1945  0.2213
21704SOL    HW168514   9.443   0.466   6.727 -1.0214 -0.4266  0.5871
21704SOL    HW268515   9.400   0.362   6.626 -1.2102  0.3668 -0.1657
21705SOL     OW68516   5.856  10.864   2.658  0.0782 -0.5334  0.3533
21705SOL    HW168517   5.829  10.790   2.604 -2.8111  1.3292 -0.9578
21705SOL    HW268518   5.796  10.864   2.733 -0.2944  0.7341  0.0834
21706SOL     OW68519  10.518   7.016   2.671  0.0944 -0.2702  0.2542
21706SOL    HW168520  10.465   7.041   2.595  2.2276 -0.0614 -1.2586
21706SOL    HW268521  10.482   6.932   2.699 -0.8029 -0.3092 -0.9241
21707SOL     OW68522   8.805   7.886  10.040 -0.4835  0.1314 -0.3920
21707SOL    HW168523   8.786   7.810  10.095 -0.2412 -0.2800 -0.8795
21707SOL    HW268524   8.764   7.867   9.956 -1.2128  0.9461 -0.2408
21708SOL     OW68525   0.956   7.816   0.597  0.1522  0.0967 -0.3644
21708SOL    HW168526   0.926   7.768   0.674  1.0624  0.4735  0.2463
21708SOL    HW268527   1.007   7.753   0.548  0.7185  0.2249  0.0523
21709SOL     OW68528   6.079   2.516   5.306  0.3129 -0.5073 -0.1322
21709SOL    HW168529   6.064   2.434   5.352 -0.1825 -0.5815 -0.4196
21709SOL    HW268530   6.086   2.582   5.375  3.1095 -1.1080  0.2583
21710SOL     OW68531   5.730   0.012   8.618 -0.2679  0.4408  0.4483
21710SOL    HW168532   5.762  -0.008   8.530 -1.2923 -0.9081  0.3537
21710SOL    HW268533   5.771  -0.053   8.675  0.2690  1.2103  0.9607
21711SOL     OW68534   9.096   9.227   1.707  0.0292 -0.4170  0.1474
21711SOL    HW168535   9.169   9.226   1.645 -1.1609 -0.2050 -1.3212
21711SOL    HW268536   9.057   9.314   1.697 -1.9223 -1.3560 -0.9624
21712SOL     OW68537   8.974   4.966   8.470 -0.2137 -0.3085 -0.4846
21712SOL    HW168538   9.021   5.031   8.522  0.5154  0.1096 -1.6320
21712SOL    HW268539   9.027   4.887   8.477 -0.2595 -0.3287 -0.3669
21713SOL     OW68540   5.556   0.384   6.544  0.5095 -0.0548 -0.0142
21713SOL    HW168541   5.516   0.460   6.587  1.8891  0.0199  1.2703
21713SOL    HW268542   5.649   0.407   6.536  1.0497 -1.7356  0.7874
21714SOL     OW68543   0.441   1.910   9.858  0.0514 -0.0036  0.1741
21714SOL    HW168544   0.438   1.998   9.897 -1.4781  0.5350 -1.0509
21714SOL    HW268545   0.482   1.923   9.772 -1.5184 -0.1785 -0.6418
21715SOL     OW68546   0.178   9.902   2.096  0.0811 -0.1942  0.1493
21715SOL    HW168547   0.246   9.845   2.060  0.4360  0.6916 -0.6283
21715SOL    HW268548   0.192   9.899   2.190  1.9059  0.8008 -0.0405
21716SOL     OW68549   2.126   9.601   4.931  0.1372 -0.2913  0.1876
21716SOL    HW168550   2.089   9.687   4.954 -0.8209 -0.6419  0.0238
21716SOL    HW268551   2.049   9.544   4.925  0.6845 -0.9542 -0.5874
21717SOL     OW68552   8.542   5.303   5.734 -0.6388 -0.1459 -0.6026
21717SOL    HW168553   8.595   5.311   5.655 -0.1342  0.2726 -0.2263
21717SOL    HW268554   8.536   5.208   5.749 -1.4285 -0.2720 -1.5890
21718SOL     OW68555   7.108  10.604   5.735 -0.7156  0.3224 -0.1652
21718SOL    HW168556   7.099  10.681   5.791 -2.1958 -0.6072  0.9332
21718SOL    HW268557   7.097  10.530   5.794  0.7421 -0.7593 -1.1900
21719SOL     OW68558  10.198   0.690   9.901  0.2502  0.0716  0.0376
21719SOL    HW168559  10.146   0.640   9.838 -0.6056  2.6180 -1.4126
21719SOL    HW268560  10.149   0.771   9.914  2.3356  1.2634  1.0371
21720SOL     OW68561  10.771   1.141   9.686  0.5681 -0.0817 -0.2220
21720SOL    HW168562  10.745   1.134   9.595 -0.1561 -0.4205  0.0068
21720SOL    HW268563  10.734   1.225   9.716  0.6784 -0.0413 -0.1966
21721SOL     OW68564   3.127   0.603   2.824  0.2018  0.2684 -0.2916
21721SOL    HW168565   3.157   0.579   2.737  0.5217  0.0205 -0.1138
21721SOL    HW268566   3.145   0.527   2.878 -3.0057 -0.9313 -0.6572
21722SOL     OW68567   8.276  10.825   2.178  0.3186  0.3100 -0.0023
21722SOL    HW168568   8.286  10.792   2.088 -0.7964  3.1643 -1.2942
21722SOL    HW268569   8.182  10.822   2.194  0.3914  0.9403  0.6051
21723SOL     OW68570   3.512   8.106   8.256  0.2124  0.2662  0.1756
21723SOL    HW168571   3.553   8.092   8.342  0.8644  3.0552  0.4126
21723SOL    HW268572   3.579   8.076   8.194  0.0044 -1.1442  0.5830
21724SOL     OW68573   1.211   7.567  10.318  0.7720  1.0023 -0.0611
21724SOL    HW168574   1.296   7.610  10.306  1.5191 -0.4578 -0.1282
21724SOL    HW268575   1.179   7.552  10.228  1.4493 -0.3804 -0.0822
21725SOL     OW68576   8.010   3.653   7.233  0.2232  0.1408 -0.2709
21725SOL    HW168577   8.104   3.661   7.214  0.0996  2.1799 -0.3187
21725SOL    HW268578   8.005   3.659   7.328  0.1597 -0.0938 -0.2607
21726SOL     OW68579   0.353   2.057   9.043  0.3972  0.1114  0.0456
21726SOL    HW168580   0.446   2.081   9.050  0.2898  0.3131  0.9793
21726SOL    HW268581   0.353   1.962   9.031  0.7085 -0.0441  1.1399
21727SOL     OW68582   6.953   4.423   0.039  0.3049 -0.0094 -0.0185
21727SOL    HW168583   7.023   4.436   0.103  0.8214 -0.5815 -0.4502
21727SOL    HW268584   6.930   4.511   0.009  2.1416  0.1051 -1.2377
21728SOL     OW68585   3.178   1.653   3.383  0.2324  0.2372 -0.2620
21728SOL    HW168586   3.213   1.702   3.457 -0.1635  1.0902 -0.6273
21728SOL    HW268587   3.114   1.712   3.343 -1.6447 -1.2401  0.3918
21729SOL     OW68588   5.818   3.964   5.528 -0.4668 -0.1101  0.3900
21729SOL    HW168589   5.741   3.921   5.565  0.7161 -2.6319  0.1155
21729SOL    HW268590   5.821   4.050   5.571 -2.4924 -0.5827  1.5894
21730SOL     OW68591  10.536   5.967   8.121 -0.4659  0.6313  0.3994
21730SOL    HW168592  10.616   5.958   8.173 -0.1252 -0.0060 -0.2217
21730SOL    HW268593  10.468   5.988   8.185 -0.1904 -0.8053  1.2131
21731SOL     OW68594   8.687   8.052   9.257 -0.1954 -0.1252  0.3806
21731SOL    HW168595   8.754   8.033   9.191 -1.8237 -0.5014 -1.2545
21731SOL    HW268596   8.604   8.028   9.215 -1.7399  3.4280  0.9849
21732SOL     OW68597   6.140   2.940   8.694 -0.0050 -0.5677  0.0774
21732SOL    HW168598   6.140   2.844   8.695 -0.5343 -0.5793 -0.3072
21732SOL    HW268599   6.188   2.964   8.615 -2.2126 -0.5892 -1.3855
21733SOL     OW68600   5.212   1.721   1.440 -0.4708  0.2707  0.5785
21733SOL    HW168601   5.270   1.703   1.514  0.3959  0.5207 -0.0190
21733SOL    HW268602   5.232   1.653   1.376 -2.1936 -0.7737  1.0766
21734SOL     OW68603   6.105   5.465   1.787 -0.4773 -0.1063  0.0563
21734SOL    HW168604   6.174   5.407   1.754 -0.8702  0.3909 -1.7728
21734SOL    HW268605   6.029   5.408   1.797  0.2107 -0.7172  2.3638
21735SOL     OW68606   7.694   8.528   4.000  0.3179  0.1164 -0.1976
21735SOL    HW168607   7.650   8.446   3.978  1.4951 -0.9835  1.3205
21735SOL    HW268608   7.724   8.562   3.915 -0.3108 -0.9459 -0.8705
21736SOL     OW68609   7.862   0.791   5.307  0.3173  0.1176  0.0066
21736SOL    HW168610   7.777   0.828   5.285  0.7937  1.1941 -0.0798
21736SOL    HW268611   7.900   0.852   5.370  0.7128 -0.7502  0.6407
21737SOL     OW68612  10.379   7.516   4.784 -0.1206 -0.5753  0.1708
21737SOL    HW168613  10.389   7.583   4.716 -2.2198 -0.1346  0.2095
21737SOL    HW268614  10.452   7.531   4.843  0.8954  0.0179 -1.1758
21738SOL     OW68615   5.405   3.158   6.231  0.1215  0.0714  0.5931
21738SOL    HW168616   5.462   3.112   6.293  0.6520  2.2843  1.8700
21738SOL    HW268617   5.323   3.171   6.278 -1.0858 -1.9508 -0.7822
21739SOL     OW68618   7.358   4.692   9.449 -0.4753  0.3423 -0.4475
21739SOL    HW168619   7.349   4.630   9.377  2.8355 -0.5447 -0.2755
21739SOL    HW268620   7.309   4.654   9.521 -0.8829 -0.5886 -1.2078
21740SOL     OW68621   4.140   4.915   1.051  0.4281 -0.6040  0.3486
21740SOL    HW168622   4.083   4.983   1.087 -0.8864 -0.9915 -0.9114
21740SOL    HW268623   4.198   4.963   0.991 -0.5562 -0.5672 -0.6086
21741SOL     OW68624   7.890   4.560   7.578  0.8309 -0.4193 -0.0303
21741SOL    HW168625   7.852   4.538   7.663  0.5276  1.0446  0.2361
21741SOL    HW268626   7.830   4.522   7.514  1.3852 -2.0611  0.3899
21742SOL     OW68627   2.376   2.473   2.727 -0.0992 -0.5611  0.0463
21742SOL    HW168628   2.377   2.553   2.675 -0.5175 -0.7371 -0.2386
21742SOL    HW268629   2.464   2.468   2.765 -0.0008 -0.0865 -0.1122
21743SOL     OW68630   2.133   0.537   8.457 -0.3108 -0.0683  0.1997
21743SOL    HW168631   2.071   0.465   8.445  1.2242 -1.4941  0.3796
21743SOL    HW268632   2.080   0.616   8.450 -2.1551 -1.2165  0.5165
21744SOL     OW68633   7.346   8.373   2.057  0.3464  0.4474  0.7897
21744SOL    HW168634   7.318   8.381   1.966  1.7058 -0.8064  0.2150
21744SOL    HW268635   7.442   8.369   2.052  0.3945 -1.6873  2.0429
21745SOL     OW68636   6.268   0.818   2.823  0.1448  0.6157  0.3979
21745SOL    HW168637   6.272   0.724   2.839  2.0296  0.8213  1.4541
21745SOL    HW268638   6.313   0.831   2.740 -1.1876  0.4869 -0.3614
21746SOL     OW68639   5.240   7.911   2.546  0.4561 -0.2970  0.6115
21746SOL    HW168640   5.299   7.859   2.492  0.9896  0.5007  0.4014
21746SOL    HW268641   5.166   7.854   2.563  0.2297 -0.5439 -1.0364
21747SOL     OW68642   6.244  10.793   8.897 -0.5063 -0.0590 -0.4889
21747SOL    HW168643   6.237  10.886   8.919  1.3290 -0.1095  0.5711
21747SOL    HW268644   6.238  10.748   8.982  1.9312 -0.6195 -0.5453
21748SOL     OW68645   9.000   9.643   8.761 -0.1959  0.2765  0.1809
21748SOL    HW168646   8.976   9.604   8.845  0.8301 -0.3604  0.1933
21748SOL    HW268647   8.983   9.575   8.697 -0.4016  0.5512 -0.0580
21749SOL     OW68648   9.794   0.030   4.078 -0.2688 -0.0208  0.1586
21749SOL    HW168649   9.718   0.046   4.134 -0.6289 -2.8191  0.6231
21749SOL    HW268650   9.768  -0.044   4.024  0.7156  1.5059 -2.5686
21750SOL     OW68651   5.394   8.978   1.633 -0.0530 -0.0562  0.0670
21750SOL    HW168652   5.320   9.034   1.610  0.7287  0.5869 -0.9902
21750SOL    HW268653   5.459   9.039   1.669  0.6300 -0.3213 -0.6695
21751SOL     OW68654   1.199   5.813   6.600  0.0603  0.7136 -0.1592
21751SOL    HW168655   1.185   5.830   6.507 -0.4423  0.0506 -0.2186
21751SOL    HW268656   1.250   5.887   6.631  1.6714  0.1594 -1.3242
21752SOL     OW68657   4.374   3.164   8.641  0.0267 -0.0553 -0.6571
21752SOL    HW168658   4.381   3.091   8.579 -0.5256 -1.0461  0.4027
21752SOL    HW268659   4.340   3.236   8.589  1.5209 -0.2424 -1.9549
21753SOL     OW68660   8.619   7.124   9.063  0.4772  0.5145  0.2119
21753SOL    HW168661   8.702   7.122   9.016 -0.6420  1.1739 -1.9166
21753SOL    HW268662   8.597   7.032   9.079  1.0064  0.2882 -0.3418
21754SOL     OW68663   3.162  10.832   6.210 -0.8274 -0.4947  0.3794
21754SOL    HW168664   3.144  10.860   6.300 -0.5637 -0.5257  0.4409
21754SOL    HW268665   3.257  10.828   6.204 -0.8302  0.1126 -0.0900
21755SOL     OW68666   3.417   5.884   0.195 -0.0063 -0.2594  0.2395
21755SOL    HW168667   3.325   5.891   0.172  0.1464 -0.2691 -0.3718
21755SOL    HW268668   3.432   5.956   0.256 -0.7300 -1.0300  1.3829
21756SOL     OW68669   0.249   2.356   3.964  0.1754  0.3609 -0.1373
21756SOL    HW168670   0.186   2.384   4.030 -0.0820 -0.5861  0.0194
21756SOL    HW268671   0.217   2.272   3.933  0.6685  0.4724 -0.9838
21757SOL     OW68672   5.505   2.689   7.114 -0.2879 -0.3917 -0.7974
21757SOL    HW168673   5.514   2.600   7.079  0.0747 -0.6468 -0.0735
21757SOL    HW268674   5.451   2.735   7.050 -1.5755 -1.4991 -0.5363
21758SOL     OW68675   2.626   4.966   0.382 -0.1899 -0.1842 -0.1391
21758SOL    HW168676   2.720   4.977   0.364  0.0424  0.6676  1.4338
21758SOL    HW268677   2.593   5.055   0.392 -0.7992 -0.5175  0.9664
21759SOL     OW68678   3.513   1.212   2.492  0.0279  0.5498 -0.2394
21759SOL    HW168679   3.512   1.165   2.576  1.3164  0.3057 -0.3427
21759SOL    HW268680   3.603   1.204   2.461 -0.5304  0.2231 -1.8918
21760SOL     OW68681   3.640   5.135   7.330 -0.0317  0.5037  0.2406
21760SOL    HW168682   3.721   5.138   7.381  0.3112  1.7448 -0.3328
21760SOL    HW268683   3.613   5.043   7.333  0.4963  0.3741  1.8168
21761SOL     OW68684   3.387   3.014   1.399 -0.0311 -0.4617  0.6174
21761SOL    HW168685   3.447   3.088   1.413 -1.0900  0.9561 -1.7243
21761SOL    HW268686   3.442   2.947   1.358  0.8019 -0.7931  2.1901
21762SOL     OW68687   8.967   4.415   9.858  0.1182  0.2720 -0.1657
21762SOL    HW168688   9.029   4.447   9.792  0.7040 -0.2562  0.1181
21762SOL    HW268689   8.995   4.457   9.940  0.4726 -0.4179  0.0766
21763SOL     OW68690   1.844   4.280   8.744 -0.1132  0.1932  0.1014
21763SOL    HW168691   1.809   4.202   8.787 -0.6482 -0.7359 -1.8752
21763SOL    HW268692   1.770   4.316   8.696  0.6635  0.5956 -0.8322
21764SOL     OW68693   5.446   3.219   9.760  0.4242 -0.6245  0.1580
21764SOL    HW168694   5.373   3.271   9.793  0.0811 -1.5694  0.9363
21764SOL    HW268695   5.485   3.273   9.691 -0.0955  0.5274  0.7399
21765SOL     OW68696   4.627   0.006   0.164  0.3185 -0.5545 -0.2789
21765SOL    HW168697   4.706   0.056   0.186 -0.8619  1.0609  0.5337
21765SOL    HW268698   4.608   0.031   0.073  0.1666 -0.1244 -0.1313
21766SOL     OW68699   7.289   6.896   4.303 -0.5115  0.0550  0.4848
21766SOL    HW168700   7.325   6.933   4.223 -0.9422  1.0463  0.7375
21766SOL    HW268701   7.195   6.910   4.296 -0.5410  0.2428  1.2091
21767SOL     OW68702   5.595   4.547   9.193 -0.1767  0.1681  0.3891
21767SOL    HW168703   5.514   4.598   9.202 -0.7601 -0.1500 -2.2336
21767SOL    HW268704   5.643   4.592   9.123  1.1880 -0.5733  0.8279
21768SOL     OW68705   9.129   3.154   1.739  0.3755 -0.3167 -0.1558
21768SOL    HW168706   9.069   3.226   1.755 -0.0321 -0.1857 -1.9997
21768SOL    HW268707   9.116   3.094   1.812 -0.5606  0.6512  0.4879
21769SOL     OW68708  10.902   9.505   1.428  0.4009  0.0258  0.1101
21769SOL    HW168709  10.960   9.582   1.430  1.2130 -0.5702  1.7784
21769SOL    HW268710  10.961   9.430   1.431 -0.2689 -0.8503 -3.6316
21770SOL     OW68711   1.020   9.533   5.495  0.2057  0.3270  0.1527
21770SOL    HW168712   0.996   9.441   5.492  1.5914 -0.0494  0.1452
21770SOL    HW268713   0.953   9.573   5.551 -1.0267 -0.4618 -0.6919
21771SOL     OW68714   2.502   7.446   6.172 -0.4330 -0.2999 -0.0450
21771SOL    HW168715   2.540   7.453   6.260  1.1929  1.8035 -0.8433
21771SOL    HW268716   2.411   7.473   6.183 -0.0816  0.5402  0.8972
21772SOL     OW68717   5.345   2.421   3.573  0.2005  0.2927  0.6174
21772SOL    HW168718   5.358   2.392   3.483 -3.5310  1.2497 -0.4026
21772SOL    HW268719   5.282   2.359   3.610 -0.9659  1.8501  1.3603
21773SOL     OW68720   1.149   0.945   9.801  0.2943  0.1035  0.2232
21773SOL    HW168721   1.154   0.851   9.821  0.1208  0.2333  0.8769
21773SOL    HW268722   1.055   0.964   9.799  0.3302  0.2702  0.1147
21774SOL     OW68723   4.395  10.622  10.679  0.5960  0.7956 -0.7088
21774SOL    HW168724   4.352  10.679  10.744 -0.2413  1.6061 -1.9285
21774SOL    HW268725   4.487  10.623  10.705  0.0794 -0.2159  1.4153
21775SOL     OW68726  10.511   4.897   6.752  0.1418 -0.2396 -0.3785
21775SOL    HW168727  10.481   4.986   6.733  0.5857 -0.5079 -2.6425
21775SOL    HW268728  10.595   4.909   6.796 -0.5511  0.4395  0.8286
21776SOL     OW68729   3.809   9.065   1.219  0.2636  0.4199  0.3100
21776SOL    HW168730   3.804   9.131   1.288 -0.5967  0.6218  0.0635
21776SOL    HW268731   3.719   9.033   1.210  0.2996  0.6185 -0.9219
21777SOL     OW68732   3.472   5.533   1.392  0.1357 -0.8059  0.3499
21777SOL    HW168733   3.379   5.552   1.377  0.5470  1.0467 -0.0818
21777SOL    HW268734   3.508   5.614   1.427  1.4071 -1.8185  1.5043
21778SOL     OW68735   9.785   7.511  10.692  0.0138 -0.6760 -0.0445
21778SOL    HW168736   9.850   7.474  10.751  1.3465 -0.6636 -1.4537
21778SOL    HW268737   9.819   7.597  10.670 -0.4318 -0.6943 -0.8442
21779SOL     OW68738   0.909   3.504   0.332  0.5855  0.0716  0.0247
21779SOL    HW168739   0.908   3.514   0.237 -0.5376  2.6356  0.2154
21779SOL    HW268740   0.817   3.489   0.355  0.7920 -0.1338  0.7158
21780SOL     OW68741   6.927   1.798  10.703  0.1895  0.1589  0.5067
21780SOL    HW168742   6.834   1.818  10.690  0.4465  0.5574 -0.9332
21780SOL    HW268743   6.928   1.731  10.771 -1.1711 -0.0482  0.3545
21781SOL     OW68744   0.031   2.730   0.097 -0.0971 -0.2151  0.0778
21781SOL    HW168745   0.043   2.791   0.170  3.3401  1.0026 -1.3277
21781SOL    HW268746   0.042   2.644   0.136 -0.4012  0.2829  1.3147
21782SOL     OW68747   0.402  10.854   4.296  0.7449  0.0420  0.2024
21782SOL    HW168748   0.486  10.882   4.331  1.0060 -1.2043  0.6305
21782SOL    HW268749   0.362  10.933   4.261  1.5887  0.8577  1.0493
21783SOL     OW68750   5.031   0.484   4.885 -0.3600 -0.4265  0.0152
21783SOL    HW168751   5.039   0.430   4.806  1.1630  1.7708 -1.4539
21783SOL    HW268752   4.942   0.469   4.916 -1.7527  0.0816 -3.2916
21784SOL     OW68753   4.786   2.192  10.687  0.1165 -0.3288  0.0854
21784SOL    HW168754   4.849   2.124  10.709  0.1247  0.0176  1.1865
21784SOL    HW268755   4.789   2.252  10.761  0.5744  1.2281 -1.1582
21785SOL     OW68756   8.971   9.451   0.449 -0.0000 -0.2394 -0.0067
21785SOL    HW168757   8.971   9.356   0.445 -0.3771 -0.2008 -1.5272
21785SOL    HW268758   8.885   9.476   0.415 -0.1472  0.6335  0.9646
21786SOL     OW68759   8.622  10.413   5.674 -0.6044  0.4298 -0.5912
21786SOL    HW168760   8.645  10.453   5.591 -1.8120 -0.8117 -1.5706
21786SOL    HW268761   8.565  10.339   5.651  0.4301 -1.0290  1.1999
21787SOL     OW68762   6.232   2.487   4.838  0.2878  0.3757  0.4925
21787SOL    HW168763   6.163   2.551   4.859 -1.0443 -1.1073  0.8664
21787SOL    HW268764   6.218   2.416   4.901  3.2238  0.7193  1.6744
21788SOL     OW68765  10.196   8.054   0.701 -0.2696 -0.1813  0.5348
21788SOL    HW168766  10.243   8.104   0.768  0.1247  1.3431 -0.8203
21788SOL    HW268767  10.252   7.977   0.685  1.8836  1.6084 -1.0690
21789SOL     OW68768   4.706   9.055   9.657 -0.6359 -0.5350  0.0045
21789SOL    HW168769   4.772   9.070   9.589  0.1377 -0.1248  0.8374
21789SOL    HW268770   4.646   8.991   9.618  0.8929 -1.8104 -0.3319
21790SOL     OW68771   3.413   4.843   4.514 -0.0679 -0.4920  0.1638
21790SOL    HW168772   3.340   4.905   4.512 -0.1488 -0.5774  0.4492
21790SOL    HW268773   3.379   4.768   4.561  0.1253 -0.6363  0.0740
21791SOL     OW68774   4.069   2.045   0.087 -0.3101 -0.5883  0.0389
21791SOL    HW168775   4.156   2.018   0.059 -0.3619 -1.0446  0.3125
21791SOL    HW268776   4.078   2.059   0.181 -0.8098 -1.7800  0.2806
21792SOL     OW68777   7.960   5.104   0.072 -0.8089  0.0042 -0.0826
21792SOL    HW168778   7.897   5.035   0.093 -0.0145 -0.5202  0.6462
21792SOL    HW268779   8.042   5.058   0.055 -0.3747  0.7405 -0.0455
21793SOL     OW68780   9.031   3.154   6.183  0.1801  0.0728 -0.3409
21793SOL    HW168781   9.038   3.063   6.212 -0.0841 -0.5517 -2.1050
21793SOL    HW268782   8.948   3.185   6.220 -0.2480 -0.7467 -0.5985
21794SOL     OW68783   7.117   2.056   4.692  0.5455  1.0051 -0.0986
21794SOL    HW168784   7.107   2.147   4.720  2.7437  0.9754  0.9296
21794SOL    HW268785   7.134   2.007   4.773  0.2053 -0.2151 -0.7352
21795SOL     OW68786  10.343   3.360   7.821 -0.2255 -0.4195 -0.4155
21795SOL    HW168787  10.423   3.410   7.836 -1.4630  1.5509  0.0805
21795SOL    HW268788  10.362   3.305   7.746  1.7553 -0.4116  0.0395
21796SOL     OW68789   0.046   6.115   1.735  0.5324  0.1526  0.1822
21796SOL    HW168790   0.081   6.103   1.646 -1.9849 -1.5107 -0.7016
21796SOL    HW268791  -0.011   6.192   1.728 -1.1581 -1.0663 -0.2485
21797SOL     OW68792   3.318   9.462  10.335  0.0558 -0.1482 -0.0158
21797SOL    HW168793   3.414   9.470  10.341  0.1077 -1.2285  1.0036
21797SOL    HW268794   3.301   9.370  10.356 -1.2366  0.0977  0.0574
21798SOL     OW68795   7.959   7.465   4.511 -0.0068 -0.2421  0.6588
21798SOL    HW168796   8.046   7.452   4.550 -0.1437  1.2959  1.5560
21798SOL    HW268797   7.974   7.524   4.438 -0.0270 -1.6662 -0.5465
21799SOL     OW68798   5.866  10.850   8.383  0.0812  0.3890 -0.5733
21799SOL    HW168799   5.821  10.788   8.324 -0.7712  0.3169  0.1304
21799SOL    HW268800   5.959  10.829   8.373 -0.0894 -0.0082 -1.4596
21800SOL     OW68801   2.939   6.292   3.342 -0.4182 -0.2349 -0.2280
21800SOL    HW168802   2.945   6.204   3.306  0.6489 -0.4080  0.3504
21800SOL    HW268803   2.922   6.279   3.435  0.0306  0.1660 -0.0867
21801SOL     OW68804   2.974   9.720   7.966 -0.0579 -0.1554  0.1419
21801SOL    HW168805   3.063   9.698   7.993  0.1093 -1.0678 -1.0712
21801SOL    HW268806   2.985   9.799   7.913 -0.0880  0.2295  0.7004
21802SOL     OW68807   9.997   4.164   5.161 -0.5506 -0.6923  0.1585
21802SOL    HW168808  10.014   4.119   5.078  0.3323  0.6427 -0.4281
21802SOL    HW268809  10.061   4.127   5.222  1.4182  0.9322 -0.7880
21803SOL     OW68810   8.609   6.382   0.566 -0.0268  0.1624  0.1248
21803SOL    HW168811   8.695   6.414   0.542 -0.6111  1.4847 -0.2883
21803SOL    HW268812   8.571   6.452   0.619 -0.3270 -0.9875  1.4783
21804SOL     OW68813   9.659   0.794  10.494  0.7084  0.4105 -0.4507
21804SOL    HW168814   9.619   0.787  10.581  0.3964 -1.1062 -0.6854
21804SOL    HW268815   9.729   0.729  10.494 -0.4206 -0.9036 -1.8787
21805SOL     OW68816   1.153   3.544   1.351 -0.2406 -0.3045 -0.5891
21805SOL    HW168817   1.120   3.461   1.385  1.0098 -0.6926 -0.2611
21805SOL    HW268818   1.247   3.542   1.371  0.0302  0.6432 -1.6838
21806SOL     OW68819   2.236   4.991   0.800  0.3830  0.0567  0.1054
21806SOL    HW168820   2.209   5.059   0.737  0.0948 -0.9032 -0.8303
21806SOL    HW268821   2.330   4.981   0.785  0.5930  0.8086  0.8206
21807SOL     OW68822   6.126   2.564   2.605  0.6461 -0.0003  0.1459
21807SOL    HW168823   6.167   2.643   2.639  0.1439 -0.6272  2.3766
21807SOL    HW268824   6.166   2.493   2.655 -1.0438 -0.8735  0.3298
21808SOL     OW68825   5.748   3.439   7.478  0.0982 -0.4507  0.6081
21808SOL    HW168826   5.697   3.359   7.488 -0.2622 -0.3065 -0.0195
21808SOL    HW268827   5.781   3.458   7.565 -2.8419  0.7426  1.5794
21809SOL     OW68828   9.921   3.753  10.523 -0.2029 -0.0979  0.0859
21809SOL    HW168829  10.015   3.761  10.505 -0.1594 -0.4462  0.1436
21809SOL    HW268830   9.878   3.798  10.450 -0.0523 -2.0472 -1.2942
21810SOL     OW68831   6.484   3.367   9.463  0.0111  0.3857 -0.1304
21810SOL    HW168832   6.526   3.301   9.518  0.2205  0.2015 -0.5100
21810SOL    HW268833   6.500   3.337   9.373  3.0613  2.6549 -0.5093
21811SOL     OW68834   6.504   3.389   5.639  0.1889  0.3251  0.0466
21811SOL    HW168835   6.476   3.326   5.705 -1.0520  0.6502 -0.1489
21811SOL    HW268836   6.441   3.461   5.645 -0.6328 -0.1092 -2.1613
21812SOL     OW68837   4.259   1.715   1.878  0.4752  0.5151 -0.1165
21812SOL    HW168838   4.166   1.733   1.863 -0.5801 -1.8619  2.5658
21812SOL    HW268839   4.283   1.651   1.811 -0.4556 -0.4453  0.4514
21813SOL     OW68840   2.206   5.339   7.198 -0.0441  0.7829 -0.1920
21813SOL    HW168841   2.237   5.399   7.131  0.9582  0.5559  0.0536
21813SOL    HW268842   2.111   5.338   7.188 -0.0858  2.4990 -0.1041
21814SOL     OW68843   7.162   4.016   7.073 -0.3746  0.0022 -0.1027
21814SOL    HW168844   7.159   3.977   6.986  0.2078 -1.2726  0.4336
21814SOL    HW268845   7.219   3.959   7.124 -0.2388  1.0469  0.9706
21815SOL     OW68846   3.251   7.207   0.199  0.4992 -0.0857  0.2236
21815SOL    HW168847   3.173   7.262   0.193  0.9503  0.6589  0.9365
21815SOL    HW268848   3.299   7.242   0.274  1.1025 -1.0711  0.3160
21816SOL     OW68849   0.431   1.450   8.939  0.3453  0.1857 -0.0258
21816SOL    HW168850   0.453   1.381   9.002  0.8983  0.6545  0.3064
21816SOL    HW268851   0.506   1.509   8.941  1.4359 -0.9445 -2.8023
21817SOL     OW68852   0.461   2.442   5.663  1.0332  0.1861  0.0513
21817SOL    HW168853   0.551   2.464   5.688  0.8706  0.0777  0.7638
21817SOL    HW268854   0.465   2.426   5.569  1.6744  0.6157  0.0025
21818SOL     OW68855   2.995   8.968   7.762  0.1417 -0.2775  0.6111
21818SOL    HW168856   2.965   9.058   7.747  2.9383  0.6972  0.2759
21818SOL    HW268857   3.036   8.970   7.848 -0.3850 -1.4311  0.9018
21819SOL     OW68858  10.548   4.502   9.479  0.3945  0.2497  0.2858
21819SOL    HW168859  10.530   4.415   9.443 -0.4138 -0.0636  1.3922
21819SOL    HW268860  10.583   4.552   9.405 -0.4314 -0.6019 -0.7101
21820SOL     OW68861   5.205   9.664   3.876 -0.6992  0.4286  0.1049
21820SOL    HW168862   5.218   9.682   3.969 -0.7092  0.4248  0.1070
21820SOL    HW268863   5.231   9.745   3.833 -1.3948  0.6905  0.1597
21821SOL     OW68864   3.376   8.208   1.744  0.0396  0.2183 -0.2874
21821SOL    HW168865   3.464   8.229   1.714 -0.8221  3.2098 -1.0837
21821SOL    HW268866   3.354   8.278   1.805 -2.0224 -0.0284 -0.6684
21822SOL     OW68867   3.538   0.778   4.311 -0.8858 -0.2914  0.1243
21822SOL    HW168868   3.461   0.782   4.255 -0.5323 -1.8754 -0.5394
21822SOL    HW268869   3.610   0.809   4.256 -0.9460  0.5770  0.5337
21823SOL     OW68870   7.224   0.250   7.042  0.0179  0.4534 -0.8435
21823SOL    HW168871   7.197   0.167   7.004  2.1964 -0.1671 -1.1730
21823SOL    HW268872   7.289   0.226   7.108 -2.1708  1.6461  1.9462
21824SOL     OW68873   7.232   8.826   7.493  0.6417  0.0468 -0.3475
21824SOL    HW168874   7.191   8.908   7.462 -1.7523 -1.0221 -0.2513
21824SOL    HW268875   7.243   8.840   7.587  0.3487  0.3115 -0.3476
21825SOL     OW68876   4.797   5.512   3.732 -0.1284  0.4124  0.1091
21825SOL    HW168877   4.848   5.577   3.781 -0.9349 -0.2073  1.8719
21825SOL    HW268878   4.788   5.438   3.793 -0.0785 -0.9617 -1.4728
21826SOL     OW68879   4.493  10.833   8.878 -0.3076 -1.0961  0.0246
21826SOL    HW168880   4.582  10.846   8.912 -0.9772  0.1690  1.4187
21826SOL    HW268881   4.458  10.922   8.868 -1.7607 -1.5814  0.4962
21827SOL     OW68882   4.607  10.058   6.556 -0.3825  0.3730  0.4115
21827SOL    HW168883   4.627   9.966   6.538  0.3453  0.5399  0.2994
21827SOL    HW268884   4.687  10.105   6.531 -0.8728  1.0773  0.1193
21828SOL     OW68885   6.964   9.822   0.776  0.1974 -0.1876  0.1216
21828SOL    HW168886   7.013   9.779   0.705 -2.6771 -0.2973 -1.9936
21828SOL    HW268887   6.918   9.750   0.820  0.3699  0.0846  0.7460
21829SOL     OW68888   9.818   7.720   3.574 -0.3118 -0.3048  1.0008
21829SOL    HW168889   9.800   7.675   3.491  1.2738 -2.3555  1.6928
21829SOL    HW268890   9.789   7.810   3.558 -1.4223 -0.9676 -1.2664
21830SOL     OW68891   9.632   1.813   7.162 -0.1936  0.1168 -0.5878
21830SOL    HW168892   9.630   1.906   7.183  1.7131  0.2830 -0.9239
21830SOL    HW268893   9.607   1.807   7.070 -1.6861  0.1210 -0.2058
21831SOL     OW68894   8.449   6.817   0.121 -0.2800 -0.0461 -0.5414
21831SOL    HW168895   8.363   6.823   0.163  0.1625  3.6088  0.2154
21831SOL    HW268896   8.476   6.726   0.134 -3.6603 -1.1267 -0.1385
21832SOL     OW68897   7.311   6.264   4.418  0.1932  0.2557  0.3633
21832SOL    HW168898   7.278   6.348   4.452 -0.9138  0.8666 -1.9733
21832SOL    HW268899   7.232   6.212   4.404  0.7947 -0.7937  0.7866
21833SOL     OW68900   6.990   3.200   9.575  0.2201  0.2015 -0.2594
21833SOL    HW168901   6.970   3.293   9.572  2.3686  0.7945  1.1563
21833SOL    HW268902   7.013   3.178   9.485 -1.2049  0.7759 -0.7933
21834SOL     OW68903  10.353   2.790   1.888  0.1740  0.1061 -0.2903
21834SOL    HW168904  10.421   2.842   1.929 -0.3257  0.3277  0.2737
21834SOL    HW268905  10.386   2.700   1.889  0.3425  0.1727  0.2298
21835SOL     OW68906  10.658   7.036   6.426  0.2240 -0.0108  0.5026
21835SOL    HW168907  10.721   7.019   6.356 -1.2135 -0.5441 -0.7135
21835SOL    HW268908  10.642   6.951   6.466 -0.6549 -0.1212 -0.0458
21836SOL     OW68909   9.332   0.758   0.148  0.0183 -0.0985  0.0564
21836SOL    HW168910   9.346   0.851   0.170  1.3234  0.3714 -2.4275
21836SOL    HW268911   9.243   0.755   0.116  0.2442  0.4966 -0.6603
21837SOL     OW68912  10.369   1.434   3.931 -0.6620 -0.1629  0.2326
21837SOL    HW168913  10.354   1.475   3.846 -0.6347 -0.7429 -0.0564
21837SOL    HW268914  10.313   1.357   3.931 -0.9992  0.0766  0.9244
21838SOL     OW68915   9.592   9.840   6.732 -0.3854 -0.1515 -0.3351
21838SOL    HW168916   9.687   9.843   6.727 -0.3119 -0.6465  0.4566
21838SOL    HW268917   9.562   9.900   6.664  0.4922  0.2036 -0.4246
21839SOL     OW68918   5.321   3.737   9.904  0.2410 -0.2316 -0.4270
21839SOL    HW168919   5.284   3.657   9.868  0.6611 -0.0793 -1.2427
21839SOL    HW268920   5.298   3.805   9.840 -0.8499  0.4727  0.6755
21840SOL     OW68921   6.237   8.252  10.537 -0.5424 -0.1397  0.0764
21840SOL    HW168922   6.217   8.194  10.464  0.8712 -0.6616  0.0638
21840SOL    HW268923   6.213   8.202  10.615 -0.0967 -0.4200  0.0360
21841SOL     OW68924   4.341   1.013   0.089  0.2104  0.1562  0.1734
21841SOL    HW168925   4.280   0.964   0.034  2.0549 -0.6556 -1.2689
21841SOL    HW268926   4.362   0.954   0.160 -0.0424  0.1164  0.2153
21842SOL     OW68927   4.890   5.511   5.049 -0.3645 -0.4708  0.3067
21842SOL    HW168928   4.841   5.525   5.130  0.8004 -3.0134  1.5914
21842SOL    HW268929   4.847   5.436   5.008  0.2308 -0.4340 -0.3976
21843SOL     OW68930   2.192   4.102   9.093 -0.5415 -0.0894  0.4791
21843SOL    HW168931   2.263   4.059   9.046 -1.5521  0.7583 -1.9957
21843SOL    HW268932   2.235   4.153   9.161  1.2799  0.7935 -1.2518
21844SOL     OW68933   4.211   9.499   2.559  0.3596  0.1494  0.7057
21844SOL    HW168934   4.189   9.592   2.551 -0.4223 -0.1102 -0.4184
21844SOL    HW268935   4.193   9.462   2.472  0.9307 -1.0034  1.0492
21845SOL     OW68936   8.166   7.582   8.008 -0.5562 -0.4794 -0.1339
21845SOL    HW168937   8.167   7.640   8.084 -0.9921  1.5426 -1.5811
21845SOL    HW268938   8.253   7.593   7.969 -1.2036  0.5929 -1.3569
21846SOL     OW68939   5.608   1.455   2.699 -0.7068  0.0002 -0.3193
21846SOL    HW168940   5.628   1.530   2.643  0.0514 -0.3296 -0.4958
21846SOL    HW268941   5.693   1.418   2.721 -1.0809 -0.8398 -0.2608
21847SOL     OW68942   3.513   1.629   3.356  0.3233 -0.6174  0.0739
21847SOL    HW168943   3.451   1.561   3.331  0.5286 -0.5163 -0.7384
21847SOL    HW268944   3.581   1.626   3.288  0.2874  0.4504 -0.0244
21848SOL     OW68945   0.565   5.479   2.358 -0.5755  0.9223 -0.3818
21848SOL    HW168946   0.570   5.460   2.265  0.7068 -0.9885  0.0268
21848SOL    HW268947   0.551   5.574   2.362 -0.9364  1.0054 -2.4927
21849SOL     OW68948   5.513   2.936   9.079  0.1126  0.0765  0.4745
21849SOL    HW168949   5.593   2.883   9.081 -0.4469 -0.8609 -0.5735
21849SOL    HW268950   5.544   3.025   9.062  0.9380 -0.3044 -0.1315
21850SOL     OW68951   3.345   3.656  10.553 -0.4517  0.7144  0.3251
21850SOL    HW168952   3.270   3.601  10.575  1.2440 -1.4489  1.1103
21850SOL    HW268953   3.307   3.733  10.511 -3.0103 -0.8615 -0.4855
21851SOL     OW68954  10.077   0.088   3.093 -0.6794 -0.1536 -0.1115
21851SOL    HW168955  10.162   0.095   3.136 -0.7058  0.3507 -0.1364
21851SOL    HW268956  10.097   0.058   3.004 -0.4359  0.9683 -0.4442
21852SOL     OW68957  10.671  10.561  10.309  0.2395  0.0845  0.1291
21852SOL    HW168958  10.587  10.580  10.353  1.1228 -1.0329  2.4538
21852SOL    HW268959  10.705  10.484  10.355  2.0533 -0.1422 -1.4933
21853SOL     OW68960   5.752   6.579   0.575 -0.4215 -0.3115 -0.1105
21853SOL    HW168961   5.800   6.544   0.651 -0.5362 -2.2470 -0.8809
21853SOL    HW268962   5.770   6.673   0.577  0.1885 -0.4268  1.8794
21854SOL     OW68963   6.436   4.832   3.985 -0.3169  0.3177  0.3601
21854SOL    HW168964   6.452   4.906   4.043 -0.0698  1.2392 -0.8333
21854SOL    HW268965   6.452   4.867   3.897 -0.1620 -1.1667 -0.2278
21855SOL     OW68966   9.657   1.823   8.796  0.0350  0.7094  0.0461
21855SOL    HW168967   9.618   1.736   8.806  0.0308  0.9472  2.6995
21855SOL    HW268968   9.749   1.811   8.820  0.1361  1.3702  0.0149
21856SOL     OW68969   0.735   7.224   3.824  0.4235 -0.0217 -0.2602
21856SOL    HW168970   0.770   7.275   3.897  1.1316 -1.8731  0.7526
21856SOL    HW268971   0.671   7.164   3.865  0.3092 -0.6109 -1.2549
21857SOL     OW68972   4.458   6.633   4.031  0.0511 -0.0710  0.1339
21857SOL    HW168973   4.450   6.676   3.946 -1.1605 -0.6654 -0.0695
21857SOL    HW268974   4.535   6.577   4.022  0.5875  0.7029 -0.1939
21858SOL     OW68975   5.037   8.327   4.507 -0.3787 -0.2886  0.2969
21858SOL    HW168976   5.099   8.255   4.492 -0.0947  0.3280 -1.7908
21858SOL    HW268977   4.959   8.303   4.458 -0.3372  0.7371 -0.3012
21859SOL     OW68978   2.809   5.994   2.074  0.4379 -0.2560 -0.2446
21859SOL    HW168979   2.802   6.065   2.138 -0.1221  0.9184 -1.5389
21859SOL    HW268980   2.749   5.927   2.106  0.4605  0.1392  0.6625
21860SOL     OW68981   3.212   8.413   1.340 -0.2415 -0.0786  0.5465
21860SOL    HW168982   3.167   8.330   1.356 -0.8199  0.2813  0.7994
21860SOL    HW268983   3.152   8.480   1.373  0.1091  0.4578  0.1070
21861SOL     OW68984   3.404   2.182   1.402  0.0468  0.1772 -0.3844
21861SOL    HW168985   3.410   2.202   1.495 -1.3446 -0.3767 -0.1551
21861SOL    HW268986   3.453   2.253   1.360 -2.3922  2.6417  0.5638
21862SOL     OW68987  10.858   0.128   6.989  0.2643 -0.3773 -0.4618
21862SOL    HW168988  10.867   0.174   7.073  0.0468 -1.7304  0.3415
21862SOL    HW268989  10.928   0.063   6.990 -1.2344 -2.0750 -0.1549
21863SOL     OW68990   8.781   2.326   1.238  0.4793  0.3800 -0.6959
21863SOL    HW168991   8.747   2.390   1.300  1.8955  1.2626 -0.7972
21863SOL    HW268992   8.704   2.273   1.214 -0.5278  1.4355  0.0874
21864SOL     OW68993   2.508   5.714   5.520 -0.0168 -0.1119  0.4051
21864SOL    HW168994   2.456   5.696   5.598 -2.3588  0.2470 -0.9766
21864SOL    HW268995   2.566   5.787   5.545 -1.0768  0.3340  1.6410
21865SOL     OW68996   3.324   7.481   5.429 -0.2242  0.3330 -0.7453
21865SOL    HW168997   3.311   7.387   5.428 -0.7428  0.3956 -0.2677
21865SOL    HW268998   3.273   7.512   5.504  2.9295  0.5752  1.4690
21866SOL     OW68999   4.845   5.128   0.749  0.1737  0.2812  0.4380
21866SOL    HW169000   4.821   5.220   0.739  0.2092  0.3171  0.6880
21866SOL    HW269001   4.850   5.114   0.844  0.8903  0.2050  0.3939
21867SOL     OW69002   1.737   4.078  10.543  0.6104  0.2699  0.0286
21867SOL    HW169003   1.642   4.081  10.550  0.4866  2.0633 -1.6781
21867SOL    HW269004   1.754   4.003  10.486  0.0766  1.0777 -1.2195
21868SOL     OW69005   8.994   1.202   8.223 -0.2119  0.0388  0.4880
21868SOL    HW169006   8.954   1.288   8.238  0.2420  0.6800 -1.6757
21868SOL    HW269007   8.926   1.150   8.181  0.0117 -0.1612  0.3728
21869SOL     OW69008   2.123   5.075   6.972  0.1281  0.2860  0.0336
21869SOL    HW169009   2.149   5.146   6.913  0.0266  0.5365  0.2904
21869SOL    HW269010   2.070   5.117   7.039 -0.9860 -0.2197 -0.5034
21870SOL     OW69011   6.671   2.774   4.969 -0.1051 -0.1081  0.0570
21870SOL    HW169012   6.722   2.828   5.030  0.8696 -2.0738  1.0867
21870SOL    HW269013   6.592   2.751   5.017 -0.7626  0.7669 -0.5691
21871SOL     OW69014   8.181   2.222   5.721  0.2574 -0.2119 -0.0038
21871SOL    HW169015   8.237   2.182   5.787 -1.2144 -1.4768  0.5299
21871SOL    HW269016   8.183   2.316   5.741  2.1364 -0.2167 -0.0040
21872SOL     OW69017   2.562   2.233   5.327 -0.0806 -0.3441 -0.2304
21872SOL    HW169018   2.590   2.178   5.254 -1.8738  0.3133 -1.4801
21872SOL    HW269019   2.467   2.223   5.330 -0.1799  0.6846  1.1670
21873SOL     OW69020   5.696   5.046   4.473  0.1013  0.3319  0.0670
21873SOL    HW169021   5.645   4.999   4.540 -2.7044  2.3571 -0.4604
21873SOL    HW269022   5.787   5.028   4.495 -0.7294 -0.4550  3.4416
21874SOL     OW69023   3.705   1.214   9.085 -0.1958  0.0143  0.8497
21874SOL    HW169024   3.627   1.165   9.111 -0.7417 -1.0746 -2.3533
21874SOL    HW269025   3.773   1.147   9.075 -0.0627  0.3089 -0.4322
21875SOL     OW69026   1.515   6.501  10.357  0.0998  0.5242  0.0007
21875SOL    HW169027   1.518   6.564  10.284 -1.6865  0.9132  0.2075
21875SOL    HW269028   1.433   6.522  10.402  0.5487 -0.5610  1.3622
21876SOL     OW69029   8.881   7.546  10.460  0.1091 -0.2739 -0.3245
21876SOL    HW169030   8.945   7.607  10.423 -1.6418  1.2011 -1.1009
21876SOL    HW269031   8.831   7.598  10.523 -0.3669 -1.3635  0.2313
21877SOL     OW69032   1.048   1.431   1.902 -0.0456 -0.3338  0.1723
21877SOL    HW169033   1.011   1.517   1.925  0.6758 -0.3241  1.4072
21877SOL    HW269034   1.112   1.450   1.834 -0.6753 -0.0457 -0.3497
21878SOL     OW69035   7.166   5.043   2.550  0.1509  0.5074  0.4513
21878SOL    HW169036   7.158   5.104   2.623 -0.0618  0.9067  0.0964
21878SOL    HW269037   7.113   4.967   2.577  0.3197  0.5205  0.8391
21879SOL     OW69038  10.848   7.941   4.729  0.1425  0.3866 -0.2474
21879SOL    HW169039  10.822   8.026   4.695  0.0295  0.4071 -0.1099
21879SOL    HW269040  10.871   7.957   4.820  3.2255  0.9175 -0.9824
21880SOL     OW69041   3.244   7.634  10.105 -0.7709  0.4172  0.1197
21880SOL    HW169042   3.258   7.569  10.174 -0.1732 -0.0669 -0.4414
21880SOL    HW269043   3.250   7.718  10.150  0.2622  0.1281  0.5493
21881SOL     OW69044   5.016   2.527   5.400  0.2651 -0.1936 -0.3055
21881SOL    HW169045   5.049   2.610   5.435  1.4415 -0.8659  0.2258
21881SOL    HW269046   5.011   2.540   5.306 -2.9515  1.6625 -0.0470
21882SOL     OW69047   1.346   7.563   3.609 -0.0137  0.0861 -0.8758
21882SOL    HW169048   1.334   7.655   3.586 -0.2173  0.1996 -0.3206
21882SOL    HW269049   1.354   7.562   3.704  1.5532 -0.3091 -0.9806
21883SOL     OW69050   1.080   8.391   9.450  0.0478  0.2296 -0.1963
21883SOL    HW169051   1.080   8.420   9.541  0.0376 -1.5759  0.4136
21883SOL    HW269052   1.004   8.435   9.411 -0.0960  0.8218  0.7120
21884SOL     OW69053   9.668   0.775   9.511  0.4113 -0.0809  0.5906
21884SOL    HW169054   9.733   0.718   9.470 -0.6397 -1.0843  0.2572
21884SOL    HW269055   9.661   0.743   9.600 -1.5655 -1.7825 -0.1188
21885SOL     OW69056   2.201   3.046   1.403 -0.8972 -0.0158 -0.1496
21885SOL    HW169057   2.197   3.073   1.495 -0.5383  0.3288 -0.2319
21885SOL    HW269058   2.264   2.974   1.402 -1.9624 -0.9741  0.0931
21886SOL     OW69059   3.354   1.097   8.792 -0.0905  0.1449 -0.0128
21886SOL    HW169060   3.310   1.182   8.796 -1.6372 -0.6271  0.7411
21886SOL    HW269061   3.365   1.072   8.884  0.9883 -0.1626 -0.2188
21887SOL     OW69062   3.497   5.839   4.330 -0.3598 -0.3892 -0.5629
21887SOL    HW169063   3.451   5.917   4.362  2.5222  1.0979  0.3239
21887SOL    HW269064   3.501   5.780   4.406  1.0308  0.4591  0.0746
21888SOL     OW69065   3.813  10.380   6.106  0.0520  0.1672  0.4019
21888SOL    HW169066   3.803  10.320   6.180  0.3957  0.0326  0.3405
21888SOL    HW269067   3.903  10.367   6.076 -0.3151 -0.3166 -0.5142
21889SOL     OW69068   5.042  10.313   5.390 -0.1536  0.2225 -0.1345
21889SOL    HW169069   5.011  10.230   5.426 -1.8130  1.4492  1.4015
21889SOL    HW269070   5.109  10.342   5.451 -0.0455  0.3482 -0.3108
21890SOL     OW69071   1.140   9.796   2.269 -0.3533  0.1414  0.0248
21890SOL    HW169072   1.078   9.868   2.254 -0.4070  0.1190  0.1441
21890SOL    HW269073   1.214   9.816   2.210 -0.6779 -0.0820 -0.4610
21891SOL     OW69074   0.119   2.376   1.989 -0.1267  0.4097 -0.1995
21891SOL    HW169075   0.215   2.385   1.991  0.0485 -0.9471 -1.1854
21891SOL    HW269076   0.093   2.419   1.908 -0.3763  0.8424  0.1054
21892SOL     OW69077   2.539  10.383   2.263  0.1378 -0.0649  0.3168
21892SOL    HW169078   2.517  10.467   2.302  0.4824  1.4005 -2.3693
21892SOL    HW269079   2.612  10.350   2.315 -0.4499  0.9335  1.8376
21893SOL     OW69080   3.285   6.721   1.526  0.1254 -0.3007 -0.3805
21893SOL    HW169081   3.309   6.688   1.613  0.0521  1.4411  0.3499
21893SOL    HW269082   3.240   6.648   1.484 -1.7148 -0.5696  1.8696
21894SOL     OW69083   7.041   8.063   9.777 -0.1924 -0.3707  0.3754
21894SOL    HW169084   7.012   8.153   9.790 -0.6396 -0.5994  1.0083
21894SOL    HW269085   6.985   8.011   9.836  0.2238 -1.0298  0.1976
21895SOL     OW69086   0.102   1.618   0.375 -0.6181  0.1623 -0.3269
21895SOL    HW169087   0.139   1.629   0.288 -0.9366  1.1786 -0.3568
21895SOL    HW269088   0.094   1.524   0.387 -2.5199  0.0111 -2.2473
21896SOL     OW69089   1.167   5.851   2.732 -0.4218  0.6330 -0.7317
21896SOL    HW169090   1.112   5.885   2.661  0.2188 -0.2985 -1.6974
21896SOL    HW269091   1.249   5.898   2.724 -0.4757  0.7938 -0.3631
21897SOL     OW69092   4.785  10.340  10.780 -0.6930  0.0428 -0.0430
21897SOL    HW169093   4.854  10.336  10.714  0.5136 -1.9487  1.2285
21897SOL    HW269094   4.721  10.274  10.752 -1.0815  0.4681 -0.1638
21898SOL     OW69095   2.668   5.399   8.519  0.1741  0.2344 -0.4879
21898SOL    HW169096   2.595   5.458   8.540 -1.1850 -1.5884  0.0919
21898SOL    HW269097   2.630   5.332   8.463  1.3301 -0.9695  0.1130
21899SOL     OW69098   8.983   7.612   2.404 -0.2030  0.0143 -0.0564
21899SOL    HW169099   8.990   7.702   2.374  0.1385 -0.2622 -0.8275
21899SOL    HW269100   8.932   7.567   2.336 -0.3997 -0.3678  0.3364
21900SOL     OW69101   4.327   0.824   3.229 -1.0311 -0.3502 -0.1641
21900SOL    HW169102   4.302   0.889   3.163 -1.0162 -1.5109 -1.3627
21900SOL    HW269103   4.323   0.871   3.312  1.5464  1.9822 -1.1724
21901SOL     OW69104   2.764   8.000   2.623  0.5176  0.9022 -0.0777
21901SOL    HW169105   2.798   8.052   2.550  0.6892 -0.4599 -1.0072
21901SOL    HW269106   2.811   7.917   2.616  0.0977  0.5395  1.2453
21902SOL     OW69107   1.104   3.630   8.792  0.6495  0.5194  0.1251
21902SOL    HW169108   1.058   3.577   8.858 -0.6931 -0.3367 -1.4069
21902SOL    HW269109   1.163   3.568   8.750 -0.9012  0.1514 -1.6563
21903SOL     OW69110   2.437   2.582   4.089 -0.0606 -0.5545 -0.3006
21903SOL    HW169111   2.401   2.658   4.135 -0.0292 -1.2270  0.8630
21903SOL    HW269112   2.365   2.553   4.032 -0.2831 -0.0377 -0.2959
21904SOL     OW69113  10.819   9.721   6.732 -0.3324  0.2142  0.1899
21904SOL    HW169114  10.879   9.670   6.678 -1.0428 -0.9108  0.4290
21904SOL    HW269115  10.839   9.695   6.821  0.7222  1.9402  0.5116
21905SOL     OW69116  10.733   6.602   5.337 -0.1446  0.4683  0.5543
21905SOL    HW169117  10.799   6.542   5.301  0.3392  2.0554 -1.3805
21905SOL    HW269118  10.656   6.547   5.351  0.6704 -0.8598  0.0500
21906SOL     OW69119  10.385   5.343   3.832 -0.0637 -0.2590  0.1775
21906SOL    HW169120  10.307   5.308   3.874  1.0876 -2.8049  0.3489
21906SOL    HW269121  10.448   5.271   3.832  1.4806  0.9445 -2.1186
21907SOL     OW69122   0.381   8.984   1.293 -0.2482 -0.4627  0.5470
21907SOL    HW169123   0.328   9.014   1.219 -0.8627 -1.3473  0.6089
21907SOL    HW269124   0.466   8.964   1.254  0.0032  0.7954  0.4160
21908SOL     OW69125   8.296  10.144   2.264  0.1490 -0.3884 -0.0353
21908SOL    HW169126   8.336  10.188   2.339 -0.0174  1.3724 -0.9238
21908SOL    HW269127   8.205  10.130   2.290 -0.5172  2.2489 -0.6424
21909SOL     OW69128   0.321   5.371   8.774  0.1525 -0.4769 -0.0685
21909SOL    HW169129   0.304   5.281   8.802  0.9554 -0.9458 -1.0192
21909SOL    HW269130   0.401   5.395   8.819  2.3681 -1.8023 -2.9602
21910SOL     OW69131   8.819   2.115   6.812 -0.3648 -0.4024 -0.6419
21910SOL    HW169132   8.771   2.153   6.886  0.2399  1.8410 -1.2968
21910SOL    HW269133   8.870   2.044   6.850 -3.2847 -2.1718  0.2554
21911SOL     OW69134   9.796   3.215   8.389  0.0498 -0.1115  0.0512
21911SOL    HW169135   9.832   3.185   8.472  1.5350  0.5530 -0.3100
21911SOL    HW269136   9.779   3.134   8.340 -0.4065 -0.4899  0.8096
21912SOL     OW69137   4.174   7.615   1.549 -0.5687  0.1869  0.4350
21912SOL    HW169138   4.238   7.561   1.595 -0.7890  0.2878  0.8622
21912SOL    HW269139   4.167   7.575   1.462  0.4903  0.5114  0.1865
21913SOL     OW69140   1.173   3.916   8.702  0.6083  0.2840 -0.1055
21913SOL    HW169141   1.157   3.873   8.617 -0.9719 -1.6220  1.0756
21913SOL    HW269142   1.232   3.856   8.748  0.3894  0.6306  0.6415
21914SOL     OW69143   8.894   6.252  10.835 -0.5800 -0.2397  0.3222
21914SOL    HW169144   8.825   6.311  10.867 -0.1895 -0.0192  0.7709
21914SOL    HW269145   8.931   6.213  10.914 -0.2367 -0.4108  0.0792
21915SOL     OW69146   1.235   3.122   5.017 -0.3061 -0.1851  0.2219
21915SOL    HW169147   1.282   3.045   5.048 -3.6947 -2.6604 -0.2084
21915SOL    HW269148   1.250   3.122   4.922 -1.2256 -1.0885  0.0574
21916SOL     OW69149   6.265   0.537   2.868 -0.1127 -0.1613 -0.0575
21916SOL    HW169150   6.214   0.571   2.941  0.4885  0.1179  0.2434
21916SOL    HW269151   6.320   0.468   2.907  0.0605 -0.1545 -0.2825
21917SOL     OW69152   8.290   3.631   5.836 -0.4005  0.2348 -0.8155
21917SOL    HW169153   8.336   3.656   5.916 -1.5997  0.8141 -0.2824
21917SOL    HW269154   8.356   3.585   5.784  1.3715  2.7470 -0.9747
21918SOL     OW69155   1.457   5.080   9.133  0.4868  0.1111 -0.3132
21918SOL    HW169156   1.418   5.015   9.074 -0.7324 -0.6448  1.2625
21918SOL    HW269157   1.427   5.164   9.098 -0.6111 -0.3422 -0.5191
21919SOL     OW69158   0.788   3.917   8.147 -0.3874 -0.0528  0.7908
21919SOL    HW169159   0.784   3.825   8.122 -0.6350 -0.3278  1.7775
21919SOL    HW269160   0.697   3.940   8.169 -0.1960  0.1721  1.3810
21920SOL     OW69161   8.689  10.014   1.103  0.0921 -0.5837  0.2864
21920SOL    HW169162   8.648   9.981   1.183 -0.1608 -0.1380  0.3451
21920SOL    HW269163   8.617  10.056   1.055  0.7864  1.9779  1.3000
21921SOL     OW69164   0.069   2.217   5.999  0.8450  0.4068 -0.3746
21921SOL    HW169165   0.096   2.149   6.060 -0.7056 -0.4439 -0.5971
21921SOL    HW269166   0.112   2.194   5.917 -0.2575 -0.7822 -0.6558
21922SOL     OW69167  10.598  10.281   8.256  0.2540 -0.1662 -0.1228
21922SOL    HW169168  10.630  10.234   8.333 -0.2995 -1.2352 -0.5286
21922SOL    HW269169  10.650  10.361   8.254  0.7609 -0.4438  0.9622
21923SOL     OW69170   5.258   8.124   1.975 -0.2254 -0.1801 -0.1146
21923SOL    HW169171   5.327   8.179   2.012 -0.1861  0.3517 -0.9557
21923SOL    HW269172   5.238   8.060   2.045 -0.3395  0.9419  0.9129
21924SOL     OW69173   4.005   8.739  10.654  0.1888 -0.1899  0.5103
21924SOL    HW169174   4.043   8.669  10.706 -2.8986 -0.8550  2.1296
21924SOL    HW269175   3.979   8.698  10.572  0.9331 -0.2510  0.3051
21925SOL     OW69176   5.207   1.056   3.950  0.1565  0.1292 -0.7968
21925SOL    HW169177   5.182   1.039   3.859 -2.8146  1.8158 -0.4207
21925SOL    HW269178   5.181   0.977   3.997  0.3348 -0.1753 -1.2070
21926SOL     OW69179   1.230  10.484   4.991 -0.0841 -0.2840  0.5497
21926SOL    HW169180   1.156  10.515   5.043 -0.6361 -2.1002  0.9057
21926SOL    HW269181   1.196  10.477   4.902 -0.0749 -0.2708  0.5452
21927SOL     OW69182   4.226   8.102   0.112  0.6304  0.3188 -0.2302
21927SOL    HW169183   4.150   8.104   0.053 -0.7535 -0.4810  1.4478
21927SOL    HW269184   4.230   8.012   0.143  0.2962  1.0429  2.1261
21928SOL     OW69185   7.806   5.738   6.004  0.0748 -0.3264  0.0739
21928SOL    HW169186   7.711   5.749   6.009  0.0134 -0.0611 -1.2611
21928SOL    HW269187   7.835   5.811   5.949  1.0669 -0.3391  0.5736
21929SOL     OW69188   2.956  10.461   8.255 -0.5202 -0.5328  0.0725
21929SOL    HW169189   2.937  10.376   8.294 -2.0585  0.5529  1.8393
21929SOL    HW269190   2.911  10.459   8.170  0.0344 -1.6928 -0.2210
21930SOL     OW69191   5.940   9.443   5.754  0.4208  0.6181  0.2713
21930SOL    HW169192   5.856   9.400   5.737  0.8190 -0.6909  1.4136
21930SOL    HW269193   5.925   9.496   5.832  0.4293  1.0426 -0.0178
21931SOL     OW69194   6.721   2.092   3.673  0.1975 -0.0225 -0.5604
21931SOL    HW169195   6.650   2.097   3.737  0.7414 -0.8340  0.1315
21931SOL    HW269196   6.680   2.116   3.590 -0.4052  1.5585  0.1544
21932SOL     OW69197   6.622  10.024   4.113  0.4049  0.4259  0.3555
21932SOL    HW169198   6.592   9.964   4.045  2.1660  0.4102 -0.4581
21932SOL    HW269199   6.560  10.011   4.185  0.4328 -1.9772  0.0170
21933SOL     OW69200   8.624   9.405   7.548  0.4761 -0.7307 -0.3869
21933SOL    HW169201   8.545   9.448   7.516 -0.0324 -1.1557  0.2558
21933SOL    HW269202   8.691   9.474   7.549 -0.5788  0.3677  1.5915
21934SOL     OW69203   3.191   1.483  10.688 -0.1968 -0.3021  0.3257
21934SOL    HW169204   3.213   1.550  10.753  0.3312  0.0708 -0.2216
21934SOL    HW269205   3.168   1.406  10.739 -0.5013  0.2093  0.9607
21935SOL     OW69206   3.219   5.957   3.342  0.0340 -0.2228 -0.0126
21935SOL    HW169207   3.125   5.975   3.352  0.3497  1.0752  0.7310
21935SOL    HW269208   3.231   5.947   3.248 -0.7491  0.2253 -0.1689
21936SOL     OW69209  10.702   4.818  10.881  0.0642 -0.7504  0.6266
21936SOL    HW169210  10.721   4.854  10.967  0.9220 -2.0026  0.9769
21936SOL    HW269211  10.787   4.799  10.842 -0.2689  0.5634 -0.8631
21937SOL     OW69212   7.454   5.741   8.264 -0.0195 -0.0333 -0.6114
21937SOL    HW169213   7.506   5.661   8.254  0.0332  0.2261 -2.8599
21937SOL    HW269214   7.375   5.725   8.212  0.1344  1.4716 -1.3616
21938SOL     OW69215   9.625   1.300   2.352 -0.0479  0.5273  0.0719
21938SOL    HW169216   9.612   1.247   2.274  1.8496 -2.2659  1.5150
21938SOL    HW269217   9.710   1.343   2.338 -0.1009  0.6913  0.2550
21939SOL     OW69218   2.973   3.665   9.085  0.2930 -0.9829 -0.2278
21939SOL    HW169219   2.965   3.752   9.125  0.2527 -0.4222 -1.4000
21939SOL    HW269220   2.928   3.606   9.146  0.7738 -0.2761  0.8474
21940SOL     OW69221   2.725   5.361   9.100 -0.5616  0.5393  0.6092
21940SOL    HW169222   2.728   5.277   9.147 -1.2256  2.1225  3.7282
21940SOL    HW269223   2.637   5.394   9.115 -1.2732  0.6845 -2.9389
21941SOL     OW69224   1.973   8.695   0.121  0.5537  0.8057  0.4285
21941SOL    HW169225   1.891   8.669   0.078  0.3943  2.7117 -0.5391
21941SOL    HW269226   2.039   8.636   0.086  0.0999  1.1873 -1.1475
21942SOL     OW69227   3.736  10.359   0.706  0.8462 -0.1299  0.1298
21942SOL    HW169228   3.723  10.324   0.794 -2.2289 -0.2375 -0.2777
21942SOL    HW269229   3.771  10.286   0.656 -1.3632 -1.4190  0.3300
21943SOL     OW69230   6.874   4.908   7.963  0.1187 -0.4803 -0.2246
21943SOL    HW169231   6.948   4.966   7.980  0.5041 -0.9403 -0.3155
21943SOL    HW269232   6.908   4.842   7.903 -0.7052  0.0027 -1.2585
21944SOL     OW69233   4.286   1.658  10.132  0.1764 -0.5662  0.3067
21944SOL    HW169234   4.241   1.649  10.216 -0.4467 -0.1727  0.0220
21944SOL    HW269235   4.363   1.712  10.152  0.3722 -1.0063  0.7437
21945SOL     OW69236   3.122   4.835   2.427  0.0859  0.0155 -0.4334
21945SOL    HW169237   3.173   4.794   2.357 -0.3320 -1.0976 -0.1111
21945SOL    HW269238   3.056   4.887   2.383  0.0417 -0.4084 -0.8735
21946SOL     OW69239   4.612   0.628   0.316  0.3989  0.3598  0.0653
21946SOL    HW169240   4.554   0.570   0.365  1.1422 -1.4196 -1.0431
21946SOL    HW269241   4.618   0.587   0.229  1.2134  1.9535 -0.6693
21947SOL     OW69242   7.041   0.071   4.763 -0.3715  0.2273 -0.5711
21947SOL    HW169243   7.117   0.113   4.804 -0.7044 -0.2712  0.5827
21947SOL    HW269244   6.993   0.143   4.721 -1.0874  1.0951  1.6211
21948SOL     OW69245  10.376   4.657  10.277 -0.0433  0.0938  0.0259
21948SOL    HW169246  10.457   4.648  10.328 -1.0964 -0.4619  1.6984
21948SOL    HW269247  10.312   4.689  10.340 -1.0875  0.7251 -1.3152
21949SOL     OW69248   9.984   0.965   1.305  0.2582 -0.3318  0.5224
21949SOL    HW169249   9.916   0.933   1.246  0.2045 -1.2212  1.0529
21949SOL    HW269250  10.009   0.888   1.356  0.8515  0.2544  1.1241
21950SOL     OW69251   2.804   9.497   9.652 -0.0335 -0.3072 -0.5728
21950SOL    HW169252   2.882   9.550   9.671 -1.9859  2.5599  0.0194
21950SOL    HW269253   2.808   9.483   9.558  0.6191  0.8670 -0.7485
21951SOL     OW69254   2.346   9.049   2.142  0.0730 -0.2089 -0.1725
21951SOL    HW169255   2.281   9.098   2.193 -0.4474 -1.8058  0.7775
21951SOL    HW269256   2.416   9.112   2.125 -0.5333  0.8434  1.0671
21952SOL     OW69257   4.911   8.606   1.783  0.3866 -0.0785 -0.1862
21952SOL    HW169258   4.926   8.658   1.862 -1.5330 -0.8611  0.7711
21952SOL    HW269259   4.966   8.528   1.795  0.5010  0.0517  0.1303
21953SOL     OW69260   7.013   1.258   6.527 -0.2562 -0.2098 -0.0155
21953SOL    HW169261   6.961   1.293   6.455 -1.4774 -1.6339  0.1271
21953SOL    HW269262   6.976   1.298   6.605 -1.0075 -1.0336  0.0642
21954SOL     OW69263   8.332   3.029   8.120 -0.0095  0.5512  0.4769
21954SOL    HW169264   8.237   3.017   8.119 -0.1792  1.8019 -0.7125
21954SOL    HW269265   8.363   2.978   8.045  0.3290 -0.2077  1.1151
21955SOL     OW69266   0.223   2.371   1.424 -0.1210  0.3730 -0.3303
21955SOL    HW169267   0.257   2.409   1.505 -1.9119  0.8884  0.2144
21955SOL    HW269268   0.275   2.291   1.412 -1.9763 -1.6427  3.2309
21956SOL     OW69269   9.234   3.355   4.764 -0.2036 -0.5839 -0.7825
21956SOL    HW169270   9.204   3.392   4.681  2.1036  0.0344 -1.3963
21956SOL    HW269271   9.250   3.263   4.745  0.1797 -0.4761 -0.9838
21957SOL     OW69272   0.188   5.825   2.201 -0.0580 -0.3496 -0.1402
21957SOL    HW169273   0.098   5.801   2.180 -1.2071  1.7512  1.9436
21957SOL    HW269274   0.227   5.745   2.235 -0.9472 -1.4106 -1.4961
21958SOL     OW69275   1.434   2.925   4.030 -0.5394 -0.3491 -0.3396
21958SOL    HW169276   1.341   2.920   4.010 -0.8061 -2.4185  1.0886
21958SOL    HW269277   1.471   2.844   3.994 -0.2053 -1.8089  2.9102
21959SOL     OW69278   0.498   6.377  10.485 -0.5445 -0.0030  0.6280
21959SOL    HW169279   0.512   6.301  10.542 -2.4690  0.4819  1.8588
21959SOL    HW269280   0.585   6.410  10.468  0.1959 -1.0217  2.1573
21960SOL     OW69281   3.625   4.138   4.028  0.0121  0.4381 -0.0265
21960SOL    HW169282   3.595   4.080   4.098  0.6759  0.7932  0.5715
21960SOL    HW269283   3.667   4.079   3.965  2.0379  0.3652  1.3009
21961SOL     OW69284   5.233   8.524   6.392 -0.3678 -0.2882 -0.2666
21961SOL    HW169285   5.273   8.510   6.478 -0.2933 -0.1283 -0.2746
21961SOL    HW269286   5.140   8.534   6.410 -0.4795 -1.2034 -0.3039
21962SOL     OW69287   9.179   4.070  10.465  0.4373  0.2315 -0.1512
21962SOL    HW169288   9.148   4.018  10.390  1.9199 -0.6684 -0.1609
21962SOL    HW269289   9.262   4.030  10.490  0.1939  0.8069  1.7083
21963SOL     OW69290   8.568   7.705   1.151 -0.0142  0.6262 -0.5736
21963SOL    HW169291   8.660   7.707   1.177 -0.8737  2.4493  2.9475
21963SOL    HW269292   8.567   7.745   1.064  2.4509  1.0313 -0.4850
21964SOL     OW69293   8.832   1.336   6.263 -0.2108  0.2487  0.1886
21964SOL    HW169294   8.739   1.347   6.244 -0.3302  0.5408  0.8941
21964SOL    HW269295   8.840   1.357   6.356  0.1154 -2.3665  0.8098
21965SOL     OW69296   9.742  10.353   3.319  0.5361 -0.0545  0.5165
21965SOL    HW169297   9.815  10.349   3.258 -0.3498  0.9067 -0.6410
21965SOL    HW269298   9.730  10.446   3.336  0.6990 -0.2905  2.1079
21966SOL     OW69299   2.137   0.148   8.253 -0.0381 -0.3397 -0.2272
21966SOL    HW169300   2.150   0.091   8.329 -2.6142 -1.0068 -0.1859
21966SOL    HW269301   2.185   0.105   8.182  1.6145 -0.2132  0.7609
21967SOL     OW69302   5.663   2.487   9.620  0.0966 -0.3667  0.4270
21967SOL    HW169303   5.635   2.530   9.701 -0.4506  0.2293 -0.0689
21967SOL    HW269304   5.590   2.500   9.560  0.6167 -0.5691 -0.2544
21968SOL     OW69305   3.573   4.966   1.106  0.0267 -0.5025  0.4837
21968SOL    HW169306   3.587   5.014   1.024 -0.8540 -0.2442  0.4777
21968SOL    HW269307   3.487   4.926   1.095  0.3927 -1.4075  0.8290
21969SOL     OW69308   1.769   6.643   7.520 -0.4861 -0.5356  0.0218
21969SOL    HW169309   1.696   6.642   7.582 -2.1883 -0.1033 -1.8672
21969SOL    HW269310   1.789   6.551   7.505 -1.7574 -0.7160 -0.6571
21970SOL     OW69311   3.800   3.761   2.965 -0.4603 -0.5217 -0.2308
21970SOL    HW169312   3.759   3.838   2.926  1.5995  0.9382  0.3510
21970SOL    HW269313   3.862   3.796   3.029  0.6772 -2.6640 -0.0653
21971SOL     OW69314   6.195   0.326  10.846  0.4629  0.1544 -0.3553
21971SOL    HW169315   6.240   0.266  10.785  0.7146 -0.3658  0.3299
21971SOL    HW269316   6.266   0.372  10.891  0.2818  0.3526 -0.2716
21972SOL     OW69317  10.220  10.598   6.813  0.1774 -0.4939  0.2854
21972SOL    HW169318  10.194  10.663   6.878 -1.5339 -0.3005 -0.5276
21972SOL    HW269319  10.315  10.607   6.806 -0.0738  2.4315 -0.3469
21973SOL     OW69320   4.700   7.176   0.680  0.0765 -0.9957  0.0005
21973SOL    HW169321   4.683   7.084   0.699 -0.0086 -0.8885  0.4650
21973SOL    HW269322   4.786   7.177   0.639  1.3480 -1.0349  2.4681
21974SOL     OW69323   8.920   8.546   9.523 -0.1605 -0.4382  0.9683
21974SOL    HW169324   8.864   8.623   9.535 -0.0603 -0.3462  0.8442
21974SOL    HW269325   8.980   8.549   9.598  0.4896  0.1596  0.4417
21975SOL     OW69326   6.175   0.921   0.250  0.1976  0.7011 -0.4434
21975SOL    HW169327   6.150   0.839   0.208 -0.4060  0.9177 -0.5139
21975SOL    HW269328   6.230   0.965   0.186  0.4767  0.3837 -0.4276
21976SOL     OW69329   5.777   0.698   6.788 -0.2010  0.0176  0.0531
21976SOL    HW169330   5.834   0.686   6.864  2.2822  2.4105 -1.2738
21976SOL    HW269331   5.791   0.619   6.735 -1.3731 -1.3157  1.6429
21977SOL     OW69332   2.403   3.975   4.346  0.1185  0.0744  0.3052
21977SOL    HW169333   2.437   3.905   4.401 -0.3597  1.4446  2.4544
21977SOL    HW269334   2.469   3.985   4.277  0.5241 -1.9798  0.3300
21978SOL     OW69335   8.430   1.846   6.662  0.1687  0.2036 -0.2635
21978SOL    HW169336   8.517   1.873   6.634 -0.1495 -1.2760 -3.0133
21978SOL    HW269337   8.445   1.773   6.722  0.8194  1.2867  0.9271
21979SOL     OW69338   5.232   3.733   1.565  0.1323  0.5837  0.3970
21979SOL    HW169339   5.288   3.703   1.494  0.1044  0.8439  0.2651
21979SOL    HW269340   5.264   3.686   1.643 -1.3780 -1.6003 -0.2003
21980SOL     OW69341   6.399   0.019   6.711 -0.4436  0.4007 -0.6930
21980SOL    HW169342   6.311  -0.002   6.743 -0.2859 -1.7937 -1.5409
21980SOL    HW269343   6.387   0.095   6.654 -1.4442  1.3696  0.7426
21981SOL     OW69344   3.070   1.900  10.299  0.0341  0.4345 -0.3093
21981SOL    HW169345   3.034   1.835  10.240 -0.5548  0.8855 -0.4570
21981SOL    HW269346   2.995   1.927  10.354  0.3532  0.7091 -0.0010
21982SOL     OW69347   2.055   7.762   0.710 -0.4103 -0.2105 -0.2159
21982SOL    HW169348   2.105   7.843   0.720  0.1239 -0.4858 -0.6038
21982SOL    HW269349   1.964   7.788   0.723 -0.2258  0.4126 -0.1397
21983SOL     OW69350   3.104   1.637   5.074 -0.0520  0.0057 -0.5556
21983SOL    HW169351   3.107   1.635   4.979 -2.3192 -0.5259 -0.6886
21983SOL    HW269352   3.026   1.585   5.096 -0.2119  1.0291  1.5179
21984SOL     OW69353   6.165   8.268   3.519  0.3393  0.3576  0.3908
21984SOL    HW169354   6.199   8.224   3.596 -0.5563  1.3655  1.4051
21984SOL    HW269355   6.080   8.227   3.502 -1.1238  2.4437  2.1449
21985SOL     OW69356   2.696   0.638   4.530 -0.4595  0.2778  0.0991
21985SOL    HW169357   2.615   0.689   4.535 -0.0017  0.8856  2.0739
21985SOL    HW269358   2.672   0.551   4.560 -0.7048 -0.0336 -0.9337
21986SOL     OW69359   5.020   4.982   6.199 -0.1262 -0.2471 -0.2550
21986SOL    HW169360   4.977   4.902   6.169 -0.9335  0.0516  0.0756
21986SOL    HW269361   5.054   5.023   6.119  0.0846 -0.7945 -0.4492
21987SOL     OW69362   9.418   5.172   2.692 -0.2734 -0.3862 -0.6113
21987SOL    HW169363   9.360   5.096   2.688  1.0827 -1.4697 -0.4460
21987SOL    HW269364   9.366   5.240   2.735 -0.9499 -1.7831  0.9018
21988SOL     OW69365   7.694   0.553   4.917  0.2205 -0.2061  0.2096
21988SOL    HW169366   7.777   0.592   4.944  0.2415 -1.0111  1.3920
21988SOL    HW269367   7.700   0.462   4.945 -0.9785 -0.3299  0.1356
21989SOL     OW69368   9.308   0.615  10.678 -0.2545  0.3735  0.1223
21989SOL    HW169369   9.260   0.548  10.630  1.0231  0.8382 -1.8918
21989SOL    HW269370   9.250   0.691  10.678 -0.6110  0.1014  0.0721
21990SOL     OW69371   2.862   4.930   9.490  0.7097 -0.1641  0.2100
21990SOL    HW169372   2.772   4.963   9.496  0.7695  0.0729 -0.2116
21990SOL    HW269373   2.885   4.910   9.581 -0.1063 -1.1286  0.2307
21991SOL     OW69374   3.684   9.929   6.480  0.1142  0.0602  0.7527
21991SOL    HW169375   3.616   9.989   6.510 -1.5410 -0.5060 -1.6002
21991SOL    HW269376   3.665   9.847   6.525 -2.1444 -0.6951 -1.3993
21992SOL     OW69377   0.444   6.884  10.670 -0.1835 -0.3594 -0.5207
21992SOL    HW169378   0.489   6.857  10.590 -0.1180 -0.1595 -0.5518
21992SOL    HW269379   0.379   6.949  10.641  0.1925  0.0978 -0.3454
21993SOL     OW69380   6.507   2.939   9.484  0.8888  0.1835 -0.3061
21993SOL    HW169381   6.529   3.014   9.539  1.6501 -1.3458  1.6069
21993SOL    HW269382   6.576   2.937   9.417  1.0938  0.9164 -0.1243
21994SOL     OW69383   4.676   5.092  10.904  0.0796  0.2570  0.3909
21994SOL    HW169384   4.653   5.139  10.984 -1.7344 -1.0956  0.7167
21994SOL    HW269385   4.663   5.157  10.834  1.4228  1.3654  1.1288
21995SOL     OW69386   7.384   0.150   5.321 -0.1242 -0.0574  0.0166
21995SOL    HW169387   7.311   0.207   5.298  0.1067  0.5005  0.6535
21995SOL    HW269388   7.395   0.161   5.415  2.3350  1.7345 -0.3819
21996SOL     OW69389   2.052   3.350   6.716  0.1757 -0.1605 -0.4598
21996SOL    HW169390   2.072   3.267   6.674  1.6750  0.5105 -1.1572
21996SOL    HW269391   2.084   3.340   6.806 -0.5252 -0.6519 -0.2588
21997SOL     OW69392  10.772   3.845   7.139  0.0861  0.4047 -0.1368
21997SOL    HW169393  10.770   3.753   7.114 -0.9422  0.6195 -0.9060
21997SOL    HW269394  10.713   3.851   7.214 -0.1246  0.5032 -0.3112
21998SOL     OW69395   2.977   9.962   0.639 -0.1083  0.2794 -0.5863
21998SOL    HW169396   2.941  10.050   0.651 -0.8952 -0.1094  0.0241
21998SOL    HW269397   3.038   9.971   0.567  1.4643  1.8097  0.8451
21999SOL     OW69398   3.484   1.338   9.299 -0.3018 -0.4274  0.0874
21999SOL    HW169399   3.498   1.413   9.241  0.3653 -0.5982  0.0179
21999SOL    HW269400   3.395   1.309   9.279 -0.5251  0.2691  0.0334
22000SOL     OW69401   8.170   9.342   7.105 -0.0274 -0.1284 -0.3826
22000SOL    HW169402   8.221   9.268   7.139  0.6547 -1.2343 -3.4918
22000SOL    HW269403   8.236   9.400   7.068 -0.7639  0.7906 -0.2695
22001SOL     OW69404   0.095   2.141   7.625 -0.2221 -0.4695  0.4008
22001SOL    HW169405   0.169   2.198   7.604  0.1890 -1.0748  0.1478
22001SOL    HW269406   0.093   2.139   7.720  0.0124 -0.3459  0.4108
22002SOL     OW69407   6.912   7.901   2.522 -0.5583 -0.0376  0.1976
22002SOL    HW169408   6.840   7.869   2.468 -0.0592  2.2528 -1.9780
22002SOL    HW269409   6.991   7.871   2.477 -0.1316  2.0214 -0.5126
22003SOL     OW69410   5.147   7.929   2.161  0.0358  0.0525 -0.1264
22003SOL    HW169411   5.075   7.869   2.181 -0.0477  0.3511  0.4787
22003SOL    HW269412   5.191   7.943   2.244  0.7076 -0.0054 -0.4635
22004SOL     OW69413   5.111   9.926   7.369 -0.8762  0.1205 -0.6843
22004SOL    HW169414   5.083   9.973   7.291 -0.3812  1.2116 -0.2103
22004SOL    HW269415   5.087   9.983   7.442  0.2449 -0.1007 -0.1299
22005SOL     OW69416   2.636  10.026   4.827  0.0834  0.3864  0.4732
22005SOL    HW169417   2.670  10.111   4.798  2.7414 -0.1540  1.6870
22005SOL    HW269418   2.708   9.965   4.811 -1.4287 -1.4979  0.4891
22006SOL     OW69419   3.038   9.298   2.847 -0.4229 -0.3175 -0.3896
22006SOL    HW169420   3.069   9.289   2.937  0.9473  0.7440 -0.7275
22006SOL    HW269421   3.029   9.393   2.834 -0.2472 -0.4404 -1.4835
22007SOL     OW69422   3.092   9.853  10.892  0.0625 -0.1498  1.0240
22007SOL    HW169423   3.074   9.900  10.974  0.4588  1.5829  0.1744
22007SOL    HW269424   3.181   9.820  10.902  0.5875  1.1544  0.8302
22008SOL     OW69425   2.896   6.411   9.050  0.2910  0.2322  0.1735
22008SOL    HW169426   2.873   6.421   9.143  0.7893 -2.1343  0.6105
22008SOL    HW269427   2.828   6.354   9.014 -0.4285  1.8768 -1.2064
22009SOL     OW69428   0.609   5.953   9.418  0.2411  0.3641 -0.1297
22009SOL    HW169429   0.640   5.906   9.495 -0.2372 -0.8291 -0.6417
22009SOL    HW269430   0.644   6.041   9.428  1.3245 -0.1405  0.7708
22010SOL     OW69431   4.537  10.828   2.381  0.1591 -0.6414  0.6405
22010SOL    HW169432   4.596  10.791   2.447 -0.4205  0.8302  2.0598
22010SOL    HW269433   4.560  10.783   2.300  1.9180 -1.4646  1.5405
22011SOL     OW69434   6.111   2.924   5.484 -0.5460  0.6775  0.1396
22011SOL    HW169435   6.021   2.897   5.468 -0.3879 -0.2023  0.6957
22011SOL    HW269436   6.122   2.919   5.579 -0.0491  1.2230  0.1180
22012SOL     OW69437   9.783   5.696   1.756 -0.2447 -0.4985  0.5441
22012SOL    HW169438   9.714   5.730   1.813 -1.0726 -1.0484 -0.0997
22012SOL    HW269439   9.851   5.763   1.757  0.0799 -0.7898  2.7201
22013SOL     OW69440  10.307   7.836   5.118 -0.3202  0.3521 -0.5428
22013SOL    HW169441  10.370   7.817   5.048  0.8786  3.0822 -0.3490
22013SOL    HW269442  10.354   7.895   5.177 -0.9510 -2.5018  3.1694
22014SOL     OW69443   5.654   3.205   8.403 -0.2440  0.0484 -0.0599
22014SOL    HW169444   5.640   3.266   8.475 -0.2469 -0.2030  0.1568
22014SOL    HW269445   5.739   3.230   8.367 -0.2761  0.2236 -0.0168
22015SOL     OW69446   1.416   0.066   6.836 -0.1147  0.2071  0.2810
22015SOL    HW169447   1.427   0.049   6.742 -0.3025 -0.3515  0.3546
22015SOL    HW269448   1.457  -0.009   6.878  1.0814  1.0630  0.6783
22016SOL     OW69449   1.655   6.484   3.452 -0.2649  0.1267  0.3120
22016SOL    HW169450   1.676   6.481   3.545 -2.1997 -0.1176  0.7756
22016SOL    HW269451   1.676   6.396   3.420  0.9189  0.3745  0.3755
22017SOL     OW69452  10.870   5.208   5.878  0.2109 -0.2289  0.4272
22017SOL    HW169453  10.937   5.272   5.856 -0.1447 -0.4741 -1.6019
22017SOL    HW269454  10.788   5.258   5.877 -0.0894 -0.6875 -1.3376
22018SOL     OW69455   6.117   1.853   4.229  0.1924 -0.0390  0.0233
22018SOL    HW169456   6.178   1.827   4.299  0.4534 -0.8503 -0.4847
22018SOL    HW269457   6.031   1.830   4.263  0.2667  0.0673  0.2936
22019SOL     OW69458   8.196   0.485   3.887 -0.6958 -0.2158 -0.4633
22019SOL    HW169459   8.254   0.552   3.924  0.0730 -0.6192 -0.9229
22019SOL    HW269460   8.140   0.460   3.961 -1.0177  0.9445 -0.2917
22020SOL     OW69461   5.045  10.827   1.445 -0.0184 -0.3080  0.5878
22020SOL    HW169462   4.958  10.849   1.411 -0.4264 -0.7705  1.2984
22020SOL    HW269463   5.035  10.739   1.481  0.8343 -0.4988  0.3790
22021SOL     OW69464   3.907   8.193   5.703  0.1372  0.2247 -0.0646
22021SOL    HW169465   3.914   8.121   5.766  1.8832  0.2095 -0.2085
22021SOL    HW269466   3.978   8.253   5.728  0.3446  0.6228 -1.5174
22022SOL     OW69467   3.690   7.689   8.083  0.5994  0.2642  0.0506
22022SOL    HW169468   3.784   7.667   8.088  0.7013  0.2040 -1.6164
22022SOL    HW269469   3.683   7.745   8.006 -0.8541 -0.4279 -0.3470
22023SOL     OW69470   8.706   7.287   9.268  0.3040  0.1813 -0.4351
22023SOL    HW169471   8.802   7.282   9.268  0.2454 -1.8471 -0.1947
22023SOL    HW269472   8.679   7.234   9.193 -0.6326 -1.1694  0.7804
22024SOL     OW69473   8.810   4.972   1.065  0.2670  0.5190 -0.2170
22024SOL    HW169474   8.858   4.899   1.026  1.1614  0.4163  1.0337
22024SOL    HW269475   8.736   4.931   1.109  0.5379  0.3925  0.1294
22025SOL     OW69476   2.569   4.289   3.831 -0.4389 -0.7806 -0.4209
22025SOL    HW169477   2.485   4.282   3.877 -0.2699 -1.3625 -0.1939
22025SOL    HW269478   2.550   4.345   3.756 -0.8192 -0.1609  0.1176
22026SOL     OW69479   9.679   4.677   3.133  0.0300  0.0464  0.5353
22026SOL    HW169480   9.705   4.666   3.041  2.2869  1.8214  0.8645
22026SOL    HW269481   9.655   4.589   3.162 -0.5977 -0.5768 -1.6866
22027SOL     OW69482   9.180   5.419   4.389  0.3444 -0.1586  0.0091
22027SOL    HW169483   9.273   5.402   4.381  0.1917 -0.9026 -0.2134
22027SOL    HW269484   9.144   5.400   4.303 -0.0354 -0.0176  0.1343
22028SOL     OW69485   0.554   1.221   9.628  0.1905 -0.4776 -0.3401
22028SOL    HW169486   0.497   1.284   9.670  0.3300  0.4910 -1.5331
22028SOL    HW269487   0.606   1.183   9.699 -0.9197 -0.3338  0.5648
22029SOL     OW69488   0.737   3.527   9.854 -0.1943 -0.2673  0.3997
22029SOL    HW169489   0.756   3.572   9.771 -1.0975 -0.7238 -0.0667
22029SOL    HW269490   0.822   3.494   9.883  0.4745  1.6106  0.6933
22030SOL     OW69491   3.886   3.773   6.868  0.2087  0.2707  0.4596
22030SOL    HW169492   3.866   3.867   6.861  0.9246  0.4485  0.7626
22030SOL    HW269493   3.977   3.766   6.840  0.5003 -0.1766  1.4717
22031SOL     OW69494   8.656   9.148   7.504  0.3946  0.4734 -0.3508
22031SOL    HW169495   8.697   9.109   7.581 -0.2900  1.7451  0.7020
22031SOL    HW269496   8.620   9.231   7.535  0.4213  1.2065 -2.1395
22032SOL     OW69497   2.572   0.881   5.617  0.1155 -0.0560 -0.4875
22032SOL    HW169498   2.555   0.922   5.702  0.4583  0.2452 -0.5642
22032SOL    HW269499   2.514   0.927   5.556 -0.9417 -1.0003 -0.2387
22033SOL     OW69500  10.615   5.934  10.804 -0.0461  0.1535  0.4634
22033SOL    HW169501  10.541   5.923  10.864  1.5157  0.1963  2.5068
22033SOL    HW269502  10.655   6.016  10.830  1.3285 -0.3825  0.1028
22034SOL     OW69503  10.655   2.623   5.153  0.0131  0.2000 -0.0580
22034SOL    HW169504  10.701   2.644   5.072 -3.7437 -0.3077 -2.6165
22034SOL    HW269505  10.655   2.527   5.156  0.0745  0.2128  0.5273
22035SOL     OW69506   2.789   1.025   7.963  0.0711  0.7811 -0.0543
22035SOL    HW169507   2.876   1.015   7.923 -0.0456 -1.0666  0.0813
22035SOL    HW269508   2.804   1.012   8.056 -0.7265 -2.9350 -0.2962
22036SOL     OW69509   9.691   5.324  10.086  0.1362  0.0239 -0.5609
22036SOL    HW169510   9.626   5.257  10.109 -0.6166  1.0394  0.4111
22036SOL    HW269511   9.656   5.365  10.007 -0.0311  0.0695 -0.4652
22037SOL     OW69512   2.096   7.226  10.155 -0.0253 -0.3363 -0.0414
22037SOL    HW169513   2.075   7.176  10.076 -2.0232 -0.1436  0.3120
22037SOL    HW269514   2.076   7.166  10.227 -1.5222  0.6155  0.3649
22038SOL     OW69515   8.788   5.681   1.631  0.3905  0.0470  0.5238
22038SOL    HW169516   8.726   5.752   1.619  0.8768  0.4981  0.6576
22038SOL    HW269517   8.770   5.621   1.558  0.0576  0.3573  0.3475
22039SOL     OW69518   7.336   1.317   1.215 -0.6602 -0.4478 -0.3336
22039SOL    HW169519   7.323   1.404   1.253 -0.4726 -0.8520  0.6778
22039SOL    HW269520   7.336   1.258   1.290  0.5776 -1.1731 -0.8831
22040SOL     OW69521   0.388   3.409   7.469  0.2976 -0.6415  0.3361
22040SOL    HW169522   0.443   3.479   7.433 -1.8978  0.5946 -0.8533
22040SOL    HW269523   0.422   3.394   7.557  1.4364  1.2426  0.2654
22041SOL     OW69524   3.365   1.002   9.339  0.9124 -0.0394 -0.6729
22041SOL    HW169525   3.320   0.924   9.309 -0.4488  0.1893  0.6176
22041SOL    HW269526   3.295   1.066   9.354  1.7480  0.6667  0.4396
22042SOL     OW69527   5.194   4.910   5.466 -0.0429 -0.3093 -0.2181
22042SOL    HW169528   5.229   4.841   5.411  0.8465 -0.1810  0.1573
22042SOL    HW269529   5.257   4.917   5.538  0.2662  1.3412 -0.5965
22043SOL     OW69530   6.110   6.143   6.264 -0.3493 -0.8503  0.0297
22043SOL    HW169531   6.089   6.061   6.220 -0.0221  0.0718 -2.0067
22043SOL    HW269532   6.159   6.193   6.198 -0.0499  0.7505  1.3942
22044SOL     OW69533   9.457   4.181   0.067 -0.3847 -0.1468  0.0616
22044SOL    HW169534   9.450   4.165   0.161  1.0503 -0.4328  0.1536
22044SOL    HW269535   9.438   4.274   0.056 -0.8811 -0.1860  0.5851
22045SOL     OW69536   9.816   1.549  10.641 -0.3742 -0.7072 -0.2797
22045SOL    HW169537   9.785   1.483  10.579  0.1449 -2.0595  0.8485
22045SOL    HW269538   9.905   1.521  10.662  0.3720  1.1351 -0.7960
22046SOL     OW69539   5.136   8.461   6.139  0.2360  0.4250 -0.4341
22046SOL    HW169540   5.184   8.448   6.220  1.1652 -0.7813 -1.1421
22046SOL    HW269541   5.057   8.407   6.149 -0.1546  1.0648  0.0435
22047SOL     OW69542   6.280   1.072   8.340 -0.3892  0.0272 -0.2941
22047SOL    HW169543   6.236   1.074   8.255  1.2099  0.6887 -1.1429
22047SOL    HW269544   6.250   1.153   8.384  0.5044  0.8373 -1.1504
22048SOL     OW69545   8.855   9.035   8.610 -0.1970  0.2751 -0.1939
22048SOL    HW169546   8.810   9.075   8.684 -0.4524 -1.6259  0.7215
22048SOL    HW269547   8.898   8.958   8.646  3.0359  1.4344 -1.2149
22049SOL     OW69548   8.417   8.157   2.744 -0.5151  0.0040  0.3376
22049SOL    HW169549   8.378   8.188   2.826  0.9270  0.3207  0.9376
22049SOL    HW269550   8.455   8.235   2.705  2.9387 -0.8038  1.7379
22050SOL     OW69551   3.822   2.391   9.772  0.0078 -0.0816 -0.1225
22050SOL    HW169552   3.842   2.426   9.859  0.1916 -0.1395 -0.1419
22050SOL    HW269553   3.812   2.296   9.787  2.4999 -0.4736 -0.5802
22051SOL     OW69554   6.044   5.565   2.801 -0.3480 -0.5879  0.5059
22051SOL    HW169555   6.045   5.517   2.719  2.0940 -1.2359  0.8257
22051SOL    HW269556   6.087   5.506   2.864  0.7646  1.1267  1.4326
22052SOL     OW69557   2.909   6.699   2.075 -1.0977 -0.2874  0.1568
22052SOL    HW169558   2.835   6.758   2.089 -1.5254 -1.1268  1.6915
22052SOL    HW269559   2.964   6.711   2.153 -0.9468 -1.5588  0.2634
22053SOL     OW69560   1.771   4.530   5.195 -0.2338  0.3200 -0.0856
22053SOL    HW169561   1.708   4.485   5.251 -0.3483 -0.4205 -0.8033
22053SOL    HW269562   1.778   4.617   5.234 -1.2363  0.2204  0.3706
22054SOL     OW69563   4.999   7.298  10.855  0.0651  0.3017 -0.4876
22054SOL    HW169564   4.908   7.270  10.847  0.3373 -1.0989  0.8854
22054SOL    HW269565   4.998   7.391  10.833 -1.5724  0.1507 -1.1565
22055SOL     OW69566   4.703   8.426   3.017  0.3498  0.4764  0.0650
22055SOL    HW169567   4.650   8.487   2.966  3.2670  1.9907 -1.4466
22055SOL    HW269568   4.740   8.480   3.087  1.3178 -0.0296 -0.0324
22056SOL     OW69569   9.155   9.400   5.379 -0.0895  0.0339  0.0593
22056SOL    HW169570   9.072   9.412   5.334  0.3901 -0.0240 -0.8705
22056SOL    HW269571   9.190   9.319   5.342  0.2461 -0.0992  0.6576
22057SOL     OW69572   7.298   6.804  10.326  0.1118 -0.7137  0.1042
22057SOL    HW169573   7.390   6.788  10.350  0.2319 -2.5996 -1.3576
22057SOL    HW269574   7.303   6.875  10.262  0.3088  0.5781  1.4929
22058SOL     OW69575   8.613   5.452  10.605  0.0543  0.4180  0.0148
22058SOL    HW169576   8.630   5.396  10.681  2.2346 -1.3928 -1.6761
22058SOL    HW269577   8.579   5.393  10.538 -0.6681  1.7492 -0.8573
22059SOL     OW69578   1.294  10.526   3.221 -0.3969 -0.2098 -0.0794
22059SOL    HW169579   1.235  10.477   3.162 -1.4378  0.0580  0.7129
22059SOL    HW269580   1.329  10.459   3.280 -0.3850 -0.2729 -0.1569
22060SOL     OW69581   9.486  10.069   2.514  0.0355 -0.4303  0.2670
22060SOL    HW169582   9.430  10.082   2.437 -1.3850  2.9478  1.6743
22060SOL    HW269583   9.441  10.003   2.566 -1.2058  0.2451  0.0849
22061SOL     OW69584   2.798   2.810   2.271  0.3334  0.2511  0.1069
22061SOL    HW169585   2.811   2.888   2.216 -0.8429 -0.4722 -1.2783
22061SOL    HW269586   2.740   2.839   2.341  0.1870  0.7145 -0.2025
22062SOL     OW69587   8.938   4.122   6.883  0.3465  0.2162  0.2453
22062SOL    HW169588   8.872   4.183   6.916 -1.0854 -0.9266 -0.3907
22062SOL    HW269589   8.911   4.103   6.793  0.1822 -2.0533  0.6998
22063SOL     OW69590   7.734   2.535   8.315 -0.0102  0.5305  0.1319
22063SOL    HW169591   7.657   2.535   8.258  0.5924  2.0648 -0.7475
22063SOL    HW269592   7.789   2.465   8.280 -0.9173 -0.5236  0.7132
22064SOL     OW69593  10.885   2.897   9.278 -0.0397 -0.6733  0.0821
22064SOL    HW169594  10.824   2.865   9.211 -0.3800 -0.9650  0.5263
22064SOL    HW269595  10.865   2.844   9.355  0.7939 -0.7847  0.2249
22065SOL     OW69596  10.316   7.348   1.565  0.2557  0.6957  0.1302
22065SOL    HW169597  10.394   7.342   1.509 -0.2381  0.5658 -0.5511
22065SOL    HW269598  10.317   7.268   1.617 -1.0347 -0.7962 -2.0068
22066SOL     OW69599  10.659   0.101   3.292 -0.0121  0.5291 -0.0324
22066SOL    HW169600  10.730   0.143   3.341 -0.2999  1.0667 -0.0737
22066SOL    HW269601  10.700   0.025   3.251  0.3434  0.3333  0.6620
22067SOL     OW69602   4.417   1.594   4.997 -0.3494  0.0642  0.0174
22067SOL    HW169603   4.349   1.610   4.931  0.5330  1.1657 -0.6677
22067SOL    HW269604   4.470   1.524   4.960  0.1616  0.6991 -0.4983
22068SOL     OW69605   9.770  10.420   9.108  0.2633 -0.1616  0.3298
22068SOL    HW169606   9.689  10.409   9.158  0.4731 -1.1436  0.4735
22068SOL    HW269607   9.839  10.386   9.166  0.5568 -0.9569 -0.4672
22069SOL     OW69608   8.857   0.814  10.045  0.0182 -0.3243  0.5520
22069SOL    HW169609   8.896   0.727  10.047 -0.2149 -0.4672  3.7197
22069SOL    HW269610   8.768   0.802  10.078 -1.3129  0.6799 -2.3047
22070SOL     OW69611   1.003  10.764   1.597  0.4453 -0.5045 -0.3323
22070SOL    HW169612   0.999  10.733   1.507  1.3010  0.8046 -0.8458
22070SOL    HW269613   0.951  10.701   1.647 -1.4873 -0.3133 -1.9989
22071SOL     OW69614   6.114   2.421   6.286  0.4270 -0.4163 -0.5204
22071SOL    HW169615   6.119   2.447   6.195 -1.0530 -2.1446 -1.1657
22071SOL    HW269616   6.186   2.358   6.297  0.3468 -0.5287 -0.6297
22072SOL     OW69617   3.226   1.826   0.741  0.7573  0.0872  0.3159
22072SOL    HW169618   3.151   1.861   0.789 -0.8730 -2.2008 -0.4047
22072SOL    HW269619   3.302   1.852   0.794 -0.6671  0.8689  2.0813
22073SOL     OW69620   0.474   5.252   1.126 -0.1748 -0.0251 -0.1229
22073SOL    HW169621   0.526   5.183   1.168  1.1849 -0.2446 -2.0219
22073SOL    HW269622   0.453   5.216   1.040 -0.2214  1.5584 -0.7969
22074SOL     OW69623   6.742   6.200   4.026  0.7342  0.3495  0.1282
22074SOL    HW169624   6.831   6.192   3.994  0.7415  0.9489 -0.0085
22074SOL    HW269625   6.722   6.113   4.062  1.4401  0.2698  0.3473
22075SOL     OW69626   2.543   0.320   8.584  0.0036  0.2524 -0.2975
22075SOL    HW169627   2.467   0.309   8.641 -0.2683 -1.7957 -0.9720
22075SOL    HW269628   2.510   0.365   8.507 -0.4021 -0.0919 -0.3271
22076SOL     OW69629  10.196   5.452   5.024 -0.1546  0.5175  0.2191
22076SOL    HW169630  10.169   5.517   5.089  0.1060  1.5522 -0.6902
22076SOL    HW269631  10.279   5.485   4.990 -0.1840 -0.1219 -0.4966
22077SOL     OW69632  10.793   7.975   0.385  0.1524  0.7570  0.0802
22077SOL    HW169633  10.863   8.000   0.324 -0.1049  0.3272 -0.3941
22077SOL    HW269634  10.763   8.058   0.422  1.5475  0.8907  1.0098
22078SOL     OW69635   7.307   5.354   8.527 -0.2741  0.0755  0.0368
22078SOL    HW169636   7.239   5.415   8.499  0.7325  0.6879 -1.2137
22078SOL    HW269637   7.385   5.382   8.479  0.2477 -2.1423 -0.5260
22079SOL     OW69638   4.562   1.560   0.623  0.1519  0.3998  0.7535
22079SOL    HW169639   4.521   1.598   0.701 -3.1826 -0.1543 -0.5831
22079SOL    HW269640   4.528   1.470   0.620  0.9917  0.1055 -0.8473
22080SOL     OW69641   7.365   3.983   2.350 -0.3665 -0.5762  0.1896
22080SOL    HW169642   7.292   3.960   2.292  1.2554 -1.4527 -1.5850
22080SOL    HW269643   7.397   3.899   2.382  0.3059 -0.2495  0.3793
22081SOL     OW69644   7.238   5.887   4.955  0.0214 -0.4199  0.3014
22081SOL    HW169645   7.242   5.806   5.007 -2.1639 -0.7292  0.0559
22081SOL    HW269646   7.216   5.857   4.867 -1.2045  0.4469  0.2916
22082SOL     OW69647   1.548   7.529  10.377 -0.2739 -0.2264 -0.2561
22082SOL    HW169648   1.603   7.501  10.450 -0.5954 -0.9008 -0.2635
22082SOL    HW269649   1.501   7.606  10.410 -1.2855 -1.1944  0.6752
22083SOL     OW69650   0.461   6.084   5.920  0.0541 -0.0448  0.6107
22083SOL    HW169651   0.543   6.104   5.964 -0.4584  0.4246  1.3874
22083SOL    HW269652   0.408   6.040   5.987 -0.6693  0.5148  0.4290
22084SOL     OW69653   2.000   7.612   1.669 -0.2322  0.3019 -0.3731
22084SOL    HW169654   2.020   7.567   1.751 -1.0975  1.1591  0.3128
22084SOL    HW269655   2.041   7.557   1.602  2.1508  0.5739  0.7454
22085SOL     OW69656   9.875   4.339   9.056 -0.4295 -0.1321 -0.7435
22085SOL    HW169657   9.849   4.271   9.117 -0.6993 -1.8374 -2.6625
22085SOL    HW269658   9.956   4.375   9.092 -0.3418 -1.3748  0.3634
22086SOL     OW69659  10.039   4.803   6.255 -0.2535 -0.3153 -0.0920
22086SOL    HW169660  10.126   4.818   6.293 -0.6519  0.9323  0.3976
22086SOL    HW269661   9.981   4.861   6.305 -1.1837 -0.3125 -1.1321
22087SOL     OW69662   9.930   4.859   3.115 -0.3323 -0.1303  0.1767
22087SOL    HW169663   9.846   4.819   3.094  0.6700 -1.7493 -1.0827
22087SOL    HW269664   9.987   4.784   3.137  1.5852  0.5209 -2.0946
22088SOL     OW69665   0.867   9.609   1.404 -0.3330 -0.3386 -0.0627
22088SOL    HW169666   0.802   9.626   1.473 -0.7780  1.2707 -0.8242
22088SOL    HW269667   0.840   9.525   1.366 -1.3258 -0.2275  0.3461
22089SOL     OW69668   3.518   1.969   2.711  0.2193  0.1527 -0.0684
22089SOL    HW169669   3.501   2.054   2.670 -0.2567 -0.4602 -1.2048
22089SOL    HW269670   3.601   1.940   2.673  0.2566 -0.0075  0.1308
22090SOL     OW69671   0.318   6.314   1.974 -0.6615  0.4280  0.4265
22090SOL    HW169672   0.361   6.273   1.899 -1.1663 -0.5840  0.6772
22090SOL    HW269673   0.229   6.331   1.943 -0.3622  1.7035  0.2027
22091SOL     OW69674   0.766   5.737   8.258  0.0479  0.2564  0.1112
22091SOL    HW169675   0.852   5.743   8.299 -0.2053  0.0766  0.6821
22091SOL    HW269676   0.720   5.670   8.308 -0.2926  0.0758 -0.4345
22092SOL     OW69677   8.252   8.695   1.907 -0.0726 -0.4254  0.1229
22092SOL    HW169678   8.339   8.702   1.946 -0.0450  0.0302 -0.0113
22092SOL    HW269679   8.234   8.783   1.873 -0.6253 -0.4930  0.2360
22093SOL     OW69680   2.479   6.450   3.778  0.2928 -0.2209 -0.1152
22093SOL    HW169681   2.519   6.533   3.750  0.0636 -0.1652 -0.2760
22093SOL    HW269682   2.523   6.384   3.724 -0.1081 -0.1189 -0.5718
22094SOL     OW69683   8.096   1.306   6.810  0.7326 -0.1253 -0.5672
22094SOL    HW169684   8.070   1.300   6.718 -0.6447 -0.6337 -0.1720
22094SOL    HW269685   8.079   1.398   6.833 -3.1324 -0.8866  0.2869
22095SOL     OW69686   5.397   3.791  10.150 -0.2921  0.0575 -0.5037
22095SOL    HW169687   5.367   3.881  10.144 -0.3535 -0.0076 -1.3176
22095SOL    HW269688   5.368   3.750  10.068 -0.7428 -0.8416  0.0897
22096SOL     OW69689   7.715   1.585   4.830  0.4321 -0.4019  0.2066
22096SOL    HW169690   7.652   1.621   4.892  0.9971  0.9265  0.0285
22096SOL    HW269691   7.801   1.608   4.865  0.8255 -1.6149  0.0942
22097SOL     OW69692   3.732   4.959   0.839 -0.5307  0.5180  0.5683
22097SOL    HW169693   3.777   4.897   0.896 -0.5240  1.1623  1.2890
22097SOL    HW269694   3.739   5.043   0.885 -0.6324  1.0307 -0.3327
22098SOL     OW69695   3.304   5.349   4.316  0.2589 -0.0828 -0.4738
22098SOL    HW169696   3.350   5.362   4.399 -0.4009 -2.2428  0.2943
22098SOL    HW269697   3.372   5.319   4.256  0.8476  2.0093 -0.9297
22099SOL     OW69698   5.591   0.092   3.873  0.3303 -0.0993 -0.2493
22099SOL    HW169699   5.624   0.126   3.790  0.3317  0.5504  0.0121
22099SOL    HW269700   5.497   0.079   3.858  0.0209  1.5058  0.1082
22100SOL     OW69701   0.313   7.148   9.091 -0.2123  0.0815  0.3222
22100SOL    HW169702   0.314   7.052   9.089  1.9792  0.0449  0.3181
22100SOL    HW269703   0.222   7.172   9.073 -0.7331 -1.9797 -0.0245
22101SOL     OW69704   5.771   1.599   3.864  0.5435  0.0861 -0.0126
22101SOL    HW169705   5.753   1.693   3.855 -2.1145 -0.3849 -0.7880
22101SOL    HW269706   5.752   1.564   3.777  1.0148 -1.2250  0.4012
22102SOL     OW69707   1.967   4.631   4.713 -0.5243 -0.0368 -0.3390
22102SOL    HW169708   1.929   4.644   4.800  2.2855  1.8781  0.7396
22102SOL    HW269709   1.975   4.719   4.677  1.7425 -0.4325 -0.9337
22103SOL     OW69710   0.281   8.045   4.612  0.4568 -0.1735 -0.2570
22103SOL    HW169711   0.352   8.089   4.659  1.0876 -1.5987  0.2009
22103SOL    HW269712   0.291   7.952   4.636 -0.5787 -0.6256 -1.4649
22104SOL     OW69713   4.222   2.501   6.509 -0.9417  0.6041 -0.8220
22104SOL    HW169714   4.248   2.437   6.575 -0.4678  1.2055 -0.4134
22104SOL    HW269715   4.132   2.523   6.530 -0.9493  0.4298 -0.6722
22105SOL     OW69716   8.802   1.125  10.380 -0.3419  0.8832  0.1959
22105SOL    HW169717   8.877   1.066  10.374  1.5123  2.9568  1.2253
22105SOL    HW269718   8.751   1.092  10.454  0.1105  0.0179  0.1278
22106SOL     OW69719   0.159   6.821   7.668  0.2541  0.1374  0.1890
22106SOL    HW169720   0.193   6.736   7.638 -0.4558  0.1435 -0.6628
22106SOL    HW269721   0.141   6.869   7.587 -1.4752  0.2510  0.6026
22107SOL     OW69722   2.421   9.981   1.375 -0.4507 -0.0589 -0.2308
22107SOL    HW169723   2.450   9.895   1.343 -1.5593 -0.5815  0.0795
22107SOL    HW269724   2.411  10.034   1.296  0.0473 -0.2806 -0.4458
22108SOL     OW69725   6.614   4.817   3.677  0.1858 -0.1469 -0.0856
22108SOL    HW169726   6.636   4.901   3.717 -0.7711 -0.3924  1.0175
22108SOL    HW269727   6.606   4.756   3.751 -2.0439 -0.5191 -0.5652
22109SOL     OW69728   2.434   0.713   9.461  0.2048 -0.0912  0.2419
22109SOL    HW169729   2.366   0.707   9.528  0.1178  1.0537  0.2651
22109SOL    HW269730   2.471   0.624   9.457  0.3788 -0.1298  1.9853
22110SOL     OW69731   6.331   9.757   3.596  0.1512 -0.1449  0.1707
22110SOL    HW169732   6.314   9.840   3.640  1.0250 -0.3443  0.9021
22110SOL    HW269733   6.260   9.700   3.626  1.0675 -0.4640  1.8443
22111SOL     OW69734   9.429   3.996  10.549 -0.0722  0.0177  0.4989
22111SOL    HW169735   9.473   3.936  10.610  0.7195  0.1220  0.0375
22111SOL    HW269736   9.408   4.073  10.601 -1.1615 -0.6665  1.1190
22112SOL     OW69737   1.654   2.615   2.156 -0.0475  0.0248  0.1440
22112SOL    HW169738   1.574   2.635   2.205  0.5565  2.7222  0.1629
22112SOL    HW269739   1.725   2.646   2.212  0.8525  0.1084 -1.0037
22113SOL     OW69740   0.190   8.696   7.375  0.4864 -0.6258 -0.2773
22113SOL    HW169741   0.132   8.769   7.354  0.4634 -0.7883 -0.8021
22113SOL    HW269742   0.136   8.618   7.361  0.5421 -0.7492  0.1746
22114SOL     OW69743   9.786   3.940   3.928  0.4942 -0.1602  0.6960
22114SOL    HW169744   9.729   4.014   3.949 -1.1451 -0.9794 -0.6584
22114SOL    HW269745   9.759   3.871   3.989 -0.7982 -0.9063 -0.6515
22115SOL     OW69746   2.601   6.813   4.027  0.0540  0.0523  0.2561
22115SOL    HW169747   2.576   6.904   4.016 -1.8383 -0.4401  0.1203
22115SOL    HW269748   2.521   6.764   4.010 -0.3112 -1.4137  4.8801
22116SOL     OW69749   4.644   3.951   3.107  0.4170 -0.4622 -0.1818
22116SOL    HW169750   4.583   3.979   3.039  0.3194 -1.3063 -0.4486
22116SOL    HW269751   4.726   3.934   3.060  0.9845  0.9542  0.2114
22117SOL     OW69752   9.956   3.166   3.453 -0.4674  0.5441 -0.0048
22117SOL    HW169753  10.010   3.139   3.528 -0.0348 -1.1578 -0.8767
22117SOL    HW269754   9.995   3.248   3.424  0.8802 -0.0119  0.1625
22118SOL     OW69755   2.528   4.846   4.104  0.2664  0.2964 -0.0637
22118SOL    HW169756   2.513   4.808   4.191  1.0868 -2.1166 -0.8772
22118SOL    HW269757   2.612   4.810   4.077 -0.0691  0.8501 -1.9325
22119SOL     OW69758   2.969   9.728   7.348  0.1541  0.1240  0.0792
22119SOL    HW169759   2.901   9.777   7.302  0.1800  1.0239  0.9498
22119SOL    HW269760   2.936   9.638   7.350  1.0380 -0.3975 -3.3135
22120SOL     OW69761   6.278   3.913   7.309  0.8257  0.1338  0.4331
22120SOL    HW169762   6.294   3.880   7.221 -0.1148 -0.6608  0.5534
22120SOL    HW269763   6.273   4.008   7.298 -2.4268 -0.0674 -0.9583
22121SOL     OW69764   6.191   5.030   4.262  0.3237  0.4458 -0.0305
22121SOL    HW169765   6.216   4.951   4.214  2.1894 -0.4553  2.2290
22121SOL    HW269766   6.154   4.997   4.344 -1.7366  1.9311 -0.3010
22122SOL     OW69767   3.198   0.105   6.739  0.4032  0.2185 -0.0212
22122SOL    HW169768   3.168   0.195   6.755 -0.9812 -0.1332 -0.5093
22122SOL    HW269769   3.195   0.063   6.824 -0.7697  0.1224 -0.0997
22123SOL     OW69770   9.590   3.853  10.705 -0.4395 -0.1138  0.0133
22123SOL    HW169771   9.569   3.854  10.799  1.9299 -0.0345  0.5902
22123SOL    HW269772   9.639   3.772  10.692  0.4347  0.5435 -0.8658
22124SOL     OW69773   3.895   5.463   3.061 -0.5505  0.2937 -0.3710
22124SOL    HW169774   3.964   5.496   3.118  0.1041 -1.4196 -0.0847
22124SOL    HW269775   3.814   5.500   3.095  0.0727  1.0723  0.2753
22125SOL     OW69776   8.930   0.005  10.168  0.1021 -0.7355 -0.0544
22125SOL    HW169777   8.953   0.067  10.098 -0.2326 -0.3170  0.2029
22125SOL    HW269778   9.015  -0.019  10.207  0.3412 -1.3854 -0.9386
22126SOL     OW69779   6.127   3.395   0.494  0.0669 -0.4571 -0.0448
22126SOL    HW169780   6.126   3.423   0.586  0.9838 -1.0944  0.1755
22126SOL    HW269781   6.055   3.444   0.454  0.4691  0.8265  0.7148
22127SOL     OW69782   5.645   1.218   6.170  0.2979  0.2278 -0.3876
22127SOL    HW169783   5.666   1.304   6.134  2.0433 -0.6558 -1.5862
22127SOL    HW269784   5.615   1.167   6.095  2.0513 -1.0324 -0.2963
22128SOL     OW69785   4.654   1.555  10.137  1.0065 -0.2539 -0.2089
22128SOL    HW169786   4.641   1.605  10.057 -0.0437 -0.9424 -0.4956
22128SOL    HW269787   4.622   1.613  10.207 -0.0617 -0.4475 -0.5217
22129SOL     OW69788   8.614   5.741   4.741  0.6200 -0.0214  0.6013
22129SOL    HW169789   8.533   5.775   4.778  1.0215 -0.0284  1.5189
22129SOL    HW269790   8.683   5.791   4.784  1.0993  0.2325 -0.4327
22130SOL     OW69791   3.752   4.112   9.151  0.9223 -0.1466  0.4504
22130SOL    HW169792   3.818   4.065   9.100  1.0371 -0.0145  0.4767
22130SOL    HW269793   3.693   4.149   9.086  0.7446 -0.4518  0.4341
22131SOL     OW69794   0.439   3.291   3.488  0.6421 -0.4063  0.3654
22131SOL    HW169795   0.350   3.294   3.454  1.4371  1.1157 -1.8319
22131SOL    HW269796   0.443   3.360   3.553  0.1865 -0.5514  0.5483
22132SOL     OW69797   0.296   6.032   2.518  0.3111  0.6923  0.0175
22132SOL    HW169798   0.250   5.967   2.571  1.6228 -0.2246  0.0995
22132SOL    HW269799   0.237   6.108   2.515 -0.9699 -0.2488  0.4803
22133SOL     OW69800   8.588   1.697   9.779 -0.0232 -0.5151  0.9330
22133SOL    HW169801   8.599   1.643   9.700  0.9584 -0.6789  1.1652
22133SOL    HW269802   8.678   1.719   9.805 -0.3940  1.5451  0.6415
22134SOL     OW69803   3.715   8.464   6.998 -0.4313  0.1430  0.2689
22134SOL    HW169804   3.739   8.492   7.086 -2.4605  1.0510  0.5857
22134SOL    HW269805   3.623   8.439   7.004 -1.0206  1.4737 -1.8345
22135SOL     OW69806   4.087   9.366   2.306 -0.3875 -0.3266  0.4135
22135SOL    HW169807   4.036   9.286   2.323 -0.8698 -0.0059  0.4866
22135SOL    HW269808   4.172   9.334   2.275 -0.6005 -0.8693  0.3801
22136SOL     OW69809   2.744   4.793   1.586 -0.2326 -0.0896  0.2879
22136SOL    HW169810   2.685   4.862   1.558 -0.2701 -0.4221 -0.4852
22136SOL    HW269811   2.687   4.730   1.630 -0.1386  0.5478  1.3419
22137SOL     OW69812   9.267   7.207   2.371  0.2549 -0.1489  0.1978
22137SOL    HW169813   9.201   7.186   2.305  0.6565  0.2728 -0.3381
22137SOL    HW269814   9.244   7.295   2.401 -0.6029 -0.7783  1.4488
22138SOL     OW69815   2.799   5.587   1.950  0.4687 -0.3997  0.1946
22138SOL    HW169816   2.830   5.497   1.950  0.5544 -0.4673  2.9606
22138SOL    HW269817   2.877   5.639   1.968  0.4963  0.3279 -1.7570
22139SOL     OW69818   7.673   8.970   3.088  0.3284  0.3102  0.4146
22139SOL    HW169819   7.624   8.929   3.017  1.1867 -1.6858  0.8952
22139SOL    HW269820   7.745   9.016   3.044  0.0762  0.2457 -0.0725
22140SOL     OW69821   7.734   1.488   5.673  0.0145 -0.3305 -0.0073
22140SOL    HW169822   7.734   1.399   5.708  1.4901  0.1102  1.1938
22140SOL    HW269823   7.686   1.539   5.737  1.2843  0.1713  0.5699
22141SOL     OW69824   4.015   6.739   5.724  0.4541  0.4200 -0.2981
22141SOL    HW169825   4.007   6.792   5.803 -0.4625  1.2228 -0.9007
22141SOL    HW269826   3.932   6.691   5.719  0.8134 -0.2011 -0.3783
22142SOL     OW69827   3.163   0.122   2.938  0.5359  0.5963  0.0168
22142SOL    HW169828   3.073   0.117   2.970  0.7914 -0.1054  0.6373
22142SOL    HW269829   3.167   0.206   2.892 -0.4629  0.5871 -0.1156
22143SOL     OW69830   2.000   9.310   9.354 -0.9390  0.0792 -0.0558
22143SOL    HW169831   1.925   9.318   9.295  0.1721  2.2387 -1.2929
22143SOL    HW269832   1.997   9.389   9.408  0.7125  0.4844 -0.4956
22144SOL     OW69833   7.075   1.844   5.103  0.3602  0.4849  0.1342
22144SOL    HW169834   7.074   1.772   5.166  0.7839  0.4870  0.1493
22144SOL    HW269835   7.028   1.809   5.026 -0.8339  0.7488  0.7208
22145SOL     OW69836  10.859   7.571   2.809  0.7680 -0.1571  0.1945
22145SOL    HW169837  10.929   7.630   2.780 -0.0427  0.8994  0.3410
22145SOL    HW269838  10.884   7.547   2.898 -0.2046  2.1277  1.1647
22146SOL     OW69839   6.459   3.258   2.248 -0.0447 -0.0362 -0.1150
22146SOL    HW169840   6.532   3.316   2.272 -0.4302 -0.3643  2.0401
22146SOL    HW269841   6.468   3.182   2.306 -2.4704  0.2350  0.7517
22147SOL     OW69842   7.685   0.011   2.224 -0.3134  0.4158 -0.1649
22147SOL    HW169843   7.628   0.015   2.147 -1.5098 -1.3628  0.5856
22147SOL    HW269844   7.703  -0.082   2.237  2.3140  0.8529  0.0170
22148SOL     OW69845   1.828   7.757   4.243  0.1020  0.1877 -0.2661
22148SOL    HW169846   1.764   7.789   4.179  0.1797 -0.5622 -0.7259
22148SOL    HW269847   1.789   7.778   4.328 -0.4899  0.2526 -0.5469
22149SOL     OW69848   0.305   1.802   1.824 -0.2812 -0.3341  0.4647
22149SOL    HW169849   0.271   1.793   1.736  1.2220  0.5465 -0.2502
22149SOL    HW269850   0.372   1.734   1.832  2.0540  1.6780 -0.4050
22150SOL     OW69851   1.869   4.442   9.425 -0.1579 -0.0410  0.1994
22150SOL    HW169852   1.807   4.417   9.356 -0.3588  1.1707 -0.0711
22150SOL    HW269853   1.955   4.424   9.388 -0.2501  0.9179 -0.5130
22151SOL     OW69854   4.064   0.237   0.892 -0.4180  0.0413 -0.3442
22151SOL    HW169855   4.037   0.197   0.810  0.0008  0.3158 -0.6203
22151SOL    HW269856   4.141   0.290   0.869  0.7872 -1.2460  0.5426
22152SOL     OW69857   6.099   7.166   1.178  0.1202  0.1558  0.4795
22152SOL    HW169858   6.078   7.073   1.182 -1.1569  0.3290 -0.9169
22152SOL    HW269859   6.068   7.202   1.261  1.6672 -0.8271  1.5120
22153SOL     OW69860   1.760   3.433  10.176  0.3635  0.7182 -0.6792
22153SOL    HW169861   1.731   3.484  10.251  0.4603  0.1953 -0.2862
22153SOL    HW269862   1.846   3.469  10.154  0.5851  0.4946 -0.1853
22154SOL     OW69863   1.138   0.404   1.876 -0.2385  0.0151  0.2824
22154SOL    HW169864   1.202   0.436   1.939 -0.3041 -0.1181  0.4178
22154SOL    HW269865   1.190   0.355   1.812 -0.2251 -0.2426  0.4903
22155SOL     OW69866   6.751   2.471   5.950 -0.5359 -0.1138 -0.0704
22155SOL    HW169867   6.727   2.507   6.036  0.3932  0.0979  0.1149
22155SOL    HW269868   6.747   2.376   5.961 -0.7586 -0.0864  0.1001
22156SOL     OW69869  10.487  10.509   4.318  0.6054 -0.0159  0.0490
22156SOL    HW169870  10.412  10.563   4.293  0.4621  0.7529  1.9606
22156SOL    HW269871  10.474  10.427   4.269 -2.4540 -0.5762  1.5199
22157SOL     OW69872   9.473   2.099  10.537  0.5956  0.2100  0.7461
22157SOL    HW169873   9.503   2.137  10.620 -0.3693 -0.2901  1.3509
22157SOL    HW269874   9.436   2.014  10.562 -1.1389  0.7108  0.0456
22158SOL     OW69875   6.687   6.813   4.909 -0.5785 -0.2145  0.0420
22158SOL    HW169876   6.637   6.734   4.889 -0.3616 -0.3452  0.0256
22158SOL    HW269877   6.726   6.797   4.995 -0.2914 -0.2446 -0.0927
22159SOL     OW69878  10.191   4.379   6.410 -0.0489 -0.2718 -0.2135
22159SOL    HW169879  10.278   4.408   6.383  0.4593 -1.7802 -0.3174
22159SOL    HW269880  10.131   4.444   6.374  1.0382  0.8765 -0.0137
22160SOL     OW69881   0.607   0.399   5.818 -0.5158  0.8570  0.1908
22160SOL    HW169882   0.568   0.481   5.787 -2.9502 -0.4077 -0.3098
22160SOL    HW269883   0.678   0.382   5.757 -0.9033  1.8690 -0.5821
22161SOL     OW69884   2.138   8.177   2.761  0.4595 -0.3617 -0.0689
22161SOL    HW169885   2.137   8.253   2.703  0.8462  0.7917  1.3971
22161SOL    HW269886   2.069   8.120   2.726 -0.4060  1.0161 -0.7087
22162SOL     OW69887   5.524   8.830   3.602  0.2315  0.0428 -0.7627
22162SOL    HW169888   5.609   8.793   3.625  1.1168  0.5931 -2.8728
22162SOL    HW269889   5.533   8.924   3.617 -0.6355 -0.0684  0.6675
22163SOL     OW69890   0.813   0.447   5.423  0.8215 -0.0142 -0.4867
22163SOL    HW169891   0.784   0.457   5.332  0.7893 -0.8759 -0.5835
22163SOL    HW269892   0.790   0.530   5.465  1.1868  0.5424 -1.3560
22164SOL     OW69893   6.404   0.627  10.430 -0.0513 -0.3347  0.0444
22164SOL    HW169894   6.479   0.579  10.464 -0.5949 -0.6848  0.7723
22164SOL    HW269895   6.430   0.653  10.342  0.9899 -0.2922  0.3535
22165SOL     OW69896  10.508   6.750   2.210  0.2222 -0.4475  0.5722
22165SOL    HW169897  10.492   6.659   2.185 -2.2115 -0.7191  2.6526
22165SOL    HW269898  10.559   6.744   2.291 -2.4729 -0.2404  2.4389
22166SOL     OW69899   6.230   3.736   1.638  0.5641  0.1090  0.8034
22166SOL    HW169900   6.163   3.667   1.637  1.7208 -1.0532 -0.6898
22166SOL    HW269901   6.313   3.689   1.647  1.3592  1.3249  0.0829
22167SOL     OW69902   4.953  10.140   6.598 -0.0814 -0.0633 -0.7555
22167SOL    HW169903   4.868  10.152   6.640  0.4386  0.8458  0.0827
22167SOL    HW269904   5.011  10.202   6.643  1.0186 -0.6456 -1.3252
22168SOL     OW69905   5.719   2.296   2.414  0.4646 -0.1972  0.1474
22168SOL    HW169906   5.758   2.263   2.333 -0.4037 -1.2082  0.1136
22168SOL    HW269907   5.730   2.224   2.477 -0.0470  0.0679  0.5452
22169SOL     OW69908   3.682   8.128   2.737  0.1807 -0.1002  0.0661
22169SOL    HW169909   3.666   8.216   2.772  0.5190 -0.0297  0.0408
22169SOL    HW269910   3.609   8.076   2.771  0.6669 -0.1098  1.1459
22170SOL     OW69911   3.831   2.454   3.170  0.0959 -0.2655 -0.1290
22170SOL    HW169912   3.749   2.478   3.212  0.1182  0.4117 -0.4560
22170SOL    HW269913   3.807   2.432   3.080  0.3784  0.8709 -0.5035
22171SOL     OW69914   8.871   4.686   6.278  0.0010  0.6932 -0.2018
22171SOL    HW169915   8.813   4.698   6.203 -1.0165  1.9485  0.7482
22171SOL    HW269916   8.945   4.637   6.243 -1.0184  0.1739 -1.7427
22172SOL     OW69917   1.992   2.648   4.463 -0.2972 -0.1910  0.1621
22172SOL    HW169918   2.058   2.599   4.414 -2.0982 -1.2671 -1.3471
22172SOL    HW269919   1.940   2.692   4.396 -0.1744  1.9528  1.3825
22173SOL     OW69920   4.527   1.162   5.944 -1.0278  0.3487 -0.6829
22173SOL    HW169921   4.602   1.205   5.984 -1.0072 -0.8514  0.6303
22173SOL    HW269922   4.555   1.143   5.854 -0.1602  0.8514 -0.5234
22174SOL     OW69923   0.751   9.664   6.847  0.6226  0.3745  0.2141
22174SOL    HW169924   0.757   9.759   6.858  0.5373  0.1648  2.5504
22174SOL    HW269925   0.780   9.628   6.931 -1.7896 -1.5655  0.3423
22175SOL     OW69926   3.469   5.635   7.037  0.0608  0.4095 -0.3271
22175SOL    HW169927   3.540   5.573   7.049  0.4507  0.7148 -1.0004
22175SOL    HW269928   3.511   5.713   7.001 -0.6444  0.5177 -0.9363
22176SOL     OW69929   6.206   3.655   2.979 -0.2807 -0.7203 -0.3330
22176SOL    HW169930   6.246   3.570   2.960 -0.6060 -0.6505 -1.3873
22176SOL    HW269931   6.124   3.633   3.023 -0.1427 -0.9254 -0.1714
22177SOL     OW69932   5.196   3.971   7.886  0.3215  0.3974 -0.2456
22177SOL    HW169933   5.177   3.960   7.979  2.3702  2.6509  0.5670
22177SOL    HW269934   5.276   3.920   7.872 -0.3426 -0.4647 -0.9507
22178SOL     OW69935   7.299   5.796  10.594 -0.2759 -0.0802 -0.0146
22178SOL    HW169936   7.380   5.847  10.588 -0.0804 -0.4151 -0.2798
22178SOL    HW269937   7.229   5.860  10.581 -0.1659  0.5885  2.2168
22179SOL     OW69938   9.266   0.668   7.482 -0.2416 -0.1287 -0.0241
22179SOL    HW169939   9.182   0.684   7.525 -0.7556 -0.4084 -0.9017
22179SOL    HW269940   9.326   0.651   7.555 -0.8514  0.4461  0.6361
22180SOL     OW69941   0.746   5.465   4.527 -0.5349 -0.3178 -0.7077
22180SOL    HW169942   0.664   5.475   4.478  0.2869 -1.3360 -2.3836
22180SOL    HW269943   0.796   5.544   4.507 -0.3499 -0.5653 -1.2435
22181SOL     OW69944   6.754   0.957   7.290  0.3834  0.3210  0.4165
22181SOL    HW169945   6.721   1.045   7.271 -0.8535 -0.3524 -0.6345
22181SOL    HW269946   6.761   0.915   7.205  0.0916 -0.9083  0.9863
22182SOL     OW69947   0.321   5.415   6.944  0.0117 -0.1568 -0.3435
22182SOL    HW169948   0.373   5.442   6.868  1.2116 -0.1996  0.4544
22182SOL    HW269949   0.294   5.497   6.985  2.5718 -0.0478  1.3348
22183SOL     OW69950   1.805   5.639  10.680  0.1169 -0.2280  0.0528
22183SOL    HW169951   1.722   5.661  10.639  1.0690  0.1725 -1.7482
22183SOL    HW269952   1.820   5.548  10.658 -0.5411 -0.7873  1.7120
22184SOL     OW69953   9.083   0.832   7.066  0.2019  0.5977  0.3005
22184SOL    HW169954   9.085   0.797   6.977  1.4128 -0.7329  0.8341
22184SOL    HW269955   9.143   0.778   7.116  2.1194  3.3326  1.2196
22185SOL     OW69956   5.692   7.937   4.715  0.1957  0.4340 -0.2690
22185SOL    HW169957   5.624   7.901   4.658 -0.7547  1.0166  0.4857
22185SOL    HW269958   5.692   7.879   4.791  0.1776  0.7495 -0.0294
22186SOL     OW69959   6.319   8.474   0.695 -0.2122  0.0087  0.1698
22186SOL    HW169960   6.359   8.399   0.651 -0.4658 -0.9396  1.5137
22186SOL    HW269961   6.239   8.491   0.646 -0.2583 -0.7263 -0.0088
22187SOL     OW69962   3.431   3.885   2.505  0.4884  0.0183 -0.4497
22187SOL    HW169963   3.351   3.918   2.464  0.5621  0.1021 -0.5275
22187SOL    HW269964   3.401   3.840   2.584  0.4190  0.6303 -0.1222
22188SOL     OW69965   0.432   7.443   3.102  0.6394  0.1148 -0.5806
22188SOL    HW169966   0.400   7.364   3.144  0.7517  1.4419  2.1990
22188SOL    HW269967   0.415   7.429   3.009 -0.3130 -2.6871 -0.0781
22189SOL     OW69968   4.749   9.518   4.829  0.1597 -0.2139  0.2192
22189SOL    HW169969   4.674   9.507   4.771 -0.0657  1.2590  0.1973
22189SOL    HW269970   4.712   9.510   4.917  0.3100 -1.3112  0.2000
22190SOL     OW69971   6.968  10.312   6.194  0.1168  0.0772 -0.0759
22190SOL    HW169972   6.948  10.238   6.252 -1.2867  0.3218 -0.2293
22190SOL    HW269973   6.894  10.317   6.134 -0.0890  1.9378  0.2660
22191SOL     OW69974   9.634   5.648   8.418 -0.0965 -0.6595  0.2834
22191SOL    HW169975   9.541   5.632   8.402 -0.5327  1.2117  0.6967
22191SOL    HW269976   9.642   5.743   8.421  1.7702 -0.7829  0.6951
22192SOL     OW69977   2.462   4.280   5.379 -0.3274 -0.0682 -0.4926
22192SOL    HW169978   2.550   4.252   5.352 -0.7367 -3.9512  1.4874
22192SOL    HW269979   2.471   4.374   5.395  3.2999 -0.1822 -0.9330
22193SOL     OW69980   3.937   3.269  10.053  0.0907  0.4576  0.0694
22193SOL    HW169981   3.873   3.223   9.999 -0.8735  1.7111  0.1011
22193SOL    HW269982   3.929   3.230  10.140  0.4197 -0.3870 -0.2732
22194SOL     OW69983   9.550   6.137   6.225  0.8602  0.0713 -0.1688
22194SOL    HW169984   9.620   6.082   6.260  0.9547  0.6557  0.5897
22194SOL    HW269985   9.473   6.112   6.278  0.4755 -0.5985 -1.0235
22195SOL     OW69986   1.800   2.071   4.697 -1.0427 -0.4253 -0.0137
22195SOL    HW169987   1.814   2.090   4.790 -1.5603  0.7008 -0.1582
22195SOL    HW269988   1.751   2.146   4.663  0.4592 -0.0667 -1.5520
22196SOL     OW69989  10.748   0.364   0.883 -0.3682  0.1368  0.1755
22196SOL    HW169990  10.795   0.447   0.893  0.6815 -0.3764 -0.3472
22196SOL    HW269991  10.750   0.325   0.971  1.2444 -0.4104 -0.0744
22197SOL     OW69992   4.798   8.315   4.042 -0.6453  0.6238  0.5279
22197SOL    HW169993   4.862   8.265   3.991 -0.7591  1.5892 -0.6126
22197SOL    HW269994   4.780   8.392   3.988  0.5742  2.6358  2.8344
22198SOL     OW69995   8.938   3.823   1.404 -0.4970 -0.3413 -0.0069
22198SOL    HW169996   9.011   3.764   1.423 -0.5227  0.0247  1.2988
22198SOL    HW269997   8.939   3.832   1.309 -0.0615 -1.8890 -0.1779
22199SOL     OW69998   0.546   5.058  10.546  0.5099 -0.6643  0.1778
22199SOL    HW169999   0.545   5.148  10.577  2.9857  0.1580 -1.7715
22199SOL    HW270000   0.455   5.029  10.552 -0.4054  2.0677  0.6059
22200SOL     OW70001   4.543   4.445   8.241  0.3442 -0.4291 -0.2064
22200SOL    HW170002   4.598   4.461   8.165 -1.2955 -1.3874 -1.6550
22200SOL    HW270003   4.585   4.371   8.285  0.9035 -0.3376 -0.5724
22201SOL     OW70004   8.893   4.834   6.505  0.1594  0.6725 -0.5395
22201SOL    HW170005   8.877   4.781   6.427  1.0142 -1.3219  0.5673
22201SOL    HW270006   8.831   4.800   6.570  0.9398  0.8121  0.2952
22202SOL     OW70007   3.037   4.280   4.185 -0.0117  0.4747 -0.3120
22202SOL    HW170008   3.054   4.358   4.238  1.5223  0.1692 -0.3244
22202SOL    HW270009   3.028   4.313   4.096 -2.3315  0.9585  0.0448
22203SOL     OW70010   1.519   9.689   2.868  1.1076 -0.8195 -0.1460
22203SOL    HW170011   1.429   9.689   2.836  1.2454  0.2125 -0.5531
22203SOL    HW270012   1.510   9.690   2.964  0.6942 -4.6967 -0.0024
22204SOL     OW70013   4.169   6.447   8.176  0.7087  0.1049 -0.9540
22204SOL    HW170014   4.139   6.372   8.124 -2.1035  0.4302  0.0093
22204SOL    HW270015   4.116   6.521   8.144 -1.4843  0.2367  2.4457
22205SOL     OW70016  10.541   8.438  10.690  1.1394 -0.2358 -0.1239
22205SOL    HW170017  10.523   8.345  10.704 -1.6563  0.3697  1.1695
22205SOL    HW270018  10.621   8.455  10.740  1.8297 -1.9572 -0.5733
22206SOL     OW70019   7.423   7.087   1.197  0.0585  0.2506 -0.0742
22206SOL    HW170020   7.452   7.174   1.225 -0.0370  0.2092  0.1503
22206SOL    HW270021   7.450   7.029   1.268 -1.2885  0.3279  0.5260
22207SOL     OW70022   4.077   4.655   3.965 -0.2265 -0.1910 -0.0867
22207SOL    HW170023   4.022   4.577   3.954  1.3999 -1.3914 -0.0352
22207SOL    HW270024   4.127   4.638   4.045 -1.2355  1.8248  1.0557
22208SOL     OW70025   1.028   0.792   3.701  0.1475  0.1958 -0.3547
22208SOL    HW170026   0.997   0.882   3.688  2.1877  1.0142  0.1500
22208SOL    HW270027   1.068   0.769   3.617  1.7463  0.6670  0.2580
22209SOL     OW70028   0.176   2.618   9.493 -0.0223  0.0124 -0.4691
22209SOL    HW170029   0.117   2.659   9.556  1.1279  1.8578 -0.5262
22209SOL    HW270030   0.204   2.690   9.436  2.3468 -0.7644 -0.3735
22210SOL     OW70031   2.378   1.310   4.318 -0.2294 -0.0530 -0.1592
22210SOL    HW170032   2.285   1.292   4.333 -0.4652  2.5938  2.4042
22210SOL    HW270033   2.379   1.393   4.270  0.8298 -0.1411 -0.3106
22211SOL     OW70034   4.370   7.077   5.121 -0.5385  0.9611 -0.7426
22211SOL    HW170035   4.317   7.150   5.153 -0.4443  1.7694 -2.3361
22211SOL    HW270036   4.352   7.006   5.182 -1.8260  1.8520 -0.0417
22212SOL     OW70037   5.426   0.310   5.193  0.4447 -0.1541 -0.1915
22212SOL    HW170038   5.331   0.316   5.202  0.1728 -0.4867 -2.2737
22212SOL    HW270039   5.454   0.258   5.269 -0.9259  0.5482  0.8356
22213SOL     OW70040   2.274  10.865   6.307  0.2575 -0.2730  0.5656
22213SOL    HW170041   2.254  10.775   6.330  1.5921 -0.2119  2.1576
22213SOL    HW270042   2.356  10.884   6.353  0.5666  1.4111 -0.5937
22214SOL     OW70043   2.915   4.446   1.916 -0.4974 -0.5933  0.0738
22214SOL    HW170044   2.825   4.477   1.917 -0.3753 -0.0743 -1.5829
22214SOL    HW270045   2.949   4.475   1.831  0.7799 -2.0350  0.0593
22215SOL     OW70046   7.579  10.112   8.391  0.4075  0.3926 -0.3670
22215SOL    HW170047   7.583  10.027   8.435  3.6425  0.2988 -0.5841
22215SOL    HW270048   7.521  10.165   8.446  0.9308 -1.0136  1.6592
22216SOL     OW70049   9.234   3.290   3.269  0.0731  0.1622  0.0484
22216SOL    HW170050   9.252   3.207   3.225 -0.9265  1.4465 -3.0453
22216SOL    HW270051   9.320   3.318   3.302  1.1656 -0.3589 -2.1544
22217SOL     OW70052   0.399   4.312   5.920  0.5624 -0.3868 -0.1151
22217SOL    HW170053   0.467   4.265   5.968 -0.3795 -1.9435 -0.2197
22217SOL    HW270054   0.376   4.385   5.976 -0.1047 -1.8271  1.5799
22218SOL     OW70055   2.112   6.881   9.760 -0.1116 -0.2959 -0.3396
22218SOL    HW170056   2.147   6.854   9.845 -0.0560 -0.2733 -0.3552
22218SOL    HW270057   2.189   6.909   9.710 -0.2634  0.7592 -0.0100
22219SOL     OW70058   3.999   3.624   8.875 -1.2612 -0.1282 -0.0945
22219SOL    HW170059   3.960   3.549   8.920 -0.1821  0.0838  1.2782
22219SOL    HW270060   4.028   3.589   8.791  0.0463 -1.5232  0.8799
22220SOL     OW70061   8.131   5.793   2.550 -0.8619  0.2517  0.1571
22220SOL    HW170062   8.132   5.875   2.501  0.6033  1.6992  2.4508
22220SOL    HW270063   8.072   5.810   2.624 -0.3246 -0.6654  0.8145
22221SOL     OW70064  10.809   7.682   6.857  0.0386  0.6827 -0.2064
22221SOL    HW170065  10.787   7.610   6.915 -1.4418  0.8326 -0.5435
22221SOL    HW270066  10.880   7.728   6.902 -0.4916  0.3077  1.0616
22222SOL     OW70067   0.475   2.781   5.908 -0.4057  0.2220 -0.3286
22222SOL    HW170068   0.424   2.708   5.872  0.7370 -1.1173  0.6777
22222SOL    HW270069   0.454   2.780   6.002 -0.5906  1.3824 -0.3497
22223SOL     OW70070   5.538   6.422   6.253  0.1493  0.0676  1.1091
22223SOL    HW170071   5.540   6.494   6.190  1.1507 -0.3098  0.6840
22223SOL    HW270072   5.445   6.399   6.260 -0.1575  1.1908  1.0305
22224SOL     OW70073   0.395   9.057   9.684  0.1981  0.5316 -0.2107
22224SOL    HW170074   0.376   8.966   9.659 -1.1579  0.5777  0.5427
22224SOL    HW270075   0.367   9.109   9.609  0.2455  0.3820 -0.3322
22225SOL     OW70076   2.259   3.385   5.859  0.0506 -1.2526 -0.4230
22225SOL    HW170077   2.320   3.435   5.912 -1.9489  3.6308 -2.1216
22225SOL    HW270078   2.194   3.353   5.922  1.2584 -1.5541  0.7227
22226SOL     OW70079   1.338   0.149   2.661  0.1192 -0.6126 -0.6067
22226SOL    HW170080   1.370   0.182   2.577 -0.7809  2.5275  0.1597
22226SOL    HW270081   1.412   0.161   2.721 -0.7057  1.7163  0.0268
22227SOL     OW70082  10.748   8.429   5.723  0.4106  0.0044 -0.0546
22227SOL    HW170083  10.680   8.381   5.771  0.2263 -1.2968 -1.5381
22227SOL    HW270084  10.829   8.382   5.744  0.3988 -0.2759 -0.6216
22228SOL     OW70085   4.738   5.557   8.833 -0.3808 -0.1564  0.2545
22228SOL    HW170086   4.660   5.516   8.872 -0.9753  0.1595 -0.5653
22228SOL    HW270087   4.703   5.618   8.768  0.4709  1.9570  1.6966
22229SOL     OW70088   5.037   2.933  10.270 -0.1922  0.3661 -0.1690
22229SOL    HW170089   4.975   3.001  10.244 -0.1764  0.7030  0.6495
22229SOL    HW270090   5.087   2.915  10.190 -1.0591  0.3898 -0.7258
22230SOL     OW70091   9.688   7.227   2.966  0.3611  0.3526  0.2919
22230SOL    HW170092   9.608   7.177   2.980 -0.2560  1.0036 -0.7026
22230SOL    HW270093   9.750   7.194   3.031  0.0032 -1.7112 -0.3523
22231SOL     OW70094   0.749  10.435   8.878  0.2167 -0.0964 -0.4548
22231SOL    HW170095   0.752  10.529   8.896 -0.3765 -0.3626  1.2949
22231SOL    HW270096   0.674  10.424   8.819  0.5224  0.5663 -0.9748
22232SOL     OW70097   3.528   8.900   1.523  0.1385 -0.5086 -0.2392
22232SOL    HW170098   3.550   8.816   1.482 -0.5688 -1.0008  0.3590
22232SOL    HW270099   3.567   8.965   1.465  0.2352 -1.2294 -1.0141
22233SOL     OW70100   8.961  10.529   3.222  0.2872 -0.1173  0.1410
22233SOL    HW170101   9.015  10.465   3.269  1.3294  0.9504  0.4496
22233SOL    HW270102   9.024  10.592   3.187 -0.4553 -0.7595 -2.5841
22234SOL     OW70103   6.924   3.101   4.962  0.5264  0.1821 -0.2990
22234SOL    HW170104   6.893   3.044   5.032  1.0014  0.2343 -0.0455
22234SOL    HW270105   7.019   3.106   4.974  0.2611  3.4385  1.5282
22235SOL     OW70106   4.722   5.511   3.224  0.3119 -0.1634  0.2768
22235SOL    HW170107   4.766   5.504   3.309 -1.4043  0.5474  1.2740
22235SOL    HW270108   4.707   5.420   3.197 -1.0587 -0.4399  1.8228
22236SOL     OW70109   6.103   4.279   2.849 -0.3205  0.2065 -0.4804
22236SOL    HW170110   6.160   4.208   2.876 -1.5785 -0.0577  1.7662
22236SOL    HW270111   6.059   4.247   2.770  0.1513 -0.9510 -0.2827
22237SOL     OW70112   7.558   6.359   5.517  0.2177  0.3749  0.3187
22237SOL    HW170113   7.532   6.447   5.544  0.4999  0.6137 -0.1603
22237SOL    HW270114   7.492   6.334   5.451 -0.9781 -0.5526  1.8028
22238SOL     OW70115   5.265   7.849   0.304 -1.1028  0.5735 -0.5937
22238SOL    HW170116   5.295   7.811   0.221  2.0290 -0.8332  1.0397
22238SOL    HW270117   5.299   7.939   0.302  0.1384  0.1283 -0.3188
22239SOL     OW70118   7.783   9.224   1.125  0.2071 -0.3750  0.0815
22239SOL    HW170119   7.863   9.272   1.106 -1.0418  2.1003  0.5684
22239SOL    HW270120   7.776   9.226   1.221 -1.0836  0.6980  0.0006
22240SOL     OW70121   1.754   6.912   6.870  0.4601  0.0926  0.0172
22240SOL    HW170122   1.669   6.947   6.844 -0.0024 -0.6532  0.4923
22240SOL    HW270123   1.782   6.968   6.943 -0.7349 -1.0775  1.4341
22241SOL     OW70124   9.530   7.087   2.582 -0.2845 -0.1813 -0.9204
22241SOL    HW170125   9.598   7.069   2.647 -0.3086  0.8269 -0.6110
22241SOL    HW270126   9.568   7.153   2.524  0.0902 -1.6999 -2.5223
22242SOL     OW70127   5.632   2.796   8.626  0.1224 -0.6458  0.0293
22242SOL    HW170128   5.555   2.787   8.682  1.2690 -1.1418  1.6033
22242SOL    HW270129   5.684   2.864   8.668  1.7479 -2.1123  0.5168
22243SOL     OW70130   8.885   5.606   6.415 -0.1585  0.2904  0.2403
22243SOL    HW170131   8.944   5.552   6.467 -0.7907 -0.7213 -0.0622
22243SOL    HW270132   8.855   5.675   6.475  1.6204  1.0750  0.2836
22244SOL     OW70133   7.686   7.576   4.147  0.5528  0.2875  0.1677
22244SOL    HW170134   7.638   7.511   4.095  0.7784 -1.2658  1.8068
22244SOL    HW270135   7.736   7.626   4.083 -0.6136 -0.3174 -1.2657
22245SOL     OW70136  10.448   6.082   2.826  0.7289 -0.4599 -0.1758
22245SOL    HW170137  10.411   6.003   2.786 -0.9001 -0.2063  0.7884
22245SOL    HW270138  10.444   6.066   2.920  2.4847 -0.1338 -0.0084
22246SOL     OW70139   4.279   9.484   9.111  0.0328 -0.2775 -0.3803
22246SOL    HW170140   4.233   9.562   9.079 -2.1299 -0.6534  1.5578
22246SOL    HW270141   4.262   9.418   9.044  0.0797  0.3514 -1.0216
22247SOL     OW70142   6.959   6.608  10.857  0.1576 -0.3699 -0.1682
22247SOL    HW170143   6.948   6.531  10.913  1.8157 -0.2769  0.3446
22247SOL    HW270144   6.948   6.683  10.917  2.4471 -0.2713  0.2257
22248SOL     OW70145   2.831   2.096   6.177 -0.5784 -0.1409 -0.0067
22248SOL    HW170146   2.847   2.160   6.247  3.3275  2.0118 -2.4995
22248SOL    HW270147   2.895   2.027   6.193 -0.7033 -0.3870 -0.5557
22249SOL     OW70148   9.305   2.256   9.073  0.0598  0.1217  0.5390
22249SOL    HW170149   9.256   2.313   9.133  1.3346  3.2242 -1.1519
22249SOL    HW270150   9.390   2.244   9.117  0.4557  1.1339  0.0717
22250SOL     OW70151   8.764   1.251   9.692 -0.3099 -0.3813  0.6127
22250SOL    HW170152   8.842   1.210   9.654 -0.7521 -1.7296  1.1271
22250SOL    HW270153   8.782   1.345   9.687  0.3293 -0.5707 -1.4406
22251SOL     OW70154   6.827   4.290   1.218 -0.3294  0.3615  0.1976
22251SOL    HW170155   6.914   4.308   1.183 -0.8793  0.4369 -1.2246
22251SOL    HW270156   6.802   4.207   1.178 -1.7258  1.3558 -1.0974
22252SOL     OW70157   8.187   5.059   3.573 -0.4598  0.1133  0.3311
22252SOL    HW170158   8.115   5.006   3.608 -1.3300  1.0267 -0.0127
22252SOL    HW270159   8.152   5.148   3.572  0.3801  0.4466 -0.6477
22253SOL     OW70160   8.064  10.336   4.342 -0.1149  0.1601 -0.1261
22253SOL    HW170161   7.968  10.333   4.334 -0.0713 -1.2185 -0.3708
22253SOL    HW270162   8.091  10.398   4.274 -0.7035 -1.2260 -1.6968
22254SOL     OW70163   9.798  10.674   2.835  0.1677  0.2948 -0.5703
22254SOL    HW170164   9.765  10.673   2.745  0.4073 -0.2506 -0.6557
22254SOL    HW270165   9.862  10.603   2.838 -2.6719 -2.4405  1.0646
22255SOL     OW70166   4.970   5.645   0.628  0.5879 -0.2681  0.1361
22255SOL    HW170167   4.904   5.583   0.599 -1.8317  1.5860  1.3722
22255SOL    HW270168   5.001   5.610   0.711 -1.3110  0.4747  1.2026
22256SOL     OW70169   2.373   4.564   9.077 -0.4696  0.4758 -0.2042
22256SOL    HW170170   2.341   4.501   9.142  0.1713 -0.1954 -0.5345
22256SOL    HW270171   2.445   4.609   9.122  0.1485 -0.1745 -0.5392
22257SOL     OW70172   8.703   3.984   4.200  0.0685 -0.4700  0.4555
22257SOL    HW170173   8.613   3.961   4.224 -0.2881 -1.4325 -1.6266
22257SOL    HW270174   8.756   3.914   4.236 -0.2581 -0.9948 -0.0720
22258SOL     OW70175   5.777   4.246  10.806  0.1034  0.1203 -0.3394
22258SOL    HW170176   5.686   4.228  10.831  0.7183  0.3641  2.4404
22258SOL    HW270177   5.786   4.340  10.815  1.5115 -0.1950  3.3487
22259SOL     OW70178   5.801   5.463   9.252  0.3858  0.0005  0.0651
22259SOL    HW170179   5.755   5.420   9.324  0.1825  0.8663  0.4586
22259SOL    HW270180   5.734   5.517   9.209  0.6670  0.0309 -0.3425
22260SOL     OW70181   6.987   3.031   3.736  0.4944 -0.0638  0.5257
22260SOL    HW170182   6.923   3.077   3.789  1.2685 -0.0151  1.4259
22260SOL    HW270183   6.939   2.956   3.700 -0.1673  0.1960  0.8665
22261SOL     OW70184   3.513   2.236   5.843  0.0214 -0.1721  0.2026
22261SOL    HW170185   3.566   2.257   5.920  0.2199  1.0824 -0.2470
22261SOL    HW270186   3.485   2.322   5.810  1.3273 -0.5681 -2.0839
22262SOL     OW70187   1.620   3.773  10.685 -0.2332 -0.0851 -0.4268
22262SOL    HW170188   1.656   3.712  10.622  1.0107 -1.6870  1.7276
22262SOL    HW270189   1.687   3.841  10.694 -0.1562 -0.1659 -0.3926
22263SOL     OW70190   3.320   5.676   5.254  0.1338  0.2983 -0.3481
22263SOL    HW170191   3.357   5.741   5.314 -0.1078  0.4834 -0.3929
22263SOL    HW270192   3.317   5.721   5.169 -1.0320  0.6196 -0.1575
22264SOL     OW70193   5.219   1.751   7.034  0.7937  0.1376  0.4591
22264SOL    HW170194   5.245   1.841   7.055 -0.4871  0.5732  0.2822
22264SOL    HW270195   5.267   1.697   7.096  1.9089  0.9062  0.2949
22265SOL     OW70196   3.289   0.614   6.725  0.8144 -0.0127 -0.0080
22265SOL    HW170197   3.349   0.551   6.686 -0.0667 -1.3131  0.6375
22265SOL    HW270198   3.213   0.614   6.666 -0.0738 -1.1842  1.0847
22266SOL     OW70199   2.437   0.851   2.459 -0.4385  0.3467  0.0060
22266SOL    HW170200   2.376   0.780   2.438 -0.9105 -0.1395  2.6511
22266SOL    HW270201   2.381   0.928   2.466 -0.2677  0.5302 -0.6145
22267SOL     OW70202   5.762   3.240   2.634 -0.4497 -0.2828  0.3104
22267SOL    HW170203   5.669   3.233   2.613 -0.1946 -2.2315 -0.4160
22267SOL    HW270204   5.766   3.245   2.729 -1.3042  0.5849  0.3140
22268SOL     OW70205   8.251   4.111   7.323 -0.0883 -0.5157  0.1476
22268SOL    HW170206   8.165   4.148   7.301  0.5536  0.3599 -0.9786
22268SOL    HW270207   8.309   4.142   7.254  1.1919 -0.9252  1.0018
22269SOL     OW70208   5.763   1.216   5.441 -0.2979 -0.3298 -0.4018
22269SOL    HW170209   5.750   1.198   5.348  0.3439  0.1228 -0.5877
22269SOL    HW270210   5.751   1.311   5.449 -2.5462 -0.6231  0.3659
22270SOL     OW70211   8.099   6.937   6.750 -0.0237 -0.1689 -0.6751
22270SOL    HW170212   8.092   6.973   6.661  1.9407  2.6876  0.1800
22270SOL    HW270213   8.193   6.931   6.765 -0.3280 -0.6877  1.1857
22271SOL     OW70214   8.315   2.125   3.440  0.8977  0.3503  0.2634
22271SOL    HW170215   8.356   2.143   3.525  1.5572 -1.9893  0.5131
22271SOL    HW270216   8.307   2.030   3.437 -0.6882  0.4783 -1.6040
22272SOL     OW70217   9.176   3.824   4.712 -0.0468 -0.1289  0.2541
22272SOL    HW170218   9.144   3.792   4.796 -0.3997  1.9000  0.9490
22272SOL    HW270219   9.265   3.855   4.730 -0.8830  2.3334  0.4728
22273SOL     OW70220  10.746   7.624   8.500 -0.4136  0.3943  0.2187
22273SOL    HW170221  10.735   7.707   8.454 -0.4118 -0.3360 -1.1354
22273SOL    HW270222  10.838   7.624   8.527 -0.0610  0.2722 -0.9283
22274SOL     OW70223   0.280   9.306  10.434  0.2652  0.1952  0.4668
22274SOL    HW170224   0.190   9.290  10.464  0.2767 -0.3013  0.2545
22274SOL    HW270225   0.269   9.338  10.344  0.3285 -0.5589  0.1865
22275SOL     OW70226   3.110   8.943   0.501 -0.3266 -0.0241 -0.5616
22275SOL    HW170227   3.148   8.868   0.456  0.6180  1.1976 -1.9110
22275SOL    HW270228   3.046   8.906   0.561  1.2755 -2.0173  0.0284
22276SOL     OW70229  10.562   4.662   2.168 -0.0861 -0.1708 -0.0876
22276SOL    HW170230  10.558   4.583   2.114 -0.0584 -0.3965  0.2352
22276SOL    HW270231  10.629   4.642   2.234  0.2032  0.2734 -0.2460
22277SOL     OW70232   9.838   1.204   0.714 -0.1959 -0.4785  0.1814
22277SOL    HW170233   9.759   1.237   0.672  0.4143  0.7736 -0.0106
22277SOL    HW270234   9.824   1.219   0.808  0.5175  1.3936  0.0255
22278SOL     OW70235   4.689   9.586   6.485  0.3226  0.0901 -0.3398
22278SOL    HW170236   4.667   9.494   6.471  0.3731 -0.1929  1.2734
22278SOL    HW270237   4.605   9.629   6.502  0.4457  0.0343  0.4480
22279SOL     OW70238   7.998   8.015   1.202  0.3201  0.7673  0.4229
22279SOL    HW170239   8.051   7.935   1.203 -0.3466  0.3212  1.2195
22279SOL    HW270240   8.061   8.085   1.185  1.1546  0.2319  1.1875
22280SOL     OW70241   5.058   3.796   7.706 -0.0830 -0.1867  0.2604
22280SOL    HW170242   5.111   3.875   7.717  2.4997 -1.6799 -0.7299
22280SOL    HW270243   5.038   3.794   7.613  1.4286 -1.5793 -0.0719
22281SOL     OW70244   0.257   9.369   0.986 -0.8338  0.0914 -0.5440
22281SOL    HW170245   0.234   9.318   0.908  0.4356  0.3860 -1.1348
22281SOL    HW270246   0.214   9.453   0.973  2.2255  1.4819 -2.7647
22282SOL     OW70247   2.792   6.126   7.238  0.8882 -0.1623  0.0031
22282SOL    HW170248   2.769   6.090   7.153 -0.9233  1.5424 -0.3103
22282SOL    HW270249   2.797   6.050   7.296  0.0341 -1.1627 -1.1822
22283SOL     OW70250  10.392   5.376   0.886 -0.0649 -0.1418 -0.0889
22283SOL    HW170251  10.308   5.415   0.862 -0.2389 -0.4540 -0.0035
22283SOL    HW270252  10.373   5.282   0.894  0.5902 -0.4139 -1.4291
22284SOL     OW70253   4.212  10.825   1.752 -0.1365  0.3632 -0.6554
22284SOL    HW170254   4.191  10.918   1.761 -0.4634  0.3078 -0.8446
22284SOL    HW270255   4.282  10.822   1.687 -0.9944  0.3756 -1.6046
22285SOL     OW70256  10.900   7.597   4.447  0.1596  0.0076 -0.5750
22285SOL    HW170257  10.854   7.614   4.366 -0.4951  0.8274 -0.0417
22285SOL    HW270258  10.941   7.680   4.471  0.0353 -0.1174  0.1205
22286SOL     OW70259  10.759   0.280   7.768  0.6764  0.5033 -0.2412
22286SOL    HW170260  10.843   0.256   7.806  0.8136  0.1214 -0.7711
22286SOL    HW270261  10.738   0.208   7.709 -1.0595 -0.5278  1.4720
22287SOL     OW70262   5.041   9.379   2.197 -0.2917 -0.3978 -0.1558
22287SOL    HW170263   5.109   9.335   2.146 -0.4086 -0.8126  0.0409
22287SOL    HW270264   5.022   9.319   2.269 -0.6710 -0.1591 -0.0519
22288SOL     OW70265   5.167   3.705   7.076 -0.1049 -0.7498 -0.0200
22288SOL    HW170266   5.150   3.739   6.988  0.0599 -2.2213 -0.6633
22288SOL    HW270267   5.079   3.692   7.114 -0.1821  2.1406  1.0237
22289SOL     OW70268  10.261   2.339   1.425  0.1138 -0.2187  0.1710
22289SOL    HW170269  10.351   2.331   1.455 -0.1898  0.8663  1.4776
22289SOL    HW270270  10.210   2.357   1.504 -0.8977  1.6865 -0.8228
22290SOL     OW70271   5.091   7.050  10.293  0.0225  0.5367 -0.1428
22290SOL    HW170272   5.183   7.073  10.303  0.4978 -1.8250  1.7138
22290SOL    HW270273   5.085   7.011  10.206  1.2334 -1.0457  0.4404
22291SOL     OW70274   3.376   6.056   4.460 -0.0540  0.3821  0.0410
22291SOL    HW170275   3.302   6.016   4.506 -0.2378  0.9885  0.2881
22291SOL    HW270276   3.363   6.150   4.471  1.6865  0.5078  1.6213
22292SOL     OW70277   7.681   0.250   7.298  0.1432 -1.1281 -0.0776
22292SOL    HW170278   7.699   0.173   7.244  1.2815 -0.0571 -1.2950
22292SOL    HW270279   7.605   0.225   7.350  0.0025 -2.7936 -1.0006
22293SOL     OW70280   7.052   5.552   0.043 -0.2461 -0.0128 -0.1359
22293SOL    HW170281   6.962   5.529   0.069 -0.5687  1.1097 -0.1879
22293SOL    HW270282   7.106   5.517   0.114 -0.7193 -0.7445 -0.1243
22294SOL     OW70283   2.815   8.521   9.996 -0.1413  0.1122 -0.1402
22294SOL    HW170284   2.884   8.460   9.971  0.1044  0.4738 -0.3551
22294SOL    HW270285   2.737   8.466  10.005  0.0423 -0.2143 -0.4735
22295SOL     OW70286   1.473   1.201   6.567  0.4627 -0.7862  0.8278
22295SOL    HW170287   1.518   1.198   6.482  0.3691 -0.6466  0.7720
22295SOL    HW270288   1.516   1.133   6.619 -0.8302 -2.2982  0.0091
22296SOL     OW70289   2.991   7.323   5.224  0.4841 -0.3140 -0.6875
22296SOL    HW170290   2.975   7.417   5.227  0.6939 -0.2379 -1.7615
22296SOL    HW270291   2.904   7.285   5.212  0.1869 -0.3793  1.2715
22297SOL     OW70292   4.775   6.325   7.424  0.2810 -0.1426  0.3686
22297SOL    HW170293   4.839   6.295   7.488 -1.1178  0.8304  2.3161
22297SOL    HW270294   4.772   6.420   7.436 -3.2056 -0.2944  2.1695
22298SOL     OW70295  10.639  10.684   3.943 -0.1611 -0.2326  0.2109
22298SOL    HW170296  10.645  10.751   3.875 -1.3805  0.5912  0.8736
22298SOL    HW270297  10.554  10.643   3.928 -0.5327  0.0878  1.3165
22299SOL     OW70298   2.769   8.714   4.114  0.0430 -0.0855 -0.2679
22299SOL    HW170299   2.739   8.662   4.188 -1.1841  0.6035 -0.2504
22299SOL    HW270300   2.830   8.657   4.067 -0.8779 -1.3441  0.0249
22300SOL     OW70301   1.654   6.166   6.849 -0.4698 -0.8634 -0.2075
22300SOL    HW170302   1.697   6.088   6.813 -0.3102  0.1070 -2.2122
22300SOL    HW270303   1.615   6.135   6.931 -0.4880 -3.0678 -0.9777
22301SOL     OW70304   4.964   2.197   9.225  0.4260  0.1562 -0.0751
22301SOL    HW170305   4.975   2.264   9.157  3.1264 -0.0219  0.0776
22301SOL    HW270306   5.030   2.131   9.204 -0.2540 -1.0511  1.4177
22302SOL     OW70307   3.461  10.492   1.097  0.2110  0.1369 -0.7512
22302SOL    HW170308   3.397  10.446   1.152 -1.2803  2.2721 -0.5618
22302SOL    HW270309   3.510  10.547   1.157  0.7331  0.1667 -1.1915
22303SOL     OW70310   5.931  10.026   7.994 -0.2255 -0.0389  0.3075
22303SOL    HW170311   5.934  10.061   7.905 -1.8493 -0.5143  0.0353
22303SOL    HW270312   5.894  10.097   8.047  0.3537  0.1005  0.5262
22304SOL     OW70313   6.110  10.605  10.168 -0.2966 -0.0250 -0.0205
22304SOL    HW170314   6.134  10.679  10.113 -1.7955 -0.4027 -1.2702
22304SOL    HW270315   6.189  10.552  10.173  0.7921  1.5821  0.8505
22305SOL     OW70316   8.084   8.434   2.922  0.3048 -0.2259 -0.2165
22305SOL    HW170317   8.065   8.466   2.835 -1.2337 -0.9669 -0.1788
22305SOL    HW270318   8.125   8.348   2.908  1.0399  0.1111 -0.2140
22306SOL     OW70319   9.074   5.674   2.765 -0.5715 -0.5094  0.5689
22306SOL    HW170320   9.137   5.611   2.730 -0.7054 -1.1527  1.4383
22306SOL    HW270321   8.995   5.660   2.713 -0.4934 -0.8344  0.5324
22307SOL     OW70322  10.095   3.797   6.025  0.3475 -0.0684 -1.1297
22307SOL    HW170323  10.173   3.849   6.008  0.5888  0.7339  1.7725
22307SOL    HW270324  10.097   3.727   5.960  2.4176  1.0246 -2.3427
22308SOL     OW70325   2.385   9.698   5.052  0.0137 -0.1536  0.3303
22308SOL    HW170326   2.361   9.769   5.112 -0.6541 -0.3701  0.3223
22308SOL    HW270327   2.302   9.659   5.026  0.2865  0.0295 -0.8592
22309SOL     OW70328   0.460  10.188   9.212  0.4253  0.3493  0.2816
22309SOL    HW170329   0.441  10.111   9.157  0.5647 -0.2501  1.0578
22309SOL    HW270330   0.452  10.262   9.152 -0.8855 -0.1643 -0.2194
22310SOL     OW70331   6.093  10.159   3.250  0.2253 -0.2824  0.0365
22310SOL    HW170332   6.065  10.163   3.341 -0.6155 -0.3608 -0.2089
22310SOL    HW270333   6.118  10.068   3.236 -0.5474 -0.4966 -0.0519
22311SOL     OW70334   8.437   7.283   3.788 -0.3678  0.5199 -0.1184
22311SOL    HW170335   8.512   7.308   3.735 -1.8550  0.0736 -2.5989
22311SOL    HW270336   8.461   7.198   3.825  0.3817  0.4118 -0.8237
22312SOL     OW70337   8.544   3.660   2.565  0.6146 -0.2364 -0.1753
22312SOL    HW170338   8.471   3.679   2.623  0.4414 -0.0382 -0.4510
22312SOL    HW270339   8.615   3.717   2.596  0.1149  0.8559 -0.9595
22313SOL     OW70340   0.837   8.503   5.330 -0.3499  0.1025  0.2065
22313SOL    HW170341   0.901   8.465   5.269 -0.7767 -0.1536 -0.0892
22313SOL    HW270342   0.772   8.544   5.273 -0.1246  0.9016  0.5154
22314SOL     OW70343   4.745   6.306   3.294  0.5494  0.2220 -0.1405
22314SOL    HW170344   4.808   6.277   3.228  0.0939 -0.6247 -0.2268
22314SOL    HW270345   4.660   6.286   3.255  0.1579  2.4398 -0.5327
22315SOL     OW70346   7.066   9.176  10.551 -0.1818 -0.2814 -0.2770
22315SOL    HW170347   7.079   9.181  10.646  0.2094  2.0982 -0.4072
22315SOL    HW270348   7.077   9.083  10.531 -0.8881 -0.9469  2.0791
22316SOL     OW70349   3.126   5.518   8.659  0.5038  0.7222  0.2993
22316SOL    HW170350   3.060   5.505   8.591  0.4210  3.2122 -0.2200
22316SOL    HW270351   3.098   5.461   8.731 -2.1737  1.5513  0.0318
22317SOL     OW70352   2.914  10.598   2.258  0.5202  0.0277  0.0945
22317SOL    HW170353   2.845  10.615   2.194 -0.3161  0.1246  0.9901
22317SOL    HW270354   2.978  10.668   2.244  0.5331 -0.1664 -0.8618
22318SOL     OW70355   1.172   9.108   4.084 -0.2352  0.2032 -0.4484
22318SOL    HW170356   1.139   9.168   4.151 -2.6521 -0.3369 -1.0473
22318SOL    HW270357   1.248   9.153   4.047  0.0522  1.3390  1.3593
22319SOL     OW70358   9.394   2.829   0.448  0.1026  0.1026 -0.1245
22319SOL    HW170359   9.389   2.802   0.540 -2.5766  0.9968  0.0853
22319SOL    HW270360   9.477   2.875   0.441  0.7915 -0.7833  1.6002
22320SOL     OW70361   9.220   8.389   2.196 -0.7582  0.3458 -0.1339
22320SOL    HW170362   9.125   8.385   2.188 -0.6436 -0.2948 -1.6972
22320SOL    HW270363   9.248   8.445   2.124  0.0927 -0.1488 -0.2080
22321SOL     OW70364   4.547   3.701   6.619  0.1585  0.2232  0.7045
22321SOL    HW170365   4.485   3.725   6.688  1.3480  2.0512  1.2299
22321SOL    HW270366   4.588   3.620   6.650 -0.8901 -0.1745  1.0660
22322SOL     OW70367   7.779   1.897   8.028  0.0218  0.0581 -0.0549
22322SOL    HW170368   7.734   1.813   8.020  1.5735 -0.8865  0.5682
22322SOL    HW270369   7.835   1.900   7.950  0.0499  0.4701 -0.0164
22323SOL     OW70370   7.622   0.665   0.822  0.2312  0.0106 -0.2910
22323SOL    HW170371   7.691   0.730   0.821 -0.2748  0.5738  0.4069
22323SOL    HW270372   7.541   0.716   0.816 -0.1759 -0.5341  0.4095
22324SOL     OW70373   0.867   0.763   4.222 -0.5641  0.9399 -0.0637
22324SOL    HW170374   0.856   0.670   4.239  3.0411  0.8273  2.8794
22324SOL    HW270375   0.887   0.768   4.128 -1.6596 -1.0524 -0.4748
22325SOL     OW70376   1.584   9.222   9.356 -0.4011  0.0139  0.2340
22325SOL    HW170377   1.521   9.292   9.376  1.2502  0.9492  2.7046
22325SOL    HW270378   1.547   9.144   9.396 -0.5492  0.2972  0.6552
22326SOL     OW70379   9.196   8.344   3.651 -0.3435  0.2211  0.0244
22326SOL    HW170380   9.211   8.257   3.687  1.1691  1.1254  1.7214
22326SOL    HW270381   9.140   8.388   3.715  0.6404  1.1766  0.2495
22327SOL     OW70382   7.662   0.283   1.816 -0.7150  0.0939  0.4357
22327SOL    HW170383   7.723   0.270   1.889 -0.1097  1.3520  0.1814
22327SOL    HW270384   7.702   0.236   1.743  0.4801  1.7116  0.0116
22328SOL     OW70385   5.486   5.979  10.829 -0.3299 -0.1025  0.0923
22328SOL    HW170386   5.393   5.978  10.807 -0.5345 -1.3312  0.9227
22328SOL    HW270387   5.502   6.069  10.858 -1.4419 -0.0676  0.6680
22329SOL     OW70388  10.484   6.336   3.128  0.0762  0.1811 -0.1705
22329SOL    HW170389  10.468   6.340   3.034  1.3291 -2.8606 -0.6258
22329SOL    HW270390  10.402   6.303   3.165  0.0786 -0.0966 -0.4091
22330SOL     OW70391   8.313   6.421   6.714 -0.4032  0.0877  0.2174
22330SOL    HW170392   8.340   6.334   6.745  0.9775  0.4357  0.0754
22330SOL    HW270393   8.368   6.436   6.637 -0.8400  0.9651  0.0732
22331SOL     OW70394  10.641   3.024   7.859 -0.1309 -0.2861  0.8290
22331SOL    HW170395  10.619   3.025   7.766 -0.6352  0.7950  0.9439
22331SOL    HW270396  10.563   2.990   7.902  0.1718 -0.9709  0.8515
22332SOL     OW70397   8.388   9.298   9.191  0.2767 -0.2328  0.1543
22332SOL    HW170398   8.422   9.209   9.183  1.6811  0.2439  0.5632
22332SOL    HW270399   8.422   9.329   9.276 -1.5721  0.1211  0.8150
22333SOL     OW70400   1.573   3.335  10.863  0.5197 -0.2122  0.1794
22333SOL    HW170401   1.484   3.328  10.896 -0.2102  0.9808 -1.4082
22333SOL    HW270402   1.619   3.390  10.926 -0.6914  1.5931 -0.4571
22334SOL     OW70403   2.111   2.770   6.973 -0.5474 -0.1260  0.2074
22334SOL    HW170404   2.018   2.758   6.956 -0.6642 -0.0557  0.7753
22334SOL    HW270405   2.118   2.770   7.069 -0.2599  1.9891  0.2395
22335SOL     OW70406   1.453   9.495   0.298 -0.0653  0.3173 -0.4573
22335SOL    HW170407   1.413   9.496   0.385 -0.3347  0.4420 -0.5827
22335SOL    HW270408   1.504   9.576   0.294 -0.4853  0.5768 -0.6162
22336SOL     OW70409  10.085   4.864   5.385  0.0189 -0.8326  0.1689
22336SOL    HW170410  10.144   4.791   5.403  0.3820 -0.4144  0.6912
22336SOL    HW270411  10.136   4.924   5.331  0.5617  0.1812  1.7487
22337SOL     OW70412   7.742  10.581   8.181 -0.6824  0.0423 -0.0222
22337SOL    HW170413   7.733  10.673   8.156 -1.9534 -0.1038 -0.1358
22337SOL    HW270414   7.775  10.539   8.101 -0.6758  0.2878 -0.1520
22338SOL     OW70415   9.274   9.625   4.042 -0.3395 -0.0157 -1.0269
22338SOL    HW170416   9.251   9.535   4.066 -0.0717  0.2846  0.4707
22338SOL    HW270417   9.261   9.675   4.123  0.6386  1.0848 -1.5191
22339SOL     OW70418   4.883   5.861   2.895  0.3296 -0.4499 -0.0795
22339SOL    HW170419   4.967   5.825   2.868  1.7273  2.2886  0.2871
22339SOL    HW270420   4.871   5.831   2.985  1.2661 -0.3085  0.0981
22340SOL     OW70421   4.255   9.712   5.906 -0.0690 -0.1600 -0.8077
22340SOL    HW170422   4.270   9.700   5.812 -0.2793  0.0446 -0.8704
22340SOL    HW270423   4.282   9.803   5.922  2.1966 -0.8610 -0.2048
22341SOL     OW70424   7.923   6.859   5.079  0.1782  0.2091 -0.7089
22341SOL    HW170425   8.008   6.876   5.120 -0.1752 -0.5425  0.3903
22341SOL    HW270426   7.937   6.779   5.028 -0.3844 -1.2565  1.2882
22342SOL     OW70427   8.646   3.394   7.861 -0.2600 -0.3051  0.3557
22342SOL    HW170428   8.572   3.334   7.873  0.5919 -1.2586  0.9733
22342SOL    HW270429   8.616   3.477   7.896 -1.1245 -0.6128  0.3689
22343SOL     OW70430   1.626  10.881  10.340  0.8168 -0.2081 -0.0859
22343SOL    HW170431   1.679  10.883  10.420 -0.1964 -1.4196  0.6596
22343SOL    HW270432   1.681  10.838  10.275  2.9181  3.5625 -1.1174
22344SOL     OW70433   4.347   2.370   0.857 -0.7633 -0.0462  0.2185
22344SOL    HW170434   4.349   2.464   0.842  1.5328  0.3760  2.4647
22344SOL    HW270435   4.371   2.331   0.773 -1.1326  1.3893 -0.5735
22345SOL     OW70436   6.939   2.762   0.987 -0.1806 -0.0893  0.0074
22345SOL    HW170437   6.976   2.682   1.024  1.9790  0.4854 -0.7469
22345SOL    HW270438   6.925   2.819   1.062 -0.7285 -0.7558  0.4286
22346SOL     OW70439   5.935   4.806   3.251  0.0122 -0.0707  0.3567
22346SOL    HW170440   5.928   4.901   3.264 -1.3917 -0.2910  1.4389
22346SOL    HW270441   5.897   4.791   3.164 -0.2341  0.3127  0.3954
22347SOL     OW70442   6.740   0.175  10.767  0.0484 -0.0371 -0.4957
22347SOL    HW170443   6.833   0.196  10.758  0.4566 -0.0365  2.6139
22347SOL    HW270444   6.697   0.232  10.703  2.0594  1.1851 -0.8698
22348SOL     OW70445   3.718   8.025   9.094 -0.0815  0.3300  0.3019
22348SOL    HW170446   3.697   8.055   9.183 -0.4121  0.5596  0.1509
22348SOL    HW270447   3.730   7.931   9.102 -0.2754  0.3268  0.5609
22349SOL     OW70448   0.250  10.053   1.528  0.3367  0.2618 -0.0891
22349SOL    HW170449   0.312  10.024   1.461 -0.6797 -1.8428 -0.1985
22349SOL    HW270450   0.247   9.981   1.591 -1.2099  0.7580  0.4522
22350SOL     OW70451   0.045  10.764   4.530 -0.6100 -0.1933 -0.1849
22350SOL    HW170452   0.116  10.710   4.495 -1.4326 -0.4569 -1.5138
22350SOL    HW270453   0.043  10.840   4.472  0.1547  1.0285  1.3179
22351SOL     OW70454   4.343   9.363   2.179  0.0568 -0.2857 -0.3581
22351SOL    HW170455   4.429   9.396   2.151 -0.4432  1.4946  0.0974
22351SOL    HW270456   4.350   9.268   2.170  1.9081 -0.1449 -0.7951
22352SOL     OW70457   2.475   5.946   9.183  0.0919  0.8059 -0.4160
22352SOL    HW170458   2.479   5.865   9.132  1.8099  0.0387  0.8404
22352SOL    HW270459   2.429   5.921   9.263  0.2783  1.1537 -0.1985
22353SOL     OW70460  10.132  10.724   0.604 -0.1312 -0.2015 -0.3694
22353SOL    HW170461  10.063  10.788   0.587 -1.3850 -1.1093  1.0357
22353SOL    HW270462  10.085  10.644   0.626  1.3565 -0.8199  0.7313
22354SOL     OW70463   1.226   5.144   9.579  0.0081 -0.0201 -0.8192
22354SOL    HW170464   1.142   5.135   9.533 -0.7764 -0.5197  0.6258
22354SOL    HW270465   1.291   5.110   9.517 -0.9593 -0.3595 -1.6824
22355SOL     OW70466   1.544   1.776   7.226 -0.4986 -0.2637  0.0567
22355SOL    HW170467   1.538   1.841   7.157  3.4994  1.1559  0.7311
22355SOL    HW270468   1.487   1.808   7.295 -0.0054  1.6062 -0.3521
22356SOL     OW70469   7.268   0.086   2.219  0.0104 -0.5967 -0.1390
22356SOL    HW170470   7.226   0.150   2.276 -0.9966 -2.1688  0.9736
22356SOL    HW270471   7.302   0.137   2.146 -0.1866  1.2634  1.0050
22357SOL     OW70472   4.098   7.869   9.550  0.4983  0.2821 -0.4128
22357SOL    HW170473   4.110   7.876   9.455  2.7253 -1.0645 -0.3031
22357SOL    HW270474   4.055   7.784   9.562  0.7965  0.1598 -0.1965
22358SOL     OW70475   1.462   8.641   1.690 -0.0105 -0.9549 -0.1231
22358SOL    HW170476   1.464   8.731   1.721 -1.8988 -0.8578 -0.1717
22358SOL    HW270477   1.501   8.590   1.761 -2.2855 -0.4942  1.5718
22359SOL     OW70478   2.208   3.729   0.816  0.0330 -0.1679 -0.7810
22359SOL    HW170479   2.184   3.667   0.885 -0.4823 -0.6983 -1.4302
22359SOL    HW270480   2.152   3.805   0.831  0.8662  0.2821  0.1924
22360SOL     OW70481   7.200   8.960   5.050 -0.4726  0.2785  0.4603
22360SOL    HW170482   7.200   8.991   5.140  0.9146  0.6482  0.3485
22360SOL    HW270483   7.292   8.960   5.024 -0.9479  1.5128 -1.4173
22361SOL     OW70484   9.243   1.085   7.875  0.4950  0.4647 -0.6961
22361SOL    HW170485   9.322   1.040   7.847  0.4192  0.2630 -0.5832
22361SOL    HW270486   9.173   1.047   7.822  0.3809  0.2155 -0.3675
22362SOL     OW70487   4.564   7.901   1.901 -0.4709  0.0947  0.2649
22362SOL    HW170488   4.506   7.825   1.897 -0.4203  0.0800 -0.3710
22362SOL    HW270489   4.506   7.976   1.905 -0.5206  0.0028  1.6370
22363SOL     OW70490   3.134   0.860   4.378  0.5312  0.1863  0.0447
22363SOL    HW170491   3.069   0.894   4.317 -0.5638  0.2300  1.2005
22363SOL    HW270492   3.184   0.797   4.327 -1.9108 -1.5976 -0.3221
22364SOL     OW70493   4.312   6.860   8.980  0.4923 -0.1336  0.1292
22364SOL    HW170494   4.216   6.860   8.990  0.5985  1.7909  1.8406
22364SOL    HW270495   4.339   6.774   9.014 -0.6310 -0.9407 -0.9097
22365SOL     OW70496   8.487  10.576   4.185 -0.3710 -0.0279  0.5292
22365SOL    HW170497   8.468  10.584   4.279  0.2576  0.8680  0.5923
22365SOL    HW270498   8.491  10.482   4.169 -2.2360 -0.2317  1.0381
22366SOL     OW70499   5.069   7.504   4.637  0.3963  0.0797 -0.4565
22366SOL    HW170500   5.130   7.485   4.566  1.4299 -1.2969  0.7423
22366SOL    HW270501   5.112   7.573   4.688  1.3061 -1.3053  0.7298
22367SOL     OW70502   2.477   0.367   2.960 -0.5554  0.3340 -0.3228
22367SOL    HW170503   2.522   0.422   2.895  0.9125 -0.0445  0.3202
22367SOL    HW270504   2.437   0.430   3.021  1.4343  0.7570  0.6324
22368SOL     OW70505   3.491   4.612   5.998 -0.3463 -0.0593  0.0273
22368SOL    HW170506   3.468   4.630   5.906 -0.8792 -0.5163  0.0647
22368SOL    HW270507   3.532   4.526   5.996 -0.6479 -0.2128  0.2513
22369SOL     OW70508  10.162   6.061   5.152  0.5553  0.7849  0.0895
22369SOL    HW170509  10.127   6.082   5.066  1.1236  0.9454 -0.1087
22369SOL    HW270510  10.228   5.994   5.136  0.0479  0.1752  0.5096
22370SOL     OW70511   2.994   6.168   4.406  0.2236 -0.2336  0.3166
22370SOL    HW170512   3.044   6.095   4.442  0.2207 -1.4114 -1.9121
22370SOL    HW270513   2.903   6.147   4.427  0.1040 -1.5428 -1.2852
22371SOL     OW70514   4.733   6.768   7.169 -0.0151  0.2504 -0.1393
22371SOL    HW170515   4.676   6.839   7.142  0.4851  0.4176 -0.7746
22371SOL    HW270516   4.815   6.783   7.122  0.1970 -0.5748 -0.0558
22372SOL     OW70517   4.425   9.866   5.785  0.4094  0.0920 -0.0466
22372SOL    HW170518   4.497   9.803   5.785  1.0539  0.7897  0.8217
22372SOL    HW270519   4.435   9.914   5.868 -2.3237 -1.2151  1.1810
22373SOL     OW70520  10.285   7.308   6.926  0.5387  0.4558 -0.1091
22373SOL    HW170521  10.227   7.364   6.875 -1.9379 -0.3053  1.6907
22373SOL    HW270522  10.303   7.358   7.006  0.8280 -0.0676  0.1619
22374SOL     OW70523   6.934   9.137   6.101 -0.2610 -0.6164 -0.1874
22374SOL    HW170524   6.952   9.120   6.009 -1.2177  0.7800 -0.6602
22374SOL    HW270525   7.019   9.163   6.137  0.2379 -1.7291 -0.5223
22375SOL     OW70526   7.984   4.269   5.626 -0.3383 -0.1738  0.0960
22375SOL    HW170527   7.925   4.320   5.570 -0.1965 -0.9553 -0.7961
22375SOL    HW270528   7.927   4.207   5.670 -0.2273 -0.8480 -0.6745
22376SOL     OW70529   0.665   4.337   7.266  0.2678  0.5893  0.1239
22376SOL    HW170530   0.662   4.431   7.251 -0.9885  0.5435 -0.0322
22376SOL    HW270531   0.720   4.326   7.344 -0.6378  1.5553  0.9175
22377SOL     OW70532   4.465   3.017   9.969  0.7420 -0.0398  0.4705
22377SOL    HW170533   4.477   3.047   9.879  0.4910 -1.5977 -0.1034
22377SOL    HW270534   4.461   3.098  10.020 -0.1454  0.9174 -1.0273
22378SOL     OW70535   0.888   0.489   0.757  0.6807 -0.2198  0.1281
22378SOL    HW170536   0.795   0.466   0.749  0.9148 -1.2087  0.1496
22378SOL    HW270537   0.928   0.455   0.677  1.1055 -0.1763  0.3212
22379SOL     OW70538   1.084   7.163   9.891 -0.3564  0.0568 -0.0305
22379SOL    HW170539   1.014   7.100   9.872  0.4362 -1.0708  0.7024
22379SOL    HW270540   1.067   7.190   9.981  0.7386 -1.0347  0.5272
22380SOL     OW70541   4.917   7.852   9.710 -0.4987 -0.0247  0.0342
22380SOL    HW170542   4.976   7.914   9.754 -0.4965  0.7230 -0.9927
22380SOL    HW270543   4.844   7.906   9.680 -0.1658 -0.3680 -1.4807
22381SOL     OW70544   2.739   0.431   3.820  0.2063 -0.5939 -0.5355
22381SOL    HW170545   2.720   0.489   3.746  0.3651  0.0880 -0.0533
22381SOL    HW270546   2.658   0.382   3.834  0.5819 -1.7204 -2.0096
22382SOL     OW70547   0.781   3.530   4.820 -0.3321  0.2551  0.1882
22382SOL    HW170548   0.820   3.527   4.908 -3.1426 -1.6299  1.4911
22382SOL    HW270549   0.773   3.439   4.794 -2.5015  0.6090 -0.6020
22383SOL     OW70550   7.286   9.251   8.768  0.4880 -0.3531 -0.6061
22383SOL    HW170551   7.256   9.186   8.832  0.5991  0.7037  0.5653
22383SOL    HW270552   7.338   9.201   8.705  2.1046 -1.1671  1.2641
22384SOL     OW70553   4.651   0.716   2.355 -0.1551  0.1429 -1.1201
22384SOL    HW170554   4.581   0.674   2.404  0.6975  1.6229  1.6085
22384SOL    HW270555   4.623   0.807   2.345  1.0607  0.6155 -0.4990
22385SOL     OW70556   0.469   1.666   7.669  0.0363 -0.3372  0.1487
22385SOL    HW170557   0.510   1.582   7.686 -0.2981 -0.5800 -0.2223
22385SOL    HW270558   0.541   1.723   7.641  0.4692 -0.1407  1.5620
22386SOL     OW70559   8.292   1.175   8.720  0.1447 -0.2901  0.2042
22386SOL    HW170560   8.328   1.261   8.699  0.1359 -0.3298  0.0179
22386SOL    HW270561   8.205   1.193   8.754  0.0787 -0.2346  0.0080
22387SOL     OW70562   5.024   8.502   9.278  0.4622 -0.4997 -0.7533
22387SOL    HW170563   5.112   8.534   9.258 -0.1610  1.1727 -1.0634
22387SOL    HW270564   5.034   8.408   9.289  2.0865 -0.4994 -1.8802
22388SOL     OW70565   2.663  10.296  10.164  0.3396  0.4960  0.3115
22388SOL    HW170566   2.574  10.320  10.186  0.7922  1.2084  1.4342
22388SOL    HW270567   2.670  10.312  10.069 -0.9972 -0.5336  0.0147
22389SOL     OW70568   5.876   6.533   0.854 -0.1480 -0.3661  0.0861
22389SOL    HW170569   5.941   6.464   0.844  0.1194 -0.1786  0.4902
22389SOL    HW270570   5.866   6.544   0.948 -1.6029 -1.1651  0.0502
22390SOL     OW70571   4.421   5.206   8.770  0.7942 -0.1589 -0.0969
22390SOL    HW170572   4.380   5.280   8.815  0.4149 -1.2371  1.4411
22390SOL    HW270573   4.480   5.169   8.836 -1.3673 -3.1109  0.3952
22391SOL     OW70574   3.155   5.729   8.883 -0.4576 -0.0318  0.0440
22391SOL    HW170575   3.197   5.798   8.935  0.0757 -1.5725  1.7392
22391SOL    HW270576   3.074   5.710   8.929  0.4449 -2.0488  0.9411
22392SOL     OW70577   3.123   4.026   7.259  0.2835 -0.1858 -0.0642
22392SOL    HW170578   3.138   4.115   7.290  2.3068 -0.5305  0.0632
22392SOL    HW270579   3.208   3.983   7.266 -0.1600 -1.5447 -2.0502
22393SOL     OW70580   7.702   5.884   4.024 -0.4914  0.3608  0.1651
22393SOL    HW170581   7.756   5.891   4.103 -1.9527  0.5597  1.1984
22393SOL    HW270582   7.762   5.905   3.952  0.6322  1.2709  1.3050
22394SOL     OW70583   2.375   2.250   6.243 -0.5668 -0.8254  0.2140
22394SOL    HW170584   2.280   2.260   6.239 -0.3523  1.3979 -1.0731
22394SOL    HW270585   2.401   2.233   6.153  0.3624  0.0257  0.3046
22395SOL     OW70586  10.900   9.744   2.810  0.5116  0.1215  0.0646
22395SOL    HW170587  10.973   9.806   2.808 -0.3109  1.1064 -0.6005
22395SOL    HW270588  10.825   9.796   2.838 -0.0835 -0.7011  0.0360
22396SOL     OW70589   5.386   2.884  10.735 -0.1787  0.1976 -0.2034
22396SOL    HW170590   5.432   2.931  10.805 -0.3916  0.1540 -0.0333
22396SOL    HW270591   5.308   2.848  10.777 -0.4438  0.3924 -0.5249
22397SOL     OW70592   0.396   0.720   6.481  0.1012 -0.4025  0.1617
22397SOL    HW170593   0.451   0.647   6.510 -1.5263 -1.4319  0.7749
22397SOL    HW270594   0.311   0.703   6.520 -1.3665 -0.1597 -2.6932
22398SOL     OW70595   0.762   4.410   5.903  0.2981 -0.0254  0.1747
22398SOL    HW170596   0.855   4.392   5.891  0.5172 -0.2552  1.8878
22398SOL    HW270597   0.727   4.422   5.814  1.5881 -1.7683 -0.6177
22399SOL     OW70598  10.682   4.227  10.815 -0.3199  0.2695  0.1465
22399SOL    HW170599  10.759   4.183  10.851 -0.0864 -0.9253 -1.7057
22399SOL    HW270600  10.717   4.298  10.761 -0.6479  1.5620  1.5547
22400SOL     OW70601  10.415   4.375  10.737  0.3783 -0.4445  0.1811
22400SOL    HW170602  10.454   4.337  10.816  0.9683  0.3057  0.2668
22400SOL    HW270603  10.452   4.464  10.733  1.5612 -0.9597 -1.7500
22401SOL     OW70604   9.885   5.704   6.861  0.3135  0.2368  0.3181
22401SOL    HW170605   9.838   5.698   6.778  0.5523  2.0197  0.0178
22401SOL    HW270606   9.861   5.623   6.908  0.9949 -1.3139 -1.8560
22402SOL     OW70607   5.378   5.563   1.566  0.0087 -0.5732  0.6876
22402SOL    HW170608   5.324   5.620   1.620 -0.5144  0.7318 -1.1032
22402SOL    HW270609   5.366   5.475   1.603 -0.5996  0.2046  2.4067
22403SOL     OW70610   8.527   0.640   4.069 -0.2713 -0.1615 -0.0767
22403SOL    HW170611   8.474   0.696   4.012 -1.2738  3.7722  4.1629
22403SOL    HW270612   8.612   0.684   4.074  1.1559 -2.5618 -1.2769
22404SOL     OW70613   8.667   4.391   0.905  0.3874  0.6279  0.1172
22404SOL    HW170614   8.685   4.350   0.989  1.4476 -0.4179 -0.5917
22404SOL    HW270615   8.670   4.485   0.923  0.7371  0.4225  1.2117
22405SOL     OW70616  10.474   7.396   8.160 -0.2656 -0.3135 -0.2700
22405SOL    HW170617  10.436   7.335   8.224 -1.1737  0.9135  0.3971
22405SOL    HW270618  10.561   7.415   8.194 -0.7586  0.3674  0.6572
22406SOL     OW70619   9.109   2.045   8.236 -0.4865 -0.0948  0.2562
22406SOL    HW170620   9.191   2.096   8.238  0.0424 -0.8678 -0.6650
22406SOL    HW270621   9.088   2.029   8.328 -0.5892  1.6479  0.5587
22407SOL     OW70622   3.854  10.343   1.379 -0.4538  0.3831 -0.7633
22407SOL    HW170623   3.880  10.331   1.288 -1.2563 -0.7599 -0.8549
22407SOL    HW270624   3.759  10.347   1.377 -0.4673  0.6803 -0.0033
22408SOL     OW70625   4.288  10.464   3.742 -0.3893 -0.8065  0.6264
22408SOL    HW170626   4.207  10.485   3.696 -0.6631 -0.6386  1.1843
22408SOL    HW270627   4.267  10.387   3.794 -0.3773 -0.3835  1.2643
22409SOL     OW70628   2.465   8.332   6.345 -0.8068 -0.1253  0.1604
22409SOL    HW170629   2.509   8.261   6.298  0.9664  2.0053 -1.6223
22409SOL    HW270630   2.477   8.310   6.437  0.1935 -1.8520 -0.3238
22410SOL     OW70631   8.283   4.073   0.716  0.0913  0.2109 -0.3646
22410SOL    HW170632   8.237   3.990   0.701 -1.2574  0.9636 -0.5966
22410SOL    HW270633   8.357   4.050   0.772  0.7515 -1.4182 -1.8364
22411SOL     OW70634   5.717   7.015   3.917  0.2036 -0.2429  0.1185
22411SOL    HW170635   5.677   6.997   4.002 -1.1093 -1.8765 -0.7918
22411SOL    HW270636   5.666   7.088   3.881  0.1936 -0.1342  0.3540
22412SOL     OW70637   1.272   3.240   1.167 -0.0348  0.0619 -0.1420
22412SOL    HW170638   1.249   3.167   1.224  1.2376 -0.8577 -0.7603
22412SOL    HW270639   1.189   3.266   1.126 -0.3575 -1.7194 -0.6803
22413SOL     OW70640   7.145   2.788   2.410  0.0179 -0.1783 -0.5628
22413SOL    HW170641   7.180   2.877   2.415 -1.5247  0.3747  1.5801
22413SOL    HW270642   7.213   2.734   2.451  0.2332  0.2595 -0.3316
22414SOL     OW70643  10.579   6.678   8.243 -0.2450  0.0723 -0.1152
22414SOL    HW170644  10.653   6.737   8.236 -1.5474  1.9414  1.0081
22414SOL    HW270645  10.614   6.593   8.218  2.4416  0.7303  1.0147
22415SOL     OW70646   7.381   6.989   8.604 -0.1082 -0.2969 -0.3444
22415SOL    HW170647   7.316   6.989   8.674  0.0496  0.5484 -0.1958
22415SOL    HW270648   7.413   6.898   8.601 -0.6712 -0.5164  0.1512
22416SOL     OW70649   7.432   6.851   1.630  0.5469 -0.6600  0.1973
22416SOL    HW170650   7.452   6.758   1.636 -0.4529 -0.8287  1.2171
22416SOL    HW270651   7.492   6.884   1.563  1.2399 -1.9362  0.1558
22417SOL     OW70652   3.970   5.952  10.905  0.5982  0.6637 -0.3151
22417SOL    HW170653   4.028   5.881  10.932 -0.6307 -0.7195 -1.1254
22417SOL    HW270654   3.896   5.946  10.966  0.4829  1.2621 -0.3913
22418SOL     OW70655   4.705   8.151   3.094  0.0893 -0.2513 -0.2253
22418SOL    HW170656   4.772   8.084   3.082 -0.0199 -0.4333  0.1614
22418SOL    HW270657   4.739   8.227   3.048 -0.6610 -1.1255 -2.3608
22419SOL     OW70658   9.502   2.531   2.127  0.2417  0.1924  0.2586
22419SOL    HW170659   9.534   2.515   2.215  0.2002 -0.5181  0.1501
22419SOL    HW270660   9.581   2.535   2.072  0.2260 -0.0624  0.2193
22420SOL     OW70661   8.079   3.520   9.760  0.3895 -0.0923 -0.1164
22420SOL    HW170662   7.993   3.558   9.782 -0.0509 -1.0264 -0.1808
22420SOL    HW270663   8.085   3.442   9.814  0.2885 -1.1772 -1.5978
22421SOL     OW70664   4.763   9.802   7.252 -0.1603 -1.0395  0.0985
22421SOL    HW170665   4.686   9.786   7.198 -0.9548  0.7649  0.6385
22421SOL    HW270666   4.814   9.721   7.245 -1.0915 -1.5176 -1.8945
22422SOL     OW70667   4.498   8.886   9.485 -0.5238 -0.2191 -0.8289
22422SOL    HW170668   4.419   8.847   9.524 -0.4077 -0.8512 -1.2115
22422SOL    HW270669   4.465   8.958   9.431 -1.0561 -1.6482 -2.5194
22423SOL     OW70670   6.682   1.330   9.228 -0.4374  0.3275 -0.0309
22423SOL    HW170671   6.736   1.348   9.151 -0.6321  0.3835 -0.1560
22423SOL    HW270672   6.733   1.266   9.278  0.0581  0.8858  0.1987
22424SOL     OW70673   0.436   4.921   4.958  0.0510  0.0063 -0.7023
22424SOL    HW170674   0.413   4.895   5.047 -0.9577 -0.2432 -1.0214
22424SOL    HW270675   0.532   4.912   4.954 -0.0542 -1.7549 -0.1941
22425SOL     OW70676   2.854  10.711  10.615  0.2880 -0.1951 -0.7486
22425SOL    HW170677   2.824  10.733  10.703 -1.0737 -0.0088 -1.2245
22425SOL    HW270678   2.781  10.662  10.577  0.0447  1.3554 -2.4052
22426SOL     OW70679   6.319  10.910   9.769  0.4755  0.2287 -0.2397
22426SOL    HW170680   6.229  10.938   9.755  0.5011  0.0711 -0.7411
22426SOL    HW270681   6.370  10.991   9.767  0.2045  0.4657  1.3435
22427SOL     OW70682   5.786   4.628   3.787 -0.2181 -0.5709  0.0885
22427SOL    HW170683   5.867   4.598   3.828  1.0130  1.2049 -0.8830
22427SOL    HW270684   5.811   4.651   3.698 -1.5734  0.8886  0.0364
22428SOL     OW70685   7.532   0.917   9.791 -0.1396  0.3138  0.2451
22428SOL    HW170686   7.494   0.879   9.870  0.1015 -0.2693  0.0929
22428SOL    HW270687   7.519   0.850   9.724 -0.0231  0.6554 -0.1226
22429SOL     OW70688  10.115   0.263   7.642  0.4955 -0.4641 -0.4685
22429SOL    HW170689  10.174   0.322   7.596  1.0693 -0.4564  0.2581
22429SOL    HW270690  10.173   0.202   7.688 -0.0766 -1.1023 -0.5778
22430SOL     OW70691   9.671  10.410   5.596 -0.2120  0.2988  0.5241
22430SOL    HW170692   9.749  10.437   5.645  0.3144 -0.3200  0.0367
22430SOL    HW270693   9.705  10.363   5.520 -1.0606  0.0291  0.2996
22431SOL     OW70694   8.344   3.193  10.159 -0.1929  0.2855 -0.1806
22431SOL    HW170695   8.267   3.247  10.171 -0.5086 -0.4147  1.2340
22431SOL    HW270696   8.358   3.190  10.065 -0.8785  1.8003 -0.3493
22432SOL     OW70697   3.815   1.643   5.449  0.3320 -0.1624  0.7253
22432SOL    HW170698   3.722   1.630   5.435 -0.0751  0.6184  2.4599
22432SOL    HW270699   3.857   1.583   5.386 -1.2618  0.7992 -1.3803
22433SOL     OW70700   4.859   0.730   9.577  0.0916 -0.5367  0.0641
22433SOL    HW170701   4.812   0.813   9.584  0.0884 -0.6209  1.2206
22433SOL    HW270702   4.859   0.710   9.484 -0.2207  0.5832 -0.1877
22434SOL     OW70703   7.804   2.925  10.142  0.2296  0.3057 -0.1298
22434SOL    HW170704   7.759   3.004  10.112 -0.9302 -0.4661 -0.4732
22434SOL    HW270705   7.763   2.906  10.226  1.2805  0.6723  0.4856
22435SOL     OW70706   1.443   4.731   3.820 -0.5956 -0.0648 -0.1424
22435SOL    HW170707   1.389   4.810   3.809  0.2920  0.2402 -3.5345
22435SOL    HW270708   1.464   4.729   3.913 -0.0478  4.1698  0.0325
22436SOL     OW70709   4.768   1.074   0.782  0.4764  0.3424 -0.1921
22436SOL    HW170710   4.767   1.123   0.700 -0.2580 -0.0589 -0.4303
22436SOL    HW270711   4.836   1.007   0.769  0.0600  0.0005 -0.6447
22437SOL     OW70712   3.504   1.016   7.167  0.4295  0.2259  0.0847
22437SOL    HW170713   3.493   1.095   7.219 -0.4551  1.8587 -2.3789
22437SOL    HW270714   3.420   0.971   7.173  0.6172 -0.0343  0.7443
22438SOL     OW70715   3.103  10.469   8.595 -0.2009 -0.3674 -0.3663
22438SOL    HW170716   3.121  10.405   8.526  0.1775  0.7627 -1.3681
22438SOL    HW270717   3.041  10.530   8.555  0.4593  0.6301  0.0920
22439SOL     OW70718   0.910   4.027   1.411  0.0462 -0.7874 -0.0593
22439SOL    HW170719   0.962   4.078   1.473  0.5083  0.1823 -1.2055
22439SOL    HW270720   0.959   4.030   1.329 -0.0834 -2.8205 -0.2766
22440SOL     OW70721   3.687   7.164   6.319 -0.2902  0.2825 -0.3161
22440SOL    HW170722   3.765   7.176   6.373 -1.2791  1.6363  0.8783
22440SOL    HW270723   3.614   7.160   6.381 -1.2581 -0.2421 -1.4303
22441SOL     OW70724   4.874   4.527  10.572 -0.1771  0.2844 -0.3023
22441SOL    HW170725   4.812   4.594  10.600 -0.6785 -0.4311  0.3625
22441SOL    HW270726   4.944   4.575  10.527  0.2798  1.4201  1.5260
22442SOL     OW70727  10.332   0.852   3.171  0.6156  0.3939 -0.5563
22442SOL    HW170728  10.378   0.801   3.104 -0.3524  0.6569 -1.4500
22442SOL    HW270729  10.384   0.932   3.180  0.5163  0.5569 -1.3396
22443SOL     OW70730   9.109   3.208   8.778 -0.6135  0.2137  0.2221
22443SOL    HW170731   9.034   3.177   8.829 -2.1510  2.5429 -0.4792
22443SOL    HW270732   9.132   3.134   8.721 -1.8713 -0.7925  0.9735
22444SOL     OW70733   0.138   5.649   6.003  0.1582 -0.3952 -0.2401
22444SOL    HW170734   0.093   5.734   6.000 -1.8079 -1.3527  0.5825
22444SOL    HW270735   0.215   5.662   5.948 -0.5793  1.6462 -0.9122
22445SOL     OW70736   5.736   6.313   2.747 -0.2504 -0.5156 -0.3364
22445SOL    HW170737   5.670   6.373   2.714 -0.6546  0.7693  2.4756
22445SOL    HW270738   5.816   6.337   2.700 -0.7032  1.3923 -0.2205
22446SOL     OW70739   3.280   1.317   6.025 -0.5010  0.0141  0.3928
22446SOL    HW170740   3.308   1.356   6.107 -0.3679  0.0623  0.3245
22446SOL    HW270741   3.361   1.291   5.982 -0.5770 -0.1313  0.3362
22447SOL     OW70742   6.978   0.832   8.241  0.0187  0.2074  0.5505
22447SOL    HW170743   7.068   0.842   8.211 -0.3201 -2.3316 -1.6614
22447SOL    HW270744   6.985   0.789   8.326  0.8893  0.1797  0.4741
22448SOL     OW70745   1.127   3.852   6.859  0.3281  0.0896 -0.4979
22448SOL    HW170746   1.080   3.916   6.805  1.3412  1.2753 -0.0080
22448SOL    HW270747   1.135   3.893   6.945  0.1730 -1.1014  0.1052
22449SOL     OW70748   1.022   9.095   2.360  0.3353  0.4615  0.1394
22449SOL    HW170749   0.928   9.086   2.345 -0.1076  1.3095  2.1669
22449SOL    HW270750   1.051   9.158   2.293 -0.9735  1.8858  0.8527
22450SOL     OW70751   8.110   8.604   3.500  0.5524 -0.5058 -0.4305
22450SOL    HW170752   8.147   8.686   3.468  0.5170 -0.5236 -0.5135
22450SOL    HW270753   8.166   8.580   3.574  0.5113 -0.3639 -0.3541
22451SOL     OW70754   9.295   8.691   2.914  0.6196 -0.1778  0.0685
22451SOL    HW170755   9.226   8.734   2.863  0.5228  1.2787  1.3622
22451SOL    HW270756   9.250   8.655   2.990  1.2704  0.8343  0.9531
22452SOL     OW70757   0.735   4.924   2.110 -0.0381 -0.2565 -0.2160
22452SOL    HW170758   0.773   4.840   2.135  0.9300 -0.3464 -1.8330
22452SOL    HW270759   0.785   4.989   2.159  1.0620 -0.4825 -1.0152
22453SOL     OW70760   7.673   9.336   1.714  0.0937 -0.0632  0.5054
22453SOL    HW170761   7.615   9.412   1.702  1.2514  0.8447  0.4345
22453SOL    HW270762   7.618   9.260   1.695 -1.5342  0.6523  2.0392
22454SOL     OW70763   1.677   4.873  10.131  0.6038  0.1189 -0.1034
22454SOL    HW170764   1.715   4.877  10.219  1.8949  0.7217 -0.6648
22454SOL    HW270765   1.750   4.892  10.072  0.3267 -2.5592 -1.4714
22455SOL     OW70766   6.619   7.462   4.133  0.6163  0.2096 -0.2308
22455SOL    HW170767   6.563   7.479   4.209  1.7362 -0.9771  0.9218
22455SOL    HW270768   6.679   7.393   4.163  0.2414 -1.2657 -2.6238
22456SOL     OW70769   2.863   9.316   7.270  0.4209 -0.2314 -0.6284
22456SOL    HW170770   2.935   9.371   7.238 -0.2804  1.7858  1.0379
22456SOL    HW270771   2.857   9.335   7.363 -1.4380 -1.3438 -0.4617
22457SOL     OW70772   1.008   6.006   2.527  0.5045  0.0374 -0.0546
22457SOL    HW170773   0.976   6.090   2.560  0.2642 -0.1503  0.1985
22457SOL    HW270774   1.074   6.029   2.462 -0.4665  0.4469 -0.9175
22458SOL     OW70775   5.493   3.414   6.044 -0.0176 -0.5871  0.3494
22458SOL    HW170776   5.483   3.332   5.995 -1.4950  1.6502 -3.5253
22458SOL    HW270777   5.404   3.448   6.052  0.5560  0.6392  1.9598
22459SOL     OW70778   7.855  10.339   4.852  0.1531 -0.1990 -0.2261
22459SOL    HW170779   7.927  10.353   4.913  0.4682 -0.0861 -0.6133
22459SOL    HW270780   7.852  10.244   4.838 -0.9464 -0.3917  1.1735
22460SOL     OW70781   3.803   2.754  10.626  0.6837  1.0865  0.4065
22460SOL    HW170782   3.782   2.772  10.535 -0.8580  0.4321  0.6069
22460SOL    HW270783   3.897   2.736  10.626  0.4498 -0.4534 -1.3234
22461SOL     OW70784   9.264   8.047   9.489 -0.1218 -0.2289 -0.1673
22461SOL    HW170785   9.193   7.987   9.467  0.0006 -0.6613  0.5809
22461SOL    HW270786   9.315   8.000   9.555  1.6525 -0.5163 -1.6555
22462SOL     OW70787   1.736   1.200   5.730 -0.1021 -0.2951  0.0604
22462SOL    HW170788   1.728   1.285   5.687 -0.8298  0.8687  2.3258
22462SOL    HW270789   1.756   1.221   5.821  0.0024 -2.5681  0.6255
22463SOL     OW70790   9.269   0.986   5.644 -0.0835  0.2787 -0.0591
22463SOL    HW170791   9.179   1.017   5.658 -0.0149  0.9878 -1.0989
22463SOL    HW270792   9.261   0.922   5.573  0.4316  1.5127 -1.2611
22464SOL     OW70793  10.020  10.527   3.284 -0.5172 -0.2488  0.1279
22464SOL    HW170794  10.106  10.551   3.318 -0.4335 -1.3807  0.7695
22464SOL    HW270795  10.013  10.573   3.200  0.2068  0.8053  0.6307
22465SOL     OW70796   2.012   9.879   5.461 -0.9212  0.3071  0.0854
22465SOL    HW170797   1.954   9.922   5.523 -0.1979  1.6799 -0.1458
22465SOL    HW270798   1.955   9.855   5.388 -1.4816  0.1769  0.5617
22466SOL     OW70799   3.847   9.498   0.541 -0.1926 -0.2870  0.3277
22466SOL    HW170800   3.912   9.496   0.471 -0.2183  1.4562  0.2070
22466SOL    HW270801   3.873   9.571   0.596 -0.6523 -1.1179  1.7032
22467SOL     OW70802   4.030   5.156   4.933  0.0457  0.1752  0.6082
22467SOL    HW170803   4.126   5.152   4.937  0.0566  0.1524  0.3378
22467SOL    HW270804   4.009   5.246   4.957  0.3794  1.4918 -3.3925
22468SOL     OW70805  10.733   9.715   3.761  0.1866  0.0517  0.2958
22468SOL    HW170806  10.733   9.802   3.722 -0.3595  0.2896  0.8117
22468SOL    HW270807  10.688   9.660   3.697  0.8405  0.0655 -0.1876
22469SOL     OW70808   0.429   0.292   4.439  0.1489 -0.4792  1.1174
22469SOL    HW170809   0.440   0.380   4.475 -1.2604  0.0357  0.3752
22469SOL    HW270810   0.384   0.243   4.508 -2.4539  0.4751  0.1949
22470SOL     OW70811  10.346   7.893   3.791  0.3187  0.1470 -0.3165
22470SOL    HW170812  10.281   7.941   3.843  0.9310  0.5651  0.0781
22470SOL    HW270813  10.429   7.936   3.811  1.1306 -1.9189  1.1017
22471SOL     OW70814   4.311   9.776   9.077  0.2542  0.2702 -0.8523
22471SOL    HW170815   4.332   9.782   9.170 -2.0299  0.5123 -0.3104
22471SOL    HW270816   4.252   9.849   9.060  0.8442  0.3961 -2.5797
22472SOL     OW70817   0.594   4.521   5.352  0.5443 -0.3210 -1.1716
22472SOL    HW170818   0.629   4.543   5.265  0.1195  2.1904 -0.7838
22472SOL    HW270819   0.643   4.576   5.412 -2.8073  2.1922 -0.4577
22473SOL     OW70820   5.585  10.780   9.383 -0.0503  0.6878  0.7043
22473SOL    HW170821   5.666  10.780   9.435  0.5449 -1.4145 -0.1391
22473SOL    HW270822   5.614  10.792   9.293  0.1009 -5.2105 -0.3991
22474SOL     OW70823   6.925  10.777   6.708 -0.1620 -0.0695 -0.3073
22474SOL    HW170824   6.875  10.777   6.627  1.3381 -0.4442 -1.2857
22474SOL    HW270825   6.902  10.859   6.751 -0.9239  0.1755 -1.1549
22475SOL     OW70826   8.273   7.234   2.845 -0.4537  0.3608 -0.6697
22475SOL    HW170827   8.194   7.220   2.792  0.3592 -0.5334 -1.6868
22475SOL    HW270828   8.270   7.164   2.910  0.1898 -0.5299 -1.5757
22476SOL     OW70829   9.434   6.861   0.096  0.0896 -0.5634  0.2522
22476SOL    HW170830   9.339   6.872   0.099  0.2133  1.1072 -0.6108
22476SOL    HW270831   9.447   6.769   0.074 -1.2594 -1.3961  2.5662
22477SOL     OW70832   8.244   7.824   4.089  0.0697  0.0921  0.2604
22477SOL    HW170833   8.279   7.746   4.131 -1.7041  0.0195  1.7221
22477SOL    HW270834   8.319   7.883   4.080  1.3426 -1.5569 -0.4535
22478SOL     OW70835   3.789   0.615   5.233 -0.3590  0.2637 -0.4745
22478SOL    HW170836   3.761   0.609   5.325 -1.3684  0.7045 -0.7472
22478SOL    HW270837   3.828   0.529   5.215  2.0866  0.9536  1.0594
22479SOL     OW70838   6.938  10.415   0.812  0.4856  0.2243 -0.2482
22479SOL    HW170839   7.002  10.346   0.799 -0.0646 -0.5306  0.8823
22479SOL    HW270840   6.878  10.406   0.737 -0.5592 -1.6742  0.7322
22480SOL     OW70841   3.489   1.151   2.747  0.1985 -0.6321  0.3586
22480SOL    HW170842   3.430   1.187   2.812  0.7104  0.0048  0.4867
22480SOL    HW270843   3.563   1.116   2.797  0.3132 -0.6836  0.1579
22481SOL     OW70844   0.365   8.798   9.576 -0.4162 -0.0168  0.1221
22481SOL    HW170845   0.329   8.728   9.523 -0.6206  1.0394 -1.1770
22481SOL    HW270846   0.443   8.760   9.617 -1.1289 -1.3131  0.3251
22482SOL     OW70847   2.811   9.865   4.476 -0.5075 -0.6939  0.2174
22482SOL    HW170848   2.796   9.882   4.383 -0.1028 -0.5835  0.1713
22482SOL    HW270849   2.834   9.951   4.512 -2.0808 -0.4508  0.7068
22483SOL     OW70850   9.964   2.106   5.836  0.8225 -0.2016 -0.2276
22483SOL    HW170851   9.881   2.122   5.880  1.5975 -0.7490  1.5541
22483SOL    HW270852  10.028   2.105   5.907  2.5608  1.4845 -1.6582
22484SOL     OW70853   1.239   8.688   7.897 -0.2439 -0.1711  0.4163
22484SOL    HW170854   1.235   8.779   7.925 -2.0457 -0.5656  1.6379
22484SOL    HW270855   1.330   8.674   7.872  0.2766  1.6801  1.1253
22485SOL     OW70856   1.645   1.151   0.649 -0.6290 -0.2150  0.2545
22485SOL    HW170857   1.554   1.122   0.653 -0.5658 -0.5090 -0.3783
22485SOL    HW270858   1.653   1.215   0.720 -0.9961 -1.0868  1.1074
22486SOL     OW70859   9.739   2.145   5.997  0.3981  0.2395 -0.1245
22486SOL    HW170860   9.746   2.056   6.030  1.3368  0.3359 -0.0301
22486SOL    HW270861   9.680   2.189   6.058  0.5346 -0.1156  0.2672
22487SOL     OW70862   6.813  10.174   1.601  0.2112 -0.0358 -0.0172
22487SOL    HW170863   6.741  10.183   1.664  1.6511  2.4006  1.4163
22487SOL    HW270864   6.866  10.103   1.636 -0.0230  0.0195  0.4626
22488SOL     OW70865  10.382   3.217   5.550  0.2775  0.2626 -0.6987
22488SOL    HW170866  10.436   3.241   5.475  0.0758 -1.6252 -1.5155
22488SOL    HW270867  10.383   3.121   5.551 -1.3631  0.2030  0.5039
22489SOL     OW70868   3.064   1.392   3.385 -0.0827  0.1355 -0.0075
22489SOL    HW170869   3.073   1.485   3.404 -1.3051  0.4756 -0.9435
22489SOL    HW270870   2.970   1.380   3.369  0.2203 -1.0088 -1.0767
22490SOL     OW70871   6.756  10.494   6.491 -0.1604  0.4161  0.6398
22490SOL    HW170872   6.786  10.575   6.451  0.4904  0.7280  1.7109
22490SOL    HW270873   6.688  10.521   6.552 -2.2661 -0.2227 -1.3100
22491SOL     OW70874   6.828   4.179   7.934  0.0833 -0.2169 -0.0651
22491SOL    HW170875   6.755   4.128   7.899  0.5199  0.1070 -1.5145
22491SOL    HW270876   6.847   4.139   8.019 -0.5789 -1.4786 -0.4868
22492SOL     OW70877   0.643   5.493   9.676  0.2949 -0.7607 -0.0072
22492SOL    HW170878   0.662   5.471   9.585  1.9275 -3.8457  0.9265
22492SOL    HW270879   0.554   5.461   9.691 -0.0874  0.0148 -0.5586
22493SOL     OW70880   3.660   4.723   2.055 -0.0823 -0.1973 -0.2109
22493SOL    HW170881   3.696   4.676   1.980  0.1369 -0.6641  0.1829
22493SOL    HW270882   3.669   4.662   2.128  1.1351  0.8278  0.5155
22494SOL     OW70883   1.405   7.829   4.528  0.3972  0.2602  0.2867
22494SOL    HW170884   1.323   7.800   4.567  1.1935 -1.4954  0.7546
22494SOL    HW270885   1.381   7.903   4.473 -1.8266 -1.4830 -1.2367
22495SOL     OW70886   2.461   2.317   1.852  1.1514  0.6542 -0.4112
22495SOL    HW170887   2.524   2.314   1.923  1.8884  1.1431 -1.0261
22495SOL    HW270888   2.442   2.225   1.832  1.0353  0.5155  0.3197
22496SOL     OW70889   7.436   4.396  10.271  0.4519 -0.2802  0.4849
22496SOL    HW170890   7.530   4.414  10.271  0.4408 -0.2069  0.9362
22496SOL    HW270891   7.411   4.399  10.364  0.1594 -1.1210  0.4452
22497SOL     OW70892   2.578   1.741   7.406 -0.8218 -0.2367  0.7122
22497SOL    HW170893   2.549   1.802   7.338  1.9077  0.0866 -0.3136
22497SOL    HW270894   2.641   1.792   7.458  0.3432 -1.6963  0.8004
22498SOL     OW70895   5.398   6.686   3.569  0.1238 -0.0685 -0.0411
22498SOL    HW170896   5.412   6.777   3.544 -0.4823 -0.3532 -1.4914
22498SOL    HW270897   5.466   6.637   3.522  1.9984 -0.1854  2.5628
22499SOL     OW70898   9.958   0.895   7.030 -0.2574  0.2026  0.1982
22499SOL    HW170899   9.869   0.869   7.006  0.6448 -2.6740 -0.3611
22499SOL    HW270900   9.952   0.913   7.124 -1.1383 -1.5283  0.5125
22500SOL     OW70901   8.843   7.965   1.580 -0.2533  0.2996  0.4800
22500SOL    HW170902   8.863   7.883   1.626 -0.6601  0.3542  0.7703
22500SOL    HW270903   8.832   7.939   1.489 -2.3498 -0.3457  0.8455
22501SOL     OW70904  10.784   4.399   3.425 -0.0864  0.3933  0.1147
22501SOL    HW170905  10.755   4.309   3.433  1.0437  0.0555  0.5984
22501SOL    HW270906  10.741   4.445   3.497 -0.5770  0.2283 -0.0702
22502SOL     OW70907   2.567   9.455   9.232  0.5968 -0.2293  0.0087
22502SOL    HW170908   2.510   9.532   9.238 -0.2820 -0.8252 -0.4058
22502SOL    HW270909   2.520   9.395   9.173  1.5855 -0.8069 -0.2222
22503SOL     OW70910   4.600   0.263   7.740  0.5713 -0.3044 -0.2197
22503SOL    HW170911   4.555   0.285   7.821  0.2853 -1.3590 -0.0825
22503SOL    HW270912   4.626   0.348   7.704 -1.3152  0.3544 -0.1856
22504SOL     OW70913   2.776  10.546   0.341 -0.1585 -0.5616 -0.2976
22504SOL    HW170914   2.867  10.519   0.327 -0.2198 -0.0248 -2.1012
22504SOL    HW270915   2.724  10.480   0.294 -0.6524 -0.4841  0.1345
22505SOL     OW70916   5.402   4.251  10.365 -0.4089  0.2835  0.1715
22505SOL    HW170917   5.483   4.257  10.314  0.2721  0.0791  1.1989
22505SOL    HW270918   5.355   4.178  10.326  1.7514 -2.2977  2.0181
22506SOL     OW70919   1.380   5.277   0.396 -0.3727 -0.8014  0.0450
22506SOL    HW170920   1.464   5.282   0.350 -0.6577 -1.4112 -0.5707
22506SOL    HW270921   1.315   5.267   0.326 -0.9800 -0.2248  0.5013
22507SOL     OW70922   2.572   4.550   7.423  0.3129 -0.0303 -0.3289
22507SOL    HW170923   2.505   4.510   7.478  1.6267 -1.0057  0.6211
22507SOL    HW270924   2.655   4.523   7.461  1.3336  3.0491 -0.0432
22508SOL     OW70925   9.296   1.936   5.527  0.0304  0.1275  0.1694
22508SOL    HW170926   9.344   2.017   5.511 -1.9600  1.5979  1.3393
22508SOL    HW270927   9.279   1.935   5.621 -1.6594 -0.6419 -0.0986
22509SOL     OW70928   3.309   4.701   5.254  0.0921  0.0551 -0.4024
22509SOL    HW170929   3.390   4.662   5.222 -0.2884 -0.0700 -1.2264
22509SOL    HW270930   3.251   4.627   5.268  0.3513  0.0648  0.9408
22510SOL     OW70931   2.428   8.197  10.105  0.7469 -1.2915 -0.0481
22510SOL    HW170932   2.457   8.161  10.021  1.9625 -0.8966  0.1949
22510SOL    HW270933   2.457   8.288  10.104 -1.8583 -0.3909 -0.4354
22511SOL     OW70934   9.430   5.585   6.046  0.3404  0.4224  0.1087
22511SOL    HW170935   9.386   5.509   6.085 -0.0567  0.0950 -0.9570
22511SOL    HW270936   9.481   5.548   5.973 -0.9758  1.3425 -1.3173
22512SOL     OW70937   1.553   6.046   2.971 -0.3012  0.1170 -0.0888
22512SOL    HW170938   1.540   6.041   3.066  0.6773 -1.1866  0.0074
22512SOL    HW270939   1.624   6.110   2.960 -0.7543  0.6399  0.0186
22513SOL     OW70940  10.106   6.512   5.457  0.1514 -0.1346 -0.3638
22513SOL    HW170941  10.166   6.447   5.421  0.0475  0.9977 -2.7632
22513SOL    HW270942  10.120   6.508   5.552  0.9142 -2.8476 -0.5227
22514SOL     OW70943   9.604  10.668   8.435  0.2003  0.3692  0.2360
22514SOL    HW170944   9.600  10.574   8.453 -0.1633  0.0073 -1.5109
22514SOL    HW270945   9.573  10.676   8.344  0.6756  2.1231  0.1942
22515SOL     OW70946   7.684   9.026   2.746  0.2173 -0.3054 -0.3568
22515SOL    HW170947   7.599   9.069   2.738 -0.1967 -0.5766  1.9634
22515SOL    HW270948   7.720   9.028   2.657 -1.6132  1.0059 -1.1354
22516SOL     OW70949   0.212   9.830   1.685  0.5355 -0.6648  0.1384
22516SOL    HW170950   0.271   9.824   1.760  0.7873  0.0172 -0.0049
22516SOL    HW270951   0.160   9.750   1.690  1.0708 -0.9923  0.6007
22517SOL     OW70952   0.639   8.994   6.396  0.4263 -0.0788  0.4036
22517SOL    HW170953   0.644   9.006   6.490  2.0032 -1.9212  0.6184
22517SOL    HW270954   0.553   8.953   6.381  1.1777 -2.1659  1.4100
22518SOL     OW70955   9.268  10.341   3.960  0.2330  0.0905  0.5918
22518SOL    HW170956   9.312  10.285   4.024  0.9473 -1.2044 -0.9706
22518SOL    HW270957   9.191  10.291   3.934 -0.0538  0.6102  0.4303
22519SOL     OW70958   8.952   1.864   6.889  0.3573 -0.1541 -0.4217
22519SOL    HW170959   8.997   1.858   6.973 -1.6613 -2.5420  0.6060
22519SOL    HW270960   9.011   1.819   6.828  0.8959 -0.2507  0.1528
22520SOL     OW70961   5.968   2.074   1.672  0.0949 -0.2620 -0.5089
22520SOL    HW170962   5.936   2.132   1.741 -1.4297 -0.9710 -0.5728
22520SOL    HW270963   5.890   2.054   1.620  0.8916 -1.0988 -1.4283
22521SOL     OW70964   1.906   7.995   2.659 -0.4049  0.1885 -0.0989
22521SOL    HW170965   1.848   8.005   2.735 -2.6645 -0.4690 -1.6490
22521SOL    HW270966   1.880   7.912   2.620  2.9416 -1.1338  0.1430
22522SOL     OW70967   2.251   6.157   6.121 -0.0725  0.6846  0.7419
22522SOL    HW170968   2.319   6.135   6.185 -0.0232 -0.3775  0.3386
22522SOL    HW270969   2.299   6.169   6.039 -0.2599  0.9848  0.6739
22523SOL     OW70970  10.738  10.660   8.922  0.2976 -0.0433 -0.6004
22523SOL    HW170971  10.672  10.612   8.873 -0.0719  1.1931 -1.3501
22523SOL    HW270972  10.770  10.597   8.986  0.7344 -1.6980 -2.3477
22524SOL     OW70973   9.397   5.636  10.240 -0.0098 -0.4588 -0.4617
22524SOL    HW170974   9.391   5.568  10.306 -0.1675  0.8423  0.9145
22524SOL    HW270975   9.490   5.642  10.220 -0.0206 -1.2181 -0.7756
22525SOL     OW70976   3.570   4.234   7.618 -0.2477 -0.0176  0.4930
22525SOL    HW170977   3.555   4.327   7.639 -1.9357 -0.0551 -0.3468
22525SOL    HW270978   3.662   4.219   7.641  0.0160  1.8082  0.8397
22526SOL     OW70979   1.447   3.898   4.181 -0.3466  0.1634  0.0517
22526SOL    HW170980   1.455   3.804   4.200 -1.6299 -0.0258 -0.2465
22526SOL    HW270981   1.488   3.908   4.095 -0.7288 -0.2395 -0.1807
22527SOL     OW70982   6.172   0.361   6.702  0.3888 -0.3940  0.3329
22527SOL    HW170983   6.180   0.324   6.614 -0.4429 -0.1951  0.1571
22527SOL    HW270984   6.117   0.299   6.749 -0.3468  0.1908  0.2735
22528SOL     OW70985   1.996   5.264   7.913  0.2944  0.1330 -0.2933
22528SOL    HW170986   1.978   5.338   7.855  0.4624 -0.2804 -0.8919
22528SOL    HW270987   2.074   5.223   7.875 -0.4109 -0.9677 -0.5983
22529SOL     OW70988   4.916   9.102   2.447 -0.1188  0.1486  0.1589
22529SOL    HW170989   4.941   9.063   2.530  2.4445  1.4838  0.1064
22529SOL    HW270990   4.862   9.177   2.471 -2.1391 -1.2975  0.3968
22530SOL     OW70991   9.820   7.689   4.206 -0.1930  0.0874 -0.2523
22530SOL    HW170992   9.779   7.683   4.120  0.3013  0.5171 -0.5222
22530SOL    HW270993   9.911   7.666   4.191 -0.3514 -1.0720  0.3805
22531SOL     OW70994   1.074   6.091   0.721  0.4116 -0.0621 -0.4377
22531SOL    HW170995   1.094   6.183   0.742  0.7044 -0.0538 -0.7473
22531SOL    HW270996   1.105   6.080   0.631 -2.9140  0.5680 -1.8271
22532SOL     OW70997   2.261   0.234   0.735 -0.0626  0.8171  0.1208
22532SOL    HW170998   2.244   0.239   0.829  1.2749  1.2746  0.3525
22532SOL    HW270999   2.277   0.142   0.718 -0.0889  0.7637  0.3818
22533SOL     OW71000   0.577   9.904   4.302  0.3486  0.7454 -0.2302
22533SOL    HW171001   0.663   9.940   4.284  0.6086  0.7165  0.8614
22533SOL    HW271002   0.586   9.810   4.287  0.4906  0.7509 -0.1752
22534SOL     OW71003   8.673   1.520   4.801 -0.0781  0.6350 -0.3946
22534SOL    HW171004   8.668   1.424   4.798 -1.9429  0.7005 -0.9662
22534SOL    HW271005   8.688   1.540   4.893 -0.7353 -0.1965 -0.0932
22535SOL     OW71006   0.287  10.285  10.861  0.0167  0.8703  0.4742
22535SOL    HW171007   0.227  10.333  10.804  0.3280  0.8988  0.1695
22535SOL    HW271008   0.232  10.219  10.903 -0.0177  0.1403 -0.6740
22536SOL     OW71009   6.683   3.667   5.425 -0.4269 -0.5892  0.1899
22536SOL    HW171010   6.760   3.612   5.441  0.4425  0.4654 -0.1699
22536SOL    HW271011   6.638   3.625   5.352  0.9197 -0.1868 -0.9393
22537SOL     OW71012   5.738   7.116   9.920 -0.7398  0.2696  0.1390
22537SOL    HW171013   5.754   7.038   9.866 -0.9420 -0.7621  1.5206
22537SOL    HW271014   5.796   7.105   9.995 -1.9285  0.6415  1.1387
22538SOL     OW71015   6.193   3.443   4.998 -0.7992 -0.5770  0.1453
22538SOL    HW171016   6.234   3.479   5.077 -0.9321 -0.4242  0.1427
22538SOL    HW271017   6.160   3.357   5.026  0.8343 -1.3743 -0.2227
22539SOL     OW71018   8.528   3.111   2.588  0.1902  0.7916 -0.4768
22539SOL    HW171019   8.475   3.045   2.543  0.5842 -0.0132  0.2142
22539SOL    HW271020   8.505   3.193   2.545 -0.8061  0.3028 -0.9132
22540SOL     OW71021   2.766   0.679   6.993  0.2970 -0.1927 -0.1245
22540SOL    HW171022   2.742   0.686   7.085  0.7849  0.5777 -0.0507
22540SOL    HW271023   2.698   0.727   6.947 -0.1742 -0.9201 -0.2177
22541SOL     OW71024   9.813   5.507   8.039  0.1463  0.6829  0.0470
22541SOL    HW171025   9.872   5.570   7.997  1.1457 -0.3642 -0.1358
22541SOL    HW271026   9.864   5.468   8.109 -0.5108  0.1693  0.2500
22542SOL     OW71027   3.271   6.197   7.481  0.3737 -0.5123  0.2811
22542SOL    HW171028   3.211   6.129   7.450  0.0467 -0.7983  1.5150
22542SOL    HW271029   3.217   6.274   7.492  0.4782 -0.4323  0.2398
22543SOL     OW71030   8.894   5.636   8.425  0.1189  0.0608  0.4253
22543SOL    HW171031   8.848   5.632   8.341 -0.9955  0.1621  1.0040
22543SOL    HW271032   8.833   5.682   8.483  1.1232  0.5468  1.1306
22544SOL     OW71033   4.975   8.269   3.406 -0.0090  0.5672 -0.2095
22544SOL    HW171034   5.011   8.187   3.371 -0.5504  0.0096  0.5015
22544SOL    HW271035   4.980   8.330   3.333  0.6247 -0.0305 -0.6844
22545SOL     OW71036   2.333   0.499   8.663  0.1742  0.7127  0.3813
22545SOL    HW171037   2.388   0.572   8.635  1.7589 -0.1573  1.0517
22545SOL    HW271038   2.260   0.497   8.601  2.8910 -0.4667 -3.1247
22546SOL     OW71039   4.171   3.037   9.322  0.3879 -0.0743  0.2705
22546SOL    HW171040   4.133   2.957   9.359 -1.0443  0.8642  0.9190
22546SOL    HW271041   4.265   3.025   9.331  0.2494 -2.0436 -0.4171
22547SOL     OW71042   2.968   8.951   3.635  0.6499 -0.0080  0.4259
22547SOL    HW171043   2.918   8.947   3.716  1.2908 -0.7967  0.8044
22547SOL    HW271044   3.053   8.988   3.661  0.5762  0.5049 -0.0417
22548SOL     OW71045   4.769   0.966   5.338 -0.2692 -0.1759 -0.3249
22548SOL    HW171046   4.691   1.020   5.326 -1.7762 -2.0660  0.4535
22548SOL    HW271047   4.817   1.007   5.410 -1.5318 -0.0236  0.4440
22549SOL     OW71048   7.610  10.813   9.196  0.1459  0.4060 -0.1895
22549SOL    HW171049   7.621  10.842   9.106  0.1905 -1.1942 -0.7343
22549SOL    HW271050   7.689  10.843   9.240 -0.0840  1.6022 -0.5469
22550SOL     OW71051   1.159   3.072   9.730 -0.2566  0.2899  0.0925
22550SOL    HW171052   1.197   3.014   9.664  0.5732  0.7328  0.1673
22550SOL    HW271053   1.178   3.161   9.697 -0.2028  0.5138  0.7171
22551SOL     OW71054   4.723   4.614   8.083 -0.1377  0.2752 -0.0156
22551SOL    HW171055   4.660   4.685   8.084 -0.2057  0.2074  0.8521
22551SOL    HW271056   4.795   4.644   8.138  0.9034  0.6197 -1.4939
22552SOL     OW71057   0.947   0.522   1.291 -0.1502  0.0908  0.6886
22552SOL    HW171058   0.905   0.485   1.369 -0.7239 -2.6553 -0.8062
22552SOL    HW271059   0.879   0.516   1.223 -0.1063  3.5956  0.1652
22553SOL     OW71060   5.208   8.131   8.995  0.2157 -0.2016  0.4217
22553SOL    HW171061   5.201   8.037   8.983 -0.1862 -0.3003  1.3432
22553SOL    HW271062   5.275   8.142   9.063  0.3259  0.1843  0.2580
22554SOL     OW71063   0.504   2.601   7.561  0.2168  0.0588 -0.6331
22554SOL    HW171064   0.557   2.605   7.481 -1.5561 -0.8915 -1.9218
22554SOL    HW271065   0.422   2.646   7.538  0.5959  2.0676  1.5076
22555SOL     OW71066   5.899   9.679   9.884 -0.2745  0.2330 -0.7164
22555SOL    HW171067   5.841   9.682   9.960 -0.9087  0.8671 -1.2142
22555SOL    HW271068   5.881   9.594   9.844 -2.5483  1.2583 -2.1168
22556SOL     OW71069   3.121   9.591   4.563 -0.2348 -1.0805  0.2695
22556SOL    HW171070   3.211   9.563   4.547  0.4685  1.0773  0.1857
22556SOL    HW271071   3.127   9.652   4.636 -1.8407 -1.8928  1.1397
22557SOL     OW71072   9.244   6.588   9.410 -0.2860 -0.0790  0.5449
22557SOL    HW171073   9.243   6.640   9.330  0.0117 -0.2390  0.4368
22557SOL    HW271074   9.317   6.527   9.399 -0.3159 -0.1812  0.8871
22558SOL     OW71075   8.632   5.730   4.143  0.1344 -0.1691  0.0057
22558SOL    HW171076   8.681   5.783   4.081 -1.8395  1.7881 -0.0228
22558SOL    HW271077   8.549   5.777   4.154 -1.0860 -2.4326  1.2571
22559SOL     OW71078   8.774   3.141   5.322  0.6690 -0.0641  0.2585
22559SOL    HW171079   8.804   3.051   5.339  1.3069  0.3359  1.3210
22559SOL    HW271080   8.762   3.144   5.227 -1.2136 -1.8370  0.3634
22560SOL     OW71081   7.299   9.650   7.282  0.3391 -0.3704  0.0548
22560SOL    HW171082   7.239   9.623   7.352  0.7089 -1.4627 -0.0285
22560SOL    HW271083   7.386   9.646   7.322  0.3767  1.3608  0.2206
22561SOL     OW71084   1.889   2.076   0.316  0.2419  0.2504 -0.1378
22561SOL    HW171085   1.835   2.081   0.395 -0.0203 -1.7665 -0.1507
22561SOL    HW271086   1.828   2.092   0.244  0.3514  1.3945 -0.0006
22562SOL     OW71087  10.078   8.899   9.490 -0.2090 -0.1096  0.6091
22562SOL    HW171088  10.093   8.819   9.541 -0.3169 -0.0218  0.7783
22562SOL    HW271089  10.054   8.965   9.555  0.0555  0.1059  0.4899
22563SOL     OW71090   3.250   6.886   9.973  0.5688  0.1727 -0.6793
22563SOL    HW171091   3.343   6.898   9.992  0.1251  2.8333  0.3234
22563SOL    HW271092   3.205   6.944  10.035 -1.7994 -1.2071 -0.9705
22564SOL     OW71093   9.082   3.931   3.200 -0.1180  0.1415 -0.4544
22564SOL    HW171094   9.107   3.861   3.140 -1.4623 -0.0267 -0.8335
22564SOL    HW271095   9.152   3.933   3.266  1.6420  0.6510 -2.2621
22565SOL     OW71096  10.376   2.395   7.703 -0.1749 -0.4849 -0.6171
22565SOL    HW171097  10.317   2.411   7.777  0.1021 -0.3053 -0.4354
22565SOL    HW271098  10.356   2.465   7.641 -0.0846 -0.3710 -0.5158
22566SOL     OW71099   1.081   2.562   1.873  0.4118  0.5824  0.5514
22566SOL    HW171100   1.003   2.534   1.826  1.3182  0.0553 -0.6965
22566SOL    HW271101   1.070   2.528   1.962 -0.6679  0.3445  0.3338
22567SOL     OW71102   5.477  10.110   8.528 -0.0400  0.5532  0.3468
22567SOL    HW171103   5.432  10.158   8.598 -1.8792 -0.7787  0.1620
22567SOL    HW271104   5.475  10.019   8.556 -0.7638 -0.0062 -1.3580
22568SOL     OW71105  10.135   7.488   3.313  0.1474  0.6770 -0.3230
22568SOL    HW171106  10.051   7.453   3.341  0.7503 -0.4454  0.1767
22568SOL    HW271107  10.185   7.410   3.286  0.8498  1.3754 -1.0731
22569SOL     OW71108   4.550   2.344   1.244 -0.0657 -0.0287  0.3915
22569SOL    HW171109   4.602   2.374   1.319 -0.1566 -0.0589  0.4678
22569SOL    HW271110   4.603   2.364   1.168 -1.0750  2.4073  0.2623
22570SOL     OW71111   9.608   4.920   6.184  0.0739 -0.1323  0.2223
22570SOL    HW171112   9.577   4.844   6.137 -0.6748  1.3385 -1.7796
22570SOL    HW271113   9.670   4.962   6.124  1.3603  0.2391  1.7381
22571SOL     OW71114   4.545  10.760   6.710 -0.4841 -0.1269  0.1716
22571SOL    HW171115   4.611  10.790   6.647  0.3902 -1.1098  0.5963
22571SOL    HW271116   4.509  10.680   6.671 -3.2711  1.6759 -1.2686
22572SOL     OW71117   3.990   8.540   4.749  0.5342  0.5027  0.3168
22572SOL    HW171118   3.902   8.563   4.721  0.5559 -0.2036 -0.3657
22572SOL    HW271119   4.036   8.519   4.668  1.1626  0.2961  0.7190
22573SOL     OW71120  10.709   1.454   0.532  0.0228  0.3188 -0.1338
22573SOL    HW171121  10.721   1.547   0.553  1.7676  0.3976 -1.2220
22573SOL    HW271122  10.671   1.416   0.610 -0.5352  1.9162  0.4101
22574SOL     OW71123   4.116   4.255   4.564 -0.1835  0.1720  0.0266
22574SOL    HW171124   4.107   4.163   4.543 -0.7689 -0.0623  1.2606
22574SOL    HW271125   4.188   4.259   4.627 -1.4475  0.3039  1.5032
22575SOL     OW71126   2.383   8.500   5.430 -0.6835 -0.1639  0.7293
22575SOL    HW171127   2.372   8.432   5.363 -1.4133 -0.7682  1.4468
22575SOL    HW271128   2.315   8.564   5.410 -2.0743 -1.1992  1.8861
22576SOL     OW71129   8.806   5.122   2.505  0.0690 -0.1650 -1.1329
22576SOL    HW171130   8.738   5.056   2.492 -1.4695  0.9177  0.9305
22576SOL    HW271131   8.781   5.194   2.447 -0.0898 -0.0802 -0.9580
22577SOL     OW71132   3.849   1.541   3.395 -0.0483 -0.1464  0.4411
22577SOL    HW171133   3.935   1.572   3.367  0.8299 -2.8100 -0.1989
22577SOL    HW271134   3.792   1.556   3.319 -0.0221  1.1084  0.6597
22578SOL     OW71135  10.595   0.118   2.248  0.1547  0.1703  0.0790
22578SOL    HW171136  10.563   0.176   2.179  1.1688  0.3032 -0.2847
22578SOL    HW271137  10.517   0.100   2.301 -0.2166  1.7330  0.1165
22579SOL     OW71138   4.880   0.275   5.775 -0.1466  0.4343  0.4188
22579SOL    HW171139   4.846   0.365   5.780  0.6612  0.8143 -0.6577
22579SOL    HW271140   4.930   0.264   5.857  2.8647  2.3187 -0.9983
22580SOL     OW71141   7.082   5.968   1.917 -0.0523 -0.1595 -0.4584
22580SOL    HW171142   7.130   6.041   1.956  0.1537 -1.0129  0.9572
22580SOL    HW271143   7.113   5.965   1.827  0.8123  0.7707 -0.2166
22581SOL     OW71144   6.198   5.019   0.186  0.5422  0.9903  0.4714
22581SOL    HW171145   6.232   4.940   0.228  0.9105  0.8451 -0.1049
22581SOL    HW271146   6.244   5.091   0.230  2.0682  0.7705 -0.7212
22582SOL     OW71147   8.219   5.614   8.353 -0.1740 -0.3460 -0.3100
22582SOL    HW171148   8.209   5.519   8.354 -4.4913 -0.1024  1.4807
22582SOL    HW271149   8.239   5.637   8.444  2.3726  0.4953 -0.9981
22583SOL     OW71150   7.038   0.146   8.080  0.1334  0.6416 -0.2304
22583SOL    HW171151   7.021   0.143   8.174  0.3785 -1.6588 -0.2021
22583SOL    HW271152   7.130   0.121   8.071 -0.0431  0.2665 -1.1048
22584SOL     OW71153   8.747   2.686   9.862  0.4177 -0.0712 -0.4351
22584SOL    HW171154   8.693   2.698   9.940  0.0263  0.6119 -0.8016
22584SOL    HW271155   8.768   2.593   9.861 -0.3879 -0.2657 -0.0400
22585SOL     OW71156  10.734   7.291  10.099  0.3753  0.3331 -0.1911
22585SOL    HW171157  10.729   7.221  10.033  0.4748  1.9667 -2.0301
22585SOL    HW271158  10.827   7.305  10.112  0.3580  0.4464 -0.1882
22586SOL     OW71159   5.152   3.557   8.521 -0.2818  0.0719 -0.0278
22586SOL    HW171160   5.188   3.616   8.455  3.3377 -1.2127  0.5352
22586SOL    HW271161   5.116   3.484   8.471  0.5916  0.0484 -0.6322
22587SOL     OW71162   7.798   2.083   0.640  0.6157 -0.1335 -0.0735
22587SOL    HW171163   7.821   2.138   0.565 -1.1633  0.4051 -0.2717
22587SOL    HW271164   7.714   2.118   0.671  1.1755 -0.4882  2.0364
22588SOL     OW71165   7.839   2.869   8.600  0.0774  0.3851 -0.1847
22588SOL    HW171166   7.765   2.809   8.593  2.0024 -2.1312 -0.4215
22588SOL    HW271167   7.879   2.868   8.513  0.2166  1.9976 -0.1757
22589SOL     OW71168   8.270   3.077   6.884 -0.4048  0.5466  0.1570
22589SOL    HW171169   8.337   3.132   6.924 -0.0044  0.6509 -0.6590
22589SOL    HW271170   8.206   3.063   6.955  0.6892  0.0601  1.0841
22590SOL     OW71171  10.417   7.770  10.112  0.5352 -0.4299 -0.0022
22590SOL    HW171172  10.332   7.735  10.086  0.0342 -0.5506  1.6912
22590SOL    HW271173  10.476   7.695  10.106  0.4100 -0.4880 -0.6186
22591SOL     OW71174   7.879   8.529   8.390 -0.8201  0.0217  0.0191
22591SOL    HW171175   7.888   8.608   8.443  0.3833  1.1237 -1.7159
22591SOL    HW271176   7.850   8.561   8.305  0.7353 -1.2574 -1.0452
22592SOL     OW71177   1.714   2.741   3.365  0.4177 -0.3212 -0.2727
22592SOL    HW171178   1.703   2.785   3.449  0.3957 -0.5668 -0.1472
22592SOL    HW271179   1.797   2.774   3.332  1.5161 -1.8342  0.8341
22593SOL     OW71180   0.189   4.410   4.364 -0.3297  0.0021  0.2075
22593SOL    HW171181   0.179   4.319   4.391 -1.4713  0.5209  1.6308
22593SOL    HW271182   0.100   4.442   4.354  0.0472  1.2120  0.5835
22594SOL     OW71183   6.616   2.148   6.662 -0.4516 -0.0268  0.0207
22594SOL    HW171184   6.682   2.120   6.599 -1.0922  0.8582 -1.0837
22594SOL    HW271185   6.654   2.225   6.705 -0.0540 -0.5735  0.6672
22595SOL     OW71186   0.906   8.169   8.133 -0.6992  0.1527  0.0897
22595SOL    HW171187   0.829   8.225   8.146 -1.3700  0.1938 -3.1905
22595SOL    HW271188   0.934   8.187   8.043  1.5104 -1.8818  0.2681
22596SOL     OW71189   1.846   8.647   5.819  0.3391 -0.1606 -0.1733
22596SOL    HW171190   1.840   8.724   5.875 -0.7182 -0.3982  0.0595
22596SOL    HW271191   1.768   8.652   5.763 -0.7540 -1.9894  1.0726
22597SOL     OW71192   1.791   0.313   1.186  1.0187 -0.2184  0.4343
22597SOL    HW171193   1.804   0.351   1.273 -0.5704  1.6371 -0.0752
22597SOL    HW271194   1.754   0.226   1.203  2.2114 -0.5377  1.5972
22598SOL     OW71195   8.559   1.031   1.639 -0.3905 -0.3479  0.4162
22598SOL    HW171196   8.571   1.119   1.675  1.3741 -0.2066 -0.3948
22598SOL    HW271197   8.623   0.977   1.685 -1.4616 -1.2321  0.9069
22599SOL     OW71198   5.635   9.795   8.403  0.1092  0.5142 -0.6363
22599SOL    HW171199   5.722   9.764   8.380  0.5135  2.5393 -2.1394
22599SOL    HW271200   5.612   9.857   8.334 -1.2389  2.3411  1.3013
22600SOL     OW71201   8.792   9.599   3.460 -0.2316  0.0295 -0.2259
22600SOL    HW171202   8.781   9.563   3.371  1.4643 -0.0056 -0.4444
22600SOL    HW271203   8.781   9.693   3.449 -2.4182 -0.1294 -0.0241
22601SOL     OW71204  10.882   0.062   0.314 -0.2654 -0.6574  0.1226
22601SOL    HW171205  10.814   0.041   0.251  0.1163  1.8767 -1.2502
22601SOL    HW271206  10.953   0.001   0.295 -0.9342 -1.2425 -0.5244
22602SOL     OW71207   2.035   8.398   7.945  0.6420  0.6954 -0.0408
22602SOL    HW171208   2.067   8.418   8.033 -3.2761  0.0268  1.7298
22602SOL    HW271209   2.011   8.306   7.948 -0.6861  0.9503 -1.3806
22603SOL     OW71210   7.040   2.980   1.390  0.4176  0.2986 -0.2718
22603SOL    HW171211   6.972   2.980   1.323  0.4761 -1.3874 -0.3701
22603SOL    HW271212   7.066   3.072   1.398 -2.6754  1.2336  0.6150
22604SOL     OW71213   0.187   8.170   5.288 -0.5881 -0.1919  0.1356
22604SOL    HW171214   0.112   8.116   5.314 -1.9652  0.5757 -1.9850
22604SOL    HW271215   0.156   8.260   5.296  0.6677  0.2202  0.7019
22605SOL     OW71216   7.730  10.211   6.896  0.6072 -0.3022  0.1304
22605SOL    HW171217   7.675  10.272   6.846 -1.0342 -1.6353  0.2078
22605SOL    HW271218   7.732  10.248   6.984 -0.6994 -0.5152  0.2706
22606SOL     OW71219   1.875   4.630   5.542 -0.0796 -0.2791  0.0727
22606SOL    HW171220   1.925   4.594   5.615  1.5039 -1.0983 -1.3500
22606SOL    HW271221   1.804   4.567   5.527 -0.2948 -0.2019  0.7650
22607SOL     OW71222   3.801   1.260   2.461 -0.0385  0.6061 -0.3884
22607SOL    HW171223   3.865   1.189   2.463 -0.7051 -0.0651 -1.7808
22607SOL    HW271224   3.775   1.267   2.369 -1.6915  1.1127  0.0865
22608SOL     OW71225   6.421   5.646   8.635 -0.2415  0.3265 -0.3795
22608SOL    HW171226   6.404   5.572   8.576 -0.8731  0.7121 -0.6906
22608SOL    HW271227   6.415   5.723   8.579 -2.6634  0.8505  0.4734
22609SOL     OW71228   4.234   7.851   4.416 -0.0078  0.4847 -0.4031
22609SOL    HW171229   4.284   7.784   4.371  0.0734  1.0090 -1.1130
22609SOL    HW271230   4.143   7.831   4.395 -0.0979 -0.3142  0.6726
22610SOL     OW71231   7.387   3.031   9.078 -0.0289 -0.5729 -0.1949
22610SOL    HW171232   7.364   2.975   9.152 -1.8153  1.6696  1.0745
22610SOL    HW271233   7.336   2.996   9.005  0.6044 -1.9085 -0.0299
22611SOL     OW71234   0.883   8.044  10.012  0.1263 -0.4672  0.2532
22611SOL    HW171235   0.805   7.991  10.000  0.4687 -1.0042  0.3353
22611SOL    HW271236   0.872   8.084  10.099 -0.0270 -0.5959  0.2924
22612SOL     OW71237   8.500   1.633   5.600 -0.8390 -0.2371 -0.3235
22612SOL    HW171238   8.579   1.620   5.652 -0.2689  0.1932 -1.0690
22612SOL    HW271239   8.458   1.547   5.597 -2.0009  0.0853  2.5671
22613SOL     OW71240   2.447   4.876   4.588  0.0553 -0.0160 -0.2422
22613SOL    HW171241   2.449   4.818   4.512  0.1881 -0.6566  0.2439
22613SOL    HW271242   2.368   4.929   4.575  1.0269  1.1600 -1.7456
22614SOL     OW71243   6.190   3.115   0.427  0.2289 -0.2513  0.2505
22614SOL    HW171244   6.134   3.191   0.446 -0.4093 -1.2984  3.0881
22614SOL    HW271245   6.141   3.040   0.461  0.8283 -2.0270 -2.4786
22615SOL     OW71246   0.516   0.612   8.629 -0.1978  0.5478 -0.1578
22615SOL    HW171247   0.533   0.706   8.620 -3.1620  1.3998  1.7737
22615SOL    HW271248   0.556   0.588   8.712 -1.6741  0.7895  0.6570
22616SOL     OW71249   7.965   6.835   4.539  0.6642 -0.2426 -0.3960
22616SOL    HW171250   7.972   6.916   4.489 -0.8359  0.4435  0.4681
22616SOL    HW271251   7.873   6.829   4.563  1.0002 -1.5297  0.6740
22617SOL     OW71252   7.548   4.165   7.755  0.4770  0.4201 -0.3506
22617SOL    HW171253   7.571   4.090   7.700 -0.7541  0.2735 -0.6859
22617SOL    HW271254   7.595   4.239   7.716  1.2451 -0.0620 -0.3544
22618SOL     OW71255   1.483   7.317   2.210 -0.0510  0.5855  0.8210
22618SOL    HW171256   1.411   7.378   2.195  0.2809  1.1193  1.3435
22618SOL    HW271257   1.441   7.233   2.226 -0.4953  0.5028 -0.6533
22619SOL     OW71258  10.847   4.540   4.374  0.4289  0.1529 -0.2753
22619SOL    HW171259  10.789   4.556   4.448  1.6641 -0.8224  0.9651
22619SOL    HW271260  10.791   4.499   4.308 -0.5462  0.3820  0.3930
22620SOL     OW71261   0.461   6.573   1.665 -0.1499  0.0451 -0.1007
22620SOL    HW171262   0.416   6.504   1.616 -0.3156 -0.8330  1.2264
22620SOL    HW271263   0.399   6.599   1.732  0.3580  0.6483  0.1456
22621SOL     OW71264   5.862   9.393   6.209 -0.4733 -0.0811  0.7747
22621SOL    HW171265   5.839   9.442   6.130  1.0164 -1.3187 -0.5067
22621SOL    HW271266   5.813   9.311   6.202  1.9018 -1.5380 -0.5709
22622SOL     OW71267  10.522   3.057   9.286 -0.3747 -0.3956  0.0265
22622SOL    HW171268  10.604   3.009   9.275 -0.9118 -1.6652  1.2577
22622SOL    HW271269  10.548   3.149   9.278  1.5513 -0.6394  2.2531
22623SOL     OW71270   7.104   8.639  10.384  0.4517 -0.1120  0.0531
22623SOL    HW171271   7.132   8.551  10.409  0.6785  0.0700  0.4474
22623SOL    HW271272   7.185   8.690  10.383  0.2751  0.1733  0.1690
22624SOL     OW71273   2.788   7.131   2.671  0.2484 -0.4065 -0.3568
22624SOL    HW171274   2.880   7.125   2.648  0.5427 -0.4788  0.7886
22624SOL    HW271275   2.786   7.119   2.766 -0.8068  0.8715 -0.1852
22625SOL     OW71276   5.822   1.383   5.755 -0.1101  0.6916  0.4559
22625SOL    HW171277   5.880   1.399   5.681  0.5169 -0.1340  0.7569
22625SOL    HW271278   5.743   1.434   5.735  0.3318  1.0483 -0.4240
22626SOL     OW71279   4.510   8.713   5.304  0.2685 -0.2437  0.1130
22626SOL    HW171280   4.449   8.686   5.372  0.6714  0.4465  0.7631
22626SOL    HW271281   4.485   8.661   5.228 -1.2639  0.1780  0.2958
22627SOL     OW71282   8.123   7.326   8.077 -0.1858 -0.2166  0.3454
22627SOL    HW171283   8.143   7.412   8.041 -1.0057 -0.5192 -0.9246
22627SOL    HW271284   8.027   7.325   8.085 -0.5459 -2.0295 -2.6096
22628SOL     OW71285   7.246   2.646   3.653  0.2692 -0.1762  0.8691
22628SOL    HW171286   7.272   2.587   3.582 -0.2970  0.1634  0.3634
22628SOL    HW271287   7.254   2.734   3.616  0.1858  0.0195  1.3022
22629SOL     OW71288   5.581   5.035   1.237  0.4646 -0.0173  0.1569
22629SOL    HW171289   5.497   5.024   1.281  0.9197 -1.7625  0.6577
22629SOL    HW271290   5.615   5.119   1.269 -0.9908  0.6357  0.0596
22630SOL     OW71291   8.295   6.927   2.865  0.0977 -0.2649  0.1947
22630SOL    HW171292   8.362   6.912   2.799 -0.4411  0.9624 -0.6669
22630SOL    HW271293   8.344   6.936   2.947  0.9887  0.4564 -0.3943
22631SOL     OW71294   9.168  10.743   3.532 -0.1691 -0.4114 -0.2036
22631SOL    HW171295   9.250  10.694   3.538 -1.3027 -2.2243  1.6273
22631SOL    HW271296   9.100  10.678   3.548 -1.9283  1.2560 -0.5560
22632SOL     OW71297   2.930   0.598   6.128  0.3223 -0.2304  0.4796
22632SOL    HW171298   2.844   0.635   6.145  0.3027  0.4621 -1.0060
22632SOL    HW271299   2.990   0.671   6.136  0.4578 -0.1548 -0.9973
22633SOL     OW71300   0.666   8.815   4.770  0.2171  0.2464 -0.0481
22633SOL    HW171301   0.693   8.862   4.691 -1.2140  1.1502 -0.0273
22633SOL    HW271302   0.608   8.746   4.738  0.8729 -0.3856  0.0947
22634SOL     OW71303   8.384   0.803   0.907  0.2346  0.5910  0.1113
22634SOL    HW171304   8.432   0.883   0.928  1.2075  0.5089 -1.6129
22634SOL    HW271305   8.442   0.733   0.936  0.1475  0.5017  0.0710
22635SOL     OW71306   1.205   1.247   8.706  0.3301  0.1378 -0.3230
22635SOL    HW171307   1.210   1.160   8.666  0.4557  0.5689 -1.2915
22635SOL    HW271308   1.188   1.305   8.632  2.4973  1.2018 -0.0765
22636SOL     OW71309   2.119   9.493  10.382  0.4245 -0.3565 -0.2448
22636SOL    HW171310   2.115   9.399  10.363 -0.0671 -0.3539 -0.1608
22636SOL    HW271311   2.211   9.508  10.404  0.2188 -1.1155  1.2638
22637SOL     OW71312   3.440   2.014   7.373 -0.1260  0.8942 -1.0780
22637SOL    HW171313   3.485   2.089   7.335 -0.7804  1.4906 -0.7019
22637SOL    HW271314   3.438   2.033   7.467 -0.4008  0.4632 -0.9953
22638SOL     OW71315   7.334   6.902   3.229  0.0368 -0.3082  0.4339
22638SOL    HW171316   7.363   6.985   3.266 -0.1152 -0.4609  0.9035
22638SOL    HW271317   7.390   6.836   3.271  0.4367 -0.4085 -0.2439
22639SOL     OW71318  10.782   9.167   1.775 -0.1596  0.3540  0.0473
22639SOL    HW171319  10.775   9.135   1.865  2.2842  2.3360  1.0753
22639SOL    HW271320  10.868   9.138   1.745 -0.8515 -0.1188 -1.6291
22640SOL     OW71321  10.565   1.705   9.379 -0.3066 -0.2711  0.4084
22640SOL    HW171322  10.535   1.716   9.289 -1.3523  0.1121  0.7935
22640SOL    HW271323  10.484   1.697   9.430  0.2386  0.8191  1.4780
22641SOL     OW71324   3.656   5.689   7.957 -0.3790 -0.1803  0.2809
22641SOL    HW171325   3.597   5.666   7.885 -1.1450  1.6105  0.2900
22641SOL    HW271326   3.717   5.752   7.920  1.8435 -2.2592  0.1864
22642SOL     OW71327   2.715   2.517   6.394 -0.4700  0.1966  0.0379
22642SOL    HW171328   2.626   2.483   6.404 -0.4645  0.1484 -0.0826
22642SOL    HW271329   2.718   2.551   6.305 -0.7039  1.1710  0.3876
22643SOL     OW71330   9.008  10.573   9.136 -0.1022  0.4570 -0.0125
22643SOL    HW171331   8.917  10.563   9.109 -0.5179 -0.0988  1.4768
22643SOL    HW271332   9.031  10.663   9.113 -1.7497  1.3440  1.5614
22644SOL     OW71333   1.415  10.315   1.289  0.0846 -0.1781  0.0921
22644SOL    HW171334   1.387  10.275   1.372 -0.3086  0.4397  0.2647
22644SOL    HW271335   1.504  10.345   1.306 -0.1473  0.3349  0.4390
22645SOL     OW71336   4.587  10.027   4.936 -0.2723  0.1679 -0.5484
22645SOL    HW171337   4.610  10.112   4.897  1.6345 -0.3139 -0.5654
22645SOL    HW271338   4.597  10.041   5.030 -0.5821  0.1369 -0.5117
22646SOL     OW71339   0.488  10.415   5.396  0.0854  0.0569  0.1769
22646SOL    HW171340   0.444  10.352   5.338 -1.4049 -0.3107  1.6402
22646SOL    HW271341   0.466  10.385   5.484 -0.0839  2.2386  0.9155
22647SOL     OW71342   3.437   3.168   4.165  0.3138  0.2461 -0.4718
22647SOL    HW171343   3.525   3.200   4.182  0.3626  0.1544 -0.5524
22647SOL    HW271344   3.380   3.228   4.214  0.4839 -0.4076  0.5637
22648SOL     OW71345   9.900   4.439   5.501 -0.3948  0.2176 -0.0346
22648SOL    HW171346   9.965   4.406   5.563  0.4186 -0.2282 -1.0875
22648SOL    HW271347   9.885   4.530   5.529  1.2897  0.5902 -0.2101
22649SOL     OW71348   6.324  10.524   9.952 -0.3558 -0.1635 -0.0365
22649SOL    HW171349   6.269  10.576   9.894 -0.9155  1.5190  1.8692
22649SOL    HW271350   6.289  10.436   9.946 -1.0850  0.1898 -1.3894
22650SOL     OW71351   9.210   0.975   4.738  0.7221 -0.2600 -0.3426
22650SOL    HW171352   9.129   0.943   4.778 -1.5512  2.0982 -2.7267
22650SOL    HW271353   9.250   0.896   4.700 -1.3933 -1.2622 -0.6386
22651SOL     OW71354   3.548   9.236   5.725 -0.0249  0.1733 -0.2455
22651SOL    HW171355   3.478   9.298   5.704 -0.4643 -0.2349 -0.0299
22651SOL    HW271356   3.571   9.255   5.816 -0.5606 -0.3415  0.0095
22652SOL     OW71357   9.922   6.984   4.731  0.6852  0.3870 -0.1226
22652SOL    HW171358   9.988   7.045   4.700  0.9095 -0.2549 -0.9347
22652SOL    HW271359   9.915   7.002   4.825  0.6603  1.7237 -0.3541
22653SOL     OW71360   1.940   6.628   4.955 -0.1483  0.2204 -0.7061
22653SOL    HW171361   1.981   6.707   4.920  0.3020 -0.0183 -0.7149
22653SOL    HW271362   1.986   6.556   4.914 -0.2818 -0.0554 -0.3807
22654SOL     OW71363   6.342   4.895   0.543 -0.1258  0.4912 -0.3145
22654SOL    HW171364   6.394   4.935   0.473  0.8827  0.2818  0.2908
22654SOL    HW271365   6.257   4.878   0.503  0.8049 -0.7601 -1.8821
22655SOL     OW71366   2.313   4.954   3.292  0.5540 -0.4000 -0.3794
22655SOL    HW171367   2.225   4.962   3.256 -0.8345 -1.2961  2.5414
22655SOL    HW271368   2.314   5.012   3.368  2.8506  0.3041 -0.8406
22656SOL     OW71369   8.636   8.897   2.419 -0.2294 -0.2729 -0.7833
22656SOL    HW171370   8.686   8.855   2.350  0.3252  1.6063 -1.5940
22656SOL    HW271371   8.697   8.904   2.493 -1.0844 -3.0766  0.3013
22657SOL     OW71372   3.153   4.504   3.590  0.0088 -0.2905  0.4072
22657SOL    HW171373   3.159   4.594   3.558 -1.7349 -0.8995 -1.8254
22657SOL    HW271374   3.168   4.449   3.513  0.2347 -1.9383  1.5538
22658SOL     OW71375   7.021   6.725   5.012 -0.5932 -0.2535 -0.0006
22658SOL    HW171376   7.040   6.776   4.934  0.6649 -0.5441  0.0915
22658SOL    HW271377   7.041   6.635   4.987  0.1475 -0.3112  0.7301
22659SOL     OW71378   0.008  10.461   4.810 -0.3286 -0.4605  0.3408
22659SOL    HW171379   0.067  10.521   4.764 -0.3258 -1.0694 -0.4771
22659SOL    HW271380   0.033  10.374   4.780  0.0400 -0.9424  1.9420
22660SOL     OW71381   9.177   6.780   2.523  0.2509  0.0815  0.3263
22660SOL    HW171382   9.232   6.849   2.487  1.0941 -0.9646 -0.4481
22660SOL    HW271383   9.089   6.801   2.491  0.0399  2.0486  1.9951
22661SOL     OW71384   2.308   7.312   0.969  0.0437  0.3350  0.5299
22661SOL    HW171385   2.364   7.322   1.046  0.0473 -0.2287  0.6073
22661SOL    HW271386   2.260   7.394   0.963  1.1321  0.9717  0.2585
22662SOL     OW71387   5.677   1.497   8.864 -0.0953 -0.2929 -0.5258
22662SOL    HW171388   5.623   1.560   8.816 -0.9855 -0.2911  0.4269
22662SOL    HW271389   5.721   1.549   8.931 -0.2928 -0.5609 -0.1807
22663SOL     OW71390   8.680   7.875   2.866  0.3890 -0.0401 -0.2966
22663SOL    HW171391   8.689   7.836   2.779  1.9278 -0.0455 -0.1627
22663SOL    HW271392   8.679   7.800   2.926 -0.8907 -0.0483 -0.3014
22664SOL     OW71393   3.487   7.965   1.824 -0.1501  0.2279 -0.1506
22664SOL    HW171394   3.437   8.022   1.765  1.5391  1.1928 -0.7371
22664SOL    HW271395   3.509   8.021   1.899 -2.0901 -0.9266  1.3734
22665SOL     OW71396   4.553   1.012   3.344  0.5334 -0.0803  0.6779
22665SOL    HW171397   4.648   1.007   3.330  0.3890 -1.7941  0.0695
22665SOL    HW271398   4.518   1.041   3.260  0.5076  0.4888  0.8827
22666SOL     OW71399   6.906   7.944   8.925  0.3609  0.0264 -0.0393
22666SOL    HW171400   6.906   8.039   8.911  0.8921  0.2043  1.0185
22666SOL    HW271401   6.892   7.935   9.020  0.0173 -0.9627 -0.1810
22667SOL     OW71402   0.301   5.025  10.360 -0.1045 -0.4883  0.0846
22667SOL    HW171403   0.330   4.947  10.408  2.6120  0.4036  0.0647
22667SOL    HW271404   0.379   5.080  10.355 -1.2021  0.9953 -2.3564
22668SOL     OW71405   1.374   0.659   4.669 -0.6275 -0.6380  0.0810
22668SOL    HW171406   1.351   0.752   4.665 -2.5653 -1.1224 -1.6905
22668SOL    HW271407   1.382   0.640   4.762 -2.1558  0.8660  0.5621
22669SOL     OW71408   6.641   8.336  10.562  0.1320  0.2344  0.4751
22669SOL    HW171409   6.597   8.253  10.546  1.1414 -0.7375  2.5002
22669SOL    HW271410   6.716   8.335  10.502  1.1273 -1.1443  1.6805
22670SOL     OW71411   8.370   7.342   2.146 -0.4058 -0.1208 -0.0727
22670SOL    HW171412   8.361   7.252   2.176 -0.7672  0.2313  0.9278
22670SOL    HW271413   8.383   7.335   2.052  0.8611 -1.2882  0.1556
22671SOL     OW71414   3.719   1.468   2.894  0.6400  0.0124 -0.4080
22671SOL    HW171415   3.759   1.382   2.892  1.1573  0.1064  2.0116
22671SOL    HW271416   3.634   1.453   2.936  1.8321  0.9155  2.6509
22672SOL     OW71417   0.905   8.485   9.208 -0.4471  0.3045  0.0691
22672SOL    HW171418   0.866   8.455   9.126  2.1918 -0.0819 -1.1647
22672SOL    HW271419   0.847   8.555   9.238 -1.8176  0.0596 -1.8087
22673SOL     OW71420   5.310   9.979  10.453 -0.2999 -0.0197 -0.2752
22673SOL    HW171421   5.316  10.034  10.375 -0.1814 -0.1428 -0.3529
22673SOL    HW271422   5.382   9.916  10.444 -1.1982 -1.0020 -0.8288
22674SOL     OW71423   0.770   1.694   6.526  0.0177 -0.6164 -0.1725
22674SOL    HW171424   0.783   1.603   6.499  0.2195 -0.3904 -0.8728
22674SOL    HW271425   0.682   1.696   6.562 -0.2198 -0.9659 -0.7154
22675SOL     OW71426  10.194   3.990   7.445  0.1683  0.4621  0.0521
22675SOL    HW171427  10.115   3.963   7.397 -0.0614  0.3850  0.4694
22675SOL    HW271428  10.180   4.083   7.463 -0.3759  0.1842  1.1535
22676SOL     OW71429   3.817   9.176   7.286 -0.4393  0.2974 -0.1583
22676SOL    HW171430   3.856   9.157   7.372  0.9797  0.2899 -0.7958
22676SOL    HW271431   3.723   9.163   7.301 -0.2809  0.7809  1.5230
22677SOL     OW71432   7.116   6.821   4.765 -0.5298 -0.8172  0.4828
22677SOL    HW171433   7.079   6.763   4.699 -0.5339  0.9560 -1.1645
22677SOL    HW271434   7.180   6.874   4.717  0.5254 -0.4393  2.2186
22678SOL     OW71435   0.221   9.985   4.653 -0.3843 -0.1990  0.4007
22678SOL    HW171436   0.233   9.975   4.559 -0.0202 -1.8203  0.5842
22678SOL    HW271437   0.305   9.958   4.690 -1.6464 -3.3077  1.3293
22679SOL     OW71438   0.377   2.387   5.362  0.8691  0.0042 -0.6385
22679SOL    HW171439   0.448   2.443   5.331  1.0747  0.7247  1.0254
22679SOL    HW271440   0.298   2.441   5.356  0.8578  0.0365 -0.2494
22680SOL     OW71441   9.873   1.534   8.649 -0.6617  0.0972 -0.1770
22680SOL    HW171442   9.867   1.605   8.584  0.8461 -0.5533 -1.0716
22680SOL    HW271443   9.875   1.454   8.597 -0.1201 -0.4810  0.7113
22681SOL     OW71444   0.295   7.105   6.881 -0.1660 -0.0738  0.0150
22681SOL    HW171445   0.239   7.082   6.807 -0.9500 -1.5709  1.0355
22681SOL    HW271446   0.378   7.061   6.863 -0.5137 -0.8410  0.2315
22682SOL     OW71447   2.189   4.209   2.069 -0.4019  0.4235  0.2334
22682SOL    HW171448   2.158   4.124   2.037  0.9756  0.3629 -1.0487
22682SOL    HW271449   2.151   4.218   2.156 -0.1668 -1.7338  0.6002
22683SOL     OW71450  10.063   1.106   2.194  0.7295 -0.1060  0.1697
22683SOL    HW171451  10.104   1.065   2.270 -0.6093 -0.4089  0.7735
22683SOL    HW271452  10.096   1.195   2.193  1.9365 -0.5421  0.1968
22684SOL     OW71453   7.951   2.561   6.777  1.1878 -0.1456 -0.2101
22684SOL    HW171454   7.999   2.592   6.700  1.9100  0.6687  0.5356
22684SOL    HW271455   8.020   2.537   6.839  0.6588  1.2018  0.9479
22685SOL     OW71456   5.491   1.770   3.189 -0.5804 -0.3577 -0.0924
22685SOL    HW171457   5.508   1.778   3.283  0.1177 -0.9587 -0.1519
22685SOL    HW271458   5.444   1.687   3.180  0.5500 -0.9865 -0.3961
22686SOL     OW71459   2.281   3.910   2.357 -0.0322 -0.0302 -0.0996
22686SOL    HW171460   2.319   3.902   2.445  2.3896  0.7399 -0.9921
22686SOL    HW271461   2.265   4.004   2.346 -0.6496 -0.1608 -0.3898
22687SOL     OW71462   1.725   5.391   7.375  0.0154 -0.4379 -0.3421
22687SOL    HW171463   1.653   5.413   7.435 -0.8361 -0.0612 -1.4547
22687SOL    HW271464   1.684   5.390   7.288  0.3875 -4.5864 -0.6679
22688SOL     OW71465   0.041   3.127   0.400  0.3440 -0.1552  0.2748
22688SOL    HW171466   0.125   3.119   0.354 -0.1942  1.2545 -1.0545
22688SOL    HW271467   0.051   3.072   0.478  1.7387 -1.7038 -0.9068
22689SOL     OW71468   6.469   6.524   2.182  0.5877 -0.4625  0.1032
22689SOL    HW171469   6.405   6.466   2.224  0.6933  1.0519  2.5278
22689SOL    HW271470   6.536   6.539   2.249  0.3161  2.8083 -0.1820
22690SOL     OW71471  10.189   5.074   4.327  0.0388 -0.5068  0.2773
22690SOL    HW171472  10.203   5.160   4.286  1.0798 -0.7944 -0.0135
22690SOL    HW271473  10.146   5.094   4.410 -3.7822  0.0077 -1.5854
22691SOL     OW71474   3.809  10.638   9.411 -0.3737 -0.2817  0.1058
22691SOL    HW171475   3.771  10.709   9.358  1.2305 -0.0720 -0.8096
22691SOL    HW271476   3.781  10.658   9.501 -3.7422 -1.0259 -0.6277
22692SOL     OW71477   8.545   4.505   4.493 -0.0488  0.3201 -0.2157
22692SOL    HW171478   8.594   4.579   4.528  1.6583 -0.4062 -0.9554
22692SOL    HW271479   8.581   4.429   4.538  0.3755 -0.3624 -1.6514
22693SOL     OW71480   4.322   8.056   1.976  0.4451  0.2735 -0.7009
22693SOL    HW171481   4.368   8.102   2.046 -1.1167  1.9708 -0.7007
22693SOL    HW271482   4.239   8.103   1.967 -1.3095 -2.6307 -0.7153
22694SOL     OW71483   2.498   0.194   3.284 -0.3276  0.1889  0.3047
22694SOL    HW171484   2.551   0.257   3.333  0.2304  1.5269 -1.8922
22694SOL    HW271485   2.408   0.216   3.308 -0.0548 -0.1221  1.7509
22695SOL     OW71486   7.097  10.189   9.332 -0.5707 -0.5647  0.0133
22695SOL    HW171487   7.087  10.232   9.247  1.3395 -0.4742 -0.2210
22695SOL    HW271488   7.139  10.106   9.311 -1.1513 -1.0535  0.7750
22696SOL     OW71489   0.290   2.491  10.846 -0.0212 -0.5660  0.0291
22696SOL    HW171490   0.336   2.491  10.930  0.2573  0.9282 -0.0781
22696SOL    HW271491   0.352   2.451  10.785  0.4016 -0.2738  0.2556
22697SOL     OW71492   2.298   7.119   3.600 -0.0826 -0.5378 -0.1224
22697SOL    HW171493   2.227   7.182   3.613 -0.8242 -0.7748 -2.6507
22697SOL    HW271494   2.373   7.172   3.573  0.5221 -0.3785  1.7279
22698SOL     OW71495  10.501   4.700   5.800  0.1959 -0.0047 -0.2051
22698SOL    HW171496  10.535   4.765   5.861  0.4488 -0.7095  0.4303
22698SOL    HW271497  10.424   4.741   5.761  0.0375  0.4758  0.5870
22699SOL     OW71498   1.019   3.043   0.061 -0.1248  0.3070 -0.1512
22699SOL    HW171499   1.052   2.978  -0.002  0.7675  0.0066  0.6035
22699SOL    HW271500   1.097   3.087   0.094 -0.6671  1.2398 -0.0670
22700SOL     OW71501   9.704   1.255   7.481 -0.2449 -0.2053  0.4659
22700SOL    HW171502   9.665   1.342   7.468  1.0153  0.4996  1.2168
22700SOL    HW271503   9.629   1.198   7.497 -1.1408  0.6138 -0.6455
22701SOL     OW71504   5.897   2.949   6.506 -0.1917 -0.0016  0.0703
22701SOL    HW171505   5.965   2.985   6.449 -0.0910  1.9237  1.3271
22701SOL    HW271506   5.876   2.864   6.467  0.4616  0.8517 -2.3582
22702SOL     OW71507   0.410   1.013   9.471 -0.2076 -0.7298  0.1482
22702SOL    HW171508   0.453   0.930   9.492 -0.8486 -0.7414  1.5584
22702SOL    HW271509   0.477   1.080   9.485  0.1419 -0.9598 -0.4183
22703SOL     OW71510   3.351   0.365   7.039 -0.3212 -0.3782  0.6596
22703SOL    HW171511   3.338   0.270   7.038  1.8049 -0.8656 -3.3905
22703SOL    HW271512   3.445   0.376   7.020 -0.5424  2.5302  0.7936
22704SOL     OW71513   0.706   9.835   5.111 -0.1280  0.3415  0.4359
22704SOL    HW171514   0.683   9.810   5.201 -3.2116 -1.2571 -0.6789
22704SOL    HW271515   0.760   9.762   5.080 -1.1727 -0.3446  0.2089
22705SOL     OW71516   9.169   1.031   0.865  0.3825 -0.6451 -0.1793
22705SOL    HW171517   9.153   0.939   0.886  1.9114 -0.5787  1.5200
22705SOL    HW271518   9.138   1.079   0.942  1.2455  0.0982 -0.2758
22706SOL     OW71519   8.617   1.935   8.258  0.5713  0.4145 -0.1751
22706SOL    HW171520   8.632   2.029   8.268 -0.4788  0.4237  1.9782
22706SOL    HW271521   8.680   1.894   8.318 -1.8150  0.0401  2.2462
22707SOL     OW71522   2.450   3.375   2.906 -0.2687 -0.4138  0.4794
22707SOL    HW171523   2.495   3.438   2.849 -0.1928  1.0908  2.1127
22707SOL    HW271524   2.363   3.412   2.918 -0.3609 -0.8398  1.1476
22708SOL     OW71525   7.645   6.073   6.427  0.0953  0.3222 -0.1833
22708SOL    HW171526   7.682   6.035   6.348 -1.0454 -0.8770 -0.1648
22708SOL    HW271527   7.581   6.137   6.395 -0.3564 -0.1532 -0.2408
22709SOL     OW71528   2.698   1.552   4.591  0.7823 -0.3110 -0.9362
22709SOL    HW171529   2.773   1.512   4.635  0.1862  0.4135  0.8508
22709SOL    HW271530   2.622   1.506   4.627  0.1963  1.2233 -0.1133
22710SOL     OW71531   3.696   2.997   3.964  0.3138 -0.3084  0.0488
22710SOL    HW171532   3.759   3.068   3.950 -0.6361  1.2395  2.9055
22710SOL    HW271533   3.611   3.040   3.967 -0.3580 -1.6320  1.3263
22711SOL     OW71534   5.903   6.557   1.121  1.0187  0.1379  0.2815
22711SOL    HW171535   5.831   6.505   1.156  0.2258  0.7650 -0.3962
22711SOL    HW271536   5.948   6.591   1.199  1.2301 -1.1172  0.7200
22712SOL     OW71537   8.955   9.717   1.431  0.3295 -0.4705  0.0860
22712SOL    HW171538   8.914   9.762   1.356  2.3680  2.2462  0.4318
22712SOL    HW271539   9.048   9.713   1.408  0.8963 -0.1997  2.1652
22713SOL     OW71540   2.854   5.098   9.957  0.3565  0.4088 -0.8683
22713SOL    HW171541   2.799   5.076  10.033 -0.1101  0.6473 -1.1307
22713SOL    HW271542   2.795   5.145   9.899  0.3879 -0.7915 -1.9141
22714SOL     OW71543   8.768   4.776   3.799 -0.1941 -0.1462 -0.4465
22714SOL    HW171544   8.763   4.690   3.842 -0.6442  0.1379  0.0900
22714SOL    HW271545   8.794   4.756   3.710 -0.5275 -0.8683 -0.3966
22715SOL     OW71546   4.591   4.830   6.710  0.0539  0.2020  0.6000
22715SOL    HW171547   4.539   4.798   6.637  0.2774  1.2669 -0.0410
22715SOL    HW271548   4.604   4.753   6.766 -2.0290 -0.1419  0.6895
22716SOL     OW71549   9.649   6.716   4.945 -0.2057 -0.0355 -0.5017
22716SOL    HW171550   9.725   6.752   4.990 -0.3466  0.7343 -0.8671
22716SOL    HW271551   9.639   6.628   4.982  1.4954 -0.5655 -1.2032
22717SOL     OW71552   8.583   1.033   5.131  0.0649  0.3853 -0.2010
22717SOL    HW171553   8.493   1.059   5.150 -0.0146  0.4577 -0.6714
22717SOL    HW271554   8.621   1.014   5.217  1.1354  5.1171  0.6249
22718SOL     OW71555   2.871   2.977   2.870  0.4242 -0.0948 -0.5971
22718SOL    HW171556   2.881   2.969   2.775  2.3113  1.0007 -0.5415
22718SOL    HW271557   2.907   2.895   2.904 -1.0532 -0.8736 -0.8159
22719SOL     OW71558   6.188   4.187   4.275  0.1174 -0.0039 -0.3561
22719SOL    HW171559   6.137   4.147   4.205  0.0665  0.6433 -0.6909
22719SOL    HW271560   6.122   4.224   4.334  0.1656 -0.3671 -0.0689
22720SOL     OW71561  10.906   3.151   0.938  0.0180 -0.3916 -0.5698
22720SOL    HW171562  10.970   3.079   0.937  0.5208  0.0497 -0.7727
22720SOL    HW271563  10.823   3.109   0.961  0.4231 -0.9394 -0.0701
22721SOL     OW71564   9.243   5.981   4.477  0.0498 -0.8656  0.2309
22721SOL    HW171565   9.210   6.019   4.396  2.2568  1.4210  0.2957
22721SOL    HW271566   9.328   5.943   4.453 -0.2015 -2.0170  1.0808
22722SOL     OW71567   7.943  10.200   2.270 -0.3563  0.4416  0.5803
22722SOL    HW171568   7.864  10.159   2.236  0.1741 -0.1067 -0.0201
22722SOL    HW271569   7.979  10.248   2.196 -0.5532  1.3759  1.0688
22723SOL     OW71570   7.384   2.946   2.747 -0.3625 -0.0031 -0.2563
22723SOL    HW171571   7.309   2.896   2.778 -0.8681  1.1480  0.4154
22723SOL    HW271572   7.357   2.978   2.661 -0.5356  0.1761 -0.1361
22724SOL     OW71573   2.824  10.846   5.721  0.0634 -0.5101  0.2666
22724SOL    HW171574   2.730  10.851   5.739  0.0393  0.0958 -0.0071
22724SOL    HW271575   2.845  10.753   5.729 -0.0935 -0.3886  2.6935
22725SOL     OW71576   8.173  10.368   1.086 -0.0304  0.3134  0.8375
22725SOL    HW171577   8.240  10.402   1.026  0.1168  0.3427  1.0199
22725SOL    HW271578   8.195  10.406   1.171  0.9986 -1.3762  1.3699
22726SOL     OW71579   0.057   0.299   7.214  0.3135  0.1922 -0.1648
22726SOL    HW171580   0.095   0.309   7.127  0.0168  0.6671 -0.2403
22726SOL    HW271581   0.051   0.388   7.249 -0.9291  0.1637 -0.2451
22727SOL     OW71582  10.655   6.973   3.715  0.5309  0.3485 -0.0207
22727SOL    HW171583  10.739   6.967   3.760 -0.0057  2.4917  1.3997
22727SOL    HW271584  10.598   6.912   3.762  1.2052 -0.9924 -0.8904
22728SOL     OW71585   1.451   5.095   3.775  0.0251 -0.3038 -0.1448
22728SOL    HW171586   1.464   5.109   3.869 -0.4464 -1.3090  0.0818
22728SOL    HW271587   1.389   5.162   3.748 -0.4499 -0.5143  0.4261
22729SOL     OW71588   9.410   5.883   2.658 -0.0764 -0.4929  0.5456
22729SOL    HW171589   9.485   5.939   2.677  0.8930 -1.6649  0.3127
22729SOL    HW271590   9.355   5.888   2.736 -0.0845  0.8755  0.4665
22730SOL     OW71591   8.477   5.190   1.965 -0.3502 -0.0696 -0.4063
22730SOL    HW171592   8.525   5.270   1.985  0.3079 -0.4211 -0.5365
22730SOL    HW271593   8.534   5.143   1.904 -0.1339 -1.2236  0.6531
22731SOL     OW71594  10.600   0.016   3.550 -0.5201 -0.0427  0.0371
22731SOL    HW171595  10.607   0.072   3.474 -1.0629 -1.8538 -1.4282
22731SOL    HW271596  10.686  -0.027   3.557 -1.5134 -2.5860 -1.8659
22732SOL     OW71597   0.281   3.993   8.937 -0.3268  0.5614  0.2649
22732SOL    HW171598   0.301   4.083   8.910 -1.2315  1.7887  3.2036
22732SOL    HW271599   0.365   3.958   8.967  0.1620  0.1297 -1.5117
22733SOL     OW71600   7.698   0.584   6.726 -0.5005  0.2253 -0.5359
22733SOL    HW171601   7.730   0.658   6.675  0.3923 -0.0785 -0.4365
22733SOL    HW271602   7.776   0.547   6.767 -1.0516 -0.2169  0.1525
22734SOL     OW71603   7.287  10.896   3.782  0.1393 -0.2004  0.1832
22734SOL    HW171604   7.244  10.980   3.768 -0.0382 -0.3717 -0.2967
22734SOL    HW271605   7.318  10.900   3.873  2.0893  1.2760 -0.4918
22735SOL     OW71606   7.288   3.940   4.595 -0.1217  0.4323 -0.3847
22735SOL    HW171607   7.344   3.957   4.670  0.3060  1.8949 -0.9796
22735SOL    HW271608   7.308   3.851   4.568 -0.1246 -0.0275  1.0862
22736SOL     OW71609   5.172   4.555   9.172 -0.2361  0.0614  0.5470
22736SOL    HW171610   5.187   4.465   9.201  0.4866 -0.6147 -1.7134
22736SOL    HW271611   5.230   4.608   9.227 -0.2141 -0.8957  1.4944
22737SOL     OW71612   0.747   1.663   2.331 -0.3156  0.0431  0.8580
22737SOL    HW171613   0.673   1.603   2.319  0.5408 -1.1830  1.4861
22737SOL    HW271614   0.799   1.623   2.401  1.4858  0.3333 -0.2644
22738SOL     OW71615   4.221   7.196   1.675  0.5868 -0.4920  0.4098
22738SOL    HW171616   4.216   7.102   1.661 -0.0949 -0.5118  0.7384
22738SOL    HW271617   4.232   7.205   1.770  1.0126 -0.2534  0.3367
22739SOL     OW71618   5.742   3.425   7.901  0.1423  0.1853  0.0816
22739SOL    HW171619   5.774   3.370   7.972  0.2456 -0.7539 -0.6784
22739SOL    HW271620   5.647   3.415   7.904  0.1605 -0.0236 -0.0473
22740SOL     OW71621   4.807   2.409   8.394  0.6674  0.9051 -0.2617
22740SOL    HW171622   4.887   2.374   8.433  0.8745  1.5404 -0.1034
22740SOL    HW271623   4.756   2.440   8.469 -2.3224 -4.3710  0.3998
22741SOL     OW71624   0.236   1.247   1.622  0.5300  0.5056  0.3994
22741SOL    HW171625   0.154   1.198   1.613 -0.6017  2.4550 -0.7212
22741SOL    HW271626   0.277   1.240   1.536  0.6148  1.0569  0.3928
22742SOL     OW71627   3.028   7.490   0.868 -0.5104 -0.3972  0.4864
22742SOL    HW171628   3.046   7.582   0.890  1.6117 -0.0888 -2.1124
22742SOL    HW271629   3.105   7.442   0.897 -1.5826 -1.4537  1.7816
22743SOL     OW71630   4.843   4.732   6.233 -0.0579  0.1832 -0.4433
22743SOL    HW171631   4.789   4.653   6.239  0.1526  0.0289 -0.5794
22743SOL    HW271632   4.782   4.804   6.251  0.0510 -0.0899  1.2077
22744SOL     OW71633   1.326   4.331  10.338  0.4128  0.3007 -0.4302
22744SOL    HW171634   1.269   4.256  10.322  0.9530 -0.2542  0.2171
22744SOL    HW271635   1.292   4.399  10.280 -0.4278 -0.2622 -0.6142
22745SOL     OW71636   2.137  10.190   2.195 -0.2727 -0.4407  0.1240
22745SOL    HW171637   2.168  10.146   2.274 -1.0955 -1.8482 -0.2982
22745SOL    HW271638   2.216  10.206   2.144  0.1183 -0.8520  0.5872
22746SOL     OW71639   2.947   3.305   5.208 -0.7141 -0.4265  0.2565
22746SOL    HW171640   3.008   3.339   5.143 -0.8982  0.5841  0.5999
22746SOL    HW271641   2.995   3.236   5.253 -0.2066 -0.3727 -0.1942
22747SOL     OW71642   2.359   8.158   5.798 -0.0526  0.1574 -0.2136
22747SOL    HW171643   2.448   8.123   5.794  0.0277  0.2189  0.8465
22747SOL    HW271644   2.343   8.174   5.891 -0.3716  2.2329 -0.5821
22748SOL     OW71645   6.073   9.763   5.135 -0.1744 -0.1261 -0.3381
22748SOL    HW171646   6.036   9.714   5.208  0.1445 -0.5571 -0.4563
22748SOL    HW271647   6.044   9.853   5.148 -1.4938 -0.4971 -0.5758
22749SOL     OW71648   7.071   8.593   1.331  0.3032  0.1082  0.8203
22749SOL    HW171649   6.995   8.565   1.382 -2.2711  3.2904 -0.8512
22749SOL    HW271650   7.055   8.686   1.314  2.7631  0.0871 -2.7013
22750SOL     OW71651   8.736   4.796   6.928 -0.1573 -0.2221 -0.2967
22750SOL    HW171652   8.813   4.761   6.973 -1.7922 -0.9279  2.1052
22750SOL    HW271653   8.664   4.738   6.953 -1.6299  0.7538 -1.9931
22751SOL     OW71654  10.453   8.927   5.463  0.2600  0.0094 -0.5083
22751SOL    HW171655  10.415   8.972   5.388  2.2553  0.2787 -1.4402
22751SOL    HW271656  10.443   8.834   5.443 -2.7559 -0.0460  0.8355
22752SOL     OW71657   1.048   2.834   3.710 -0.6424  0.5824 -0.3344
22752SOL    HW171658   0.979   2.791   3.760 -0.8667  0.9029 -0.3595
22752SOL    HW271659   1.001   2.886   3.644 -0.3404 -0.3422 -1.3063
22753SOL     OW71660   6.044   4.384   4.405 -0.0509  0.0940 -0.5598
22753SOL    HW171661   5.961   4.407   4.363 -0.4743 -1.7054 -0.7859
22753SOL    HW271662   6.037   4.422   4.493 -1.9311 -1.5324  0.0725
22754SOL     OW71663   3.680   8.709   3.400 -0.7547 -0.6157  0.1836
22754SOL    HW171664   3.735   8.643   3.357 -2.4146 -1.4036 -0.8421
22754SOL    HW271665   3.689   8.691   3.493  1.0601 -0.4198  0.0768
22755SOL     OW71666   4.983   9.883   9.853  0.2320 -0.5435 -0.1419
22755SOL    HW171667   5.065   9.849   9.888  0.2301  1.8383  2.5578
22755SOL    HW271668   4.915   9.842   9.906 -0.2485 -1.2728 -1.2860
22756SOL     OW71669   0.268   5.609   2.395 -0.7618 -0.3863 -0.4042
22756SOL    HW171670   0.194   5.559   2.359 -0.4131 -0.7046 -0.6901
22756SOL    HW271671   0.311   5.550   2.456 -1.8712  0.4489  1.2637
22757SOL     OW71672   5.387   1.009   7.256 -0.1314 -0.0335  0.3799
22757SOL    HW171673   5.461   1.065   7.231 -1.5189  1.2426 -1.1069
22757SOL    HW271674   5.413   0.972   7.340  1.6200  1.4507  0.5715
22758SOL     OW71675   5.779   2.487   4.721  0.2607  0.3308  0.2813
22758SOL    HW171676   5.828   2.424   4.774  1.5420  1.4699  0.4933
22758SOL    HW271677   5.724   2.533   4.784 -1.9280 -1.6127 -0.0800
22759SOL     OW71678   4.367   7.709   3.707 -0.0148  0.3660 -0.2953
22759SOL    HW171679   4.425   7.782   3.683 -2.1186  1.7520 -1.4894
22759SOL    HW271680   4.369   7.652   3.630  0.3363  0.0142 -0.0283
22760SOL     OW71681   5.305   4.075   9.966 -0.3620 -0.7497  0.2777
22760SOL    HW171682   5.359   4.073   9.887 -1.9478 -2.5453 -0.8745
22760SOL    HW271683   5.225   4.027   9.941 -1.3462 -0.5017  2.6822
22761SOL     OW71684   4.904   3.379   6.470  0.4273  0.0496 -0.6285
22761SOL    HW171685   4.920   3.317   6.541  2.3962 -0.6817 -1.6578
22761SOL    HW271686   4.865   3.327   6.400  1.3400  0.1218 -1.2014
22762SOL     OW71687   9.613   2.794   6.808 -0.0912  0.6738  0.0777
22762SOL    HW171688   9.616   2.755   6.895 -0.0412  1.5674  0.4895
22762SOL    HW271689   9.565   2.731   6.754  1.1177 -0.5703  0.3939
22763SOL     OW71690   4.801   5.187   3.313 -0.9671  0.5078 -0.3126
22763SOL    HW171691   4.716   5.193   3.269 -2.5885 -2.3448  2.0156
22763SOL    HW271692   4.809   5.094   3.335  1.4596  1.1576  2.0079
22764SOL     OW71693   2.157   0.434   4.060  0.2908  0.6165  0.5005
22764SOL    HW171694   2.120   0.346   4.053  1.0260  0.3750 -0.7009
22764SOL    HW271695   2.163   0.451   4.154 -2.2692  0.4333  0.7590
22765SOL     OW71696   6.379   5.256   5.117  0.2179  0.1206  0.0047
22765SOL    HW171697   6.335   5.341   5.128 -0.0908  0.0439 -0.5816
22765SOL    HW271698   6.398   5.251   5.023  0.4479 -0.3574  0.0749
22766SOL     OW71699   4.646   5.931   9.781 -0.3097 -0.0343 -0.1047
22766SOL    HW171700   4.604   5.973   9.706 -0.5780 -1.0451 -0.5351
22766SOL    HW271701   4.716   5.991   9.805 -1.5342  1.3333  0.1843
22767SOL     OW71702   3.604   3.222   9.593  0.1211  0.1426  0.0901
22767SOL    HW171703   3.680   3.165   9.579 -1.1072 -0.9031 -3.2765
22767SOL    HW271704   3.530   3.162   9.598 -1.2790  1.2211 -3.9564
22768SOL     OW71705   1.652   3.838   9.594  0.0090  0.1328 -0.3169
22768SOL    HW171706   1.691   3.925   9.590  0.8613 -0.1085  1.6130
22768SOL    HW271707   1.617   3.832   9.683 -2.1033 -0.6742 -1.1343
22769SOL     OW71708   9.856   5.143   8.052  0.0247 -0.1843 -0.3917
22769SOL    HW171709   9.772   5.107   8.080  0.0664  0.6133  0.8341
22769SOL    HW271710   9.834   5.231   8.021  0.4827  0.3096  0.6312
22770SOL     OW71711   1.115  10.331   4.391  0.1130  0.4786  0.8411
22770SOL    HW171712   1.047  10.313   4.327  1.0008 -1.3606  0.3210
22770SOL    HW271713   1.144  10.420   4.372 -0.1727  0.2493 -0.8409
22771SOL     OW71714   7.446   8.926   4.039  0.9855  0.4233 -0.9053
22771SOL    HW171715   7.485   8.861   3.980  1.1627  0.9391 -1.3560
22771SOL    HW271716   7.520   8.976   4.073  0.8055  0.7099 -0.9364
22772SOL     OW71717   4.547   2.107  10.536 -0.0142  0.5340  0.4181
22772SOL    HW171718   4.633   2.148  10.549  0.3359 -0.2780  0.7305
22772SOL    HW271719   4.511   2.151  10.459  1.8176 -0.8872 -1.3487
22773SOL     OW71720   5.456   3.291   1.989  0.7919  0.2392 -0.3337
22773SOL    HW171721   5.549   3.315   1.989  0.3513  2.1080  0.0571
22773SOL    HW271722   5.433   3.280   1.897  1.3809 -0.2148 -0.4329
22774SOL     OW71723   9.261   2.466   9.247  0.3834 -0.0598  0.2133
22774SOL    HW171724   9.244   2.547   9.295 -0.7102  0.3555 -0.8256
22774SOL    HW271725   9.341   2.483   9.197  1.3503 -0.3865  1.5992
22775SOL     OW71726   0.964   4.666  10.884  0.7747  0.4668  0.3623
22775SOL    HW171727   0.923   4.686  10.800  0.7829 -0.3129  0.1623
22775SOL    HW271728   1.058   4.665  10.866  0.7404 -0.6543  0.1443
22776SOL     OW71729   3.307   1.197   6.525  0.1540  0.8985  0.1825
22776SOL    HW171730   3.402   1.205   6.515  0.6743 -3.5109  0.0206
22776SOL    HW271731   3.294   1.184   6.619  0.0115 -0.9154 -0.0706
22777SOL     OW71732   8.095   6.994   6.494 -0.0547 -0.5982  0.2169
22777SOL    HW171733   8.075   6.931   6.425 -0.6299  0.9304 -1.0916
22777SOL    HW271734   8.059   7.077   6.461  1.1546  0.5295  1.6089
22778SOL     OW71735   7.140   3.885   3.576  0.0918 -0.1384  0.4159
22778SOL    HW171736   7.093   3.906   3.495  1.2224  1.0881  0.0469
22778SOL    HW271737   7.128   3.791   3.587 -0.5264 -0.2328 -0.8850
22779SOL     OW71738   9.270   0.712   6.744 -0.2276  0.6601 -0.2512
22779SOL    HW171739   9.266   0.633   6.689 -0.1502 -0.2280  0.9753
22779SOL    HW271740   9.216   0.776   6.698 -0.6590 -0.2521 -1.0468
22780SOL     OW71741   0.782   7.789   9.582  0.5394  0.2527 -0.2358
22780SOL    HW171742   0.762   7.705   9.623 -1.0517  0.3935 -0.6737
22780SOL    HW271743   0.833   7.766   9.504 -0.6144 -0.3862 -0.8196
22781SOL     OW71744   2.294   7.846   2.950  0.1395  0.2343 -0.1683
22781SOL    HW171745   2.321   7.936   2.933 -0.5496  0.3159 -0.8647
22781SOL    HW271746   2.298   7.803   2.865 -0.4429 -0.1477 -0.0085
22782SOL     OW71747  10.161   5.856   7.094 -0.1251 -0.2517 -0.0860
22782SOL    HW171748  10.082   5.910   7.088 -0.2118 -0.5049 -1.8898
22782SOL    HW271749  10.160   5.803   7.014  1.4545 -0.8393  0.2452
22783SOL     OW71750  10.620   0.901   9.721 -0.0216  0.4140  0.0324
22783SOL    HW171751  10.671   0.975   9.689  0.0799  0.5497  0.5038
22783SOL    HW271752  10.675   0.825   9.704  0.4307  0.5800  0.7287
22784SOL     OW71753   0.108   9.751  10.300  0.1088  0.0075  0.2126
22784SOL    HW171754   0.057   9.707  10.232  3.4123 -0.1879 -2.4039
22784SOL    HW271755   0.077   9.842  10.297 -0.2919 -0.1480 -1.1039
22785SOL     OW71756   7.147   4.619   8.955 -0.5236  0.3770 -0.3587
22785SOL    HW171757   7.109   4.701   8.986 -0.8955  0.3938 -0.8399
22785SOL    HW271758   7.098   4.600   8.875 -0.1681 -0.1082 -0.4596
22786SOL     OW71759   3.525   9.849   5.531  0.4076  0.0592 -0.2431
22786SOL    HW171760   3.511   9.834   5.438  0.7799  0.2412 -0.3317
22786SOL    HW271761   3.583   9.778   5.558  1.6346  0.9249 -0.5173
22787SOL     OW71762   5.386   1.226   4.315 -0.0098  0.4027 -0.9104
22787SOL    HW171763   5.392   1.255   4.225 -2.5977  3.4741 -0.2553
22787SOL    HW271764   5.292   1.221   4.333  0.2915 -3.8452  0.6349
22788SOL     OW71765   9.557   2.595   2.817 -0.1050 -0.0362  0.0560
22788SOL    HW171766   9.561   2.514   2.869  1.7190  0.4393  0.7122
22788SOL    HW271767   9.577   2.665   2.879  2.0794  0.5575 -1.2146
22789SOL     OW71768   5.743   2.368   9.895 -0.3249  0.1645 -0.3676
22789SOL    HW171769   5.779   2.450   9.931 -0.0053  0.1836 -0.7181
22789SOL    HW271770   5.765   2.372   9.801 -0.0787 -0.4384 -0.3406
22790SOL     OW71771   1.121   2.205   6.907  0.3151  0.0565 -0.8407
22790SOL    HW171772   1.144   2.259   6.983  0.7175 -1.2733  0.0147
22790SOL    HW271773   1.083   2.125   6.945 -0.5374 -0.1594 -2.0782
22791SOL     OW71774   9.431   1.836  10.051  0.0466 -0.0563  0.2030
22791SOL    HW171775   9.459   1.922  10.020 -0.8042 -0.1306 -0.8638
22791SOL    HW271776   9.462   1.775   9.984 -0.1802 -0.4579  0.4582
22792SOL     OW71777   2.029   2.434   0.884 -0.0298  0.0484 -0.3281
22792SOL    HW171778   2.067   2.411   0.799 -1.7471  1.3132 -1.5068
22792SOL    HW271779   2.051   2.360   0.941  1.9073 -0.4407 -1.6014
22793SOL     OW71780   9.097   6.832   1.078 -0.9914 -0.3381 -0.2897
22793SOL    HW171781   9.049   6.752   1.102 -2.6017  0.1197 -1.7571
22793SOL    HW271782   9.034   6.902   1.092  0.7844  0.9024  2.1569
22794SOL     OW71783   2.576   7.381  10.596  0.0616  0.3817 -0.5020
22794SOL    HW171784   2.613   7.446  10.655 -2.0170  0.4673  0.8259
22794SOL    HW271785   2.593   7.297  10.638  0.0978  0.3000 -0.6759
22795SOL     OW71786  10.738   3.228   8.471  0.1684  0.8123  0.4480
22795SOL    HW171787  10.805   3.203   8.535 -0.4852 -0.0015  0.8395
22795SOL    HW271788  10.773   3.197   8.388  0.3640  0.5571  0.6208
22796SOL     OW71789  10.292   2.336   2.844 -0.2339  0.4094  0.0042
22796SOL    HW171790  10.367   2.299   2.891  0.1914  1.5402  0.2430
22796SOL    HW271791  10.234   2.367   2.913 -0.3096  0.7160 -0.1969
22797SOL     OW71792  10.362   0.367  10.303  0.2864  0.0236 -0.0324
22797SOL    HW171793  10.432   0.368  10.237  0.9504  1.7994  0.6292
22797SOL    HW271794  10.289   0.323  10.260  1.4560 -0.9665 -1.1091
22798SOL     OW71795   5.406   8.482   0.976  0.7276  0.2380 -0.3588
22798SOL    HW171796   5.342   8.544   0.940  1.1177  0.6926 -0.2717
22798SOL    HW271797   5.363   8.396   0.967 -0.5185  0.6669  1.0422
22799SOL     OW71798   0.828   4.431   8.975  0.1279  0.1126 -0.0708
22799SOL    HW171799   0.893   4.368   9.006 -0.0741  0.7388  1.8094
22799SOL    HW271800   0.748   4.407   9.022  0.2629  2.2366  1.3869
22800SOL     OW71801   1.534   1.964   5.619  0.9648  0.0822 -0.0573
22800SOL    HW171802   1.599   1.985   5.685  0.8380 -1.2110  0.5171
22800SOL    HW271803   1.466   2.031   5.629  1.7787  0.9343 -0.0941
22801SOL     OW71804   2.394   4.148  10.869 -0.3160 -0.4234  0.1022
22801SOL    HW171805   2.471   4.115  10.823 -0.4187 -1.1370  0.4281
22801SOL    HW271806   2.422   4.154  10.961  0.4953  2.7560 -0.2159
22802SOL     OW71807   5.184   0.808   1.561  0.1654  0.3334  0.3421
22802SOL    HW171808   5.251   0.806   1.629 -0.0510 -0.7935  0.5471
22802SOL    HW271809   5.111   0.857   1.600  0.3626  0.4183  0.6074
22803SOL     OW71810   2.013  10.598   5.787 -0.3372 -0.8429  0.0820
22803SOL    HW171811   2.092  10.587   5.840  0.9553  3.6539 -0.5435
22803SOL    HW271812   2.037  10.562   5.701  1.1990  0.5916 -0.1456
22804SOL     OW71813   1.847   1.208   2.275 -0.3287  0.4252  0.5430
22804SOL    HW171814   1.926   1.252   2.243  1.0503 -1.2782  1.4239
22804SOL    HW271815   1.838   1.239   2.365  0.0110 -0.2308  0.8089
22805SOL     OW71816   8.805   1.012   4.997  0.6911 -0.5656  0.2403
22805SOL    HW171817   8.775   0.940   4.941 -1.6398  1.4471 -1.3088
22805SOL    HW271818   8.730   1.033   5.051  1.7619 -0.0797  1.5982
22806SOL     OW71819   0.153   7.300   8.250  0.1527  0.3387  0.3205
22806SOL    HW171820   0.191   7.387   8.259  0.3561  0.2114  0.6974
22806SOL    HW271821   0.147   7.287   8.155 -0.7655  1.1418  0.2578
22807SOL     OW71822   8.578   9.911   9.826 -0.2516  0.3757  0.3805
22807SOL    HW171823   8.614   9.906   9.915  0.7297  1.7654  0.0914
22807SOL    HW271824   8.655   9.924   9.770 -0.8976 -0.0989 -0.6484
22808SOL     OW71825   4.315   0.517   2.821 -0.2101 -0.3333  0.4887
22808SOL    HW171826   4.325   0.570   2.900 -0.8796  2.6349 -1.2369
22808SOL    HW271827   4.404   0.503   2.789 -0.0030 -0.6238  1.1884
22809SOL     OW71828   0.347  10.445   5.716  0.2239  1.0170 -0.3061
22809SOL    HW171829   0.371  10.529   5.676 -0.7342  0.9585 -1.0462
22809SOL    HW271830   0.283  10.468   5.783  0.0110  0.8868 -0.4633
22810SOL     OW71831   3.668   6.774   5.109 -0.1273  0.0471  0.0281
22810SOL    HW171832   3.761   6.758   5.124  0.3069 -0.8619 -2.9583
22810SOL    HW271833   3.665   6.862   5.071 -0.6603  0.5308  1.1414
22811SOL     OW71834  10.491   6.720   7.118 -0.0768 -0.4904 -0.1339
22811SOL    HW171835  10.584   6.698   7.104  0.1583  0.7348 -0.5667
22811SOL    HW271836  10.444   6.661   7.059  0.5475  0.1191 -1.2811
22812SOL     OW71837   1.536   0.509   7.600 -0.0634  0.7522  0.1289
22812SOL    HW171838   1.498   0.426   7.631  0.2351  0.6730  0.2917
22812SOL    HW271839   1.502   0.575   7.661 -1.3815  0.9623 -0.8020
22813SOL     OW71840   9.372   0.332   0.003  0.3019 -0.0504  0.5813
22813SOL    HW171841   9.316   0.271   0.051  0.4241  0.7011  1.7343
22813SOL    HW271842   9.363   0.307  -0.089 -0.7645 -0.8746  0.8930
22814SOL     OW71843   6.565   3.828   5.082  0.4554 -0.3180 -0.1745
22814SOL    HW171844   6.509   3.761   5.043  1.8569 -1.0662 -0.9615
22814SOL    HW271845   6.505   3.899   5.105 -0.6819 -0.6890 -1.8821
22815SOL     OW71846   6.860   3.967  10.016  0.0865 -0.0270 -0.1893
22815SOL    HW171847   6.892   3.972   9.926  0.8765  1.5033  0.1439
22815SOL    HW271848   6.893   4.046  10.057 -1.2253 -0.1463  1.1492
22816SOL     OW71849   6.242   3.275   1.062  0.5448 -0.8484 -0.5646
22816SOL    HW171850   6.240   3.370   1.048  0.3139 -0.6475  0.6881
22816SOL    HW271851   6.254   3.238   0.975 -0.0760  0.3085 -1.1657
22817SOL     OW71852  10.310   5.654   8.388 -0.6900  0.0828 -0.3341
22817SOL    HW171853  10.216   5.647   8.401 -0.4087 -1.6331  1.1585
22817SOL    HW271854  10.337   5.566   8.361  0.5483  0.4151 -0.2383
22818SOL     OW71855  10.406   8.362   3.459 -0.9631  0.0679  0.0996
22818SOL    HW171856  10.468   8.289   3.455  0.4794  1.2479  0.2152
22818SOL    HW271857  10.333   8.328   3.511 -1.1432 -1.8464 -1.2905
22819SOL     OW71858   0.853   5.573   8.724  0.4951 -0.0442 -0.3521
22819SOL    HW171859   0.795   5.501   8.748  1.8566 -0.4696  1.8833
22819SOL    HW271860   0.894   5.544   8.642  0.4007 -1.4483  0.0720
22820SOL     OW71861   4.746   7.155  10.448 -0.5868  0.1308  0.2436
22820SOL    HW171862   4.823   7.172  10.394 -0.2621 -0.9661  0.3237
22820SOL    HW271863   4.709   7.074  10.412 -2.5041  1.3507 -0.6641
22821SOL     OW71864   0.036   2.805   2.053 -0.0135 -0.5179 -0.0003
22821SOL    HW171865   0.060   2.790   1.962 -0.5183 -0.9970 -0.0570
22821SOL    HW271866   0.019   2.899   2.058  3.3942  0.2004  0.4049
22822SOL     OW71867   4.702  10.013   8.815 -0.1758 -0.8533 -0.0480
22822SOL    HW171868   4.677  10.072   8.886 -0.0957 -0.8376 -0.0318
22822SOL    HW271869   4.778   9.966   8.849  0.2853 -0.3560 -0.3862
22823SOL     OW71870   6.602  10.871   6.292  0.1153  0.1007 -0.0878
22823SOL    HW171871   6.643  10.853   6.207 -0.3298 -0.1613 -0.2519
22823SOL    HW271872   6.569  10.960   6.285 -1.4555 -0.5099 -0.8286
22824SOL     OW71873   1.965   4.351   5.123  0.4918 -0.7052  0.8249
22824SOL    HW171874   2.024   4.354   5.198  2.2774  2.2851 -0.4815
22824SOL    HW271875   1.893   4.410   5.146  1.1426  0.3744  0.2052
22825SOL     OW71876   6.782   8.240   9.177 -0.5704 -0.4529  0.1648
22825SOL    HW171877   6.751   8.178   9.112  1.3358 -1.2925  0.0125
22825SOL    HW271878   6.709   8.301   9.189 -1.5649 -1.2746 -1.4910
22826SOL     OW71879   7.787   7.663   2.010  0.4015  0.6150  0.4534
22826SOL    HW171880   7.723   7.732   2.030  1.7986  2.0477  0.1597
22826SOL    HW271881   7.869   7.695   2.047  0.9932 -1.1646  0.7771
22827SOL     OW71882   8.269   2.153   0.574 -0.7843 -0.3141  0.2726
22827SOL    HW171883   8.261   2.058   0.572 -1.1388 -0.2805 -0.9843
22827SOL    HW271884   8.239   2.178   0.661 -1.6046 -1.2857  0.2925
22828SOL     OW71885   8.897   4.018  10.836 -0.4745 -0.5800  0.0050
22828SOL    HW171886   8.840   4.044  10.908  0.3100 -1.5402  1.0016
22828SOL    HW271887   8.887   3.923  10.831  0.2806 -0.6382 -0.4746
22829SOL     OW71888   2.298   5.149  10.402 -0.8405  0.0813  0.5858
22829SOL    HW171889   2.333   5.238  10.408 -2.8379  1.0025 -0.4601
22829SOL    HW271890   2.284   5.123  10.493 -0.0137  0.7432  0.9144
22830SOL     OW71891   6.725  10.830   6.525 -0.1513 -0.2295  0.6558
22830SOL    HW171892   6.678  10.818   6.442 -0.1272  0.1071  0.5886
22830SOL    HW271893   6.728  10.925   6.536  0.3768 -0.2536  0.7360
22831SOL     OW71894  10.632   8.466   6.828  0.0255  0.0310  0.4668
22831SOL    HW171895  10.693   8.414   6.776  0.6360  1.0187  0.1625
22831SOL    HW271896  10.551   8.465   6.779  0.4101  0.4277 -0.1901
22832SOL     OW71897   4.098   5.097  10.499  0.1788 -0.4949 -0.4668
22832SOL    HW171898   4.089   5.048  10.580  0.7760  0.3272  0.1181
22832SOL    HW271899   4.161   5.047  10.447  0.2133 -0.7344 -0.1933
22833SOL     OW71900   7.030   9.745   6.953  0.0720 -0.2862  0.3331
22833SOL    HW171901   7.002   9.662   6.991  0.4045 -1.9507 -2.7588
22833SOL    HW271902   7.125   9.744   6.963  0.1435 -0.6483 -0.3067
22834SOL     OW71903   3.100  10.842  10.636 -0.4963 -0.3493  0.2909
22834SOL    HW171904   3.018  10.796  10.617  0.4674 -2.3151  0.6247
22834SOL    HW271905   3.156  10.776  10.676  0.7109  1.3561  1.5882
22835SOL     OW71906   0.509   7.368   6.571  0.0967 -0.5418  0.1707
22835SOL    HW171907   0.433   7.405   6.526  0.7827  1.7434  0.7852
22835SOL    HW271908   0.492   7.274   6.572 -2.7871 -0.1160  0.4151
22836SOL     OW71909   0.356   8.450   8.711  0.0974  0.2140  0.5377
22836SOL    HW171910   0.288   8.507   8.747  0.8358  2.5808 -1.4907
22836SOL    HW271911   0.345   8.367   8.757 -5.9784 -0.6363 -1.5245
22837SOL     OW71912   4.276   7.967   4.834 -0.0928  0.4617 -0.3871
22837SOL    HW171913   4.356   7.942   4.882 -0.6193 -1.6540 -0.4965
22837SOL    HW271914   4.228   8.023   4.895  0.0802 -0.7525  0.9207
22838SOL     OW71915  10.202   0.379   4.607  0.3893 -0.0510  0.4187
22838SOL    HW171916  10.134   0.344   4.549 -0.8346  0.1802  1.6630
22838SOL    HW271917  10.229   0.305   4.660  0.7299 -0.0130  0.3044
22839SOL     OW71918   7.891   0.296  10.195  0.0521 -0.8906 -0.5056
22839SOL    HW171919   7.930   0.352  10.128 -1.6007  0.2984 -0.5401
22839SOL    HW271920   7.965   0.268  10.249  1.1317 -0.0546 -1.4984
22840SOL     OW71921   8.145   2.581   6.222 -0.2373  0.1894  0.0910
22840SOL    HW171922   8.054   2.571   6.193  0.2055  0.4630 -1.4709
22840SOL    HW271923   8.194   2.521   6.167  0.7103  1.1313 -0.1248
22841SOL     OW71924   6.132   3.944  10.019 -0.1179 -0.2607 -0.0983
22841SOL    HW171925   6.087   3.956   9.936 -0.3506 -0.0187  0.0618
22841SOL    HW271926   6.194   3.873  10.003  0.5909  0.5017 -0.7701
22842SOL     OW71927   3.326   0.701   4.952  0.5358 -0.5510 -0.5421
22842SOL    HW171928   3.419   0.682   4.961  0.3891 -1.9428 -1.5583
22842SOL    HW271929   3.323   0.790   4.918  1.4815 -0.3817 -0.2064
22843SOL     OW71930  10.833   5.277   2.182 -0.3922 -0.0847 -0.5425
22843SOL    HW171931  10.882   5.206   2.141  0.6056 -0.0171  0.4720
22843SOL    HW271932  10.772   5.234   2.242  1.2278 -0.1242  1.1905
22844SOL     OW71933  10.321   5.879  10.202  0.0208  0.1234  0.0570
22844SOL    HW171934  10.411   5.912  10.207  0.0811  0.0965 -0.8264
22844SOL    HW271935  10.289   5.908  10.117 -1.1092  0.8692  0.7139
22845SOL     OW71936   0.770   7.527   9.718  0.0283  0.0637 -0.3623
22845SOL    HW171937   0.694   7.473   9.698  0.1484  0.2638 -1.4260
22845SOL    HW271938   0.838   7.465   9.742 -0.2742 -0.1553 -0.0644
22846SOL     OW71939   8.160   3.799   4.353 -0.1903 -0.9733 -0.3169
22846SOL    HW171940   8.160   3.822   4.260 -0.8464 -1.2482 -0.3890
22846SOL    HW271941   8.109   3.869   4.394  2.5892  0.8804  0.3063
22847SOL     OW71942   1.287   6.627  10.526  0.1995  0.0743  0.1676
22847SOL    HW171943   1.241   6.565  10.583  0.8811 -0.8616 -0.2779
22847SOL    HW271944   1.343   6.677  10.585 -0.0910  0.0315  0.4824
22848SOL     OW71945   8.543   7.239   7.106  0.1905 -0.3251  0.2697
22848SOL    HW171946   8.590   7.262   7.186  3.7340 -1.2431 -1.3204
22848SOL    HW271947   8.500   7.320   7.079  0.2391  0.4082  2.2583
22849SOL     OW71948   2.305   4.062   9.443 -0.2693  0.3126  0.2500
22849SOL    HW171949   2.370   4.075   9.374  1.2675  1.6540  1.8323
22849SOL    HW271950   2.283   3.969   9.438  0.1427  0.2713 -1.6899
22850SOL     OW71951   9.456   0.640   7.758  0.4294 -0.4541 -0.0786
22850SOL    HW171952   9.511   0.598   7.692  1.5443 -1.8623  1.6769
22850SOL    HW271953   9.502   0.629   7.840 -1.1510  0.8298  1.0683
22851SOL     OW71954   3.342   7.811  10.356 -0.4686 -0.1614  0.1406
22851SOL    HW171955   3.276   7.852  10.299 -1.4715  0.8281  1.9360
22851SOL    HW271956   3.399   7.883  10.383  0.2827 -0.7052  0.0245
22852SOL     OW71957   2.782   9.630   6.996  0.3822 -0.5862  0.4261
22852SOL    HW171958   2.811   9.636   7.087 -1.0837 -0.0328  0.8986
22852SOL    HW271959   2.806   9.541   6.969 -0.6018 -1.3585  1.9139
22853SOL     OW71960   8.101   0.662   2.517 -0.0324  0.0510 -0.2080
22853SOL    HW171961   8.172   0.692   2.461  0.9639  0.5746  1.2672
22853SOL    HW271962   8.081   0.574   2.487  1.4349 -0.2065 -0.4769
22854SOL     OW71963   7.260   0.507   4.922  0.4780 -0.0194 -0.6249
22854SOL    HW171964   7.192   0.523   4.857  0.4188  0.3110 -0.4838
22854SOL    HW271965   7.327   0.456   4.876 -1.0700 -2.7271 -0.0839
22855SOL     OW71966   9.471   4.898   9.786 -0.4701  0.2780  0.4650
22855SOL    HW171967   9.538   4.925   9.848 -0.3060 -1.8347  1.2716
22855SOL    HW271968   9.518   4.849   9.719 -0.8213  1.4572 -0.6910
22856SOL     OW71969   3.957   5.455   2.795 -0.1667 -0.4782 -0.1815
22856SOL    HW171970   3.927   5.456   2.886 -1.5949 -0.2888 -0.6399
22856SOL    HW271971   3.883   5.423   2.745  1.5318 -3.5208 -1.0061
22857SOL     OW71972   4.559   7.186   0.420  0.1966  0.3826  0.0558
22857SOL    HW171973   4.605   7.144   0.493  1.5293  1.2475 -0.2539
22857SOL    HW271974   4.502   7.117   0.385 -0.8289  0.0827  2.1683
22858SOL     OW71975   4.413   4.953   5.661 -0.1813  0.0543  0.0387
22858SOL    HW171976   4.495   4.905   5.654 -0.1027 -0.1570  1.9247
22858SOL    HW271977   4.436   5.034   5.708 -0.9440  0.2521  0.0846
22859SOL     OW71978   5.082   4.399   5.914  0.5627 -0.0633  0.0976
22859SOL    HW171979   5.126   4.452   5.847  2.1938 -0.9053  0.4529
22859SOL    HW271980   5.007   4.452   5.940  1.7293  1.7775 -0.0521
22860SOL     OW71981   2.881   2.234   8.396  0.8397 -0.1256  0.3646
22860SOL    HW171982   2.910   2.324   8.382  1.0083  0.1321  2.1211
22860SOL    HW271983   2.797   2.243   8.441  0.8442 -0.8379  0.5268
22861SOL     OW71984  10.348   3.484   5.981  0.9620  0.7523 -0.3130
22861SOL    HW171985  10.368   3.419   5.913 -0.6892 -1.7989  1.4308
22861SOL    HW271986  10.413   3.466   6.050 -0.8177 -0.7167  1.1113
22862SOL     OW71987   1.157   4.977   1.071  0.2953  0.5174  0.1695
22862SOL    HW171988   1.236   4.946   1.115  0.4885 -0.7336 -1.0039
22862SOL    HW271989   1.179   5.066   1.042  0.6721  0.8004  1.2518
22863SOL     OW71990   2.723   0.214   1.406 -0.3630 -0.2769  0.3919
22863SOL    HW171991   2.768   0.245   1.484 -2.5626  1.3240  1.0982
22863SOL    HW271992   2.654   0.156   1.439 -1.2647  0.3513 -0.3386
22864SOL     OW71993  10.338   9.778   8.222 -0.7388 -0.0879  0.2908
22864SOL    HW171994  10.351   9.834   8.299 -0.3899 -1.9344  1.6721
22864SOL    HW271995  10.269   9.821   8.172  0.9001  2.6238  0.1601
22865SOL     OW71996   5.236   0.256   6.174  0.3452 -0.3453 -0.1446
22865SOL    HW171997   5.180   0.232   6.247 -1.3235 -0.3092 -1.3435
22865SOL    HW271998   5.177   0.258   6.098  1.5823  1.5541 -1.1544
22866SOL     OW71999   6.462   4.577   4.347 -0.2208  0.2011 -0.2759
22866SOL    HW172000   6.493   4.535   4.427 -0.0228 -1.5746 -1.2345
22866SOL    HW272001   6.382   4.624   4.373 -0.1340 -0.3102  0.9541
22867SOL     OW72002   5.496   0.785   7.505  0.1900  0.4463  0.4351
22867SOL    HW172003   5.407   0.758   7.480 -0.3945  4.0638 -2.2755
22867SOL    HW272004   5.550   0.761   7.430  0.9236  0.7940  0.8407
22868SOL     OW72005   9.394   1.749   9.550  0.7781 -0.5911  0.2165
22868SOL    HW172006   9.482   1.714   9.566  0.7620 -0.8429 -0.2264
22868SOL    HW272007   9.375   1.726   9.460 -0.3400 -1.8500  0.7345
22869SOL     OW72008   6.374   0.005   0.067  0.2904 -0.5186  0.0167
22869SOL    HW172009   6.389  -0.086   0.040 -0.8190 -1.6439  2.7570
22869SOL    HW272010   6.287   0.003   0.107  0.1427  1.8494 -0.0765
22870SOL     OW72011   1.697   0.126   2.659  0.4522 -0.4637 -0.0301
22870SOL    HW172012   1.755   0.065   2.613  1.1534  0.2391 -0.0913
22870SOL    HW272013   1.729   0.127   2.749  1.8486  1.4514 -0.4951
22871SOL     OW72014   1.991   9.345   4.923 -0.1135 -0.7217  0.0853
22871SOL    HW172015   1.921   9.354   4.860  0.5563  1.0712 -0.4855
22871SOL    HW272016   2.058   9.293   4.879  0.4744  0.7655 -0.8494
22872SOL     OW72017  10.249   1.017   0.618  0.4712 -0.0332  0.4663
22872SOL    HW172018  10.324   0.959   0.603  0.0405 -0.4572 -0.1141
22872SOL    HW272019  10.285   1.105   0.610  0.9640 -0.2269  0.4763
22873SOL     OW72020   9.906   4.306   6.719  0.5110  0.4516  0.5314
22873SOL    HW172021   9.948   4.389   6.700  0.5499  0.3434  0.1337
22873SOL    HW272022   9.921   4.292   6.812  0.4345  0.9269  0.6172
22874SOL     OW72023   4.918   5.219   6.341 -0.7334 -0.3937  0.0845
22874SOL    HW172024   4.832   5.246   6.310 -0.6923  0.0798  0.3665
22874SOL    HW272025   4.936   5.137   6.296 -1.9413 -1.2442  1.1158
22875SOL     OW72026   0.377   5.299  10.824  0.0503  0.3847  0.2257
22875SOL    HW172027   0.448   5.323  10.765  0.0519  2.0508  0.8643
22875SOL    HW272028   0.416   5.235  10.884  0.2528 -0.7417 -1.0716
22876SOL     OW72029   4.454   4.516   4.753  0.1597  0.1426  0.2133
22876SOL    HW172030   4.502   4.561   4.823  0.9973 -0.5645  0.1066
22876SOL    HW272031   4.489   4.427   4.752 -0.1648  0.0075 -0.7992
22877SOL     OW72032   8.957   1.219   4.926  0.1413  0.1892 -0.6527
22877SOL    HW172033   8.906   1.146   4.961 -0.7578  0.9929 -0.2514
22877SOL    HW272034   8.967   1.200   4.833 -2.1881  0.7264 -1.0662
22878SOL     OW72035  10.422   1.115   1.476  0.3492  0.0273  0.2932
22878SOL    HW172036  10.437   1.157   1.561 -2.4602 -1.3790  1.6216
22878SOL    HW272037  10.417   1.022   1.496 -1.6579 -0.2401 -1.1550
22879SOL     OW72038   3.348   0.948   2.639  0.0593  0.1466 -0.2454
22879SOL    HW172039   3.387   1.019   2.691 -0.1674  0.9215 -1.1214
22879SOL    HW272040   3.405   0.873   2.656  2.1961  1.3249 -1.7649
22880SOL     OW72041   1.586   3.653   4.982 -0.0197 -0.6122 -0.2848
22880SOL    HW172042   1.635   3.584   5.026  0.3273 -0.7763 -0.9207
22880SOL    HW272043   1.518   3.679   5.046  2.0166  0.9321  1.4152
22881SOL     OW72044   1.266   1.943   3.488  0.0555 -0.6193  0.2802
22881SOL    HW172045   1.282   1.901   3.573 -1.4236 -1.7598  0.0236
22881SOL    HW272046   1.310   1.887   3.425 -0.2748 -0.7077  0.1271
22882SOL     OW72047  10.604   2.964   9.026 -0.4933 -0.6487  0.2866
22882SOL    HW172048  10.669   3.035   9.021 -0.2940 -0.6847  1.9199
22882SOL    HW272049  10.606   2.925   8.938  2.1021 -0.9986  0.4187
22883SOL     OW72050   1.729   3.408   0.229  0.3611  0.0783 -0.8406
22883SOL    HW172051   1.823   3.421   0.220  0.4399 -0.3217 -0.6360
22883SOL    HW272052   1.694   3.494   0.252  0.8452 -0.0097  0.3049
22884SOL     OW72053   7.409   9.580   4.716 -0.5934  0.0716 -0.3824
22884SOL    HW172054   7.486   9.583   4.659 -1.6497  0.2864 -1.8786
22884SOL    HW272055   7.413   9.662   4.766 -0.0052  0.2203 -0.6665
22885SOL     OW72056   4.803   2.382   9.623 -0.2383  0.1593 -0.2613
22885SOL    HW172057   4.853   2.366   9.543  0.3079  0.4880  0.0109
22885SOL    HW272058   4.840   2.321   9.687 -0.0990  0.4938 -0.0221
22886SOL     OW72059   1.427   9.884   7.970 -0.0721 -0.2839 -0.1960
22886SOL    HW172060   1.490   9.888   8.042 -0.2955  0.2290 -0.0262
22886SOL    HW272061   1.474   9.838   7.900 -0.4364 -2.3840  0.8557
22887SOL     OW72062   8.420   2.179   0.352  0.2107  0.4273 -0.2219
22887SOL    HW172063   8.361   2.167   0.427  1.2660 -2.2749  0.3067
22887SOL    HW272064   8.371   2.145   0.277  0.0709  0.7888 -0.2938
22888SOL     OW72065  10.005   7.677  10.725  0.3575  1.0248  0.3564
22888SOL    HW172066  10.037   7.691  10.636 -1.0260 -2.1978 -0.8148
22888SOL    HW272067  10.082   7.650  10.774  0.5347 -1.5444 -1.1122
22889SOL     OW72068   2.202   3.990   3.336  0.2208  0.5223  0.0763
22889SOL    HW172069   2.257   4.002   3.414 -0.4029  0.3602  0.5445
22889SOL    HW272070   2.139   3.923   3.360  2.1549 -2.1692 -1.7171
22890SOL     OW72071   7.889   9.418   1.953 -0.4987  0.5130 -0.1983
22890SOL    HW172072   7.978   9.437   1.983 -0.9696  1.9066  0.4014
22890SOL    HW272073   7.867   9.335   1.993 -0.1001  1.0102  1.0966
22891SOL     OW72074  10.428  10.483  10.761  0.2006 -0.5914 -0.1865
22891SOL    HW172075  10.350  10.498  10.816  0.6179  0.2884  0.2011
22891SOL    HW272076  10.470  10.569  10.757  3.6807 -1.7659  3.5103
22892SOL     OW72077   0.188   1.407   8.057  0.6303 -0.3988  0.2058
22892SOL    HW172078   0.264   1.464   8.051  2.1110 -2.3300 -0.3087
22892SOL    HW272079   0.136   1.443   8.129  1.6004  1.4391  0.0212
22893SOL     OW72080  10.026   5.524   0.493 -0.6368 -0.6180 -0.3427
22893SOL    HW172081  10.073   5.441   0.482  0.1143 -0.0754 -1.4325
22893SOL    HW272082  10.091   5.582   0.534 -0.4478  0.0280 -1.5189
22894SOL     OW72083   0.486   2.206   3.241 -0.4138  0.3432  0.0979
22894SOL    HW172084   0.450   2.250   3.318 -0.0796 -0.1546  0.5450
22894SOL    HW272085   0.572   2.246   3.229  0.4628 -1.0932  1.3165
22895SOL     OW72086   3.210   4.003   2.079  0.0434  0.2466  0.2159
22895SOL    HW172087   3.152   3.931   2.101 -0.9399  1.7566  3.1713
22895SOL    HW272088   3.151   4.074   2.052  0.5705  1.2355  1.5271
22896SOL     OW72089   6.703   2.726   1.488  0.1248  0.3724 -0.5693
22896SOL    HW172090   6.668   2.754   1.403  0.2372 -1.7326 -1.3771
22896SOL    HW272091   6.631   2.680   1.530  1.0854 -1.7885 -1.1561
22897SOL     OW72092   6.903   0.061   2.156 -0.1851  0.0874 -0.2253
22897SOL    HW172093   6.988   0.103   2.166  0.1555 -0.8038  0.8661
22897SOL    HW272094   6.867   0.059   2.245 -1.0692 -0.1089 -0.5779
22898SOL     OW72095   7.286   4.663   3.360 -0.1684 -0.4947 -0.1144
22898SOL    HW172096   7.277   4.666   3.455  0.3831  2.3382 -0.0726
22898SOL    HW272097   7.375   4.630   3.345  1.6432  3.4073  0.6579
22899SOL     OW72098   2.024   6.530   7.649 -0.0890 -0.3255  0.0637
22899SOL    HW172099   2.012   6.612   7.602 -1.0042  0.7238  1.9898
22899SOL    HW272100   1.949   6.525   7.708  1.4311 -1.0305  2.0811
22900SOL     OW72101  10.636   1.525  10.188 -0.0865 -0.0459 -0.1047
22900SOL    HW172102  10.635   1.455  10.123 -1.1978 -0.5333  0.4209
22900SOL    HW272103  10.672   1.485  10.267  0.3026  0.2710 -0.1173
22901SOL     OW72104   1.786  10.322   4.141 -0.0104 -0.2338 -0.2621
22901SOL    HW172105   1.784  10.238   4.094 -1.7429 -0.5716  0.3278
22901SOL    HW272106   1.711  10.370   4.106 -0.2700  0.2183  0.8672
22902SOL     OW72107   7.854   1.349   1.960  0.1088  0.1016 -0.3658
22902SOL    HW172108   7.760   1.331   1.954  0.2060 -1.1948  1.3566
22902SOL    HW272109   7.895   1.263   1.950  0.8191 -0.2862  4.0521
22903SOL     OW72110   1.544   5.587   3.265  0.0068 -0.6667 -0.2706
22903SOL    HW172111   1.559   5.503   3.309  0.9459  0.1623  1.0639
22903SOL    HW272112   1.624   5.604   3.217 -0.1498 -0.4994 -0.4732
22904SOL     OW72113   4.552   8.119   8.706 -0.6111 -0.5554 -0.2448
22904SOL    HW172114   4.631   8.110   8.654 -0.4831 -0.0097 -0.1519
22904SOL    HW272115   4.533   8.213   8.706 -0.5484 -0.5267  0.7677
22905SOL     OW72116   5.316   6.331   0.766 -0.0921  0.0500 -0.2419
22905SOL    HW172117   5.352   6.264   0.707 -0.4631  1.0641 -1.6870
22905SOL    HW272118   5.234   6.358   0.724 -0.7526  0.2923  1.1447
22906SOL     OW72119   0.354   0.562  10.658  0.0518 -0.2646 -0.4209
22906SOL    HW172120   0.308   0.621  10.599  0.9046 -1.4303 -2.3392
22906SOL    HW272121   0.310   0.478  10.648 -0.1527 -0.3588  1.0737
22907SOL     OW72122   9.536   0.930   5.654 -0.3517 -0.1042 -0.7202
22907SOL    HW172123   9.542   0.840   5.686 -0.9401 -0.2321 -0.9434
22907SOL    HW272124   9.442   0.949   5.655 -0.2954  0.2427 -1.3820
22908SOL     OW72125   1.418   1.242   3.795 -0.0253  0.2271 -0.4908
22908SOL    HW172126   1.344   1.259   3.736  1.0334  0.5961 -1.7836
22908SOL    HW272127   1.431   1.325   3.842 -0.0519  0.3601 -0.7173
22909SOL     OW72128   3.559   7.558   8.283 -0.3725 -0.2988  0.3366
22909SOL    HW172129   3.594   7.589   8.200  0.7009 -0.0061  0.8780
22909SOL    HW272130   3.468   7.588   8.283 -0.0509  0.7434 -0.2128
22910SOL     OW72131   9.368   7.050  10.564 -0.2483  0.6328  0.1855
22910SOL    HW172132   9.403   7.076  10.479 -0.0484 -2.3044 -0.7211
22910SOL    HW272133   9.273   7.057  10.554 -0.2623 -0.3882 -0.5824
22911SOL     OW72134   8.956   6.900   0.494 -0.1304 -0.1009  0.1980
22911SOL    HW172135   9.046   6.872   0.509 -0.0462 -0.3198 -0.6775
22911SOL    HW272136   8.907   6.862   0.567  0.4038 -0.3776  0.4201
22912SOL     OW72137   6.621  10.523   7.965 -0.5113  0.0562  0.0613
22912SOL    HW172138   6.707  10.490   7.937 -0.2109  0.9444 -0.0796
22912SOL    HW272139   6.570  10.528   7.884 -0.2473  0.8423 -0.0588
22913SOL     OW72140   4.548   2.370   6.347  0.4313 -0.3483  0.0644
22913SOL    HW172141   4.520   2.362   6.438 -1.1360 -1.3918 -0.4740
22913SOL    HW272142   4.480   2.325   6.296  0.1746  1.8905 -1.8019
22914SOL     OW72143   2.790  10.141   7.127  0.2701  0.3513 -0.5315
22914SOL    HW172144   2.754  10.192   7.054 -0.1235 -1.4479 -1.6465
22914SOL    HW272145   2.869  10.189   7.152 -1.4320  2.9544  0.2528
22915SOL     OW72146   6.715   3.836   6.944 -0.3376  0.6858  0.2689
22915SOL    HW172147   6.638   3.881   6.979 -0.4725  2.2869 -1.9015
22915SOL    HW272148   6.689   3.808   6.856  0.9210 -0.5644  0.2594
22916SOL     OW72149   6.933   3.817   2.038 -0.3827 -0.5307 -0.3079
22916SOL    HW172150   6.842   3.790   2.039 -0.5879  0.1425  0.2355
22916SOL    HW272151   6.981   3.739   2.010 -1.0629 -1.0761  0.0145
22917SOL     OW72152   9.606   9.657   5.348 -0.0181  0.2071 -0.1249
22917SOL    HW172153   9.633   9.709   5.272 -1.7123 -1.6404 -2.1126
22917SOL    HW272154   9.536   9.708   5.388 -0.0178  0.5780 -0.5911
22918SOL     OW72155   6.637   8.312   2.597  0.0668  0.5709 -0.5006
22918SOL    HW172156   6.661   8.231   2.644 -1.1079  0.8873  0.6822
22918SOL    HW272157   6.639   8.380   2.664  2.7976  1.9455 -1.7963
22919SOL     OW72158   3.309   6.303   0.604 -0.4933  0.3397  0.4130
22919SOL    HW172159   3.337   6.355   0.680 -1.2000  1.8216 -0.2893
22919SOL    HW272160   3.313   6.213   0.634  0.7650  0.7784  1.7135
22920SOL     OW72161   6.298   0.798   0.769  0.1911  0.0072 -0.3364
22920SOL    HW172162   6.250   0.771   0.691  1.0634 -0.8350 -0.6041
22920SOL    HW272163   6.314   0.716   0.817  0.5598  0.3853  0.1973
22921SOL     OW72164   2.263   4.872   7.142  0.1647  0.1807  0.1598
22921SOL    HW172165   2.198   4.851   7.075  0.3607 -2.1835  0.6394
22921SOL    HW272166   2.254   4.966   7.155  0.0784  0.7423 -3.1129
22922SOL     OW72167   3.416   1.845   5.614 -0.2176 -0.2370  0.2168
22922SOL    HW172168   3.494   1.827   5.666  0.5946  0.4358 -0.7322
22922SOL    HW272169   3.448   1.854   5.524 -1.2819  0.7471 -0.0874
22923SOL     OW72170   0.725   8.726   8.425  0.0420  0.5723  0.2862
22923SOL    HW172171   0.721   8.753   8.516 -0.2277  1.2844  0.0726
22923SOL    HW272172   0.816   8.697   8.412  0.7732  2.7613  0.1708
22924SOL     OW72173  10.127   8.158   5.290  0.0396 -0.0510  0.5657
22924SOL    HW172174  10.205   8.128   5.337  0.9781  0.9501 -0.2843
22924SOL    HW272175  10.104   8.085   5.233  1.7275  0.4072 -0.8013
22925SOL     OW72176   6.340   5.227   0.932  0.7642 -0.4230  0.8066
22925SOL    HW172177   6.315   5.264   1.016  0.8957  0.3891  0.4983
22925SOL    HW272178   6.287   5.148   0.924 -1.0948  0.7666  0.5759
22926SOL     OW72179   4.855   9.563   3.465  0.2358 -0.3920 -0.0410
22926SOL    HW172180   4.762   9.583   3.462  0.5217  1.0430  0.0510
22926SOL    HW272181   4.877   9.539   3.375  0.0589  0.7306 -0.4035
22927SOL     OW72182   6.774   4.585   9.304 -0.3462 -0.4666 -0.2058
22927SOL    HW172183   6.748   4.532   9.229 -0.5824 -0.3498 -0.2074
22927SOL    HW272184   6.692   4.602   9.351 -0.1845 -0.6287  0.1366
22928SOL     OW72185   8.298   5.445   0.205  0.0432 -0.3763 -0.6390
22928SOL    HW172186   8.291   5.350   0.201  0.2851 -0.3903 -0.7188
22928SOL    HW272187   8.212   5.474   0.236  1.3945 -0.9283  4.4963
22929SOL     OW72188   3.714  10.124   3.858 -0.1858 -0.0142  0.8640
22929SOL    HW172189   3.774  10.180   3.907 -0.2435  0.8957 -0.0634
22929SOL    HW272190   3.629  10.165   3.869 -0.7128 -1.3973  2.3175
22930SOL     OW72191   6.101   7.982   5.494  0.1327  0.4566  0.2794
22930SOL    HW172192   6.134   8.014   5.410 -1.8960  1.2179 -0.2659
22930SOL    HW272193   6.071   8.060   5.540  2.4441  0.2463  2.3656
22931SOL     OW72194   4.678   9.127   4.136 -0.0103  0.4270  0.0595
22931SOL    HW172195   4.601   9.183   4.120  0.4896  0.9349 -0.6283
22931SOL    HW272196   4.712   9.107   4.048  0.4965 -0.0049  0.3486
22932SOL     OW72197   7.615   0.380   9.427  0.1242 -0.2957  0.3215
22932SOL    HW172198   7.669   0.327   9.486  1.6359  0.7331 -0.0688
22932SOL    HW272199   7.592   0.321   9.356 -1.6882 -1.5450  1.8464
22933SOL     OW72200   9.293   2.834   0.697 -0.8306 -0.7678 -0.6393
22933SOL    HW172201   9.228   2.813   0.764 -0.3983  0.7482  0.3109
22933SOL    HW272202   9.281   2.927   0.680 -1.6060 -1.3086 -3.4747
22934SOL     OW72203   3.880   9.501   6.604  0.0337  0.2940 -0.5758
22934SOL    HW172204   3.812   9.436   6.623  0.3742  0.4917  1.5136
22934SOL    HW272205   3.961   9.459   6.632  0.2802  1.5018  0.6506
22935SOL     OW72206   0.659   2.389   7.158 -0.3610  0.1403  0.6403
22935SOL    HW172207   0.593   2.330   7.194 -0.6655  0.7033  1.0153
22935SOL    HW272208   0.642   2.389   7.064 -0.2568 -0.4884  0.6182
22936SOL     OW72209   3.995   4.045   1.962 -0.4264  1.0285  0.5093
22936SOL    HW172210   3.981   3.970   1.905 -1.3600  2.0866 -0.7407
22936SOL    HW272211   4.084   4.035   1.995 -0.3599 -0.3410 -0.0433
22937SOL     OW72212  10.479   8.344   5.074 -0.2629 -0.6282 -0.5359
22937SOL    HW172213  10.443   8.354   5.163  0.3621  1.6383 -0.4977
22937SOL    HW272214  10.568   8.376   5.080 -0.0879 -0.7902 -1.9263
22938SOL     OW72215   6.810   4.036   6.731  0.3224  0.1437 -0.2333
22938SOL    HW172216   6.871   3.984   6.679  0.6859  0.5496 -0.2146
22938SOL    HW272217   6.801   4.118   6.683  0.4581  0.4207  0.2137
22939SOL     OW72218   9.724   7.842   4.396  0.3573 -0.6831 -0.8147
22939SOL    HW172219   9.631   7.847   4.374 -0.1783  0.7300  1.5055
22939SOL    HW272220   9.760   7.780   4.332 -1.9806 -0.6020 -2.3149
22940SOL     OW72221   8.845   7.055   5.319 -0.9493 -0.2288 -1.0510
22940SOL    HW172222   8.793   7.109   5.260 -1.7894  1.3379  0.9922
22940SOL    HW272223   8.899   7.117   5.368  0.4724 -1.5538 -0.8578
22941SOL     OW72224   2.816   4.201  10.709  0.5809  0.1562  0.5734
22941SOL    HW172225   2.891   4.143  10.705 -2.3227 -3.9031 -0.5194
22941SOL    HW272226   2.814   4.245  10.624  0.2028 -1.8652 -0.4981
22942SOL     OW72227   0.730   7.290   7.543 -0.2153  0.5287  0.0824
22942SOL    HW172228   0.635   7.285   7.556 -0.1546  0.8262  0.6321
22942SOL    HW272229   0.744   7.245   7.459 -0.9811  1.5520 -0.6292
22943SOL     OW72230   9.700   3.971   0.657 -0.2649  0.1206  0.2286
22943SOL    HW172231   9.644   3.929   0.591 -0.2340 -2.2583  1.5917
22943SOL    HW272232   9.774   4.005   0.607 -0.5771 -0.9949 -1.0664
22944SOL     OW72233   5.158   1.010   2.071 -0.3138  0.4658 -0.2039
22944SOL    HW172234   5.077   1.053   2.044 -0.0086  1.3810  0.2900
22944SOL    HW272235   5.164   1.027   2.165  0.0515 -0.2684 -0.0941
22945SOL     OW72236   0.275   0.568   4.735 -0.1007  0.6907  0.6492
22945SOL    HW172237   0.217   0.609   4.800  0.0661 -0.3497  1.4915
22945SOL    HW272238   0.224   0.496   4.699  0.3547  0.3084  0.7587
22946SOL     OW72239   9.455   4.924   4.396  0.3513 -0.1055 -0.1229
22946SOL    HW172240   9.387   4.989   4.382  0.5047  0.1243  0.1910
22946SOL    HW272241   9.408   4.844   4.419  0.1423 -0.2265 -0.9433
22947SOL     OW72242   6.834   9.436   0.438 -1.1681  0.2304  0.0038
22947SOL    HW172243   6.830   9.530   0.450 -0.2706  0.5051 -1.5768
22947SOL    HW272244   6.924   9.412   0.458 -1.7123 -0.5502  1.7655
22948SOL     OW72245   1.148   9.651   0.042 -0.8298 -0.3614 -0.2897
22948SOL    HW172246   1.236   9.621   0.066 -0.7188  0.4504  0.3911
22948SOL    HW272247   1.162   9.707  -0.035 -0.5415  0.8758  0.6218
22949SOL     OW72248   7.427   5.512   1.824 -0.5806 -0.7219  0.3266
22949SOL    HW172249   7.398   5.551   1.907  0.9613  0.2809  0.4211
22949SOL    HW272250   7.522   5.519   1.826 -0.4916 -1.0744 -1.3602
22950SOL     OW72251  10.246   0.514   3.029  0.0990 -0.7822  0.1666
22950SOL    HW172252  10.341   0.522   3.027 -0.0235  1.5906 -2.7365
22950SOL    HW272253  10.223   0.471   2.947 -1.4060  0.2953 -0.0242
22951SOL     OW72254   1.466   2.484   2.026  0.9375 -0.9340  0.2403
22951SOL    HW172255   1.539   2.533   2.063 -0.5674  1.7260 -0.0249
22951SOL    HW272256   1.447   2.528   1.943 -0.8253 -1.6676  0.2116
22952SOL     OW72257   5.965   2.146   7.399  0.3450  0.1226  0.2879
22952SOL    HW172258   6.047   2.107   7.370  0.2259  0.4267 -0.4822
22952SOL    HW272259   5.988   2.238   7.416  0.7715 -0.3638  2.6945
22953SOL     OW72260   7.437   1.340   3.006 -0.2019  0.5465  0.3189
22953SOL    HW172261   7.356   1.293   3.025  0.3927 -0.0900  1.3526
22953SOL    HW272262   7.507   1.280   3.031  0.6170  0.9180 -0.9524
22954SOL     OW72263   0.243   2.774  10.560 -0.0961 -0.5935  0.4217
22954SOL    HW172264   0.232   2.780  10.655 -1.6648  0.2078  0.2162
22954SOL    HW272265   0.183   2.704  10.533 -1.8295  1.0590 -0.2613
22955SOL     OW72266   5.387   8.527   3.141  0.5415  1.0011  0.0788
22955SOL    HW172267   5.450   8.455   3.139 -1.1137 -0.6896  2.9079
22955SOL    HW272268   5.385   8.555   3.232 -3.2095  0.4910  0.3051
22956SOL     OW72269   9.371   2.912   7.621  0.6932 -0.7326  0.2146
22956SOL    HW172270   9.430   2.969   7.572 -0.9627  2.6166  1.7657
22956SOL    HW272271   9.294   2.905   7.564 -0.5439  1.7615  1.3948
22957SOL     OW72272   8.147   8.652   0.108  0.4030  0.1049 -0.0623
22957SOL    HW172273   8.239   8.648   0.134 -0.0425  0.0307  1.6254
22957SOL    HW272274   8.098   8.651   0.191 -1.1688 -1.1845 -0.9334
22958SOL     OW72275   0.881   3.772   6.524  0.1758 -0.1606 -0.4214
22958SOL    HW172276   0.947   3.806   6.464  0.8511  0.2715  0.5381
22958SOL    HW272277   0.899   3.816   6.607 -0.3613 -1.1707  0.2550
22959SOL     OW72278   5.880  10.136   6.153  0.1744  0.6098  0.6713
22959SOL    HW172279   5.850  10.219   6.116 -0.0010  0.1529 -0.2119
22959SOL    HW272280   5.969  10.126   6.121 -0.0461  0.1187  0.2002
22960SOL     OW72281   9.713  10.391   9.762 -0.5384  0.5414  0.1083
22960SOL    HW172282   9.660  10.338   9.822  2.1726 -0.3269  1.9123
22960SOL    HW272283   9.769  10.328   9.717 -0.5894  1.4703 -1.3320
22961SOL     OW72284   6.437   4.401   6.014 -0.4041 -0.4377  0.0615
22961SOL    HW172285   6.373   4.465   5.984 -0.6845 -0.0876  1.3279
22961SOL    HW272286   6.510   4.454   6.047  1.0801 -0.8281 -2.3665
22962SOL     OW72287   7.521   7.925   0.555  0.1879 -0.0114 -0.1277
22962SOL    HW172288   7.443   7.888   0.515 -0.8650 -2.2892  3.5087
22962SOL    HW272289   7.588   7.857   0.545 -0.2397 -0.8588  2.1289
22963SOL     OW72290  10.377   3.568   4.794 -0.3074 -0.0842  0.0472
22963SOL    HW172291  10.387   3.637   4.729  0.5303 -0.7995 -0.6132
22963SOL    HW272292  10.459   3.570   4.845 -1.4229  1.2574  1.9174
22964SOL     OW72293   9.451   0.487   9.997  0.2973 -0.4229  0.0807
22964SOL    HW172294   9.377   0.518   9.945 -0.2485 -0.5963  0.7489
22964SOL    HW272295   9.442   0.531  10.082  1.7504  0.6493 -0.2743
22965SOL     OW72296   2.836   7.022   2.930 -0.1776  0.0738 -0.8315
22965SOL    HW172297   2.906   6.957   2.928 -0.1241  0.0994 -0.0912
22965SOL    HW272298   2.773   6.987   2.993  0.3177  1.2081  0.3338
22966SOL     OW72299   5.329   7.019   2.555 -0.3179 -0.2751 -0.2178
22966SOL    HW172300   5.319   6.976   2.640 -2.0197 -0.4345 -0.4450
22966SOL    HW272301   5.383   7.096   2.572 -1.1745  0.0612  1.1585
22967SOL     OW72302   7.432   4.935   3.301  0.2526  0.0255  0.4214
22967SOL    HW172303   7.368   4.864   3.300 -0.2858  0.4906 -0.9650
22967SOL    HW272304   7.411   4.985   3.380  0.0411 -0.8179  0.9125
22968SOL     OW72305   6.798   7.691   2.768 -0.4357  0.4351  0.4266
22968SOL    HW172306   6.847   7.679   2.686 -0.5270  0.9398  0.2905
22968SOL    HW272307   6.736   7.761   2.748 -2.2665 -1.1906  0.1218
22969SOL     OW72308  10.647   1.982   3.889 -0.6956  0.0119 -0.4526
22969SOL    HW172309  10.575   2.041   3.864  0.8943  1.5458 -1.6000
22969SOL    HW272310  10.726   2.028   3.864  0.6986 -2.0742 -0.1421
22970SOL     OW72311   9.284   9.324  10.249 -0.5531  0.0527 -0.1077
22970SOL    HW172312   9.333   9.270  10.311 -0.3479  0.4140  0.0455
22970SOL    HW272313   9.315   9.413  10.265 -0.9808  0.2326 -0.2753
22971SOL     OW72314   2.091   1.098   5.885 -0.0307  0.1717 -0.3460
22971SOL    HW172315   2.131   1.032   5.942  0.8535 -0.2116 -1.3698
22971SOL    HW272316   2.076   1.052   5.802  0.9838  1.3210 -1.2164
22972SOL     OW72317   4.845   2.673  10.526  0.2621  0.1683  0.6348
22972SOL    HW172318   4.798   2.756  10.536  1.3693  1.1784 -1.8140
22972SOL    HW272319   4.937   2.697  10.522  0.6693 -1.2740  0.6841
22973SOL     OW72320   1.605   2.692  10.513  0.4239  0.2002  0.5704
22973SOL    HW172321   1.565   2.674  10.598  1.5809 -0.5546  0.9749
22973SOL    HW272322   1.668   2.762  10.531 -1.5628  2.3477 -0.3201
22974SOL     OW72323   6.878   3.076   8.562  0.0743 -0.4795  0.4466
22974SOL    HW172324   6.824   3.014   8.611 -0.8797 -1.1605 -1.3735
22974SOL    HW272325   6.814   3.133   8.518  0.8419 -0.6095 -0.8864
22975SOL     OW72326  10.803   9.473   6.538 -0.3312 -0.4718 -0.2901
22975SOL    HW172327  10.824   9.453   6.629 -1.6664 -1.3012 -0.1358
22975SOL    HW272328  10.869   9.428   6.487  0.3485 -0.1092  0.2553
22976SOL     OW72329  10.727   3.579   7.865  0.3138 -0.1202  0.0274
22976SOL    HW172330  10.767   3.496   7.838  1.8878  0.7775 -0.5439
22976SOL    HW272331  10.635   3.557   7.880  0.2083 -1.5472 -2.1631
22977SOL     OW72332   1.231   3.818   5.226 -0.7421 -0.1118 -0.5006
22977SOL    HW172333   1.235   3.913   5.234 -1.7191 -0.0041 -1.0784
22977SOL    HW272334   1.201   3.803   5.136 -2.0670 -0.9119  0.0402
22978SOL     OW72335   6.504   3.449   0.814 -0.3205  0.0665 -0.5331
22978SOL    HW172336   6.471   3.420   0.728 -1.9409  2.9948 -1.0354
22978SOL    HW272337   6.425   3.467   0.865  0.5750  1.6809  0.3475
22979SOL     OW72338   6.985   9.156   8.432  0.6532  0.4083  0.1174
22979SOL    HW172339   7.031   9.081   8.396  0.2171 -0.3502  1.0961
22979SOL    HW272340   6.950   9.125   8.516  0.3181  1.6480  0.4581
22980SOL     OW72341   0.289   3.576   1.844  0.9635 -0.0914  0.0812
22980SOL    HW172342   0.229   3.602   1.774 -1.0395 -1.4022  1.2075
22980SOL    HW272343   0.325   3.492   1.816 -0.3341 -0.9376  0.8278
22981SOL     OW72344   9.456   7.646   6.669  0.3807 -0.4004 -0.4928
22981SOL    HW172345   9.500   7.727   6.694 -1.7232  0.7296 -0.2108
22981SOL    HW272346   9.445   7.654   6.574  1.8320 -1.2727 -0.7636
22982SOL     OW72347   2.644   1.329   6.984 -0.0490  0.9686 -0.4585
22982SOL    HW172348   2.718   1.290   7.030  0.9218 -1.2119 -3.5261
22982SOL    HW272349   2.650   1.423   7.002  2.2914  0.6143  0.9225
22983SOL     OW72350   1.609   2.476   6.583 -0.0580  0.3610  1.0293
22983SOL    HW172351   1.625   2.505   6.493 -1.8523  1.2772  0.9594
22983SOL    HW272352   1.574   2.388   6.574 -0.2016  0.4381  0.8273
22984SOL     OW72353   4.604   9.494   9.935  0.8248 -0.0606  0.4317
22984SOL    HW172354   4.527   9.541   9.903  1.1707 -0.8246 -1.7059
22984SOL    HW272355   4.625   9.432   9.864  4.2029  1.0338  0.3269
22985SOL     OW72356   4.078   9.137   9.607  0.3803 -0.3203 -0.2679
22985SOL    HW172357   4.096   9.043   9.607  1.4555 -0.1345 -1.2759
22985SOL    HW272358   4.054   9.157   9.697  1.2884 -1.3575  0.2190
22986SOL     OW72359   1.242   7.209   7.193  0.6483 -0.4815 -0.2803
22986SOL    HW172360   1.186   7.225   7.270  0.2606 -1.8892 -0.2328
22986SOL    HW272361   1.316   7.268   7.205 -0.0134  0.2267  0.5296
22987SOL     OW72362   0.872   0.938   4.506 -0.3309  0.1517 -0.0725
22987SOL    HW172363   0.917   0.885   4.572  0.1328 -0.1799 -0.6577
22987SOL    HW272364   0.840   0.875   4.442 -1.9142  0.3383  0.4748
22988SOL     OW72365  10.370   6.378   2.878  0.6257  0.0487  0.0715
22988SOL    HW172366  10.304   6.411   2.818  0.6327  1.0545  0.5974
22988SOL    HW272367  10.419   6.313   2.827 -1.9336 -2.1587  0.2182
22989SOL     OW72368  10.547   8.812   9.090  0.3721 -1.0094  0.4485
22989SOL    HW172369  10.559   8.844   9.001 -1.7807 -0.0644  0.4431
22989SOL    HW272370  10.555   8.717   9.082  0.8705 -0.8973 -0.6046
22990SOL     OW72371   1.599   0.254   5.632  0.7530  0.1292 -0.6108
22990SOL    HW172372   1.571   0.241   5.723 -0.8011 -0.1928 -1.0955
22990SOL    HW272373   1.678   0.202   5.623 -0.8087 -2.4504 -0.2604
22991SOL     OW72374   6.225   1.397   7.136 -0.0341  0.0596  0.0414
22991SOL    HW172375   6.166   1.437   7.071  1.2902  0.5572 -0.8910
22991SOL    HW272376   6.255   1.316   7.093  0.7391  0.3171  0.0926
22992SOL     OW72377   2.747   9.106   6.350 -0.0875 -0.3244  0.7167
22992SOL    HW172378   2.655   9.124   6.369 -0.0406  0.2714  0.3989
22992SOL    HW272379   2.793   9.186   6.374  0.4945 -0.9660  1.8356
22993SOL     OW72380   8.807   7.460   5.478  0.3173 -0.6099  0.0146
22993SOL    HW172381   8.887   7.514   5.479  0.3240 -0.5868  1.7542
22993SOL    HW272382   8.839   7.371   5.490  0.0860 -0.5575  1.1517
22994SOL     OW72383   0.932   3.057   8.421  0.0154  0.6147 -0.8882
22994SOL    HW172384   1.014   3.097   8.448 -0.4334  0.8000  0.2975
22994SOL    HW272385   0.864   3.115   8.457 -0.6325  0.5698 -2.0067
22995SOL     OW72386   0.200   5.655   7.038  0.0091 -0.2355 -0.1187
22995SOL    HW172387   0.154   5.737   7.016  0.4247 -0.0551 -0.3201
22995SOL    HW272388   0.155   5.623   7.116 -0.9320 -0.4422 -0.7302
22996SOL     OW72389   5.736   6.849   9.802  0.0125  1.0856  0.4831
22996SOL    HW172390   5.667   6.813   9.859 -0.6554  0.2726 -0.7864
22996SOL    HW272391   5.810   6.790   9.815 -0.6751 -0.1109 -0.6558
22997SOL     OW72392   9.226   6.750   7.130  0.3739 -0.5855 -0.6266
22997SOL    HW172393   9.234   6.770   7.037 -1.2004  2.0428 -0.3105
22997SOL    HW272394   9.256   6.830   7.174 -0.7942 -1.0264  1.0593
22998SOL     OW72395   0.214   0.775   1.641 -0.2843 -0.0757  1.2145
22998SOL    HW172396   0.248   0.702   1.588  1.1685  0.5895  1.1763
22998SOL    HW272397   0.194   0.736   1.726 -1.5706 -0.9308  0.5532
22999SOL     OW72398   0.757   9.001   3.271 -0.3798 -0.3013 -0.4348
22999SOL    HW172399   0.755   9.018   3.365 -0.5462 -0.1509 -0.4642
22999SOL    HW272400   0.686   9.056   3.235 -1.4414 -1.6229 -0.4336
23000SOL     OW72401   4.418   7.667   4.244 -0.5744  0.5358  0.1413
23000SOL    HW172402   4.432   7.720   4.166  0.3244 -0.9946 -0.7775
23000SOL    HW272403   4.396   7.580   4.211 -0.6769 -0.0247  1.6017
23001SOL     OW72404   6.270   4.202   1.043 -0.2424  0.2152 -0.6512
23001SOL    HW172405   6.210   4.277   1.040 -1.0104 -0.2698  1.1408
23001SOL    HW272406   6.357   4.240   1.053 -0.6308  0.8884  0.2963
23002SOL     OW72407   6.378   5.516   0.208 -0.1200 -0.3720  0.1592
23002SOL    HW172408   6.472   5.523   0.229  0.4658  0.6926 -2.4230
23002SOL    HW272409   6.334   5.539   0.290  1.8542 -1.2322  1.5409
23003SOL     OW72410   7.142   6.901   9.946 -0.1384 -0.3944 -0.0069
23003SOL    HW172411   7.073   6.835   9.944 -1.8021  1.0656  2.5967
23003SOL    HW272412   7.118   6.958  10.020  3.1487  0.9983  0.1507
23004SOL     OW72413   1.182   3.732   4.428 -0.0761 -0.0525  0.0013
23004SOL    HW172414   1.252   3.673   4.457  1.8645  1.7631 -0.7693
23004SOL    HW272415   1.224   3.791   4.365 -2.4197  0.8580 -0.8214
23005SOL     OW72416   4.200   9.028   6.682  0.3409 -0.7329 -0.1455
23005SOL    HW172417   4.142   8.988   6.618 -0.5746  0.5664 -0.1620
23005SOL    HW272418   4.262   8.959   6.705 -0.8782 -1.9865 -0.5331
23006SOL     OW72419   2.187   6.002   9.676 -0.0430  0.0377  0.0594
23006SOL    HW172420   2.171   5.908   9.680 -1.1455  0.2324  0.5145
23006SOL    HW272421   2.100   6.042   9.685  0.5368  1.1273  1.0084
23007SOL     OW72422   0.854   6.608   9.899  0.2439  0.0661  0.1821
23007SOL    HW172423   0.766   6.575   9.916 -0.3584  1.8799  0.8358
23007SOL    HW272424   0.849   6.648   9.812  0.4447  0.1137  0.1918
23008SOL     OW72425   1.096   7.166   0.741  0.3311  0.0909 -0.0640
23008SOL    HW172426   1.185   7.201   0.752  0.3731 -0.1176  0.2512
23008SOL    HW272427   1.068   7.143   0.829  0.0640 -0.0920 -0.1972
23009SOL     OW72428   3.515  10.337   9.328 -0.6616  0.0624 -0.6503
23009SOL    HW172429   3.593  10.348   9.274 -0.0759  1.1339  0.3643
23009SOL    HW272430   3.462  10.414   9.311 -1.9513 -1.0725 -1.9884
23010SOL     OW72431   1.127   5.581  10.091  0.8025  0.6429  0.4160
23010SOL    HW172432   1.085   5.525  10.025  0.1011  0.2519  1.1798
23010SOL    HW272433   1.096   5.669  10.070 -0.6734  0.3362  1.1248
23011SOL     OW72434   6.055   8.325   0.486 -0.1900 -0.6101  0.4180
23011SOL    HW172435   6.077   8.400   0.430  0.3827 -0.9459  0.1784
23011SOL    HW272436   6.026   8.257   0.426  1.3267 -1.2929  0.4089
23012SOL     OW72437   8.324   9.743   3.055  0.7178 -0.1641  0.1572
23012SOL    HW172438   8.319   9.820   2.998  1.5857 -1.0016 -1.1005
23012SOL    HW272439   8.412   9.745   3.091  0.4475 -0.1068  0.8454
23013SOL     OW72440   3.566   2.387   2.262  0.3226  0.2472 -0.1099
23013SOL    HW172441   3.648   2.338   2.257 -0.4071 -1.2552  1.7657
23013SOL    HW272442   3.516   2.360   2.185  0.0185 -1.8847  0.7809
23014SOL     OW72443   4.686   0.053   1.523 -0.1108  0.1303 -0.2662
23014SOL    HW172444   4.647   0.079   1.606 -0.2175  0.1826 -0.3326
23014SOL    HW272445   4.616   0.008   1.476  0.4661 -1.6024  0.4359
23015SOL     OW72446   4.545   5.549   1.244  0.2657  0.2719  0.2265
23015SOL    HW172447   4.488   5.584   1.175 -0.2860 -1.3439 -0.1833
23015SOL    HW272448   4.551   5.456   1.225  0.1570 -0.2074  2.3349
23016SOL     OW72449   8.205   4.681   1.076  0.5357  0.2012  1.0478
23016SOL    HW172450   8.249   4.759   1.040  0.9223 -0.4345  0.1125
23016SOL    HW272451   8.119   4.713   1.103  1.0242  1.1494  1.5334
23017SOL     OW72452   1.466   8.686  10.687  0.5215 -0.2634 -0.0533
23017SOL    HW172453   1.553   8.649  10.670 -0.1522 -1.9928  0.1012
23017SOL    HW272454   1.407   8.635  10.632 -0.2476  2.0734 -1.5545
23018SOL     OW72455  10.725   6.072   8.297 -0.1368 -0.2190 -0.0087
23018SOL    HW172456  10.820   6.065   8.287 -0.1520 -0.3056 -0.0824
23018SOL    HW272457  10.704   6.006   8.363 -0.1930 -0.4463 -0.2525
23019SOL     OW72458   3.032   1.937   3.987 -0.4365 -0.3340  0.1544
23019SOL    HW172459   2.972   2.000   3.948 -0.9043  0.4448  2.0245
23019SOL    HW272460   2.981   1.893   4.055  0.8441 -0.2601  1.2220
23020SOL     OW72461   0.039   7.574   1.904 -0.1223 -0.1000  0.1353
23020SOL    HW172462   0.133   7.570   1.916  0.0996  0.6298 -1.2711
23020SOL    HW272463   0.009   7.641   1.966  0.4003  0.3383 -0.0851
23021SOL     OW72464   2.396   3.761   8.335  0.2380 -0.8263  0.5341
23021SOL    HW172465   2.445   3.800   8.262  0.4269  0.7667  1.4648
23021SOL    HW272466   2.386   3.669   8.311  0.1605 -0.3132 -1.5735
23022SOL     OW72467   0.067   0.457   3.515 -0.0861 -0.2695 -0.2937
23022SOL    HW172468   0.019   0.536   3.489  0.5645  0.3214  0.2600
23022SOL    HW272469   0.160   0.481   3.507  0.1894 -0.0683  2.3583
23023SOL     OW72470   9.376   3.055   8.321 -0.5604 -0.0079 -0.1758
23023SOL    HW172471   9.317   2.982   8.307 -0.8390  0.3586 -0.9951
23023SOL    HW272472   9.338   3.127   8.271  1.4390 -0.2201 -2.2005
23024SOL     OW72473   3.842   3.006   8.373  0.4117 -0.4047  0.0641
23024SOL    HW172474   3.863   2.915   8.396 -0.2274 -0.4409  0.5541
23024SOL    HW272475   3.911   3.057   8.415  2.9786 -0.8205 -3.2356
23025SOL     OW72476   9.812   9.341   6.274  0.7887 -0.1614  0.5609
23025SOL    HW172477   9.767   9.302   6.348 -2.0329  2.8188  0.6554
23025SOL    HW272478   9.761   9.314   6.198  1.1849  0.0823  0.2059
23026SOL     OW72479   1.970   4.725   6.605  0.0570 -0.2035 -0.2058
23026SOL    HW172480   1.961   4.770   6.521 -0.8142 -1.2115 -0.6732
23026SOL    HW272481   1.914   4.648   6.597 -0.9159  0.2390  1.6887
23027SOL     OW72482   4.354   9.738   8.811  0.1606  0.1595  0.2046
23027SOL    HW172483   4.368   9.733   8.905  0.2674 -1.1127  0.1358
23027SOL    HW272484   4.360   9.647   8.780  1.0586  0.6383 -1.1570
23028SOL     OW72485  10.259   5.778   5.061 -0.4059  0.6249 -0.1338
23028SOL    HW172486  10.319   5.805   4.991  0.4074 -1.4913 -0.3222
23028SOL    HW272487  10.181   5.747   5.016 -1.5173  2.8598  0.0977
23029SOL     OW72488   5.940   5.672   8.270  0.3372 -0.2600  0.0443
23029SOL    HW172489   5.874   5.607   8.292  0.4366 -0.5720 -0.5541
23029SOL    HW272490   6.024   5.632   8.295  0.3298  0.0392  0.5799
23030SOL     OW72491   9.232   0.463   3.885 -0.4008 -0.2248  0.2591
23030SOL    HW172492   9.145   0.489   3.855 -0.1804  0.5324  0.2770
23030SOL    HW272493   9.292   0.497   3.819 -0.1746 -1.6982 -0.3502
23031SOL     OW72494   4.654   6.240  10.112  0.1659  0.4554 -0.0671
23031SOL    HW172495   4.582   6.245  10.050  0.7635  2.7213 -0.6926
23031SOL    HW272496   4.613   6.229  10.198 -0.8687  0.9278 -0.4946
23032SOL     OW72497   8.586  10.513   5.417 -0.3558 -0.3468  0.3990
23032SOL    HW172498   8.501  10.557   5.420 -0.2584 -0.0829 -0.4534
23032SOL    HW272499   8.597  10.489   5.325  0.2338 -0.9019  0.6053
23033SOL     OW72500   1.806   8.237   6.071  0.0810 -0.1511 -0.4554
23033SOL    HW172501   1.749   8.166   6.044 -1.5427  1.2673 -0.9522
23033SOL    HW272502   1.829   8.282   5.989  0.4047  0.3585 -0.0918
23034SOL     OW72503   6.853   1.981   8.667  0.0291 -0.2588 -0.0642
23034SOL    HW172504   6.870   2.021   8.753  1.2530  2.6325 -1.5146
23034SOL    HW272505   6.927   1.922   8.653 -0.2699 -0.8854  0.9053
23035SOL     OW72506   4.399   6.792  10.191 -0.5505 -0.2646  1.3618
23035SOL    HW172507   4.401   6.858  10.121 -2.7631 -0.2662  1.1998
23035SOL    HW272508   4.451   6.719  10.157 -0.0020  0.4804  0.5414
23036SOL     OW72509   4.928   0.812   7.587  0.2619  0.2579 -0.3916
23036SOL    HW172510   5.007   0.760   7.603 -0.1345  0.1000  1.1600
23036SOL    HW272511   4.864   0.748   7.553 -0.1335 -0.2550  1.2377
23037SOL     OW72512   2.892   6.553   1.389 -0.4022  0.1016  0.0345
23037SOL    HW172513   2.987   6.546   1.382 -0.4176 -0.4752  0.3527
23037SOL    HW272514   2.877   6.637   1.432 -0.0504  0.3346 -0.2954
23038SOL     OW72515   0.646  10.580   2.351 -0.0630 -0.4908  0.0506
23038SOL    HW172516   0.678  10.538   2.431  0.4929 -0.4135 -0.1283
23038SOL    HW272517   0.725  10.604   2.303 -0.3912 -0.3429 -0.4240
23039SOL     OW72518   0.321   3.121   3.671  0.6559  0.5881  0.1188
23039SOL    HW172519   0.366   3.089   3.593  0.8868  0.6926  0.2078
23039SOL    HW272520   0.234   3.145   3.641 -0.5563 -2.7227  0.5114
23040SOL     OW72521   3.831   4.140   9.546  0.1056  0.8908 -0.3697
23040SOL    HW172522   3.925   4.139   9.528  0.2127 -0.1258  0.2087
23040SOL    HW272523   3.819   4.073   9.614 -1.4696 -1.2883 -2.6422
23041SOL     OW72524   2.465   2.530   1.679  0.2387  0.1105 -0.2090
23041SOL    HW172525   2.404   2.467   1.642 -0.7919  1.3928 -0.7892
23041SOL    HW272526   2.491   2.493   1.763  0.4435 -1.5375 -0.9706
23042SOL     OW72527   3.793   6.233   3.255  0.1305 -0.1806  0.1859
23042SOL    HW172528   3.763   6.313   3.298  1.0190  1.8186 -2.6351
23042SOL    HW272529   3.872   6.208   3.303  0.2897  1.0805  0.6006
23043SOL     OW72530   0.838   6.598   3.820 -0.5594  0.6338 -0.3510
23043SOL    HW172531   0.819   6.538   3.892 -2.9214 -0.4400 -1.7540
23043SOL    HW272532   0.919   6.565   3.782  0.6174  1.0970  1.5979
23044SOL     OW72533   6.916   2.672   2.497  0.3185  0.3813  0.3794
23044SOL    HW172534   6.885   2.607   2.434 -1.8877  1.8057 -0.1165
23044SOL    HW272535   6.989   2.716   2.452 -0.6450  0.7717 -0.8421
23045SOL     OW72536   3.000   2.646   1.484  0.3371 -0.1073  0.3175
23045SOL    HW172537   3.021   2.562   1.441 -0.6549 -0.4386  0.4500
23045SOL    HW272538   2.905   2.653   1.476  0.2290  0.2185  1.7523
23046SOL     OW72539   2.537   6.206   8.453  0.0152  0.4549 -0.5533
23046SOL    HW172540   2.485   6.159   8.387  2.4109 -2.1063 -0.8320
23046SOL    HW272541   2.574   6.281   8.406 -1.9786  1.3609 -0.7753
23047SOL     OW72542   7.887   8.780   1.196 -0.2243  0.0494  0.4542
23047SOL    HW172543   7.848   8.836   1.129 -1.4848 -1.9047 -0.5483
23047SOL    HW272544   7.960   8.830   1.231 -0.1988  1.5666 -1.6369
23048SOL     OW72545   1.632   3.658   1.459  0.3207  0.1307 -0.5717
23048SOL    HW172546   1.697   3.661   1.529 -1.2468 -0.9129  1.0129
23048SOL    HW272547   1.583   3.739   1.468 -1.1867 -0.8940  0.9236
23049SOL     OW72548   0.305   3.104   4.581  0.5870  0.1786 -0.7586
23049SOL    HW172549   0.229   3.133   4.531 -0.0299 -1.8955 -1.1236
23049SOL    HW272550   0.327   3.178   4.637 -0.7716  1.3530 -1.7133
23050SOL     OW72551   8.733   7.253   0.727 -0.3610  0.6883  0.2165
23050SOL    HW172552   8.717   7.256   0.821 -1.1492  0.8102  0.0886
23050SOL    HW272553   8.806   7.192   0.717 -0.3112  0.6272  0.9007
23051SOL     OW72554   4.364   9.571   6.165  0.1199 -0.1458 -0.4517
23051SOL    HW172555   4.348   9.629   6.091  2.1134 -0.5862 -1.2891
23051SOL    HW272556   4.367   9.629   6.242 -0.4843  0.5042 -0.9141
23052SOL     OW72557  10.685   3.468   6.247  0.1116 -0.3373  0.1160
23052SOL    HW172558  10.743   3.537   6.216 -1.2781  0.8660  0.1023
23052SOL    HW272559  10.597   3.504   6.238 -0.6843 -2.2410 -0.1823
23053SOL     OW72560   0.729   4.918   2.741  0.1592 -0.5037  0.2778
23053SOL    HW172561   0.640   4.908   2.776 -0.0649 -1.7291 -0.6042
23053SOL    HW272562   0.764   4.829   2.739  0.4756 -0.3636 -1.7922
23054SOL     OW72563   0.574   1.473   7.822 -0.3816  0.1580 -0.2746
23054SOL    HW172564   0.534   1.534   7.884 -1.8600 -1.3274  0.3054
23054SOL    HW272565   0.623   1.412   7.876 -0.7932 -0.5106 -0.6371
23055SOL     OW72566   3.507   2.178   8.238  0.0068  0.4978 -0.0392
23055SOL    HW172567   3.494   2.122   8.314  2.5631  1.3352  1.1227
23055SOL    HW272568   3.552   2.123   8.174  0.1919  0.4920  0.0944
23056SOL     OW72569   8.572   7.400   4.539  0.0194 -0.0443  0.0636
23056SOL    HW172570   8.532   7.400   4.626  2.4144 -0.1865  1.2549
23056SOL    HW272571   8.595   7.491   4.523  0.3272 -0.1395 -0.0434
23057SOL     OW72572   6.352   1.622   2.976 -0.0379 -0.3313  0.3177
23057SOL    HW172573   6.422   1.572   2.934 -0.9137 -1.0528 -0.3143
23057SOL    HW272574   6.332   1.692   2.914 -0.6001 -0.7624  0.0043
23058SOL     OW72575   7.496   9.358   9.055 -0.8488  0.2476 -0.0289
23058SOL    HW172576   7.488   9.263   9.067 -1.9949  0.3535  0.2225
23058SOL    HW272577   7.588   9.377   9.076 -0.1499 -1.0111 -1.7472
23059SOL     OW72578   6.196   9.517  10.482  0.2388  0.4308  0.3399
23059SOL    HW172579   6.218   9.430  10.449 -1.0246 -0.0837  0.7770
23059SOL    HW272580   6.215   9.577  10.410  0.7347 -0.2482 -0.1008
23060SOL     OW72581  10.628   8.021   7.463 -0.1346  0.6613  0.2902
23060SOL    HW172582  10.623   8.084   7.535 -0.4950  0.0790  0.7782
23060SOL    HW272583  10.538   8.012   7.432 -0.7402 -2.1600  2.4585
23061SOL     OW72584  10.722   1.409   5.300 -0.2866 -0.0095 -0.3988
23061SOL    HW172585  10.650   1.448   5.251 -0.5579  0.5619  0.4340
23061SOL    HW272586  10.723   1.318   5.272 -1.2644  0.0004 -0.5134
23062SOL     OW72587   2.597   7.087   7.173  0.1836  0.0116  0.6386
23062SOL    HW172588   2.592   7.124   7.260 -2.3275  1.2471  0.0371
23062SOL    HW272589   2.647   7.151   7.122 -0.7823  0.7003  0.5333
23063SOL     OW72590   7.210   5.113  10.254 -0.1777 -0.2605 -0.3257
23063SOL    HW172591   7.209   5.202  10.220 -0.4818  0.1897  0.8170
23063SOL    HW272592   7.137   5.069  10.211  0.5322 -0.2516 -1.5954
23064SOL     OW72593   8.605  10.732   9.177 -0.8207 -0.1575  0.1339
23064SOL    HW172594   8.534  10.741   9.241 -0.9481 -0.6151  0.0646
23064SOL    HW272595   8.674  10.789   9.210 -0.8106 -0.5358  0.7965
23065SOL     OW72596  10.464   2.243   3.029 -0.2864  0.2890 -0.3473
23065SOL    HW172597  10.501   2.157   3.049  0.6388  0.9281  0.8418
23065SOL    HW272598  10.445   2.281   3.115  1.1019  2.0024 -0.7341
23066SOL     OW72599   8.785   2.199   0.742  0.4202 -0.3167  0.3413
23066SOL    HW172600   8.746   2.200   0.654 -1.6511 -1.1712  1.1917
23066SOL    HW272601   8.712   2.175   0.800  1.7468  0.1942  2.2966
23067SOL     OW72602  10.384   0.836   4.402  0.1829 -0.0807  0.4224
23067SOL    HW172603  10.344   0.762   4.449 -2.3492  1.8865  1.6496
23067SOL    HW272604  10.448   0.871   4.464 -1.1093  0.7891  1.3070
23068SOL     OW72605   7.481  10.888   5.945  0.1288 -0.4184 -0.4411
23068SOL    HW172606   7.459  10.807   5.991 -1.7894  0.3408  0.1143
23068SOL    HW272607   7.463  10.869   5.853  0.4487 -0.8573 -0.4157
23069SOL     OW72608   6.958   6.725   9.979  0.5797 -0.0786 -0.2431
23069SOL    HW172609   6.864   6.724   9.996  0.5912 -1.6843 -0.0850
23069SOL    HW272610   6.996   6.683  10.057  1.3915  0.2479 -0.4569
23070SOL     OW72611   6.432   1.850   8.486  0.4398  0.3395  0.4437
23070SOL    HW172612   6.505   1.911   8.483 -0.1014  0.9570 -0.5698
23070SOL    HW272613   6.460   1.776   8.433  0.0286  0.9403 -0.6435
23071SOL     OW72614   9.622   7.140   9.987  0.0381  0.0759 -0.0800
23071SOL    HW172615   9.606   7.172  10.076 -1.2773  1.0633 -0.6292
23071SOL    HW272616   9.671   7.059   9.999  0.2376  0.4002  1.5227
23072SOL     OW72617   6.063   2.290   6.718 -0.3459 -0.2094 -0.5032
23072SOL    HW172618   5.999   2.225   6.687  1.2416 -1.6660 -0.8754
23072SOL    HW272619   6.148   2.249   6.701  0.6802  1.1252  1.1542
23073SOL     OW72620   9.005   0.058   3.676  0.6304 -0.3639  0.5317
23073SOL    HW172621   9.068   0.046   3.747  1.0433 -4.4613 -0.3030
23073SOL    HW272622   9.036  -0.000   3.607 -0.2446  2.7820 -2.7966
23074SOL     OW72623   9.359   0.818   4.565  0.2283 -0.1052 -0.0264
23074SOL    HW172624   9.413   0.897   4.559  0.3447 -0.0118  1.7954
23074SOL    HW272625   9.365   0.778   4.478  1.8285  0.7961 -0.3624
23075SOL     OW72626   3.677   5.696   1.226  0.3240  0.3424 -0.4922
23075SOL    HW172627   3.747   5.636   1.249 -0.4005  0.2298  1.6532
23075SOL    HW272628   3.631   5.653   1.154 -1.0819 -2.5499  1.9071
23076SOL     OW72629   7.463   3.393   5.815  0.2326 -0.6506  0.0648
23076SOL    HW172630   7.409   3.470   5.833 -0.6203 -1.4762  1.1478
23076SOL    HW272631   7.423   3.323   5.865  2.6415 -1.1893  1.4134
23077SOL     OW72632   5.116   2.739   5.539 -0.1839  0.2250 -0.1564
23077SOL    HW172633   5.210   2.757   5.532 -0.2083 -0.2430 -2.6219
23077SOL    HW272634   5.074   2.824   5.526 -0.1038  0.1779 -0.7741
23078SOL     OW72635   3.334   6.885   5.904 -0.1894 -0.1953 -0.3845
23078SOL    HW172636   3.367   6.965   5.945 -1.5579 -0.2133  0.8472
23078SOL    HW272637   3.269   6.915   5.842 -0.3790 -0.3265 -0.2501
23079SOL     OW72638  10.671   5.763   9.401  0.4296  0.1287  0.7864
23079SOL    HW172639  10.639   5.835   9.455 -0.5533  0.0409  0.3305
23079SOL    HW272640  10.639   5.684   9.445 -1.8657  0.1002 -0.8125
23080SOL     OW72641   8.959   1.211  10.121  0.4416 -0.1588 -0.2102
23080SOL    HW172642   8.917   1.288  10.081  0.1485 -1.2032 -2.0228
23080SOL    HW272643   8.965   1.233  10.214 -0.4117  1.6987 -0.5380
23081SOL     OW72644   2.343   5.282   3.005  0.1136 -0.0333  0.2606
23081SOL    HW172645   2.436   5.256   3.005  0.0432 -0.2854  0.6250
23081SOL    HW272646   2.300   5.217   2.949  0.2680  0.4883 -0.4723
23082SOL     OW72647   2.094   4.806   2.629  0.0522 -0.6587  0.1739
23082SOL    HW172648   2.052   4.860   2.696 -0.3495 -0.0359 -0.5437
23082SOL    HW272649   2.119   4.726   2.673  0.2888 -0.0374  1.1854
23083SOL     OW72650   7.421   8.325   3.446  0.5031 -0.3823  0.5003
23083SOL    HW172651   7.473   8.395   3.406  0.9176 -0.5725  0.7113
23083SOL    HW272652   7.476   8.248   3.443 -0.5474 -1.1218 -1.2008
23084SOL     OW72653   9.061  10.236   8.076 -0.1232  0.1700 -0.1403
23084SOL    HW172654   9.119  10.312   8.074  0.5642 -0.2726  1.4467
23084SOL    HW272655   8.975  10.272   8.099 -0.5372  0.8190 -2.4382
23085SOL     OW72656   9.255   5.785   5.943 -0.2656 -0.0240 -0.3323
23085SOL    HW172657   9.310   5.728   5.997  0.5645  1.4202  0.4174
23085SOL    HW272658   9.187   5.727   5.908  0.6597 -1.4924  0.2176
23086SOL     OW72659   5.819  10.441   4.330 -0.0876  0.1905 -0.5319
23086SOL    HW172660   5.857  10.526   4.351 -0.5974  0.5044 -0.8472
23086SOL    HW272661   5.726  10.451   4.348 -0.1594 -0.2828 -0.6266
23087SOL     OW72662   4.984   7.374   2.390 -0.1975 -0.4812 -0.2664
23087SOL    HW172663   5.027   7.290   2.371 -1.8282 -1.6479  0.9843
23087SOL    HW272664   4.923   7.354   2.460 -1.2742  1.5840 -0.5661
23088SOL     OW72665   2.941   5.036   8.175  0.2471  0.0688 -0.0164
23088SOL    HW172666   2.981   5.091   8.242  1.8665 -0.0661 -0.8377
23088SOL    HW272667   2.924   5.095   8.102 -2.0213  0.3338  0.6481
23089SOL     OW72668   4.383   1.662   3.329  0.6339  0.1414  0.2360
23089SOL    HW172669   4.461   1.718   3.329  1.1158 -0.5126  1.1453
23089SOL    HW272670   4.389   1.612   3.410 -1.2044  0.7143  0.7652
23090SOL     OW72671  10.174  10.305   3.506 -0.1420 -0.7464  0.0106
23090SOL    HW172672  10.169  10.371   3.437  0.5593  0.0325  0.6777
23090SOL    HW272673  10.098  10.324   3.563  0.0552 -0.5101  0.1983
23091SOL     OW72674   9.936   4.824  10.426 -0.1717  0.2786 -0.0937
23091SOL    HW172675   9.935   4.831  10.331  0.8083  1.5514 -0.0422
23091SOL    HW272676   9.888   4.744  10.445 -1.1764  0.4850 -1.6057
23092SOL     OW72677   4.452   6.437   8.080 -0.0225  0.4784 -0.2031
23092SOL    HW172678   4.495   6.419   8.164 -0.4279 -1.2488 -0.3160
23092SOL    HW272679   4.359   6.448   8.102 -0.1259  0.0485 -0.3953
23093SOL     OW72680   0.885   5.648   6.347 -0.1089 -0.3205  0.4232
23093SOL    HW172681   0.912   5.605   6.428 -0.2355  0.2158  0.7509
23093SOL    HW272682   0.941   5.610   6.280  1.5685  0.8668  1.0964
23094SOL     OW72683   8.887   6.991   6.971  0.5793  0.0378 -0.6636
23094SOL    HW172684   8.840   6.917   7.009  1.7168  0.7057  2.3765
23094SOL    HW272685   8.963   6.952   6.928 -0.5957 -0.7433 -2.0966
23095SOL     OW72686   0.566   9.225   7.851 -0.5155  0.0105 -0.4669
23095SOL    HW172687   0.497   9.233   7.785 -2.0650  3.9559  1.3392
23095SOL    HW272688   0.520   9.197   7.930  0.9632 -2.5456 -0.4151
23096SOL     OW72689   8.017   6.579   3.510  0.1802 -0.6124  0.1252
23096SOL    HW172690   8.026   6.649   3.575  0.3497 -0.9134  0.4338
23096SOL    HW272691   8.063   6.505   3.549 -0.1902 -0.9642 -0.1014
23097SOL     OW72692   8.157   1.956   3.664  0.4571 -0.3020  0.1718
23097SOL    HW172693   8.197   1.884   3.713  0.6331 -0.5851 -0.3770
23097SOL    HW272694   8.092   1.993   3.724 -0.8569 -2.0001 -0.1220
23098SOL     OW72695   7.632   5.165   9.114 -0.2512  0.2374  0.0162
23098SOL    HW172696   7.653   5.128   9.028 -0.9915  1.8398 -0.9004
23098SOL    HW272697   7.717   5.170   9.159  0.2927  0.1844 -0.9683
23099SOL     OW72698   9.378   6.248   7.347  0.0467 -0.7313  0.3769
23099SOL    HW172699   9.421   6.313   7.403  2.1163 -2.5482  1.0564
23099SOL    HW272700   9.371   6.170   7.403 -3.5783 -0.7883  0.0260
23100SOL     OW72701   0.079   4.738   2.757  0.7124 -0.4982  0.0788
23100SOL    HW172702   0.124   4.800   2.814  0.3549  0.4281 -0.6157
23100SOL    HW272703  -0.001   4.784   2.731 -0.0228 -1.6215  0.2888
23101SOL     OW72704   9.229   1.118   2.136  0.0146  0.2665  0.5144
23101SOL    HW172705   9.308   1.093   2.184 -0.4641 -0.2338  1.0602
23101SOL    HW272706   9.260   1.180   2.069  0.9251 -0.2192  0.4653
23102SOL     OW72707   5.288   0.294   0.808 -0.3926 -0.1718 -0.4066
23102SOL    HW172708   5.339   0.317   0.732 -0.6859  1.4104 -0.1492
23102SOL    HW272709   5.253   0.207   0.788 -1.3718  0.6476 -2.5631
23103SOL     OW72710  10.661   0.433   0.489  0.0674  0.3833 -0.2216
23103SOL    HW172711  10.750   0.438   0.524  0.5979  1.2929 -1.6058
23103SOL    HW272712  10.670   0.384   0.407 -0.6079  0.9073 -0.6217
23104SOL     OW72713   4.276   3.818   2.705  0.3641 -0.3279  0.1433
23104SOL    HW172714   4.221   3.848   2.632 -1.0080 -0.3994  1.1019
23104SOL    HW272715   4.278   3.893   2.765  2.1357  0.0098 -0.2939
23105SOL     OW72716   3.349   9.707   0.037  0.0155 -0.4212  0.3623
23105SOL    HW172717   3.327   9.641  -0.029 -1.4299 -0.5390  0.9387
23105SOL    HW272718   3.370   9.656   0.115 -3.1668 -0.2699  1.4601
23106SOL     OW72719  10.637   4.816   1.861  0.0643 -0.4213 -0.3048
23106SOL    HW172720  10.558   4.808   1.808  0.2617 -0.1280 -0.6513
23106SOL    HW272721  10.611   4.871   1.935 -0.1866 -0.7476 -0.1473
23107SOL     OW72722   2.810  10.194   3.751  0.3448  0.3729 -0.0842
23107SOL    HW172723   2.882  10.235   3.703  1.3899 -0.3947  0.8009
23107SOL    HW272724   2.818  10.228   3.840  0.0347 -0.2719  0.1901
23108SOL     OW72725   1.612   8.653   9.817  0.3666 -0.8174 -0.2162
23108SOL    HW172726   1.546   8.692   9.760  0.9097  0.5234  0.0266
23108SOL    HW272727   1.668   8.603   9.758  2.2405  2.2927 -1.3560
23109SOL     OW72728   6.027   0.891   6.831  0.0529  0.0110  0.4190
23109SOL    HW172729   6.019   0.868   6.738 -0.1074  0.4222  0.3294
23109SOL    HW272730   5.990   0.816   6.877 -0.0388 -0.1143  0.1449
23110SOL     OW72731   9.868   5.183   1.419 -0.0285  0.2242  0.4821
23110SOL    HW172732   9.888   5.276   1.415 -2.0125  0.6899  0.4049
23110SOL    HW272733   9.940   5.145   1.471  1.8394  1.4326 -1.0746
23111SOL     OW72734   8.776   8.284   4.469  0.1274 -0.3500 -0.3420
23111SOL    HW172735   8.853   8.340   4.478 -0.0546 -0.2959  1.2507
23111SOL    HW272736   8.797   8.206   4.520 -0.3421 -0.9403 -1.0365
23112SOL     OW72737   1.532   2.063   8.695 -0.4540 -0.5381  0.5662
23112SOL    HW172738   1.466   2.104   8.638  0.0769  0.1394  0.4283
23112SOL    HW272739   1.603   2.127   8.699  0.3904 -1.4474  0.3658
23113SOL     OW72740   9.432   4.506   5.022  1.0499  0.3440 -0.9883
23113SOL    HW172741   9.518   4.502   5.065  0.5002  0.8537  0.1993
23113SOL    HW272742   9.408   4.598   5.025  0.1901  0.1158 -0.7755
23114SOL     OW72743   2.560   2.593   7.796 -0.0093 -0.8848 -0.3177
23114SOL    HW172744   2.583   2.630   7.882 -0.0442  0.0178 -0.6844
23114SOL    HW272745   2.600   2.506   7.796  2.4110  0.1323 -0.4536
23115SOL     OW72746   8.957   8.918   5.063 -0.0520 -0.1196  0.4740
23115SOL    HW172747   8.962   8.968   5.144 -1.9997 -0.4418  0.8513
23115SOL    HW272748   8.991   8.831   5.086 -0.9888 -0.3387  1.0883
23116SOL     OW72749   2.997   1.944   9.973 -0.2711  0.0633 -0.3904
23116SOL    HW172750   3.010   1.859   9.931 -1.0722 -0.5128  0.4779
23116SOL    HW272751   3.036   2.007   9.912 -0.4867 -0.8299 -1.4954
23117SOL     OW72752   3.832  10.603   3.859  0.4844  0.1673 -0.2329
23117SOL    HW172753   3.881  10.609   3.941  0.6827 -1.5959 -0.1930
23117SOL    HW272754   3.764  10.538   3.876  0.1559  0.2094 -1.2846
23118SOL     OW72755   9.179   5.702   7.420  0.9416  0.2810 -0.3279
23118SOL    HW172756   9.248   5.647   7.381  0.0181 -0.9018 -0.3598
23118SOL    HW272757   9.129   5.642   7.476 -0.6215  0.8618 -1.0226
23119SOL     OW72758  10.627   8.534   7.674 -0.3350 -0.0681 -0.4387
23119SOL    HW172759  10.623   8.487   7.757 -1.0305  0.0303 -0.4051
23119SOL    HW272760  10.586   8.619   7.693  1.3004  0.7435 -0.3859
23120SOL     OW72761   8.839   5.509   1.367 -0.2070  0.2989  0.2280
23120SOL    HW172762   8.745   5.506   1.350 -0.3506  1.0255  0.8342
23120SOL    HW272763   8.874   5.568   1.300 -0.2471  0.3344  0.2382
23121SOL     OW72764   5.068   1.021   7.446 -0.1703  0.3224  0.0027
23121SOL    HW172765   5.033   1.082   7.382 -0.3950 -0.2070 -0.3831
23121SOL    HW272766   4.991   0.977   7.482  0.0762 -0.7255 -0.7281
23122SOL     OW72767   8.472   0.188   4.451  0.1667  0.1748  0.4556
23122SOL    HW172768   8.545   0.188   4.513  0.7308 -1.6589 -0.1410
23122SOL    HW272769   8.514   0.198   4.366 -0.3291 -0.2840  0.1574
23123SOL     OW72770   2.821   6.458   9.301  0.1914 -0.1975 -0.1153
23123SOL    HW172771   2.768   6.536   9.315  1.4534  0.6716 -0.0160
23123SOL    HW272772   2.875   6.452   9.380 -0.4493 -1.6557  0.2543
23124SOL     OW72773   2.446   5.403  10.426  0.1126  0.4362  0.0225
23124SOL    HW172774   2.533   5.395  10.466  0.0895 -1.0139 -0.1434
23124SOL    HW272775   2.412   5.486  10.457  1.7393  1.2517 -0.2592
23125SOL     OW72776  10.582  10.096   6.987  0.2117 -0.1712  0.0372
23125SOL    HW172777  10.549  10.177   7.024 -1.2898 -0.4247 -0.6693
23125SOL    HW272778  10.640  10.060   7.055  1.6723  1.9020 -0.0075
23126SOL     OW72779   8.746   0.314   2.220 -0.0223 -0.4483 -0.1759
23126SOL    HW172780   8.718   0.249   2.155 -0.7067  0.0907 -0.4283
23126SOL    HW272781   8.828   0.349   2.185  0.7925 -1.7429  0.3628
23127SOL     OW72782   7.954   1.702   6.629  0.4345 -0.7782  0.0140
23127SOL    HW172783   7.945   1.647   6.551 -0.4226  1.1367 -1.3209
23127SOL    HW272784   8.038   1.747   6.616  0.2702 -0.4278  0.1510
23128SOL     OW72785   1.400   5.601   0.526 -0.3190  0.6467  0.9311
23128SOL    HW172786   1.362   5.688   0.509 -0.6408  0.6879  1.8344
23128SOL    HW272787   1.387   5.587   0.619 -0.7471 -0.6096  0.6979
23129SOL     OW72788  10.145   9.823   9.500 -0.1668  0.4447  0.2032
23129SOL    HW172789  10.159   9.765   9.425  1.8506 -0.4389  1.1844
23129SOL    HW272790  10.233   9.854   9.522 -0.9894  2.4212  0.8776
23130SOL     OW72791   1.126   6.112   2.308  0.2051 -0.1507 -0.7428
23130SOL    HW172792   1.198   6.168   2.277  0.2247 -0.5260 -1.3921
23130SOL    HW272793   1.065   6.173   2.349  0.1498  0.3875 -1.5825
23131SOL     OW72794   0.911   9.079   3.971  0.1407  0.0119  0.1693
23131SOL    HW172795   1.002   9.088   3.999  0.0389 -1.4416  1.0770
23131SOL    HW272796   0.859   9.098   4.049 -0.2398 -1.4437  0.2923
23132SOL     OW72797  10.497   2.950   5.597 -0.1696  0.4763 -0.1087
23132SOL    HW172798  10.462   2.877   5.648  2.6089 -0.6108  0.4557
23132SOL    HW272799  10.529   3.012   5.662  1.5073  0.0406 -0.4400
23133SOL     OW72800  10.043   0.921   9.975 -0.3999 -0.2873  0.0997
23133SOL    HW172801  10.082   1.008   9.980  0.4935 -0.7272  1.1425
23133SOL    HW272802   9.952   0.937   9.950 -1.2141  1.2085  3.5050
23134SOL     OW72803   1.585   8.961   4.932  0.1000 -0.4930  0.3058
23134SOL    HW172804   1.599   9.017   4.856 -1.5180  0.3345  0.5676
23134SOL    HW272805   1.618   8.875   4.905  1.5485  0.2776 -0.5235
23135SOL     OW72806   1.007  10.106   6.946 -0.3718 -0.3209 -0.3129
23135SOL    HW172807   0.934  10.162   6.919 -0.7596 -1.2453 -1.2527
23135SOL    HW272808   1.082  10.165   6.950 -1.2047  0.7057  0.9452
23136SOL     OW72809   6.598   6.498   2.475  0.5955  0.8728  0.4837
23136SOL    HW172810   6.663   6.563   2.448  1.3899 -0.2162 -0.2990
23136SOL    HW272811   6.647   6.416   2.481 -0.7435 -0.0370 -0.3844
23137SOL     OW72812   0.176   4.637   0.084 -0.3006 -1.1693 -0.1603
23137SOL    HW172813   0.220   4.589   0.154  0.6814 -0.6595 -0.4110
23137SOL    HW272814   0.185   4.729   0.108  0.1887 -0.9772 -1.0233
23138SOL     OW72815   3.227   6.001  10.756  0.0532  0.0246  0.2131
23138SOL    HW172816   3.321   5.982  10.756 -0.1436 -1.3438 -1.8569
23138SOL    HW272817   3.220   6.089  10.718  0.4465 -0.7852 -1.8781
23139SOL     OW72818  10.131   6.070   9.234  0.4703  0.1932  0.4329
23139SOL    HW172819  10.192   6.004   9.267  0.6204 -0.7934 -1.6653
23139SOL    HW272820  10.187   6.140   9.201  0.3725  0.3810  0.6580
23140SOL     OW72821   0.470   9.657   6.965 -0.1766 -0.1361 -0.7578
23140SOL    HW172822   0.453   9.609   7.046 -2.3357  2.2832  0.4150
23140SOL    HW272823   0.563   9.646   6.949 -0.2950 -3.4391  0.1340
23141SOL     OW72824   0.778  10.410   4.784  0.3726  0.0185 -0.0384
23141SOL    HW172825   0.828  10.487   4.757  0.4942  0.3576  1.1103
23141SOL    HW272826   0.693  10.421   4.741 -0.6692  2.3328  2.2808
23142SOL     OW72827   8.806   5.851   5.480  0.5175 -0.4086 -0.3622
23142SOL    HW172828   8.850   5.827   5.562 -0.3784 -0.9327 -0.0127
23142SOL    HW272829   8.790   5.768   5.436  0.9375 -0.1341 -1.0523
23143SOL     OW72830  10.586   3.313   8.724 -0.2704 -0.1828 -0.1376
23143SOL    HW172831  10.590   3.406   8.747  0.8788 -0.3446  0.4270
23143SOL    HW272832  10.668   3.277   8.759 -1.3315 -1.6954  0.9206
23144SOL     OW72833   1.805   7.286   4.960 -1.2626 -0.5117 -0.3816
23144SOL    HW172834   1.851   7.212   5.001  0.6533  0.1933 -1.1456
23144SOL    HW272835   1.714   7.274   4.985 -0.7517 -2.2353  0.8556
23145SOL     OW72836   3.978   9.349   3.639  0.1209 -0.3700  0.4628
23145SOL    HW172837   4.007   9.388   3.722 -0.9779  0.8070  0.3221
23145SOL    HW272838   3.993   9.417   3.574 -2.7568  0.3145  0.3610
23146SOL     OW72839   0.892   8.006   8.333  0.3931  0.5246 -0.5896
23146SOL    HW172840   0.826   7.959   8.281  2.6175 -1.1731 -2.0888
23146SOL    HW272841   0.944   8.053   8.268  0.5248  2.1070  0.5967
23147SOL     OW72842   7.886   5.768   7.084 -0.6805 -0.3982  0.3255
23147SOL    HW172843   7.959   5.819   7.048 -0.6796  1.1304  2.3019
23147SOL    HW272844   7.855   5.715   7.011  0.6682  0.9324 -1.2947
23148SOL     OW72845   2.605   5.665   0.029  0.0108 -0.0366  0.3190
23148SOL    HW172846   2.514   5.656   0.055 -0.1181 -0.9858 -0.3824
23148SOL    HW272847   2.622   5.587  -0.025  1.1227  0.3141  0.1358
23149SOL     OW72848   2.541   8.024   4.787 -0.5004  0.0855  0.6308
23149SOL    HW172849   2.549   8.029   4.882  1.6341  1.2924  0.4645
23149SOL    HW272850   2.448   8.012   4.771 -1.3355  2.6083  2.8073
23150SOL     OW72851   8.711  10.488   9.112 -0.2314  0.4246  0.1147
23150SOL    HW172852   8.654  10.413   9.095  1.6517 -0.6984 -1.6687
23150SOL    HW272853   8.651  10.562   9.122 -2.0316 -0.8599 -0.6943
23151SOL     OW72854   9.395   4.860  10.769 -0.0685  0.7230 -0.2403
23151SOL    HW172855   9.397   4.779  10.720 -0.5690  0.1221  0.6938
23151SOL    HW272856   9.459   4.917  10.726  0.0456 -0.0431 -1.0975
23152SOL     OW72857   9.098   3.158   5.529 -0.2930  0.0363 -0.0664
23152SOL    HW172858   9.093   3.156   5.434 -0.3073  0.4759 -0.0745
23152SOL    HW272859   9.075   3.069   5.556 -0.1591 -0.1249 -0.4777
23153SOL     OW72860   8.473   6.532   6.493 -0.2647  0.9663 -0.0519
23153SOL    HW172861   8.534   6.587   6.444  0.1352  0.9315  0.4065
23153SOL    HW272862   8.437   6.472   6.427  1.1345  0.1519 -0.1001
23154SOL     OW72863   3.641   4.957   5.836 -0.5988 -0.7924 -0.0367
23154SOL    HW172864   3.721   4.945   5.785 -0.7112  0.0525 -0.4267
23154SOL    HW272865   3.653   4.902   5.913  0.3784 -0.6385 -0.0740
23155SOL     OW72866   3.563   1.405   6.447  0.3002 -0.9248  0.0924
23155SOL    HW172867   3.549   1.487   6.493  0.2903 -1.1421  0.4773
23155SOL    HW272868   3.658   1.391   6.450  0.6615  0.4203 -2.2962
23156SOL     OW72869   5.380   9.403   5.984 -0.4143 -0.3058 -0.1701
23156SOL    HW172870   5.358   9.452   5.904 -1.6757  0.4339  0.5940
23156SOL    HW272871   5.297   9.362   6.010 -0.1112 -0.2441  0.9438
23157SOL     OW72872   3.470   2.798  10.201  0.5042 -0.7562 -1.2111
23157SOL    HW172873   3.513   2.879  10.173  0.3663 -0.5390 -0.8163
23157SOL    HW272874   3.450   2.751  10.120 -0.0939 -0.0414 -1.4934
23158SOL     OW72875   3.853   6.914   3.553 -0.2374 -0.4597  1.0363
23158SOL    HW172876   3.910   6.946   3.484  0.0070  0.5450  1.6910
23158SOL    HW272877   3.836   6.822   3.530  0.3065 -0.2992 -0.0316
23159SOL     OW72878   5.307   6.475   4.567  0.0030 -0.5260  0.0915
23159SOL    HW172879   5.236   6.494   4.506  0.4143  0.8522  0.0151
23159SOL    HW272880   5.271   6.409   4.627 -1.8674  1.1965  0.9694
23160SOL     OW72881   2.182   3.195   7.701  0.6420  0.2038  0.4560
23160SOL    HW172882   2.111   3.211   7.639 -0.1289 -0.5945  1.1118
23160SOL    HW272883   2.260   3.185   7.646 -0.0506 -0.6798 -0.4006
23161SOL     OW72884   9.971   5.893   7.682 -0.8748  1.1448 -0.1793
23161SOL    HW172885   9.986   5.858   7.594 -1.9762  2.5661 -0.9649
23161SOL    HW272886   9.989   5.987   7.674 -1.8883  1.4542  0.8762
23162SOL     OW72887   2.199   8.201   1.115  0.0639  0.6788 -0.4021
23162SOL    HW172888   2.182   8.279   1.168  1.5372  0.2667  0.7256
23162SOL    HW272889   2.243   8.140   1.174 -0.1483 -0.6300 -1.5449
23163SOL     OW72890   7.561   6.328   4.137 -0.0127 -0.3539  0.0729
23163SOL    HW172891   7.629   6.367   4.081  1.7516 -0.3575  2.0798
23163SOL    HW272892   7.545   6.395   4.203  0.1809 -1.4869  1.2999
23164SOL     OW72893   3.907   4.535   6.773 -0.1839  0.0921  0.1753
23164SOL    HW172894   3.957   4.525   6.854 -1.7858  1.0307  1.3452
23164SOL    HW272895   3.876   4.625   6.775 -2.1793 -0.5341 -0.3042
23165SOL     OW72896   6.953   2.179   8.459  0.0954  0.2051  0.0092
23165SOL    HW172897   6.930   2.124   8.533  1.9753  0.0289  0.5347
23165SOL    HW272898   7.045   2.203   8.475  0.2114  1.0785 -1.6943
23166SOL     OW72899   8.295   4.093   2.648 -0.0174  0.2062 -0.1542
23166SOL    HW172900   8.282   4.108   2.554  0.1675  0.3373 -0.1600
23166SOL    HW272901   8.378   4.044   2.652 -0.2102 -0.1203 -0.0835
23167SOL     OW72902   3.957   5.267   9.192 -0.2230 -0.0454 -0.3985
23167SOL    HW172903   3.984   5.183   9.229 -0.3414  0.2069  0.2798
23167SOL    HW272904   4.006   5.332   9.242 -2.5274  0.4697  1.3578
23168SOL     OW72905   5.318   4.203   7.798 -0.2132  0.0752  0.1491
23168SOL    HW172906   5.244   4.149   7.826 -0.6754 -0.0935 -1.3155
23168SOL    HW272907   5.281   4.290   7.786  0.1190  0.2898  0.6374
23169SOL     OW72908   4.896   1.963  10.246  0.1480 -0.0539  0.1996
23169SOL    HW172909   4.964   1.931  10.187  0.2730 -1.0218  0.8415
23169SOL    HW272910   4.814   1.946  10.200  0.1923 -1.6283  0.6393
23170SOL     OW72911   4.027  10.637   7.819 -0.5827  0.0176  0.0133
23170SOL    HW172912   3.953  10.682   7.859 -0.4905  1.7418 -1.6395
23170SOL    HW272913   4.101  10.696   7.832  0.0786 -0.7529 -0.1473
23171SOL     OW72914   4.556   5.129   7.278 -0.6272 -0.1865 -0.1394
23171SOL    HW172915   4.618   5.066   7.242 -1.1191  0.3046 -1.9531
23171SOL    HW272916   4.477   5.078   7.294  0.2761 -0.8875  2.5084
23172SOL     OW72917   7.647   0.466  10.061 -0.1547 -0.0602 -0.2274
23172SOL    HW172918   7.721   0.476  10.121  0.4253 -1.1651 -0.7291
23172SOL    HW272919   7.610   0.381  10.082 -0.7974  0.1454 -0.5190
23173SOL     OW72920  10.703   4.595  10.343 -0.2318  0.7595  0.0330
23173SOL    HW172921  10.716   4.578  10.249 -1.0231  2.2257 -0.3668
23173SOL    HW272922  10.748   4.678  10.359  0.6745  0.0801  1.1769
23174SOL     OW72923   5.120   4.867   3.710  0.2285  0.3886 -0.2215
23174SOL    HW172924   5.062   4.941   3.697 -0.8717 -0.0986  1.6680
23174SOL    HW272925   5.192   4.901   3.763 -0.1784  0.1735  0.4813
23175SOL     OW72926   4.025   2.759   5.519 -0.1123 -0.3949 -0.3011
23175SOL    HW172927   4.064   2.827   5.573  0.2696 -2.1616  1.8183
23175SOL    HW272928   3.955   2.722   5.573 -1.1629 -0.8525 -1.8936
23176SOL     OW72929   8.751   8.327   1.534 -0.1119 -0.4014 -0.3928
23176SOL    HW172930   8.745   8.348   1.441  0.9819 -2.6683 -1.0561
23176SOL    HW272931   8.678   8.267   1.549  0.4172 -0.9791 -0.0988
23177SOL     OW72932   3.773   9.470   7.290  0.2731 -0.4230 -0.2844
23177SOL    HW172933   3.832   9.396   7.274 -0.6356 -0.8463 -1.8665
23177SOL    HW272934   3.809   9.512   7.368  0.5431 -2.8087  0.9694
23178SOL     OW72935   5.524   1.311   7.498 -0.0856 -0.2593  0.3097
23178SOL    HW172936   5.432   1.312   7.471  0.1013 -3.0531 -0.6955
23178SOL    HW272937   5.569   1.358   7.428 -0.5549 -0.3147 -0.0360
23179SOL     OW72938   2.862   0.764   8.203 -0.3703 -0.4294 -0.2630
23179SOL    HW172939   2.796   0.833   8.205 -1.0382 -0.9881 -1.6341
23179SOL    HW272940   2.834   0.702   8.270 -1.3373 -0.7434 -0.9489
23180SOL     OW72941   4.615   3.654   4.509  0.5708  0.1591 -0.7426
23180SOL    HW172942   4.696   3.603   4.514  0.4769  0.0767  0.1430
23180SOL    HW272943   4.615   3.707   4.589 -0.0747  0.4251 -0.9120
23181SOL     OW72944   8.728   1.019  10.640  0.2538  0.2626  0.6956
23181SOL    HW172945   8.657   1.056  10.692  0.5663  3.3874 -0.8551
23181SOL    HW272946   8.784   0.973  10.703  0.0390  2.9300  2.9694
23182SOL     OW72947   0.517   9.447   9.491  0.0720 -0.5267  0.0467
23182SOL    HW172948   0.549   9.536   9.506  0.6992 -0.9490  1.3794
23182SOL    HW272949   0.596   9.393   9.492 -0.4369 -1.3016  1.0516
23183SOL     OW72950   0.311   7.604   2.248 -0.1627 -0.3117  0.0511
23183SOL    HW172951   0.332   7.571   2.336 -0.7981  2.1735  1.2467
23183SOL    HW272952   0.272   7.530   2.203  2.4760 -2.3961  0.9515
23184SOL     OW72953   6.715   9.568   2.574  0.2384  0.5476  0.6166
23184SOL    HW172954   6.657   9.542   2.503  0.0978  2.2828  0.0344
23184SOL    HW272955   6.665   9.631   2.625  0.5233 -0.2848  1.9877
23185SOL     OW72956   0.020   1.101   3.329  0.1809 -0.4710 -0.6741
23185SOL    HW172957   0.037   1.193   3.350 -0.7788 -0.5525  0.5639
23185SOL    HW272958   0.012   1.100   3.233 -0.7137  0.9107 -0.6416
23186SOL     OW72959   3.556  10.406  10.119 -0.4717 -0.5463 -0.3597
23186SOL    HW172960   3.518  10.328  10.080  1.6809 -1.9256  0.1513
23186SOL    HW272961   3.552  10.391  10.213 -0.6775  0.3015 -0.2196
23187SOL     OW72962   9.388   0.981   1.115  0.4946  0.4925  0.2172
23187SOL    HW172963   9.328   0.911   1.143  0.4573 -0.6190 -2.3432
23187SOL    HW272964   9.331   1.056   1.100 -0.0613 -0.0885 -0.6801
23188SOL     OW72965   1.882   6.822   1.175 -0.1291 -0.3048  0.2055
23188SOL    HW172966   1.939   6.834   1.099 -1.5964 -0.7072 -0.9988
23188SOL    HW272967   1.865   6.911   1.207 -0.5787 -0.0315 -0.7711
23189SOL     OW72968   0.527   4.682   9.728 -0.3440 -0.3533  0.4342
23189SOL    HW172969   0.612   4.652   9.759 -1.5376 -3.3257  1.1908
23189SOL    HW272970   0.531   4.673   9.633  0.0506 -0.9323  0.5016
23190SOL     OW72971   3.275   7.996   2.993  0.0625  0.2017  0.6067
23190SOL    HW172972   3.344   8.056   2.964  1.3427 -0.4211  2.2552
23190SOL    HW272973   3.205   8.053   3.025  0.5475  0.8259  0.5638
23191SOL     OW72974   0.976   8.907   7.271 -0.3831 -0.0088  0.5975
23191SOL    HW172975   0.880   8.897   7.275 -0.3608 -0.6577 -0.2452
23191SOL    HW272976   1.006   8.885   7.360 -0.7482 -3.1874  0.0562
23192SOL     OW72977   9.146   8.833   9.349 -0.2387 -0.0834 -0.1497
23192SOL    HW172978   9.081   8.865   9.412 -0.0765  0.5124 -0.2840
23192SOL    HW272979   9.217   8.897   9.354 -0.4711  0.2821 -1.3495
23193SOL     OW72980   0.328   3.246   2.962  0.6450  0.3830 -0.1342
23193SOL    HW172981   0.310   3.185   3.033  0.4111  1.3686  0.6657
23193SOL    HW272982   0.277   3.323   2.982  1.2391  1.0075 -0.9267
23194SOL     OW72983   2.335  10.410   6.911 -0.1812 -0.6149  0.0131
23194SOL    HW172984   2.372  10.322   6.900 -0.8622 -0.8667 -0.3476
23194SOL    HW272985   2.375  10.462   6.842  2.4279  0.1403  1.9092
23195SOL     OW72986   3.917   2.335   5.861  0.1460  0.0744  0.5404
23195SOL    HW172987   3.911   2.340   5.766 -1.3868  1.3289  0.6634
23195SOL    HW272988   3.826   2.323   5.890  0.5791 -0.1944  1.8545
23196SOL     OW72989   6.035   2.679   8.206 -0.0555 -0.1793  0.4193
23196SOL    HW172990   6.020   2.672   8.111 -0.2552  0.3013  0.4121
23196SOL    HW272991   5.959   2.729   8.238  0.8689  1.1699  0.5738
23197SOL     OW72992   7.938   2.324   2.544 -0.3033 -0.4185  0.0797
23197SOL    HW172993   7.948   2.241   2.498  0.9456  0.0267 -0.5184
23197SOL    HW272994   7.998   2.317   2.619  1.3152  0.6256 -1.0438
23198SOL     OW72995   1.188   9.539   4.339 -0.0678  0.2392 -0.2781
23198SOL    HW172996   1.221   9.600   4.273  2.5004  0.4577  1.0878
23198SOL    HW272997   1.094   9.556   4.342  0.0209  1.4943 -2.5590
23199SOL     OW72998   0.853   1.868  10.350 -0.5297 -0.1449 -0.0814
23199SOL    HW172999   0.878   1.925  10.277 -0.5981  0.4737  0.3795
23199SOL    HW273000   0.833   1.784  10.308 -1.2678  0.4076 -0.8594
23200SOL     OW73001   4.142   9.743   3.764 -0.1176 -0.7405 -0.6095
23200SOL    HW173002   4.233   9.724   3.786 -0.0256  0.9036  0.6619
23200SOL    HW273003   4.091   9.701   3.833 -0.3203 -1.3467 -1.1152
23201SOL     OW73004  10.619   4.217   2.489  1.1441 -0.3461 -0.4713
23201SOL    HW173005  10.580   4.167   2.417 -0.8860  0.0150  0.2910
23201SOL    HW273006  10.568   4.299   2.491  1.3668 -0.2156  1.1440
23202SOL     OW73007   8.700   6.602   7.250 -0.2759 -0.7090  0.7405
23202SOL    HW173008   8.732   6.523   7.293  1.0446 -1.4917 -1.5131
23202SOL    HW273009   8.606   6.603   7.268 -0.2515 -2.5715  1.1441
23203SOL     OW73010   8.219   6.660   4.838 -0.8188  0.4008 -0.1583
23203SOL    HW173011   8.206   6.672   4.744  1.2743  0.1656 -0.5375
23203SOL    HW273012   8.313   6.674   4.850 -0.9659 -0.1091  1.8189
23204SOL     OW73013   6.806   5.472   2.043  0.0360 -0.5994  0.0193
23204SOL    HW173014   6.859   5.480   1.964 -0.3804  0.2281 -0.1900
23204SOL    HW273015   6.837   5.392   2.085  0.5922 -0.7883 -0.7322
23205SOL     OW73016   6.164   3.079   7.437  0.1493  0.7100  0.1969
23205SOL    HW173017   6.232   3.147   7.443 -0.9790  1.9067 -0.2603
23205SOL    HW273018   6.208   3.005   7.395  1.2891  1.3024  0.3090
23206SOL     OW73019   0.722   3.629   5.327  0.3718  0.0240  0.2000
23206SOL    HW173020   0.783   3.594   5.392  0.8568  0.6650  0.0961
23206SOL    HW273021   0.739   3.723   5.326 -0.6168  0.2115  0.1587
23207SOL     OW73022   2.990   1.068   4.536  0.2257  0.3398  0.5529
23207SOL    HW173023   2.972   0.975   4.552 -1.4773  0.7189  1.0929
23207SOL    HW273024   2.973   1.080   4.443 -0.6654  0.3164  0.7017
23208SOL     OW73025   4.805   6.275   5.951  0.5215  0.1056 -0.2774
23208SOL    HW173026   4.806   6.192   6.000 -0.8305  0.2821  0.0768
23208SOL    HW273027   4.767   6.338   6.012  1.3799  0.9743 -0.6081
23209SOL     OW73028   2.440   2.048   6.923 -0.3546  0.0268 -0.3510
23209SOL    HW173029   2.517   2.073   6.871 -1.0089  1.6865 -0.5765
23209SOL    HW273030   2.386   1.998   6.862  0.1877 -0.4785 -0.4202
23210SOL     OW73031   3.723   0.024   3.321 -0.5206 -0.4519  0.0523
23210SOL    HW173032   3.716  -0.071   3.332  0.4708 -1.0741 -3.4250
23210SOL    HW273033   3.635   0.052   3.298 -0.5390 -0.7861 -0.2947
23211SOL     OW73034   8.790   4.506   4.293  0.0603  0.1487 -0.2835
23211SOL    HW173035   8.765   4.424   4.251 -0.0850 -0.4598  0.9322
23211SOL    HW273036   8.714   4.529   4.347 -0.2406  1.5491 -1.2605
23212SOL     OW73037   5.626   8.179   0.985 -0.5435 -0.1912 -0.1463
23212SOL    HW173038   5.669   8.190   1.070 -0.5626  0.2056 -0.1857
23212SOL    HW273039   5.681   8.228   0.924  0.2419 -1.5954 -0.6225
23213SOL     OW73040   2.982   4.792   1.434  0.3993  0.0729 -0.0370
23213SOL    HW173041   2.896   4.823   1.463  1.0916 -0.2338  2.5497
23213SOL    HW273042   2.967   4.702   1.405 -0.2614  0.2684 -0.3265
23214SOL     OW73043  10.593   9.934   5.142  0.6242 -0.0124 -0.2712
23214SOL    HW173044  10.538   9.948   5.219  1.6828  0.5284  0.4122
23214SOL    HW273045  10.625  10.021   5.119  2.2720 -0.4615  0.1933
23215SOL     OW73046   9.034   8.270   6.361 -0.3137 -0.3218  0.0312
23215SOL    HW173047   9.012   8.196   6.303 -1.2082 -0.1487  0.1392
23215SOL    HW273048   9.128   8.283   6.347 -0.2234 -1.2058 -0.3116
23216SOL     OW73049   3.790   9.648   9.381 -0.4272  0.0816 -0.4940
23216SOL    HW173050   3.841   9.724   9.354 -0.2091 -0.2826 -1.1329
23216SOL    HW273051   3.826   9.624   9.466 -0.3352  0.5504 -0.4012
23217SOL     OW73052   8.526   3.572   1.699  0.2496  0.1046 -0.1753
23217SOL    HW173053   8.531   3.618   1.783 -1.4617 -0.7254  0.4130
23217SOL    HW273054   8.601   3.606   1.650  0.6346  1.4579  1.2454
23218SOL     OW73055   6.815   2.465  10.700 -0.2218 -0.1006  0.2288
23218SOL    HW173056   6.897   2.417  10.713 -0.0995  0.3974  1.5189
23218SOL    HW273057   6.841   2.557  10.703 -0.7496  0.0563  0.0787
23219SOL     OW73058   9.099  10.394   4.968 -0.4509  0.3781 -0.3200
23219SOL    HW173059   9.091  10.357   5.056  0.1967 -0.3280 -0.5461
23219SOL    HW273060   9.193  10.398   4.952 -0.5812 -0.3688 -1.3423
23220SOL     OW73061   0.833   8.191   5.160 -0.0485  0.8080  0.3951
23220SOL    HW173062   0.920   8.224   5.184  0.2224  1.5088 -1.3898
23220SOL    HW273063   0.822   8.217   5.069 -1.7566 -0.1054  0.3016
23221SOL     OW73064   1.393   9.361  10.564 -0.5225 -0.4553 -0.1874
23221SOL    HW173065   1.479   9.380  10.528 -0.3724  2.7456  1.4679
23221SOL    HW273066   1.410   9.322  10.650 -0.7640 -0.9807 -0.3720
23222SOL     OW73067   6.697   1.495   2.588  0.2796 -0.1642  0.0859
23222SOL    HW173068   6.767   1.499   2.524  0.6233 -0.3983  0.4429
23222SOL    HW273069   6.698   1.404   2.620 -0.4285 -0.2715 -0.1784
23223SOL     OW73070  10.828   9.308   9.804 -0.4635 -0.1398 -0.1217
23223SOL    HW173071  10.880   9.376   9.846  0.0532 -0.8942  0.4893
23223SOL    HW273072  10.893   9.251   9.762 -0.9167  0.0377 -1.1018
23224SOL     OW73073   5.110   7.968  10.623 -0.0068  0.1608  0.0366
23224SOL    HW173074   5.087   7.993  10.533 -0.5087 -0.1728  0.0681
23224SOL    HW273075   5.096   8.048  10.674  2.6651  1.1030 -0.5466
23225SOL     OW73076   1.119   0.652   4.607  0.3834  0.2832 -0.5403
23225SOL    HW173077   1.214   0.648   4.619  0.3751  1.9259  0.2319
23225SOL    HW273078   1.105   0.721   4.543 -0.2970 -0.1755 -0.9061
23226SOL     OW73079   6.078   5.466   2.491 -0.3636  0.0536 -0.0528
23226SOL    HW173080   6.161   5.510   2.474  0.8258 -1.6350  1.0545
23226SOL    HW273081   6.103   5.382   2.530 -2.6065 -0.4329  0.4697
23227SOL     OW73082  10.713   5.532   6.981 -0.4970 -0.2815 -0.0832
23227SOL    HW173083  10.739   5.622   6.960  1.7825 -0.4096  1.7381
23227SOL    HW273084  10.725   5.484   6.899  1.0867  0.5537 -0.3883
23228SOL     OW73085   8.304   7.414   3.301  0.3057  0.4806  0.7700
23228SOL    HW173086   8.292   7.459   3.384  0.3854 -0.2749  1.1961
23228SOL    HW273087   8.236   7.346   3.300 -0.8238  1.5481 -0.5475
23229SOL     OW73088   1.444   9.048   6.680 -0.1456  0.1195  0.3039
23229SOL    HW173089   1.483   9.136   6.674  1.7921 -0.7163  0.0700
23229SOL    HW273090   1.438   9.019   6.589  0.9114 -0.6887  0.4845
23230SOL     OW73091   2.316   2.607   7.689 -0.2382 -0.0046 -0.1009
23230SOL    HW173092   2.406   2.606   7.720 -0.3312  0.0282  0.1678
23230SOL    HW273093   2.291   2.699   7.690 -0.3370 -0.0319  0.0058
23231SOL     OW73094   1.563   0.773   7.736  0.1360  0.0035  0.0494
23231SOL    HW173095   1.626   0.799   7.803  3.5590  0.6588 -3.1150
23231SOL    HW273096   1.498   0.844   7.736  0.1096  0.0743  2.4260
23232SOL     OW73097   8.371   0.338   6.802 -0.0396  0.0311 -0.6343
23232SOL    HW173098   8.452   0.321   6.753 -0.3358 -1.8657 -0.5284
23232SOL    HW273099   8.301   0.309   6.745 -0.5057 -0.4302  0.1517
23233SOL     OW73100   3.701   0.466  10.340  0.7369  0.3535 -0.5069
23233SOL    HW173101   3.742   0.510  10.415  0.2815  0.4251 -0.2944
23233SOL    HW273102   3.774   0.444  10.283  1.0203  0.9849 -0.4026
23234SOL     OW73103  10.115   7.407   1.368  0.0875  0.2800  0.3749
23234SOL    HW173104  10.167   7.367   1.438 -1.1637 -1.8876  0.1527
23234SOL    HW273105  10.131   7.501   1.377  1.4988 -0.0859  2.3201
23235SOL     OW73106  10.168   8.563   4.650  0.0577 -0.6386 -0.3411
23235SOL    HW173107  10.196   8.647   4.614 -0.5885 -0.5650 -0.6775
23235SOL    HW273108  10.179   8.501   4.577  0.2623 -0.7923 -0.1804
23236SOL     OW73109   0.761   5.262   5.960 -0.1448  0.2689  0.3051
23236SOL    HW173110   0.768   5.352   5.929 -1.6804  0.4846  0.4768
23236SOL    HW273111   0.757   5.209   5.880 -0.3595  0.4748  0.1766
23237SOL     OW73112   6.451   2.707   8.419 -0.2502  0.1905  0.0614
23237SOL    HW173113   6.505   2.653   8.477 -0.8980  0.6936  1.1613
23237SOL    HW273114   6.472   2.675   8.331  1.4390  0.0191  0.4860
23238SOL     OW73115   4.842   8.683   5.430 -0.0052  0.4045 -0.7684
23238SOL    HW173116   4.798   8.704   5.513  0.5209 -0.3111 -0.3018
23238SOL    HW273117   4.820   8.756   5.373  1.9260  2.3811  0.8487
23239SOL     OW73118   7.672   7.186   4.325 -0.0928  0.1621  0.0759
23239SOL    HW173119   7.756   7.174   4.371  0.2563 -1.4654 -0.9150
23239SOL    HW273120   7.641   7.272   4.354  1.0160 -0.0020  1.8976
23240SOL     OW73121   9.074   3.551   7.358  0.0481 -0.3245  0.1744
23240SOL    HW173122   9.128   3.472   7.363 -0.0653 -0.5461 -1.4933
23240SOL    HW273123   9.098   3.601   7.436  2.4561 -0.5607 -0.3179
23241SOL     OW73124   6.651   0.050   5.048 -0.2079  1.1512 -0.4223
23241SOL    HW173125   6.614   0.093   4.972 -2.8252  2.1920  1.2904
23241SOL    HW273126   6.646  -0.044   5.028  1.1253  1.4445 -2.3058
23242SOL     OW73127   6.722   7.004   2.914  0.0018  0.0353  0.1648
23242SOL    HW173128   6.696   6.922   2.871 -0.9580 -0.8946  2.3631
23242SOL    HW273129   6.639   7.047   2.934  0.4857  2.7084 -2.8313
23243SOL     OW73130   2.792   9.842   9.064  0.2504  0.3858  0.3212
23243SOL    HW173131   2.848   9.825   8.988 -1.4369 -1.1300 -0.6771
23243SOL    HW273132   2.771   9.935   9.058  1.3642  0.6300 -0.1634
23244SOL     OW73133   5.685   6.452   1.860  0.3764 -0.3918  0.5733
23244SOL    HW173134   5.644   6.445   1.773  0.1178  1.2527  0.5396
23244SOL    HW273135   5.757   6.514   1.848 -0.5568  0.9966  1.8081
23245SOL     OW73136   6.676   3.965   5.939 -0.3523 -0.1168  0.1801
23245SOL    HW173137   6.630   4.042   5.972  0.4412  0.0772  0.8739
23245SOL    HW273138   6.629   3.942   5.858 -0.3219  1.3695 -0.2988
23246SOL     OW73139   4.897   8.977   7.168 -0.8234  0.3905 -0.4543
23246SOL    HW173140   4.960   8.994   7.098 -1.7448  1.6110 -1.0106
23246SOL    HW273141   4.833   8.918   7.129 -0.9436  0.4941 -0.4134
23247SOL     OW73142   2.291   3.653  10.056 -0.3914  0.1154  0.1189
23247SOL    HW173143   2.299   3.726   9.994  0.6122 -0.3046 -0.2742
23247SOL    HW273144   2.376   3.651  10.100 -0.1083 -1.3025 -0.4463
23248SOL     OW73145  10.897   1.842   3.456 -0.0159 -1.0192  0.4177
23248SOL    HW173146  10.924   1.911   3.395  0.1173 -1.4269  0.0074
23248SOL    HW273147  10.963   1.844   3.525  0.7832 -1.6545 -0.3058
23249SOL     OW73148   5.237   8.696   6.914  0.1910  0.4073  0.0797
23249SOL    HW173149   5.196   8.644   6.983  0.0772 -0.8590 -0.9035
23249SOL    HW273150   5.167   8.753   6.882  0.2226  0.9457  0.9211
23250SOL     OW73151  10.490  10.275   4.166  0.1716 -0.1558  0.0795
23250SOL    HW173152  10.571  10.307   4.128  0.0465 -0.2450 -0.2638
23250SOL    HW273153  10.421  10.323   4.121  0.0086 -0.4671 -0.0106
23251SOL     OW73154   6.038   0.050   7.213  0.0618  0.1642  0.4667
23251SOL    HW173155   6.098   0.024   7.282 -0.2373 -2.3021 -0.1163
23251SOL    HW273156   5.994  -0.031   7.187 -0.8725  1.2558 -1.6323
23252SOL     OW73157   9.170   8.640   7.568  0.2445 -1.0935 -0.3163
23252SOL    HW173158   9.105   8.709   7.562  1.5525  0.1926 -0.1611
23252SOL    HW273159   9.168   8.612   7.659  1.4263  0.4993  0.2305
23253SOL     OW73160   6.848   2.371   5.686  0.8095 -0.5918 -0.1512
23253SOL    HW173161   6.815   2.286   5.712  1.2688 -0.8196 -0.2918
23253SOL    HW273162   6.847   2.423   5.766 -1.0748 -0.1801 -0.3931
23254SOL     OW73163   8.575   7.438  10.257 -0.1487 -0.1109  0.0892
23254SOL    HW173164   8.520   7.405  10.328  1.0402 -0.4718  0.8726
23254SOL    HW273165   8.664   7.411  10.281  0.4223  0.7552 -0.9640
23255SOL     OW73166   5.816   9.413   9.817  0.2804  0.0560  0.0652
23255SOL    HW173167   5.759   9.362   9.759  0.4385  1.5195 -1.4421
23255SOL    HW273168   5.764   9.427   9.896 -0.0438 -1.7575  0.2153
23256SOL     OW73169   6.480   9.508   0.071  0.2335 -0.2248 -0.0038
23256SOL    HW173170   6.523   9.440   0.123  1.5013  0.1035 -0.5756
23256SOL    HW273171   6.447   9.462  -0.006 -1.2844 -0.6398  0.8548
23257SOL     OW73172   3.801   4.489   8.345 -0.1499 -0.6042  0.2008
23257SOL    HW173173   3.820   4.583   8.342  0.0473 -0.6625 -1.8468
23257SOL    HW273174   3.820   4.463   8.435  2.0122  0.8690  0.2375
23258SOL     OW73175   8.632   6.141   2.930 -0.3666  0.0421  0.5283
23258SOL    HW173176   8.719   6.167   2.901 -0.0428  0.6025  1.9706
23258SOL    HW273177   8.601   6.213   2.984 -2.6420  0.8629 -1.6478
23259SOL     OW73178   9.654   3.952   0.923 -0.1939  0.1072  0.4568
23259SOL    HW173179   9.667   3.970   0.830 -2.8542  2.5246  0.3882
23259SOL    HW273180   9.600   3.873   0.925 -1.6086  0.9989 -0.2501
23260SOL     OW73181   6.090   9.829   4.188  0.2839  0.0340  0.8935
23260SOL    HW173182   6.084   9.792   4.276  0.5153 -0.9161  0.5203
23260SOL    HW273183   6.117   9.920   4.202 -0.5788  0.1662  1.8403
23261SOL     OW73184   0.376   9.943   9.731  0.2073 -0.0539 -0.2524
23261SOL    HW173185   0.303   9.881   9.727  1.3555 -1.4035 -2.0802
23261SOL    HW273186   0.384   9.965   9.824 -1.8492 -0.6478  0.1190
23262SOL     OW73187   3.310   5.023   9.294  0.0237  0.5823 -0.5580
23262SOL    HW173188   3.285   5.059   9.209 -2.7511  1.6829  0.6022
23262SOL    HW273189   3.237   5.045   9.352  0.1512 -3.2152  1.3366
23263SOL     OW73190   2.792   1.135   8.528  0.0348  0.4409  0.2443
23263SOL    HW173191   2.722   1.200   8.534  0.9874  1.6241 -0.8591
23263SOL    HW273192   2.843   1.161   8.452  0.7946 -1.2924  0.1118
23264SOL     OW73193   3.846   7.471   5.048  0.1692  0.6741 -0.6782
23264SOL    HW173194   3.783   7.512   4.989 -0.1365  0.5606 -0.4374
23264SOL    HW273195   3.922   7.528   5.046  0.5904  0.0983 -2.0313
23265SOL     OW73196   2.828   6.876   6.422 -0.0378  0.0913  0.1835
23265SOL    HW173197   2.754   6.892   6.363  0.1925 -1.0251 -0.4517
23265SOL    HW273198   2.797   6.806   6.480  0.0647  0.5472  0.8001
23266SOL     OW73199   1.663   3.432   6.278 -0.7696  0.5770 -0.4703
23266SOL    HW173200   1.593   3.404   6.336 -0.4300 -0.0475 -0.3644
23266SOL    HW273201   1.683   3.355   6.225  1.2929  0.0695  0.9298
23267SOL     OW73202   5.596   2.119   4.679 -0.4795  0.6677 -0.0983
23267SOL    HW173203   5.516   2.066   4.682  0.0505 -0.1724 -0.2540
23267SOL    HW273204   5.601   2.160   4.766 -0.2882 -0.4991  0.4698
23268SOL     OW73205   4.275   3.462   9.131 -0.4822 -0.1927 -0.2804
23268SOL    HW173206   4.249   3.543   9.086 -1.0147  0.0275  0.4106
23268SOL    HW273207   4.218   3.395   9.094 -0.1745 -0.2202 -0.7124
23269SOL     OW73208   5.227   1.781   6.248  0.8900 -0.2512 -0.5824
23269SOL    HW173209   5.276   1.855   6.211  1.4759  0.1611  0.9265
23269SOL    HW273210   5.285   1.705   6.236  1.5840  0.0868  0.4344
23270SOL     OW73211   4.282   7.826   7.658 -1.0536 -0.1779 -0.4913
23270SOL    HW173212   4.364   7.799   7.617 -0.8528  0.9390 -0.8808
23270SOL    HW273213   4.223   7.752   7.647 -0.5482 -0.4416 -1.5259
23271SOL     OW73214   1.362   1.129   4.087  0.5629 -0.6802  0.3138
23271SOL    HW173215   1.295   1.139   4.019  0.9707  1.4695  0.1454
23271SOL    HW273216   1.444   1.121   4.039  0.5183 -3.0511  0.5287
23272SOL     OW73217   8.512  10.090  10.139 -0.0228  0.7969  0.2366
23272SOL    HW173218   8.510  10.012  10.194  0.2385  0.5072 -0.1589
23272SOL    HW273219   8.428  10.090  10.094  0.2340  0.3854 -0.2503
23273SOL     OW73220   2.064  10.438   7.704 -0.6149  0.1335 -0.1972
23273SOL    HW173221   2.102  10.455   7.618  0.4111  0.3828  0.2939
23273SOL    HW273222   2.018  10.354   7.694 -2.0863  1.0327 -1.4692
23274SOL     OW73223   7.891  10.321   5.511 -0.4217  0.2949  0.2700
23274SOL    HW173224   7.978  10.299   5.546 -0.2064  1.6303  0.6241
23274SOL    HW273225   7.886  10.416   5.517 -1.1976  0.3941 -1.4568
23275SOL     OW73226   6.252   9.146   3.365  0.1019 -0.0668 -0.0570
23275SOL    HW173227   6.171   9.112   3.403  1.1142 -1.2658  1.0852
23275SOL    HW273228   6.282   9.212   3.428  0.4510 -0.2191 -0.0660
23276SOL     OW73229   1.324   2.251   5.250  0.6588  0.5319  0.3569
23276SOL    HW173230   1.351   2.188   5.316  0.4936  0.5314  0.4256
23276SOL    HW273231   1.259   2.306   5.295  0.9674  0.8918  0.3651
23277SOL     OW73232   7.539   1.563   2.014  0.7316  0.1126  0.1786
23277SOL    HW173233   7.577   1.476   2.022  1.4093  0.5631  2.3182
23277SOL    HW273234   7.606   1.614   1.969  0.1028 -0.5363 -1.6211
23278SOL     OW73235   3.670   6.217   0.250  0.3163  0.3190  0.2345
23278SOL    HW173236   3.715   6.264   0.180 -0.0998  1.4249  0.6915
23278SOL    HW273237   3.728   6.143   0.270  0.8688  0.4988 -0.6489
23279SOL     OW73238   2.621   1.241   2.679  0.2399 -0.7846 -0.2252
23279SOL    HW173239   2.637   1.150   2.706  0.6505 -0.2746  1.3472
23279SOL    HW273240   2.698   1.264   2.628  0.9089 -0.8416  0.7198
23280SOL     OW73241   5.948   5.789  10.409  0.0888  0.4359 -0.3826
23280SOL    HW173242   5.977   5.867  10.455 -0.1178 -0.9205  2.1987
23280SOL    HW273243   5.883   5.749  10.467  1.5606 -2.6637 -0.6500
23281SOL     OW73244   8.440   8.222   4.847  0.5412  0.2440  0.7701
23281SOL    HW173245   8.432   8.139   4.799 -1.7679  0.4107  0.7715
23281SOL    HW273246   8.454   8.195   4.938 -0.1126 -0.1686  0.7576
23282SOL     OW73247   4.184   4.018   3.051  0.4036  0.0872  0.0913
23282SOL    HW173248   4.235   4.057   2.980  0.4340  0.2013  0.1760
23282SOL    HW273249   4.098   4.058   3.044  0.6321  0.6892  0.6043
23283SOL     OW73250   2.153   5.695   5.175  0.0327  0.1277 -0.0957
23283SOL    HW173251   2.235   5.646   5.168  1.0142  1.7881 -0.7316
23283SOL    HW273252   2.134   5.723   5.086 -0.5397  0.8315  0.2366
23284SOL     OW73253   9.329   3.294   0.191  0.3659  0.7451  0.5826
23284SOL    HW173254   9.356   3.224   0.131  0.9502  0.7875  0.7947
23284SOL    HW273255   9.348   3.259   0.278  0.0203  0.8979  0.7210
23285SOL     OW73256   9.544   4.815   3.835  0.0313  0.2155  0.3118
23285SOL    HW173257   9.625   4.772   3.860  0.3612  0.9832  0.5825
23285SOL    HW273258   9.569   4.874   3.763 -0.6800 -1.0929 -1.0838
23286SOL     OW73259   4.350   4.199   8.136 -0.8737  0.0729  0.1652
23286SOL    HW173260   4.344   4.232   8.226 -0.2873  0.1251  0.1902
23286SOL    HW273261   4.260   4.202   8.104 -1.1873 -0.5160  0.9491
23287SOL     OW73262   9.240   0.027   1.674 -0.0801 -0.1548 -0.2029
23287SOL    HW173263   9.235   0.008   1.768 -2.8119 -0.9029 -0.4050
23287SOL    HW273264   9.158   0.071   1.655  1.3426  1.9298 -1.9042
23288SOL     OW73265   1.604   1.971   9.323  0.4879 -0.2186  0.4493
23288SOL    HW173266   1.606   1.902   9.256  0.7195 -1.3398  1.5767
23288SOL    HW273267   1.574   1.926   9.402  0.0356  1.1260  1.0574
23289SOL     OW73268   2.330  10.235   7.873 -0.4440  0.0144 -0.9063
23289SOL    HW173269   2.352  10.142   7.875  0.1066  0.1197 -1.6938
23289SOL    HW273270   2.240  10.239   7.906 -0.5122 -0.8055 -0.9719
23290SOL     OW73271   9.815  10.067   2.045  0.2479  0.3440  0.1833
23290SOL    HW173272   9.729  10.104   2.062  0.4043  0.7662  0.0776
23290SOL    HW273273   9.876  10.131   2.083  0.5493  0.5475 -0.6131
23291SOL     OW73274   7.880   1.169   1.691 -0.3563  0.1814 -0.3330
23291SOL    HW173275   7.974   1.150   1.695 -0.7526 -1.7887  0.9576
23291SOL    HW273276   7.875   1.264   1.707  1.3347  0.0355  1.5280
23292SOL     OW73277   0.288   5.954   6.111 -0.1888  0.5501 -1.5878
23292SOL    HW173278   0.224   5.944   6.042 -0.7220  2.1837 -1.3631
23292SOL    HW273279   0.238   5.950   6.192  0.3394 -0.6308 -1.2864
23293SOL     OW73280   2.733   7.510   1.805 -0.7494 -0.3690  0.1746
23293SOL    HW173281   2.684   7.431   1.827 -2.1046  0.4018 -0.0355
23293SOL    HW273282   2.750   7.552   1.890 -1.7912  0.1325  0.1501
23294SOL     OW73283   4.997   7.290   5.405 -0.8382 -0.5582 -0.1625
23294SOL    HW173284   4.910   7.276   5.368 -1.3408 -2.1695  1.4732
23294SOL    HW273285   5.050   7.219   5.369 -0.8678 -1.0424  0.7098
23295SOL     OW73286   1.151   4.871   7.481 -0.4020 -0.2948 -0.7039
23295SOL    HW173287   1.211   4.939   7.453 -2.7285  2.0709 -0.3758
23295SOL    HW273288   1.187   4.839   7.564  0.9983  0.1549 -1.1123
23296SOL     OW73289   9.125   6.391   0.323  0.3558 -0.6319  0.4432
23296SOL    HW173290   9.123   6.471   0.270 -2.9601 -0.4854  0.5826
23296SOL    HW273291   9.115   6.320   0.260 -2.0723 -0.5426  0.6399
23297SOL     OW73292   4.710   9.455   5.590 -0.2355 -0.3240  0.3079
23297SOL    HW173293   4.740   9.387   5.529  0.2887  0.3140 -0.1682
23297SOL    HW273294   4.660   9.408   5.657 -0.7951 -1.0460 -0.5978
23298SOL     OW73295   3.537   4.855   9.479  0.6436  0.3570  0.1682
23298SOL    HW173296   3.575   4.786   9.423 -0.1565 -0.2924  0.4162
23298SOL    HW273297   3.590   4.932   9.459 -0.0097  0.3344 -2.0044
23299SOL     OW73298   4.005   2.360   4.268  0.6810 -0.1728 -0.1515
23299SOL    HW173299   3.934   2.339   4.330  0.5019  0.9086  0.0308
23299SOL    HW273300   4.023   2.277   4.224 -0.0049 -0.6989  0.5154
23300SOL     OW73301   2.159   9.682   8.194 -0.4378  0.8416 -0.6418
23300SOL    HW173302   2.083   9.718   8.240  0.5108  0.3546  1.3986
23300SOL    HW273303   2.194   9.756   8.145 -1.0804  1.5572 -0.0431
23301SOL     OW73304   5.523   5.964   2.393  0.3132 -0.0086  0.4768
23301SOL    HW173305   5.519   5.893   2.330 -1.2147  0.2084  0.2850
23301SOL    HW273306   5.504   6.043   2.341  0.7181  0.3814  0.9109
23302SOL     OW73307   9.465   8.991  10.868 -0.3431  0.0748  0.2311
23302SOL    HW173308   9.410   8.984  10.790 -0.9622  0.6970  0.6063
23302SOL    HW273309   9.528   9.060  10.846  0.3317 -0.6575 -0.2101
23303SOL     OW73310   8.764  10.827   3.045 -0.5141 -0.3723  0.0320
23303SOL    HW173311   8.680  10.798   3.081 -0.7770  2.1380  1.7383
23303SOL    HW273312   8.818  10.748   3.041 -2.0040 -1.5385  1.7571
23304SOL     OW73313   3.439   3.843   0.520 -0.5474 -0.4997 -0.3080
23304SOL    HW173314   3.424   3.938   0.514 -2.0197 -0.6291  0.7861
23304SOL    HW273315   3.427   3.812   0.430 -4.6553 -0.1881 -0.0534
23305SOL     OW73316   3.446   6.754   8.864  0.8412  0.4065 -0.0844
23305SOL    HW173317   3.444   6.752   8.769  1.2451 -0.9372 -0.0721
23305SOL    HW273318   3.379   6.819   8.888 -0.4291 -0.4367 -1.2300
23306SOL     OW73319   3.970   6.900   5.943  0.8132  0.1465  0.1253
23306SOL    HW173320   4.059   6.909   5.977  0.3310  0.6485  1.3102
23306SOL    HW273321   3.918   6.875   6.020 -0.3962  1.7206 -0.1408
23307SOL     OW73322   7.036   1.873   9.789  0.0155  0.4466 -0.5469
23307SOL    HW173323   7.106   1.938   9.788  1.0634 -0.6521 -0.6367
23307SOL    HW273324   6.958   1.922   9.817  0.8792  1.6188 -0.1107
23308SOL     OW73325   9.177   0.803   3.826  0.1164  0.2366  0.3051
23308SOL    HW173326   9.234   0.726   3.828 -0.6686 -0.4088 -0.7117
23308SOL    HW273327   9.098   0.773   3.779 -0.5016  1.4652  0.5137
23309SOL     OW73328   8.498  10.626   5.795  0.7637  0.3569 -0.3646
23309SOL    HW173329   8.542  10.550   5.756  0.3788  0.8000 -1.6925
23309SOL    HW273330   8.542  10.702   5.757  0.6884  0.8196  0.4392
23310SOL     OW73331   2.048   3.960   0.824  0.0301 -1.1723 -0.3224
23310SOL    HW173332   2.041   4.024   0.895 -0.7034 -1.6769  0.0700
23310SOL    HW273333   2.084   4.010   0.751 -0.8215 -0.2181 -0.1160
23311SOL     OW73334   6.366   7.294  10.092 -0.1864 -0.1860  0.2919
23311SOL    HW173335   6.321   7.292  10.176  0.2129  1.3085  0.5649
23311SOL    HW273336   6.379   7.387  10.074  2.9001 -0.5199  0.2975
23312SOL     OW73337   2.261  10.366   8.985  0.0443 -0.2885 -0.3014
23312SOL    HW173338   2.174  10.395   8.961  0.8474  4.0312  1.1896
23312SOL    HW273339   2.311  10.369   8.903 -0.5054  0.1512 -0.6262
23313SOL     OW73340   5.246   4.722   0.446  0.5527  0.1096 -0.5524
23313SOL    HW173341   5.267   4.814   0.462  0.9579  0.4963 -2.8824
23313SOL    HW273342   5.302   4.674   0.507  0.7263  1.3865  0.3482
23314SOL     OW73343   2.174   8.188   1.490 -0.1384  0.4773 -0.2014
23314SOL    HW173344   2.267   8.187   1.469  0.1294  0.5463  0.9035
23314SOL    HW273345   2.144   8.274   1.460  0.3196  0.7450  0.0910
23315SOL     OW73346   2.100   5.587   8.383 -0.2532 -0.4719  0.2364
23315SOL    HW173347   2.057   5.578   8.298  0.5587  0.2026 -0.2573
23315SOL    HW273348   2.029   5.612   8.442 -0.4763  1.2611 -0.6872
23316SOL     OW73349   5.902   5.173   3.574  0.0887  0.2365  0.3739
23316SOL    HW173350   5.886   5.184   3.668 -0.4902  1.5094  0.1389
23316SOL    HW273351   5.902   5.078   3.562 -1.4564  0.0559  1.4034
23317SOL     OW73352   7.352   7.153   9.564  0.2135 -0.0143  0.0087
23317SOL    HW173353   7.321   7.179   9.650 -0.3779  0.1065 -0.2382
23317SOL    HW273354   7.441   7.122   9.579 -0.2495 -1.0039  0.8378
23318SOL     OW73355   9.112   0.624  10.296  0.0303  0.7129  0.1218
23318SOL    HW173356   9.067   0.557  10.245 -1.5638  1.9884 -0.2372
23318SOL    HW273357   9.124   0.585  10.382  0.7104 -0.6382 -0.5425
23319SOL     OW73358   8.262   6.702   6.016  0.1750 -0.5697 -0.1217
23319SOL    HW173359   8.295   6.705   5.927  0.5298 -1.5635 -0.0423
23319SOL    HW273360   8.291   6.784   6.056 -0.2529  0.0220 -0.9918
23320SOL     OW73361   8.495   9.794   5.388  0.1006 -0.4214  0.8910
23320SOL    HW173362   8.412   9.746   5.388  0.1981 -0.6140 -0.0647
23320SOL    HW273363   8.487   9.856   5.315  1.1444 -1.1047  0.1582
23321SOL     OW73364   1.403  10.225   6.692 -0.5672  0.1207 -0.4236
23321SOL    HW173365   1.468  10.284   6.653  0.8867 -1.1412 -0.0031
23321SOL    HW273366   1.361  10.277   6.761  0.3038  0.8289 -0.4137
23322SOL     OW73367   1.610   1.414   6.799 -0.6358 -0.2138 -0.2361
23322SOL    HW173368   1.586   1.358   6.725 -0.4135 -0.9383  0.2401
23322SOL    HW273369   1.650   1.491   6.758 -0.0674 -0.8271 -0.8501
23323SOL     OW73370   8.158   5.916   3.352  0.6010  0.3316 -0.2552
23323SOL    HW173371   8.148   5.910   3.257 -0.9922  0.5818 -0.1321
23323SOL    HW273372   8.146   5.826   3.383 -3.3219  0.7536 -0.0071
23324SOL     OW73373   9.998   6.806   5.630  0.1433  0.3323 -0.6702
23324SOL    HW173374  10.018   6.884   5.681  1.5364  0.6778 -1.6918
23324SOL    HW273375  10.048   6.816   5.549  0.1921 -1.5201 -0.9208
23325SOL     OW73376   2.314   2.459   5.394 -0.5929 -0.0426  0.1129
23325SOL    HW173377   2.267   2.392   5.442  0.1176 -2.0575 -1.8486
23325SOL    HW273378   2.402   2.458   5.432 -0.8676  0.5866  0.7989
23326SOL     OW73379   1.323   3.219   8.635  0.3449 -0.3498  0.2624
23326SOL    HW173380   1.351   3.241   8.546  0.3312  1.1532  0.6022
23326SOL    HW273381   1.330   3.124   8.640  3.6656 -0.2323 -0.2469
23327SOL     OW73382   3.907   9.107   3.761  0.1087  0.8657 -0.0422
23327SOL    HW173383   3.930   9.187   3.712 -1.6176  0.9348 -0.7860
23327SOL    HW273384   3.876   9.046   3.695 -0.3199  0.2172  0.7392
23328SOL     OW73385   9.529   2.020   1.806 -0.5423 -0.2812  0.0480
23328SOL    HW173386   9.500   2.105   1.773  1.9310  0.3240 -0.7397
23328SOL    HW273387   9.449   1.980   1.841 -1.8663  2.1335  0.0077
23329SOL     OW73388   4.572   5.571   3.560  0.2438 -0.4351 -0.4672
23329SOL    HW173389   4.603   5.641   3.503  0.3827 -0.5542 -0.5361
23329SOL    HW273390   4.643   5.555   3.621  0.7531 -1.4503 -1.2996
23330SOL     OW73391   1.626   4.122   5.557 -0.2137 -0.3854 -0.5422
23330SOL    HW173392   1.536   4.149   5.539  0.7436  3.4618 -0.5394
23330SOL    HW273393   1.628   4.102   5.650 -1.5237 -3.1593 -1.0242
23331SOL     OW73394   8.419   7.258  10.432  0.1673 -0.0657 -0.4751
23331SOL    HW173395   8.499   7.208  10.447 -0.1203 -0.1623  0.8544
23331SOL    HW273396   8.364   7.239  10.508  0.3929  2.9644  0.6147
23332SOL     OW73397   9.733   3.176   2.993  0.4857 -0.3363  0.2053
23332SOL    HW173398   9.753   3.093   2.950  0.3747 -0.6119  0.6759
23332SOL    HW273399   9.747   3.243   2.925 -3.3648 -0.9992 -1.5752
23333SOL     OW73400   3.621   3.487   9.216 -0.4040  0.0006 -0.5349
23333SOL    HW173401   3.596   3.577   9.236  0.3507  0.2490 -0.6691
23333SOL    HW273402   3.618   3.483   9.120  0.0314  0.0259 -0.5503
23334SOL     OW73403   8.622   5.885   3.259 -0.0964  0.6165  0.4570
23334SOL    HW173404   8.672   5.966   3.246  0.9174  0.0755  0.8509
23334SOL    HW273405   8.566   5.878   3.182  0.3736  1.2935  0.0466
23335SOL     OW73406   4.646   4.666   0.757  0.5136 -0.0247 -0.2389
23335SOL    HW173407   4.700   4.679   0.835  0.2069  1.2983 -0.2314
23335SOL    HW273408   4.581   4.736   0.760  0.5579  0.1160 -1.7350
23336SOL     OW73409   9.251   2.305   6.839  0.0847  0.0407 -0.5673
23336SOL    HW173410   9.310   2.324   6.912  0.5257  0.2398 -0.9641
23336SOL    HW273411   9.241   2.210   6.840 -0.3164  0.0859  0.0561
23337SOL     OW73412   0.935   9.588   3.119 -0.5532 -0.2755  0.1320
23337SOL    HW173413   1.027   9.587   3.147  0.4913  0.5285 -2.8232
23337SOL    HW273414   0.909   9.680   3.127  0.9499  0.8290 -4.2715
23338SOL     OW73415   1.801   3.574   5.940  0.6296  0.3671  0.2153
23338SOL    HW173416   1.722   3.578   5.994  1.0767 -1.3140  1.0704
23338SOL    HW273417   1.855   3.646   5.970 -0.2334  1.0457  0.1737
23339SOL     OW73418   4.098   4.162  10.227  0.2225 -0.8283  0.4726
23339SOL    HW173419   4.068   4.072  10.213 -1.0889 -0.6362  1.8188
23339SOL    HW273420   4.019   4.209  10.253  0.3848  1.2764 -2.4172
23340SOL     OW73421  10.077   3.889   1.754 -0.1700  0.4340 -0.0756
23340SOL    HW173422   9.988   3.906   1.785 -0.3616  0.6388 -0.7271
23340SOL    HW273423  10.104   3.810   1.801 -0.6282  0.4671  0.2501
23341SOL     OW73424   5.319  10.613   9.649  0.8386  0.2981  0.1238
23341SOL    HW173425   5.306  10.632   9.556 -0.1613 -0.3135  0.1181
23341SOL    HW273426   5.267  10.534   9.665  1.1083  0.3116  1.1731
23342SOL     OW73427   1.261   8.810   9.275 -0.2449  0.4343  0.0356
23342SOL    HW173428   1.191   8.869   9.247  0.0050  0.7416  0.0399
23342SOL    HW273429   1.233   8.723   9.246 -1.1046  0.3963  0.9110
23343SOL     OW73430   3.975   3.391   7.906  0.1056 -0.2741  0.5647
23343SOL    HW173431   4.049   3.396   7.845  0.9831  0.7422  1.6619
23343SOL    HW273432   3.996   3.318   7.964 -0.5700 -1.0331 -0.1290
23344SOL     OW73433   5.268   5.172   8.806 -0.7679  0.1058 -0.2578
23344SOL    HW173434   5.348   5.195   8.852  0.4738 -0.7877 -1.8688
23344SOL    HW273435   5.222   5.111   8.865  0.6014 -0.7423 -0.0249
23345SOL     OW73436   7.723   1.470   1.012 -0.5717 -0.2956 -0.0658
23345SOL    HW173437   7.761   1.506   1.092 -1.5527  0.9947 -0.1453
23345SOL    HW273438   7.629   1.466   1.029 -0.5018 -3.3965  0.1094
23346SOL     OW73439   1.908   3.261   9.374 -0.3476  0.5197  1.2170
23346SOL    HW173440   1.913   3.227   9.464 -1.3828  1.7133  1.7546
23346SOL    HW273441   1.829   3.314   9.373  0.0240  1.0831 -0.2155
23347SOL     OW73442   7.245   6.418  10.242 -0.5340  0.5666 -0.0679
23347SOL    HW173443   7.303   6.405  10.318 -0.1626  2.2763 -0.0106
23347SOL    HW273444   7.305   6.430  10.169 -0.6917  3.5282  0.1839
23348SOL     OW73445   6.533   7.058   9.153  0.3370 -0.3055 -0.4059
23348SOL    HW173446   6.598   7.039   9.086  1.3241  0.0485  0.4348
23348SOL    HW273447   6.474   6.982   9.151  1.7532 -1.4717 -0.0279
23349SOL     OW73448   0.921   1.590   7.585 -0.3315  0.2480 -0.4240
23349SOL    HW173449   0.874   1.647   7.526  0.8956  1.3762 -0.3639
23349SOL    HW273450   0.988   1.549   7.531  0.2659  0.6538 -0.0088
23350SOL     OW73451   4.357   0.000   5.455 -0.2600  0.1907 -0.7213
23350SOL    HW173452   4.437  -0.052   5.445 -0.2974  0.2381 -1.2985
23350SOL    HW273453   4.366   0.071   5.391  1.6240  3.2738  2.5866
23351SOL     OW73454   9.712   8.741  10.797 -0.3094  0.1280 -0.4578
23351SOL    HW173455   9.667   8.754  10.880 -1.5190 -0.4242 -1.0015
23351SOL    HW273456   9.801   8.716  10.821 -1.4272 -3.1585  0.7848
23352SOL     OW73457   5.629   6.513   5.800  0.3312  0.0750  0.1263
23352SOL    HW173458   5.636   6.551   5.887  1.1315  0.5676 -0.1435
23352SOL    HW273459   5.544   6.467   5.801  2.2995 -4.1105  2.7767
23353SOL     OW73460  10.328   8.202   8.045 -0.0887 -0.2575 -0.1301
23353SOL    HW173461  10.260   8.211   8.113 -0.1067  1.2336 -0.3210
23353SOL    HW273462  10.293   8.136   7.985 -0.3426 -1.1588  0.9745
23354SOL     OW73463   9.254   8.073   4.305  0.1014  0.1118 -0.7277
23354SOL    HW173464   9.310   8.038   4.374  0.4146 -0.1071 -1.0888
23354SOL    HW273465   9.299   8.151   4.274 -0.7885  1.0974  0.3469
23355SOL     OW73466   6.127   2.684   8.776  0.2844 -0.1393  0.2654
23355SOL    HW173467   6.167   2.694   8.862 -0.2668  0.8044  0.4304
23355SOL    HW273468   6.085   2.598   8.778 -0.2446  0.1364  1.1574
23356SOL     OW73469   0.797   3.368   0.773  0.6504  0.1820 -0.0983
23356SOL    HW173470   0.704   3.386   0.788  0.0666 -2.7940  0.2789
23356SOL    HW273471   0.840   3.451   0.793 -1.8811  1.6372 -0.2029
23357SOL     OW73472   1.947  10.504   5.061 -0.7514 -0.4803  0.2483
23357SOL    HW173473   1.938  10.443   4.988  1.0154 -0.7592  0.2248
23357SOL    HW273474   1.949  10.590   5.020 -0.4536 -0.5894  0.0322
23358SOL     OW73475   3.973   5.284   8.931 -0.7072  0.1404  0.3024
23358SOL    HW173476   3.964   5.256   9.022 -0.0724  0.0623  0.3489
23358SOL    HW273477   3.952   5.205   8.880 -1.7007  0.3579  0.3553
23359SOL     OW73478   2.084   5.258   2.539  0.2543  0.5613  0.2738
23359SOL    HW173479   2.004   5.310   2.552 -0.0958  0.1597 -0.2123
23359SOL    HW273480   2.134   5.308   2.475 -1.4024 -1.0529 -2.4646
23360SOL     OW73481   3.526   9.100   7.790 -0.4012 -0.2853 -0.2457
23360SOL    HW173482   3.577   9.181   7.792 -0.2280 -0.3089 -1.9855
23360SOL    HW273483   3.438   9.127   7.816  0.1211  0.0469  1.2511
23361SOL     OW73484   8.552   5.189   6.033 -0.4371 -0.0428 -0.0533
23361SOL    HW173485   8.640   5.215   6.005  0.0656 -0.8133  0.7776
23361SOL    HW273486   8.565   5.111   6.086 -1.6709 -0.4191 -0.2599
23362SOL     OW73487   9.981   0.919   0.706 -0.5748  0.3384  0.5621
23362SOL    HW173488   9.938   1.004   0.715 -0.8846  0.2422  0.0194
23362SOL    HW273489  10.067   0.939   0.669 -0.3085  0.4897  1.2421
23363SOL     OW73490   1.939   4.829   7.755 -0.1519 -0.2407 -0.0020
23363SOL    HW173491   2.023   4.868   7.729  0.5544 -1.4022  0.4656
23363SOL    HW273492   1.878   4.903   7.755  0.5858  0.4208 -1.5193
23364SOL     OW73493   9.739   5.113   1.040 -0.2665 -0.1574  0.3908
23364SOL    HW173494   9.715   5.041   1.099  0.2470 -0.4531  0.2471
23364SOL    HW273495   9.825   5.142   1.072 -1.2959  1.7310  1.6985
23365SOL     OW73496   7.060   4.597   8.685  0.1639 -0.1335 -0.1297
23365SOL    HW173497   7.044   4.536   8.613 -2.5698 -0.1692  0.4151
23365SOL    HW273498   7.084   4.679   8.641  1.5620 -0.9496 -0.9435
23366SOL     OW73499   9.897   2.419   9.602 -0.0873 -0.1852 -0.1593
23366SOL    HW173500   9.854   2.503   9.617  0.4383 -0.1290  1.0830
23366SOL    HW273501   9.956   2.436   9.529  0.1322  0.5678  0.1840
23367SOL     OW73502   4.357   1.339   7.829 -0.0413 -0.3199  0.0068
23367SOL    HW173503   4.437   1.293   7.854  0.4985  0.3689 -0.3964
23367SOL    HW273504   4.286   1.283   7.858  0.5063  0.3595  2.9891
23368SOL     OW73505   0.274   0.815   7.767 -0.7632 -0.0902  0.2315
23368SOL    HW173506   0.242   0.845   7.852 -0.1390 -0.4861  0.6141
23368SOL    HW273507   0.363   0.849   7.761 -0.3664 -1.0962  0.2790
23369SOL     OW73508   8.607   3.242   6.404 -0.2481  0.7527 -0.1160
23369SOL    HW173509   8.524   3.280   6.378  0.3840  1.2741 -1.4897
23369SOL    HW273510   8.584   3.170   6.463 -1.6143  1.3293  0.0752
23370SOL     OW73511   3.391   4.305   7.226  0.1894 -0.0559 -0.6703
23370SOL    HW173512   3.383   4.246   7.300 -0.7725 -0.2672 -0.9379
23370SOL    HW273513   3.481   4.291   7.195  0.6585  0.1526  0.5289
23371SOL     OW73514   0.561   4.620   4.855  0.2843  0.2218  0.5098
23371SOL    HW173515   0.589   4.595   4.943  0.6355 -3.2597 -0.4235
23371SOL    HW273516   0.587   4.546   4.800 -1.1165  1.6597 -2.3210
23372SOL     OW73517   6.042   0.206   4.509 -0.1628 -0.2547  0.3134
23372SOL    HW173518   5.996   0.216   4.426  1.3198 -0.7153 -0.6251
23372SOL    HW273519   6.000   0.131   4.551 -1.7458  0.7459  0.6006
23373SOL     OW73520  10.558   6.053   1.904  0.2734  0.3192 -0.8453
23373SOL    HW173521  10.483   6.010   1.946 -0.4373  1.4529 -0.8824
23373SOL    HW273522  10.518   6.121   1.849  1.3061  0.4279 -1.4909
23374SOL     OW73523   5.530   2.884   5.856 -0.5130 -1.0255  0.1003
23374SOL    HW173524   5.521   2.945   5.783  0.8779 -1.3835 -0.4025
23374SOL    HW273525   5.583   2.931   5.921  2.8780 -2.4645 -1.3619
23375SOL     OW73526   8.004   4.038   8.281 -0.0497 -0.1481  0.1900
23375SOL    HW173527   8.056   4.119   8.283 -2.6835  1.6834  1.4306
23375SOL    HW273528   8.032   3.993   8.202  2.6625  1.1580  0.3063
23376SOL     OW73529   6.367   7.443   3.426 -0.0098 -0.6651 -0.2591
23376SOL    HW173530   6.311   7.512   3.390  0.6814  0.0846  0.0726
23376SOL    HW273531   6.452   7.485   3.438  0.4401 -1.5922 -0.0883
23377SOL     OW73532   0.805   6.173   4.153 -0.0295 -0.1282  0.4409
23377SOL    HW173533   0.817   6.104   4.219  1.6795 -1.3971 -1.1079
23377SOL    HW273534   0.874   6.236   4.171 -0.8344  0.5864  1.0952
23378SOL     OW73535   7.888   9.873   5.125 -0.2203  0.5193 -0.8625
23378SOL    HW173536   7.804   9.859   5.169  0.1256 -0.6199 -0.5009
23378SOL    HW273537   7.933   9.938   5.179 -0.6359  0.6960 -0.7246
23379SOL     OW73538   9.209   3.555   6.167  0.0044  0.4236 -0.0714
23379SOL    HW173539   9.221   3.641   6.207 -0.1434  0.7080 -0.6339
23379SOL    HW273540   9.129   3.563   6.116  0.8944  0.4810 -1.5006
23380SOL     OW73541   3.805   2.250   1.370 -0.2634  0.2274 -0.3479
23380SOL    HW173542   3.808   2.326   1.428 -2.5814  0.2403 -0.1379
23380SOL    HW273543   3.745   2.275   1.300  0.8958 -0.5339 -1.6798
23381SOL     OW73544   5.244   2.326   1.493  0.2187 -0.1194  0.0063
23381SOL    HW173545   5.197   2.366   1.419 -0.6052  0.3102  0.7435
23381SOL    HW273546   5.308   2.267   1.452  1.1612  1.5954 -1.1182
23382SOL     OW73547   7.852   1.881   4.460 -0.1695 -0.4555  0.2313
23382SOL    HW173548   7.944   1.885   4.488 -0.4583  0.1207  1.1677
23382SOL    HW273549   7.853   1.914   4.370  0.2985  1.6638  0.9490
23383SOL     OW73550   3.715   8.695   3.671  0.0566  0.3128  0.0218
23383SOL    HW173551   3.632   8.735   3.695  0.3429  1.4523 -0.7572
23383SOL    HW273552   3.781   8.745   3.719  0.5770  2.1878 -2.3869
23384SOL     OW73553   7.215  10.901   3.491 -0.2146  0.0914 -0.0483
23384SOL    HW173554   7.259  10.892   3.407 -1.0660 -0.8965 -0.4159
23384SOL    HW273555   7.219  10.813   3.529 -0.7454  0.2833  0.4665
23385SOL     OW73556   3.176   5.495   7.466  0.1962 -0.2682  0.0281
23385SOL    HW173557   3.210   5.441   7.395 -0.0886  0.1795 -0.4495
23385SOL    HW273558   3.252   5.511   7.522  0.4189 -0.6196 -0.1688
23386SOL     OW73559   0.424   5.825   4.879 -0.1088 -0.3518  0.1843
23386SOL    HW173560   0.493   5.767   4.846  1.2402  0.2330  1.9027
23386SOL    HW273561   0.411   5.889   4.809  2.8458  0.9972  0.7496
23387SOL     OW73562   7.520   4.834   2.272 -0.3593 -0.0700 -0.1565
23387SOL    HW173563   7.444   4.892   2.273  0.4011  0.9718  2.1390
23387SOL    HW273564   7.484   4.747   2.285 -1.1071  0.6649  3.9408
23388SOL     OW73565   7.584   3.073   2.120  0.1164 -0.2064 -0.5168
23388SOL    HW173566   7.618   3.128   2.191  0.4366  0.4545 -1.1661
23388SOL    HW273567   7.533   3.005   2.165 -0.2148  0.5647  0.3093
23389SOL     OW73568  10.658   3.075   3.657 -0.5797 -0.1646 -0.1901
23389SOL    HW173569  10.673   3.025   3.737 -0.3574  0.7235  0.3389
23389SOL    HW273570  10.670   3.167   3.683  1.4456  0.0638 -1.6553
23390SOL     OW73571   1.218   4.590   9.073  0.4736  0.1318  0.1004
23390SOL    HW173572   1.222   4.571   8.980  2.4473 -0.3947  0.2518
23390SOL    HW273573   1.217   4.504   9.115 -1.6878  0.3430  0.5704
23391SOL     OW73574   5.813   8.452   0.074  0.6632 -0.0049 -0.1027
23391SOL    HW173575   5.820   8.432  -0.019 -1.2588 -0.4926 -0.1962
23391SOL    HW273576   5.749   8.524   0.078  2.3878  1.5811  0.7165
23392SOL     OW73577   8.435   1.073   2.200  0.1707  0.6514 -0.3331
23392SOL    HW173578   8.382   1.130   2.257 -0.6994 -1.7466  1.4487
23392SOL    HW273579   8.511   1.050   2.253  2.0730  2.3992 -2.1254
23393SOL     OW73580   1.141   7.541   1.742 -0.2209 -1.0626 -0.0492
23393SOL    HW173581   1.105   7.609   1.685 -1.5825 -0.8829  0.9802
23393SOL    HW273582   1.176   7.475   1.682  1.9689  0.9052 -1.1096
23394SOL     OW73583   9.889   1.489   5.072 -0.0358  0.5258  0.0654
23394SOL    HW173584   9.938   1.497   4.990 -1.5981 -0.5104 -1.0275
23394SOL    HW273585   9.872   1.579   5.099  1.4787  0.8862 -0.1257
23395SOL     OW73586   6.327   3.540   3.291 -0.2517  0.6044 -0.2981
23395SOL    HW173587   6.357   3.580   3.210  1.9598  1.0835  0.6872
23395SOL    HW273588   6.405   3.500   3.329 -1.4660 -0.5893  1.0546
23396SOL     OW73589   3.562   2.417   4.467  0.1231  0.6168 -0.3928
23396SOL    HW173590   3.564   2.382   4.378  0.3972  1.7573 -0.8660
23396SOL    HW273591   3.485   2.378   4.507  0.9970 -1.3296 -0.5026
23397SOL     OW73592   7.417   7.497   4.060  0.5746 -0.0836  0.5358
23397SOL    HW173593   7.389   7.432   4.124  0.5361  0.3598  0.9790
23397SOL    HW273594   7.416   7.580   4.108 -0.9214  0.5050 -0.4196
23398SOL     OW73595   9.748   5.664   0.513 -0.1024  0.3003  0.0580
23398SOL    HW173596   9.725   5.653   0.605  0.2570  0.0485  0.1236
23398SOL    HW273597   9.811   5.593   0.496  1.7511  1.7974  0.2856
23399SOL     OW73598   1.104   9.287   1.326  0.2936  0.2268  0.6393
23399SOL    HW173599   1.196   9.270   1.310  0.7119  1.2003  1.8133
23399SOL    HW273600   1.085   9.366   1.276  0.3737  0.5981  1.1854
23400SOL     OW73601   8.160   8.721   7.976  0.1795 -0.4195 -0.1526
23400SOL    HW173602   8.138   8.811   7.951  1.5350  0.7102  2.2561
23400SOL    HW273603   8.114   8.708   8.059 -0.2927 -2.1239 -0.6529
23401SOL     OW73604   2.660   1.855   4.634  0.0197 -0.2818 -0.7904
23401SOL    HW173605   2.601   1.811   4.574 -0.2167  0.0917 -0.8366
23401SOL    HW273606   2.747   1.841   4.597 -0.2087  0.9006 -1.8664
23402SOL     OW73607   5.904   4.707   6.730 -0.1600  0.4325  0.1504
23402SOL    HW173608   5.833   4.644   6.722 -0.6499  1.0933 -0.8773
23402SOL    HW273609   5.983   4.653   6.737 -0.7454 -0.3109  1.4407
23403SOL     OW73610   6.394  10.242   2.109  0.4477  0.3442 -0.3021
23403SOL    HW173611   6.369  10.175   2.044 -0.8754  0.5829 -0.0617
23403SOL    HW273612   6.325  10.308   2.103  0.6223  0.6574  0.9571
23404SOL     OW73613   1.033   6.374   0.841 -0.0808 -0.3083  0.0717
23404SOL    HW173614   0.985   6.356   0.922 -0.3076 -0.5076 -0.1054
23404SOL    HW273615   0.965   6.390   0.776  0.1080  0.2989  0.0202
23405SOL     OW73616   4.605   0.159   6.321 -0.6349 -0.2681 -0.2069
23405SOL    HW173617   4.532   0.115   6.279 -0.8738  0.8243 -0.9769
23405SOL    HW273618   4.570   0.244   6.348  0.0376 -0.1949  0.4543
23406SOL     OW73619   6.417   9.134   3.917  0.0247 -0.6975  0.4820
23406SOL    HW173620   6.425   9.146   3.822 -0.8264  1.3560  0.6196
23406SOL    HW273621   6.324   9.143   3.935  0.1755 -1.0494  1.5371
23407SOL     OW73622   0.396  10.151   5.303 -0.3780  0.8278  0.1917
23407SOL    HW173623   0.326  10.103   5.347 -0.5672  1.3227  0.4286
23407SOL    HW273624   0.473  10.137   5.358  0.4979 -2.1611 -1.5274
23408SOL     OW73625  10.389   9.910   4.281 -0.2640 -0.9486 -0.2844
23408SOL    HW173626  10.302   9.881   4.256 -0.7789  0.4722 -0.2206
23408SOL    HW273627  10.436   9.922   4.199  0.0856 -2.2709 -0.3020
23409SOL     OW73628   9.322   6.977   2.893 -0.3530 -0.0039  0.0682
23409SOL    HW173629   9.403   6.937   2.926  0.1907 -0.0291 -1.2325
23409SOL    HW273630   9.346   7.067   2.873 -0.8534  0.2013  0.3727
23410SOL     OW73631   0.274   4.644   7.268  0.0953  0.3540 -0.7016
23410SOL    HW173632   0.285   4.556   7.231  0.2663  0.6641 -1.4010
23410SOL    HW273633   0.189   4.641   7.311  0.8266 -0.6743  0.7909
23411SOL     OW73634   1.132   1.187   6.443 -0.2689  0.1582 -0.5827
23411SOL    HW173635   1.084   1.148   6.370 -0.6752 -0.7048  0.1276
23411SOL    HW273636   1.173   1.112   6.487  0.2347  0.6990 -0.1117
23412SOL     OW73637   0.574  10.878   0.235 -0.3260  0.1797  0.3288
23412SOL    HW173638   0.570  10.907   0.326  0.6806  0.3868  0.3148
23412SOL    HW273639   0.552  10.785   0.238  2.7847 -0.6202  1.2207
23413SOL     OW73640  10.304   9.412   9.257  0.0471  0.0235  0.0707
23413SOL    HW173641  10.296   9.373   9.170  0.4872  3.1958 -1.5783
23413SOL    HW273642  10.395   9.397   9.282  1.1472  2.4896 -2.0019
23414SOL     OW73643   6.140  10.338   0.811 -0.4628 -0.0540  0.3721
23414SOL    HW173644   6.085  10.307   0.883 -0.8121  0.3064  0.2612
23414SOL    HW273645   6.090  10.409   0.771 -1.2272 -1.5675 -1.5125
23415SOL     OW73646   2.371   0.712   3.688  0.1008 -0.4140  0.4549
23415SOL    HW173647   2.361   0.681   3.778 -0.0539 -2.1407 -0.1159
23415SOL    HW273648   2.452   0.672   3.657 -0.3365 -0.6210 -0.4745
23416SOL     OW73649   6.427   7.504   8.495 -0.3655  0.0896  0.7425
23416SOL    HW173650   6.428   7.557   8.415  0.6841 -1.5112 -0.3604
23416SOL    HW273651   6.334   7.486   8.510 -0.4846 -1.5217 -1.5046
23417SOL     OW73652   1.152   9.742   2.822  0.6140  0.5235 -0.0125
23417SOL    HW173653   1.196   9.795   2.755 -0.8777  0.1870 -1.3200
23417SOL    HW273654   1.187   9.654   2.809  1.2475  0.6892  0.5066
23418SOL     OW73655   8.123   1.946   1.113  0.5202  0.1444  0.3102
23418SOL    HW173656   8.085   1.965   1.027  1.7580  2.3498  0.2012
23418SOL    HW273657   8.217   1.957   1.101  1.0313 -2.3533  1.3037
23419SOL     OW73658   7.080   6.347   9.290 -0.5557  0.1519 -0.0890
23419SOL    HW173659   7.055   6.383   9.205  1.0073 -0.4968 -0.8630
23419SOL    HW273660   7.174   6.332   9.283 -0.3841  0.1146  1.7866
23420SOL     OW73661   6.594   4.381   8.189 -0.0758 -0.2978 -0.1121
23420SOL    HW173662   6.527   4.400   8.255  0.6274  0.5849  0.3799
23420SOL    HW273663   6.545   4.362   8.110 -0.9308 -0.7919  0.5230
23421SOL     OW73664   0.089   6.868   3.142  0.1761 -0.4511  0.3236
23421SOL    HW173665   0.128   6.783   3.124 -1.1051 -0.7996 -1.0064
23421SOL    HW273666   0.028   6.852   3.213  0.1615 -0.5772  0.2833
23422SOL     OW73667   3.737   5.574   5.428  0.1316  0.1913 -0.4018
23422SOL    HW173668   3.799   5.503   5.413 -1.0671 -0.7637 -1.0226
23422SOL    HW273669   3.726   5.578   5.523 -0.6159 -1.2138 -0.4100
23423SOL     OW73670   4.485   0.050   8.502  0.2811  0.0021 -0.6490
23423SOL    HW173671   4.437   0.132   8.489  1.3674  0.7911  0.0940
23423SOL    HW273672   4.534   0.038   8.420  0.5507  0.4088 -0.5522
23424SOL     OW73673   1.393   8.689   9.659  0.4479  0.0506  0.0108
23424SOL    HW173674   1.327   8.657   9.720  1.7057 -1.2673  0.7534
23424SOL    HW273675   1.344   8.739   9.593 -1.1087  0.1927  1.2337
23425SOL     OW73676   8.099   2.586   2.558 -0.6997 -0.6199 -0.2164
23425SOL    HW173677   8.073   2.522   2.492  0.4209 -0.6487 -0.6425
23425SOL    HW273678   8.189   2.563   2.580 -1.4172 -1.4148  2.2641
23426SOL     OW73679   6.952  10.426   1.715  0.3090  0.2533 -0.0993
23426SOL    HW173680   6.933  10.332   1.715 -0.7187  0.4567 -0.0363
23426SOL    HW273681   6.949  10.450   1.808  2.5636 -0.0151  0.1145
23427SOL     OW73682   5.707   1.173   7.660 -0.3080  0.5715 -0.5135
23427SOL    HW173683   5.769   1.166   7.587 -0.8769  0.0399 -0.9639
23427SOL    HW273684   5.656   1.252   7.641 -1.2302 -0.1915 -1.3336
23428SOL     OW73685   4.617   2.691   2.911 -0.1777 -0.1991  0.0261
23428SOL    HW173686   4.540   2.745   2.928  0.0072 -0.1411  0.7521
23428SOL    HW273687   4.682   2.751   2.876 -0.0217  0.0313  0.6921
23429SOL     OW73688   4.589   4.190   6.561 -0.4300  0.2714  0.0065
23429SOL    HW173689   4.600   4.096   6.549  0.8401  0.4212 -0.1481
23429SOL    HW273690   4.666   4.217   6.612 -0.7078  1.2454 -0.0623
23430SOL     OW73691   8.446   6.505   7.708 -0.0728  0.2284 -0.3015
23430SOL    HW173692   8.528   6.493   7.661  0.8774  1.6886  0.9002
23430SOL    HW273693   8.459   6.462   7.792 -1.2011 -1.0389 -0.7361
23431SOL     OW73694   4.237   5.239   9.690  0.2359  0.0183 -0.1505
23431SOL    HW173695   4.291   5.318   9.700 -1.0868  1.0089 -0.5800
23431SOL    HW273696   4.147   5.269   9.700 -0.3694 -1.2427 -1.4133
23432SOL     OW73697   2.132   1.294   2.560 -0.6493  0.0512  0.1885
23432SOL    HW173698   2.195   1.341   2.615  0.9190 -2.0868  0.3810
23432SOL    HW273699   2.144   1.331   2.472  1.4869 -0.7904  0.0695
23433SOL     OW73700   4.617   6.788   0.027 -0.1820 -0.2111  0.2484
23433SOL    HW173701   4.594   6.800  -0.065  0.7688 -0.0943  0.0232
23433SOL    HW273702   4.676   6.860   0.047  0.8110 -1.0799  0.5315
23434SOL     OW73703   9.719   9.372   3.571 -0.7193  0.4832 -0.5387
23434SOL    HW173704   9.742   9.418   3.491 -0.6743  0.1441 -0.7236
23434SOL    HW273705   9.624   9.386   3.580 -0.2763  3.1644  1.0439
23435SOL     OW73706   9.963   5.702   7.898 -0.1834 -0.2709 -0.0464
23435SOL    HW173707   9.953   5.773   7.833 -1.2402 -1.2952 -1.0624
23435SOL    HW273708  10.057   5.700   7.917 -0.3570  3.0059  1.9284
23436SOL     OW73709   6.958   5.686   3.107  0.0184 -0.4401  0.1465
23436SOL    HW173710   7.042   5.712   3.070  0.8787 -0.5288  1.9316
23436SOL    HW273711   6.945   5.597   3.076  0.5432 -0.4033 -0.1991
23437SOL     OW73712   7.697   4.087   3.885  0.6635  0.8687 -0.3053
23437SOL    HW173713   7.719   4.178   3.906  1.1275  0.7320 -0.1917
23437SOL    HW273714   7.753   4.034   3.942 -0.4005  0.5053  0.4358
23438SOL     OW73715   1.023   6.054   0.107  0.4848  0.3463 -0.6715
23438SOL    HW173716   1.099   6.034   0.162  0.3298  1.7141  0.0874
23438SOL    HW273717   0.956   6.084   0.169 -0.5820 -0.5287 -1.3624
23439SOL     OW73718  10.435   0.565   8.581  0.5963  0.2451 -0.5246
23439SOL    HW173719  10.418   0.586   8.489  0.9027  3.2389  0.0059
23439SOL    HW273720  10.440   0.650   8.624  1.8135 -1.0249  2.0376
23440SOL     OW73721   6.176   5.821   2.615  0.0560  0.3964  0.2435
23440SOL    HW173722   6.190   5.905   2.571  1.8150  0.0267  0.0028
23440SOL    HW273723   6.219   5.757   2.558 -0.2754 -0.5127  0.9859
23441SOL     OW73724   8.788   5.295  10.220 -0.1710  0.1016  0.2438
23441SOL    HW173725   8.814   5.302  10.312  0.2136 -1.8450  0.3325
23441SOL    HW273726   8.871   5.285  10.173 -0.3852  0.7678 -0.2816
23442SOL     OW73727   8.531   3.225   9.596  0.1756 -0.0480 -0.4343
23442SOL    HW173728   8.606   3.170   9.614  0.5116  0.3852 -0.4816
23442SOL    HW273729   8.522   3.224   9.500  0.6808  0.6151 -0.4971
23443SOL     OW73730   6.460   2.273   0.524  0.2335  0.0491  0.2967
23443SOL    HW173731   6.543   2.296   0.482  0.8841  0.3268  1.7030
23443SOL    HW273732   6.485   2.230   0.605 -0.9855 -1.9046 -0.2765
23444SOL     OW73733   1.358  10.065   5.531  0.2624  0.5330  0.4549
23444SOL    HW173734   1.384   9.997   5.593  0.6444  1.1710  1.0129
23444SOL    HW273735   1.274  10.097   5.564 -1.0661 -1.1839 -1.0686
23445SOL     OW73736  10.058   3.776   3.353 -0.1251  0.4820  0.1555
23445SOL    HW173737  10.080   3.857   3.306  1.2841  0.0459  0.0003
23445SOL    HW273738  10.073   3.797   3.445  1.2295  0.1315  0.0348
23446SOL     OW73739   9.915   9.859   5.859 -0.0877  1.0040  0.0230
23446SOL    HW173740   9.950   9.815   5.781  1.1159  1.3985  0.3202
23446SOL    HW273741   9.837   9.904   5.828 -0.6637 -0.3238 -0.5579
23447SOL     OW73742   7.460   8.559   9.191  0.0546  0.3070  0.0150
23447SOL    HW173743   7.544   8.518   9.211  0.9469  2.1378  0.2146
23447SOL    HW273744   7.452   8.552   9.096 -0.0657 -0.7755  0.0977
23448SOL     OW73745   1.351   6.163   1.312 -0.0515  0.0456 -0.1703
23448SOL    HW173746   1.439   6.136   1.335  0.4439  0.4350 -1.5176
23448SOL    HW273747   1.327   6.106   1.239 -0.6384  0.4150 -0.2749
23449SOL     OW73748   7.803   0.918   9.456  0.6065 -0.0064 -0.2486
23449SOL    HW173749   7.783   0.892   9.366  1.1948 -0.5662 -0.2222
23449SOL    HW273750   7.896   0.899   9.467  0.7258  0.7796  0.2385
23450SOL     OW73751   4.125   9.605  10.900 -0.1131 -0.0930 -0.1365
23450SOL    HW173752   4.072   9.668  10.949 -0.4248 -0.2586 -0.2552
23450SOL    HW273753   4.178   9.561  10.967 -1.8288 -1.5735  0.3057
23451SOL     OW73754   1.573   9.299   5.970  0.4372 -0.3377  0.2723
23451SOL    HW173755   1.484   9.276   5.945  0.5916 -1.3895  0.6165
23451SOL    HW273756   1.629   9.245   5.914  0.8444 -0.0820  0.4254
23452SOL     OW73757   8.788   0.611  10.349  0.4786 -0.1107  0.1503
23452SOL    HW173758   8.774   0.580  10.439  0.1095 -0.8116 -0.1404
23452SOL    HW273759   8.878   0.642  10.348  0.8669 -1.1739  0.4629
23453SOL     OW73760   3.969   4.001   4.684  0.5537 -0.1859  0.0664
23453SOL    HW173761   4.034   4.054   4.728  0.6277 -0.1521 -0.0823
23453SOL    HW273762   3.887   4.049   4.694  0.8171  0.5147 -1.0223
23454SOL     OW73763   7.455   5.788   9.796  0.8318 -0.2163  0.0102
23454SOL    HW173764   7.482   5.782   9.887  2.3167  2.2212 -0.1800
23454SOL    HW273765   7.413   5.873   9.789 -0.8539 -1.0982 -1.2445
23455SOL     OW73766   2.212   3.659   8.795  0.2511 -0.1630 -0.4327
23455SOL    HW173767   2.163   3.586   8.833  0.0307  0.1292 -0.1486
23455SOL    HW273768   2.163   3.737   8.822  0.8384  0.1321 -0.1989
23456SOL     OW73769   3.790   2.399   1.662  0.0147 -0.1286  0.3439
23456SOL    HW173770   3.709   2.356   1.636 -0.1831 -0.4945  1.5271
23456SOL    HW273771   3.762   2.472   1.717  0.3928  1.0389 -0.9441
23457SOL     OW73772   8.411  10.267   7.824 -0.6344  0.0382  0.3937
23457SOL    HW173773   8.500  10.235   7.834 -0.8408 -1.0335 -0.8104
23457SOL    HW273774   8.420  10.348   7.773 -0.2692  0.6498  1.4155
23458SOL     OW73775   5.854   9.471   2.988  0.3372  0.0124  0.4277
23458SOL    HW173776   5.845   9.547   3.045 -1.8228  0.2386 -0.1315
23458SOL    HW273777   5.946   9.471   2.962  0.9132  1.0564  2.2765
23459SOL     OW73778  10.897   6.978   2.428  0.0492 -0.1164 -0.0204
23459SOL    HW173779  10.946   7.008   2.351  0.5882 -0.7843  0.0559
23459SOL    HW273780  10.963   6.958   2.493 -0.4356  0.9805  0.8340
23460SOL     OW73781   7.091   3.998  10.304  0.5805 -0.3743  0.3986
23460SOL    HW173782   7.083   4.075  10.248  2.5822 -0.8984 -0.6890
23460SOL    HW273783   7.063   3.925  10.247  2.0550 -0.8397  0.2424
23461SOL     OW73784   6.350   8.642   3.585  0.3135  0.7808  0.4693
23461SOL    HW173785   6.378   8.635   3.494  1.4622 -0.7212  0.8884
23461SOL    HW273786   6.351   8.552   3.617 -2.8061  0.8887  1.2251
23462SOL     OW73787   8.265   5.025   4.770 -0.4466  0.0419  0.2994
23462SOL    HW173788   8.279   5.047   4.677  1.4566  0.2844  0.5949
23462SOL    HW273789   8.203   4.953   4.768 -1.8691  1.2322 -1.0599
23463SOL     OW73790   6.727   6.101   2.149 -0.1247  0.1690 -0.2706
23463SOL    HW173791   6.726   6.053   2.231 -1.0882  0.7134  0.0542
23463SOL    HW273792   6.799   6.162   2.158  0.5293 -0.5825 -0.3207
23464SOL     OW73793  10.788   7.128   4.862 -0.3280 -0.4569  0.2205
23464SOL    HW173794  10.785   7.223   4.851 -1.1506 -0.4782  0.1902
23464SOL    HW273795  10.813   7.115   4.953  0.0332 -0.2157  0.1569
23465SOL     OW73796   2.320   0.434   1.681  0.2803 -0.0168  0.1493
23465SOL    HW173797   2.226   0.423   1.696  0.2736  1.6357  1.6723
23465SOL    HW273798   2.354   0.466   1.764  2.2746 -0.8449 -0.2885
23466SOL     OW73799   4.500   2.622   4.253 -0.0393  0.5382 -1.2005
23466SOL    HW173800   4.501   2.667   4.338 -1.6511  1.0433 -1.4118
23466SOL    HW273801   4.592   2.615   4.229  0.4222  0.9666  0.2842
23467SOL     OW73802  10.062   7.614   4.076  0.0700 -0.2643 -0.3721
23467SOL    HW173803  10.156   7.605   4.089  0.3497  0.0932 -1.9772
23467SOL    HW273804  10.052   7.687   4.015 -1.2851  0.0827  0.2123
23468SOL     OW73805   9.621   8.258   4.255 -0.4912  0.3940  0.6882
23468SOL    HW173806   9.653   8.342   4.223  1.4665 -0.0444  1.3759
23468SOL    HW273807   9.526   8.262   4.242 -0.1369  1.3870 -2.3717
23469SOL     OW73808   5.536  10.224  10.653 -0.1385 -0.1594  0.1359
23469SOL    HW173809   5.572  10.276  10.582  1.1336  2.0492  2.2686
23469SOL    HW273810   5.603  10.158  10.671  0.4310  0.5248  0.5532
23470SOL     OW73811   0.501   0.516  10.882  0.9386  0.3414  0.2229
23470SOL    HW173812   0.560   0.443  10.895  0.5705  0.0943  0.5302
23470SOL    HW273813   0.476   0.511  10.789 -1.0383 -1.4433  0.7711
23471SOL     OW73814   6.342  10.673   7.007  0.0694 -0.3499 -0.4462
23471SOL    HW173815   6.434  10.696   6.996  0.1648  0.3916  1.4714
23471SOL    HW273816   6.327  10.601   6.946  2.0951 -0.9552 -0.2859
23472SOL     OW73817   7.426   0.367   0.357 -0.0777  0.5509  0.0714
23472SOL    HW173818   7.507   0.403   0.319 -0.5607  0.9866 -0.5828
23472SOL    HW273819   7.379   0.444   0.389 -0.3900  0.3324  0.1421
23473SOL     OW73820   6.223   8.774   3.929 -0.2335  0.3366 -0.3947
23473SOL    HW173821   6.189   8.862   3.939  1.6630  1.0045  0.8143
23473SOL    HW273822   6.287   8.781   3.858 -0.2231 -0.1100 -0.4353
23474SOL     OW73823   4.021   4.108   9.892  0.2238  0.2539 -0.7176
23474SOL    HW173824   3.929   4.105   9.916  0.6110 -1.0186  0.8152
23474SOL    HW273825   4.035   4.026   9.844  1.1956 -1.3012  1.9546
23475SOL     OW73826   5.365   4.177   2.498  0.5302  0.4335  0.1163
23475SOL    HW173827   5.315   4.161   2.418  0.8707 -1.3216  0.2009
23475SOL    HW273828   5.343   4.267   2.523 -1.0080  0.3897 -0.9258
23476SOL     OW73829   0.606  10.500   1.332 -0.0238 -0.2079  0.1053
23476SOL    HW173830   0.642  10.429   1.384 -0.3417 -0.2063  0.3281
23476SOL    HW273831   0.535  10.536   1.386 -0.4963 -0.3453 -0.4193
23477SOL     OW73832   9.866   2.838   1.084  0.1609  0.3449  0.5998
23477SOL    HW173833   9.819   2.920   1.070  0.2618  0.6002  1.6984
23477SOL    HW273834   9.855   2.790   1.002 -1.8686  0.4671  0.7460
23478SOL     OW73835   6.603   1.190   8.063  0.1692 -0.2270  0.3489
23478SOL    HW173836   6.623   1.127   8.132  1.3958 -0.7379 -0.4383
23478SOL    HW273837   6.600   1.275   8.108  0.1665 -0.6430  1.1512
23479SOL     OW73838   4.465   8.309   3.106  0.0048 -0.5286 -0.2322
23479SOL    HW173839   4.549   8.272   3.078  0.9135  0.9162  0.4754
23479SOL    HW273840   4.438   8.366   3.034 -0.4555 -1.0750 -0.5072
23480SOL     OW73841   3.207   0.308   9.137 -0.4267  0.0542 -0.2916
23480SOL    HW173842   3.237   0.218   9.124 -2.1689 -0.8245  1.2380
23480SOL    HW273843   3.219   0.350   9.052  1.3921 -1.3035 -0.7637
23481SOL     OW73844   4.264   4.824   2.234  0.0200  0.3646  0.5105
23481SOL    HW173845   4.186   4.845   2.182 -0.1686 -0.6712  0.3562
23481SOL    HW273846   4.295   4.741   2.199  1.0370  0.6222  0.7707
23482SOL     OW73847   9.582   4.177   4.210  0.6134 -0.0442 -0.3107
23482SOL    HW173848   9.633   4.107   4.251 -0.0255  0.1193  0.8137
23482SOL    HW273849   9.492   4.145   4.212  0.4998  0.2004 -1.1299
23483SOL     OW73850   1.335   3.222   7.461  0.0205  0.2922 -0.0627
23483SOL    HW173851   1.288   3.300   7.432 -0.4505 -0.1501 -0.5270
23483SOL    HW273852   1.272   3.175   7.516  0.1388  0.0086 -0.1674
23484SOL     OW73853  10.318   3.421   3.886  0.3995 -0.0398  0.1534
23484SOL    HW173854  10.378   3.460   3.949  1.1053 -1.4220  0.3614
23484SOL    HW273855  10.232   3.454   3.911  0.6630 -0.5879  1.8845
23485SOL     OW73856   7.233   8.886   7.787 -0.1722  0.0721 -0.2730
23485SOL    HW173857   7.315   8.886   7.837 -0.1507  2.3102 -0.1921
23485SOL    HW273858   7.165   8.870   7.853  0.1305 -1.3127 -0.2654
23486SOL     OW73859   3.271   6.304   5.350 -0.2255 -0.4028  0.4772
23486SOL    HW173860   3.235   6.279   5.435 -0.3473  0.5484  0.7237
23486SOL    HW273861   3.215   6.376   5.321 -0.3344 -0.8841 -0.5289
23487SOL     OW73862   8.874   6.632   6.757 -0.0142  0.1181 -0.2321
23487SOL    HW173863   8.952   6.579   6.773 -0.4910 -0.5026  0.0947
23487SOL    HW273864   8.852   6.668   6.843 -0.3021 -0.0060 -0.2547
23488SOL     OW73865   6.261   3.266   8.475 -0.1195  0.0098  0.2557
23488SOL    HW173866   6.182   3.238   8.428 -0.0504 -0.3751  0.3650
23488SOL    HW273867   6.255   3.362   8.477  0.4430  0.1236 -1.5058
23489SOL     OW73868   0.700   9.152  10.063 -0.0763  0.1349  0.0958
23489SOL    HW173869   0.733   9.233  10.103 -2.7309  1.1914  0.3844
23489SOL    HW273870   0.689   9.174   9.971  0.6529 -0.4246 -0.1280
23490SOL     OW73871   8.295   5.016  10.453 -0.3207 -0.1204 -0.3005
23490SOL    HW173872   8.352   4.941  10.466 -2.5320 -1.6584  1.4338
23490SOL    HW273873   8.229   4.985  10.391 -0.9953  0.5404  0.0742
23491SOL     OW73874   7.592   0.766   2.866 -0.0937 -0.1981 -0.1428
23491SOL    HW173875   7.522   0.828   2.888 -1.2613 -1.3381 -0.5700
23491SOL    HW273876   7.610   0.720   2.947  0.1711  0.0841 -0.0368
23492SOL     OW73877  10.081   1.985   1.113  0.2293 -0.3781 -0.8193
23492SOL    HW173878  10.035   2.018   1.191 -0.3152  2.6238 -2.2620
23492SOL    HW273879  10.174   1.987   1.138  0.0897  0.9172 -0.3286
23493SOL     OW73880   6.685   1.936  10.427  0.1057  0.5381 -0.2318
23493SOL    HW173881   6.700   2.019  10.382  2.1995  0.5302  0.3374
23493SOL    HW273882   6.721   1.870  10.368  1.0817  0.3442  0.5574
23494SOL     OW73883  10.742   3.323  10.243 -0.1645  0.3257  0.1900
23494SOL    HW173884  10.704   3.272  10.171 -1.4232  0.5438  0.6696
23494SOL    HW273885  10.710   3.279  10.322  0.0111  0.9346  0.6069
23495SOL     OW73886   7.964   1.641   4.926 -0.3480  0.3203  0.4356
23495SOL    HW173887   8.038   1.591   4.893  0.0322  1.4106 -0.4103
23495SOL    HW273888   8.002   1.701   4.991 -0.2386  1.7168 -0.8488
23496SOL     OW73889   6.834   2.539   9.146 -0.5087 -0.0043 -0.2707
23496SOL    HW173890   6.882   2.502   9.072 -1.1013 -0.1596 -0.5907
23496SOL    HW273891   6.895   2.534   9.220  0.4447  1.0711 -0.9593
23497SOL     OW73892   5.676   2.386   3.795  0.0869 -0.5007 -0.4556
23497SOL    HW173893   5.736   2.371   3.867  0.4430 -0.3682 -0.7185
23497SOL    HW273894   5.725   2.441   3.734 -0.7161  0.6203 -0.1265
23498SOL     OW73895   9.753   9.621   9.964  0.0010  0.1253  0.2321
23498SOL    HW173896   9.782   9.530   9.964  0.8446  0.3794  0.9876
23498SOL    HW273897   9.658   9.616   9.973  0.1650 -0.6755  1.8675
23499SOL     OW73898   3.005  10.473   9.500 -0.3624 -0.0241  0.1271
23499SOL    HW173899   2.954  10.415   9.557 -0.0921 -0.2860  0.1031
23499SOL    HW273900   3.090  10.481   9.544 -0.4776  0.5559  0.2603
23500SOL     OW73901   5.602   4.059   4.218  0.0586  0.0612  0.3081
23500SOL    HW173902   5.670   4.119   4.186 -1.6093  2.3590  0.8613
23500SOL    HW273903   5.589   4.083   4.309 -0.7506 -1.1111  0.5270
23501SOL     OW73904   1.348  10.540  10.765 -0.1508  0.0358 -0.6183
23501SOL    HW173905   1.352  10.588  10.682 -2.0259 -0.7211 -1.2035
23501SOL    HW273906   1.260  10.556  10.797  0.3873 -0.0969  1.0097
23502SOL     OW73907   2.871   1.198   6.218  0.1792 -0.4226 -0.0162
23502SOL    HW173908   2.835   1.120   6.176 -3.7108  0.0589  1.9191
23502SOL    HW273909   2.840   1.270   6.163 -1.2695 -0.0348  1.2277
23503SOL     OW73910   5.080   4.282   7.052 -0.0187 -0.1438 -0.8937
23503SOL    HW173911   5.071   4.354   6.989 -1.2165 -2.3370 -3.4405
23503SOL    HW273912   4.990   4.262   7.078  0.3839 -0.0566  0.6473
23504SOL     OW73913   4.903   9.474   7.430  0.1080 -0.3567  0.7485
23504SOL    HW173914   4.964   9.400   7.432 -0.8077 -1.1181  1.3099
23504SOL    HW273915   4.826   9.443   7.477  0.5007  1.6958  2.9072
23505SOL     OW73916   1.238   6.088   8.800  0.3510  0.1610  0.3971
23505SOL    HW173917   1.235   6.182   8.782  1.3537  0.5697  2.2028
23505SOL    HW273918   1.329   6.069   8.821  0.8545 -1.8675 -2.8508
23506SOL     OW73919   0.986   1.831   6.671 -0.2568  0.2834  0.2381
23506SOL    HW173920   0.939   1.914   6.679 -0.2147  0.3667 -0.3397
23506SOL    HW273921   0.933   1.780   6.610 -0.5905 -0.3403  1.0307
23507SOL     OW73922   0.716   8.662   9.323  0.3877 -0.1088 -0.7636
23507SOL    HW173923   0.655   8.627   9.257  0.1359 -2.4627  0.6205
23507SOL    HW273924   0.670   8.651   9.406  1.4444  1.0914  0.0216
23508SOL     OW73925   6.210   7.845   2.962 -0.2417 -0.1936 -0.4411
23508SOL    HW173926   6.297   7.836   3.002 -1.2396  0.1365  1.9262
23508SOL    HW273927   6.223   7.910   2.892  1.2091  0.6853  0.5885
23509SOL     OW73928   1.255  10.524   5.866  0.0070 -0.5422 -0.5994
23509SOL    HW173929   1.250  10.515   5.771 -2.1683  0.8999 -0.6950
23509SOL    HW273930   1.168  10.555   5.892  0.5558 -0.8542  1.8636
23510SOL     OW73931   9.942   2.120   4.916  0.4380 -0.0257  0.3623
23510SOL    HW173932   9.931   2.214   4.900  0.1220 -0.0907  0.1833
23510SOL    HW273933   9.854   2.084   4.905  0.2830 -0.1458  1.8086
23511SOL     OW73934   3.281   0.115   7.145  0.0697  0.0061  0.6922
23511SOL    HW173935   3.206   0.114   7.085  1.2367  0.3888 -0.8026
23511SOL    HW273936   3.270   0.035   7.197 -1.6143  0.2849  0.8232
23512SOL     OW73937   3.383   4.043   8.485 -0.7322  0.6945  0.1412
23512SOL    HW173938   3.380   4.129   8.529  1.6969  0.7433  0.3446
23512SOL    HW273939   3.425   4.061   8.401  0.2389 -0.3590  0.3879
23513SOL     OW73940  10.582   6.825   4.437  0.2372  0.5179  0.4631
23513SOL    HW173941  10.633   6.902   4.462 -1.2811  0.7244  3.2298
23513SOL    HW273942  10.568   6.777   4.518 -1.2400 -1.2320 -0.7366
23514SOL     OW73943   8.997   2.230   0.935 -0.4073 -0.0240 -0.1607
23514SOL    HW173944   8.991   2.154   0.992  0.3588 -1.1654 -1.5347
23514SOL    HW273945   8.920   2.225   0.879 -0.0993 -0.0792 -0.5856
23515SOL     OW73946   0.340   4.570   5.385  0.5136  0.2243  0.1018
23515SOL    HW173947   0.314   4.637   5.447 -0.2234 -0.3107  0.3863
23515SOL    HW273948   0.432   4.554   5.403  0.5911  0.8671  0.2956
23516SOL     OW73949   8.279   2.865   8.382 -0.1410 -0.4315  0.0113
23516SOL    HW173950   8.279   2.781   8.427  0.5243 -1.3654 -1.6323
23516SOL    HW273951   8.228   2.850   8.303  0.5643  0.4932 -0.6474
23517SOL     OW73952   2.125   2.816  10.155  0.6126 -0.2453 -0.5964
23517SOL    HW173953   2.207   2.817  10.105  0.8699 -0.9245 -0.2118
23517SOL    HW273954   2.074   2.888  10.119  1.5840  0.5171 -0.5048
23518SOL     OW73955   8.517   7.370   7.549  0.3130  0.1508 -0.3606
23518SOL    HW173956   8.533   7.305   7.618  1.5975  2.8907  2.1032
23518SOL    HW273957   8.588   7.356   7.487  1.8177  0.4713  1.2099
23519SOL     OW73958   8.783   6.099   7.006  0.1955 -0.1390 -0.1483
23519SOL    HW173959   8.807   6.191   7.012  1.2115 -0.3217 -1.0394
23519SOL    HW273960   8.864   6.052   7.025 -0.2684 -0.8538  0.1217
23520SOL     OW73961   2.839   6.967   7.453 -0.0896 -0.2213  0.0345
23520SOL    HW173962   2.892   6.966   7.373  1.3877 -1.6960  0.9800
23520SOL    HW273963   2.802   6.879   7.459  0.8492 -0.5458  1.6078
23521SOL     OW73964   8.421   2.542   6.024  0.6643 -0.3269  0.1367
23521SOL    HW173965   8.407   2.526   6.117 -1.4132 -1.4709 -0.3118
23521SOL    HW273966   8.389   2.631   6.010 -1.1806 -0.9432  0.1651
23522SOL     OW73967   1.850   2.890   1.345  0.0105 -0.3759 -0.2823
23522SOL    HW173968   1.935   2.895   1.388  0.2290  0.4742 -0.7982
23522SOL    HW273969   1.801   2.965   1.380 -0.8075 -1.2876  0.5910
23523SOL     OW73970   6.314   3.525  10.008  0.2038 -0.8414 -0.2765
23523SOL    HW173971   6.409   3.535  10.010  0.3219 -1.9001  1.4217
23523SOL    HW273972   6.300   3.430  10.004 -0.7772 -0.7028 -0.3188
23524SOL     OW73973   7.300   1.381   0.730 -0.0863 -0.3814  0.5208
23524SOL    HW173974   7.374   1.354   0.676 -0.7128  1.4341 -1.3651
23524SOL    HW273975   7.238   1.309   0.724  0.1696 -0.5195 -0.5879
23525SOL     OW73976   6.299   3.788   7.069 -0.6079 -0.3396  0.2296
23525SOL    HW173977   6.265   3.747   6.990 -0.0419 -0.4763  0.0523
23525SOL    HW273978   6.360   3.724   7.106 -0.5692 -0.1184  0.5617
23526SOL     OW73979  10.290   5.915   9.578  0.1852  0.4194 -0.4068
23526SOL    HW173980  10.322   5.906   9.488  2.3150 -0.4504  0.3571
23526SOL    HW273981  10.216   5.854   9.583  0.9264 -0.5984 -1.2161
23527SOL     OW73982   3.830   3.903   9.349 -0.1925 -0.2494 -0.2147
23527SOL    HW173983   3.788   3.855   9.421  0.9387  0.2670  0.8393
23527SOL    HW273984   3.815   3.995   9.370  0.1865 -0.0939 -0.6128
23528SOL     OW73985   0.807   2.376   7.773  0.8265  0.5245 -0.2467
23528SOL    HW173986   0.864   2.299   7.775  1.3073  0.8733 -0.3341
23528SOL    HW273987   0.857   2.444   7.818  1.4443  1.4775 -2.2365
23529SOL     OW73988   8.697   6.147   7.809 -0.3753  0.2607  0.1947
23529SOL    HW173989   8.736   6.139   7.722  0.5443  0.7415  0.5418
23529SOL    HW273990   8.606   6.121   7.798  0.2376 -1.8193 -0.4809
23530SOL     OW73991   7.868   4.141   6.157  0.3292  0.2396 -0.2433
23530SOL    HW173992   7.856   4.147   6.252 -0.2189 -1.5581 -0.1659
23530SOL    HW273993   7.821   4.217   6.123 -1.0619 -0.0870  0.8366
23531SOL     OW73994   2.865   6.184   9.647 -0.2136  0.3850 -0.5823
23531SOL    HW173995   2.888   6.196   9.554 -0.3452  1.4900 -0.4822
23531SOL    HW273996   2.933   6.231   9.694 -0.1556 -0.1661 -0.1113
23532SOL     OW73997  10.576   4.234   5.435 -0.2430 -0.1654 -0.4839
23532SOL    HW173998  10.609   4.189   5.513  0.7471  0.1325 -0.7137
23532SOL    HW273999  10.584   4.169   5.365 -0.9074 -0.3530 -0.3939
23533SOL     OW74000   8.453   9.972  10.356  0.1695  0.1788 -0.0423
23533SOL    HW174001   8.483   9.906  10.418 -0.4367 -1.3127 -1.2721
23533SOL    HW274002   8.383  10.018  10.402 -0.7311 -1.3475  0.1892
23534SOL     OW74003   3.718   6.790   6.561 -0.1677  0.2112  0.1911
23534SOL    HW174004   3.699   6.881   6.540  0.1219  0.8910  2.5378
23534SOL    HW274005   3.650   6.740   6.517 -0.1004  1.4860 -1.4742
23535SOL     OW74006   5.544  10.907   9.126  0.2889 -0.5145 -0.4561
23535SOL    HW174007   5.595  10.988   9.119 -0.1035 -0.1445  0.7263
23535SOL    HW274008   5.453  10.936   9.128  0.1570 -0.9428  0.3205
23536SOL     OW74009   2.642   4.994   7.297  0.2030 -0.3618 -0.3350
23536SOL    HW174010   2.579   4.964   7.362 -2.2308  2.7548 -1.0336
23536SOL    HW274011   2.699   4.918   7.283 -3.5994 -3.6509  0.0675
23537SOL     OW74012   8.597   9.019   1.592  0.3618 -0.2182 -0.0217
23537SOL    HW174013   8.627   9.028   1.683  1.1839  0.3057 -0.3320
23537SOL    HW274014   8.521   9.077   1.586 -0.4484 -1.1771  0.6445
23538SOL     OW74015   0.668   7.036   2.771 -0.1139 -0.4543  0.3199
23538SOL    HW174016   0.631   7.068   2.689  0.6152  1.3570  0.6514
23538SOL    HW274017   0.595   6.994   2.816 -0.8591 -0.2060 -0.6368
23539SOL     OW74018   3.487   9.875   0.431  0.5710 -0.1327  0.0810
23539SOL    HW174019   3.519   9.954   0.474  0.3319 -1.1274  2.2138
23539SOL    HW274020   3.477   9.811   0.501  1.0898 -2.1969 -1.6112
23540SOL     OW74021   7.997   6.315   6.307  0.4507  0.4826 -0.6676
23540SOL    HW174022   8.003   6.279   6.218  2.5824  0.5813 -0.6220
23540SOL    HW274023   8.040   6.400   6.302 -0.2304  0.8976  0.2712
23541SOL     OW74024   6.054   9.398   8.666  0.3383 -0.6635 -0.4058
23541SOL    HW174025   6.048   9.485   8.708  0.1249 -0.8272 -0.0898
23541SOL    HW274026   6.082   9.417   8.577 -1.4476 -0.1138 -0.8880
23542SOL     OW74027   3.510   6.691   7.804 -0.0964  0.2013 -0.5570
23542SOL    HW174028   3.478   6.632   7.872  1.2629 -1.7405 -1.5150
23542SOL    HW274029   3.597   6.716   7.833 -1.3249  3.5187  0.8360
23543SOL     OW74030   7.643  10.115   3.537  0.2629 -0.3212 -0.2033
23543SOL    HW174031   7.638  10.210   3.524 -0.5007 -0.2945  0.2538
23543SOL    HW274032   7.555  10.090   3.564  0.2007 -1.3055 -1.2301
23544SOL     OW74033   4.268   1.108   2.520  0.2339  0.2955 -0.1755
23544SOL    HW174034   4.173   1.103   2.512 -0.3144 -0.9724  4.2818
23544SOL    HW274035   4.300   1.028   2.478 -0.9798 -0.5655  0.4809
23545SOL     OW74036   4.284   2.825   5.012 -0.0332 -0.9348  0.4367
23545SOL    HW174037   4.352   2.771   5.052  0.0850  0.3069  1.9991
23545SOL    HW274038   4.239   2.866   5.086 -1.6996 -0.7721 -0.6064
23546SOL     OW74039   3.750   7.863   4.653 -0.5707 -0.5300  0.2477
23546SOL    HW174040   3.762   7.855   4.558 -0.0309 -1.3683  0.3792
23546SOL    HW274041   3.824   7.916   4.682  0.3942 -1.9489  0.4556
23547SOL     OW74042   9.479   3.823   3.803 -0.2221  0.2693 -0.1825
23547SOL    HW174043   9.507   3.837   3.893  0.1573  0.4536 -0.3261
23547SOL    HW274044   9.488   3.729   3.789  1.9274  0.5092 -0.7315
23548SOL     OW74045   0.968  10.758   9.407 -0.0903  0.3618 -0.1584
23548SOL    HW174046   1.056  10.792   9.425 -0.8590  0.5409  4.4448
23548SOL    HW274047   0.977  10.663   9.414 -0.0864  0.3037 -0.8757
23549SOL     OW74048   0.841   4.982   7.836  0.4621 -0.1864 -0.0817
23549SOL    HW174049   0.885   5.057   7.876 -1.3276  0.5027  0.7029
23549SOL    HW274050   0.748   5.001   7.845 -0.0351 -1.4944 -1.8357
23550SOL     OW74051   4.063   9.853   8.338  0.0107 -0.1963 -0.4477
23550SOL    HW174052   3.995   9.790   8.315  0.0754 -1.0582  1.4822
23550SOL    HW274053   4.144   9.815   8.306  0.2131 -1.7733  1.7140
23551SOL     OW74054   1.503   1.791  10.867 -0.0745  0.2237 -0.3649
23551SOL    HW174055   1.559   1.748  10.802 -0.6602 -0.8362 -0.2061
23551SOL    HW274056   1.493   1.725  10.937 -0.5933  0.8183  0.1344
23552SOL     OW74057   4.995   6.864   7.779  0.6044 -0.1463  0.8337
23552SOL    HW174058   5.032   6.910   7.703  0.9332 -0.2534  0.9288
23552SOL    HW274059   5.024   6.773   7.768 -1.5815 -0.7835 -0.3688
23553SOL     OW74060   3.969   0.338   1.913  0.1631  0.4191  0.4217
23553SOL    HW174061   3.905   0.410   1.911  0.7293  1.0733 -3.5001
23553SOL    HW274062   3.957   0.297   1.999 -0.8688  4.5548  2.5228
23554SOL     OW74063   4.797   7.936   6.844  0.1103 -0.2379 -0.3422
23554SOL    HW174064   4.845   7.933   6.926 -0.7070 -0.7847  0.1321
23554SOL    HW274065   4.756   8.023   6.843  2.1186  0.7675 -1.3744
23555SOL     OW74066  10.467   1.965   3.408  0.5062 -0.2910 -0.1275
23555SOL    HW174067  10.414   2.044   3.406  1.5277  0.4137 -2.3191
23555SOL    HW274068  10.428   1.908   3.342 -1.1142 -2.3555  2.3775
23556SOL     OW74069   7.000   8.397   0.409  0.0075 -0.4636 -0.5804
23556SOL    HW174070   6.975   8.489   0.418 -0.0366 -0.6117  1.2328
23556SOL    HW274071   6.917   8.351   0.395 -0.0289 -0.2893 -0.9467
23557SOL     OW74072   9.614   9.781   9.125 -0.9569  0.3246 -0.3066
23557SOL    HW174073   9.681   9.752   9.064  0.8338  0.0824  1.6362
23557SOL    HW274074   9.654   9.855   9.172 -2.3150  0.6351  0.4215
23558SOL     OW74075   6.022   0.827   6.559  0.3341  0.1897 -0.2597
23558SOL    HW174076   6.045   0.734   6.568  1.0037  0.4857  1.4095
23558SOL    HW274077   6.061   0.853   6.475 -0.7779 -1.2618 -1.3009
23559SOL     OW74078   3.373   9.415   0.893  0.8234  0.1090 -0.3507
23559SOL    HW174079   3.295   9.435   0.840  0.5216 -0.6083 -0.1769
23559SOL    HW274080   3.340   9.407   0.982  0.7822 -2.0144 -0.5224
23560SOL     OW74081   3.715   3.379   3.605  0.3535 -0.0851  0.1960
23560SOL    HW174082   3.756   3.406   3.688 -1.6454 -0.0252  1.2265
23560SOL    HW274083   3.708   3.460   3.555  1.6654 -0.1371 -0.1319
23561SOL     OW74084   8.570   8.362   0.759 -0.6843  0.2162  0.2762
23561SOL    HW174085   8.638   8.366   0.827  1.0476  2.6603 -1.4020
23561SOL    HW274086   8.498   8.415   0.793 -1.4443 -1.6534  1.7003
23562SOL     OW74087   6.418  10.189   3.463 -0.3110  0.5146  0.3151
23562SOL    HW174088   6.489  10.138   3.425 -0.3586  0.4006  0.3798
23562SOL    HW274089   6.371  10.128   3.519 -1.2677  0.2341 -0.7604
23563SOL     OW74090   0.910   7.337   2.094 -0.0708 -0.3735 -0.3110
23563SOL    HW174091   0.875   7.348   2.006  1.3216 -1.5799 -1.0538
23563SOL    HW274092   0.913   7.242   2.107  1.1171 -0.2583  0.4353
23564SOL     OW74093   7.957   5.522   0.548 -0.1460 -0.2608  0.0143
23564SOL    HW174094   7.920   5.563   0.470 -0.1903  0.6074  0.4839
23564SOL    HW274095   8.046   5.557   0.553  0.4499 -1.6223 -0.5885
23565SOL     OW74096   2.914   7.317   3.490  0.3668  0.0831  0.2486
23565SOL    HW174097   2.907   7.401   3.446 -1.8644 -0.1662 -0.0162
23565SOL    HW274098   2.961   7.261   3.429 -0.3216  0.4855 -0.6708
23566SOL     OW74099   6.106   2.648   6.432  0.2839 -0.0379 -0.0850
23566SOL    HW174100   6.026   2.681   6.391  0.6579  0.9344 -0.0472
23566SOL    HW274101   6.118   2.561   6.394 -0.8953 -0.2781  0.0565
23567SOL     OW74102   6.187   0.879   7.180  0.2186  0.8978  0.0679
23567SOL    HW174103   6.234   0.807   7.222  1.7555  1.9141  0.1555
23567SOL    HW274104   6.196   0.861   7.086 -3.1861 -1.3535 -0.0147
23568SOL     OW74105   7.971   5.187   4.354  0.1287  0.1879 -0.0730
23568SOL    HW174106   8.062   5.205   4.376  0.0897  1.5318 -0.8966
23568SOL    HW274107   7.931   5.160   4.436  1.3748 -0.9950  0.1980
23569SOL     OW74108   1.970   5.810   1.965  0.5084  0.0574  0.5747
23569SOL    HW174109   1.963   5.781   2.056  0.5453 -1.2295  0.1845
23569SOL    HW274110   1.978   5.906   1.971  0.0910  0.0288  1.8925
23570SOL     OW74111   0.046   0.278   7.995  0.2953 -0.3837  0.0494
23570SOL    HW174112   0.124   0.263   7.943  0.0470 -1.4127 -0.0621
23570SOL    HW274113   0.031   0.194   8.040 -0.7486 -0.2135  0.0472
23571SOL     OW74114   0.420   5.655   8.311  0.5087 -0.2246 -0.0600
23571SOL    HW174115   0.485   5.604   8.263  0.5420  0.2423 -0.5172
23571SOL    HW274116   0.398   5.601   8.387  1.0077 -0.6354 -0.2063
23572SOL     OW74117   2.258   5.997   4.483 -0.0801 -0.0059  0.0242
23572SOL    HW174118   2.300   6.073   4.523 -0.0461  0.5960 -1.0944
23572SOL    HW274119   2.190   6.034   4.427  1.4900 -0.5909 -2.4292
23573SOL     OW74120   0.423   2.194   0.761 -0.0642  0.1787  0.8735
23573SOL    HW174121   0.331   2.187   0.736 -0.1552 -0.1871  1.2874
23573SOL    HW274122   0.468   2.133   0.702  0.0938  1.2932 -0.1817
23574SOL     OW74123   6.497   6.848   3.964  0.0084  0.5850 -1.0828
23574SOL    HW174124   6.470   6.865   3.873 -0.7396  0.5028 -0.8856
23574SOL    HW274125   6.483   6.931   4.009 -0.9954  0.2334 -0.7313
23575SOL     OW74126   2.360  10.794   1.891 -0.2351  0.3983  0.0644
23575SOL    HW174127   2.325  10.874   1.850 -0.9913  1.2468  2.2241
23575SOL    HW274128   2.400  10.825   1.972 -1.8949 -1.5453  1.7358
23576SOL     OW74129   0.080   7.349   8.559 -0.1059  0.9779  0.3734
23576SOL    HW174130   0.061   7.439   8.586 -0.8615  0.4768  1.5746
23576SOL    HW274131   0.148   7.358   8.493  1.9318  2.3181  2.4713
23577SOL     OW74132   6.154   7.715   3.925  0.1863 -0.0515 -0.7422
23577SOL    HW174133   6.225   7.734   3.864 -1.4158  0.4498 -2.5371
23577SOL    HW274134   6.079   7.694   3.869 -0.8423 -1.6249  1.0816
23578SOL     OW74135   4.789   7.503   4.636  0.0719  0.1761  0.4097
23578SOL    HW174136   4.752   7.524   4.722 -1.2755  3.3468 -0.7939
23578SOL    HW274137   4.881   7.529   4.642 -0.0158  0.3745  0.9041
23579SOL     OW74138   1.210   5.574   9.252  0.6124  0.1923  0.2083
23579SOL    HW174139   1.303   5.552   9.243  0.8441  0.8811  0.8883
23579SOL    HW274140   1.205   5.627   9.331 -0.4113 -0.0947  0.3431
23580SOL     OW74141   0.926   4.354   3.215 -0.1763  0.5733 -0.2886
23580SOL    HW174142   0.984   4.339   3.290  0.2537  3.1449 -0.0256
23580SOL    HW274143   0.838   4.355   3.252 -0.1257  0.0738 -0.1401
23581SOL     OW74144  10.830   8.423   9.205  0.5552  0.2234 -0.3115
23581SOL    HW174145  10.810   8.477   9.129  2.2900 -0.6068 -1.4074
23581SOL    HW274146  10.924   8.432   9.218  0.5782 -1.0559  0.6214
23582SOL     OW74147   8.604   7.094   0.505 -0.1479 -0.2022 -0.4753
23582SOL    HW174148   8.586   7.034   0.433 -1.5926 -1.1025  0.5644
23582SOL    HW274149   8.580   7.045   0.583  1.3961  0.7309  0.6483
23583SOL     OW74150   0.964   7.724   9.398  0.5101 -0.3981 -0.3448
23583SOL    HW174151   0.957   7.790   9.330 -1.5477 -0.3791 -0.1895
23583SOL    HW274152   1.038   7.670   9.372  0.7522  0.5601 -1.7345
23584SOL     OW74153  10.628   4.570  10.776  0.1360 -0.0341 -0.1197
23584SOL    HW174154  10.643   4.543  10.866 -1.3007  0.0271  0.1475
23584SOL    HW274155  10.639   4.665  10.776 -1.7526  0.2105  0.4116
23585SOL     OW74156   9.982   7.778   9.769  0.1196 -0.3178  0.0488
23585SOL    HW174157   9.935   7.702   9.736 -1.0018  0.5576 -0.4064
23585SOL    HW274158   9.977   7.843   9.699  0.1312  0.5583  0.8324
23586SOL     OW74159  10.787   2.165   0.961  0.2744 -0.3348 -0.5963
23586SOL    HW174160  10.720   2.191   0.897 -0.6688 -1.0151  0.0796
23586SOL    HW274161  10.739   2.116   1.027  0.7443  2.3010  1.9446
23587SOL     OW74162   2.337   9.434   9.440  0.1910 -0.3795 -0.1863
23587SOL    HW174163   2.295   9.517   9.462  0.1610 -0.3515 -0.3475
23587SOL    HW274164   2.430   9.454   9.440  0.3071 -0.7923  1.6548
23588SOL     OW74165   1.758   5.711   8.193 -0.4468  0.6498  0.0014
23588SOL    HW174166   1.708   5.789   8.217 -1.1985 -0.1502  1.1235
23588SOL    HW274167   1.692   5.642   8.184  0.3726 -0.2549  0.7731
23589SOL     OW74168   6.736  10.387   6.070 -0.1575 -0.0015  0.5022
23589SOL    HW174169   6.726  10.455   6.004  0.9862 -0.3838 -0.0887
23589SOL    HW274170   6.719  10.431   6.154  1.5158  1.2621  0.2215
23590SOL     OW74171   7.312  10.386   6.592  0.2987  0.2666 -0.7792
23590SOL    HW174172   7.222  10.412   6.574 -0.4811 -2.0565 -0.6309
23590SOL    HW274173   7.312  10.365   6.686  0.4388 -1.5563 -1.1484
23591SOL     OW74174   5.112   3.868   5.768  0.2327  0.0540 -0.0867
23591SOL    HW174175   5.036   3.821   5.804 -1.3630  0.7926 -2.2784
23591SOL    HW274176   5.097   3.959   5.792  0.8994  0.0884  0.2067
23592SOL     OW74177   8.290   6.628   1.253  0.4154  0.1975  0.0075
23592SOL    HW174178   8.314   6.584   1.334  3.0503 -0.1826 -0.8780
23592SOL    HW274179   8.198   6.606   1.239  0.1577 -0.4472  2.3967
23593SOL     OW74180   1.916   6.424   7.264  0.7388 -0.1567  0.1530
23593SOL    HW174181   1.992   6.471   7.229  0.3321  0.2339 -0.2284
23593SOL    HW274182   1.950   6.375   7.339  1.1043  1.1095  0.8582
23594SOL     OW74183   6.797  10.287   5.398 -0.8496 -0.1189 -0.4781
23594SOL    HW174184   6.860  10.354   5.426  0.1903 -0.5080 -1.8136
23594SOL    HW274185   6.727  10.293   5.462  0.2928  0.6940  0.7628
23595SOL     OW74186   3.626  10.053   2.087  0.1066 -0.4384  0.2140
23595SOL    HW174187   3.659  10.056   1.998 -0.1592  2.6488  0.1063
23595SOL    HW274188   3.557  10.119   2.090 -1.6405 -2.1920  2.1058
23596SOL     OW74189   4.617   1.783   8.508  0.3014 -0.0533  0.9212
23596SOL    HW174190   4.575   1.748   8.430 -0.7916 -0.0477  1.4748
23596SOL    HW274191   4.669   1.856   8.477 -1.9450  1.4591  0.4274
23597SOL     OW74192   0.773   8.113  10.579 -0.2835 -0.0818  0.3022
23597SOL    HW174193   0.791   8.027  10.616  1.9440  0.2360  0.0867
23597SOL    HW274194   0.683   8.106  10.545 -1.2154 -1.3854  2.7775
23598SOL     OW74195   8.379   8.350  10.178  0.5574 -0.1068  0.1980
23598SOL    HW174196   8.296   8.328  10.221  0.9569 -0.1094  0.9957
23598SOL    HW274197   8.411   8.426  10.226  0.9307  0.0090 -0.2295
23599SOL     OW74198   7.270   1.599   4.730  0.0375 -0.0040  0.7309
23599SOL    HW174199   7.201   1.603   4.664 -0.3250  0.2193  1.1194
23599SOL    HW274200   7.331   1.668   4.705 -1.2276  1.6152  1.8614
23600SOL     OW74201   4.712   8.246   7.205  0.0774  0.0351 -0.2815
23600SOL    HW174202   4.755   8.210   7.128 -0.1874  0.0573 -0.4424
23600SOL    HW274203   4.722   8.179   7.273 -0.0434 -0.1563 -0.4537
23601SOL     OW74204   8.335   4.366   8.386  0.2717  0.6106 -0.0767
23601SOL    HW174205   8.356   4.454   8.356 -0.0341  1.0731  1.0210
23601SOL    HW274206   8.346   4.370   8.481 -2.0117  0.1339  0.2667
23602SOL     OW74207   5.091   6.660   3.357  0.1857 -0.0316 -0.5694
23602SOL    HW174208   5.123   6.748   3.378  1.8311 -1.0132  1.3929
23602SOL    HW274209   5.076   6.620   3.442  0.1118 -1.8767 -1.4151
23603SOL     OW74210   5.884   4.961   2.592  0.3478  0.2405  0.3777
23603SOL    HW174211   5.918   4.948   2.681  2.2076  2.6918  0.1181
23603SOL    HW274212   5.792   4.985   2.604  0.6644  0.8648  1.6571
23604SOL     OW74213   6.780   5.200   8.241  0.8339 -0.1579  0.0111
23604SOL    HW174214   6.743   5.122   8.201 -0.3190  1.1851 -1.7222
23604SOL    HW274215   6.862   5.171   8.280  0.8390 -2.0590 -1.2977
23605SOL     OW74216   0.795   7.022   9.236  0.3925 -0.0231 -0.0286
23605SOL    HW174217   0.711   7.003   9.195  0.4626  1.3572 -0.8575
23605SOL    HW274218   0.838   7.083   9.176  1.8916 -0.5143  0.4972
23606SOL     OW74219  10.006  10.368   9.340  0.0373  0.3129  0.3857
23606SOL    HW174220   9.992  10.326   9.425 -0.6547 -0.5817 -0.1499
23606SOL    HW274221   9.947  10.443   9.341  1.3415  1.3731  1.3849
23607SOL     OW74222   1.767   0.671   6.750 -0.5909  0.3702  0.2947
23607SOL    HW174223   1.816   0.667   6.831  1.3780 -0.3167 -0.8626
23607SOL    HW274224   1.780   0.761   6.718 -0.0623  0.1936 -0.0025
23608SOL     OW74225   5.778   6.964   8.593 -0.4768 -0.0960  0.5330
23608SOL    HW174226   5.719   7.025   8.550 -0.8674 -0.6403  0.2783
23608SOL    HW274227   5.720   6.900   8.635 -0.1183 -1.9085 -1.5356
23609SOL     OW74228   6.693   7.533  10.676  0.6881 -0.4703 -0.3653
23609SOL    HW174229   6.783   7.563  10.670  0.4415  0.4971  0.4938
23609SOL    HW274230   6.682   7.475  10.601  2.3455 -1.4872  0.1141
23610SOL     OW74231  10.480   6.519  10.152  0.6044  0.2899 -0.4671
23610SOL    HW174232  10.421   6.475  10.213  0.5818  2.5886  1.2955
23610SOL    HW274233  10.442   6.606  10.140  1.4677  0.4320 -2.5656
23611SOL     OW74234   8.731   4.093   9.486 -0.8307  0.3128 -0.3635
23611SOL    HW174235   8.748   4.170   9.541 -1.6179  0.8307 -0.8259
23611SOL    HW274236   8.794   4.028   9.516 -1.0457  0.6821  0.9544
23612SOL     OW74237   6.215  10.384   5.135  0.8529 -0.0618  0.6847
23612SOL    HW174238   6.124  10.404   5.158 -0.0657 -1.3921 -1.4559
23612SOL    HW274239   6.228  10.294   5.164 -0.5793 -2.0732 -3.9084
23613SOL     OW74240   2.518   4.402  10.683 -0.3725  0.0575  0.5964
23613SOL    HW174241   2.529   4.307  10.687  0.7600  0.1684  0.4575
23613SOL    HW274242   2.425   4.416  10.701 -0.6595 -1.1054  0.1237
23614SOL     OW74243   0.315  10.415   2.641 -0.2869 -0.2411 -0.7006
23614SOL    HW174244   0.348  10.358   2.571  3.0502  0.9838 -0.2924
23614SOL    HW274245   0.289  10.355   2.711  0.1860 -1.3506 -1.4479
23615SOL     OW74246   8.959   9.819   6.007  0.3789 -0.1732 -0.2539
23615SOL    HW174247   9.047   9.850   5.989 -0.1768  2.2476  0.8716
23615SOL    HW274248   8.915   9.892   6.050 -1.9358 -1.5923  0.0003
23616SOL     OW74249   5.013   7.251   0.744 -0.5013 -0.5156 -0.2290
23616SOL    HW174250   4.937   7.273   0.799 -0.6192 -1.7517  0.1271
23616SOL    HW274251   5.085   7.242   0.806  0.2307  1.6712 -0.6545
23617SOL     OW74252   7.470   0.349  10.686  0.1388 -0.2134  0.5322
23617SOL    HW174253   7.432   0.436  10.672 -1.1666 -0.9059 -0.3193
23617SOL    HW274254   7.396   0.290  10.688  1.1089 -1.5255 -0.4736
23618SOL     OW74255   1.120   0.839   7.682 -0.2075  0.1901  0.0839
23618SOL    HW174256   1.117   0.816   7.774  3.5138 -1.1917 -0.0078
23618SOL    HW274257   1.151   0.930   7.681  0.7035 -0.1114  0.2099
23619SOL     OW74258   2.969   3.392   1.149  0.5105  0.6866  0.0368
23619SOL    HW174259   3.009   3.410   1.064  1.2124  0.2290  0.2631
23619SOL    HW274260   3.021   3.321   1.186  0.6969  1.3725  1.1663
23620SOL     OW74261   5.785   5.244   3.813 -0.3081  0.0844  0.0694
23620SOL    HW174262   5.836   5.272   3.889  0.1418  0.2827 -0.2989
23620SOL    HW274263   5.794   5.149   3.812  0.0625  0.1186  0.0030
23621SOL     OW74264   1.685   3.055   0.527 -0.2480 -0.5093 -0.5392
23621SOL    HW174265   1.757   3.114   0.501  0.0727  0.2068  1.7087
23621SOL    HW274266   1.616   3.072   0.464  0.5640  0.8626 -1.1080
23622SOL     OW74267  10.147   7.473   0.141 -0.3179 -0.1059 -0.0333
23622SOL    HW174268  10.196   7.471   0.223  0.4857 -1.4847 -0.4943
23622SOL    HW274269  10.124   7.381   0.125 -3.1669  0.4891  0.1830
23623SOL     OW74270   0.951   4.723   7.367 -0.4729 -0.4133 -0.3617
23623SOL    HW174271   0.902   4.803   7.350 -0.2624  0.0156  0.9841
23623SOL    HW274272   1.031   4.752   7.411 -0.6703 -1.4063  0.6928
23624SOL     OW74273  10.868   6.716   4.518  0.4422  0.1681 -0.1323
23624SOL    HW174274  10.851   6.782   4.451 -0.7750 -1.2370 -1.2811
23624SOL    HW274275  10.824   6.749   4.596  0.5447  1.0974 -0.4604
23625SOL     OW74276   7.252   1.551   1.343  0.3621 -0.3145  0.1691
23625SOL    HW174277   7.163   1.520   1.361  0.2864  0.3533  0.9757
23625SOL    HW274278   7.280   1.592   1.424  1.0042  0.4445 -0.4255
23626SOL     OW74279   0.404   8.348   6.309  0.3082  0.0209  0.3952
23626SOL    HW174280   0.400   8.305   6.223 -1.4117  0.7987  0.0297
23626SOL    HW274281   0.316   8.385   6.320 -0.0088 -1.3302  3.1667
23627SOL     OW74282   7.333   2.479   2.878 -0.6335 -0.3006 -0.8306
23627SOL    HW174283   7.353   2.548   2.814  1.5098  0.5387  0.6384
23627SOL    HW274284   7.374   2.401   2.842  1.2474  0.3415 -0.1788
23628SOL     OW74285   3.831   0.311   9.220  0.0250 -0.4434  0.1924
23628SOL    HW174286   3.872   0.280   9.139 -1.3074 -0.6432 -0.4377
23628SOL    HW274287   3.739   0.289   9.210 -0.4874  1.2032  0.9735
23629SOL     OW74288   9.733   3.939   6.786 -0.0464 -0.8697 -0.3662
23629SOL    HW174289   9.677   3.862   6.778 -0.5581 -0.5499  0.1605
23629SOL    HW274290   9.819   3.909   6.754  0.0641 -1.9914  0.9222
23630SOL     OW74291   6.630   9.067   8.110  0.1831 -0.1794 -0.3189
23630SOL    HW174292   6.673   8.988   8.141 -0.4528  0.2509  1.8183
23630SOL    HW274293   6.689   9.138   8.135 -1.9348  0.5161  3.5396
23631SOL     OW74294   8.395   5.911   4.483  0.9477  0.0421  0.2069
23631SOL    HW174295   8.309   5.879   4.457  0.5687  2.1495 -1.4502
23631SOL    HW274296   8.441   5.927   4.401  1.9835  1.3059  0.9743
23632SOL     OW74297   3.796   5.367   4.800 -0.3133  0.0566 -0.3065
23632SOL    HW174298   3.715   5.414   4.820 -0.4647  0.7628 -2.3268
23632SOL    HW274299   3.768   5.290   4.752  0.1929  0.0571 -0.6070
23633SOL     OW74300   0.564   4.908   5.925 -0.1359  0.0780  0.1833
23633SOL    HW174301   0.544   4.891   6.017  0.6118  0.1496  0.3646
23633SOL    HW274302   0.610   4.829   5.896 -2.8251 -1.1980 -0.9321
23634SOL     OW74303  10.248   1.367   5.002  0.1708 -0.4788  0.0159
23634SOL    HW174304  10.281   1.366   4.912  0.5116  1.1113  0.0799
23634SOL    HW274305  10.228   1.276   5.022  2.1456 -1.1696 -0.9169
23635SOL     OW74306   3.114   7.904   1.148 -0.0280  0.1226 -0.3047
23635SOL    HW174307   3.024   7.899   1.181 -0.2573 -1.4138 -1.0468
23635SOL    HW274308   3.162   7.953   1.215 -1.3546  0.7098  0.2436
23636SOL     OW74309   2.353   9.494   8.533 -0.2756  0.2736  0.3141
23636SOL    HW174310   2.438   9.504   8.490 -1.0925 -0.5230 -1.5647
23636SOL    HW274311   2.317   9.582   8.536  0.1107  0.4442  0.0175
23637SOL     OW74312   4.078   6.348   4.954  0.1245 -0.3179  0.0145
23637SOL    HW174313   4.098   6.257   4.936 -2.6654 -1.3702  1.4960
23637SOL    HW274314   4.149   6.378   5.011  0.3030 -2.0881  0.7893
23638SOL     OW74315   5.556   3.014   3.132  0.0692  0.2793 -0.0898
23638SOL    HW174316   5.580   2.938   3.077 -0.6839 -0.6620  0.8451
23638SOL    HW274317   5.635   3.033   3.182  0.2542  0.0774 -0.3041
23639SOL     OW74318   0.547   9.176  10.445 -0.3507  0.1246 -0.5025
23639SOL    HW174319   0.581   9.155  10.532 -1.4457 -0.6866 -0.2569
23639SOL    HW274320   0.461   9.214  10.461  0.1546  1.6532 -1.1569
23640SOL     OW74321   2.091   3.461   6.236 -0.0924  0.1078  0.0741
23640SOL    HW174322   2.052   3.406   6.304  0.8840  0.1624  0.7003
23640SOL    HW274323   2.061   3.549   6.255 -2.6975 -0.2815 -1.6636
23641SOL     OW74324   7.953   4.951   8.310 -0.0542  0.4947  0.0571
23641SOL    HW174325   7.879   4.890   8.310 -0.7090  1.2710 -0.1445
23641SOL    HW274326   7.928   5.018   8.374  0.0219  1.2878 -0.7287
23642SOL     OW74327   8.878  10.108   5.871  0.1343  0.6114 -0.0077
23642SOL    HW174328   8.964  10.122   5.912  0.8604 -1.9781 -0.4654
23642SOL    HW274329   8.849  10.196   5.847  1.5330  1.8186  2.3037
23643SOL     OW74330   7.635   4.448   2.190  0.5508 -0.1256 -0.5175
23643SOL    HW174331   7.653   4.366   2.235 -0.7716 -0.4711 -0.5820
23643SOL    HW274332   7.561   4.486   2.238 -0.1156  0.0667 -1.6715
23644SOL     OW74333   4.777   3.804   2.651 -0.3079 -0.3863 -0.5430
23644SOL    HW174334   4.694   3.756   2.656 -1.5821  1.5694 -1.5526
23644SOL    HW274335   4.790   3.820   2.558 -1.4853  3.5611 -0.2243
23645SOL     OW74336   6.974   5.519  10.259 -0.3001  0.1490 -0.2488
23645SOL    HW174337   6.960   5.561  10.344  0.7635  1.7931 -0.8281
23645SOL    HW274338   6.913   5.562  10.200  1.6086  1.8246 -1.1060
23646SOL     OW74339   5.100   6.858   3.627  0.0707 -0.2467 -0.0781
23646SOL    HW174340   5.193   6.862   3.608  0.4736  0.5219  1.8536
23646SOL    HW274341   5.086   6.770   3.661 -0.4589 -1.2640 -2.6770
23647SOL     OW74342   7.271   1.739   0.136  0.2289  0.0786 -0.4582
23647SOL    HW174343   7.224   1.775   0.061  1.6461  2.9292 -0.1074
23647SOL    HW274344   7.206   1.741   0.207 -0.6526 -1.1626 -1.1925
23648SOL     OW74345   4.585   3.203   2.560  0.2903  0.2491 -0.3825
23648SOL    HW174346   4.627   3.142   2.620  1.3512 -0.9379 -2.2398
23648SOL    HW274347   4.561   3.278   2.615  0.2591 -1.1959  1.6830
23649SOL     OW74348   6.502   8.527  10.283  0.3469  0.6658 -0.2397
23649SOL    HW174349   6.431   8.581  10.318 -0.2323 -1.8339  2.8895
23649SOL    HW274350   6.565   8.521  10.354  0.6457 -2.2071 -0.6308
23650SOL     OW74351   6.654   1.264   8.782  0.2840 -0.4452 -0.0114
23650SOL    HW174352   6.720   1.332   8.791 -2.2029  2.3439 -1.0838
23650SOL    HW274353   6.691   1.202   8.720  2.3239  0.3545  0.3450
23651SOL     OW74354   9.206   6.179   9.342  0.1577 -0.1291  0.5054
23651SOL    HW174355   9.190   6.131   9.423 -0.6023  0.8588  0.9742
23651SOL    HW274356   9.294   6.216   9.353  0.8465 -1.5794  0.0337
23652SOL     OW74357   0.272   1.752   2.202  0.5871  0.3956  0.5938
23652SOL    HW174358   0.223   1.711   2.131 -1.1065 -1.6916  2.7974
23652SOL    HW274359   0.363   1.752   2.172 -0.1129 -0.1278 -1.6695
23653SOL     OW74360   7.008   0.852   5.835 -0.0056 -0.4501 -0.3633
23653SOL    HW174361   7.079   0.872   5.896  0.6635 -0.9922 -0.9470
23653SOL    HW274362   6.931   0.895   5.873  0.2305 -1.3561  1.2317
23654SOL     OW74363   8.264   5.187   2.386 -0.0847  0.0756  0.0859
23654SOL    HW174364   8.305   5.167   2.470  0.6776  0.5399 -0.1742
23654SOL    HW274365   8.287   5.113   2.329  2.2335  1.3163 -0.6971
23655SOL     OW74366   6.237   9.434   5.064 -0.6565 -0.1685 -0.1651
23655SOL    HW174367   6.254   9.450   4.971  1.6745 -2.2834 -0.2222
23655SOL    HW274368   6.289   9.501   5.109 -0.4462 -0.1685 -0.4010
23656SOL     OW74369   3.557   3.810   8.383  0.0748  0.0113 -0.7703
23656SOL    HW174370   3.490   3.844   8.323 -1.2803  0.0734  0.7163
23656SOL    HW274371   3.572   3.881   8.445  1.6077  0.0204 -1.1108
23657SOL     OW74372   2.111   6.188  10.907 -0.2519 -0.3879 -0.1453
23657SOL    HW174373   2.139   6.109  10.954 -0.3831  0.2475  1.0173
23657SOL    HW274374   2.189   6.242  10.903 -0.4704 -0.0491  0.1455
23658SOL     OW74375   1.955   6.701  10.508  0.0776 -0.1148  0.4437
23658SOL    HW174376   1.980   6.715  10.599  1.4430 -0.7860  0.1894
23658SOL    HW274377   1.907   6.619  10.508  0.5731 -0.4072  0.4830
23659SOL     OW74378   5.811  10.583   3.650 -0.0090 -0.4003 -0.0845
23659SOL    HW174379   5.799  10.489   3.666  1.3953 -0.4972  0.6081
23659SOL    HW274380   5.735  10.624   3.690  0.6012 -1.1024  1.9395
23660SOL     OW74381   7.380   1.915   1.994 -0.3781 -0.2261 -0.2288
23660SOL    HW174382   7.412   1.856   2.063  0.0528  2.3828  1.9976
23660SOL    HW274383   7.459   1.955   1.957 -0.7164  0.5196 -0.1716
23661SOL     OW74384   1.941   1.651   9.765  0.1254 -0.4294 -0.6791
23661SOL    HW174385   1.940   1.744   9.786  0.3364 -0.6885  0.5296
23661SOL    HW274386   1.942   1.607   9.850 -0.4446 -1.5415 -1.2330
23662SOL     OW74387   2.495   8.001   2.575  0.3362  0.0273 -0.4209
23662SOL    HW174388   2.590   8.010   2.581  0.2495  0.1012  1.6558
23662SOL    HW274389   2.462   8.053   2.649 -1.0991 -2.9903  1.2619
23663SOL     OW74390  10.133   3.305   7.435 -0.3762 -0.2241 -0.2721
23663SOL    HW174391  10.164   3.392   7.462 -1.7812  0.8793 -1.9855
23663SOL    HW274392  10.082   3.274   7.510  0.6090  0.1576  0.5781
23664SOL     OW74393   6.452  10.430   1.639  0.3921 -0.5101  0.0495
23664SOL    HW174394   6.415  10.353   1.596 -0.7847 -0.0662  0.2187
23664SOL    HW274395   6.404  10.437   1.721 -0.7527  1.3529 -0.7050
23665SOL     OW74396   3.070   9.032   8.027 -0.3778 -0.2924  0.1692
23665SOL    HW174397   2.997   8.974   8.050 -1.8312  1.7882  1.1002
23665SOL    HW274398   3.116   9.046   8.110 -0.0037 -0.1503 -0.0606
23666SOL     OW74399   0.303   9.412   6.639 -0.0000 -0.8297  0.1148
23666SOL    HW174400   0.273   9.355   6.710  0.6421  0.1234  1.1840
23666SOL    HW274401   0.258   9.495   6.655  0.3931 -0.5123 -0.4100
23667SOL     OW74402   0.192   0.871   1.242 -0.6342 -0.3759  0.1593
23667SOL    HW174403   0.261   0.938   1.241 -0.5048 -0.5016 -1.0946
23667SOL    HW274404   0.162   0.869   1.333 -0.2960  1.0393  0.3363
23668SOL     OW74405   5.513   6.454   5.279 -0.4071 -0.0409  0.8263
23668SOL    HW174406   5.477   6.526   5.228  0.2673  0.4097  0.9671
23668SOL    HW274407   5.552   6.496   5.356 -1.0333 -0.6682  1.5123
23669SOL     OW74408   3.545   0.190   7.177 -0.6247  0.4311  0.3587
23669SOL    HW174409   3.556   0.276   7.215 -1.0434 -0.6289  3.0972
23669SOL    HW274410   3.450   0.175   7.178 -0.6841  0.4871 -1.4858
23670SOL     OW74411   2.588   4.686   0.646 -0.1115  0.1710 -0.4579
23670SOL    HW174412   2.493   4.681   0.644 -0.1979  1.6132 -1.3589
23670SOL    HW274413   2.609   4.728   0.729 -0.2626 -0.0154 -0.3258
23671SOL     OW74414   6.119   6.891   5.648  0.4425 -0.5801  0.1417
23671SOL    HW174415   6.205   6.885   5.606  0.4760 -1.2284  0.2830
23671SOL    HW274416   6.134   6.860   5.737  0.6876  2.2565  1.1548
23672SOL     OW74417   4.201  10.037   0.651  0.5341 -0.0974 -0.0156
23672SOL    HW174418   4.128  10.029   0.590  1.1733  0.9989 -0.9792
23672SOL    HW274419   4.252   9.957   0.638  0.4822 -0.0237 -0.6925
23673SOL     OW74420   6.608   6.812  10.642 -0.2595 -0.1141  0.1737
23673SOL    HW174421   6.702   6.814  10.625 -0.2838 -0.7271 -0.0548
23673SOL    HW274422   6.597   6.864  10.722  0.4457 -1.2059  1.0099
23674SOL     OW74423   0.947   0.509   5.897 -0.5276 -0.2448  0.3410
23674SOL    HW174424   0.900   0.436   5.938  0.0363 -0.4291  0.6764
23674SOL    HW274425   0.942   0.492   5.803 -1.3330 -0.1307  0.3501
23675SOL     OW74426   5.535   4.245   8.539  0.4275 -0.4054  0.2538
23675SOL    HW174427   5.554   4.252   8.632 -0.7118  0.8113  0.4218
23675SOL    HW274428   5.451   4.199   8.535  0.6318 -0.7541 -0.1974
23676SOL     OW74429   9.147   7.832   3.332  0.2513 -0.2532 -0.4272
23676SOL    HW174430   9.070   7.803   3.284  0.1792 -0.8369  0.0179
23676SOL    HW274431   9.186   7.751   3.366 -0.2799  0.1799  1.3514
23677SOL     OW74432   1.437   0.785   8.511 -0.1823  0.9225  0.4525
23677SOL    HW174433   1.464   0.876   8.527  0.3185  0.6076  1.4884
23677SOL    HW274434   1.398   0.757   8.594 -0.2117  0.1429  0.1851
23678SOL     OW74435   1.487   2.945   4.818  0.0280  0.4104 -0.1415
23678SOL    HW174436   1.516   3.027   4.857  1.0633 -0.2825  0.5942
23678SOL    HW274437   1.417   2.915   4.874  0.4616  0.1986  0.2937
23679SOL     OW74438   1.217   5.381   9.708  0.0504 -0.0989  0.2672
23679SOL    HW174439   1.273   5.435   9.654 -0.5920 -0.2818 -0.6033
23679SOL    HW274440   1.220   5.294   9.667 -2.2571  0.3054 -0.8897
23680SOL     OW74441   8.558  10.286   2.345 -0.5564  0.2583 -0.0806
23680SOL    HW174442   8.506  10.340   2.404  0.9976  0.5369  1.0634
23680SOL    HW274443   8.615  10.347   2.299 -0.2425 -0.1981 -0.3111
23681SOL     OW74444  10.597   4.446   4.862 -0.0971 -0.2204 -0.6271
23681SOL    HW174445  10.624   4.360   4.893 -1.6357 -0.1910  1.0049
23681SOL    HW274446  10.673   4.502   4.874 -0.3091 -0.4316  2.4227
23682SOL     OW74447   3.460   8.675   1.945  0.0838  0.2735 -0.7913
23682SOL    HW174448   3.394   8.608   1.926  0.5249 -0.2124 -0.6500
23682SOL    HW274449   3.416   8.758   1.928 -0.8943 -0.0023  0.3324
23683SOL     OW74450   3.278   0.482   3.057  0.4968  0.5161 -0.2264
23683SOL    HW174451   3.262   0.516   3.145 -1.2367 -0.3113 -0.1722
23683SOL    HW274452   3.369   0.504   3.038  0.8886  0.7563  1.7602
23684SOL     OW74453   8.838   7.360   3.055  0.7763  0.0868 -0.3226
23684SOL    HW174454   8.916   7.357   3.000  1.6659  2.4412  0.6623
23684SOL    HW274455   8.782   7.426   3.014  0.4018  0.1659  0.2924
23685SOL     OW74456   3.681   5.138   9.632 -0.1292 -0.1305 -0.7547
23685SOL    HW174457   3.693   5.123   9.538  2.7073 -1.5113 -0.2978
23685SOL    HW274458   3.731   5.068   9.674 -0.3510  1.1067  1.7886
23686SOL     OW74459   0.240   5.290   8.521  0.6234 -0.4852  0.6437
23686SOL    HW174460   0.253   5.347   8.597  1.0096 -1.7371  1.5394
23686SOL    HW274461   0.278   5.206   8.547  0.2068 -1.1153 -0.7080
23687SOL     OW74462   7.513   7.260   0.467 -0.1675 -0.2846 -0.2230
23687SOL    HW174463   7.574   7.315   0.418 -0.0278  0.9215  1.2146
23687SOL    HW274464   7.427   7.298   0.449 -0.4320 -1.4363 -1.5399
23688SOL     OW74465   9.285   1.746  10.267 -0.1418  0.0362 -0.6573
23688SOL    HW174466   9.355   1.782  10.212 -1.4538  1.9448 -1.1681
23688SOL    HW274467   9.268   1.659  10.231  0.5983  0.3469 -1.8045
23689SOL     OW74468   7.710   0.410  10.829 -0.1656  0.0382 -0.2728
23689SOL    HW174469   7.768   0.435  10.758 -0.6921  1.9856 -0.0617
23689SOL    HW274470   7.628   0.388  10.787 -1.1736  3.2500 -0.2536
23690SOL     OW74471   3.213   9.189   1.633 -0.4522 -0.0636 -0.6372
23690SOL    HW174472   3.247   9.104   1.662  0.3373  0.3603 -0.2807
23690SOL    HW274473   3.173   9.171   1.548  1.6236 -0.4334 -1.6003
23691SOL     OW74474   9.813  10.814   3.280  0.5013  0.4261  0.8946
23691SOL    HW174475   9.875  10.774   3.218 -1.0920  2.2492 -2.1572
23691SOL    HW274476   9.828  10.908   3.269 -0.6073  0.8188  2.5412
23692SOL     OW74477   0.373   8.465   3.262  0.5167 -0.2068 -0.0260
23692SOL    HW174478   0.465   8.481   3.280 -0.0880  3.0987  0.8593
23692SOL    HW274479   0.334   8.450   3.348 -0.1109  0.8580 -0.1061
23693SOL     OW74480  10.299   1.337   6.177  0.3429 -0.2473  0.1371
23693SOL    HW174481  10.301   1.298   6.089  1.4577 -1.7623  0.7865
23693SOL    HW274482  10.302   1.262   6.236  1.3078  0.7967  1.4625
23694SOL     OW74483   8.560   3.053   4.148  0.0567 -0.4867  0.3241
23694SOL    HW174484   8.465   3.054   4.160  0.3777 -0.0098  3.7083
23694SOL    HW274485   8.588   3.142   4.171  1.3426 -0.4298 -1.2166
23695SOL     OW74486   7.324   6.767   2.944  0.7487  0.3914  0.2863
23695SOL    HW174487   7.285   6.854   2.952  1.0120  0.3851  2.1095
23695SOL    HW274488   7.408   6.775   2.990  0.6443 -0.8808  0.7187
23696SOL     OW74489   7.203   2.794   7.213 -0.0764 -0.0999 -0.2845
23696SOL    HW174490   7.250   2.878   7.212  0.6405 -0.4896 -0.2228
23696SOL    HW274491   7.120   2.813   7.170  0.2683  0.5358 -0.6941
23697SOL     OW74492   3.267   5.855   1.425 -0.0590 -0.1912  0.9112
23697SOL    HW174493   3.348   5.850   1.476  0.3806 -0.1661  0.2158
23697SOL    HW274494   3.295   5.871   1.335 -0.6478 -3.3267  0.0452
23698SOL     OW74495   9.810   2.994   5.111  0.1693 -0.1763 -0.1817
23698SOL    HW174496   9.790   3.087   5.121 -0.5869 -0.3161 -0.3171
23698SOL    HW274497   9.905   2.990   5.105  0.2219  0.5639  0.0826
23699SOL     OW74498   4.471   5.639   5.555  0.7041 -0.5712 -0.0161
23699SOL    HW174499   4.429   5.555   5.542  0.6183 -0.4186 -0.7960
23699SOL    HW274500   4.399   5.703   5.554  0.8506 -0.4049 -0.3712
23700SOL     OW74501  10.202   6.396   6.731  0.2319 -0.1043 -0.1572
23700SOL    HW174502  10.204   6.318   6.675 -0.3919 -0.3148  0.0937
23700SOL    HW274503  10.213   6.469   6.671 -0.1994 -0.3402 -0.5315
23701SOL     OW74504   3.891   5.254   2.581  0.3659  0.2698 -0.2811
23701SOL    HW174505   3.969   5.224   2.533  0.2032  0.2132 -0.5119
23701SOL    HW274506   3.831   5.285   2.513  0.0348 -0.0347 -0.1316
23702SOL     OW74507   9.651   9.661   7.247  0.5762 -0.8756 -0.7461
23702SOL    HW174508   9.658   9.721   7.321  0.7721 -0.5888 -0.9933
23702SOL    HW274509   9.647   9.719   7.170  0.3941 -1.1692 -0.9600
23703SOL     OW74510   3.327   9.876   8.990 -0.2257  0.3404  0.2334
23703SOL    HW174511   3.381   9.859   9.067  0.3120  0.4281 -0.1199
23703SOL    HW274512   3.312   9.790   8.951  1.3301  0.4916 -0.7754
23704SOL     OW74513   5.261   1.509   0.494 -0.3761  0.1919  0.3290
23704SOL    HW174514   5.303   1.591   0.468 -0.9505 -0.0249 -1.4854
23704SOL    HW274515   5.317   1.440   0.458 -0.4153 -0.1868  0.9806
23705SOL     OW74516   5.385   1.536   1.694 -0.3307 -0.1134  0.4224
23705SOL    HW174517   5.339   1.613   1.726 -2.1690 -0.6576 -0.7513
23705SOL    HW274518   5.450   1.516   1.762 -0.2404  2.0482  1.0474
23706SOL     OW74519   5.791   4.189   2.084 -0.2346 -0.3082  0.6262
23706SOL    HW174520   5.815   4.186   1.992 -1.6033 -0.0570  0.2372
23706SOL    HW274521   5.866   4.230   2.128  0.3369 -0.2377 -0.3948
23707SOL     OW74522   3.567   2.082   0.761  0.8385 -0.2680 -0.3083
23707SOL    HW174523   3.645   2.076   0.706  2.0618  1.9567  1.0601
23707SOL    HW274524   3.557   2.175   0.779 -1.5901 -0.5895  0.3785
23708SOL     OW74525   4.807   8.904   3.873  0.0310  0.2262 -0.3641
23708SOL    HW174526   4.825   8.838   3.940  1.1714 -0.1023 -0.9774
23708SOL    HW274527   4.714   8.890   3.851 -0.3578  0.3224  1.1007
23709SOL     OW74528   5.054   5.831   2.671  0.0070  0.3358 -0.1892
23709SOL    HW174529   5.048   5.804   2.580  2.5093  0.3792 -0.4381
23709SOL    HW274530   5.140   5.874   2.678  0.1693 -0.2292  2.3197
23710SOL     OW74531   8.321  10.864   0.577 -0.4653 -0.2401  0.1762
23710SOL    HW174532   8.396  10.923   0.578 -1.1852  0.8931 -2.4744
23710SOL    HW274533   8.357  10.779   0.551  0.1887 -0.2521  1.1089
23711SOL     OW74534   3.639   3.033   3.597  0.0696  0.0919  0.4815
23711SOL    HW174535   3.701   2.965   3.624 -1.2324 -0.6712  1.6786
23711SOL    HW274536   3.629   3.089   3.674 -0.7734  0.1556  0.3332
23712SOL     OW74537   5.842   6.749  10.052  0.1004  0.2424 -0.1723
23712SOL    HW174538   5.853   6.740  10.146  0.7976 -1.7169 -0.4126
23712SOL    HW274539   5.896   6.825  10.029  0.6270  0.1978  0.8632
23713SOL     OW74540   7.224   9.378   2.553  0.3665 -0.4026 -0.5309
23713SOL    HW174541   7.236   9.355   2.645  0.5313  1.2769 -0.1005
23713SOL    HW274542   7.166   9.454   2.555  1.6915  0.6784 -1.7071
23714SOL     OW74543   1.454   0.292   5.217  0.3226 -0.5929  1.0312
23714SOL    HW174544   1.490   0.374   5.252 -0.1448  0.3019 -0.4935
23714SOL    HW274545   1.374   0.277   5.268 -0.0734  0.4106  0.7386
23715SOL     OW74546   3.951   6.600   2.666  0.0431  0.1408  0.4631
23715SOL    HW174547   4.028   6.547   2.646 -0.1076 -0.9595  2.5351
23715SOL    HW274548   3.877   6.539   2.662 -0.4125  0.6511  0.8030
23716SOL     OW74549   0.031   8.281   5.836  0.3327 -1.1170  0.3426
23716SOL    HW174550   0.035   8.309   5.927  0.4324 -0.6668  0.2030
23716SOL    HW274551   0.097   8.335   5.792 -1.0112  0.0299 -0.3477
23717SOL     OW74552  10.451   4.065  10.484  0.6786  0.0307 -0.2080
23717SOL    HW174553  10.514   4.129  10.450 -0.1638  1.8422  1.4243
23717SOL    HW274554  10.484   4.044  10.572 -0.1658 -0.1816  0.0636
23718SOL     OW74555   2.680   5.132   7.048  0.0131  0.0551  0.0604
23718SOL    HW174556   2.641   5.081   7.119 -1.7028  0.7100 -0.3576
23718SOL    HW274557   2.643   5.220   7.059  2.2177  1.0210  0.2375
23719SOL     OW74558   0.084   5.665   5.053 -0.7005  0.1448  0.4594
23719SOL    HW174559   0.015   5.722   5.018 -0.6048 -0.7577 -1.2893
23719SOL    HW274560   0.084   5.684   5.147 -1.6303  1.9802  0.1503
23720SOL     OW74561   4.946   8.868   7.452 -0.2529  0.1476 -0.1990
23720SOL    HW174562   4.967   8.913   7.370 -0.1703  2.7696  1.1835
23720SOL    HW274563   4.852   8.848   7.445 -0.0743 -0.4311 -1.2325
23721SOL     OW74564   7.955   8.687   2.448  0.2704  0.1792 -0.1348
23721SOL    HW174565   7.870   8.644   2.456 -1.1252  2.4230 -1.7039
23721SOL    HW274566   7.969   8.728   2.533 -0.8489  0.8142 -0.2376
23722SOL     OW74567   9.833   0.922   4.975  0.0173 -0.1378  0.0761
23722SOL    HW174568   9.848   0.861   4.902  2.4472 -2.3054  2.1848
23722SOL    HW274569   9.860   1.007   4.941 -1.2561 -0.5643 -2.2489
23723SOL     OW74570   8.726   7.309  10.562  0.0814 -0.8329  0.1390
23723SOL    HW174571   8.785   7.383  10.571  1.4147 -1.7383 -0.8487
23723SOL    HW274572   8.652   7.330  10.620 -0.2486  1.8745 -1.1037
23724SOL     OW74573   7.698   4.113   8.541  0.1478 -0.5673  0.2936
23724SOL    HW174574   7.657   4.181   8.487  0.7336 -1.6484 -1.6176
23724SOL    HW274575   7.742   4.161   8.611 -1.2164  0.8540  0.2224
23725SOL     OW74576   2.352   4.045   0.535  0.0306 -0.5250 -0.1420
23725SOL    HW174577   2.420   4.093   0.582 -1.1586  0.6113  0.4791
23725SOL    HW274578   2.271   4.089   0.558 -0.7444 -0.6723 -2.3187
23726SOL     OW74579   2.296   9.683   6.735  0.7227 -0.1942 -0.1321
23726SOL    HW174580   2.233   9.625   6.777  0.5246 -0.7764 -1.2074
23726SOL    HW274581   2.381   9.652   6.768  0.5265 -0.0944  0.4878
23727SOL     OW74582  10.622   7.994   5.967 -0.8135  0.0211  0.4340
23727SOL    HW174583  10.622   7.990   6.063 -1.9243  0.4531  0.4712
23727SOL    HW274584  10.570   8.072   5.947  1.3569  1.3477 -0.4970
23728SOL     OW74585   2.545   6.191   2.420  0.9968 -0.3559  0.2737
23728SOL    HW174586   2.450   6.203   2.410  0.7007 -0.5803  2.3785
23728SOL    HW274587   2.583   6.261   2.368 -0.3095 -0.2161 -0.5644
23729SOL     OW74588   8.541  10.735   6.825  0.0665  0.2016  0.0472
23729SOL    HW174589   8.504  10.671   6.885 -0.7031  0.7099  0.1374
23729SOL    HW274590   8.629  10.703   6.806  0.0576 -0.3438  0.8745
23730SOL     OW74591   3.637   7.233   5.616 -0.4769  0.4195 -0.8469
23730SOL    HW174592   3.596   7.207   5.534  2.8819  0.9926 -2.8880
23730SOL    HW274593   3.659   7.150   5.659 -1.0651  0.0955 -1.1583
23731SOL     OW74594   5.703   4.368   5.821  0.1069  0.3330  0.2201
23731SOL    HW174595   5.785   4.417   5.822 -0.0030  0.5356 -0.3151
23731SOL    HW274596   5.668   4.377   5.909  1.6313 -1.4181  1.0726
23732SOL     OW74597   8.230   3.913  10.639  0.0592 -0.1519  0.4156
23732SOL    HW174598   8.149   3.911  10.691 -0.0995 -2.5894  0.2062
23732SOL    HW274599   8.296   3.875  10.697  0.8483  0.9192  0.2364
23733SOL     OW74600   8.934   6.404   3.877  0.2055  0.2557 -0.5125
23733SOL    HW174601   8.929   6.336   3.810  0.5463  0.4097 -0.6994
23733SOL    HW274602   8.894   6.365   3.954 -2.8996  1.0750 -1.5772
23734SOL     OW74603   8.753   2.178   7.984 -0.6624 -0.0011 -0.4114
23734SOL    HW174604   8.742   2.115   7.912  0.7754  0.7327 -1.3207
23734SOL    HW274605   8.840   2.158   8.020 -0.6120  0.8150 -0.0588
23735SOL     OW74606   5.276   6.212   9.498 -0.0396 -0.5639 -0.1389
23735SOL    HW174607   5.185   6.203   9.527 -0.1331 -0.5421 -0.4318
23735SOL    HW274608   5.278   6.293   9.448 -0.6372 -2.2562 -3.1082
23736SOL     OW74609   4.584   8.841   2.900  0.5093  0.1330 -0.2284
23736SOL    HW174610   4.527   8.911   2.933  0.6404  0.2651 -0.2831
23736SOL    HW274611   4.635   8.882   2.831  1.2720  0.2387  0.3792
23737SOL     OW74612   0.943   2.341   1.659  0.2346 -0.5474 -0.2494
23737SOL    HW174613   0.993   2.375   1.585 -0.0519  0.1708 -0.1311
23737SOL    HW274614   1.010   2.309   1.720  0.5994  0.7695  0.0860
23738SOL     OW74615   0.946   7.448  10.244 -0.4221 -0.2012  0.0850
23738SOL    HW174616   0.891   7.473  10.318 -0.6448 -0.7009  0.0972
23738SOL    HW274617   0.942   7.523  10.184 -2.0483 -0.6611 -0.4338
23739SOL     OW74618   7.759   9.067   8.908  0.1290 -0.2852  0.0356
23739SOL    HW174619   7.733   9.010   8.836 -2.4072  0.2934  0.4055
23739SOL    HW274620   7.690   9.056   8.973 -0.4647  3.1250  0.1367
23740SOL     OW74621   5.551  10.015   5.725 -0.7017  0.2475  0.3558
23740SOL    HW174622   5.646  10.011   5.712 -0.8032 -1.2922 -0.0265
23740SOL    HW274623   5.520  10.070   5.652 -0.1329  0.6652  0.4158
23741SOL     OW74624   9.701   7.215   1.800 -0.1789 -0.5646  0.4890
23741SOL    HW174625   9.643   7.276   1.845  0.0385  0.0730 -0.0757
23741SOL    HW274626   9.728   7.262   1.721  0.0513 -1.3675  0.0829
23742SOL     OW74627   2.010   3.730   9.044  0.3635  0.0195  0.1085
23742SOL    HW174628   1.999   3.636   9.031 -1.9001  0.0003  1.5761
23742SOL    HW274629   2.014   3.766   8.956 -1.8602 -1.2043 -0.5778
23743SOL     OW74630   3.205   7.598   5.182  0.3514 -0.2760  0.0552
23743SOL    HW174631   3.117   7.619   5.214 -0.2252 -3.4713  0.9656
23743SOL    HW274632   3.246   7.551   5.255  2.1555 -0.4455 -1.0138
23744SOL     OW74633   8.448  10.106   0.968 -0.0995 -0.2476  0.1568
23744SOL    HW174634   8.386  10.158   1.019 -0.0066  0.5076 -0.4889
23744SOL    HW274635   8.436  10.135   0.878  2.4967  1.2895  0.2072
23745SOL     OW74636   2.996   7.078   6.497  0.2566  0.1363 -0.2269
23745SOL    HW174637   2.932   7.016   6.462  0.5133 -1.7247  2.3146
23745SOL    HW274638   3.062   7.085   6.429 -0.8131 -0.7993 -1.4123
23746SOL     OW74639   3.964   6.577   2.339  0.2342 -0.1061  0.0913
23746SOL    HW174640   4.057   6.588   2.321  0.1770  1.2927  0.5305
23746SOL    HW274641   3.957   6.586   2.434 -0.3179 -0.4381  0.0851
23747SOL     OW74642   3.843   8.217   1.120 -0.1592  0.2448 -0.8938
23747SOL    HW174643   3.885   8.270   1.188 -3.2737  1.1755  0.4778
23747SOL    HW274644   3.846   8.271   1.042 -1.0546  1.4490 -0.1380
23748SOL     OW74645   1.011   3.123   7.150 -0.0724 -0.1332 -0.0319
23748SOL    HW174646   0.947   3.162   7.092  0.1618 -1.2670 -1.0769
23748SOL    HW274647   1.073   3.194   7.168  0.0796  0.1288 -1.4980
23749SOL     OW74648   1.201   0.269   6.476  0.3046  0.3109 -0.0376
23749SOL    HW174649   1.224   0.293   6.565  0.4186 -1.5600  0.4762
23749SOL    HW274650   1.285   0.262   6.431  0.3004  0.3843 -0.0572
23750SOL     OW74651   6.652   8.763   3.953 -0.5097 -0.1086  0.3419
23750SOL    HW174652   6.653   8.674   3.986 -1.8990 -0.0674  0.5807
23750SOL    HW274653   6.620   8.755   3.863  1.5940 -0.0520 -0.4516
23751SOL     OW74654  10.425   0.530   6.581 -0.8719 -0.4895  0.3695
23751SOL    HW174655  10.465   0.597   6.635  0.9535 -0.3878 -0.9991
23751SOL    HW274656  10.467   0.448   6.608 -1.4303 -0.7481  0.4819
23752SOL     OW74657   0.227   0.367   6.668 -0.1559  0.1192  0.6872
23752SOL    HW174658   0.311   0.408   6.688  0.1780  1.2312 -2.4920
23752SOL    HW274659   0.249   0.291   6.615 -1.1161  1.5057 -1.8599
23753SOL     OW74660   2.228   5.208   9.006 -0.6823 -0.0170 -0.0109
23753SOL    HW174661   2.310   5.174   9.041 -2.3118 -1.8603  2.3410
23753SOL    HW274662   2.218   5.293   9.049 -0.2448 -0.0168  0.0977
23754SOL     OW74663   6.546   0.947   2.279  0.2289  0.1778  0.2931
23754SOL    HW174664   6.538   1.036   2.314  2.2847  0.5173  0.0035
23754SOL    HW274665   6.499   0.950   2.196 -1.8682  0.2644  1.4242
23755SOL     OW74666   6.907   6.030   1.213  0.8105  0.1478  0.0986
23755SOL    HW174667   6.830   5.973   1.210  2.4421 -2.1696 -0.9131
23755SOL    HW274668   6.891   6.097   1.147 -0.9444  0.5816  0.9298
23756SOL     OW74669   1.317   5.582   2.773 -0.2851 -0.4352 -0.0740
23756SOL    HW174670   1.272   5.661   2.744 -0.0092 -0.3101 -0.1632
23756SOL    HW274671   1.285   5.567   2.862  0.3976  0.3305  0.3115
23757SOL     OW74672   7.640   6.877   0.228  0.5161 -0.0132  0.0630
23757SOL    HW174673   7.655   6.787   0.258 -1.3415 -0.6101 -0.6323
23757SOL    HW274674   7.649   6.930   0.307  1.1421 -0.8733  0.5882
23758SOL     OW74675   4.264  10.565   1.836  0.5383  0.4725  0.0883
23758SOL    HW174676   4.352  10.541   1.805  0.4383 -0.5293  0.5228
23758SOL    HW274677   4.241  10.643   1.786  2.2523  1.6059  0.9473
23759SOL     OW74678   5.521   0.663  10.586  0.0609 -0.0340  0.2760
23759SOL    HW174679   5.476   0.601  10.643  0.2355 -0.9054 -0.5150
23759SOL    HW274680   5.578   0.609  10.531 -1.3133  0.5711 -1.8680
23760SOL     OW74681   6.960   1.587   9.419 -0.2856 -0.3516  0.4905
23760SOL    HW174682   6.967   1.664   9.474  2.0121 -0.7493  0.8670
23760SOL    HW274683   6.921   1.520   9.475 -2.3551  0.4941  0.1370
23761SOL     OW74684   7.256   4.886   1.241  0.0270 -0.3774 -0.1303
23761SOL    HW174685   7.256   4.949   1.313  1.5847 -0.0386 -0.4093
23761SOL    HW274686   7.239   4.938   1.163 -0.0190 -0.5040 -0.2054
23762SOL     OW74687   2.128   5.414   1.626  0.6967 -0.1138 -0.2267
23762SOL    HW174688   2.091   5.327   1.645  1.8407 -0.4304  0.6206
23762SOL    HW274689   2.174   5.438   1.706  0.8722  1.0357 -0.6635
23763SOL     OW74690   3.829   2.765   4.797 -0.1500  0.2029  0.0015
23763SOL    HW174691   3.924   2.757   4.806 -0.4471 -2.3624  1.6727
23763SOL    HW274692   3.815   2.777   4.703  1.7839 -0.1124 -0.3648
23764SOL     OW74693   2.985   5.482   7.286  0.2954 -0.0496  0.0440
23764SOL    HW174694   3.049   5.510   7.351 -0.9450  1.4830  0.6630
23764SOL    HW274695   3.012   5.525   7.205  0.5100 -0.0809  0.0994
23765SOL     OW74696   8.128   0.433   6.994  0.9772 -0.2212 -0.1826
23765SOL    HW174697   8.220   0.426   6.969  1.0732 -0.8334  0.3379
23765SOL    HW274698   8.102   0.344   7.016  0.0367 -0.1914 -1.0777
23766SOL     OW74699   3.676  10.309   5.558 -0.0066  0.3110  0.0393
23766SOL    HW174700   3.595  10.356   5.536  0.8156  1.6043 -0.3227
23766SOL    HW274701   3.651  10.253   5.631 -1.2337  0.6914 -0.0509
23767SOL     OW74702   9.016   2.571   6.072 -0.1774  0.0543  0.5663
23767SOL    HW174703   9.085   2.534   6.128  1.2016 -0.2981 -1.2872
23767SOL    HW274704   8.935   2.548   6.117  0.7367 -2.6199  1.0542
23768SOL     OW74705   9.916   5.296   9.936  0.2265 -0.0135  0.5782
23768SOL    HW174706  10.003   5.298   9.976  0.3435 -0.2774  0.3403
23768SOL    HW274707   9.855   5.297  10.010  0.4473 -0.9124  0.7846
23769SOL     OW74708   5.487   6.033   9.391 -0.2669  0.6908  0.0004
23769SOL    HW174709   5.432   6.112   9.382  0.3100  1.1643  0.5202
23769SOL    HW274710   5.557   6.060   9.451 -0.2144 -0.3065  0.3960
23770SOL     OW74711   5.489   5.372   0.141 -0.2631 -0.4541  0.1112
23770SOL    HW174712   5.585   5.373   0.137 -0.1331  4.0203 -2.2025
23770SOL    HW274713   5.460   5.371   0.050 -2.4514 -1.3123  0.7451
23771SOL     OW74714   0.961   4.225   2.242  0.2237 -0.7332  0.2128
23771SOL    HW174715   0.912   4.296   2.201 -0.6925 -0.2604  2.0322
23771SOL    HW274716   0.903   4.149   2.235  0.4914 -0.9033 -0.2237
23772SOL     OW74717   6.472   1.953   6.829  0.5367  0.0397  0.2097
23772SOL    HW174718   6.524   1.998   6.762 -1.0866 -1.2045 -1.9943
23772SOL    HW274719   6.517   1.870   6.843  0.8833  0.3053  0.7159
23773SOL     OW74720   1.809   0.008   2.928  0.5302  0.7541 -0.4612
23773SOL    HW174721   1.862  -0.051   2.875  0.2131 -0.4555  0.5415
23773SOL    HW274722   1.862   0.088   2.933  1.9776 -0.1801 -0.0505
23774SOL     OW74723   9.049   8.469   3.867  0.0932 -0.3933  0.0532
23774SOL    HW174724   8.963   8.455   3.907  0.0360  1.4993  0.7130
23774SOL    HW274725   9.104   8.499   3.939  1.7047 -2.7035 -0.0936
23775SOL     OW74726  10.881   1.670   8.075  0.1333  0.1919  0.5859
23775SOL    HW174727  10.837   1.587   8.054  0.8261 -0.6140  2.1316
23775SOL    HW274728  10.810   1.728   8.104 -0.5833  0.7367 -1.9985
23776SOL     OW74729   2.389   2.751   0.550 -0.1039  0.5055 -0.4400
23776SOL    HW174730   2.331   2.698   0.495 -2.2149  0.2774  1.8428
23776SOL    HW274731   2.330   2.807   0.600  1.5894  0.0680  2.2350
23777SOL     OW74732   2.119   6.742   9.325  0.7083  0.2131 -0.6270
23777SOL    HW174733   2.100   6.705   9.411 -0.8231  0.0641 -0.9971
23777SOL    HW274734   2.157   6.670   9.275 -0.6298 -0.4149 -0.7963
23778SOL     OW74735   6.221   8.064   2.775  0.2861 -0.3215  0.1264
23778SOL    HW174736   6.279   8.140   2.786 -1.6392  1.2153  0.2445
23778SOL    HW274737   6.225   8.045   2.681  0.7415 -0.0309  0.0809
23779SOL     OW74738  10.389   5.187   3.046  0.1963 -0.1870  0.4679
23779SOL    HW174739  10.419   5.276   3.065  0.3199  0.0593 -0.7826
23779SOL    HW274740  10.370   5.188   2.952  2.1533 -2.0326 -0.0223
23780SOL     OW74741   2.223   5.970   5.218  0.1268 -0.1808  0.0830
23780SOL    HW174742   2.149   6.014   5.179  0.7956 -1.4127 -2.8164
23780SOL    HW274743   2.203   5.877   5.211  1.3041 -0.5081  0.6303
23781SOL     OW74744   4.993   8.886   4.936 -0.1610  0.0038  0.1936
23781SOL    HW174745   5.079   8.927   4.926 -0.1885  0.2601  0.9276
23781SOL    HW274746   5.012   8.795   4.959 -0.0780  0.2106  0.9527
23782SOL     OW74747   0.044   6.985   4.726  0.1373  0.4604  0.0500
23782SOL    HW174748  -0.015   7.041   4.777  0.1931  1.0814 -0.5568
23782SOL    HW274749   0.097   6.940   4.792 -1.6710 -0.8950  0.6619
23783SOL     OW74750   0.012   6.333   3.892 -0.0365 -0.0740 -0.8686
23783SOL    HW174751  -0.027   6.407   3.847 -0.8315 -1.3555 -2.4219
23783SOL    HW274752   0.005   6.353   3.985 -0.6307  1.5612 -1.2515
23784SOL     OW74753   5.919   2.817   8.462 -0.3254 -0.1709 -0.2790
23784SOL    HW174754   5.903   2.883   8.530  0.4637 -0.1673 -0.0833
23784SOL    HW274755   5.914   2.733   8.508  0.1647 -0.1704 -0.2149
23785SOL     OW74756   5.209   2.884  10.059 -0.0589 -0.1459 -0.4127
23785SOL    HW174757   5.232   2.796  10.028  2.4399 -0.0067  0.7424
23785SOL    HW274758   5.227   2.941   9.983 -0.1365 -0.4693 -0.6767
23786SOL     OW74759   4.757   0.032  10.037 -0.5707  0.2298  0.5607
23786SOL    HW174760   4.760  -0.000   9.947  0.8324  1.4162  0.1300
23786SOL    HW274761   4.809  -0.031  10.087 -2.2242 -1.0232  0.8045
23787SOL     OW74762   8.875   3.208   6.434  0.1076  0.4432  0.3710
23787SOL    HW174763   8.784   3.223   6.407  0.2499  0.7394  0.0394
23787SOL    HW274764   8.907   3.295   6.458 -0.1375  0.1306  1.9121
23788SOL     OW74765   7.155   4.179   7.305 -0.3281  0.0108 -0.2417
23788SOL    HW174766   7.151   4.093   7.347  2.9466  0.4098  1.1804
23788SOL    HW274767   7.178   4.160   7.214  1.1554 -0.6457  0.2471
23789SOL     OW74768   5.401   0.177   2.910 -0.1175  0.7548 -0.0209
23789SOL    HW174769   5.456   0.228   2.850  1.6565 -0.8804  0.1302
23789SOL    HW274770   5.413   0.219   2.995  0.9338  0.4235  0.0066
23790SOL     OW74771   7.249   4.619   3.642 -1.0603  1.0971  0.0459
23790SOL    HW174772   7.296   4.550   3.690 -0.0493  2.1977  0.6765
23790SOL    HW274773   7.188   4.656   3.706 -0.4956  1.8181  0.1826
23791SOL     OW74774   4.171   3.456  10.451 -0.0212 -0.0655 -0.0605
23791SOL    HW174775   4.173   3.411  10.366  1.1164  1.7264 -1.0551
23791SOL    HW274776   4.127   3.539  10.432 -1.4710 -0.4016  1.5789
23792SOL     OW74777   0.629   2.490   1.920  0.8180 -0.3605 -0.5084
23792SOL    HW174778   0.584   2.573   1.904  1.8074  0.4508  0.7670
23792SOL    HW274779   0.709   2.515   1.966  0.2659 -2.1760  1.5678
23793SOL     OW74780   6.940   4.186   8.727 -0.0488 -0.1572  0.1477
23793SOL    HW174781   7.028   4.152   8.744 -0.2732 -0.9219 -0.1588
23793SOL    HW274782   6.924   4.164   8.635 -1.2405 -1.6169  0.6667
23794SOL     OW74783   2.904   0.964   7.599  0.2519 -0.1653 -0.0367
23794SOL    HW174784   2.995   0.938   7.584  0.1139 -0.7368  0.1084
23794SOL    HW274785   2.884   0.935   7.688 -0.0704 -0.0316 -0.0626
23795SOL     OW74786   5.723   4.825   2.384 -0.0854  0.6416 -0.9099
23795SOL    HW174787   5.671   4.892   2.340  0.5795 -0.8797 -4.3731
23795SOL    HW274788   5.813   4.857   2.379 -0.0361  0.5961 -0.3563
23796SOL     OW74789   3.541  10.459   7.233  0.1234  0.2898  0.1862
23796SOL    HW174790   3.546  10.538   7.286 -0.9313  0.1640  0.5077
23796SOL    HW274791   3.591  10.479   7.154  1.5669  0.5461  1.1382
23797SOL     OW74792   5.478  10.360   1.703 -0.2185  0.1163 -0.5715
23797SOL    HW174793   5.409  10.410   1.660 -0.7206  0.0442  0.1489
23797SOL    HW274794   5.475  10.274   1.660 -1.3947 -0.2891  0.2843
23798SOL     OW74795  10.614   7.292   2.187 -0.7084  0.4588 -1.1206
23798SOL    HW174796  10.593   7.315   2.278  2.4230  0.8171 -0.3704
23798SOL    HW274797  10.662   7.368   2.154  3.1151 -1.7257 -1.1316
23799SOL     OW74798   7.092   1.920  10.302 -0.2861  0.3658 -0.1649
23799SOL    HW174799   7.168   1.935  10.358 -0.0879  0.2100 -0.3874
23799SOL    HW274800   7.125   1.936  10.213 -0.7972  1.4157 -0.1866
23800SOL     OW74801   3.889   9.920   4.032 -0.4512 -0.1664 -0.2603
23800SOL    HW174802   3.856   9.832   4.050 -0.9845  0.0571 -0.0995
23800SOL    HW274803   3.928   9.915   3.945  0.1786 -0.7361  0.0437
23801SOL     OW74804   9.548   5.307   4.192  0.5578  0.1527  0.2112
23801SOL    HW174805   9.592   5.372   4.137  1.6077 -0.6357  0.0834
23801SOL    HW274806   9.571   5.223   4.153 -1.4447 -0.2867 -0.1101
23802SOL     OW74807   8.964   8.915  10.376  0.5683  0.3587 -0.6770
23802SOL    HW174808   8.959   9.010  10.388  0.1650  0.5290 -2.0025
23802SOL    HW274809   9.053   8.900  10.343  1.0845  0.1035  0.7754
23803SOL     OW74810  10.569   6.595   6.346 -0.3360  0.1757  0.0081
23803SOL    HW174811  10.580   6.582   6.440 -1.2185 -0.6686  0.0070
23803SOL    HW274812  10.569   6.506   6.309 -1.9052  0.3789 -0.5556
23804SOL     OW74813   3.677   2.071   8.039 -0.1567 -0.2458  0.3711
23804SOL    HW174814   3.720   2.111   7.963 -0.8165 -0.8146 -0.3155
23804SOL    HW274815   3.744   2.016   8.079 -0.1152 -0.8305 -0.4727
23805SOL     OW74816   2.843   4.024   6.619 -0.2893 -0.3794  0.0564
23805SOL    HW174817   2.764   3.970   6.611 -1.0455  0.5072  1.3246
23805SOL    HW274818   2.840   4.058   6.708  0.9480  0.5736 -0.2452
23806SOL     OW74819   2.680   5.474  10.572  0.3371 -0.0477 -0.4628
23806SOL    HW174820   2.665   5.563  10.604 -1.0965 -0.1570 -0.7799
23806SOL    HW274821   2.775   5.465  10.570  0.4925  1.2567  0.1760
23807SOL     OW74822   8.234   9.790   3.940 -0.6556  0.1891  0.2659
23807SOL    HW174823   8.172   9.747   3.999 -0.8007 -1.8813 -1.2881
23807SOL    HW274824   8.320   9.767   3.976 -0.7002 -2.2546 -0.9721
23808SOL     OW74825   1.184   3.265   6.628 -0.0076 -0.3221 -0.3831
23808SOL    HW174826   1.114   3.221   6.676 -0.5960 -0.4428 -1.3374
23808SOL    HW274827   1.220   3.198   6.571  1.0286 -0.3082  0.2219
23809SOL     OW74828   5.510   4.944   6.362 -0.1029 -0.4161  0.0224
23809SOL    HW174829   5.541   4.946   6.452  0.4123 -2.3633 -0.0607
23809SOL    HW274830   5.570   5.002   6.315  1.4273 -1.5715  0.4609
23810SOL     OW74831   6.141   5.183   2.539 -0.1699 -0.1419  0.5611
23810SOL    HW174832   6.138   5.087   2.539 -1.2172 -0.1598  2.1593
23810SOL    HW274833   6.221   5.205   2.585  0.2389 -0.2313 -0.0944
23811SOL     OW74834   1.609   0.421   6.189 -0.5294 -0.2379 -0.1323
23811SOL    HW174835   1.583   0.373   6.111 -0.3812 -0.3648 -0.1035
23811SOL    HW274836   1.667   0.361   6.236  1.3565  0.7259 -1.1241
23812SOL     OW74837   2.644   4.166   4.871 -0.4162 -0.0787  0.4841
23812SOL    HW174838   2.582   4.176   4.944  0.5691 -1.7354  1.6303
23812SOL    HW274839   2.678   4.254   4.855 -1.5104  0.5052  1.2378
23813SOL     OW74840   5.084   8.825   8.475  0.1364 -0.1534  0.2039
23813SOL    HW174841   5.003   8.803   8.520 -0.5267 -0.9286 -1.2939
23813SOL    HW274842   5.072   8.914   8.444 -0.5172 -0.5637 -0.7579
23814SOL     OW74843   8.565   9.051   6.606  0.1845 -0.4903 -0.6320
23814SOL    HW174844   8.520   9.089   6.682  1.1625 -0.2474 -0.1575
23814SOL    HW274845   8.512   9.078   6.531  0.1087  0.6729 -0.1832
23815SOL     OW74846   7.892   3.039   2.924 -0.0081  0.0672  0.2599
23815SOL    HW174847   7.816   2.980   2.920 -0.5668  0.8077 -1.0011
23815SOL    HW274848   7.954   2.995   2.981 -0.8693 -1.1950  0.2705
23816SOL     OW74849   3.394   6.990   3.499  0.2608 -0.8196 -0.6863
23816SOL    HW174850   3.445   6.935   3.439 -0.7364 -0.7187 -1.6490
23816SOL    HW274851   3.460   7.042   3.546  1.0039  0.3833 -2.9256
23817SOL     OW74852   1.477   5.697   0.072  0.2698  0.2809  0.0639
23817SOL    HW174853   1.503   5.714   0.163  1.6882  0.0948 -0.2831
23817SOL    HW274854   1.439   5.610   0.074 -0.5603  0.6423  0.6295
23818SOL     OW74855   9.776   7.572   2.024  0.1083  0.3891 -0.3254
23818SOL    HW174856   9.787   7.510   2.096  0.5369  1.0363  0.1767
23818SOL    HW274857   9.749   7.653   2.066 -1.5421  0.2757 -1.0692
23819SOL     OW74858   1.142   7.639   4.901  0.2619  0.1468  0.1077
23819SOL    HW174859   1.115   7.616   4.990 -0.8997 -0.0646 -0.2836
23819SOL    HW274860   1.187   7.723   4.911  3.3335 -1.4787  1.3660
23820SOL     OW74861   6.570   9.236   3.034  0.2379 -0.8266  0.0836
23820SOL    HW174862   6.548   9.262   2.944  0.2608 -1.5516 -0.1362
23820SOL    HW274863   6.575   9.141   3.031  1.8364 -0.7787  0.4919
23821SOL     OW74864   1.990   1.332   4.251  0.6404 -0.1441  0.3779
23821SOL    HW174865   1.913   1.382   4.278  0.7288 -0.2061  0.7615
23821SOL    HW274866   1.975   1.312   4.159 -0.0258 -0.5604  0.5680
23822SOL     OW74867   9.552   5.699   3.990  0.6094  0.2205 -0.4177
23822SOL    HW174868   9.617   5.769   3.978 -1.3513  1.9456 -1.6387
23822SOL    HW274869   9.468   5.744   3.989 -0.6422 -1.8650  1.7435
23823SOL     OW74870   1.184   7.670   3.921  0.3792  0.2925 -0.4316
23823SOL    HW174871   1.148   7.582   3.919  0.5049  0.2145  0.4215
23823SOL    HW274872   1.228   7.676   4.005  0.1703  1.2526 -0.3816
23824SOL     OW74873   3.462   8.993   5.038  0.2549 -0.2166 -0.3633
23824SOL    HW174874   3.524   8.997   5.111 -0.6089 -1.8162  0.5198
23824SOL    HW274875   3.395   8.930   5.067 -0.0453 -1.0028 -2.5982
23825SOL     OW74876   6.047   9.531   9.613  0.3411 -0.1635 -0.6778
23825SOL    HW174877   6.114   9.518   9.680  0.6578  1.0653 -0.7283
23825SOL    HW274878   6.095   9.569   9.539 -0.2417 -0.2017 -1.0791
23826SOL     OW74879   9.426   2.861   1.030 -0.5226  0.0597 -0.2560
23826SOL    HW174880   9.427   2.804   1.107 -0.3119 -0.4876 -0.6558
23826SOL    HW274881   9.369   2.816   0.968  0.3352 -0.1670 -0.9072
23827SOL     OW74882   5.052   7.086   7.158 -0.2137  0.2280  0.1359
23827SOL    HW174883   5.128   7.136   7.186  1.2134 -1.9253  0.3328
23827SOL    HW274884   5.049   7.011   7.218 -2.3119  0.0899 -0.0682
23828SOL     OW74885  10.833   3.747   4.977 -0.0425  0.4347 -0.9137
23828SOL    HW174886  10.864   3.658   4.955  0.0022  0.3191 -0.3834
23828SOL    HW274887  10.794   3.779   4.895 -1.0058 -0.4733 -0.8313
23829SOL     OW74888   6.532   4.617   1.867 -0.0541  0.0634 -0.2542
23829SOL    HW174889   6.582   4.615   1.948 -0.5239  1.6112  0.1141
23829SOL    HW274890   6.585   4.671   1.808  0.3232 -1.1224 -1.0163
23830SOL     OW74891   1.095  10.106   8.258 -0.4160 -0.0485  0.0181
23830SOL    HW174892   1.103  10.156   8.177 -2.7576 -0.2563 -0.4067
23830SOL    HW274893   1.001  10.110   8.279  0.1011 -0.0785  2.6679
23831SOL     OW74894   0.632   3.198   6.691  1.3351 -0.0659 -0.1900
23831SOL    HW174895   0.557   3.255   6.678  1.4201 -0.3107 -1.9211
23831SOL    HW274896   0.595   3.115   6.721  0.9186 -0.1235 -0.8445
23832SOL     OW74897   0.612   5.551   6.045 -0.3200  0.5798 -0.3448
23832SOL    HW174898   0.631   5.548   5.951  0.8357 -0.2431 -0.1091
23832SOL    HW274899   0.590   5.461   6.068  0.7058  0.4991  0.4023
23833SOL     OW74900   2.133   3.018   3.579  0.2326  0.2280  0.5754
23833SOL    HW174901   2.205   2.955   3.570  1.6847  2.0301 -1.5369
23833SOL    HW274902   2.073   2.977   3.642  1.8209 -2.5261  0.4645
23834SOL     OW74903   5.720   4.015   8.666  0.1917  0.1839 -0.6255
23834SOL    HW174904   5.688   3.925   8.667 -0.4490  0.4032 -0.8557
23834SOL    HW274905   5.707   4.043   8.576 -1.5706  1.1848 -0.1044
23835SOL     OW74906   9.164   8.934   0.718 -0.5550 -0.5814  0.5042
23835SOL    HW174907   9.237   8.897   0.768 -0.5681  0.2386  1.1370
23835SOL    HW274908   9.205   8.999   0.660 -0.7848 -0.0996  0.8809
23836SOL     OW74909   2.601   0.019   5.386  0.4094 -0.0470  0.2369
23836SOL    HW174910   2.693   0.043   5.400 -0.2770  2.4702  0.8950
23836SOL    HW274911   2.553   0.067   5.454 -1.5379 -0.2144 -0.9614
23837SOL     OW74912   2.345   6.783   4.034 -0.1915 -0.5750 -0.4502
23837SOL    HW174913   2.303   6.700   4.056 -0.1326  0.1125  2.6991
23837SOL    HW274914   2.273   6.838   4.002 -0.5007 -1.3671 -1.1377
23838SOL     OW74915   2.687   6.848   3.059  0.0878  0.0248  0.1616
23838SOL    HW174916   2.645   6.837   3.144  0.1865  0.8468  0.3196
23838SOL    HW274917   2.770   6.802   3.067  0.1687  0.2380  0.5644
23839SOL     OW74918   8.503   8.904   3.671  0.0936  0.3529  0.6394
23839SOL    HW174919   8.499   8.825   3.616  1.8698 -0.7572  1.9927
23839SOL    HW274920   8.428   8.957   3.643 -1.3035 -1.9066 -0.1608
23840SOL     OW74921   3.683   2.350   6.039 -0.0830 -0.2005  0.2916
23840SOL    HW174922   3.729   2.428   6.070  1.1119 -1.0634  0.7766
23840SOL    HW274923   3.688   2.288   6.112 -1.2004 -0.6652 -0.0049
23841SOL     OW74924   1.951   1.059   2.764  0.2374 -0.2889 -0.0417
23841SOL    HW174925   1.894   1.133   2.786 -0.3840 -0.0242 -2.3308
23841SOL    HW274926   1.924   1.033   2.676  2.2916 -1.4809 -0.3763
23842SOL     OW74927   7.444   7.624   9.721 -0.1417 -0.4227  0.1627
23842SOL    HW174928   7.390   7.603   9.645 -2.0146  0.1097  1.2913
23842SOL    HW274929   7.420   7.714   9.744  0.1585 -0.6740  1.5651
23843SOL     OW74930  10.025   4.889   5.650  0.0834 -0.1927  0.2241
23843SOL    HW174931  10.028   4.893   5.555 -3.4954  0.2023 -0.0050
23843SOL    HW274932   9.963   4.957   5.675  1.4075  0.1524  2.9448
23844SOL     OW74933   8.903   3.617   3.611  0.1854 -0.1408 -0.3622
23844SOL    HW174934   8.933   3.616   3.520  0.2195 -0.2742 -0.3493
23844SOL    HW274935   8.809   3.636   3.605 -0.1972 -1.9470 -0.5325
23845SOL     OW74936   0.437   6.542   1.025 -0.0844  0.4827  0.2238
23845SOL    HW174937   0.344   6.524   1.039  0.6949 -2.4933  2.7760
23845SOL    HW274938   0.456   6.502   0.940 -1.4916  3.2232 -1.4931
23846SOL     OW74939   4.692   5.411   8.185 -0.5573 -0.3570 -0.3509
23846SOL    HW174940   4.735   5.493   8.158 -1.0674  0.0114 -0.0697
23846SOL    HW274941   4.655   5.376   8.105 -1.8673  0.6153 -0.2168
23847SOL     OW74942   7.742   3.506   7.759  0.5075 -0.4093 -0.0403
23847SOL    HW174943   7.677   3.437   7.752  0.4021 -0.3135  0.0020
23847SOL    HW274944   7.745   3.545   7.671  1.1150 -0.9646 -0.2793
23848SOL     OW74945   5.416   1.849   1.918  0.2160 -0.0097 -0.1799
23848SOL    HW174946   5.333   1.896   1.909  0.3840  0.2515 -0.4142
23848SOL    HW274947   5.466   1.902   1.981 -0.2792 -0.8676  0.9557
23849SOL     OW74948   3.310   1.315   2.949  0.3239 -0.4991  0.2702
23849SOL    HW174949   3.278   1.297   2.861  0.0859 -0.3571  0.3272
23849SOL    HW274950   3.235   1.352   2.995  0.6714  0.1788  0.2985
23850SOL     OW74951   7.673   5.522  10.169 -0.3793  0.3496 -0.3850
23850SOL    HW174952   7.707   5.434  10.150  0.9029  0.8006 -0.2431
23850SOL    HW274953   7.660   5.523  10.264 -1.2030  0.0480 -0.4842
23851SOL     OW74954   3.016   8.280   8.914  0.0217  0.4756 -0.3089
23851SOL    HW174955   2.938   8.227   8.930  1.0867 -0.7428  1.1626
23851SOL    HW274956   3.028   8.330   8.995  1.0210  0.2741 -0.3157
23852SOL     OW74957   3.322  10.518   2.122 -0.1927 -0.1316  0.0940
23852SOL    HW174958   3.339  10.427   2.098  0.6334  0.7228 -3.0327
23852SOL    HW274959   3.241  10.540   2.075  0.0085  0.9398  0.2349
23853SOL     OW74960   6.213   2.888   6.314 -0.3983 -1.0745  0.0081
23853SOL    HW174961   6.256   2.904   6.397 -2.1704 -1.3059  1.0282
23853SOL    HW274962   6.168   2.804   6.326 -0.1972 -1.4109 -1.4021
23854SOL     OW74963   0.565   9.552  10.020  0.1480 -0.1588  0.0839
23854SOL    HW174964   0.496   9.488  10.006 -0.4832  0.7040 -0.8195
23854SOL    HW274965   0.609   9.560   9.935 -0.4214  1.3235 -0.0957
23855SOL     OW74966   9.133   4.403   2.337  0.6428 -0.4982  0.1987
23855SOL    HW174967   9.194   4.329   2.331  1.9764  0.5351  0.7035
23855SOL    HW274968   9.082   4.386   2.416  2.8182  0.4554  1.8975
23856SOL     OW74969   3.573  10.818   4.861 -0.2269 -0.7511 -0.1093
23856SOL    HW174970   3.601  10.902   4.826 -0.0148 -1.1218 -0.8463
23856SOL    HW274971   3.488  10.836   4.901 -0.3782 -0.2757 -0.6315
23857SOL     OW74972   6.562   9.691   7.968 -0.3720  0.3563  0.3231
23857SOL    HW174973   6.645   9.730   7.938  1.6191 -2.5780  1.5941
23857SOL    HW274974   6.539   9.741   8.046  0.5172  0.8248  0.2987
23858SOL     OW74975   7.652   8.788   0.541  0.3440 -0.5884  0.6684
23858SOL    HW174976   7.637   8.786   0.446 -0.0711  1.0991  0.6711
23858SOL    HW274977   7.636   8.698   0.569 -1.9373 -0.6391 -0.5364
23859SOL     OW74978   7.972   9.755   7.036  0.3525  0.3091 -0.4756
23859SOL    HW174979   7.878   9.769   7.026  0.2492 -0.2854 -0.3612
23859SOL    HW274980   7.980   9.701   7.114  0.8081  0.5275 -0.3628
23860SOL     OW74981   0.825   6.432   6.671 -0.3540 -0.7359 -0.5431
23860SOL    HW174982   0.871   6.348   6.668 -0.9844 -1.1167  0.1076
23860SOL    HW274983   0.792   6.446   6.583  1.2482 -0.3107 -1.1064
23861SOL     OW74984   0.787   4.842   4.320  0.0552 -0.8605 -0.1592
23861SOL    HW174985   0.768   4.835   4.227  0.0382 -2.4722 -0.0599
23861SOL    HW274986   0.719   4.901   4.354 -1.6025 -2.3587 -0.7202
23862SOL     OW74987   2.841   1.977  10.411 -0.2877 -0.2624  1.0588
23862SOL    HW174988   2.849   2.072  10.421  1.1856 -0.2774  0.3914
23862SOL    HW274989   2.753   1.957  10.442 -0.3585  1.2174  1.9456
23863SOL     OW74990   9.836   2.713  10.415 -0.6866  0.2696  0.1222
23863SOL    HW174991   9.927   2.731  10.437 -0.7780 -1.7246  2.6194
23863SOL    HW274992   9.797   2.800  10.400  1.3638  1.2223  0.0091
23864SOL     OW74993   4.906   0.802   7.094 -0.2342  0.2229  0.0328
23864SOL    HW174994   4.848   0.878   7.099 -0.6641  0.0432 -1.6564
23864SOL    HW274995   4.991   0.834   7.123 -0.6234  1.1079  0.2346
23865SOL     OW74996   4.041   3.494   0.061 -0.1840 -0.0265 -0.0355
23865SOL    HW174997   4.020   3.570   0.007  3.2742  1.1006  0.0175
23865SOL    HW274998   4.097   3.528   0.131 -1.2591 -2.1240  1.9938
23866SOL     OW74999   7.044   6.477   9.742  0.0041 -0.0813 -0.0636
23866SOL    HW175000   6.975   6.526   9.697 -1.1195  1.3246  2.9077
23866SOL    HW275001   7.110   6.544   9.762  0.4047 -0.6342  0.4721
23867SOL     OW75002   1.921   5.026   0.949 -0.3919 -0.0116 -0.4810
23867SOL    HW175003   1.844   5.084   0.952  1.4806  2.5913  0.6680
23867SOL    HW275004   1.918   4.979   1.033 -0.1288  0.9579  0.0849
23868SOL     OW75005  10.595   3.414   4.661 -0.0708 -0.3175 -0.2787
23868SOL    HW175006  10.513   3.442   4.618  0.8187  2.2228 -0.5277
23868SOL    HW275007  10.566   3.359   4.734 -1.9680 -0.0445 -0.7516
23869SOL     OW75008  10.242   6.836   9.058  0.0234 -0.2108 -0.1913
23869SOL    HW175009  10.211   6.921   9.090  0.1225  0.1251 -0.9711
23869SOL    HW275010  10.337   6.846   9.050  0.1364 -0.6570  0.4650
23870SOL     OW75011   8.862   1.555   9.761 -0.3559 -0.1041 -0.6607
23870SOL    HW175012   8.883   1.620   9.694 -0.9553  1.3283  0.4956
23870SOL    HW275013   8.946   1.516   9.784  0.5992  2.5870  0.9114
23871SOL     OW75014   8.288   5.454   1.025  0.2396  0.1219  0.3572
23871SOL    HW175015   8.278   5.393   0.952  1.6173  0.3078 -0.0069
23871SOL    HW275016   8.198   5.477   1.049 -0.2829 -1.2682 -0.1397
23872SOL     OW75017   8.251   1.073   1.080 -0.1559  0.1472  0.1315
23872SOL    HW175018   8.221   1.028   1.159 -1.2142  0.4056 -0.1159
23872SOL    HW275019   8.346   1.062   1.082 -0.2985 -1.2075  0.6131
23873SOL     OW75020   0.972   1.427   0.871 -0.1848  0.1243  0.6110
23873SOL    HW175021   0.992   1.507   0.822 -0.3869  0.0254  0.3722
23873SOL    HW275022   0.911   1.379   0.816 -1.5569  0.6868  1.5957
23874SOL     OW75023   2.586   0.632   1.300 -0.0950  0.2820 -0.0257
23874SOL    HW175024   2.654   0.665   1.359 -0.6477  0.0817  0.7457
23874SOL    HW275025   2.546   0.711   1.263 -0.3792  0.4459  0.6154
23875SOL     OW75026   1.070   2.425   1.419 -0.0266 -0.1428 -0.2438
23875SOL    HW175027   1.042   2.461   1.335 -1.5917 -2.2777 -0.7509
23875SOL    HW275028   1.164   2.410   1.409 -0.2491 -0.6981 -1.7767
23876SOL     OW75029  10.228   8.208   9.368  0.4408  0.0493 -0.0083
23876SOL    HW175030  10.166   8.136   9.357  1.2542 -0.6247 -0.2494
23876SOL    HW275031  10.179   8.274   9.418 -0.4260 -0.5160 -0.0882
23877SOL     OW75032   8.637   3.367   5.023  0.2416 -0.2739 -0.6272
23877SOL    HW175033   8.659   3.274   5.024  2.3901  0.1858  0.0558
23877SOL    HW275034   8.604   3.384   4.935  2.8000 -1.0961 -1.8359
23878SOL     OW75035   8.173   5.025   6.685 -0.3508 -0.8290  0.2030
23878SOL    HW175036   8.233   4.995   6.753  0.2773 -0.9438 -0.3929
23878SOL    HW275037   8.203   4.981   6.605 -1.1888 -0.8357 -0.1177
23879SOL     OW75038   0.568  10.706   6.103  0.0619 -0.1294  0.3204
23879SOL    HW175039   0.551  10.620   6.141  2.0063 -0.4487  0.5815
23879SOL    HW275040   0.630  10.689   6.032 -0.9492  0.8622 -0.8360
23880SOL     OW75041   7.748  10.547   9.605  0.2394 -0.3495  0.0982
23880SOL    HW175042   7.676  10.496   9.568 -0.3353  0.9395 -0.5798
23880SOL    HW275043   7.712  10.583   9.686  0.6487 -0.9827  0.5778
23881SOL     OW75044   1.458   9.871   8.798 -0.3207 -0.4171 -0.3079
23881SOL    HW175045   1.385   9.813   8.820  0.3573 -0.5783  1.8291
23881SOL    HW275046   1.536   9.818   8.812  0.2704  0.5694  0.3098
23882SOL     OW75047   4.718   2.897   8.378  0.3896 -0.3546  0.4513
23882SOL    HW175048   4.797   2.912   8.429  1.3962 -0.4121 -1.0384
23882SOL    HW275049   4.724   2.805   8.351  0.3871 -0.0626 -0.5840
23883SOL     OW75050   7.452   7.657   1.446  0.2404  0.6360 -0.2959
23883SOL    HW175051   7.449   7.588   1.512  0.4258 -0.2836 -1.2237
23883SOL    HW275052   7.451   7.738   1.496 -0.7681 -0.0227  0.7935
23884SOL     OW75053   2.173  10.860   8.048  0.1649  0.2546  0.3021
23884SOL    HW175054   2.147  10.777   8.009  0.9295 -0.0543  0.4335
23884SOL    HW275055   2.182  10.919   7.973  0.3119  0.0228  0.1356
23885SOL     OW75056   7.267  10.644   8.536  0.1680 -0.3034 -0.1256
23885SOL    HW175057   7.312  10.605   8.611  1.0546  0.4768 -0.2246
23885SOL    HW275058   7.331  10.707   8.500 -0.6500  0.1280 -0.8670
23886SOL     OW75059   9.421  10.045   3.146 -0.2895 -0.1327  0.3166
23886SOL    HW175060   9.498  10.103   3.140 -0.0862 -0.5461 -1.5772
23886SOL    HW275061   9.455   9.958   3.127 -0.9803 -0.5596  0.9928
23887SOL     OW75062  10.008   4.784   6.973 -0.0231 -0.5186 -0.3742
23887SOL    HW175063   9.974   4.776   6.884  0.3172  1.6076 -0.7426
23887SOL    HW275064   9.965   4.862   7.009  0.7223 -0.6622  0.9160
23888SOL     OW75065   3.213  10.773   5.639  0.2403 -0.6633 -0.0425
23888SOL    HW175066   3.126  10.762   5.678  0.3212  0.4867  0.4772
23888SOL    HW275067   3.197  10.768   5.544 -0.0906 -2.4564  0.0741
23889SOL     OW75068  10.088   4.723  10.137  0.2869 -0.1216 -0.8317
23889SOL    HW175069  10.117   4.654  10.198 -0.9738  0.0543  0.0281
23889SOL    HW275070  10.085   4.679  10.052 -1.3284 -1.4403 -0.1625
23890SOL     OW75071   8.030   2.151   1.716  0.1140 -0.3426 -0.3528
23890SOL    HW175072   7.947   2.158   1.670  0.0291 -1.0543 -0.3276
23890SOL    HW275073   8.096   2.176   1.652 -0.0281 -1.0214 -0.7712
23891SOL     OW75074   9.698   4.129  10.468  0.8663 -0.5375 -0.0191
23891SOL    HW175075   9.751   4.103  10.392  2.8772 -0.4132  1.2566
23891SOL    HW275076   9.658   4.047  10.498  2.1517 -1.0764  0.2915
23892SOL     OW75077   0.265   3.733   2.586  1.0020 -0.4939  0.0652
23892SOL    HW175078   0.229   3.705   2.502  0.7810  1.2786 -0.4775
23892SOL    HW275079   0.341   3.677   2.600 -0.8684 -3.1271  0.3565
23893SOL     OW75080   3.917   7.091   0.547 -0.4194 -0.2276 -0.1274
23893SOL    HW175081   4.011   7.108   0.555 -0.2507 -0.7135 -0.9475
23893SOL    HW275082   3.889   7.146   0.474 -0.8634  0.2256  0.3764
23894SOL     OW75083  10.893   7.663   9.477 -0.4219 -0.2477 -0.1844
23894SOL    HW175084  10.854   7.709   9.551  2.0688  0.8142  0.5647
23894SOL    HW275085  10.975   7.628   9.511  0.1089 -0.9648 -2.0781
23895SOL     OW75086   6.619   9.036   0.579 -0.1478 -0.3985 -0.0775
23895SOL    HW175087   6.714   9.023   0.576 -0.2606 -1.2205 -0.3694
23895SOL    HW275088   6.589   9.015   0.491 -0.6006 -0.1216  0.0081
23896SOL     OW75089   7.761   6.466   1.821 -0.2123 -0.2685 -0.7181
23896SOL    HW175090   7.699   6.515   1.876 -1.6381  0.1856 -2.6115
23896SOL    HW275091   7.819   6.533   1.784 -0.1515 -0.3864 -0.8395
23897SOL     OW75092   1.728   0.144   8.297 -0.2409  0.1894  0.0318
23897SOL    HW175093   1.791   0.113   8.362  0.4834  2.0404  0.2559
23897SOL    HW275094   1.782   0.184   8.229 -1.0783 -0.1859 -0.8811
23898SOL     OW75095   6.422   2.399   2.377 -0.0425 -0.7679 -0.3400
23898SOL    HW175096   6.418   2.494   2.362 -0.0300 -0.8235 -0.7258
23898SOL    HW275097   6.462   2.365   2.297  1.0695 -0.9828  0.2898
23899SOL     OW75098   5.137   5.070   1.136 -0.0419 -0.1139 -0.0234
23899SOL    HW175099   5.210   5.015   1.107 -0.0213  0.7470 -1.7179
23899SOL    HW275100   5.161   5.097   1.225  1.7911  0.2753 -0.5974
23900SOL     OW75101   7.495   1.457   3.392  0.1822  0.6527  0.0162
23900SOL    HW175102   7.549   1.381   3.414  0.9278  1.2159  0.1631
23900SOL    HW275103   7.558   1.524   3.364 -0.2573  1.8682  1.7443
23901SOL     OW75104   1.623   1.619  10.702 -0.0351  0.0842  0.5984
23901SOL    HW175105   1.697   1.642  10.646 -1.2235  1.7291 -0.3724
23901SOL    HW275106   1.577   1.549  10.655 -1.5209  2.0471 -1.0025
23902SOL     OW75107   4.267   3.335   3.460 -0.2444 -0.8309  0.7131
23902SOL    HW175108   4.362   3.345   3.463 -0.3719  0.3614  1.1674
23902SOL    HW275109   4.253   3.253   3.412  0.9547  0.0408 -1.2152
23903SOL     OW75110   6.469   0.117   7.671 -0.0673 -0.1743  0.0022
23903SOL    HW175111   6.416   0.194   7.692  1.0337  0.1118  2.0022
23903SOL    HW275112   6.446   0.053   7.738 -0.5791 -1.4272 -1.3249
23904SOL     OW75113  10.062   4.334   1.941  0.3292  0.3717  0.3479
23904SOL    HW175114  10.080   4.240   1.936 -0.7818  0.2004 -1.9000
23904SOL    HW275115   9.968   4.340   1.954  0.4777  1.2082  1.1821
23905SOL     OW75116   2.524   2.443  10.549  0.2506  0.2779 -0.3088
23905SOL    HW175117   2.560   2.486  10.627  1.7973  0.1482 -0.9194
23905SOL    HW275118   2.442   2.405  10.579  0.6852  0.4489  1.2062
23906SOL     OW75119   2.009   4.750   6.969  0.1936  0.2761 -0.2359
23906SOL    HW175120   1.948   4.682   6.941  2.2942 -1.8541 -0.0104
23906SOL    HW275121   2.083   4.743   6.908  0.6922  2.0357  0.1124
23907SOL     OW75122   6.413   3.414   3.931  0.5381  0.2741  0.2475
23907SOL    HW175123   6.342   3.428   3.993  1.6480  1.3809  1.3271
23907SOL    HW275124   6.426   3.319   3.928  0.7382  0.2211  2.0500
23908SOL     OW75125  10.662   0.417   9.884 -0.3507  0.4951  0.0112
23908SOL    HW175126  10.659   0.342   9.825 -0.9570  0.1907  0.4122
23908SOL    HW275127  10.570   0.440   9.899 -0.1806  1.1700  0.0816
23909SOL     OW75128   4.260   9.655   0.980 -0.1660 -0.4744 -0.4281
23909SOL    HW175129   4.261   9.587   0.912 -0.2356 -1.2527  0.3392
23909SOL    HW275130   4.200   9.721   0.947  0.0762 -0.6727 -1.2943
23910SOL     OW75131   5.965   4.619  10.338  0.0264  0.1790  0.2008
23910SOL    HW175132   5.969   4.572  10.255  0.4119  0.7178 -0.0957
23910SOL    HW275133   5.884   4.590  10.379  0.6120 -1.2997  0.3667
23911SOL     OW75134   5.793   6.124   4.311 -0.1551  0.0078 -0.4412
23911SOL    HW175135   5.823   6.119   4.402  1.6406  0.0775 -0.9719
23911SOL    HW275136   5.746   6.042   4.296 -0.2411 -0.1194  0.4692
23912SOL     OW75137   7.851   4.898   7.493  0.0863  0.5491 -0.7235
23912SOL    HW175138   7.929   4.874   7.543  1.6490  0.9262 -2.8143
23912SOL    HW275139   7.778   4.864   7.544  1.7405 -2.1035  0.1148
23913SOL     OW75140   6.656   3.293   6.316  0.1560  0.0474 -0.2844
23913SOL    HW175141   6.650   3.311   6.222 -0.4069  0.9686 -0.0785
23913SOL    HW275142   6.617   3.206   6.326 -0.6857  0.3604 -0.7720
23914SOL     OW75143   1.729   1.855   8.663  0.1447 -0.7122  0.0335
23914SOL    HW175144   1.671   1.931   8.671  0.9222 -0.1469  0.3870
23914SOL    HW275145   1.760   1.858   8.572 -2.9618 -2.9497 -1.2639
23915SOL     OW75146  10.517  10.010   4.065 -0.1906  0.5773  0.2241
23915SOL    HW175147  10.611   9.993   4.075 -0.0279  0.0033 -1.7237
23915SOL    HW275148  10.506  10.100   4.095  1.2463  1.1089 -0.7084
23916SOL     OW75149   4.808   7.801   3.412  0.6674  0.9605  0.2945
23916SOL    HW175150   4.760   7.835   3.336 -0.4793 -0.7225  0.1934
23916SOL    HW275151   4.751   7.818   3.486  0.3018 -0.1928  0.3076
23917SOL     OW75152   7.971   6.842  10.447  0.1255 -0.0614 -0.2424
23917SOL    HW175153   8.038   6.864  10.383 -0.6336  0.8908 -0.7253
23917SOL    HW275154   7.913   6.781  10.402 -0.2467  0.3839 -0.3691
23918SOL     OW75155   0.717   2.195   2.951 -0.4819 -0.2743 -0.2759
23918SOL    HW175156   0.675   2.112   2.929 -0.3020 -0.1963 -0.9522
23918SOL    HW275157   0.754   2.182   3.038 -0.2719 -0.9715 -0.4679
23919SOL     OW75158   1.442   5.813   9.605 -0.8121  0.0414  0.2595
23919SOL    HW175159   1.381   5.819   9.679 -0.1453 -1.3666  0.9723
23919SOL    HW275160   1.469   5.721   9.604  0.3016  0.3552 -0.8405
23920SOL     OW75161   4.460   0.651   8.954  0.3946  0.7222  0.0726
23920SOL    HW175162   4.554   0.667   8.944  0.4943  0.3765  0.4601
23920SOL    HW275163   4.432   0.714   9.020  0.3206  0.9441 -0.1708
23921SOL     OW75164   8.738   4.466   2.765  0.0750 -0.1907 -0.5324
23921SOL    HW175165   8.682   4.394   2.795 -0.4280  1.1041  1.9192
23921SOL    HW275166   8.691   4.505   2.692  0.1196 -1.9758 -1.5903
23922SOL     OW75167   6.302   5.620   1.143  0.5370  0.1113 -0.6482
23922SOL    HW175168   6.333   5.549   1.200 -1.6151  0.0380  0.5467
23922SOL    HW275169   6.298   5.697   1.200  1.8816  1.0115 -1.6879
23923SOL     OW75170   8.335   7.566   3.793 -0.1187  0.2353  0.2950
23923SOL    HW175171   8.419   7.597   3.827 -0.9498  0.6873  2.0593
23923SOL    HW275172   8.350   7.473   3.775  0.5433  0.1166  1.3781
23924SOL     OW75173  10.375   2.607  10.369 -0.8504 -0.0105  0.1769
23924SOL    HW175174  10.423   2.526  10.349  1.7551  1.7279 -1.2255
23924SOL    HW275175  10.333   2.630  10.286 -1.5789  0.1069  0.5720
23925SOL     OW75176   3.536  10.122   0.571 -0.6483 -0.0743  0.4118
23925SOL    HW175177   3.560  10.214   0.560  0.2255 -0.3516 -0.0746
23925SOL    HW275178   3.465  10.124   0.635 -1.5820  1.0422 -0.6063
23926SOL     OW75179   5.714   9.659   4.265  0.1207 -0.2749 -0.4815
23926SOL    HW175180   5.629   9.687   4.229 -0.4084  0.2531  1.1054
23926SOL    HW275181   5.764   9.740   4.272  0.3123 -0.4107 -0.2882
23927SOL     OW75182   4.564   3.204   4.565  0.0636 -0.2234 -0.4478
23927SOL    HW175183   4.619   3.238   4.635 -1.5933  1.0398  0.3259
23927SOL    HW275184   4.589   3.254   4.488  0.2609  0.0623 -0.2001
23928SOL     OW75185   2.894   6.133   5.674  0.2337  0.1090  0.0462
23928SOL    HW175186   2.961   6.197   5.653  0.3806 -0.3318 -0.8989
23928SOL    HW275187   2.824   6.184   5.715  0.0767  0.9863 -1.2600
23929SOL     OW75188   6.638   3.766   8.675 -0.4605 -0.4310  0.0129
23929SOL    HW175189   6.700   3.746   8.605  0.8752 -0.8648  1.2556
23929SOL    HW275190   6.568   3.702   8.664 -1.4226  0.8884 -2.2038
23930SOL     OW75191   1.725   3.120   2.323  0.1130  0.5319  0.1385
23930SOL    HW175192   1.719   3.167   2.407  0.5692  0.2769  0.3181
23930SOL    HW275193   1.719   3.189   2.257 -1.5244  0.6226  0.3345
23931SOL     OW75194   3.379  10.867   8.528 -0.5377  0.0510  0.6995
23931SOL    HW175195   3.386  10.828   8.615  1.0858 -0.2896  0.4442
23931SOL    HW275196   3.382  10.792   8.468 -1.5945  0.2889  0.3262
23932SOL     OW75197   2.485   2.820   6.024  0.4265 -0.6627  0.7529
23932SOL    HW175198   2.552   2.794   5.960 -1.9396 -2.3107 -1.2537
23932SOL    HW275199   2.405   2.828   5.972 -0.7836  2.4139  2.8305
23933SOL     OW75200   1.701   6.916   6.102 -0.5990  1.0478 -0.0381
23933SOL    HW175201   1.630   6.857   6.128  0.4081  0.2833  1.0276
23933SOL    HW275202   1.729   6.883   6.017 -0.5292  0.4334  0.2198
23934SOL     OW75203   0.478   3.407   4.615 -0.2332  0.6464 -0.6232
23934SOL    HW175204   0.510   3.382   4.528 -0.4942  0.1450 -0.5790
23934SOL    HW275205   0.530   3.355   4.676 -0.6323  0.3650 -0.5182
23935SOL     OW75206   4.436   1.616   7.163  0.1041  0.1987 -0.3548
23935SOL    HW175207   4.469   1.678   7.228  0.8148  0.5465 -1.0344
23935SOL    HW275208   4.383   1.555   7.214  0.0957  0.8562  0.4539
23936SOL     OW75209   0.026   6.334  10.543 -0.4510 -0.0728  0.5255
23936SOL    HW175210   0.078   6.305  10.617 -2.0527 -0.8769  1.3868
23936SOL    HW275211   0.081   6.316  10.466  0.0064 -2.2404  1.2835
23937SOL     OW75212   8.365   9.768   8.484 -0.4777  0.4226  0.7373
23937SOL    HW175213   8.347   9.787   8.576  1.6214  0.0178  1.2933
23937SOL    HW275214   8.365   9.672   8.479 -0.6758  0.4456  0.2969
23938SOL     OW75215   0.869   1.097   2.971 -0.0916  0.1532  0.3648
23938SOL    HW175216   0.781   1.128   2.992 -0.1096  1.0476 -0.9013
23938SOL    HW275217   0.856   1.010   2.935 -0.6700  0.8737 -1.2862
23939SOL     OW75218   3.526   8.590   0.169 -0.0798 -0.4959  0.2857
23939SOL    HW175219   3.453   8.592   0.230 -0.4421  2.2326 -0.1006
23939SOL    HW275220   3.505   8.518   0.109 -1.6515 -0.7688  1.1028
23940SOL     OW75221   7.423   1.989   8.036  0.0840  0.1929 -0.0798
23940SOL    HW175222   7.457   1.902   8.017 -2.1871 -0.7360 -0.3019
23940SOL    HW275223   7.499   2.040   8.065  1.9773 -1.0621 -2.4950
23941SOL     OW75224   6.259   3.988   8.745  0.5799  0.3732  0.1003
23941SOL    HW175225   6.184   3.959   8.796  0.0324 -1.8559 -1.7456
23941SOL    HW275226   6.257   4.083   8.749 -2.1846  0.3804  0.3843
23942SOL     OW75227   1.442   1.275   3.098 -0.2026  0.4910  0.3707
23942SOL    HW175228   1.438   1.259   3.192  1.1366 -1.2914  0.1753
23942SOL    HW275229   1.531   1.308   3.083  0.3866 -1.3587 -0.5002
23943SOL     OW75230   4.520   2.121  10.807  0.2732 -0.2202 -0.0585
23943SOL    HW175231   4.554   2.121  10.718  0.0343  0.5903 -0.1628
23943SOL    HW275232   4.589   2.081  10.860  0.8272  0.1784 -0.4693
23944SOL     OW75233   8.398  10.446   7.580  0.0156  0.1841 -0.5209
23944SOL    HW175234   8.386  10.522   7.638  1.1669  0.0908 -0.1480
23944SOL    HW275235   8.322  10.450   7.521 -1.8980 -0.3987  1.7167
23945SOL     OW75236   0.716   3.335   3.485  0.3036 -0.0035  0.2527
23945SOL    HW175237   0.761   3.387   3.551 -0.7966  1.2505  0.0604
23945SOL    HW275238   0.625   3.331   3.515 -0.4844  1.5636 -1.6839
23946SOL     OW75239   0.315   1.232   6.789 -1.0971  0.7184 -0.0715
23946SOL    HW175240   0.333   1.325   6.798  2.8900  0.1121 -0.0177
23946SOL    HW275241   0.325   1.198   6.878  1.9649 -0.2487 -0.6646
23947SOL     OW75242   5.236   4.944   1.794 -0.4944 -0.1191  0.3149
23947SOL    HW175243   5.215   4.919   1.884  0.8778 -0.2354  0.6226
23947SOL    HW275244   5.305   5.010   1.803 -0.7882  0.3325 -0.6376
23948SOL     OW75245   4.708   7.365   5.312 -0.3809 -0.6134  0.1089
23948SOL    HW175246   4.614   7.365   5.295  0.0777 -1.5601 -3.2779
23948SOL    HW275247   4.718   7.320   5.396 -2.9510  0.7796  1.2878
23949SOL     OW75248   3.950   0.437   8.922  0.6377  0.3248  0.6556
23949SOL    HW175249   3.908   0.355   8.949 -2.0058  2.1505  2.6057
23949SOL    HW275250   3.906   0.460   8.840  1.8605 -0.4683 -0.2577
23950SOL     OW75251   4.922   9.982   9.403 -0.0678 -0.1728 -0.1080
23950SOL    HW175252   4.844  10.005   9.454 -0.4549  1.9328 -1.5069
23950SOL    HW275253   4.899  10.006   9.313  1.5328 -1.3063 -0.8567
23951SOL     OW75254   2.765   6.783   6.993  0.4476 -0.4353  0.2515
23951SOL    HW175255   2.692   6.843   6.978  0.0162 -1.2121 -0.8783
23951SOL    HW275256   2.738   6.729   7.067 -0.3629 -1.0447 -0.4639
23952SOL     OW75257   7.606   0.880  10.200  0.2251  0.3004 -0.1700
23952SOL    HW175258   7.570   0.943  10.262  0.2110  1.7532 -1.5763
23952SOL    HW275259   7.530   0.832  10.166  0.1981 -0.2452  0.6390
23953SOL     OW75260   0.911   2.933   7.715  0.8234 -0.3874 -0.0285
23953SOL    HW175261   0.821   2.908   7.696  1.4384 -1.8321 -1.2061
23953SOL    HW275262   0.907   2.973   7.802 -0.9748 -0.1674 -0.1724
23954SOL     OW75263   5.747   2.137   5.413  0.2904 -0.4671  0.0246
23954SOL    HW175264   5.724   2.155   5.321 -1.4547 -1.8146  0.1316
23954SOL    HW275265   5.818   2.073   5.407 -1.0372 -1.9921 -0.4914
23955SOL     OW75266   8.988   4.285   6.063 -0.2859  0.3318  0.2699
23955SOL    HW175267   8.902   4.324   6.080  0.3099  1.4687  0.8423
23955SOL    HW275268   9.025   4.338   5.993 -0.2923 -0.5485 -0.4095
23956SOL     OW75269   2.415   3.566   5.995  0.2151  0.1083 -0.0324
23956SOL    HW175270   2.448   3.655   6.003 -1.8311  0.8159  1.2920
23956SOL    HW275271   2.408   3.534   6.086 -2.0474 -0.1863 -0.2447
23957SOL     OW75272   4.244   4.219   9.139 -0.1505  0.0865 -0.4358
23957SOL    HW175273   4.291   4.245   9.218  1.5553 -0.5904 -1.1846
23957SOL    HW275274   4.247   4.124   9.138 -0.9926  0.0464 -0.8541
23958SOL     OW75275  10.472   1.653   9.128 -0.0958  0.0637 -0.0088
23958SOL    HW175276  10.532   1.652   9.054  1.0040 -0.2443  0.8731
23958SOL    HW275277  10.404   1.589   9.104  0.0776  0.1784 -0.8623
23959SOL     OW75278   2.823   3.373   5.753 -0.0899 -0.4375  0.3835
23959SOL    HW175279   2.744   3.329   5.783  1.4734 -3.1927  0.8305
23959SOL    HW275280   2.871   3.306   5.705  1.9757  1.1236  0.1017
23960SOL     OW75281   3.538   2.411   7.837  0.0706 -0.2760  0.1637
23960SOL    HW175282   3.621   2.406   7.885  0.9931 -3.4891 -1.4914
23960SOL    HW275283   3.472   2.382   7.900  0.8267 -1.5619  0.3998
23961SOL     OW75284   2.370   7.467   6.671 -0.1321 -0.0980  0.0683
23961SOL    HW175285   2.330   7.512   6.745 -0.1953  0.5632 -0.3675
23961SOL    HW275286   2.310   7.482   6.598  0.1406 -0.3915 -0.2192
23962SOL     OW75287   4.754   2.853   1.355  0.4894  0.8197  0.0888
23962SOL    HW175288   4.729   2.801   1.279 -0.1607  1.7842 -0.3789
23962SOL    HW275289   4.732   2.798   1.431  0.1426  0.2774 -0.3987
23963SOL     OW75290   4.555   5.425  10.908  0.0658 -0.1325 -0.0606
23963SOL    HW175291   4.630   5.405  10.853  0.1482 -0.8878  0.3071
23963SOL    HW275292   4.505   5.343  10.911 -0.3673  0.1370  0.3150
23964SOL     OW75293   4.720   0.106   8.028  0.1660 -0.2033  0.2907
23964SOL    HW175294   4.695   0.027   8.076  1.7304 -2.5873 -2.5225
23964SOL    HW275295   4.697   0.088   7.937  0.9319  2.4692 -0.5266
23965SOL     OW75296   3.935   0.733   8.480  0.7807 -0.0073 -0.1152
23965SOL    HW175297   3.887   0.804   8.521  0.4036  0.5217 -1.4090
23965SOL    HW275298   4.003   0.709   8.543 -0.4767 -0.0235  1.2789
23966SOL     OW75299   5.157   9.183   3.387 -0.4263 -0.7896 -0.0730
23966SOL    HW175300   5.142   9.094   3.419  0.2520 -1.0517 -0.4599
23966SOL    HW275301   5.243   9.179   3.344 -0.1941  0.1529  0.2734
23967SOL     OW75302   3.794   1.217   3.001  0.3336  0.0892  0.1426
23967SOL    HW175303   3.858   1.244   3.066  0.9889 -0.3778 -0.2966
23967SOL    HW275304   3.728   1.169   3.051  1.9392 -2.2124  0.2487
23968SOL     OW75305   9.240   7.483   2.372 -0.0103 -0.3990  0.5879
23968SOL    HW175306   9.165   7.541   2.386  0.2848  0.2823 -0.5318
23968SOL    HW275307   9.316   7.538   2.391  0.2884 -0.2700 -0.9217
23969SOL     OW75308   9.480   3.826   1.504 -0.3396 -0.3215  0.3040
23969SOL    HW175309   9.412   3.881   1.465 -0.4214  0.1364  1.0894
23969SOL    HW275310   9.461   3.826   1.597  2.3207  2.1026  0.9771
23970SOL     OW75311   7.364  10.645   0.258  0.7781 -0.8386 -0.1828
23970SOL    HW175312   7.349  10.739   0.248  0.6707 -0.7915  0.4105
23970SOL    HW275313   7.281  10.605   0.230  0.7949 -0.7525 -0.3560
23971SOL     OW75314   8.888   1.519   3.837  0.0519 -0.1074 -0.2215
23971SOL    HW175315   8.891   1.448   3.773 -0.1385  0.3516 -0.7454
23971SOL    HW275316   8.945   1.587   3.801  0.9396 -0.3253  0.7012
23972SOL     OW75317   4.303   0.143   5.228 -0.0879  0.0675  0.3215
23972SOL    HW175318   4.292   0.082   5.155  0.0842 -0.4736  0.7449
23972SOL    HW275319   4.218   0.188   5.235 -0.7384 -1.2287  1.0050
23973SOL     OW75320   0.347   0.133   1.018 -0.5972 -0.0105  0.0723
23973SOL    HW175321   0.285   0.172   0.957  0.0996  0.7582 -0.1624
23973SOL    HW275322   0.410   0.202   1.035  0.2756 -0.8186  0.1952
23974SOL     OW75323   8.720   0.610   5.792  0.2212  0.5293  0.7224
23974SOL    HW175324   8.685   0.538   5.845 -1.0810  0.1641 -0.5528
23974SOL    HW275325   8.736   0.570   5.706  0.6855  1.4814  0.3574
23975SOL     OW75326   4.854   3.620  10.105  0.4913 -0.3057  0.4379
23975SOL    HW175327   4.827   3.691  10.163  1.0452 -0.0985  0.4574
23975SOL    HW275328   4.814   3.641  10.021 -0.8520 -0.9529  0.8859
23976SOL     OW75329   2.963   7.935   7.698 -0.8406 -0.0426 -0.3808
23976SOL    HW175330   2.887   7.992   7.706 -1.1326 -0.3322 -1.0186
23976SOL    HW275331   3.004   7.936   7.785 -0.3463  1.8036 -0.5995
23977SOL     OW75332   3.123   9.021   8.581 -0.1637 -0.7018 -0.1215
23977SOL    HW175333   3.138   8.982   8.495 -4.3627 -0.1760 -1.3232
23977SOL    HW275334   3.105   8.947   8.639 -0.2695 -0.9189 -0.4324
23978SOL     OW75335   2.232   0.115   1.858 -0.1802  0.6131 -0.2620
23978SOL    HW175336   2.146   0.111   1.817 -0.2090  1.3480 -0.2866
23978SOL    HW275337   2.215   0.099   1.951  0.0175 -2.1792 -0.6409
23979SOL     OW75338  10.862   2.040   1.931 -0.0124 -0.4163  0.0619
23979SOL    HW175339  10.802   2.010   2.000 -0.7701 -0.3235 -0.5525
23979SOL    HW275340  10.902   2.119   1.968 -2.2385  1.0855 -0.5180
23980SOL     OW75341  10.667   6.001   6.637 -0.3378  0.1316  0.7017
23980SOL    HW175342  10.586   5.951   6.626 -0.6713  0.7901  0.0678
23980SOL    HW275343  10.637   6.091   6.653  0.2537  0.1972  1.5051
23981SOL     OW75344   0.126   8.520   1.524 -0.2651  0.4138 -0.0520
23981SOL    HW175345   0.096   8.554   1.608 -1.0203  0.5745 -0.3705
23981SOL    HW275346   0.196   8.459   1.545 -0.9257 -0.0845  0.7479
23982SOL     OW75347   2.282   7.937   0.731 -0.2253 -0.1071 -0.2294
23982SOL    HW175348   2.270   8.020   0.776  0.4049  0.0490 -0.3325
23982SOL    HW275349   2.331   7.960   0.651  1.1877 -0.7362  0.4163
23983SOL     OW75350   4.217  10.762   6.592  0.0545  0.2179 -0.2366
23983SOL    HW175351   4.293  10.705   6.597  0.4616  0.8146  0.7526
23983SOL    HW275352   4.218  10.811   6.675 -0.8027  0.9848 -0.6582
23984SOL     OW75353   4.909   3.600   7.164  0.1629  0.0534  0.7367
23984SOL    HW175354   4.880   3.517   7.203 -2.0902  0.8600  0.9088
23984SOL    HW275355   4.830   3.637   7.124  1.3467  1.6269 -0.2843
23985SOL     OW75356   1.947   6.353  10.759  0.1210  0.3988  0.5859
23985SOL    HW175357   1.978   6.306  10.682 -1.8134 -0.4505  0.2869
23985SOL    HW275358   2.005   6.323  10.830  1.5398  0.7476 -0.3729
23986SOL     OW75359   9.821  10.335   1.067  0.6242  0.1638 -0.3853
23986SOL    HW175360   9.790  10.342   1.158 -2.0618 -0.0973 -1.2156
23986SOL    HW275361   9.842  10.242   1.057 -0.3315 -0.0683 -0.3744
23987SOL     OW75362   6.713   1.571   7.269 -0.4739  0.9468 -0.3240
23987SOL    HW175363   6.783   1.538   7.325  0.8500  1.2533 -1.7248
23987SOL    HW275364   6.638   1.515   7.288  0.8588 -0.9705 -0.5022
23988SOL     OW75365   7.281   1.935   5.948 -0.0630 -0.2089 -0.6710
23988SOL    HW175366   7.286   1.841   5.964 -0.1412 -0.2162 -0.6878
23988SOL    HW275367   7.350   1.952   5.884  1.3889  0.1059  0.9091
23989SOL     OW75368   3.046   5.641   6.491 -0.0638  0.4629 -0.5557
23989SOL    HW175369   3.060   5.702   6.418 -0.2663  2.9455  1.3413
23989SOL    HW275370   2.954   5.615   6.482 -0.0213  0.5312 -1.3156
23990SOL     OW75371   5.539   8.045   9.438  0.2167 -0.6879 -0.7627
23990SOL    HW175372   5.550   7.982   9.509 -0.7295 -2.6466 -2.2451
23990SOL    HW275373   5.610   8.108   9.450  0.5429 -1.3993  1.4248
23991SOL     OW75374   0.021   5.581   7.227 -0.1806  0.3503  0.0337
23991SOL    HW175375   0.001   5.490   7.202  2.2304 -0.3173  0.2836
23991SOL    HW275376  -0.057   5.630   7.201 -1.2402 -1.6597 -0.8534
23992SOL     OW75377  10.475   2.332   6.617  0.0987  1.2355  0.2515
23992SOL    HW175378  10.528   2.316   6.539  0.6502  1.0372  0.6587
23992SOL    HW275379  10.522   2.286   6.687 -1.5169 -0.4505  0.3078
23993SOL     OW75380   1.078   4.818   4.859  0.0564 -0.5031 -0.2015
23993SOL    HW175381   1.051   4.909   4.875 -0.3261 -0.4518 -1.0478
23993SOL    HW275382   1.110   4.818   4.769  0.4228 -1.1316 -0.0779
23994SOL     OW75383   5.108   7.393   5.684 -0.1476  0.2045  0.2923
23994SOL    HW175384   5.047   7.385   5.610  0.7352  1.8217 -0.6699
23994SOL    HW275385   5.098   7.310   5.731 -0.8507 -0.8404 -1.5478
23995SOL     OW75386   3.012  10.655   9.099  0.3023  0.1588 -0.3331
23995SOL    HW175387   2.962  10.705   9.034 -3.5139 -3.0606 -0.2851
23995SOL    HW275388   3.038  10.575   9.052  0.3708 -0.7359  1.1655
23996SOL     OW75389   0.666   8.733   2.534 -0.5841 -0.3600 -0.2258
23996SOL    HW175390   0.619   8.731   2.617  1.1444  1.0117  0.8640
23996SOL    HW275391   0.712   8.649   2.531  1.8982  0.7817  1.8818
23997SOL     OW75392   4.240   5.432  10.751 -0.6188 -0.6245 -0.0370
23997SOL    HW175393   4.285   5.426  10.835  0.6168 -1.1403 -0.7059
23997SOL    HW275394   4.287   5.501  10.704 -1.7859  0.2034 -0.0406
23998SOL     OW75395  10.396   3.846   5.562 -0.2949 -0.3184  0.7250
23998SOL    HW175396  10.413   3.802   5.479 -0.8837  0.2940  0.2637
23998SOL    HW275397  10.384   3.776   5.625 -2.1670 -0.8609 -0.1776
23999SOL     OW75398  10.450   1.805   8.660 -0.1432  0.5724 -0.4460
23999SOL    HW175399  10.390   1.849   8.720  1.2065  1.0281  0.6330
23999SOL    HW275400  10.468   1.871   8.592  0.5637  1.1144  0.2503
24000SOL     OW75401   5.593   0.863   6.664  0.2434  0.4445 -0.7791
24000SOL    HW175402   5.645   0.790   6.697  0.4885  1.5804  1.5132
24000SOL    HW275403   5.653   0.912   6.607  0.6931  0.0053 -0.6874
24001SOL     OW75404   1.656   5.421  10.903 -0.5605 -0.1934 -0.0895
24001SOL    HW175405   1.622   5.490  10.845 -0.7171 -1.6761 -1.8355
24001SOL    HW275406   1.644   5.340  10.853  1.5061 -1.2734  1.0640
24002SOL     OW75407   5.229   1.810   8.207 -0.8178  0.0277  0.1793
24002SOL    HW175408   5.295   1.792   8.140 -0.5277 -0.8018  0.6648
24002SOL    HW275409   5.163   1.743   8.193 -0.1420 -0.9719  1.4912
24003SOL     OW75410   7.747   1.099   4.886 -0.2902  0.7037 -0.5774
24003SOL    HW175411   7.819   1.042   4.913 -0.8737  0.0751 -0.3418
24003SOL    HW275412   7.790   1.181   4.860  0.4219  0.7118  0.5614
24004SOL     OW75413   7.544  10.070   0.737 -0.2439 -0.4206 -0.7324
24004SOL    HW175414   7.500  10.071   0.822 -1.5219  4.4026 -1.1617
24004SOL    HW275415   7.474  10.086   0.673  1.1055 -0.7388 -2.3844
24005SOL     OW75416  10.303   9.702   3.061 -0.7158 -0.0074 -0.4545
24005SOL    HW175417  10.333   9.792   3.061  0.7037 -0.3584  2.3782
24005SOL    HW275418  10.375   9.652   3.024 -0.7150 -0.1371 -0.2856
24006SOL     OW75419   0.544   9.924   6.895 -0.5683 -0.8401  0.0486
24006SOL    HW175420   0.533   9.988   6.826 -0.5452  0.3690  1.1368
24006SOL    HW275421   0.489   9.850   6.869 -0.6423 -0.3678 -1.1859
24007SOL     OW75422   3.007  10.771   4.480  0.4587 -0.6347 -0.2778
24007SOL    HW175423   2.970  10.745   4.564 -0.2227 -1.7422 -0.8987
24007SOL    HW275424   3.011  10.867   4.484 -0.2679 -0.6356  0.7218
24008SOL     OW75425   6.644   8.170   0.729 -0.6695 -0.2257  0.4852
24008SOL    HW175426   6.560   8.215   0.734 -1.4568 -1.2535 -2.0645
24008SOL    HW275427   6.696   8.208   0.800 -3.3864  0.1334  2.4339
24009SOL     OW75428   4.796   6.665   7.697 -0.6764 -0.0304  0.1974
24009SOL    HW175429   4.886   6.659   7.729 -0.6553  2.4306  0.7372
24009SOL    HW275430   4.799   6.627   7.609  1.0113  0.5942 -0.0387
24010SOL     OW75431   2.046   0.328   8.891 -0.2124 -0.2946  0.7232
24010SOL    HW175432   2.079   0.417   8.880  1.7097 -0.8030  1.8648
24010SOL    HW275433   2.069   0.283   8.809 -0.3598  0.0274  0.5060
24011SOL     OW75434  10.769   3.456   7.565  0.4096 -0.0070  0.1167
24011SOL    HW175435  10.793   3.391   7.499 -1.4596  0.1282 -0.7645
24011SOL    HW275436  10.735   3.405   7.638 -1.8179 -0.0815 -0.8921
24012SOL     OW75437   9.878   6.613   9.979 -0.8742 -0.3325  0.0163
24012SOL    HW175438   9.919   6.531   9.952  2.3307  0.4245  2.0405
24012SOL    HW275439   9.913   6.630  10.067 -1.6873  2.9917 -0.1698
24013SOL     OW75440   1.925   6.999   2.068 -0.0139 -0.2649  0.3454
24013SOL    HW175441   1.923   6.977   2.161 -2.1328  0.6379  0.5770
24013SOL    HW275442   1.995   7.064   2.061 -0.3188  0.2264  1.4866
24014SOL     OW75443  10.455   0.618   9.241 -0.0949  0.2556 -0.4289
24014SOL    HW175444  10.409   0.560   9.180 -0.7622  1.0426 -0.6901
24014SOL    HW275445  10.414   0.601   9.326  0.0805 -0.0403 -0.4017
24015SOL     OW75446   5.972   2.838   1.651 -0.0202  0.6455  0.0328
24015SOL    HW175447   5.970   2.899   1.578  0.0604  0.8195  0.1759
24015SOL    HW275448   5.967   2.751   1.610 -1.5806  0.7700 -0.0927
24016SOL     OW75449   8.437   4.763   3.506  0.5702  0.0912  0.5622
24016SOL    HW175450   8.383   4.720   3.441 -1.4349  0.3391  1.9837
24016SOL    HW275451   8.410   4.855   3.504 -0.5150 -0.1086  2.5659
24017SOL     OW75452   2.861   8.781   0.020  0.0816  0.5241  0.3738
24017SOL    HW175453   2.939   8.769  -0.034 -0.3307  0.9718 -0.3385
24017SOL    HW275454   2.788   8.771  -0.041 -0.5071 -1.6292  1.3378
24018SOL     OW75455   3.894   5.341   0.030 -0.3739  0.1515 -0.0270
24018SOL    HW175456   3.904   5.305  -0.059  1.9935 -0.1134  0.2837
24018SOL    HW275457   3.939   5.278   0.086 -1.6786  0.4174  1.3841
24019SOL     OW75458   2.527   7.816   0.780 -0.0930  0.2121  0.0153
24019SOL    HW175459   2.435   7.832   0.757 -0.6037 -0.3442  1.5873
24019SOL    HW275460   2.524   7.753   0.851  1.5495 -0.1877 -0.2261
24020SOL     OW75461   5.465   0.719   4.797  0.3119 -0.1839  0.3205
24020SOL    HW175462   5.552   0.686   4.819 -0.3166 -1.2641  1.2917
24020SOL    HW275463   5.473   0.749   4.706  1.3219 -1.6131 -0.0913
24021SOL     OW75464   1.404  10.730   6.023 -0.0761  0.5847 -0.5226
24021SOL    HW175465   1.435  10.804   5.970  0.1463 -0.1005 -1.3698
24021SOL    HW275466   1.355  10.676   5.962  1.9158 -1.2846 -0.5629
24022SOL     OW75467   5.212   9.001   9.071  0.4505  0.4392 -0.2989
24022SOL    HW175468   5.200   8.907   9.059 -2.3708  0.5971  0.5930
24022SOL    HW275469   5.246   9.033   8.987  3.0985 -1.5355 -0.0962
24023SOL     OW75470   6.148  10.222   8.611  0.2170 -0.4409 -0.4308
24023SOL    HW175471   6.124  10.314   8.623 -1.4140 -1.0380  1.2097
24023SOL    HW275472   6.073  10.173   8.643  2.2613 -2.3892  1.8057
24024SOL     OW75473   1.811   7.585   6.703  0.0538  0.0163 -0.3050
24024SOL    HW175474   1.867   7.540   6.639  0.5144 -0.4958  0.4377
24024SOL    HW275475   1.729   7.601   6.656  0.7781  0.6875 -1.3814
24025SOL     OW75476   9.948   2.149   7.673 -0.3820  0.0379 -0.3695
24025SOL    HW175477  10.025   2.204   7.688 -0.1747 -0.5520  0.9348
24025SOL    HW275478   9.969   2.067   7.719 -1.1045 -0.7397 -1.3972
24026SOL     OW75479   8.299   2.451   9.985  0.2935  0.3842  0.5396
24026SOL    HW175480   8.258   2.371  10.019 -0.9052  1.1025  0.8492
24026SOL    HW275481   8.393   2.437   9.998  0.0244 -0.3944  1.8745
24027SOL     OW75482   2.564   0.491   9.386 -0.1373 -0.2609  0.7164
24027SOL    HW175483   2.649   0.530   9.370 -0.7670  0.2725 -1.7103
24027SOL    HW275484   2.563   0.412   9.333 -1.9191  0.9541 -1.2316
24028SOL     OW75485   1.069   4.411   7.717 -0.4214  0.1042 -0.2484
24028SOL    HW175486   1.129   4.398   7.643 -0.0761  0.8503 -0.1180
24028SOL    HW275487   1.023   4.493   7.695  0.4805  0.9386  0.8702
24029SOL     OW75488   4.971   9.660   5.263 -0.1470  0.2024  0.0939
24029SOL    HW175489   4.940   9.677   5.352 -0.0134  1.1645 -0.0326
24029SOL    HW275490   4.977   9.564   5.257  1.2314  0.1668  1.6015
24030SOL     OW75491  10.297  10.304   3.764  0.0849 -0.3424 -0.0636
24030SOL    HW175492  10.347  10.223   3.759  1.5137  0.4197  1.1166
24030SOL    HW275493  10.277  10.326   3.673  0.1480 -1.7033 -0.4343
24031SOL     OW75494   5.414   2.166   8.528  0.0355  0.1849 -0.3017
24031SOL    HW175495   5.496   2.142   8.486 -0.1996 -0.7505 -0.2457
24031SOL    HW275496   5.346   2.132   8.469 -0.3002 -0.2822  0.3304
24032SOL     OW75497   0.388   2.607   3.939  0.6513  0.1601 -0.4869
24032SOL    HW175498   0.336   2.533   3.908 -0.5488  0.9460 -0.4042
24032SOL    HW275499   0.326   2.663   3.985  1.4446  1.4534 -0.9366
24033SOL     OW75500   1.396  10.142   7.956  0.6601  0.0181 -0.2993
24033SOL    HW175501   1.393  10.047   7.957  0.7296  0.0192  0.9114
24033SOL    HW275502   1.305  10.170   7.963  0.7209 -0.0192  6.3017
24034SOL     OW75503   4.187   4.452  10.168 -0.2449 -0.2436  0.0107
24034SOL    HW175504   4.159   4.360  10.160 -0.9010 -0.1554  1.0120
24034SOL    HW275505   4.204   4.480  10.078  0.9815 -1.6453 -0.2317
24035SOL     OW75506   6.478   6.238   0.768  0.6734 -0.0218  0.5947
24035SOL    HW175507   6.406   6.241   0.831  0.3847  2.3467  0.2760
24035SOL    HW275508   6.532   6.314   0.792  1.9799 -0.6087 -0.4048
24036SOL     OW75509   6.659   6.735   2.792 -0.2746  0.0644  0.6061
24036SOL    HW175510   6.733   6.752   2.735 -1.3505  0.5187 -0.6996
24036SOL    HW275511   6.675   6.647   2.827  0.2295 -0.3635 -0.6664
24037SOL     OW75512   6.120   4.405   1.400 -0.0269 -0.3536 -0.0403
24037SOL    HW175513   6.203   4.384   1.442  0.1539  1.2519  0.4878
24037SOL    HW275514   6.137   4.488   1.355 -0.8215 -0.9592 -1.5440
24038SOL     OW75515   4.911  10.446   3.109 -0.1324 -0.4011 -0.1569
24038SOL    HW175516   4.945  10.531   3.080  2.6824 -0.5367  2.3098
24038SOL    HW275517   4.872  10.465   3.195  1.7732 -1.7540  1.0693
24039SOL     OW75518   4.009   5.109   0.671  0.5950 -0.1664  0.1216
24039SOL    HW175519   4.051   5.134   0.753 -1.7828  0.0629  1.3393
24039SOL    HW275520   3.934   5.168   0.663  0.1250 -0.9471 -1.6311
24040SOL     OW75521   9.201   5.917   9.792  0.5127 -0.0447 -0.0309
24040SOL    HW175522   9.268   5.872   9.843  0.2662 -1.1262 -0.6246
24040SOL    HW275523   9.130   5.853   9.785  0.4400  0.1587 -1.5125
24041SOL     OW75524   2.735   4.435  10.127 -0.1080 -0.4817 -0.6746
24041SOL    HW175525   2.810   4.467  10.077  0.0804 -0.7258 -0.5518
24041SOL    HW275526   2.739   4.340  10.119  0.2592 -0.5646  0.2592
24042SOL     OW75527   9.316   5.142   7.844 -0.0272 -0.2546 -0.4944
24042SOL    HW175528   9.410   5.151   7.832  0.3617 -0.6718  1.8929
24042SOL    HW275529   9.299   5.048   7.834 -0.2060 -0.1871 -0.8698
24043SOL     OW75530   9.467  10.588   0.034 -0.5915  0.1839 -0.1948
24043SOL    HW175531   9.413  10.522  -0.010  1.2055 -0.5062 -1.4861
24043SOL    HW275532   9.554  10.549   0.037 -0.5065  0.2896  3.8522
24044SOL     OW75533   6.605   8.110   4.318  0.6031 -0.2566  0.4449
24044SOL    HW175534   6.568   8.141   4.235 -0.4567 -0.2708  0.8897
24044SOL    HW275535   6.690   8.073   4.294  0.8301  0.8018 -0.4488
24045SOL     OW75536   7.784   6.748   1.607  0.2068  0.0684 -0.3375
24045SOL    HW175537   7.834   6.690   1.551 -0.2374 -0.9995  0.3322
24045SOL    HW275538   7.697   6.709   1.612  0.0393  0.5030  0.5355
24046SOL     OW75539   7.849   9.138   9.477 -0.0668  0.0783  0.0785
24046SOL    HW175540   7.813   9.181   9.555 -2.2573 -1.3976 -0.0427
24046SOL    HW275541   7.813   9.187   9.403 -2.1374 -1.5060 -0.0475
24047SOL     OW75542   9.792   8.036   4.576 -0.5004 -0.3125 -0.4269
24047SOL    HW175543   9.845   8.085   4.513 -2.2583  1.2917 -0.7777
24047SOL    HW275544   9.780   7.950   4.536  0.9166 -0.3449 -0.8184
24048SOL     OW75545   4.176   2.543   4.683  0.3744 -0.4671 -0.0603
24048SOL    HW175546   4.200   2.536   4.590  0.5771 -1.0307  0.0297
24048SOL    HW275547   4.096   2.490   4.691  0.4433 -0.5456  0.1132
24049SOL     OW75548   1.248   1.460   5.513  0.1791 -0.1117  0.1170
24049SOL    HW175549   1.257   1.368   5.538  0.6888  0.0809  0.6721
24049SOL    HW275550   1.154   1.477   5.517  0.0121 -0.7898 -0.6768
24050SOL     OW75551  10.157   5.210   1.932 -0.2401 -0.3868 -0.8447
24050SOL    HW175552  10.099   5.284   1.915 -0.3265 -0.0755  0.6860
24050SOL    HW275553  10.119   5.166   2.007 -0.6313 -2.5042 -2.2010
24051SOL     OW75554   9.814   5.154   9.396 -0.1485 -0.2199  0.1737
24051SOL    HW175555   9.743   5.148   9.332  0.3178  1.3195 -0.5522
24051SOL    HW275556   9.843   5.245   9.391 -0.0195 -0.0644  2.5359
24052SOL     OW75557   6.116   8.855   5.358  0.4818  0.0500  0.0036
24052SOL    HW175558   6.209   8.873   5.352  0.1480  1.7691 -0.6228
24052SOL    HW275559   6.079   8.891   5.277 -0.4657 -2.6918 -0.8854
24053SOL     OW75560   8.444   4.980   1.196  0.4063 -0.0969 -0.0917
24053SOL    HW175561   8.400   5.030   1.127 -2.0011 -1.7853  0.1105
24053SOL    HW275562   8.449   5.041   1.270 -2.1232  0.0616  0.0381
24054SOL     OW75563   4.569   0.333   3.647 -1.0046 -0.6291  0.0607
24054SOL    HW175564   4.577   0.390   3.723 -2.3273 -2.5096  1.7109
24054SOL    HW275565   4.653   0.287   3.642 -0.7704 -0.2081  0.1456
24055SOL     OW75566   9.336   4.652   1.719  0.1106 -0.0567 -0.4308
24055SOL    HW175567   9.331   4.705   1.639 -1.9995 -1.4255 -1.2959
24055SOL    HW275568   9.259   4.677   1.770 -0.1531 -1.2470 -0.2031
24056SOL     OW75569   9.962   2.346   0.779  0.0472 -1.0745  0.6262
24056SOL    HW175570   9.996   2.407   0.844 -0.0353 -1.7165  1.2847
24056SOL    HW275571  10.038   2.323   0.725  0.3692 -1.4246  1.2173
24057SOL     OW75572   9.065  10.316   5.623  0.0869  0.1968  1.1472
24057SOL    HW175573   9.114  10.258   5.681 -0.0285 -0.9972  0.1018
24057SOL    HW275574   9.132  10.370   5.581  0.3711 -0.4284  0.7943
24058SOL     OW75575  10.133   4.500   0.823 -0.4342 -0.5722  0.3199
24058SOL    HW175576  10.055   4.453   0.792 -0.7809 -0.4515  0.9757
24058SOL    HW275577  10.200   4.432   0.833 -0.0768 -0.5047 -1.3781
24059SOL     OW75578   7.506   0.911   8.117 -0.1163 -0.0219  0.7004
24059SOL    HW175579   7.498   1.004   8.097 -0.0261 -0.1076  0.2608
24059SOL    HW275580   7.599   0.898   8.134 -0.3740  0.3422  2.6728
24060SOL     OW75581   0.893   0.063   7.041  0.4765 -0.5473  0.5080
24060SOL    HW175582   0.919   0.045   7.132  0.6597 -0.1826  0.5308
24060SOL    HW275583   0.931   0.150   7.023 -0.2773 -0.2452  0.3603
24061SOL     OW75584   2.280   4.849  10.423 -0.3939  0.3801 -0.0470
24061SOL    HW175585   2.353   4.909  10.412 -1.1134  1.1075 -1.1054
24061SOL    HW275586   2.205   4.895  10.384 -1.0373 -1.0577 -0.5898
24062SOL     OW75587   5.440  10.300  10.007 -0.0025 -0.4397  0.7264
24062SOL    HW175588   5.386  10.377  10.027 -1.6774 -1.2643 -0.3514
24062SOL    HW275589   5.442  10.297   9.911  0.1405 -1.6504  0.7534
24063SOL     OW75590   1.444   4.624   4.120  0.5815 -0.6532 -0.2186
24063SOL    HW175591   1.352   4.612   4.099  0.4815 -2.0438  0.8951
24063SOL    HW275592   1.456   4.719   4.122 -0.8596 -0.4537 -0.1941
24064SOL     OW75593   4.864   2.979  10.535  0.0167  0.4418  0.1092
24064SOL    HW175594   4.865   3.005  10.443  0.6833  3.0633  0.7518
24064SOL    HW275595   4.787   3.022  10.571  0.5015  0.5558  1.0341
24065SOL     OW75596  10.544   5.818   3.994 -0.4290 -0.2995 -0.3604
24065SOL    HW175597  10.449   5.808   3.984 -0.5309  0.1176  0.1566
24065SOL    HW275598  10.554   5.903   4.037  0.1719 -0.4445 -0.2140
24066SOL     OW75599   9.921   3.221   5.813 -0.0475 -0.0466  0.1458
24066SOL    HW175600   9.848   3.261   5.860 -0.6878  0.6759 -1.4155
24066SOL    HW275601   9.978   3.187   5.882 -0.9525  0.9725  1.4348
24067SOL     OW75602   6.939   4.290   9.417 -0.2920 -0.2048  0.0556
24067SOL    HW175603   6.979   4.239   9.487 -0.1701  2.2837  1.9544
24067SOL    HW275604   7.000   4.361   9.401 -1.6035  0.8214 -0.5994
24068SOL     OW75605   2.853   3.944   9.159  0.1652  0.1142 -0.8394
24068SOL    HW175606   2.758   3.948   9.144 -0.0561  2.1290  0.6566
24068SOL    HW275607   2.861   3.893   9.240  0.4715 -0.8765 -1.4724
24069SOL     OW75608   2.389   5.769   2.333 -0.3431  0.2280 -0.0287
24069SOL    HW175609   2.455   5.750   2.400 -0.9898  0.8411  0.8089
24069SOL    HW275610   2.324   5.823   2.378 -2.7853 -2.4377 -0.0737
24070SOL     OW75611   2.347   8.582   7.146  0.3427  0.1004  0.0310
24070SOL    HW175612   2.372   8.621   7.229  2.7372 -1.8568  0.3428
24070SOL    HW275613   2.293   8.506   7.170  0.4490 -0.0593 -0.2295
24071SOL     OW75614   2.332   7.505   1.388  0.0991  0.5270 -0.3432
24071SOL    HW175615   2.408   7.489   1.444  0.8942  0.9792 -1.2736
24071SOL    HW275616   2.322   7.600   1.387  1.0126  0.6438 -2.1272
24072SOL     OW75617   0.298  10.855   1.875 -0.0449  0.5006 -0.2893
24072SOL    HW175618   0.344  10.902   1.945  0.4314 -0.2678 -0.0778
24072SOL    HW275619   0.206  10.860   1.899  0.0103  1.2194 -0.2051
24073SOL     OW75620   8.847   1.780   3.337 -0.2785 -0.3317 -0.2484
24073SOL    HW175621   8.860   1.873   3.359 -0.5385 -0.0700 -1.1213
24073SOL    HW275622   8.809   1.741   3.416  2.5022 -0.3739  1.1922
24074SOL     OW75623   7.003   5.081   8.407  0.3272  0.5562  0.4543
24074SOL    HW175624   7.041   5.147   8.348 -2.6158  1.2916 -0.7952
24074SOL    HW275625   7.051   5.092   8.489  1.8727  2.2647 -0.5982
24075SOL     OW75626   4.672  10.078   3.863  0.2111  0.9019  0.5900
24075SOL    HW175627   4.748  10.020   3.868  0.0105  0.6851  1.3031
24075SOL    HW275628   4.667  10.118   3.950 -0.4465  0.9601  0.5293
24076SOL     OW75629   2.022   3.056   0.771 -0.1023 -0.2209 -0.3497
24076SOL    HW175630   2.043   3.074   0.863 -0.6323  0.7670 -0.4002
24076SOL    HW275631   2.000   3.142   0.735 -1.7933 -0.8454 -0.8983
24077SOL     OW75632   7.721   2.054   5.561  0.7487 -0.4956  0.5470
24077SOL    HW175633   7.726   2.139   5.518 -0.3608  0.5282  2.2813
24077SOL    HW275634   7.787   2.058   5.630  1.3772 -1.4556  0.0181
24078SOL     OW75635   6.242   2.631   3.805  0.0691  0.3766 -0.7096
24078SOL    HW175636   6.249   2.725   3.821 -0.5485  0.3965 -0.5337
24078SOL    HW275637   6.148   2.614   3.799  0.1971 -0.0914 -1.6020
24079SOL     OW75638   2.671   8.370   2.686 -0.3932 -0.3570 -0.9268
24079SOL    HW175639   2.579   8.393   2.699 -0.2801 -1.0032  1.4329
24079SOL    HW275640   2.697   8.327   2.768  1.3514 -2.3952 -2.4453
24080SOL     OW75641  10.182   8.746   9.195 -0.4355  0.0366  0.1036
24080SOL    HW175642  10.217   8.681   9.256 -0.3049 -0.6559 -0.6948
24080SOL    HW275643  10.216   8.830   9.227 -1.9589 -0.0305  2.1467
24081SOL     OW75644   2.288   8.253   7.980 -0.4309  0.2157  0.3618
24081SOL    HW175645   2.239   8.247   7.898 -0.4628  0.3618  0.3694
24081SOL    HW275646   2.223   8.238   8.048 -0.4831  0.4954  0.3750
24082SOL     OW75647   0.257   9.957   6.466  0.0015 -0.2898  0.2683
24082SOL    HW175648   0.275   9.937   6.558 -0.3890 -0.7619  0.2427
24082SOL    HW275649   0.235   9.873   6.426 -4.3741  0.3449  0.7579
24083SOL     OW75650   1.575   2.367   1.586  0.3957 -0.2041  0.0264
24083SOL    HW175651   1.636   2.304   1.624  0.9152 -0.9451 -1.9257
24083SOL    HW275652   1.612   2.453   1.608  1.1419 -0.6197  0.4313
24084SOL     OW75653   7.923   5.403   0.966  0.2316 -0.7802 -0.2938
24084SOL    HW175654   7.910   5.384   0.873  2.6218 -1.4889 -0.5382
24084SOL    HW275655   7.969   5.486   0.967  0.5284 -0.9481  0.2275
24085SOL     OW75656   6.429   9.213   1.899 -0.2317 -0.2773 -0.1166
24085SOL    HW175657   6.344   9.251   1.923  1.2916  2.5880  1.2408
24085SOL    HW275658   6.440   9.235   1.807  0.1044  1.7606  0.3509
24086SOL     OW75659   1.850   7.111   0.195 -0.4004  0.0477 -0.2426
24086SOL    HW175660   1.898   7.192   0.178  1.3032 -0.4371  1.7076
24086SOL    HW275661   1.769   7.140   0.238 -0.4370  0.7700 -0.7812
24087SOL     OW75662   6.518   0.194   4.471 -0.3970 -0.6313 -0.1010
24087SOL    HW175663   6.513   0.284   4.439  0.7521 -0.4745  0.1220
24087SOL    HW275664   6.610   0.170   4.463 -1.0552 -2.7787 -2.7382
24088SOL     OW75665   3.366   1.708   6.472 -0.2946 -0.5069 -0.3743
24088SOL    HW175666   3.365   1.629   6.527  0.0881 -0.2710 -0.0279
24088SOL    HW275667   3.317   1.682   6.394  1.1181 -1.5755 -0.9399
24089SOL     OW75668   9.293   7.921   5.118  0.8748 -0.1921  0.2069
24089SOL    HW175669   9.319   7.992   5.176  0.8095  1.3165 -1.5277
24089SOL    HW275670   9.324   7.948   5.031 -0.9018 -1.3272 -0.8515
24090SOL     OW75671   9.091   7.713   1.336 -0.2515 -0.5070  0.0927
24090SOL    HW175672   9.017   7.740   1.281  0.6270 -1.0214 -1.3894
24090SOL    HW275673   9.077   7.759   1.419 -2.9805 -1.6294  0.3649
24091SOL     OW75674   1.776   7.408  10.193 -0.1382  0.1731 -0.2064
24091SOL    HW175675   1.823   7.467  10.252  0.1856  0.4752 -0.7641
24091SOL    HW275676   1.690   7.396  10.235 -0.0782  0.7549  0.0929
24092SOL     OW75677  10.333   8.041   5.462  0.0469 -0.4386 -0.0248
24092SOL    HW175678  10.419   8.027   5.423 -0.3615  0.2965 -1.2691
24092SOL    HW275679  10.298   7.952   5.476  0.5310 -0.7344 -0.6333
24093SOL     OW75680   4.971   7.030   3.189 -0.2296 -0.2066  0.6789
24093SOL    HW175681   4.941   7.077   3.111  1.5350  0.0138  0.0726
24093SOL    HW275682   4.935   7.080   3.262 -1.6456 -0.2174  0.0284
24094SOL     OW75683   9.740   9.205   9.321  0.4651  0.0801 -0.2133
24094SOL    HW175684   9.709   9.119   9.350  2.8294 -0.6113  0.5109
24094SOL    HW275685   9.662   9.250   9.290 -0.8460 -2.3555 -0.6653
24095SOL     OW75686   4.786   2.072   4.535  0.5569 -0.1536  0.0153
24095SOL    HW175687   4.817   1.984   4.517  1.1535  0.2401 -0.9387
24095SOL    HW275688   4.865   2.125   4.543  0.2211  0.2365  0.9527
24096SOL     OW75689   4.300   0.532   1.048 -0.0456  0.0776  0.3723
24096SOL    HW175690   4.363   0.489   1.106  0.3123  0.9449  0.6517
24096SOL    HW275691   4.296   0.476   0.971 -0.5311 -1.0982  1.2285
24097SOL     OW75692   4.164   0.238   1.376 -0.0078 -0.4983  0.3415
24097SOL    HW175693   4.132   0.267   1.291 -0.7434  0.2252  0.8499
24097SOL    HW275694   4.143   0.144   1.379  1.6106 -0.9463 -0.9599
24098SOL     OW75695   5.223   3.733   8.329  0.1571  0.3988 -0.3764
24098SOL    HW175696   5.257   3.772   8.409 -0.9647  0.2069  0.2046
24098SOL    HW275697   5.170   3.802   8.289  0.4099  0.3685 -0.7814
24099SOL     OW75698   5.250   4.745   2.700  0.2732 -0.9535 -0.1451
24099SOL    HW175699   5.253   4.711   2.790  0.3645  0.3020  0.3527
24099SOL    HW275700   5.278   4.836   2.708 -3.2525  0.3701 -0.8501
24100SOL     OW75701   0.787   8.579   5.594  0.2388  0.4242  0.2033
24100SOL    HW175702   0.736   8.651   5.558  0.3184  0.4752  0.1932
24100SOL    HW275703   0.823   8.534   5.517 -0.7943 -0.3511  0.1500
24101SOL     OW75704   9.823   3.581  10.229 -0.6809 -0.0520  0.1300
24101SOL    HW175705   9.855   3.507  10.177  1.9093  1.3584 -0.5019
24101SOL    HW275706   9.864   3.570  10.315  1.1345  1.3842 -0.4617
24102SOL     OW75707   5.099   6.192   3.276 -0.2889 -0.4812  0.6748
24102SOL    HW175708   5.017   6.160   3.237 -1.0895 -1.2081  2.8154
24102SOL    HW275709   5.166   6.133   3.241 -1.1992 -2.0796  1.4952
24103SOL     OW75710   1.507  10.843   5.103  0.3707  0.2142 -0.2788
24103SOL    HW175711   1.489  10.802   5.188  0.5961  2.4940  0.9455
24103SOL    HW275712   1.422  10.874   5.074  0.3996  0.0025 -0.5962
24104SOL     OW75713   8.196   6.100   9.428 -0.3910 -0.0779 -0.1900
24104SOL    HW175714   8.156   6.183   9.400  1.0731  0.9229  0.5318
24104SOL    HW275715   8.129   6.034   9.409 -0.8979  0.9945 -2.5316
24105SOL     OW75716   7.648   6.094   0.050  0.3117 -0.8400  0.5484
24105SOL    HW175717   7.604   6.157  -0.007  0.0934  0.2102  1.8072
24105SOL    HW275718   7.737   6.090   0.017  0.9954  1.9262  1.7323
24106SOL     OW75719   1.021   5.683   3.718 -0.1092 -0.4062  0.3233
24106SOL    HW175720   1.113   5.674   3.694  0.6475 -1.8391  3.3407
24106SOL    HW275721   1.006   5.777   3.726  0.8185 -0.1276 -1.0148
24107SOL     OW75722   6.753   8.860   8.210  0.4025  0.4477  0.3333
24107SOL    HW175723   6.679   8.799   8.207  1.1610 -0.5264  1.0961
24107SOL    HW275724   6.790   8.849   8.297  1.6051  0.7484 -0.1265
24108SOL     OW75725   4.466   0.167   5.687 -0.3284  0.1774  0.2525
24108SOL    HW175726   4.558   0.161   5.714 -0.4014  1.5675  0.8712
24108SOL    HW275727   4.447   0.080   5.651  1.4717  0.1232 -0.7097
24109SOL     OW75728   9.994   5.919  10.620 -0.1613  0.4075  0.0193
24109SOL    HW175729   9.936   5.983  10.579 -0.4568  0.5596  0.6788
24109SOL    HW275730   9.956   5.834  10.597  0.1554  0.4609 -0.7399
24110SOL     OW75731  10.468   0.474   9.580  0.3454 -0.4522  0.2178
24110SOL    HW175732  10.402   0.500   9.516  0.0429 -0.0723  0.6787
24110SOL    HW275733  10.422   0.474   9.664  0.4454 -2.0627  0.3076
24111SOL     OW75734   6.081   8.014   4.152  0.6846  0.2909  0.1149
24111SOL    HW175735   6.167   8.053   4.134  0.6997  0.3893  0.3891
24111SOL    HW275736   6.043   8.071   4.219  0.1039  0.6649 -0.5175
24112SOL     OW75737   7.444   7.454   9.101  0.4120  0.5939 -0.2755
24112SOL    HW175738   7.506   7.409   9.157 -0.4989 -0.0603  0.2216
24112SOL    HW275739   7.417   7.388   9.037  0.7079  1.0570 -0.8857
24113SOL     OW75740   6.413   2.676   5.082 -0.2955  0.2518 -0.0076
24113SOL    HW175741   6.383   2.590   5.054  1.7762 -0.2128 -1.0114
24113SOL    HW275742   6.336   2.732   5.073 -1.3490 -1.2261 -0.5807
24114SOL     OW75743   8.564  10.379   6.888  0.0360  0.2904 -0.7111
24114SOL    HW175744   8.483  10.420   6.920  0.7150  1.4989 -0.4856
24114SOL    HW275745   8.561  10.290   6.925 -0.9313  0.4885 -0.2656
24115SOL     OW75746   0.160   2.398   5.116  0.2625  0.2843 -0.2741
24115SOL    HW175747   0.175   2.462   5.185 -0.6378 -0.1060  0.3112
24115SOL    HW275748   0.231   2.335   5.126 -1.3869 -1.4036  2.2720
24116SOL     OW75749   4.081   8.763   6.729  0.1477 -0.0432  0.4839
24116SOL    HW175750   4.173   8.737   6.732 -0.3279 -1.8222  0.7854
24116SOL    HW275751   4.067   8.810   6.811  0.5714 -0.5180  0.8337
24117SOL     OW75752   5.230   6.016  10.729  0.2153 -0.0256 -0.3203
24117SOL    HW175753   5.136   6.030  10.713  0.4046  2.0878  0.1393
24117SOL    HW275754   5.272   6.094  10.696  1.7863 -0.7014 -0.0035
24118SOL     OW75755   8.286  10.785   7.423 -0.1224 -0.3722 -0.1651
24118SOL    HW175756   8.226  10.710   7.429  0.0594 -0.4562  1.0212
24118SOL    HW275757   8.229  10.862   7.427 -0.2472 -0.4512 -0.4303
24119SOL     OW75758   4.609   4.154   7.683  0.3598  0.3448 -0.3583
24119SOL    HW175759   4.695   4.166   7.642  0.7866 -0.8666  0.1223
24119SOL    HW275760   4.597   4.232   7.737  0.8511  0.8407 -0.9459
24120SOL     OW75761   0.985   1.833   1.688 -0.1053  0.1972 -0.1335
24120SOL    HW175762   0.906   1.861   1.734 -1.4315 -0.3561 -1.9757
24120SOL    HW275763   0.955   1.768   1.625  2.1264 -1.4928  0.4267
24121SOL     OW75764   7.731   7.391  10.129  0.5816  0.1466 -0.3972
24121SOL    HW175765   7.753   7.463  10.189  2.6259 -0.3125 -0.5360
24121SOL    HW275766   7.683   7.434  10.057  0.0936  1.0462  0.4321
24122SOL     OW75767   8.678   0.118   6.953 -0.1791  0.2029  0.4659
24122SOL    HW175768   8.709   0.118   7.044  0.2917 -0.3769  0.3126
24122SOL    HW275769   8.753   0.086   6.902  0.7122  3.4478 -0.5458
24123SOL     OW75770   2.526   2.523   6.963 -0.4258  0.5384 -0.2114
24123SOL    HW175771   2.486   2.437   6.952  0.8808 -0.0140 -0.9026
24123SOL    HW275772   2.541   2.530   7.057 -0.6703  0.0582 -0.1316
24124SOL     OW75773   3.093   5.086   1.629 -0.2835  0.0690  0.0136
24124SOL    HW175774   3.161   5.152   1.645  1.4480 -1.4177 -0.8374
24124SOL    HW275775   3.077   5.090   1.535 -0.2845 -0.5725 -0.0197
24125SOL     OW75776   4.473   0.428   4.230  0.1056 -0.1987 -0.2111
24125SOL    HW175777   4.550   0.386   4.270  0.8662  0.4676 -0.9457
24125SOL    HW275778   4.498   0.442   4.139 -1.5327 -1.4985 -0.8967
24126SOL     OW75779   0.497   4.759   0.862 -0.0936 -1.1855  0.1269
24126SOL    HW175780   0.571   4.700   0.878  1.1101  0.6725  1.8473
24126SOL    HW275781   0.445   4.754   0.942 -0.5606 -0.6997 -0.1450
24127SOL     OW75782   9.602   6.395   5.898  0.6731  0.2474  0.5264
24127SOL    HW175783   9.565   6.427   5.816 -0.2437  0.9450  1.1734
24127SOL    HW275784   9.658   6.467   5.928  1.6247 -0.3221  0.1387
24128SOL     OW75785   3.322   6.961   0.125 -0.4012 -0.2020 -0.0802
24128SOL    HW175786   3.253   7.024   0.143 -0.2768  0.1669 -0.8251
24128SOL    HW275787   3.395   7.014   0.091  0.7224 -0.4317  1.8489
24129SOL     OW75788   0.166   7.756  10.075  0.1652  0.0645  0.1188
24129SOL    HW175789   0.236   7.821  10.079 -0.6870  1.2967 -2.6029
24129SOL    HW275790   0.183   7.708   9.994 -1.4067 -0.5098  0.1012
24130SOL     OW75791   6.148   2.931   3.131 -0.0413  0.4506 -0.1988
24130SOL    HW175792   6.068   2.913   3.081  0.2276  0.7898 -0.7511
24130SOL    HW275793   6.119   2.988   3.202 -0.8513 -1.8001  1.3924
24131SOL     OW75794   5.760   7.291   1.160 -0.1730 -0.0707 -0.4411
24131SOL    HW175795   5.830   7.309   1.097  0.0361  0.8819  0.0425
24131SOL    HW275796   5.802   7.247   1.233 -0.4717 -1.4686 -1.0844
24132SOL     OW75797   3.627   3.812   1.313 -0.1137 -0.0531  0.3408
24132SOL    HW175798   3.718   3.795   1.336 -0.2417  0.2187  1.0472
24132SOL    HW275799   3.576   3.776   1.385 -0.6771 -1.8057 -0.8595
24133SOL     OW75800   5.251   1.356   1.946 -0.2460  0.0482 -0.0927
24133SOL    HW175801   5.243   1.447   1.975  0.6055  0.5750 -1.4368
24133SOL    HW275802   5.227   1.357   1.854 -0.9106 -1.2342  0.0415
24134SOL     OW75803   2.769   7.320   8.581  0.1534 -0.2163  0.0813
24134SOL    HW175804   2.796   7.240   8.625  1.8045  0.6961  0.8455
24134SOL    HW275805   2.810   7.390   8.631  0.7868  0.9705 -1.9484
24135SOL     OW75806   5.403   2.760   5.542  0.1289  0.3848  0.1114
24135SOL    HW175807   5.422   2.676   5.584  0.0635  0.1829 -0.2620
24135SOL    HW275808   5.420   2.746   5.449  0.2713  0.8310  0.0648
24136SOL     OW75809   8.436   7.997   8.728  0.2974  0.0172  0.1155
24136SOL    HW175810   8.398   7.909   8.732 -2.6348  1.1363 -0.3964
24136SOL    HW275811   8.385   8.048   8.790  2.2102  1.3320  0.7017
24137SOL     OW75812   3.217   4.384   0.657  0.8756  0.4363  0.4626
24137SOL    HW175813   3.198   4.385   0.564  1.2342 -1.8007  0.3114
24137SOL    HW275814   3.168   4.459   0.693 -0.3848  0.5027 -1.2930
24138SOL     OW75815   0.374   2.369   2.257 -0.2914  0.2506  0.2399
24138SOL    HW175816   0.290   2.398   2.221  0.0587  0.5494 -0.3558
24138SOL    HW275817   0.407   2.306   2.192 -0.1809 -0.0688  0.6034
24139SOL     OW75818   7.253   5.929   8.957  0.0346 -0.0382 -1.0592
24139SOL    HW175819   7.212   5.973   8.882 -0.5166 -0.6718 -1.1366
24139SOL    HW275820   7.222   5.978   9.033 -0.9166 -0.5314 -1.1156
24140SOL     OW75821   7.153   0.448   5.903 -0.1431  0.2120  0.3991
24140SOL    HW175822   7.248   0.460   5.897  0.1181 -1.8596 -0.3961
24140SOL    HW275823   7.136   0.437   5.997  0.7779 -1.7071  0.3913
24141SOL     OW75824   3.223   2.965   4.135 -0.0076  0.3961  0.4551
24141SOL    HW175825   3.300   3.019   4.120 -0.7430  1.0873 -1.0981
24141SOL    HW275826   3.230   2.936   4.226  1.3719  1.5532  0.7400
24142SOL     OW75827   8.959  10.915   7.530  0.0681  0.1982 -0.0956
24142SOL    HW175828   9.047  10.876   7.533  0.2187  0.3545 -1.7867
24142SOL    HW275829   8.902  10.849   7.568  0.8018 -0.2305  0.2891
24143SOL     OW75830   1.057   5.265   5.030 -0.7889 -0.0667 -0.5671
24143SOL    HW175831   1.032   5.250   5.121 -1.0277 -0.3585 -0.6811
24143SOL    HW275832   1.061   5.360   5.022  1.8180  0.0062  0.4632
24144SOL     OW75833   4.929   6.785   6.018 -0.3304  0.3599  0.2223
24144SOL    HW175834   4.854   6.754   6.069 -0.0249  0.9622  1.0593
24144SOL    HW275835   4.942   6.875   6.047  0.2895  0.4886 -0.4223
24145SOL     OW75836   8.047   3.133   8.114 -0.7731 -0.1019 -0.2571
24145SOL    HW175837   8.084   3.197   8.052  2.0468 -0.7809  0.5638
24145SOL    HW275838   8.038   3.183   8.196 -0.6808 -0.1866 -0.1952
24146SOL     OW75839   1.699   1.645  10.435  0.3565 -0.6072 -0.3142
24146SOL    HW175840   1.771   1.629  10.374 -0.2487  1.6061 -1.7051
24146SOL    HW275841   1.620   1.644  10.381 -0.1548  1.8921  0.2762
24147SOL     OW75842   6.888   8.848   2.424  0.5962 -0.2096 -0.4032
24147SOL    HW175843   6.935   8.804   2.494  0.6692 -0.0400 -0.3475
24147SOL    HW275844   6.798   8.857   2.457  0.7501  0.3365 -0.1225
24148SOL     OW75845   4.983   8.011   3.678 -0.3931  0.5703  0.0216
24148SOL    HW175846   5.032   7.930   3.662 -1.4930 -0.1674  0.2873
24148SOL    HW275847   4.968   8.048   3.590 -2.0925 -0.8702 -0.3524
24149SOL     OW75848   6.499   9.000   2.830  0.1343  0.1274  0.0125
24149SOL    HW175849   6.404   8.991   2.841  0.1329 -2.8892 -1.4017
24149SOL    HW275850   6.536   8.926   2.877  1.5800 -0.0653 -1.3363
24150SOL     OW75851   0.269  10.301   1.341 -0.0614  0.0601 -0.2289
24150SOL    HW175852   0.285  10.284   1.434 -1.4773  0.0415  0.0382
24150SOL    HW275853   0.175  10.320   1.336 -0.0279 -0.0448 -1.6724
24151SOL     OW75854   1.648   8.685   7.381  0.0901  0.2795  0.2613
24151SOL    HW175855   1.674   8.755   7.440  1.9900  1.9670 -2.3796
24151SOL    HW275856   1.670   8.605   7.428 -2.5969  1.2224  3.5844
24152SOL     OW75857   5.018   7.369   1.703  0.0172  0.1708  0.0274
24152SOL    HW175858   5.012   7.340   1.612  1.7054 -0.5360  0.0920
24152SOL    HW275859   4.990   7.460   1.701  0.7788  0.4123 -1.3726
24153SOL     OW75860  10.398   3.178   4.039 -0.1446 -0.7283 -0.6175
24153SOL    HW175861  10.380   3.251   3.980  0.0593  0.7353  1.0738
24153SOL    HW275862  10.316   3.129   4.041 -1.2884  1.1098  0.4291
24154SOL     OW75863   6.211   0.125   1.174  0.1314  0.0603  0.0368
24154SOL    HW175864   6.246   0.037   1.187 -2.7454 -1.2536 -0.5228
24154SOL    HW275865   6.210   0.163   1.262  0.3223 -0.9112  0.4733
24155SOL     OW75866   2.651   6.915   9.994 -0.2985  0.2191 -0.4394
24155SOL    HW175867   2.562   6.905  10.026 -0.5388  0.9751 -0.8480
24155SOL    HW275868   2.683   6.825   9.982  0.4772 -0.2073  3.6074
24156SOL     OW75869  10.703   6.417  10.454  0.0945  0.1476 -0.4415
24156SOL    HW175870  10.786   6.392  10.496 -1.2345 -0.6687  1.8847
24156SOL    HW275871  10.674   6.493  10.504 -2.1257 -1.5583  1.0185
24157SOL     OW75872   1.184   4.327   9.160 -0.2777  0.2860  0.1678
24157SOL    HW175873   1.193   4.284   9.245  0.2384  0.3943  0.1760
24157SOL    HW275874   1.098   4.300   9.128 -0.1131 -0.4693  0.3296
24158SOL     OW75875   8.381   2.174   7.795  0.3899  0.2054  0.2643
24158SOL    HW175876   8.379   2.147   7.887  1.1584  0.6684  0.4195
24158SOL    HW275877   8.376   2.269   7.798  0.0141  0.2021 -0.1953
24159SOL     OW75878   9.286   2.341   1.336 -0.1017 -0.0334  0.6599
24159SOL    HW175879   9.306   2.325   1.244  2.0708  2.2586  0.6150
24159SOL    HW275880   9.194   2.367   1.336  0.5014  2.5702 -1.3763
24160SOL     OW75881   6.455   9.029   0.968 -0.0728 -1.0928 -0.1999
24160SOL    HW175882   6.456   8.937   0.994  1.2955 -1.1360 -0.2866
24160SOL    HW275883   6.521   9.034   0.898 -1.2967 -0.3561 -1.3557
24161SOL     OW75884   3.292   0.697   7.591 -0.3247  0.3899 -0.1073
24161SOL    HW175885   3.217   0.647   7.560 -1.6637  1.1801  1.6941
24161SOL    HW275886   3.300   0.674   7.684  1.6906  0.3148 -0.2618
24162SOL     OW75887   9.536   2.611   6.180 -0.1474 -0.3358 -0.0508
24162SOL    HW175888   9.483   2.548   6.228 -0.7262 -0.2545 -0.5807
24162SOL    HW275889   9.505   2.697   6.210 -0.4636 -0.2857 -0.5214
24163SOL     OW75890   2.411   8.585   0.952 -0.1705  0.3547 -0.3040
24163SOL    HW175891   2.415   8.533   0.871 -1.6724 -0.5157  0.1329
24163SOL    HW275892   2.341   8.544   1.003 -0.4553  1.9828  0.6768
24164SOL     OW75893   4.792   4.323   7.397 -0.0030  0.2057 -0.3234
24164SOL    HW175894   4.782   4.414   7.371  2.6155  0.8513  0.6258
24164SOL    HW275895   4.787   4.324   7.492 -0.4714 -0.7353 -0.3258
24165SOL     OW75896   4.860  10.496   5.448 -0.8763 -0.5969 -0.1576
24165SOL    HW175897   4.915  10.418   5.447  0.5257  0.3514 -0.3150
24165SOL    HW275898   4.891  10.549   5.375 -1.2348  0.4835  0.4487
24166SOL     OW75899   1.586   6.797   1.156  0.3689 -0.5883 -0.2762
24166SOL    HW175900   1.568   6.865   1.091 -0.9481 -1.1356 -0.5027
24166SOL    HW275901   1.682   6.793   1.159  0.4680 -0.0164 -1.6190
24167SOL     OW75902  10.150   6.822   0.333 -0.0811 -0.5073 -0.3430
24167SOL    HW175903  10.111   6.900   0.374  1.1319 -0.1627  0.2026
24167SOL    HW275904  10.082   6.789   0.274 -0.1621  1.7187 -1.5782
24168SOL     OW75905   9.976   6.364   9.896 -0.1316 -0.2979 -0.3273
24168SOL    HW175906  10.006   6.304   9.827  0.1362 -1.7002  0.9486
24168SOL    HW275907  10.024   6.336   9.974 -1.4046  0.3915  0.7335
24169SOL     OW75908   0.159   4.221   6.090 -0.4323 -0.4179  1.1432
24169SOL    HW175909   0.161   4.224   5.995 -0.2503  1.2964  1.1766
24169SOL    HW275910   0.198   4.137   6.113 -0.3303 -0.7697 -0.2824
24170SOL     OW75911   5.904   1.032   8.033 -0.5430 -0.1376 -0.4121
24170SOL    HW175912   5.916   1.117   8.076  1.2622  1.0501 -3.0256
24170SOL    HW275913   5.821   1.041   7.986 -0.5783 -0.0003 -0.3245
24171SOL     OW75914   6.743  10.529  10.423 -0.2919  0.1275 -0.1371
24171SOL    HW175915   6.755  10.541  10.329 -0.0437  0.9447 -0.0051
24171SOL    HW275916   6.678  10.594  10.448 -2.4356 -1.8805 -0.2047
24172SOL     OW75917   5.726   6.089   4.912 -0.3328  0.4460  0.0606
24172SOL    HW175918   5.786   6.039   4.857  0.0150  0.3347  0.5265
24172SOL    HW275919   5.639   6.064   4.882 -0.1482  0.5597 -0.5833
24173SOL     OW75920   1.221   0.025   9.479 -0.3080  0.0209 -0.0042
24173SOL    HW175921   1.310   0.051   9.505 -0.3939  0.2885  0.0210
24173SOL    HW275922   1.181   0.105   9.445 -0.8708  0.1209  0.8843
24174SOL     OW75923   5.072  10.298   4.799  0.6614  0.2995  0.1927
24174SOL    HW175924   5.114  10.381   4.778  1.3698 -0.0299  0.2837
24174SOL    HW275925   5.062  10.300   4.894 -1.6336  1.3569 -0.0024
24175SOL     OW75926   8.716  10.129   0.115 -0.0811 -0.0647  0.2875
24175SOL    HW175927   8.680  10.155   0.200  0.6771  0.5848  0.4146
24175SOL    HW275928   8.740  10.037   0.127 -0.2066 -0.0492  0.6918
24176SOL     OW75929   9.485   6.182   2.623  0.1188  0.7668 -0.6075
24176SOL    HW175930   9.509   6.265   2.664 -2.1345  1.8029 -1.2197
24176SOL    HW275931   9.389   6.183   2.620  0.0380 -1.5622 -1.2770
24177SOL     OW75932   8.846   3.080   9.199 -0.2096 -0.1984  0.1204
24177SOL    HW175933   8.787   3.009   9.171 -0.3681  0.5476 -1.5496
24177SOL    HW275934   8.934   3.043   9.188 -0.2822 -0.0560 -1.0296
24178SOL     OW75935   9.804   3.291   0.643 -0.0109  0.3540  0.6228
24178SOL    HW175936   9.757   3.283   0.561  1.0833  0.3020 -0.0224
24178SOL    HW275937   9.813   3.202   0.675 -0.0712  0.3355  0.5878
24179SOL     OW75938   2.347   3.404   8.574  0.0493  0.3638  0.5019
24179SOL    HW175939   2.442   3.404   8.585  0.1948 -0.0900 -0.5689
24179SOL    HW275940   2.314   3.452   8.650  1.1249  0.4752  0.9234
24180SOL     OW75941   6.693   2.201   5.827  0.1619 -0.4791 -0.2828
24180SOL    HW175942   6.623   2.254   5.788  0.3930 -0.8178 -1.1729
24180SOL    HW275943   6.680   2.114   5.790  0.6214 -0.7184  0.1111
24181SOL     OW75944   9.888   4.850   8.512  0.4301 -0.0760 -0.3068
24181SOL    HW175945   9.827   4.823   8.444  2.3970 -0.2678 -2.0931
24181SOL    HW275946   9.865   4.942   8.529 -2.2307 -0.9388  1.2836
24182SOL     OW75947   4.094   4.423   1.338  0.7898  0.6510 -0.4790
24182SOL    HW175948   4.031   4.429   1.266  0.8666  1.7453 -0.4693
24182SOL    HW275949   4.171   4.382   1.300  1.0777  1.8163 -1.2130
24183SOL     OW75950   4.058  10.314   4.133  0.0558 -0.2325 -0.0972
24183SOL    HW175951   4.087  10.310   4.042  0.6188 -0.6410  0.0929
24183SOL    HW275952   3.963  10.299   4.129 -0.2536  1.6597 -0.7751
24184SOL     OW75953   8.874   9.493  10.111  0.0440 -0.2293  0.0618
24184SOL    HW175954   8.908   9.407  10.085 -0.6761 -0.4275 -0.2497
24184SOL    HW275955   8.898   9.502  10.203  3.6301  0.9500 -0.8459
24185SOL     OW75956   7.684   8.039   9.759 -0.3292  0.5009 -0.4070
24185SOL    HW175957   7.665   7.953   9.722  0.3874  0.0907  0.1722
24185SOL    HW275958   7.772   8.032   9.795 -1.1410  0.7426  1.8006
24186SOL     OW75959   1.049   1.177   5.798 -0.6674 -0.2600 -0.3276
24186SOL    HW175960   1.145   1.178   5.794 -0.6586 -0.6800 -0.2659
24186SOL    HW275961   1.027   1.222   5.879 -0.4516 -1.7679  0.6145
24187SOL     OW75962   3.899   7.321   9.920 -0.0508 -0.2402 -0.0536
24187SOL    HW175963   3.894   7.414   9.944  1.6330 -0.2287  0.3913
24187SOL    HW275964   3.813   7.286   9.941 -0.3224  0.9481  0.9615
24188SOL     OW75965   1.464   1.125   1.912  0.2361 -0.2803  0.2710
24188SOL    HW175966   1.468   1.041   1.866 -1.7529 -0.8367  0.9851
24188SOL    HW275967   1.527   1.117   1.984 -0.9650 -1.8079  1.2271
24189SOL     OW75968   1.910   6.462   0.370  0.1990 -0.0697  0.5598
24189SOL    HW175969   1.909   6.466   0.274  0.8738  1.1761  0.5816
24189SOL    HW275970   1.913   6.369   0.390 -1.1118 -0.4049 -0.6027
24190SOL     OW75971  10.037   0.923   9.501 -0.0297 -0.8776 -0.4925
24190SOL    HW175972   9.987   0.989   9.548  1.0267 -1.0109  0.8994
24190SOL    HW275973  10.016   0.938   9.409 -1.1522  0.2528 -0.0861
24191SOL     OW75974   5.133  10.003   3.521 -0.0257 -0.7376 -0.7181
24191SOL    HW175975   5.081  10.083   3.534 -0.2108 -0.7235 -1.4581
24191SOL    HW275976   5.098   9.941   3.584  0.5372 -0.0462  0.3059
24192SOL     OW75977   4.547   0.565   0.056 -0.5842  0.2293  0.1472
24192SOL    HW175978   4.461   0.527   0.075  0.2321 -2.4345 -1.0629
24192SOL    HW275979   4.527   0.637  -0.004 -2.0167 -0.0402  0.2546
24193SOL     OW75980   5.551  10.249   5.234  0.5188  0.1283 -0.1702
24193SOL    HW175981   5.580  10.324   5.286  2.7259 -1.7609  1.5472
24193SOL    HW275982   5.531  10.286   5.148  2.5175  2.5686  0.2854
24194SOL     OW75983   8.155   1.786   2.881 -0.2226 -0.5461 -0.3229
24194SOL    HW175984   8.137   1.708   2.934  1.3137 -0.6736  0.0605
24194SOL    HW275985   8.107   1.770   2.799 -3.1234 -0.0719  1.1511
24195SOL     OW75986   2.591   8.822   6.773  0.1538  0.0323  0.3929
24195SOL    HW175987   2.518   8.832   6.711  0.4959 -0.8959 -0.1867
24195SOL    HW275988   2.669   8.816   6.717  0.4762 -0.7298  0.9183
24196SOL     OW75989   0.294   7.255   5.095 -0.0256 -0.1700 -0.0502
24196SOL    HW175990   0.347   7.288   5.167 -0.5721  0.0061  0.2762
24196SOL    HW275991   0.357   7.215   5.035  0.7431  1.9861 -0.7689
24197SOL     OW75992   1.249   2.256   4.966  0.2930 -0.3333  0.1760
24197SOL    HW175993   1.314   2.199   4.925  1.3408  0.1918  1.0463
24197SOL    HW275994   1.289   2.282   5.049 -0.5793  0.8834  0.2402
24198SOL     OW75995   2.474   9.584  10.160  0.2180 -0.6381  0.1064
24198SOL    HW175996   2.445   9.554  10.075  1.2901 -1.0074 -0.1550
24198SOL    HW275997   2.454   9.678  10.162  0.4502 -0.5706 -0.6659
24199SOL     OW75998   4.813   1.356   8.754  0.0101  0.6594  0.9319
24199SOL    HW175999   4.727   1.349   8.795 -0.4803 -0.5122 -0.2331
24199SOL    HW276000   4.796   1.358   8.660  1.1699  2.1916  0.7161
24200SOL     OW76001   3.837   9.875   7.916 -0.0207  0.1248 -0.3929
24200SOL    HW176002   3.926   9.840   7.923  0.0726  0.5658  0.7824
24200SOL    HW276003   3.850   9.968   7.899 -0.2095  0.6994  2.3104
24201SOL     OW76004   4.154   8.353   6.778 -0.2137 -0.1721 -0.3394
24201SOL    HW176005   4.060   8.352   6.760 -0.4121  0.5038  0.5533
24201SOL    HW276006   4.191   8.407   6.709 -0.2979 -1.4496 -1.4178
24202SOL     OW76007   1.661   4.025   1.834 -0.1281 -0.3410 -0.6122
24202SOL    HW176008   1.710   3.943   1.840  0.8745  0.3355  1.7822
24202SOL    HW276009   1.594   4.018   1.901 -0.3727  0.5940 -0.7437
24203SOL     OW76010   0.174   6.402  10.008  0.1943 -0.4855 -0.6643
24203SOL    HW176011   0.160   6.496   9.997  0.3584 -0.4279 -0.3855
24203SOL    HW276012   0.090   6.369  10.039  0.9587  0.0753  2.3371
24204SOL     OW76013   4.757   6.317   1.983  0.5764  0.3543  0.4683
24204SOL    HW176014   4.702   6.288   2.056  2.0383 -0.1101  1.4129
24204SOL    HW276015   4.842   6.278   2.000  0.7020 -0.6536 -2.0729
24205SOL     OW76016   0.182   8.416   9.223  0.1223 -0.7170 -0.2685
24205SOL    HW176017   0.205   8.335   9.177  0.2160 -0.4205 -0.7508
24205SOL    HW276018   0.251   8.427   9.288 -0.2833 -1.4070  0.2907
24206SOL     OW76019   4.143   6.838   6.814  0.4275 -0.0970 -0.0578
24206SOL    HW176020   4.157   6.931   6.797  0.7694  0.4601  2.7545
24206SOL    HW276021   4.053   6.822   6.787  0.0149  1.3362  0.3693
24207SOL     OW76022   7.578   2.613   1.052 -0.7879 -0.0068 -0.1784
24207SOL    HW176023   7.612   2.702   1.049 -1.3228  0.1720 -1.7045
24207SOL    HW276024   7.486   2.621   1.028 -0.3979 -1.1570 -2.2791
24208SOL     OW76025   9.072   2.680   3.933 -0.1070  0.2027  0.5848
24208SOL    HW176026   9.084   2.651   3.842 -0.1489 -0.4259  0.7724
24208SOL    HW276027   8.985   2.720   3.934 -0.5401 -0.7017  0.5612
24209SOL     OW76028   4.872   5.109   4.345  0.3505  0.7883 -0.2556
24209SOL    HW176029   4.924   5.172   4.395  0.2911  0.0741  0.7413
24209SOL    HW276030   4.847   5.042   4.409 -0.0735  0.0520 -1.1601
24210SOL     OW76031   3.827   4.034   0.389  0.0837  0.3736 -0.0478
24210SOL    HW176032   3.835   4.044   0.294  1.9099 -0.8304 -0.0658
24210SOL    HW276033   3.906   3.987   0.415 -0.5252  0.4124  2.0447
24211SOL     OW76034  10.088   4.869   4.720 -0.3205 -1.0183  0.2384
24211SOL    HW176035  10.164   4.812   4.724 -0.5798 -1.3229  1.3919
24211SOL    HW276036  10.016   4.812   4.693 -0.4439 -1.0947  0.7149
24212SOL     OW76037   5.403   3.918   1.917  0.1993 -0.0824  0.8254
24212SOL    HW176038   5.339   3.900   1.848  1.4373  1.0906 -0.7203
24212SOL    HW276039   5.382   4.007   1.945  0.7037  0.0427  0.8092
24213SOL     OW76040   0.865   4.854   9.543 -0.6022  0.3217  0.5382
24213SOL    HW176041   0.956   4.860   9.571 -0.9890 -2.4188  2.7719
24213SOL    HW276042   0.870   4.826   9.451  0.7991  0.1053  0.6637
24214SOL     OW76043   5.715   5.392   2.559  0.2019 -0.6186 -0.0845
24214SOL    HW176044   5.802   5.362   2.584 -0.1162 -2.4438 -1.0073
24214SOL    HW276045   5.730   5.475   2.514  1.3599 -0.4581  0.5645
24215SOL     OW76046   3.618   7.156   3.619  0.2029 -0.0792  0.0160
24215SOL    HW176047   3.683   7.120   3.559  0.9891  0.2042  0.6911
24215SOL    HW276048   3.642   7.248   3.629 -1.1005  0.3829 -0.7721
24216SOL     OW76049   3.068   7.459   2.042  0.2655 -0.1916  0.5230
24216SOL    HW176050   3.068   7.555   2.039 -3.1567 -0.0957 -1.0967
24216SOL    HW276051   3.146   7.434   1.992 -0.9488  1.8847 -2.7508
24217SOL     OW76052   0.103   8.720   5.075 -0.1285  0.0589 -0.0487
24217SOL    HW176053   0.018   8.702   5.033 -1.2590 -1.0045  2.4705
24217SOL    HW276054   0.146   8.634   5.079  0.6897  0.4415 -0.5134
24218SOL     OW76055   1.711   9.528   9.800  0.4682 -0.0235  0.0284
24218SOL    HW176056   1.707   9.435   9.777 -1.8424  0.1790 -0.6444
24218SOL    HW276057   1.694   9.530   9.894  2.1115 -0.3395  0.3657
24219SOL     OW76058  10.031   4.506   6.066  0.2338 -0.1313 -0.6749
24219SOL    HW176059  10.015   4.506   6.161 -0.4941  0.0416 -0.7970
24219SOL    HW276060  10.103   4.444   6.055  0.2260 -0.2701 -0.0238
24220SOL     OW76061   9.535   2.960   4.225 -0.3841  0.5526 -0.0635
24220SOL    HW176062   9.606   3.020   4.202 -0.3683  0.7950  0.5926
24220SOL    HW276063   9.456   3.002   4.192 -0.3649  0.9077  0.3337
24221SOL     OW76064   8.745   4.290   2.441  0.3009 -0.0010  0.2338
24221SOL    HW176065   8.830   4.290   2.483  0.3650 -1.4254  0.1697
24221SOL    HW276066   8.702   4.370   2.471  2.2439  1.5847 -0.9964
24222SOL     OW76067   2.043   2.816   0.261  0.2052 -0.0107 -0.2595
24222SOL    HW176068   1.960   2.768   0.256  1.2902 -2.0474  0.0517
24222SOL    HW276069   2.042   2.873   0.185 -2.3983  1.6541  0.8832
24223SOL     OW76070   9.088   4.185  10.705  0.0946 -0.6549 -0.3934
24223SOL    HW176071   9.019   4.136  10.751 -1.2204  0.7996 -0.7623
24223SOL    HW276072   9.096   4.141  10.621 -1.0154 -0.3291 -0.6876
24224SOL     OW76073   1.763   8.212   3.081  0.0918 -0.3288 -0.0515
24224SOL    HW176074   1.828   8.280   3.100 -0.3845  0.0524  0.2601
24224SOL    HW276075   1.683   8.261   3.061 -0.8500 -0.7969  2.3011
24225SOL     OW76076   3.425   7.726   7.662 -0.3281 -0.1310  0.2400
24225SOL    HW176077   3.450   7.639   7.693 -1.2419 -0.5377 -0.1168
24225SOL    HW276078   3.498   7.783   7.687  0.0592 -0.9047  0.9132
24226SOL     OW76079   7.889   9.693   4.558  0.4630  0.3454  0.6410
24226SOL    HW176080   7.829   9.768   4.558 -1.1156 -0.6557 -3.2501
24226SOL    HW276081   7.868   9.646   4.639 -3.1721  0.7794  0.1186
24227SOL     OW76082   7.851   3.425   6.474  0.3573  0.0945  0.3375
24227SOL    HW176083   7.832   3.473   6.393 -0.1230  0.0706  0.4340
24227SOL    HW276084   7.767   3.390   6.501  0.9142 -2.0190 -0.4884
24228SOL     OW76085   2.148  10.262   5.881 -0.5361  0.1789  0.3187
24228SOL    HW176086   2.171  10.292   5.793 -3.2893  0.5779 -0.3645
24228SOL    HW276087   2.231  10.233   5.919  1.0420  1.7126 -1.7132
24229SOL     OW76088   6.167   1.014   9.374  0.3236  0.0778 -0.4496
24229SOL    HW176089   6.150   1.101   9.409 -1.4397 -0.7712  0.9592
24229SOL    HW276090   6.089   0.964   9.395  1.0172 -1.6949 -1.8152
24230SOL     OW76091   2.177   1.320   8.303  0.6596  0.0412 -0.8043
24230SOL    HW176092   2.203   1.351   8.390  2.4945 -1.2560 -0.8369
24230SOL    HW276093   2.087   1.289   8.314 -0.1559  2.4086 -0.0713
24231SOL     OW76094   9.331   3.855   2.115  0.3102  0.6430 -0.4788
24231SOL    HW176095   9.272   3.780   2.119  0.7021  0.3300 -0.4984
24231SOL    HW276096   9.397   3.830   2.051 -0.7515  1.8785 -2.1655
24232SOL     OW76097   7.088   4.329   5.025 -0.8310  0.4478 -0.0452
24232SOL    HW176098   7.009   4.277   5.036 -0.7569  0.2268 -0.5123
24232SOL    HW276099   7.158   4.265   5.014 -0.3208  0.6076  1.9154
24233SOL     OW76100   3.387   6.646   3.413 -0.2151 -0.6048  0.2796
24233SOL    HW176101   3.381   6.638   3.508  0.1086  0.0713  0.3637
24233SOL    HW276102   3.298   6.628   3.382 -0.5547  0.1484  0.7866
24234SOL     OW76103   0.210   8.838   6.433  0.6956  0.0347  0.3499
24234SOL    HW176104   0.271   8.814   6.364 -0.0111 -2.5622  0.5102
24234SOL    HW276105   0.165   8.916   6.400  1.6134 -0.0910 -1.2995
24235SOL     OW76106   6.001   3.678   3.194 -0.0304  0.0335 -0.0332
24235SOL    HW176107   5.909   3.693   3.174  0.2010  0.1528 -1.0923
24235SOL    HW276108   6.001   3.604   3.254 -0.8309  0.2508  0.2488
24236SOL     OW76109   6.132   6.812   2.285  0.1625  0.3326  1.0208
24236SOL    HW176110   6.108   6.738   2.340 -1.6844  1.1530  1.3804
24236SOL    HW276111   6.227   6.806   2.277 -0.0197 -2.6913  0.1099
24237SOL     OW76112   0.308   0.902   3.229 -0.0569 -0.0183 -0.3744
24237SOL    HW176113   0.348   0.817   3.211 -1.4926 -1.0992  1.2974
24237SOL    HW276114   0.382   0.963   3.228  1.4861 -1.7445  1.3092
24238SOL     OW76115   3.336   3.234   4.855  0.2011  0.3483  0.1669
24238SOL    HW176116   3.309   3.324   4.876 -0.2066 -0.0456  1.4477
24238SOL    HW276117   3.258   3.193   4.818  0.0727  0.2254  0.5683
24239SOL     OW76118   4.021   1.213   1.632 -0.2451  0.1478 -0.2019
24239SOL    HW176119   4.072   1.228   1.553  0.6364  0.4238  0.4034
24239SOL    HW276120   4.086   1.211   1.702 -1.0821  0.6962  0.6128
24240SOL     OW76121   9.618   8.028   1.839  0.1671  0.6131  0.1734
24240SOL    HW176122   9.670   7.953   1.870  1.5870  2.5161  2.8395
24240SOL    HW276123   9.593   8.074   1.919 -0.8817  2.8626 -1.3560
24241SOL     OW76124   6.929   3.750   7.363 -0.0403  0.6999  0.0616
24241SOL    HW176125   6.883   3.822   7.318  0.1408  0.5034 -0.4476
24241SOL    HW276126   6.981   3.709   7.294 -0.2954 -0.0479  0.3131
24242SOL     OW76127   5.768   8.504  10.433 -0.0347  0.3191 -0.0055
24242SOL    HW176128   5.861   8.521  10.420  0.0268  0.8072  0.9916
24242SOL    HW276129   5.726   8.590  10.422 -0.2374  0.3059  0.6462
24243SOL     OW76130   2.480   9.146   1.230 -0.5541  0.0113  0.6273
24243SOL    HW176131   2.522   9.061   1.241  0.7480  0.6598  1.0199
24243SOL    HW276132   2.449   9.169   1.318 -1.4515 -0.3229  0.3999
24244SOL     OW76133   8.578   6.545   1.793 -0.3676  0.3698  0.1415
24244SOL    HW176134   8.611   6.538   1.703  0.8034  2.2527  0.3470
24244SOL    HW276135   8.483   6.536   1.785 -0.2077 -0.4115 -1.1555
24245SOL     OW76136   8.339   0.349   8.474 -0.2511 -0.3740  0.2750
24245SOL    HW176137   8.315   0.378   8.562 -2.6080  0.5447 -0.5981
24245SOL    HW276138   8.296   0.265   8.462  1.3353 -1.2592  0.5035
24246SOL     OW76139   9.729   2.005   7.879  0.6365 -0.0700 -0.2415
24246SOL    HW176140   9.762   1.916   7.885 -2.0132 -1.0232  2.2090
24246SOL    HW276141   9.682   2.008   7.796  0.2514 -1.1340 -0.0658
24247SOL     OW76142   1.446   7.106   8.415  0.1119 -0.4761  0.2563
24247SOL    HW176143   1.470   7.037   8.477 -0.9577  0.9555  2.3826
24247SOL    HW276144   1.498   7.087   8.337  0.2319 -3.3696  0.9162
24248SOL     OW76145   5.978   5.466   4.722  0.5800 -0.0882 -0.1453
24248SOL    HW176146   6.025   5.426   4.649 -0.2814  0.4619 -1.0387
24248SOL    HW276147   5.964   5.395   4.784  0.3851 -0.8250 -1.0091
24249SOL     OW76148   9.807   6.499   1.682 -0.4203  0.3901 -0.0791
24249SOL    HW176149   9.736   6.470   1.739 -1.1485  0.0212 -1.1379
24249SOL    HW276150   9.847   6.572   1.728 -3.4642  2.7060 -0.8171
24250SOL     OW76151  10.232   4.146   3.862 -0.5800  0.4184 -0.1979
24250SOL    HW176152  10.183   4.213   3.814  0.5608  0.0453 -1.9720
24250SOL    HW276153  10.324   4.174   3.855 -0.3523  0.2662  1.6917
24251SOL     OW76154   2.471   7.928   0.200  0.2102  0.6475  0.4552
24251SOL    HW176155   2.555   7.968   0.222 -0.0758  0.1856  2.5335
24251SOL    HW276156   2.419   8.001   0.165  0.5271  1.5877  1.8457
24252SOL     OW76157   5.294   9.291   4.244  0.5489  0.4301  0.3556
24252SOL    HW176158   5.313   9.318   4.334  2.0188  1.2424 -0.1751
24252SOL    HW276159   5.206   9.326   4.227  0.1728  0.0979  1.5189
24253SOL     OW76160   4.172   7.445   1.334 -0.3609  0.5847  0.0320
24253SOL    HW176161   4.202   7.495   1.258  1.4396  1.0399  0.9761
24253SOL    HW276162   4.224   7.364   1.331 -1.9298 -0.4585 -0.4525
24254SOL     OW76163   9.007   2.831   1.698  0.7652  0.0725 -0.3216
24254SOL    HW176164   9.038   2.755   1.649 -1.0326 -1.3837  0.6504
24254SOL    HW276165   9.076   2.849   1.762  1.0367 -1.0151 -0.2935
24255SOL     OW76166   0.632   4.959   1.611  0.1794 -0.3473 -0.3756
24255SOL    HW176167   0.584   5.017   1.671  1.1216 -0.0401  0.0987
24255SOL    HW276168   0.590   4.873   1.622 -0.7967  0.0807 -0.5958
24256SOL     OW76169   8.328   5.369   9.128  0.5846 -0.4022  0.8696
24256SOL    HW176170   8.347   5.275   9.130 -0.5558 -0.6469  0.6667
24256SOL    HW276171   8.402   5.409   9.174  1.1929 -1.3752  0.7691
24257SOL     OW76172   2.133   2.425   9.868 -0.1303 -0.5872 -0.2380
24257SOL    HW176173   2.133   2.467   9.954 -0.5656 -0.8182 -0.1207
24257SOL    HW276174   2.223   2.434   9.837 -0.1787  0.2720 -0.1459
24258SOL     OW76175  10.728   4.550   8.205 -0.3609  0.1075 -0.5647
24258SOL    HW176176  10.742   4.511   8.292  2.1933  0.1610 -0.8926
24258SOL    HW276177  10.696   4.639   8.224 -0.3501 -0.0633  0.2971
24259SOL     OW76178   0.870  10.534   5.664  0.1933  0.3925  0.2590
24259SOL    HW176179   0.923  10.610   5.644  0.4549  0.0660 -0.3133
24259SOL    HW276180   0.892  10.470   5.595 -0.9276  0.2526  0.0067
24260SOL     OW76181   2.578   5.522   5.884  0.3454 -0.5506 -0.0039
24260SOL    HW176182   2.669   5.535   5.858  0.4676  0.9925  1.0581
24260SOL    HW276183   2.569   5.427   5.890  1.1440 -0.8642 -2.4990
24261SOL     OW76184   0.930   1.964   4.242 -0.0362 -0.3379 -0.3705
24261SOL    HW176185   0.867   1.957   4.314 -1.6385  1.0563 -1.5276
24261SOL    HW276186   0.979   1.882   4.245 -1.0002 -0.9190  1.4157
24262SOL     OW76187   2.548   3.017   3.660  0.1195  0.1877 -0.2254
24262SOL    HW176188   2.643   3.018   3.646  0.1212  1.2351 -0.1908
24262SOL    HW276189   2.538   3.014   3.755  0.1035 -0.8785 -0.2452
24263SOL     OW76190   1.147   5.874   9.153 -0.4445 -0.3226 -0.6295
24263SOL    HW176191   1.148   5.925   9.234  2.3191 -0.4352 -0.5191
24263SOL    HW276192   1.173   5.786   9.179  0.5091 -0.3586 -1.6100
24264SOL     OW76193  10.626   7.178   5.675  0.3315  0.2368  0.4380
24264SOL    HW176194  10.652   7.208   5.762  1.4624  1.3491 -0.2378
24264SOL    HW276195  10.562   7.243   5.646 -1.6315 -1.2777  1.2248
24265SOL     OW76196   3.964   0.530   9.336 -0.9712 -0.1524 -0.0305
24265SOL    HW176197   3.912   0.456   9.305 -0.6981 -2.4034  4.0985
24265SOL    HW276198   3.900   0.601   9.348 -1.3350  0.2694 -3.4701
24266SOL     OW76199   7.241   5.080   3.070  0.0831 -0.4882 -0.3687
24266SOL    HW176200   7.265   5.133   2.995 -0.1173 -0.2801 -0.2887
24266SOL    HW276201   7.223   4.993   3.034 -1.3230 -0.0565 -0.7613
24267SOL     OW76202   9.479  10.057   7.764 -0.4318 -0.4113 -0.3805
24267SOL    HW176203   9.407  10.098   7.812  0.1572 -1.1382  1.1729
24267SOL    HW276204   9.453   9.966   7.756 -0.7059 -0.2258 -1.8412
24268SOL     OW76205   0.719   3.900   8.499 -0.4005 -0.8741 -0.2292
24268SOL    HW176206   0.737   3.987   8.534 -1.0156 -0.4236 -1.0053
24268SOL    HW276207   0.757   3.840   8.563 -0.1298 -0.0398  0.4050
24269SOL     OW76208   0.035   4.569   8.632  0.0306 -0.2966 -0.0321
24269SOL    HW176209  -0.017   4.489   8.626 -1.2762  0.3041  2.2734
24269SOL    HW276210   0.038   4.589   8.725  0.2135  2.4153 -0.5471
24270SOL     OW76211   3.043   7.680   9.414 -0.7207  0.1930 -0.1073
24270SOL    HW176212   3.026   7.758   9.467 -0.1223  0.5297 -0.4091
24270SOL    HW276213   2.959   7.632   9.415 -1.3609  1.2664 -0.6354
24271SOL     OW76214   3.453   5.330   5.704  0.1853  0.7669 -0.4949
24271SOL    HW176215   3.385   5.270   5.675 -0.4262 -0.3224  2.7119
24271SOL    HW276216   3.459   5.396   5.635 -3.3842  0.3264 -1.4210
24272SOL     OW76217   1.385   1.192   2.278  0.6681 -0.7057  0.2389
24272SOL    HW176218   1.336   1.145   2.345  0.9684  1.7037  2.2555
24272SOL    HW276219   1.330   1.268   2.256  1.4645 -0.4047 -0.8299
24273SOL     OW76220   9.235   7.591   4.164  0.1518  0.0584  0.5413
24273SOL    HW176221   9.150   7.635   4.157  0.8688  1.3026 -1.0981
24273SOL    HW276222   9.291   7.654   4.210  0.7254  0.1649 -0.2713
24274SOL     OW76223   6.210   4.886  10.245  0.2634 -0.3442  0.4992
24274SOL    HW176224   6.227   4.814  10.306 -0.6709  0.5367  1.8652
24274SOL    HW276225   6.271   4.955  10.272  2.9055 -1.3647 -2.3398
24275SOL     OW76226   2.576   5.116   2.106  0.7714  0.1264  0.3444
24275SOL    HW176227   2.525   5.161   2.039  3.0170  0.5151 -1.2167
24275SOL    HW276228   2.595   5.183   2.172 -1.1334 -0.1689  1.2689
24276SOL     OW76229   2.322   3.939   1.115  0.4742 -0.1132 -0.5208
24276SOL    HW176230   2.372   4.015   1.086  0.2195  0.8542  1.4164
24276SOL    HW276231   2.383   3.866   1.106  1.3785  0.6316 -0.5883
24277SOL     OW76232  10.883   8.481   2.079  0.0339 -0.1031  0.0634
24277SOL    HW176233  10.878   8.391   2.046 -0.5590  0.0798 -0.3679
24277SOL    HW276234  10.926   8.473   2.164 -1.3370 -0.9847  0.7153
24278SOL     OW76235   7.061   9.303   9.284  0.3344  0.6171  0.0741
24278SOL    HW176236   7.146   9.259   9.291 -0.1437 -0.1597  1.4035
24278SOL    HW276237   7.066   9.376   9.346  0.7571  1.8614 -1.3781
24279SOL     OW76238   2.558   2.149   4.488 -0.1180 -0.3338 -0.0745
24279SOL    HW176239   2.568   2.125   4.396  0.9641  1.4925 -0.4951
24279SOL    HW276240   2.645   2.137   4.526 -0.3309 -0.2017  0.4721
24280SOL     OW76241   4.078   5.214   2.998 -0.2633  0.1717  0.5582
24280SOL    HW176242   4.040   5.158   2.930 -1.2795 -1.3169  2.2767
24280SOL    HW276243   4.026   5.294   2.995 -2.3511 -1.0550  1.5292
24281SOL     OW76244   7.088   2.636   9.831 -0.2561  0.0694 -0.4600
24281SOL    HW176245   7.054   2.598   9.911  1.5848  1.2679  0.9786
24281SOL    HW276246   7.182   2.644   9.846 -0.2631  3.4017 -1.3670
24282SOL     OW76247   7.430   1.051  10.352 -0.0339  0.0177  0.2894
24282SOL    HW176248   7.390   1.103  10.282 -0.6147 -0.0873  0.5437
24282SOL    HW276249   7.359   1.032  10.413  0.6904  1.1222  1.5425
24283SOL     OW76250   0.953   7.426   8.341  0.1215  0.1639  0.2607
24283SOL    HW176251   1.002   7.360   8.390 -0.0627 -0.6507 -0.6292
24283SOL    HW276252   0.962   7.400   8.250 -0.9735  0.6901 -0.0145
24284SOL     OW76253   5.879  10.850   0.010  0.1404  0.4610 -0.4909
24284SOL    HW176254   5.811  10.790   0.041  1.4431 -0.3971  0.8602
24284SOL    HW276255   5.936  10.797  -0.044  1.2843  0.4358  0.6837
24285SOL     OW76256   9.815  10.757   8.580 -0.3628 -0.1726 -0.1891
24285SOL    HW176257   9.891  10.709   8.613  0.2574  1.4438  0.8910
24285SOL    HW276258   9.769  10.694   8.525  0.6264 -1.8460  0.7949
24286SOL     OW76259   5.081  10.627   7.884  0.1635  0.3999 -0.6981
24286SOL    HW176260   5.015  10.666   7.827 -1.1597 -0.0707  0.4485
24286SOL    HW276261   5.109  10.698   7.940 -0.3458  0.3155 -0.3264
24287SOL     OW76262   1.700   7.308   2.434  0.1163  0.0576  0.2404
24287SOL    HW176263   1.624   7.251   2.442  0.2886 -0.4341 -1.2936
24287SOL    HW276264   1.771   7.251   2.403  0.2226  1.0821 -1.5786
24288SOL     OW76265   8.566   3.349  10.242  0.1633 -0.3501 -0.1814
24288SOL    HW176266   8.546   3.363  10.334 -0.7359  0.5506 -0.5048
24288SOL    HW276267   8.489   3.304  10.207 -0.0917  0.5263 -0.7829
24289SOL     OW76268   2.747   5.904   7.405  0.5996 -0.2064 -0.2861
24289SOL    HW176269   2.729   5.833   7.343  1.3396 -0.1278 -0.6021
24289SOL    HW276270   2.801   5.863   7.472  0.1377 -0.1911  0.1030
24290SOL     OW76271   1.313   0.092   0.644  0.4472  0.2985 -0.1948
24290SOL    HW176272   1.285   0.025   0.582  0.3526  0.6692 -0.5536
24290SOL    HW276273   1.303   0.174   0.597 -1.7603  0.8113  1.0334
24291SOL     OW76274   4.100   8.411   4.524 -0.0521 -0.1378  0.1308
24291SOL    HW176275   4.026   8.360   4.491  0.3700 -0.2335 -0.7100
24291SOL    HW276276   4.151   8.349   4.575 -0.7105  0.0073  0.9843
24292SOL     OW76277   2.523   0.829   9.106  0.2206 -0.0256 -0.0401
24292SOL    HW176278   2.430   0.822   9.085  0.8034 -1.4985 -2.6809
24292SOL    HW276279   2.563   0.862   9.025  2.1474 -0.9277  0.4841
24293SOL     OW76280   2.243   8.811   6.227  0.4833 -0.0478  0.1463
24293SOL    HW176281   2.275   8.721   6.217 -1.2009 -0.4235 -5.0182
24293SOL    HW276282   2.322   8.865   6.232  1.5970 -1.5752 -0.2408
24294SOL     OW76283  10.848   7.718   1.689  0.6596 -0.6699  0.5447
24294SOL    HW176284  10.893   7.657   1.748 -1.2068 -1.7591  0.9123
24294SOL    HW276285  10.774   7.668   1.654  0.1967  0.7926 -0.6882
24295SOL     OW76286   4.048   9.643   3.986  0.0860 -0.2213  0.5919
24295SOL    HW176287   4.053   9.550   3.967 -0.0200 -0.4115  1.4211
24295SOL    HW276288   3.962   9.654   4.029  0.1794  0.2171  0.6743
24296SOL     OW76289   1.791   9.771   1.903 -0.2435  0.3435 -0.1480
24296SOL    HW176290   1.720   9.824   1.941 -0.2917  0.2133 -0.0571
24296SOL    HW276291   1.857   9.768   1.972 -1.0307 -1.2955  0.5735
24297SOL     OW76292   2.611   9.491  10.372 -0.1990 -0.2936 -0.1961
24297SOL    HW176293   2.544   9.440  10.419 -0.5956  1.0835  0.7878
24297SOL    HW276294   2.564   9.529  10.299 -0.3496  0.1508  0.1282
24298SOL     OW76295  10.850   4.397   2.451 -0.4452 -0.3790 -0.3974
24298SOL    HW176296  10.901   4.356   2.522 -0.3591 -1.7102 -1.1763
24298SOL    HW276297  10.767   4.350   2.452 -1.2385  1.0010  0.1163
24299SOL     OW76298  10.369   0.865   3.943 -0.5577 -0.1026 -0.0044
24299SOL    HW176299  10.433   0.935   3.932  0.1999 -0.6616  0.7999
24299SOL    HW276300  10.419   0.790   3.974 -1.6517 -0.4411  1.0170
24300SOL     OW76301   9.314   3.510   5.669  0.1373 -0.8372  0.1204
24300SOL    HW176302   9.306   3.603   5.648  0.0831 -1.3325 -2.3671
24300SOL    HW276303   9.312   3.507   5.764 -0.9469  1.6034  0.2563
24301SOL     OW76304   3.841   1.936   5.789 -0.5370  0.5212  0.1215
24301SOL    HW176305   3.920   1.988   5.806  0.9589 -1.1278 -1.3041
24301SOL    HW276306   3.856   1.899   5.702 -2.6124 -0.3742  0.0942
24302SOL     OW76307   8.965   0.020   9.606  0.2105 -0.5344  0.1744
24302SOL    HW176308   9.047   0.032   9.652  1.3822 -1.5480 -1.5338
24302SOL    HW276309   8.990   0.014   9.513 -1.8584 -0.1139 -0.4668
24303SOL     OW76310   7.906   0.214   0.620 -0.0050  0.3709  0.4355
24303SOL    HW176311   7.860   0.171   0.692  0.1157 -0.7445 -0.1170
24303SOL    HW276312   7.931   0.299   0.654 -3.3021  1.4507  0.4524
24304SOL     OW76313   3.950   3.788   6.126  0.5454 -0.4470  0.7444
24304SOL    HW176314   3.867   3.765   6.084  0.4168 -1.7886  1.6471
24304SOL    HW276315   4.005   3.821   6.055 -0.6446  0.1517  0.0774
24305SOL     OW76316   3.440  10.385   2.451  0.1173  0.0152  0.0344
24305SOL    HW176317   3.420  10.428   2.367 -1.4509  1.6875  1.1822
24305SOL    HW276318   3.523  10.340   2.435  0.6878  1.5863 -1.9825
24306SOL     OW76319   9.377   9.785   6.911 -0.3377 -0.2588 -0.0428
24306SOL    HW176320   9.362   9.876   6.938 -0.7239 -0.2742 -0.2085
24306SOL    HW276321   9.431   9.793   6.832 -0.7859 -0.1573 -0.3410
24307SOL     OW76322  10.243   1.859   4.473  0.1252  0.0563 -0.0060
24307SOL    HW176323  10.180   1.916   4.428  0.1278 -0.1557 -0.2848
24307SOL    HW276324  10.323   1.912   4.480 -0.1101  0.3567  0.4285
24308SOL     OW76325   0.369   6.951  10.107 -0.0281  0.5461 -0.4991
24308SOL    HW176326   0.316   7.025  10.080  0.0396  0.0173 -2.2475
24308SOL    HW276327   0.306   6.884  10.132 -0.1661  0.4723 -1.0201
24309SOL     OW76328   7.114   5.037   3.453 -0.0356  0.3216  0.3921
24309SOL    HW176329   7.187   4.991   3.497 -0.8762 -0.7025  0.7632
24309SOL    HW276330   7.074   4.970   3.398 -1.3812  0.5651  1.0473
24310SOL     OW76331   0.727   4.402   3.912 -0.2633 -0.5276  0.4691
24310SOL    HW176332   0.789   4.417   3.841 -0.4543  0.1263  0.4290
24310SOL    HW276333   0.731   4.308   3.929  1.1925 -0.4184  0.8821
24311SOL     OW76334   8.107   0.987   1.350 -0.5465  0.2735  0.2762
24311SOL    HW176335   8.049   0.954   1.418 -0.5343 -0.4901 -0.0799
24311SOL    HW276336   8.184   1.020   1.397 -0.8028  0.3123  0.6689
24312SOL     OW76337   7.722   2.346   1.945  0.0239 -0.4733  0.9027
24312SOL    HW176338   7.631   2.374   1.947  0.0087  0.2671 -3.0521
24312SOL    HW276339   7.720   2.262   1.900  1.3150 -0.2967  0.4748
24313SOL     OW76340   1.218   9.647   1.894 -0.2624  0.2236  0.1531
24313SOL    HW176341   1.214   9.590   1.971  1.1376  2.0681  1.6830
24313SOL    HW276342   1.269   9.722   1.922 -1.1294  1.7745 -2.1086
24314SOL     OW76343   2.047   0.919   5.663 -0.5198 -0.2220 -0.4564
24314SOL    HW176344   1.989   0.874   5.725 -0.1633 -1.3999 -0.9500
24314SOL    HW276345   1.989   0.972   5.610 -0.8888  0.4084  0.5436
24315SOL     OW76346   9.758   8.279   1.617 -0.4252 -0.2949  1.0787
24315SOL    HW176347   9.774   8.185   1.608  1.6459 -0.2571  3.2536
24315SOL    HW276348   9.668   8.291   1.589  0.2557 -2.3409 -2.5412
24316SOL     OW76349  10.183   5.814   8.760  0.3968 -0.4322 -0.1387
24316SOL    HW176350  10.168   5.883   8.825  0.5787  0.9776 -1.5397
24316SOL    HW276351  10.144   5.736   8.800 -1.2174  0.7982  0.8675
24317SOL     OW76352   1.163   6.366   9.860 -0.1661  0.0920 -0.2318
24317SOL    HW176353   1.128   6.393   9.945  0.3012 -3.1033  1.1072
24317SOL    HW276354   1.087   6.338   9.810 -0.2967  0.6011 -0.3206
24318SOL     OW76355   1.393   1.105  10.623  0.0280 -0.2163 -0.0056
24318SOL    HW176356   1.373   1.013  10.605  1.1387 -0.2186 -1.4886
24318SOL    HW276357   1.465   1.125  10.563 -0.2882  1.6646  0.1945
24319SOL     OW76358   7.282   8.938   8.915  0.3697  0.0182  0.4940
24319SOL    HW176359   7.289   8.864   8.976  1.1995 -1.1486 -0.9411
24319SOL    HW276360   7.346   9.001   8.946 -0.2112  0.0795  1.6331
24320SOL     OW76361   5.803   2.598   7.607  0.1533  0.2260  0.3593
24320SOL    HW176362   5.793   2.658   7.533  0.0428  0.8521  0.8710
24320SOL    HW276363   5.714   2.567   7.625  0.0786  0.6351  0.6905
24321SOL     OW76364   2.198   0.038   6.612  0.4821  0.0955 -0.2229
24321SOL    HW176365   2.217   0.131   6.628  3.0316 -0.3497 -0.2683
24321SOL    HW276366   2.284  -0.002   6.600 -0.5742 -2.2630 -0.3800
24322SOL     OW76367  10.446   9.376   8.966 -0.3746 -0.2789 -1.1803
24322SOL    HW176368  10.472   9.316   9.037 -1.4909  2.0654  1.4010
24322SOL    HW276369  10.494   9.457   8.985  0.6356 -0.0577 -4.2091
24323SOL     OW76370   0.228   4.218   0.243  0.0417  0.3560 -0.0211
24323SOL    HW176371   0.190   4.239   0.328  0.7678 -0.7779  0.6163
24323SOL    HW276372   0.171   4.150   0.207 -0.2406  0.8038 -0.4193
24324SOL     OW76373   2.761   0.788   3.773 -0.1517 -0.3006  0.0913
24324SOL    HW176374   2.731   0.767   3.861 -1.6359  0.0107 -0.3139
24324SOL    HW276375   2.754   0.883   3.767  2.6243  0.0035  0.5395
24325SOL     OW76376   8.321   3.291   3.069  0.2823  0.3347 -0.0580
24325SOL    HW176377   8.272   3.257   3.144  0.1577 -0.2759 -0.4082
24325SOL    HW276378   8.403   3.241   3.069 -0.1332 -0.3719 -0.8965
24326SOL     OW76379   8.217   1.211   5.006  0.3660 -0.1752 -0.5922
24326SOL    HW176380   8.220   1.181   5.097  2.7881 -0.1889 -0.6030
24326SOL    HW276381   8.258   1.140   4.956 -0.5831  0.0047 -1.6592
24327SOL     OW76382   3.982   4.968  10.837 -0.3084  0.5872 -0.1968
24327SOL    HW176383   3.998   4.938  10.927 -1.5281  0.5369  0.0229
24327SOL    HW276384   4.061   4.944  10.789  0.6236  1.1779  0.9977
24328SOL     OW76385   9.320   8.039   2.887 -0.1094 -0.5074  0.7403
24328SOL    HW176386   9.325   8.131   2.861 -0.1736 -0.5085  0.7221
24328SOL    HW276387   9.307   8.042   2.982 -0.4226 -0.4893  0.7010
24329SOL     OW76388   2.926   6.628   3.165 -0.3807  0.1333 -0.0975
24329SOL    HW176389   2.847   6.636   3.219 -1.9924 -1.2538 -2.0607
24329SOL    HW276390   2.912   6.548   3.114  1.5379  0.7534 -1.7334
24330SOL     OW76391   1.359   5.901  10.838  0.6217  0.0459 -0.2673
24330SOL    HW176392   1.424   5.854  10.891  0.2054  0.5925  0.7608
24330SOL    HW276393   1.298   5.833  10.810 -0.7062  0.0748  2.2864
24331SOL     OW76394   4.027   6.671   8.091 -0.1851  0.4372 -0.1384
24331SOL    HW176395   4.096   6.734   8.112 -0.0750 -0.3412  2.1025
24331SOL    HW276396   4.014   6.680   7.997  2.2328  1.3383 -0.4459
24332SOL     OW76397   7.238   8.303   9.223  0.1997  0.9010  0.1174
24332SOL    HW176398   7.243   8.359   9.301 -1.0094  2.1667 -0.6533
24332SOL    HW276399   7.328   8.294   9.194  0.7703 -0.3191  2.1296
24333SOL     OW76400   8.614   6.915   2.443 -0.2709  0.0571  0.1648
24333SOL    HW176401   8.623   6.987   2.505 -0.2487 -0.5190  0.8506
24333SOL    HW276402   8.638   6.952   2.358 -1.7467  1.2386  0.2482
24334SOL     OW76403   4.180   8.081   5.487 -0.6066 -0.3300 -0.7661
24334SOL    HW176404   4.267   8.109   5.459 -0.7567  0.0233 -0.8819
24334SOL    HW276405   4.121   8.149   5.455 -0.7975  0.0275  0.3098
24335SOL     OW76406   1.795   9.286  10.064  0.4545 -0.3638 -0.0941
24335SOL    HW176407   1.778   9.239   9.982  0.2858 -1.3697  0.5031
24335SOL    HW276408   1.713   9.281  10.113  0.5267  0.3135  0.1098
24336SOL     OW76409   0.408   0.505   4.229  0.4862  0.0877 -0.6105
24336SOL    HW176410   0.410   0.414   4.257  0.5756  0.2658 -0.0254
24336SOL    HW276411   0.496   0.538   4.244  0.2761  0.4607 -0.1574
24337SOL     OW76412   2.956   0.272   0.856  0.0099 -0.1482  0.0506
24337SOL    HW176413   3.012   0.254   0.781  0.7090  0.6700  0.3693
24337SOL    HW276414   3.012   0.258   0.933 -0.9829 -2.0457  0.5044
24338SOL     OW76415   4.064   8.108   6.934 -0.4757 -0.1129 -0.3184
24338SOL    HW176416   4.122   8.172   6.894 -0.8123 -0.5923 -1.6209
24338SOL    HW276417   3.976   8.136   6.908 -0.7057 -0.4389  0.0892
24339SOL     OW76418   7.913  10.054   6.726 -0.0494  0.7082 -0.0523
24339SOL    HW176419   7.921  10.114   6.652 -2.1515  1.0584 -0.0785
24339SOL    HW276420   7.878  10.109   6.797 -3.4705 -0.6450 -0.5010
24340SOL     OW76421   0.061   9.926   7.740 -0.0555 -0.0095 -0.0685
24340SOL    HW176422  -0.019   9.932   7.792  0.2964  1.3324  0.3439
24340SOL    HW276423   0.130   9.907   7.804  0.1637  0.2169 -0.2375
24341SOL     OW76424   6.931   2.687   6.223  0.1172 -0.0346 -0.3145
24341SOL    HW176425   6.863   2.658   6.285  0.5655  1.0095  0.7090
24341SOL    HW276426   7.009   2.637   6.249 -0.1779 -1.0667 -1.3456
24342SOL     OW76427   4.894   4.409   4.129 -0.2097  0.4577 -0.2821
24342SOL    HW176428   4.968   4.430   4.073 -0.4602 -0.8780 -1.1484
24342SOL    HW276429   4.838   4.487   4.126  0.7259  1.1415 -0.3018
24343SOL     OW76430   5.419   6.377   5.604 -0.4453 -0.5933  0.1671
24343SOL    HW176431   5.432   6.327   5.524 -1.4302  1.2999 -1.2441
24343SOL    HW276432   5.472   6.331   5.669  1.6340 -1.3284 -1.8970
24344SOL     OW76433   2.050  10.167  10.828 -0.3976 -0.3614  0.0642
24344SOL    HW176434   2.043  10.214  10.745  1.2995 -0.5783 -0.2465
24344SOL    HW276435   2.036  10.075  10.805  1.5851 -0.6155 -0.3004
24345SOL     OW76436   7.582   7.236   2.473 -0.0365 -0.6568 -0.5697
24345SOL    HW176437   7.671   7.258   2.498 -0.0345 -0.0758 -1.0641
24345SOL    HW276438   7.527   7.289   2.530 -0.0954 -1.7353  0.4066
24346SOL     OW76439   8.698  10.350   7.510 -0.4978  0.4977  0.4374
24346SOL    HW176440   8.740  10.359   7.596  0.7424 -2.6984  0.3031
24346SOL    HW276441   8.606  10.334   7.530 -0.4392  0.9626  1.1084
24347SOL     OW76442   6.452   9.271   9.375 -0.3139  0.0637 -0.5167
24347SOL    HW176443   6.504   9.289   9.297 -0.4606  2.3673 -0.1536
24347SOL    HW276444   6.382   9.213   9.344  1.4926 -1.8394 -1.3213
24348SOL     OW76445   7.279   5.222   7.034  0.0545 -0.1522  0.2028
24348SOL    HW176446   7.275   5.264   6.948 -0.1507 -0.8575 -0.1361
24348SOL    HW276447   7.196   5.245   7.076 -0.5372 -1.1212 -0.4109
24349SOL     OW76448   6.448   5.797   0.534 -1.1289  0.7823 -0.6027
24349SOL    HW176449   6.482   5.818   0.447  0.2351 -0.1118 -0.3232
24349SOL    HW276450   6.439   5.881   0.578 -1.2520  1.1912 -1.3990
24350SOL     OW76451  10.150   2.254   9.181  0.1063 -0.0026 -0.2620
24350SOL    HW176452  10.142   2.276   9.274  1.6800  0.0308 -0.1111
24350SOL    HW276453  10.238   2.217   9.173  0.9857  2.2192 -2.1488
24351SOL     OW76454   9.437  10.798   7.408 -0.2989  0.0514  0.1676
24351SOL    HW176455   9.388  10.861   7.462  1.2590  1.0092  0.5252
24351SOL    HW276456   9.498  10.757   7.469  0.1157 -0.3061 -0.4762
24352SOL     OW76457   6.178   7.729   1.654 -0.1880  0.1690  0.3637
24352SOL    HW176458   6.108   7.669   1.680  0.6691 -0.8585  0.3527
24352SOL    HW276459   6.140   7.780   1.582 -1.3907  0.6142  1.2685
24353SOL     OW76460   1.139   9.527   0.623  0.5522 -0.3170 -0.3619
24353SOL    HW176461   1.105   9.609   0.659 -1.7802 -0.1160 -2.6696
24353SOL    HW276462   1.097   9.459   0.675  1.0808 -0.0714  0.4057
24354SOL     OW76463   7.005   6.888   4.306 -0.3032 -0.0588 -0.3350
24354SOL    HW176464   6.940   6.819   4.320  0.4316 -0.4862  1.2264
24354SOL    HW276465   6.970   6.940   4.234 -3.5640  1.1490  1.9023
24355SOL     OW76466   4.384  10.442   0.621  0.2554 -0.0601  0.4835
24355SOL    HW176467   4.398  10.424   0.529 -0.0715 -3.0988  0.9358
24355SOL    HW276468   4.374  10.356   0.662  0.0511  1.1785  3.3115
24356SOL     OW76469   0.953   7.935  10.338 -0.5553 -0.6961 -0.6436
24356SOL    HW176470   0.969   7.923  10.245  0.1997  0.6718 -0.7239
24356SOL    HW276471   0.912   8.022  10.344  1.4700  0.2502  0.4573
24357SOL     OW76472   8.212   1.361   7.182 -0.3087 -0.4187 -0.3171
24357SOL    HW176473   8.178   1.321   7.262 -0.6954 -1.2878 -0.8981
24357SOL    HW276474   8.231   1.286   7.124  1.3398  0.0973 -0.5097
24358SOL     OW76475   4.322   7.600   2.833 -0.0161  0.1122 -0.0366
24358SOL    HW176476   4.287   7.628   2.918  1.2884 -0.2861  0.6651
24358SOL    HW276477   4.261   7.635   2.769 -0.8111  0.7735  1.0471
24359SOL     OW76478   3.901   4.278   8.887 -0.0535  0.2661 -0.1750
24359SOL    HW176479   3.827   4.334   8.909 -0.4791 -0.0314 -0.8203
24359SOL    HW276480   3.965   4.293   8.957  0.1511  2.0906 -0.7209
24360SOL     OW76481   8.002   4.894   4.200  0.0131 -0.0775  0.2491
24360SOL    HW176482   8.004   4.978   4.154 -0.4904  0.3816  1.0469
24360SOL    HW276483   8.025   4.830   4.133 -0.3209  0.6143 -0.5496
24361SOL     OW76484   7.765   9.610   0.931 -0.2345 -0.6284 -0.0092
24361SOL    HW176485   7.797   9.614   1.021 -0.7933  0.8572  0.1538
24361SOL    HW276486   7.699   9.679   0.926 -0.6920 -1.1298 -1.3795
24362SOL     OW76487   7.119   2.818   8.417 -0.1794 -0.3391 -0.0466
24362SOL    HW176488   7.087   2.800   8.329  2.2257  0.4317 -1.1659
24362SOL    HW276489   7.131   2.913   8.419 -0.3443 -0.3285  1.1876
24363SOL     OW76490   7.515   6.543   2.185  0.3368 -0.2482 -0.0675
24363SOL    HW176491   7.595   6.581   2.220  0.8771 -1.3016 -0.1168
24363SOL    HW276492   7.453   6.546   2.258  0.8439 -0.6217  0.3906
24364SOL     OW76493   1.480   7.566   0.060 -0.4600  0.2580  0.4958
24364SOL    HW176494   1.522   7.504   0.000  0.1920  2.0482 -1.0002
24364SOL    HW276495   1.526   7.554   0.143 -1.7596 -2.6868  0.9261
24365SOL     OW76496   5.943   1.105   0.136 -0.1484 -0.0022 -0.0851
24365SOL    HW176497   6.010   1.161   0.097  1.3798 -0.3019  1.9931
24365SOL    HW276498   5.923   1.145   0.220  0.0330 -1.8147  0.8787
24366SOL     OW76499   6.361   7.242   0.767 -0.2183 -0.2064  0.2302
24366SOL    HW176500   6.454   7.244   0.742 -0.8415 -2.0247 -2.8407
24366SOL    HW276501   6.356   7.176   0.836  0.6085 -1.3127 -0.7296
24367SOL     OW76502   1.028   2.722  10.047  0.1769 -0.7150 -0.5741
24367SOL    HW176503   0.943   2.752  10.014 -0.9626 -1.0820  1.8122
24367SOL    HW276504   1.092   2.776  10.001 -1.4651  1.1972 -0.7597
24368SOL     OW76505   4.541   7.556   9.615  0.1015 -0.1092 -0.0314
24368SOL    HW176506   4.574   7.646   9.605  0.9797 -0.5975 -1.9682
24368SOL    HW276507   4.618   7.504   9.636 -0.2164 -0.5905 -0.0434
24369SOL     OW76508  10.001   5.323   7.786  0.0839 -0.5217 -0.1981
24369SOL    HW176509  10.037   5.410   7.772 -0.8935 -0.3698 -2.0873
24369SOL    HW276510   9.907   5.337   7.797 -0.5358 -1.4430 -3.2846
24370SOL     OW76511   0.837   8.082   4.538 -0.0930  0.1223 -0.2770
24370SOL    HW176512   0.805   7.999   4.573 -1.8981  0.0401 -1.9810
24370SOL    HW276513   0.930   8.084   4.564 -0.0097 -2.3747 -0.1228
24371SOL     OW76514   0.695   1.597   7.280 -0.1564 -0.1229 -0.1821
24371SOL    HW176515   0.763   1.533   7.256  0.3731  0.7182 -1.0018
24371SOL    HW276516   0.660   1.564   7.362  0.7593 -0.9670 -0.1002
24372SOL     OW76517   8.685   0.832   8.331 -0.0943 -0.0939  0.6846
24372SOL    HW176518   8.596   0.797   8.323  0.0966 -0.3179 -0.6129
24372SOL    HW276519   8.673   0.926   8.346 -0.5780  0.5013 -2.7158
24373SOL     OW76520   6.580   2.114   9.970 -0.6985  0.0017  0.0771
24373SOL    HW176521   6.597   2.143  10.060 -0.1260 -0.2429  0.0524
24373SOL    HW276522   6.541   2.027   9.980 -2.1055  0.6038  0.1380
24374SOL     OW76523   0.226  10.730   4.128  0.0889 -0.2041  0.6932
24374SOL    HW176524   0.243  10.758   4.038 -3.3199  1.3914  0.4290
24374SOL    HW276525   0.285  10.783   4.181 -0.6441  1.7460 -0.3636
24375SOL     OW76526   4.593   1.652   2.128 -0.6161  0.5395  0.5717
24375SOL    HW176527   4.552   1.664   2.214  0.6978  1.3710  1.1112
24375SOL    HW276528   4.661   1.719   2.124 -0.2660  0.1415 -0.8972
24376SOL     OW76529   5.660   0.130   1.657 -0.3397 -0.2422  0.0669
24376SOL    HW176530   5.605   0.115   1.733 -0.3853  2.4826  0.6729
24376SOL    HW276531   5.598   0.140   1.584 -0.5221  0.5038  0.3177
24377SOL     OW76532   2.290   9.911   7.670 -0.3229 -0.7589  0.0517
24377SOL    HW176533   2.254   9.828   7.701 -1.6835  0.6007  2.4591
24377SOL    HW276534   2.372   9.922   7.719 -1.2072  0.2287  1.3864
24378SOL     OW76535   5.473   2.040   5.253 -0.0387 -0.7317 -0.3910
24378SOL    HW176536   5.417   2.092   5.311  1.1198  1.5355 -1.1826
24378SOL    HW276537   5.482   1.956   5.298 -0.0837  0.5454  2.1914
24379SOL     OW76538   3.821   1.133  10.430  0.2086 -0.1903  0.1783
24379SOL    HW176539   3.812   1.164  10.340  1.6275  1.4986  0.5625
24379SOL    HW276540   3.864   1.205  10.476 -1.0631 -0.7602  2.3797
24380SOL     OW76541   0.262   6.236   7.274  0.1600  0.0560  0.0036
24380SOL    HW176542   0.292   6.205   7.189 -0.4223  1.2263 -0.6563
24380SOL    HW276543   0.338   6.278   7.313  0.8368 -1.7265  0.7241
24381SOL     OW76544   0.192   7.950   9.622 -1.3500 -0.0691 -0.1704
24381SOL    HW176545   0.161   7.947   9.713 -0.4958  0.9312  0.1767
24381SOL    HW276546   0.271   7.895   9.623 -2.1022 -1.1780 -0.6389
24382SOL     OW76547   9.202   2.417   2.765 -0.0438 -0.2025 -0.6583
24382SOL    HW176548   9.209   2.377   2.852  0.9373 -2.3633 -1.6402
24382SOL    HW276549   9.109   2.407   2.741  0.2323 -2.4269 -1.0296
24383SOL     OW76550   2.908   5.003   1.811 -0.0146  0.1634 -0.0977
24383SOL    HW176551   2.833   5.047   1.771 -0.5259 -0.9372 -0.3798
24383SOL    HW276552   2.981   5.023   1.753 -0.3659  0.1233 -0.5647
24384SOL     OW76553   3.143   9.766   9.467  0.0485  0.1363  0.2118
24384SOL    HW176554   3.197   9.697   9.428 -1.2050 -1.2553  0.8258
24384SOL    HW276555   3.164   9.845   9.417  1.1724 -0.7835 -0.8236
24385SOL     OW76556   0.219   8.644   9.069 -0.1583 -0.1754  0.0351
24385SOL    HW176557   0.206   8.647   8.974 -1.8497  1.2806  0.2608
24385SOL    HW276558   0.213   8.551   9.091  1.9974 -0.7496 -1.4365
24386SOL     OW76559   6.747   9.496   3.365  0.0895  0.0793  0.3334
24386SOL    HW176560   6.794   9.490   3.282  0.4833  1.5031  0.4318
24386SOL    HW276561   6.749   9.589   3.387 -0.7894 -0.1558  1.4951
24387SOL     OW76562   7.880   3.244   8.339  0.3617 -0.0923  0.3297
24387SOL    HW176563   7.935   3.250   8.417 -0.5836  2.2162  0.8790
24387SOL    HW276564   7.791   3.246   8.372 -0.1159 -2.0780 -0.6743
24388SOL     OW76565   4.930   4.895   8.276  0.1248 -0.6884 -0.1570
24388SOL    HW176566   4.882   4.954   8.334  3.0895  0.0197  1.7755
24388SOL    HW276567   4.891   4.809   8.291 -2.7343  0.2804 -1.2959
24389SOL     OW76568   8.902  10.369  10.101 -0.2660 -0.0905  0.3870
24389SOL    HW176569   8.854  10.450  10.083  0.5923  0.2822 -0.2727
24389SOL    HW276570   8.860  10.304  10.045 -1.3204 -0.2450  1.3298
24390SOL     OW76571   7.332   6.098   3.153  0.0236 -0.0914 -0.3046
24390SOL    HW176572   7.418   6.063   3.177  0.5119  1.0040 -0.3862
24390SOL    HW276573   7.336   6.110   3.058 -0.2407 -0.0935 -0.3164
24391SOL     OW76574   4.901   0.021   0.263  0.0263  0.4673  0.3306
24391SOL    HW176575   4.946   0.067   0.192  0.6234  0.7468  0.8881
24391SOL    HW276576   4.883   0.088   0.328 -0.7706  0.2633  0.3351
24392SOL     OW76577   4.162   3.933   5.999 -0.3672 -0.1652 -0.1732
24392SOL    HW176578   4.240   3.982   6.026  0.1279 -0.8755 -0.2668
24392SOL    HW276579   4.097   4.000   5.980  0.8319  0.5664 -2.0015
24393SOL     OW76580   0.378   0.455   2.851 -0.8902  0.5647 -0.0149
24393SOL    HW176581   0.391   0.363   2.830 -0.6211  1.1759 -3.1453
24393SOL    HW276582   0.432   0.471   2.928  1.8840 -1.1573 -1.4570
24394SOL     OW76583   9.392   8.698   0.043 -0.0726 -0.3349  0.2505
24394SOL    HW176584   9.442   8.774   0.014  0.3578 -1.3212 -1.7415
24394SOL    HW276585   9.427   8.679   0.130  2.0116 -0.1002 -0.4694
24395SOL     OW76586   6.087   6.137   9.202  0.1495 -0.3285  0.4894
24395SOL    HW176587   6.082   6.214   9.146 -1.5372 -1.0129 -0.3728
24395SOL    HW276588   6.070   6.171   9.290  0.1748  0.3922  0.2267
24396SOL     OW76589   7.300   7.080   4.977 -0.2434 -0.1593  0.0930
24396SOL    HW176590   7.290   7.092   5.071 -3.1210  1.5447 -0.3189
24396SOL    HW276591   7.350   7.156   4.948 -1.6747  0.7812 -0.0260
24397SOL     OW76592   0.644   3.226   5.840 -0.0697 -0.0907  0.3933
24397SOL    HW176593   0.565   3.175   5.858  0.3049 -0.2812  1.5783
24397SOL    HW276594   0.697   3.218   5.920  1.5792 -0.7563 -0.6969
24398SOL     OW76595   3.383   4.965   3.064 -0.5687 -0.1084 -0.0250
24398SOL    HW176596   3.378   5.011   2.980  1.0653  1.1286  0.5190
24398SOL    HW276597   3.448   5.013   3.114 -0.8560 -1.3730  1.6364
24399SOL     OW76598   8.211   3.770   2.429  0.0108 -0.4289  0.6073
24399SOL    HW176599   8.300   3.738   2.444  0.2885  0.3056  0.5885
24399SOL    HW276600   8.164   3.748   2.509  0.9947  1.8044  1.9045
24400SOL     OW76601   1.809   4.247   1.919  0.3804  0.3436  0.3189
24400SOL    HW176602   1.758   4.183   1.869 -1.4622  2.0668 -0.1517
24400SOL    HW276603   1.879   4.273   1.860  1.4755 -1.5419  0.7049
24401SOL     OW76604   4.369   8.939   8.811  0.5372  0.2664  0.0740
24401SOL    HW176605   4.377   8.850   8.847 -1.2697 -0.3002 -0.7921
24401SOL    HW276606   4.305   8.982   8.868  0.4321  0.5921 -0.2892
24402SOL     OW76607   1.336   6.670   6.545 -0.0577 -0.0618 -0.0849
24402SOL    HW176608   1.310   6.624   6.464  0.0182 -2.2956  1.0755
24402SOL    HW276609   1.266   6.733   6.559  0.2751  0.8865 -2.2332
24403SOL     OW76610   9.730   3.677   3.685 -0.7329  0.1353 -0.0974
24403SOL    HW176611   9.801   3.725   3.727 -0.3281 -0.1836 -0.4034
24403SOL    HW276612   9.707   3.730   3.608 -1.0268  0.3848  0.1599
24404SOL     OW76613   6.189   2.503   2.133 -0.3584 -0.4687  0.0725
24404SOL    HW176614   6.171   2.427   2.189 -1.8186  0.6320  1.1934
24404SOL    HW276615   6.108   2.554   2.135  1.2149  2.2290  1.1412
24405SOL     OW76616   7.013   3.599   0.138 -0.5058  0.1564  0.3149
24405SOL    HW176617   6.988   3.516   0.096 -0.3984 -0.6403  1.7552
24405SOL    HW276618   7.092   3.626   0.091 -0.2313 -0.8479  0.1661
24406SOL     OW76619   9.925   4.965  10.149 -0.1427 -0.2537  0.3592
24406SOL    HW176620   9.834   4.950  10.126  0.3232 -2.7758 -0.1262
24406SOL    HW276621   9.971   4.886  10.120  2.1001  0.6730  1.1384
24407SOL     OW76622   6.635   9.136   4.523 -0.4052 -0.1693 -0.0199
24407SOL    HW176623   6.689   9.084   4.582 -1.9855 -0.6386  1.0462
24407SOL    HW276624   6.676   9.124   4.437  1.6361  0.1285  0.8500
24408SOL     OW76625   0.718   6.979   2.011 -0.4093 -0.4166 -0.0572
24408SOL    HW176626   0.748   7.013   1.927  0.8937 -1.9945 -0.2863
24408SOL    HW276627   0.797   6.979   2.066 -1.1022 -0.0307  0.9782
24409SOL     OW76628   5.274   2.500   1.261 -0.4658 -1.3151  0.0213
24409SOL    HW176629   5.332   2.456   1.200  2.8558  0.6323  1.5255
24409SOL    HW276630   5.247   2.580   1.216  4.2805  1.6269  1.6363
24410SOL     OW76631  10.151   2.462   8.091  0.2826 -0.4202  0.3000
24410SOL    HW176632  10.123   2.531   8.031  0.0634  0.0227  0.8998
24410SOL    HW276633  10.188   2.394   8.035  0.1667  0.0296 -0.3232
24411SOL     OW76634   7.588   2.331   5.740 -0.0478 -0.0689  0.3619
24411SOL    HW176635   7.508   2.313   5.692 -0.5707  2.7032  0.0282
24411SOL    HW276636   7.616   2.246   5.773 -1.9872 -1.4177 -1.2361
24412SOL     OW76637   0.127   4.890   4.487 -0.6617 -0.0125 -0.4044
24412SOL    HW176638   0.065   4.839   4.434  0.6612 -0.1076 -1.9360
24412SOL    HW276639   0.098   4.981   4.477 -0.2933 -0.0042 -1.5224
24413SOL     OW76640   8.231   1.541   0.571  0.1607 -0.0071 -0.7607
24413SOL    HW176641   8.151   1.589   0.549 -0.0664 -0.4871 -1.0113
24413SOL    HW276642   8.224   1.525   0.665  0.5604  1.0248 -0.5439
24414SOL     OW76643   2.156   8.284   5.682 -0.8113 -0.1061  0.2320
24414SOL    HW176644   2.149   8.374   5.715  2.1635 -0.1183  1.1625
24414SOL    HW276645   2.237   8.251   5.720 -0.6465 -2.4327 -1.9236
24415SOL     OW76646   6.803   2.483   1.723 -0.7987  0.1086 -0.3087
24415SOL    HW176647   6.796   2.532   1.806 -0.6893  2.8434 -1.7998
24415SOL    HW276648   6.713   2.464   1.699 -0.8077 -1.3150  0.7165
24416SOL     OW76649   0.525   8.758   3.825  0.3278  0.5020 -0.4507
24416SOL    HW176650   0.489   8.840   3.791 -0.3157  1.5473  2.4420
24416SOL    HW276651   0.488   8.690   3.768  0.0664  2.0964 -2.3095
24417SOL     OW76652   7.000   3.012   4.634  0.4550  0.2677  0.0729
24417SOL    HW176653   7.054   3.073   4.684  0.5987  0.2829 -0.0995
24417SOL    HW276654   6.989   3.054   4.548  2.5554 -0.9882 -0.9054
24418SOL     OW76655   1.588   9.008   6.113  0.1408 -0.7023  0.4334
24418SOL    HW176656   1.683   9.004   6.118  0.3598 -0.6077 -2.1425
24418SOL    HW276657   1.568   9.102   6.108  0.0889 -0.7717 -0.8991
24419SOL     OW76658  10.706   3.207  10.000 -0.4530 -0.7993 -0.4341
24419SOL    HW176659  10.668   3.259   9.928  1.0218  0.3150 -0.4595
24419SOL    HW276660  10.669   3.120   9.988 -1.7036 -0.1778 -1.4139
24420SOL     OW76661   8.553   3.197   9.325 -0.3967 -0.0429  0.7224
24420SOL    HW176662   8.642   3.200   9.290 -0.1768 -0.1062  1.2604
24420SOL    HW276663   8.497   3.216   9.250  0.0968  0.5434  0.4882
24421SOL     OW76664   0.210   3.022   9.092 -0.3299 -0.0140  0.2294
24421SOL    HW176665   0.183   3.104   9.052 -0.2272  0.4280  1.0448
24421SOL    HW276666   0.305   3.032   9.106 -0.6023  0.4497  1.9361
24422SOL     OW76667   0.554   8.921   2.337 -0.4741 -0.5286  0.5515
24422SOL    HW176668   0.596   8.845   2.377  1.1283 -0.0102 -0.0757
24422SOL    HW276669   0.494   8.884   2.272  0.8590 -1.2685 -0.3026
24423SOL     OW76670   1.170   0.292   5.130  0.3617 -0.2157  0.3460
24423SOL    HW176671   1.245   0.251   5.087 -0.4023 -1.0219 -0.2647
24423SOL    HW276672   1.126   0.340   5.060  1.0582  1.4297  0.9824
24424SOL     OW76673   3.558   8.067   1.370 -0.1146 -0.2937  0.1902
24424SOL    HW176674   3.529   8.093   1.457  0.4902  0.0549  0.2991
24424SOL    HW276675   3.653   8.083   1.371 -0.1068 -0.2486 -0.5400
24425SOL     OW76676   3.096   5.089   8.610  0.1555 -0.1795 -0.2521
24425SOL    HW176677   3.041   5.158   8.574  1.0105  0.1870 -0.8934
24425SOL    HW276678   3.162   5.074   8.543  1.6100  0.3083  1.0154
24426SOL     OW76679   0.792   4.700   9.812  0.2464  0.6554 -0.3582
24426SOL    HW176680   0.829   4.758   9.746  0.3120  0.4202 -0.5271
24426SOL    HW276681   0.841   4.619   9.804  0.1492  0.5721 -0.1263
24427SOL     OW76682   7.268   0.667   9.307  0.4579  0.2574  0.1550
24427SOL    HW176683   7.363   0.661   9.317  0.6085  0.0741 -1.1915
24427SOL    HW276684   7.251   0.636   9.218 -0.9164 -0.1257  0.5186
24428SOL     OW76685   3.571   2.489   5.424  0.3468  0.0115  0.0251
24428SOL    HW176686   3.590   2.501   5.331  0.8420  1.5838  0.2910
24428SOL    HW276687   3.476   2.498   5.430  0.5445  3.5569  0.0340
24429SOL     OW76688   8.476   9.255   5.549 -0.1716 -0.0242  0.3226
24429SOL    HW176689   8.515   9.328   5.597 -1.1697  0.6031  0.2156
24429SOL    HW276690   8.403   9.294   5.501  0.5777 -0.7082 -1.4398
24430SOL     OW76691  10.804   5.717   0.012  0.0516 -0.4625 -0.0714
24430SOL    HW176692  10.748   5.772  -0.043  2.2016  1.3201 -0.5886
24430SOL    HW276693  10.887   5.712  -0.036  1.3841 -0.3945  2.1244
24431SOL     OW76694   3.591   4.882   5.450  0.0447 -0.0315 -0.0885
24431SOL    HW176695   3.547   4.836   5.522 -4.1836  1.7347 -1.2201
24431SOL    HW276696   3.596   4.817   5.380  3.3869 -1.4972  1.3083
24432SOL     OW76697   4.708   1.512   8.153 -0.5792 -0.1612  0.4496
24432SOL    HW176698   4.624   1.478   8.183 -1.2245  1.7484  1.0103
24432SOL    HW276699   4.693   1.538   8.062 -0.1711 -1.0800  0.1088
24433SOL     OW76700   3.067   6.041   8.499 -0.0821  0.3304 -0.2647
24433SOL    HW176701   3.099   6.061   8.411 -0.7139  0.4467 -0.4705
24433SOL    HW276702   2.995   6.103   8.513 -1.5585 -1.2451 -0.6018
24434SOL     OW76703   4.158   0.974   9.265 -0.2221 -0.3197  0.3222
24434SOL    HW176704   4.192   1.060   9.241 -1.0325  0.0426  0.4431
24434SOL    HW276705   4.121   0.986   9.353  0.0432 -0.9014  0.5215
24435SOL     OW76706   8.327   3.035   1.164  0.7011 -0.0857 -0.1706
24435SOL    HW176707   8.359   2.948   1.139 -0.6464 -1.1257  1.5256
24435SOL    HW276708   8.385   3.063   1.234  0.0970 -0.4354  0.4926
24436SOL     OW76709   3.438   0.910   4.807 -0.5053 -0.1744  0.5814
24436SOL    HW176710   3.386   0.943   4.734 -0.7810 -0.3203  0.7112
24436SOL    HW276711   3.482   0.988   4.842 -0.3359 -0.1126  0.2335
24437SOL     OW76712   0.259   2.841   9.328  0.0835  0.0005 -0.8615
24437SOL    HW176713   0.353   2.863   9.334 -0.0001  0.0857  0.8908
24437SOL    HW276714   0.221   2.882   9.406 -1.2554 -0.8434 -1.0494
24438SOL     OW76715   1.925   7.448  10.727  0.3801 -0.0836 -0.4508
24438SOL    HW176716   1.944   7.362  10.764  0.8807 -0.1798 -0.9155
24438SOL    HW276717   2.009   7.494  10.727 -0.3217  1.4159  2.2460
24439SOL     OW76718   6.609   9.200   5.784 -0.5263 -0.5362 -0.2724
24439SOL    HW176719   6.650   9.257   5.848  0.1615 -0.1763 -1.0080
24439SOL    HW276720   6.524   9.179   5.821 -0.7202  0.8165  0.1030
24440SOL     OW76721   4.892  10.767   7.739  0.4001 -0.9223 -0.1327
24440SOL    HW176722   4.801  10.753   7.712  0.5900 -0.2471 -1.1629
24440SOL    HW276723   4.890  10.848   7.790  0.7479  0.4031 -2.1117
24441SOL     OW76724   5.570   0.490   5.762 -0.2228 -0.3728  0.2094
24441SOL    HW176725   5.543   0.401   5.786 -1.3901 -0.2780 -0.6791
24441SOL    HW276726   5.529   0.505   5.677 -0.3991  1.1868  0.5528
24442SOL     OW76727   8.270   7.177   9.197 -0.4243 -0.8269 -0.6116
24442SOL    HW176728   8.178   7.168   9.221 -0.2341 -0.3740  0.3394
24442SOL    HW276729   8.313   7.207   9.277  0.4037 -0.1748 -1.2788
24443SOL     OW76730   8.041   0.901   9.773  0.8538  0.3838  0.6001
24443SOL    HW176731   8.059   0.904   9.679 -0.2797  0.6089  0.3722
24443SOL    HW276732   7.948   0.924   9.780  0.9911  0.6335  1.7977
24444SOL     OW76733   9.265   5.847   8.954  0.2849 -0.3608 -0.4204
24444SOL    HW176734   9.190   5.903   8.933  0.2704 -0.3971 -0.4660
24444SOL    HW276735   9.338   5.908   8.965  0.4962 -0.4108 -1.4748
24445SOL     OW76736   6.903   8.043   7.852 -0.3323 -0.1209  0.6447
24445SOL    HW176737   6.845   8.084   7.916 -0.8922 -1.6039  1.1472
24445SOL    HW276738   6.865   8.065   7.767 -0.9756 -0.1113  0.9256
24446SOL     OW76739   4.623  10.563   6.474  0.0162  0.2709  0.1548
24446SOL    HW176740   4.692  10.502   6.502 -1.2636 -0.6057  1.5527
24446SOL    HW276741   4.667  10.622   6.413  1.3131 -2.1562 -1.4416
24447SOL     OW76742   9.974   4.552   6.325  0.0507 -0.2368 -0.4252
24447SOL    HW176743   9.914   4.587   6.391  0.8211 -2.7151  1.7440
24447SOL    HW276744  10.012   4.630   6.284 -1.6680  1.3973  0.8779
24448SOL     OW76745   4.605   3.773   4.748 -0.4926 -0.5538  0.0324
24448SOL    HW176746   4.615   3.867   4.762 -1.2599 -0.5986  1.0018
24448SOL    HW276747   4.678   3.733   4.795 -0.0517 -0.4323 -0.5501
24449SOL     OW76748  10.005   2.041   1.394  0.7563  0.7174 -0.5986
24449SOL    HW176749  10.017   1.953   1.430 -0.1166  0.6090 -0.5534
24449SOL    HW276750  10.063   2.096   1.446  0.8234  0.2771 -0.1993
24450SOL     OW76751   4.699   3.708   7.015  0.0179  0.5630 -0.3043
24450SOL    HW176752   4.605   3.700   7.001 -0.0794 -0.0332  0.6008
24450SOL    HW276753   4.736   3.720   6.928 -0.8624  0.4508 -0.6996
24451SOL     OW76754   9.408   1.799   4.582 -0.1076  0.2301 -0.0744
24451SOL    HW176755   9.470   1.848   4.529 -0.5445  1.0645  0.1726
24451SOL    HW276756   9.326   1.804   4.533 -0.1665 -0.2228 -0.0276
24452SOL     OW76757   9.852   9.364   5.818  0.9023  0.0836 -0.2423
24452SOL    HW176758   9.764   9.326   5.817  0.6016  0.6324  1.5624
24452SOL    HW276759   9.888   9.344   5.732  0.4825 -3.6020  0.2682
24453SOL     OW76760  10.442   4.803   7.717 -0.2191 -0.2692  0.2131
24453SOL    HW176761  10.370   4.743   7.695 -0.9899 -0.1266  2.1356
24453SOL    HW276762  10.504   4.750   7.767  1.0658 -0.3950 -1.4499
24454SOL     OW76763   6.173   1.332   1.394  0.4572 -0.2876  0.5190
24454SOL    HW176764   6.130   1.254   1.429 -0.4378  0.3690  0.9353
24454SOL    HW276765   6.219   1.301   1.315  0.6468 -1.3448  1.0268
24455SOL     OW76766   3.916   1.220   8.842  0.2540 -0.8837 -0.2246
24455SOL    HW176767   3.928   1.235   8.936 -0.5231  0.5931 -0.3234
24455SOL    HW276768   3.843   1.158   8.837 -1.0797  0.5775  0.1648
24456SOL     OW76769   5.459   4.195   4.813 -0.0715  0.5337 -0.2384
24456SOL    HW176770   5.378   4.246   4.815 -0.1556  0.3945 -0.0323
24456SOL    HW276771   5.500   4.217   4.729 -1.8243 -1.6839 -1.8227
24457SOL     OW76772   0.186   5.004   3.757  0.1359 -0.4430  0.5337
24457SOL    HW176773   0.174   5.039   3.845 -1.2520  1.3468 -0.2954
24457SOL    HW276774   0.174   5.080   3.699 -0.4870 -1.8315 -1.2688
24458SOL     OW76775   3.872   7.544   5.447  0.0034 -0.2845 -0.1257
24458SOL    HW176776   3.787   7.537   5.402 -1.3277 -0.2788  2.2109
24458SOL    HW276777   3.860   7.495   5.529  2.5622 -0.9927 -0.0846
24459SOL     OW76778   9.046   8.535   9.760  0.2166 -0.3834 -0.6370
24459SOL    HW176779   9.140   8.526   9.780  0.3570 -2.0670 -1.8174
24459SOL    HW276780   9.002   8.490   9.832  0.5229 -2.5330 -1.6999
24460SOL     OW76781   2.243   7.197  10.548 -0.2552  0.2918 -0.0491
24460SOL    HW176782   2.218   7.216  10.639 -1.2346 -0.0465 -0.2399
24460SOL    HW276783   2.176   7.239  10.495  0.4148  0.6422 -0.6293
24461SOL     OW76784   3.762   0.422   1.205 -0.9167  0.0101 -0.3165
24461SOL    HW176785   3.794   0.340   1.242 -1.5773  0.2940  0.9640
24461SOL    HW276786   3.734   0.473   1.281 -0.3719  1.4902 -1.0661
24462SOL     OW76787   6.953   6.814   0.112 -0.2544 -0.1965 -0.4269
24462SOL    HW176788   6.913   6.829   0.198 -0.3676 -0.9325 -0.3383
24462SOL    HW276789   7.018   6.883   0.103 -0.2327 -0.1160  0.2633
24463SOL     OW76790  10.099   9.790   0.943  0.3608  0.3496 -0.2955
24463SOL    HW176791  10.127   9.729   0.875 -0.2420 -0.7343  0.3933
24463SOL    HW276792  10.074   9.734   1.016 -0.7748  1.3846  0.1523
24464SOL     OW76793   4.976   5.676   3.862 -0.7466  0.8851 -0.6504
24464SOL    HW176794   4.969   5.745   3.928  1.8897  0.2825  0.3536
24464SOL    HW276795   5.070   5.664   3.849 -1.1136 -2.0530 -1.3011
24465SOL     OW76796   3.247   1.501   2.084 -0.1602 -0.1168 -0.0465
24465SOL    HW176797   3.155   1.505   2.109 -0.5889 -1.2250 -1.3375
24465SOL    HW276798   3.255   1.568   2.015  0.0730  0.1756  0.2632
24466SOL     OW76799   1.155   5.118   8.762 -0.3074  0.1278 -0.3963
24466SOL    HW176800   1.202   5.040   8.792  1.0294  1.2517  0.5620
24466SOL    HW276801   1.074   5.118   8.812 -1.6026 -1.9857 -2.2619
24467SOL     OW76802   8.221   2.278   8.648  0.1084 -0.0844  0.3663
24467SOL    HW176803   8.193   2.298   8.738  0.5089 -0.7079  0.6404
24467SOL    HW276804   8.285   2.207   8.659 -0.5797 -0.8460 -0.4870
24468SOL     OW76805   7.917   4.509   1.313 -0.1627  0.2068  0.1776
24468SOL    HW176806   7.956   4.534   1.229 -1.2900  0.2319 -0.3595
24468SOL    HW276807   7.982   4.453   1.354 -0.1578 -0.9716 -1.3594
24469SOL     OW76808   2.388   8.295   5.258  0.7040 -0.3498 -0.0225
24469SOL    HW176809   2.329   8.236   5.212  0.7984 -1.2357  0.9443
24469SOL    HW276810   2.468   8.295   5.206 -0.1134  0.8462 -1.3319
24470SOL     OW76811  10.691   4.685   3.951 -0.2278  0.6472  0.2006
24470SOL    HW176812  10.745   4.648   3.882 -0.0546  2.2315 -0.5685
24470SOL    HW276813  10.638   4.612   3.983  0.7134 -0.4205 -0.6125
24471SOL     OW76814   1.761   8.300   5.304 -0.1230  0.5178 -0.3552
24471SOL    HW176815   1.671   8.307   5.336 -0.9311  1.3783 -2.6177
24471SOL    HW276816   1.777   8.384   5.260  1.3568 -0.0867 -1.0168
24472SOL     OW76817   8.505   4.304   7.957  0.1804  0.3410 -0.7826
24472SOL    HW176818   8.482   4.385   8.003 -2.7080 -0.3163 -0.9011
24472SOL    HW276819   8.476   4.234   8.016 -1.4744 -0.5335 -2.5429
24473SOL     OW76820   5.594   2.891   3.519  0.0783  0.5507 -0.2506
24473SOL    HW176821   5.552   2.977   3.516 -0.5931  0.2153 -2.3000
24473SOL    HW276822   5.557   2.844   3.444  2.0968 -0.7516 -0.5073
24474SOL     OW76823   2.503   3.107   0.202 -0.2754  0.2380 -0.4323
24474SOL    HW176824   2.523   3.014   0.210  1.1176  0.4506 -1.1204
24474SOL    HW276825   2.425   3.120   0.256  0.1174 -1.1250  0.5086
24475SOL     OW76826   2.185   4.698   7.414  0.5258  0.3391  0.9190
24475SOL    HW176827   2.136   4.728   7.338  0.5290 -1.1010  0.3242
24475SOL    HW276828   2.118   4.671   7.477  0.5298  0.3894  0.9446
24476SOL     OW76829   0.547   3.425   6.304 -0.2886  0.2018 -0.8566
24476SOL    HW176830   0.573   3.447   6.393 -0.7888 -1.6103 -0.2278
24476SOL    HW276831   0.614   3.465   6.249  1.8180 -1.2575  0.5104
24477SOL     OW76832   1.069   6.067   1.809 -0.2166 -0.1376  0.2146
24477SOL    HW176833   1.126   5.995   1.834 -1.6440 -1.6312 -0.6802
24477SOL    HW276834   1.117   6.146   1.836  2.3012 -1.2885 -0.6254
24478SOL     OW76835  10.012  10.243   1.460 -0.3855 -0.3833  0.0501
24478SOL    HW176836  10.081  10.243   1.393  0.4247  0.7599  0.8395
24478SOL    HW276837  10.000  10.151   1.481 -1.1278 -0.8370 -2.1049
24479SOL     OW76838   3.434   8.376   8.248  0.0622  0.1904 -0.3901
24479SOL    HW176839   3.348   8.389   8.208  0.9366  1.4005 -2.0081
24479SOL    HW276840   3.450   8.282   8.240 -1.8050 -0.3867  1.5768
24480SOL     OW76841   8.709   9.347   6.552  0.6296  0.1150  0.1490
24480SOL    HW176842   8.627   9.299   6.554  0.6727 -0.0886 -1.4811
24480SOL    HW276843   8.777   9.281   6.565  0.6268 -0.0874 -0.7986
24481SOL     OW76844   3.503   8.066   7.381 -0.6894  0.5203  0.2141
24481SOL    HW176845   3.524   8.076   7.474  0.6103 -0.3688  0.0422
24481SOL    HW276846   3.539   8.144   7.340 -1.2156  0.8877  0.4408
24482SOL     OW76847   9.052   2.860   6.035  0.6120 -0.1027 -0.2770
24482SOL    HW176848   9.078   2.768   6.038  0.3687 -0.1458  0.6150
24482SOL    HW276849   8.995   2.871   6.111  2.3902  1.3154  0.9411
24483SOL     OW76850   4.265   1.023   9.946  0.6548  0.0515  0.5347
24483SOL    HW176851   4.203   0.976  10.002 -0.2537  0.9148  0.2866
24483SOL    HW276852   4.233   1.009   9.857  1.4995 -0.4518  0.2953
24484SOL     OW76853   6.738  10.046   9.290  0.2235 -0.2552 -0.0006
24484SOL    HW176854   6.665  10.026   9.349 -0.0593  1.1197  0.1403
24484SOL    HW276855   6.790   9.965   9.289  1.0156  0.0886  3.2248
24485SOL     OW76856   0.324   4.083   4.420  0.2548 -0.4175  0.1706
24485SOL    HW176857   0.366   4.005   4.385 -0.5133 -0.9642  0.4355
24485SOL    HW276858   0.394   4.131   4.465  1.1100 -0.0742 -1.4230
24486SOL     OW76859   7.480   7.746   8.092 -0.2595 -0.2571  0.3957
24486SOL    HW176860   7.402   7.803   8.090  0.4610  0.7674  0.6120
24486SOL    HW276861   7.537   7.782   8.024 -0.3159 -1.5294 -0.3517
24487SOL     OW76862   1.574   4.884  10.487 -0.1921 -0.7274 -0.1960
24487SOL    HW176863   1.653   4.866  10.436 -0.3376 -1.1670 -0.2732
24487SOL    HW276864   1.517   4.809  10.470 -0.0977 -1.0643  0.9019
24488SOL     OW76865   3.011   4.271   4.619 -0.0319  0.6396  0.1911
24488SOL    HW176866   3.010   4.217   4.698 -1.7946  1.0563  0.4863
24488SOL    HW276867   2.921   4.268   4.586  0.2031  2.0920 -0.6812
24489SOL     OW76868   0.448   2.283   2.497 -0.1522 -0.1533  0.4481
24489SOL    HW176869   0.440   2.333   2.416 -2.3509  0.8978  1.2435
24489SOL    HW276870   0.372   2.225   2.497  0.2305 -0.6850  1.4195
24490SOL     OW76871   7.101   3.379  10.093  0.3614  0.3539  0.4273
24490SOL    HW176872   7.022   3.351  10.139  0.4454 -0.7088 -0.0517
24490SOL    HW276873   7.095   3.474  10.092 -0.9356  0.2966  0.3736
24491SOL     OW76874   9.206   8.946   8.508 -0.5621  0.5335  0.4166
24491SOL    HW176875   9.298   8.963   8.528  0.3696 -0.2269 -2.7195
24491SOL    HW276876   9.171   8.908   8.588  1.9109  0.5564  1.6067
24492SOL     OW76877   7.825   0.116   6.913  0.1440  0.3368  0.0446
24492SOL    HW176878   7.909   0.101   6.955 -0.3693 -2.7483  0.1508
24492SOL    HW276879   7.846   0.122   6.819  0.3588 -3.3877 -0.2978
24493SOL     OW76880   8.979   6.579   9.859  0.5032 -0.3636  0.1301
24493SOL    HW176881   9.044   6.569   9.790  1.3875 -0.4925  0.9640
24493SOL    HW276882   8.897   6.552   9.818  0.5906  1.6517 -1.5455
24494SOL     OW76883   9.464   5.520   1.633  0.1360  0.2577  0.0023
24494SOL    HW176884   9.501   5.532   1.720  2.9679 -2.5284 -0.6155
24494SOL    HW276885   9.447   5.609   1.602 -0.4757  1.3655  3.1154
24495SOL     OW76886   8.416   3.581   6.888 -0.2084 -0.0327 -0.9081
24495SOL    HW176887   8.433   3.636   6.811  0.5824  0.1883 -0.5869
24495SOL    HW276888   8.341   3.528   6.863  1.3283 -1.5336 -2.6793
24496SOL     OW76889   0.027   8.395   5.313  0.1834  0.7117  0.5630
24496SOL    HW176890   0.044   8.432   5.399 -1.1955  1.0053  0.7442
24496SOL    HW276891  -0.065   8.367   5.317  1.1012 -2.7532  0.4167
24497SOL     OW76892   8.406   9.521   7.487  0.0801 -0.3727 -0.1847
24497SOL    HW176893   8.378   9.608   7.518  2.1806 -0.3510  1.9169
24497SOL    HW276894   8.327   9.467   7.495 -0.7127  0.8243  0.6293
24498SOL     OW76895   6.191   5.309   4.247  0.1858  0.0671 -0.1696
24498SOL    HW176896   6.152   5.337   4.165  0.6210 -1.0847 -0.7976
24498SOL    HW276897   6.203   5.214   4.237  3.5717  0.3624 -0.2605
24499SOL     OW76898   5.371   0.139   9.422 -0.3822 -0.4240 -0.4526
24499SOL    HW176899   5.409   0.081   9.488 -0.2051  1.3263  1.0522
24499SOL    HW276900   5.446   0.167   9.369  0.0378  0.7594  0.7155
24500SOL     OW76901   9.242   2.418   0.165  0.0020 -0.0444 -0.8152
24500SOL    HW176902   9.317   2.425   0.224 -0.8149 -0.1874  0.2620
24500SOL    HW276903   9.213   2.327   0.172  0.5831 -0.3703 -2.3193
24501SOL     OW76904   9.768   8.420   9.839  0.0459  0.3608  0.1769
24501SOL    HW176905   9.851   8.394   9.879 -0.3717 -0.7222  0.3871
24501SOL    HW276906   9.717   8.457   9.911  0.4809  1.3781 -0.0310
24502SOL     OW76907   0.062   0.095  10.572  0.5488  0.5796 -0.4235
24502SOL    HW176908  -0.012   0.133  10.524  0.1423  1.6914  1.0022
24502SOL    HW276909   0.037   0.004  10.586 -1.2281  1.2279  1.1693
24503SOL     OW76910   5.327  10.449   8.437 -0.0049 -0.4559  0.4111
24503SOL    HW176911   5.277  10.525   8.467  0.6799 -0.0659  0.5962
24503SOL    HW276912   5.395  10.487   8.380  0.6330 -0.8798  0.8773
24504SOL     OW76913   0.922   7.553   2.233 -1.0391 -0.5554 -0.0913
24504SOL    HW176914   1.011   7.579   2.212 -1.3175  0.2587 -0.3223
24504SOL    HW276915   0.913   7.465   2.197 -0.0492 -1.0167  0.7345
24505SOL     OW76916   7.769   5.342   0.310 -0.2961  0.1408 -0.3111
24505SOL    HW176917   7.711   5.276   0.272  0.7263 -0.4078 -0.9593
24505SOL    HW276918   7.709   5.407   0.348 -1.3284 -1.7135  1.4279
24506SOL     OW76919   5.777   1.355   0.984 -0.1680  0.7452 -0.3742
24506SOL    HW176920   5.840   1.387   1.049 -0.2701  0.1092  0.0419
24506SOL    HW276921   5.691   1.374   1.022 -0.2279  0.5710 -0.4239
24507SOL     OW76922   3.275   1.900   9.109  0.0343  0.1157 -0.5023
24507SOL    HW176923   3.197   1.925   9.158 -0.3846  0.6705 -1.4145
24507SOL    HW276924   3.246   1.825   9.056 -0.4167  1.3931 -2.1415
24508SOL     OW76925  10.367   1.456   1.246 -0.1520  0.3598 -0.4881
24508SOL    HW176926  10.461   1.471   1.248 -0.0013 -0.6480  0.5331
24508SOL    HW276927  10.339   1.491   1.161  1.0869  0.9196 -0.6780
24509SOL     OW76928   4.371   9.804   0.671 -0.4431 -0.4626 -0.0289
24509SOL    HW176929   4.418   9.834   0.748 -0.2740 -1.5065  0.2915
24509SOL    HW276930   4.429   9.826   0.598 -1.1002  1.5444  0.0021
24510SOL     OW76931   9.625   6.645   6.743 -0.4826 -0.5435  0.3303
24510SOL    HW176932   9.694   6.636   6.677  0.2447 -1.2886  1.1589
24510SOL    HW276933   9.646   6.725   6.789 -1.0714  0.0538 -0.4082
24511SOL     OW76934   9.197   4.598   7.948 -0.1252 -0.4195  0.1005
24511SOL    HW176935   9.272   4.633   7.996 -0.1542 -1.3654  0.8718
24511SOL    HW276936   9.236   4.533   7.889 -0.3621 -1.3002  0.8797
24512SOL     OW76937   1.002   1.904   3.826 -0.2357  0.2147  0.4798
24512SOL    HW176938   0.909   1.882   3.836 -0.1299 -0.4908 -0.0167
24512SOL    HW276939   1.002   1.997   3.804 -0.8578  0.1075 -0.0030
24513SOL     OW76940   5.781   8.753   3.700  0.4575  0.5737 -0.0770
24513SOL    HW176941   5.842   8.801   3.645 -0.4967  1.8648 -0.0502
24513SOL    HW276942   5.818   8.759   3.788  0.7339  0.5715 -0.1901
24514SOL     OW76943   4.121   9.592   9.771  0.7814  0.4865  0.1615
24514SOL    HW176944   4.124   9.561   9.862  2.8396  1.2476  0.4108
24514SOL    HW276945   4.162   9.522   9.720  0.4286  0.4363 -0.0541
24515SOL     OW76946   0.052   5.491   9.998 -0.4528 -0.4169 -0.0019
24515SOL    HW176947   0.081   5.575   9.961  1.3175 -0.4680  1.1319
24515SOL    HW276948   0.021   5.441   9.923 -0.7062  0.9088 -0.8274
24516SOL     OW76949   6.338   2.649   1.958 -0.6619  0.3549 -0.1328
24516SOL    HW176950   6.336   2.736   1.998 -0.3008  0.7053 -0.8542
24516SOL    HW276951   6.288   2.593   2.018  0.0287  0.8169  0.8876
24517SOL     OW76952   0.716   0.022  10.076 -0.1214 -0.4263  0.1125
24517SOL    HW176953   0.663  -0.049  10.041 -2.2915  1.3958 -0.5234
24517SOL    HW276954   0.735   0.077  10.000  1.8100 -0.4535  0.5323
24518SOL     OW76955   2.810   5.600   6.765  0.0240  0.1358 -0.4513
24518SOL    HW176956   2.717   5.618   6.750 -0.0971 -1.0597 -1.1756
24518SOL    HW276957   2.816   5.589   6.860 -0.7319 -0.6055 -0.4768
24519SOL     OW76958   0.971   1.219   9.685  0.2823  0.6588 -0.3796
24519SOL    HW176959   1.037   1.231   9.753  1.0817 -3.3480 -0.2219
24519SOL    HW276960   1.018   1.232   9.603  0.5745  0.5384 -0.2322
24520SOL     OW76961   9.040   9.195   9.243  0.2078 -0.6640 -0.1946
24520SOL    HW176962   9.080   9.242   9.316 -0.6515  0.2775 -0.3064
24520SOL    HW276963   9.005   9.115   9.283  0.1842 -0.3949  0.3322
24521SOL     OW76964   4.014   0.578   7.020  0.4739 -0.1380 -0.6138
24521SOL    HW176965   3.965   0.547   7.096  1.6801  0.5656  0.4997
24521SOL    HW276966   3.987   0.521   6.948  0.0963 -1.5106  0.5889
24522SOL     OW76967   1.707   8.560  10.539 -0.1545 -0.4154 -0.1909
24522SOL    HW176968   1.764   8.553  10.462  1.0689 -0.3160  0.6820
24522SOL    HW276969   1.695   8.469  10.567 -1.2868 -0.5277 -0.9528
24523SOL     OW76970   4.062   8.202   0.398 -0.5556 -0.3622 -0.0610
24523SOL    HW176971   4.150   8.187   0.363  0.4509  1.6141  1.3900
24523SOL    HW276972   4.023   8.265   0.338 -1.6246 -2.3332 -1.5410
24524SOL     OW76973   7.361   3.437   5.040  0.0716 -1.0058  0.2301
24524SOL    HW176974   7.267   3.454   5.042  0.1761 -0.3669 -0.0623
24524SOL    HW276975   7.371   3.364   4.979 -0.2744 -1.3857  0.6182
24525SOL     OW76976   1.675   9.055   5.307 -0.3949 -0.3732  0.1173
24525SOL    HW176977   1.667   8.979   5.365 -1.0030  0.4411  1.1516
24525SOL    HW276978   1.584   9.082   5.291 -0.2886 -1.0457 -1.9025
24526SOL     OW76979  10.491   9.766   4.906 -0.2139  0.1590  0.6019
24526SOL    HW176980  10.411   9.817   4.893  0.7459  1.1509 -1.8710
24526SOL    HW276981  10.542   9.816   4.970 -1.3370 -0.2850  1.8988
24527SOL     OW76982  10.142   1.879   9.281  0.1716  0.1692 -0.3166
24527SOL    HW176983  10.160   1.791   9.248 -2.7862 -1.3754  1.7858
24527SOL    HW276984  10.102   1.924   9.207  0.6347 -0.5982 -1.0657
24528SOL     OW76985   9.026   4.411   7.039 -0.3511  0.1128  0.1497
24528SOL    HW176986   8.998   4.392   7.129  0.7310  2.2108  1.0108
24528SOL    HW276987   9.119   4.386   7.038  0.1186  1.7469  0.2135
24529SOL     OW76988  10.330   8.228   2.803  0.1124  0.8750 -0.0215
24529SOL    HW176989  10.396   8.206   2.738 -0.9230  1.4864 -1.3135
24529SOL    HW276990  10.282   8.302   2.766 -0.8086  0.9547  1.2269
24530SOL     OW76991  10.576   5.021   5.757 -0.1979  0.4796 -0.1967
24530SOL    HW176992  10.493   4.977   5.775 -0.8355  0.2756 -3.2020
24530SOL    HW276993  10.551   5.107   5.723  0.9539  1.5307  1.4596
24531SOL     OW76994   4.336   6.239   4.283  0.4797 -0.3616 -0.3401
24531SOL    HW176995   4.246   6.206   4.278 -0.3220  1.7927 -1.1052
24531SOL    HW276996   4.327   6.334   4.288  2.7171 -0.1165  0.3062
24532SOL     OW76997   8.136   7.278  10.892  0.2755  0.0369 -0.3685
24532SOL    HW176998   8.056   7.235  10.919  2.4224 -2.9221  2.0174
24532SOL    HW276999   8.168   7.226  10.818  0.7596  0.1885 -0.2757
24533SOL     OW77000  10.906   0.150  10.838 -0.4704 -0.0164 -0.1058
24533SOL    HW177001  10.923   0.242  10.860  0.2252 -0.3490  0.8035
24533SOL    HW277002  10.946   0.139  10.751 -1.0487  0.6723 -0.4739
24534SOL     OW77003   0.503   2.571   6.763  0.8489 -0.2423  0.4475
24534SOL    HW177004   0.566   2.642   6.774  0.7349 -0.0554 -0.0767
24534SOL    HW277005   0.431   2.609   6.712  0.1953 -0.3892  1.2413
24535SOL     OW77006   2.491   3.099   1.803 -0.2270  0.4345  0.0585
24535SOL    HW177007   2.470   3.134   1.717 -0.0040 -0.0983 -0.2211
24535SOL    HW277008   2.407   3.084   1.845 -0.3587  0.0637 -0.3322
24536SOL     OW77009   4.673   8.580   7.246 -0.5989 -0.0267 -0.4436
24536SOL    HW177010   4.698   8.534   7.327 -1.7830 -0.0186 -0.0570
24536SOL    HW277011   4.691   8.672   7.265 -1.9641  0.1280  0.2850
24537SOL     OW77012   7.668   0.785  10.557 -0.5522 -0.3909 -0.6589
24537SOL    HW177013   7.615   0.861  10.536  0.1037 -0.1559 -1.5367
24537SOL    HW277014   7.666   0.779  10.653  0.6433  1.6596 -0.4569
24538SOL     OW77015   7.827  10.008   9.340  0.0033  0.0297  0.0466
24538SOL    HW177016   7.739  10.042   9.324  0.8287  1.5840 -1.6559
24538SOL    HW277017   7.859  10.058   9.416 -0.3340 -0.0355  0.2311
24539SOL     OW77018   4.632   5.653   4.031  0.0274 -0.7923  0.8705
24539SOL    HW177019   4.628   5.583   3.966  2.1223  0.0778 -0.3128
24539SOL    HW277020   4.698   5.623   4.094  0.9078  0.0437  0.3773
24540SOL     OW77021   6.126   8.248   1.952  0.1765  0.3918  0.1715
24540SOL    HW177022   6.137   8.252   1.857  0.5277  0.6636  0.2235
24540SOL    HW277023   6.097   8.158   1.969  2.0418 -0.2884  0.0078
24541SOL     OW77024   7.558   1.219   7.569  0.0049  0.3351 -0.4247
24541SOL    HW177025   7.585   1.311   7.571  1.5944 -0.0945 -0.7991
24541SOL    HW277026   7.553   1.198   7.476 -0.4515  0.0602 -0.3405
24542SOL     OW77027   5.810   2.127   2.647  0.3671 -0.2074  0.1077
24542SOL    HW177028   5.853   2.043   2.661  0.1838  0.0490  2.6773
24542SOL    HW277029   5.881   2.191   2.648  0.2889 -0.1251  0.5686
24543SOL     OW77030   0.805   0.261   2.286 -0.4213  0.1562  0.5916
24543SOL    HW177031   0.871   0.192   2.292 -0.7468 -0.0604  2.3125
24543SOL    HW277032   0.797   0.294   2.376  0.9130  3.6210 -0.4041
24544SOL     OW77033   8.804   3.033   3.383 -0.4282 -0.4737 -1.2494
24544SOL    HW177034   8.725   2.982   3.364 -0.2326 -1.6975  0.9142
24544SOL    HW277035   8.872   2.967   3.393  0.0777  0.2792  0.5131
24545SOL     OW77036   7.320   6.013   9.883  0.0504 -0.4079  0.3042
24545SOL    HW177037   7.261   6.007   9.958  0.3924  0.7142  0.6780
24545SOL    HW277038   7.305   6.101   9.848 -0.9601 -1.2938 -1.6814
24546SOL     OW77039   8.095   0.571   1.214  0.1610  0.2683  0.2514
24546SOL    HW177040   8.177   0.541   1.254  0.4213  1.5837  0.7566
24546SOL    HW277041   8.032   0.569   1.285  0.1126  0.6216  0.2204
24547SOL     OW77042   1.889   1.018   6.310 -0.5938 -0.2568  0.0016
24547SOL    HW177043   1.929   0.968   6.240 -0.5371 -0.3507  0.1017
24547SOL    HW277044   1.870   1.104   6.271  3.5943  1.3681  1.0612
24548SOL     OW77045   8.303   3.158   0.270 -0.2396 -0.4755  0.5055
24548SOL    HW177046   8.350   3.095   0.326 -1.1461  0.2398  2.1412
24548SOL    HW277047   8.250   3.104   0.212 -1.4029 -1.2690  2.2325
24549SOL     OW77048   9.551   5.152   8.786 -0.0871  0.1074 -0.3103
24549SOL    HW177049   9.468   5.184   8.820  1.3272  1.3487  2.2542
24549SOL    HW277050   9.582   5.090   8.852  1.4963  0.4623 -0.6686
24550SOL     OW77051   3.185   2.298   1.074 -0.0781 -0.1096 -0.6854
24550SOL    HW177052   3.175   2.290   0.979  1.8476 -2.0931 -0.8100
24550SOL    HW277053   3.186   2.207   1.105 -0.8575  0.5067  1.2823
24551SOL     OW77054   6.650   5.165   0.201 -0.4761 -0.1737  0.3932
24551SOL    HW177055   6.711   5.238   0.193 -0.9069  0.1368 -0.1469
24551SOL    HW277056   6.688   5.096   0.145 -0.9607  0.2660 -0.5087
24552SOL     OW77057   1.296   5.894   1.869  0.4608  0.1010 -0.8098
24552SOL    HW177058   1.245   5.813   1.879  0.9722  0.0408  3.6005
24552SOL    HW277059   1.380   5.865   1.833 -0.4885 -0.7330 -2.4588
24553SOL     OW77060   0.060  10.135   0.003 -0.2662  0.5938  0.4540
24553SOL    HW177061  -0.005  10.121   0.071  0.2604 -0.0819  0.8262
24553SOL    HW277062   0.026  10.088  -0.073 -0.8515  1.3450  0.2375
24554SOL     OW77063   3.564   3.232   1.513 -0.4878  0.3279 -0.0555
24554SOL    HW177064   3.493   3.276   1.560 -1.2408  2.6659 -3.0883
24554SOL    HW277065   3.644   3.276   1.542 -0.9039  1.5306 -0.6730
24555SOL     OW77066   1.619   0.015   0.210  0.4395  0.6732  0.2373
24555SOL    HW177067   1.591   0.035   0.299 -0.8197 -0.3561  0.0913
24555SOL    HW277068   1.703  -0.031   0.221 -0.4347 -0.8086  1.0108
24556SOL     OW77069   3.176   5.330   6.443  0.5597  0.1190  0.6518
24556SOL    HW177070   3.143   5.311   6.355 -0.5113 -0.6651  1.1976
24556SOL    HW277071   3.186   5.425   6.445  0.6303  0.1430 -0.3259
24557SOL     OW77072   1.777   2.869   2.517  0.4474  0.0255  0.2345
24557SOL    HW177073   1.699   2.892   2.467 -0.0960 -0.1118  0.9941
24557SOL    HW277074   1.743   2.830   2.598  1.2755  0.8296  0.9931
24558SOL     OW77075   3.620   8.338   3.393  0.7802 -0.0753  0.9927
24558SOL    HW177076   3.710   8.336   3.427  1.7085 -2.4693 -1.3005
24558SOL    HW277077   3.623   8.401   3.321  0.7049 -0.4182  0.6895
24559SOL     OW77078   4.121   9.722   6.346 -0.2470  0.2197 -0.1213
24559SOL    HW177079   4.052   9.691   6.287 -1.4111 -0.4105  1.5096
24559SOL    HW277080   4.074   9.761   6.420  1.0223 -2.0214  2.0225
24560SOL     OW77081   0.109   5.231   9.123 -0.5916 -0.4222  0.0659
24560SOL    HW177082   0.157   5.313   9.116  3.0733 -2.4935 -1.8745
24560SOL    HW277083   0.087   5.208   9.032  1.5568 -3.0962  0.0874
24561SOL     OW77084   2.035  10.042  10.216 -0.1855 -0.1714 -0.1444
24561SOL    HW177085   2.091  10.011  10.288  0.3729 -1.0790 -0.9402
24561SOL    HW277086   2.010   9.962  10.170  0.4075  0.4787 -1.6439
24562SOL     OW77087   3.658   7.540   9.898 -0.1219  0.8134  0.1405
24562SOL    HW177088   3.733   7.588   9.932 -0.9676  3.0018 -0.9071
24562SOL    HW277089   3.584   7.570   9.952 -0.3405 -1.2064  1.0777
24563SOL     OW77090   8.303   9.741   4.671 -0.6937  0.0310 -0.5284
24563SOL    HW177091   8.270   9.756   4.760  0.2169  0.6502 -0.2775
24563SOL    HW277092   8.244   9.676   4.634 -0.7300 -0.6883  0.7372
24564SOL     OW77093   7.579   9.118   6.326  0.1948  0.0596 -0.2613
24564SOL    HW177094   7.529   9.056   6.379  2.0487 -1.7264 -0.4687
24564SOL    HW277095   7.595   9.072   6.244  1.6143  0.8052 -0.4289
24565SOL     OW77096   2.543   5.429   6.721 -0.1399 -0.2452  0.7390
24565SOL    HW177097   2.634   5.407   6.740  0.2186  1.0928  0.7152
24565SOL    HW277098   2.533   5.416   6.627  0.0192 -0.3919  0.7429
24566SOL     OW77099   9.843   3.460  10.474  0.1499 -0.5572  0.0320
24566SOL    HW177100   9.850   3.380  10.527  0.2220 -0.3252  0.3808
24566SOL    HW277101   9.844   3.531  10.539 -2.3792 -0.3387 -0.0650
24567SOL     OW77102   1.975   3.741   5.521  0.3559 -0.2174  0.4457
24567SOL    HW177103   1.978   3.655   5.565  0.3962 -0.6828 -0.4423
24567SOL    HW277104   1.885   3.772   5.535  0.8797  0.5358  2.4814
24568SOL     OW77105  10.274   1.099   1.791  0.0323  0.0692 -0.1899
24568SOL    HW177106  10.363   1.134   1.791 -0.2328  0.7848  1.0513
24568SOL    HW277107  10.277   1.026   1.729  1.7313 -0.5424  0.5625
24569SOL     OW77108   2.069   9.022   9.364 -0.6221  0.1561  0.2285
24569SOL    HW177109   2.000   8.991   9.304  0.9170  0.2045 -1.6556
24569SOL    HW277110   2.031   9.100   9.405 -1.4975  0.5234 -1.2001
24570SOL     OW77111   7.384   9.631   0.754 -0.4989 -0.3161  0.3393
24570SOL    HW177112   7.401   9.640   0.848  0.4615 -0.0506  0.1600
24570SOL    HW277113   7.456   9.576   0.722 -1.4791 -1.3937 -0.0526
24571SOL     OW77114   5.879   5.803   3.245 -0.5045  0.0643 -0.0476
24571SOL    HW177115   5.834   5.880   3.279  0.2515  0.7930 -0.6533
24571SOL    HW277116   5.824   5.729   3.271 -1.4867  0.8437  0.1308
24572SOL     OW77117   7.812   1.442   8.164 -0.8862 -0.0016  0.4948
24572SOL    HW177118   7.888   1.386   8.150 -1.4451 -1.1962  1.9232
24572SOL    HW277119   7.764   1.439   8.081 -1.3195 -2.3765  0.7699
24573SOL     OW77120   1.713   7.633  10.754 -0.2461 -0.6635 -0.0838
24573SOL    HW177121   1.792   7.589  10.723  0.5782  0.4190  0.4299
24573SOL    HW277122   1.702   7.707  10.694 -0.8952 -0.8257 -0.1706
24574SOL     OW77123   3.749  10.220   3.272  0.0215  0.5486 -0.6134
24574SOL    HW177124   3.750  10.240   3.179  0.4346  3.3133 -0.1284
24574SOL    HW277125   3.657  10.231   3.298  0.1854  1.6716 -0.4219
24575SOL     OW77126   3.869   7.914   0.871  0.2454  0.2249 -0.2428
24575SOL    HW177127   3.808   7.970   0.823 -1.9268 -0.8846  1.0743
24575SOL    HW277128   3.942   7.902   0.811 -0.3991  2.3303 -1.5609
24576SOL     OW77129   2.251  10.900   1.052 -0.2765  0.7434 -0.3565
24576SOL    HW177130   2.260  10.993   1.034 -0.8331  1.3864  2.2352
24576SOL    HW277131   2.174  10.894   1.108 -0.9774 -1.4588 -1.4299
24577SOL     OW77132   3.884   2.697   9.240  0.6330 -0.7222  0.0874
24577SOL    HW177133   3.916   2.759   9.175  2.3693 -2.1468 -0.5239
24577SOL    HW277134   3.789   2.701   9.232  0.7123  1.3328 -0.3778
24578SOL     OW77135   8.756   8.861   1.411  0.1635  0.0538  0.0120
24578SOL    HW177136   8.687   8.874   1.476  0.5277  2.4196  0.0323
24578SOL    HW277137   8.805   8.784   1.442 -0.9798 -0.1738  1.3257
24579SOL     OW77138   8.632   4.641   9.756 -0.2490  0.8528  0.3892
24579SOL    HW177139   8.596   4.611   9.673 -0.0931  0.4280  0.4705
24579SOL    HW277140   8.716   4.681   9.733  0.7430 -1.0236  0.5362
24580SOL     OW77141   9.458   3.447   1.716 -0.1475 -0.5031  0.1300
24580SOL    HW177142   9.409   3.450   1.635  1.7238  0.2075 -1.0428
24580SOL    HW277143   9.433   3.364   1.757  1.7245 -2.8518 -3.0876
24581SOL     OW77144   8.553   6.921   6.445 -0.6808  0.0783 -0.2700
24581SOL    HW177145   8.580   6.833   6.421  1.9682  1.1393 -1.5304
24581SOL    HW277146   8.503   6.953   6.370  1.6481  0.9209 -1.5626
24582SOL     OW77147   4.727   6.132   0.238 -0.0967 -0.4842  0.3369
24582SOL    HW177148   4.793   6.166   0.298  1.0978 -1.8790 -0.1190
24582SOL    HW277149   4.644   6.171   0.268  1.0282  2.2268  0.2330
24583SOL     OW77150   6.084   3.577   9.907 -0.1740 -0.1219 -0.1072
24583SOL    HW177151   6.169   3.581   9.950 -0.7521  2.6707  1.0543
24583SOL    HW277152   6.034   3.513   9.958  0.2592  0.6082  1.3045
24584SOL     OW77153   6.599   4.067   5.554 -0.1347 -0.5625 -0.8309
24584SOL    HW177154   6.683   4.112   5.565  0.4238 -1.4927 -1.1930
24584SOL    HW277155   6.536   4.125   5.596  0.6014  0.4169 -1.0326
24585SOL     OW77156   5.435   9.574   8.354  0.2956  0.5605  0.1654
24585SOL    HW177157   5.503   9.610   8.412  0.4011 -1.7126  1.5613
24585SOL    HW277158   5.362   9.635   8.362  1.3368  1.8117  0.4408
24586SOL     OW77159  10.316   4.102  10.779  0.3942 -0.3535  0.5358
24586SOL    HW177160  10.387   4.042  10.756  0.5208 -0.5118  1.2962
24586SOL    HW277161  10.315   4.166  10.708  0.4056 -1.1235 -0.1729
24587SOL     OW77162   0.274   6.047   3.658  0.1279 -0.2205 -0.7389
24587SOL    HW177163   0.341   5.982   3.636  2.0980  1.3720  0.2086
24587SOL    HW277164   0.261   6.096   3.577  1.0876  0.2686 -0.6092
24588SOL     OW77165   9.060   3.685   5.836 -0.3294 -0.2103  0.2550
24588SOL    HW177166   9.006   3.700   5.758 -0.2970 -1.0480  0.0620
24588SOL    HW277167   9.046   3.593   5.857 -1.6811  0.3675  2.2418
24589SOL     OW77168   0.507   6.585   9.597  0.3049 -0.0740 -0.2516
24589SOL    HW177169   0.520   6.606   9.504  0.2827  0.7233 -0.0835
24589SOL    HW277170   0.423   6.623   9.619  0.5086  0.1181  0.2041
24590SOL     OW77171   0.734   3.254   4.877  0.4022 -0.3919  0.1808
24590SOL    HW177172   0.793   3.301   4.935  0.3559  1.1014 -0.9205
24590SOL    HW277173   0.714   3.173   4.923  0.5409  0.6296  2.1294
24591SOL     OW77174   4.358   3.402   0.115  0.5671  0.1180  0.4630
24591SOL    HW177175   4.279   3.348   0.105 -0.1032  0.8124  1.7068
24591SOL    HW277176   4.343   3.450   0.196  2.3687  0.1524  0.7996
24592SOL     OW77177   0.351   6.286   7.755  0.9194  0.0007  0.0984
24592SOL    HW177178   0.391   6.365   7.720 -1.2052  0.9129 -0.4301
24592SOL    HW277179   0.352   6.298   7.850  0.2331  0.9068  0.0094
24593SOL     OW77180   7.378   4.945   0.610 -0.3467 -0.5805  0.2131
24593SOL    HW177181   7.469   4.967   0.592 -0.3125  0.7928  1.7522
24593SOL    HW277182   7.381   4.897   0.693 -1.1035  1.1151  1.2914
24594SOL     OW77183  10.001   8.112   9.836  0.2354 -0.6529 -0.2727
24594SOL    HW177184  10.031   8.048   9.901 -1.1484  0.2130  1.3005
24594SOL    HW277185   9.988   8.192   9.886 -2.4562 -0.3738 -1.2577
24595SOL     OW77186  10.556   3.786   6.035  0.5533  0.2419 -0.7305
24595SOL    HW177187  10.590   3.867   6.073  0.5115 -0.4502  0.8861
24595SOL    HW277188  10.511   3.743   6.108 -0.2078 -0.8189 -1.7818
24596SOL     OW77189   1.487   8.461   7.338 -0.0736  0.3335 -0.3576
24596SOL    HW177190   1.501   8.555   7.323 -0.6986  0.8444  1.8266
24596SOL    HW277191   1.525   8.418   7.262  2.1741  2.2428 -0.4268
24597SOL     OW77192   9.245   4.257   7.042  0.4484  0.2637 -0.2346
24597SOL    HW177193   9.335   4.255   7.009  0.3570  0.3388 -0.4858
24597SOL    HW277194   9.228   4.167   7.070  0.3145  0.0606 -0.9601
24598SOL     OW77195   3.006   7.671  10.755 -0.2788 -0.1369 -0.0235
24598SOL    HW177196   3.028   7.583  10.724 -1.9186 -0.4520 -0.3383
24598SOL    HW277197   2.993   7.722  10.674  0.4852  0.3702  0.1571
24599SOL     OW77198   2.503   2.818   1.131 -0.2768  0.1055 -0.2060
24599SOL    HW177199   2.504   2.736   1.081 -0.9401 -1.4648  2.1833
24599SOL    HW277200   2.582   2.864   1.104 -0.3531 -0.8839 -2.2699
24600SOL     OW77201   0.021   9.198   6.969  0.3037 -0.6311 -0.0487
24600SOL    HW177202   0.032   9.118   6.918 -1.0209 -0.7225 -0.2175
24600SOL    HW277203  -0.007   9.169   7.055 -2.8501 -0.3132 -0.8659
24601SOL     OW77204   9.503   8.746   1.274 -0.3086 -0.2686 -0.3410
24601SOL    HW177205   9.539   8.820   1.225  1.3003  0.8493  2.3260
24601SOL    HW277206   9.442   8.786   1.336 -0.1429 -1.2728  0.4988
24602SOL     OW77207   5.921   4.487   5.754 -0.9633  0.1870 -0.4313
24602SOL    HW177208   6.004   4.482   5.801 -1.8843  0.9669  1.3670
24602SOL    HW277209   5.945   4.520   5.667  0.6912 -0.4230 -0.2427
24603SOL     OW77210   6.130   1.052   1.494  0.1116 -0.7661 -1.3229
24603SOL    HW177211   6.046   1.045   1.449  0.9016  0.8500 -3.1920
24603SOL    HW277212   6.148   0.963   1.526 -1.1415 -1.6917 -3.0435
24604SOL     OW77213   2.640   2.240  10.233  0.4140 -0.8151 -0.2733
24604SOL    HW177214   2.694   2.184  10.176  0.3450 -1.1202 -0.0408
24604SOL    HW277215   2.551   2.231  10.199  0.4896 -0.3975 -0.5878
24605SOL     OW77216   9.944   8.902   2.100  0.2629 -0.1161  0.4216
24605SOL    HW177217  10.039   8.906   2.102  0.2765 -0.1869  0.0479
24605SOL    HW277218   9.924   8.809   2.089  0.2057  0.0814 -1.5410
24606SOL     OW77219   0.257   4.316   2.416  0.1503  0.2274 -0.3267
24606SOL    HW177220   0.237   4.222   2.412  2.3988 -0.3548  0.4318
24606SOL    HW277221   0.301   4.334   2.333  1.0125  0.2391  0.1188
24607SOL     OW77222   2.405   0.328   6.213  0.5717  0.7419  0.1816
24607SOL    HW177223   2.388   0.262   6.147  3.1202 -0.2559  0.3994
24607SOL    HW277224   2.403   0.281   6.296  2.6645  0.8027  0.3232
24608SOL     OW77225   6.116   8.849   4.501  0.2780  0.1830  0.1480
24608SOL    HW177226   6.062   8.775   4.473  2.2258 -1.9106  1.6249
24608SOL    HW277227   6.204   8.827   4.471  0.6044  3.0222 -1.2914
24609SOL     OW77228   2.102   3.676   2.044 -0.6466  0.0336 -0.1879
24609SOL    HW177229   2.162   3.645   2.112 -0.2790 -0.1816 -0.6078
24609SOL    HW277230   2.075   3.597   1.997 -0.9394  0.1755 -0.2601
24610SOL     OW77231   1.189   6.894   8.555 -0.2968  0.2944  0.4905
24610SOL    HW177232   1.234   6.816   8.523 -0.5985  0.4200 -0.2562
24610SOL    HW277233   1.241   6.922   8.631 -0.0335 -0.4699  0.6059
24611SOL     OW77234  10.675  10.096   9.634  0.1138  0.1666  0.0487
24611SOL    HW177235  10.755  10.136   9.668  0.4656 -1.0159  0.6657
24611SOL    HW277236  10.609  10.113   9.701 -0.2946  1.5086 -0.6494
24612SOL     OW77237   6.148   2.615   1.217  0.0163  0.1905  0.2896
24612SOL    HW177238   6.067   2.661   1.240 -0.3624  0.3334 -1.2028
24612SOL    HW277239   6.133   2.584   1.127  1.4819 -0.1053  0.1205
24613SOL     OW77240   6.832   9.241   8.059  0.4755  0.2136  0.1352
24613SOL    HW177241   6.782   9.320   8.036  0.0610 -0.1378 -0.1903
24613SOL    HW277242   6.922   9.271   8.067  0.1698  0.9235  1.0521
24614SOL     OW77243   5.879   2.168   5.673 -0.3168 -0.3955 -0.5972
24614SOL    HW177244   5.805   2.107   5.681 -0.4366 -0.3194 -1.0885
24614SOL    HW277245   5.864   2.213   5.590 -0.6669  0.8857  0.1316
24615SOL     OW77246  10.292   5.128   0.188  0.1093 -0.0932  0.2593
24615SOL    HW177247  10.343   5.208   0.203  0.8947 -0.5260 -0.0225
24615SOL    HW277248  10.358   5.058   0.188 -0.3627 -0.5738 -0.9817
24616SOL     OW77249   6.007  10.098   2.809  0.0314  0.3345 -0.4658
24616SOL    HW177250   6.070  10.079   2.878  0.5665 -0.2568 -1.1070
24616SOL    HW277251   6.033  10.042   2.736 -1.6728 -0.4682 -0.5018
24617SOL     OW77252   2.270   9.622   1.003 -0.0182 -0.8710  0.6048
24617SOL    HW177253   2.334   9.662   0.944 -0.8523  0.1041  0.3323
24617SOL    HW277254   2.235   9.548   0.954 -1.2421  0.3735 -0.4510
24618SOL     OW77255   2.772   0.360   6.028 -0.0309  0.0307 -0.2757
24618SOL    HW177256   2.807   0.450   6.031  1.3367 -0.3571 -2.4206
24618SOL    HW277257   2.733   0.353   5.940 -0.2108 -1.4419 -0.0913
24619SOL     OW77258   2.554  10.556   6.177 -0.3322  0.1567  0.1929
24619SOL    HW177259   2.511  10.575   6.093  1.5455 -1.7858 -1.3305
24619SOL    HW277260   2.627  10.618   6.181  0.1254 -0.3538 -0.0920
24620SOL     OW77261   3.824   2.400   6.411  0.0639  0.8421 -0.0347
24620SOL    HW177262   3.788   2.402   6.499 -0.9306 -0.8610 -0.3593
24620SOL    HW277263   3.897   2.339   6.416 -0.5503  0.0328 -0.5449
24621SOL     OW77264  10.425  10.296   1.499 -0.5250 -0.1220 -0.1117
24621SOL    HW177265  10.392  10.290   1.589 -0.3742 -3.1538 -0.1284
24621SOL    HW277266  10.518  10.315   1.509 -0.7072  0.5832  0.3120
24622SOL     OW77267   0.623   8.173   5.789  0.2460 -0.1289 -0.3706
24622SOL    HW177268   0.555   8.105   5.793  0.3586 -0.2562 -0.6015
24622SOL    HW277269   0.700   8.128   5.754  0.8450 -0.2980  1.1109
24623SOL     OW77270   2.498  10.382   1.613 -0.4820 -0.2513 -0.5788
24623SOL    HW177271   2.573  10.426   1.652 -1.1551  0.6268 -0.2467
24623SOL    HW277272   2.489  10.300   1.662 -0.0760 -0.1051 -0.2638
24624SOL     OW77273   3.970   9.953   2.419  0.4033  0.2374  0.1501
24624SOL    HW177274   3.889   9.983   2.460 -0.3412  0.1801 -1.2067
24624SOL    HW277275   4.010  10.033   2.384  0.7184  0.2104  0.4492
24625SOL     OW77276  10.206   1.514   5.976  0.1843 -0.7259  0.1245
24625SOL    HW177277  10.238   1.501   6.065  2.8220 -0.6883 -0.7510
24625SOL    HW277278  10.239   1.439   5.927  1.3797  0.7465 -1.4513
24626SOL     OW77279   7.265   1.051   0.111 -0.0430  0.4947 -0.0045
24626SOL    HW177280   7.305   1.127   0.153 -1.0083  0.9366  0.1548
24626SOL    HW277281   7.188   1.087   0.066  0.4606 -0.1102 -1.3989
24627SOL     OW77282   2.915   7.631   6.591 -0.2225  0.0956  0.1242
24627SOL    HW177283   2.970   7.576   6.647  1.2514  1.3396 -0.0272
24627SOL    HW277284   2.825   7.610   6.617  0.2871 -2.1672  0.2331
24628SOL     OW77285   8.263   6.100   4.121 -0.1788 -0.3670 -0.2937
24628SOL    HW177286   8.258   6.048   4.040 -0.4650 -1.1550  0.2148
24628SOL    HW277287   8.283   6.189   4.091  1.3412 -0.9504 -1.1267
24629SOL     OW77288   4.383   5.242  10.508 -0.0518  0.0064  0.0761
24629SOL    HW177289   4.341   5.277  10.587 -1.9714 -1.9208  0.0186
24629SOL    HW277290   4.404   5.151  10.531  0.6442 -0.1749 -1.1940
24630SOL     OW77291  10.125   4.381   9.143  0.1487 -0.5510  0.1830
24630SOL    HW177292  10.132   4.302   9.091 -1.1938  0.1809 -1.1835
24630SOL    HW277293  10.189   4.441   9.104 -1.0028  0.0699 -0.8325
24631SOL     OW77294   6.688   5.895   0.758 -0.1695  0.4663  0.1678
24631SOL    HW177295   6.658   5.807   0.735  1.2602 -0.4426  1.6563
24631SOL    HW277296   6.625   5.926   0.823 -0.1304  0.1711  0.3445
24632SOL     OW77297   8.570   0.923  10.159  0.0944  0.1140  0.5883
24632SOL    HW177298   8.515   0.949  10.085 -0.5828 -0.1843  0.9684
24632SOL    HW277299   8.624   1.000  10.177  0.4870  0.0886 -0.3940
24633SOL     OW77300   0.775   6.176   9.241 -0.1136 -0.1762  0.3345
24633SOL    HW177301   0.847   6.151   9.299  0.8767  1.4570 -0.1269
24633SOL    HW277302   0.771   6.106   9.176  0.9537 -0.3708  0.4585
24634SOL     OW77303   2.694   5.031   1.072 -0.7307  0.0438  0.3646
24634SOL    HW177304   2.750   5.039   1.149 -0.6903  0.9014  0.2630
24634SOL    HW277305   2.724   5.101   1.014  0.1581 -1.4587 -1.0350
24635SOL     OW77306   8.715   0.402   5.129  0.1959 -0.6705 -0.2850
24635SOL    HW177307   8.668   0.484   5.137  0.4724 -0.7275  3.9202
24635SOL    HW277308   8.808   0.427   5.126  0.2388 -0.7890  0.0212
24636SOL     OW77309   7.137   1.271   1.702 -0.4963 -0.5063 -0.0135
24636SOL    HW177310   7.083   1.350   1.710  0.1717  0.0020 -0.3859
24636SOL    HW277311   7.189   1.269   1.782  0.1599 -0.0437 -0.4195
24637SOL     OW77312   0.994   2.460   6.125  0.0305  0.6685  0.0459
24637SOL    HW177313   0.906   2.496   6.111  0.1175  1.5025  1.4017
24637SOL    HW277314   0.995   2.378   6.077 -1.4935  0.6629 -0.0155
24638SOL     OW77315  10.345   3.275   8.905  0.0213 -0.2980 -0.1464
24638SOL    HW177316  10.401   3.253   8.830  0.6122  2.0682 -0.4987
24638SOL    HW277317  10.266   3.223   8.893  1.8955 -3.4929  0.1526
24639SOL     OW77318   6.251   8.948   1.908 -0.6265 -1.0375 -0.0187
24639SOL    HW177319   6.257   8.912   1.819 -2.3320 -1.4120 -0.0036
24639SOL    HW277320   6.263   8.873   1.965  1.0133 -0.7136  0.1135
24640SOL     OW77321   0.541   9.059   7.450  0.0678 -0.5633  0.8360
24640SOL    HW177322   0.448   9.038   7.460 -1.0250  2.5662 -1.0732
24640SOL    HW277323   0.574   9.066   7.540 -1.9381 -0.3945  1.6157
24641SOL     OW77324   2.968   1.911   9.032 -0.2175  0.5434 -0.5956
24641SOL    HW177325   3.037   1.855   8.997 -0.5592  0.4517 -1.1380
24641SOL    HW277326   2.959   1.885   9.123 -0.9130 -0.8512 -1.0374
24642SOL     OW77327   4.477   6.474   8.614 -0.0278 -0.3765 -0.3984
24642SOL    HW177328   4.414   6.417   8.570 -0.5165 -2.4849  2.7239
24642SOL    HW277329   4.562   6.446   8.580 -0.4911  0.0915 -2.0596
24643SOL     OW77330   6.397   0.970   1.683  0.3438  0.2442  0.4514
24643SOL    HW177331   6.486   0.984   1.715  0.8761 -1.6963 -0.0736
24643SOL    HW277332   6.348   0.940   1.759  0.2442  0.8624  0.6354
24644SOL     OW77333   9.060   7.147  10.516 -0.0405 -0.7619  0.1185
24644SOL    HW177334   9.075   7.219  10.577 -0.6884 -1.8691  1.6599
24644SOL    HW277335   8.976   7.166  10.476 -1.6617 -1.9540  2.6341
24645SOL     OW77336   9.840   5.377   5.120 -0.3010 -0.1391  0.4184
24645SOL    HW177337   9.887   5.303   5.081 -1.6285 -0.0320 -1.5389
24645SOL    HW277338   9.908   5.443   5.136  0.2398  0.3932 -3.2348
24646SOL     OW77339   4.435   4.223   4.078  0.1314  0.4242  0.2865
24646SOL    HW177340   4.510   4.278   4.099 -1.2264  1.4995  2.6325
24646SOL    HW277341   4.381   4.276   4.020 -0.1217  0.7136  0.7862
24647SOL     OW77342   8.090   0.308   8.826  0.4302  0.2255  0.7729
24647SOL    HW177343   8.090   0.224   8.871  1.2161 -0.3414 -0.2480
24647SOL    HW277344   8.161   0.301   8.762 -1.1513  0.6466 -1.1414
24648SOL     OW77345   9.298   7.819   5.609  0.0046 -0.3802 -0.2384
24648SOL    HW177346   9.375   7.863   5.644  0.4053 -0.0593 -1.4866
24648SOL    HW277347   9.324   7.791   5.521 -0.9018 -1.3579 -0.2107
24649SOL     OW77348  10.377   8.381   9.190  0.5378 -0.6767  0.6384
24649SOL    HW177349  10.310   8.341   9.246 -0.9415  1.5290  0.5652
24649SOL    HW277350  10.412   8.453   9.243  0.2994  0.3982 -0.6072
24650SOL     OW77351   7.995   0.259   5.167  0.1331 -0.3301 -0.4103
24650SOL    HW177352   7.928   0.268   5.099  0.5089 -1.5473 -0.9735
24650SOL    HW277353   7.973   0.326   5.231 -1.8341 -0.9161 -0.4051
24651SOL     OW77354   9.379   6.332   2.014 -0.5107  0.3834 -0.4436
24651SOL    HW177355   9.369   6.427   2.022  2.1473  0.7265 -0.3722
24651SOL    HW277356   9.376   6.300   2.104 -1.6344  0.3467 -0.4826
24652SOL     OW77357   7.168   5.908   0.818 -0.1122  0.3429  0.7794
24652SOL    HW177358   7.074   5.928   0.811 -0.5761 -1.7036  0.3841
24652SOL    HW277359   7.207   5.949   0.741 -0.9113  0.2000  0.2783
24653SOL     OW77360  10.195   9.424   6.671 -0.0927 -0.5815 -0.3669
24653SOL    HW177361  10.140   9.347   6.653  0.2610 -1.0050  0.3230
24653SOL    HW277362  10.138   9.499   6.652 -0.8911 -1.0104  0.2838
24654SOL     OW77363   8.538   0.175   9.165  0.5042  1.2316  0.4621
24654SOL    HW177364   8.510   0.201   9.253 -1.9718 -1.2051  0.5428
24654SOL    HW277365   8.503   0.086   9.154  2.5817  0.6059 -2.2123
24655SOL     OW77366  10.080   6.340   0.027  0.2075  0.0678 -0.0320
24655SOL    HW177367  10.019   6.275  -0.006  2.4915 -2.6243  0.5842
24655SOL    HW277368  10.154   6.338  -0.034  0.4819  1.9212  0.1696
24656SOL     OW77369   8.535   1.279   3.322 -0.0273  0.4808  0.2283
24656SOL    HW177370   8.513   1.358   3.273  0.6412  1.4399  1.4028
24656SOL    HW277371   8.456   1.259   3.372  0.3355  1.4384  1.2278
24657SOL     OW77372   1.836   2.372   8.165 -0.2450  0.0803 -0.1314
24657SOL    HW177373   1.924   2.386   8.129  0.6590 -0.6783  1.6341
24657SOL    HW277374   1.841   2.286   8.207 -1.0107  1.1138  2.2444
24658SOL     OW77375   6.112   0.171   8.884 -0.2702  0.3688 -0.2888
24658SOL    HW177376   6.035   0.144   8.934  0.4854 -0.1890  0.5972
24658SOL    HW277377   6.089   0.258   8.851 -1.1167  0.3867  0.3133
24659SOL     OW77378   6.243   7.001   3.456  0.3141  0.0632  0.0629
24659SOL    HW177379   6.290   6.986   3.374 -0.1197 -0.0496 -0.1687
24659SOL    HW277380   6.220   6.913   3.487  0.9576  0.0772  0.5931
24660SOL     OW77381   3.663   9.765   6.217 -0.1543 -0.2052 -0.0731
24660SOL    HW177382   3.661   9.833   6.284  0.8438 -0.8807  0.6792
24660SOL    HW277383   3.733   9.706   6.245 -0.3522 -1.0197 -1.2164
24661SOL     OW77384   3.575   7.362   0.497 -0.7870  0.0502 -0.0117
24661SOL    HW177385   3.652   7.331   0.451 -0.7594 -0.1744  0.1808
24661SOL    HW277386   3.605   7.438   0.547 -1.0627  0.9734 -1.2022
24662SOL     OW77387   2.153   6.262   2.637 -0.4475 -0.7337 -0.9551
24662SOL    HW177388   2.166   6.337   2.695 -1.4941 -0.6593 -0.7849
24662SOL    HW277389   2.162   6.186   2.695 -0.2062 -0.7066 -0.9579
24663SOL     OW77390   2.667   4.699   9.856  0.2017  0.5791  0.1326
24663SOL    HW177391   2.625   4.687   9.770  1.1422  1.3293 -0.4563
24663SOL    HW277392   2.655   4.615   9.900 -1.4992  0.6080 -0.1783
24664SOL     OW77393  10.644   6.144   0.864 -0.2220  0.0543  0.3470
24664SOL    HW177394  10.585   6.095   0.808 -0.8663  1.2991 -0.1127
24664SOL    HW277395  10.717   6.168   0.807 -0.4111  0.4941  0.2811
24665SOL     OW77396   9.586   0.349  10.253  0.1914 -0.3461 -0.3025
24665SOL    HW177397   9.618   0.346  10.344  1.1967 -0.4263 -0.6513
24665SOL    HW277398   9.618   0.268  10.214  0.5741  0.1349 -1.0011
24666SOL     OW77399   2.625  10.151   8.845 -0.3795  0.1495  0.1923
24666SOL    HW177400   2.641  10.224   8.905 -0.5554  2.5082 -2.4072
24666SOL    HW277401   2.710  10.136   8.803 -0.5187 -0.6753  0.1952
24667SOL     OW77402   4.351   1.991   0.501 -0.0565 -0.8066 -0.3974
24667SOL    HW177403   4.383   2.002   0.590 -2.1794  0.9631  0.2328
24667SOL    HW277404   4.422   2.024   0.445  0.9594 -1.1710  0.6490
24668SOL     OW77405   9.807   1.374   4.185 -0.0149 -0.7045  0.6569
24668SOL    HW177406   9.745   1.384   4.257 -0.3801  2.4147  0.0584
24668SOL    HW277407   9.893   1.373   4.227 -0.2819 -0.0750  1.2475
24669SOL     OW77408   4.789   6.470   2.579  0.1293  0.1623  0.0042
24669SOL    HW177409   4.717   6.417   2.612 -0.6536 -0.1815 -2.0940
24669SOL    HW277410   4.812   6.430   2.495  0.6589  2.0975 -0.8384
24670SOL     OW77411   4.028   0.747   5.171 -0.0196  0.1433  0.0117
24670SOL    HW177412   3.938   0.722   5.191  0.1279 -0.2797  0.1625
24670SOL    HW277413   4.028   0.764   5.076 -0.1018 -0.5677 -0.1238
24671SOL     OW77414   1.049  10.497   3.611  0.3196  0.6388 -0.2815
24671SOL    HW177415   1.073  10.590   3.615  0.5659  0.5846 -0.4930
24671SOL    HW277416   1.128  10.451   3.639  0.0095  0.5109  0.4099
24672SOL     OW77417   8.832   7.842   6.533  0.2049  0.3980 -0.4041
24672SOL    HW177418   8.915   7.889   6.525  0.1798  0.2237 -1.8929
24672SOL    HW277419   8.792   7.847   6.446 -1.0575 -0.0751  0.1114
24673SOL     OW77420  10.417   7.532   7.933  0.1116  0.7340  0.2663
24673SOL    HW177421  10.451   7.469   7.996  1.0286  0.8288 -0.1147
24673SOL    HW277422  10.369   7.596   7.986  0.2830  0.4316  0.7905
24674SOL     OW77423   2.645   5.938   0.805 -0.6251  0.0255  0.6274
24674SOL    HW177424   2.680   5.964   0.890  1.3002 -0.5361  0.0604
24674SOL    HW277425   2.587   5.864   0.825 -0.7600  0.3527  1.5135
24675SOL     OW77426   3.123   8.731   4.325 -0.3888 -0.1995  0.0272
24675SOL    HW177427   3.160   8.783   4.397 -0.6642  0.8121 -0.5346
24675SOL    HW277428   3.031   8.718   4.350 -0.2980 -0.4844  0.2092
24676SOL     OW77429   0.705   6.394   3.542 -0.0374 -0.5022 -0.0574
24676SOL    HW177430   0.753   6.331   3.489  0.5862 -0.5864  0.5960
24676SOL    HW277431   0.761   6.471   3.545 -0.3093 -0.3042  0.0438
24677SOL     OW77432   5.885   2.082   4.722  0.7701  0.6698 -0.1137
24677SOL    HW177433   5.904   2.146   4.653 -0.6424  1.7031  0.3971
24677SOL    HW277434   5.791   2.068   4.715  0.9236 -0.6856  0.3844
24678SOL     OW77435   1.800   6.175  10.098  0.1535 -0.3538 -0.7082
24678SOL    HW177436   1.736   6.246  10.092  0.5526  0.0552 -0.1725
24678SOL    HW277437   1.790   6.127  10.016 -0.0098  0.4177 -1.1494
24679SOL     OW77438   9.947   3.537   1.131  0.2392 -0.4552 -0.0866
24679SOL    HW177439   9.953   3.445   1.157 -1.0498 -0.8562 -1.0879
24679SOL    HW277440   9.964   3.536   1.037 -0.1713  0.2684 -0.1785
24680SOL     OW77441   3.360   0.068   2.253 -0.5252  0.3377  0.3352
24680SOL    HW177442   3.389   0.143   2.304 -0.4881  0.3278  0.3281
24680SOL    HW277443   3.269   0.089   2.229 -0.2493  0.7524 -0.3784
24681SOL     OW77444   2.626   8.180   1.915 -0.4103 -0.5578 -0.1721
24681SOL    HW177445   2.714   8.207   1.943 -0.1969 -1.8863  0.5123
24681SOL    HW277446   2.641   8.118   1.844 -0.8849  0.8222 -1.5224
24682SOL     OW77447   2.299   4.454   1.611  0.0624  0.3420 -0.2956
24682SOL    HW177448   2.242   4.390   1.569  0.3752 -0.3166  0.2677
24682SOL    HW277449   2.246   4.490   1.682  0.4443 -0.5216  0.4477
24683SOL     OW77450   4.319   1.980   0.001  0.5816 -0.1771 -0.3191
24683SOL    HW177451   4.377   2.032  -0.053  0.6476  2.6869  2.2450
24683SOL    HW277452   4.377   1.923   0.052  0.7493 -0.5432 -0.9104
24684SOL     OW77453  10.366   5.427  10.375  0.3519  0.0316 -0.6049
24684SOL    HW177454  10.359   5.461  10.286  2.0913 -0.5401 -0.9899
24684SOL    HW277455  10.444   5.371  10.374 -0.2067 -0.8458  1.0070
24685SOL     OW77456   4.012   2.700   2.076  0.0458 -0.1311  0.3130
24685SOL    HW177457   3.916   2.694   2.083 -0.1679  1.6171 -0.5210
24685SOL    HW277458   4.027   2.747   1.994  1.6921 -1.4592 -0.2023
24686SOL     OW77459   9.500   8.416   6.234 -0.8317  0.8100  0.5484
24686SOL    HW177460   9.542   8.472   6.300  1.2204 -0.3443  0.3087
24686SOL    HW277461   9.548   8.435   6.153 -1.0567 -0.2575  0.1579
24687SOL     OW77462   8.037   7.849   1.593 -0.0163  0.3227  0.3149
24687SOL    HW177463   8.063   7.782   1.656  2.0941  1.0442  0.2769
24687SOL    HW277464   8.077   7.930   1.626  0.2812  0.9022 -1.3932
24688SOL     OW77465   9.910   7.872   1.898  0.1369 -0.2934  0.8794
24688SOL    HW177466  10.005   7.863   1.892  0.4139  2.2103  0.4114
24688SOL    HW277467   9.880   7.872   1.807  0.1634  2.2575  0.7814
24689SOL     OW77468   8.370   5.504   4.418  0.1503 -0.1748  0.1639
24689SOL    HW177469   8.449   5.556   4.433  0.5306  0.2255 -2.7225
24689SOL    HW277470   8.306   5.566   4.385 -0.3986 -1.0066 -0.3807
24690SOL     OW77471   4.271   8.798   2.351  1.2115  0.1680 -0.0367
24690SOL    HW177472   4.277   8.871   2.413  1.2241 -0.3739  0.6142
24690SOL    HW277473   4.345   8.809   2.292  0.8425  1.0458 -0.3411
24691SOL     OW77474   8.063   5.983   1.245 -0.3847 -0.3620 -0.0331
24691SOL    HW177475   7.978   6.012   1.213 -0.8354 -2.0263 -0.4545
24691SOL    HW277476   8.088   5.912   1.186  0.8054 -0.5987  0.7239
24692SOL     OW77477   2.563   0.291   8.113 -0.2992  0.0459  0.8424
24692SOL    HW177478   2.508   0.353   8.066 -0.7381 -0.5205  0.5979
24692SOL    HW277479   2.502   0.239   8.165 -0.0841 -0.9860  0.1071
24693SOL     OW77480   3.368  10.581   3.441  0.1351  0.1627 -0.2350
24693SOL    HW177481   3.373  10.491   3.475  1.3580 -0.2011 -1.3150
24693SOL    HW277482   3.332  10.571   3.353  1.7642  0.5282 -0.9806
24694SOL     OW77483   1.972   7.039   8.899  0.2166  0.0687 -0.1135
24694SOL    HW177484   2.014   6.975   8.957  1.8083  0.8434 -0.3688
24694SOL    HW277485   1.957   6.991   8.818  1.2940 -0.0464 -0.2625
24695SOL     OW77486   8.356  10.862   3.051  0.0386 -0.6151 -0.8210
24695SOL    HW177487   8.336  10.908   3.132 -1.5068 -0.9498 -0.9716
24695SOL    HW277488   8.436  10.813   3.069 -2.1062 -3.5454  1.7593
24696SOL     OW77489   3.943  10.618  10.866  0.2514  0.1813 -0.2695
24696SOL    HW177490   3.882  10.610  10.792  0.3677  0.2709 -0.3760
24696SOL    HW277491   3.909  10.691  10.917 -1.0265 -1.1901  0.9049
24697SOL     OW77492   5.226   4.419   8.239 -0.8797 -0.3675  0.2231
24697SOL    HW177493   5.308   4.382   8.207 -0.8346 -0.1091  0.0365
24697SOL    HW277494   5.159   4.356   8.213 -0.5038 -1.8116  2.4405
24698SOL     OW77495   9.861   3.904   8.604  0.2025 -0.3325 -0.0434
24698SOL    HW177496   9.841   3.963   8.677 -0.4617 -1.7734  1.0015
24698SOL    HW277497   9.841   3.817   8.638 -1.6761 -0.9672 -2.4756
24699SOL     OW77498   0.352  10.780   3.167  0.0741 -0.0691  0.3410
24699SOL    HW177499   0.436  10.734   3.175  0.6477  1.0789  1.1467
24699SOL    HW277500   0.365  10.863   3.212 -1.1451  0.6277 -0.5147
24700SOL     OW77501   8.861   0.187   7.854 -0.3386 -0.4045  0.2039
24700SOL    HW177502   8.893   0.237   7.779 -0.6168 -0.6630 -0.0899
24700SOL    HW277503   8.767   0.203   7.855 -0.2110  0.4105  1.1035
24701SOL     OW77504   1.652   0.868   2.697  0.0241 -0.0212  0.2748
24701SOL    HW177505   1.739   0.828   2.696  0.4287  0.7694  1.6145
24701SOL    HW277506   1.616   0.847   2.611  1.0929 -1.3113  0.1009
24702SOL     OW77507   9.338   0.481   9.662 -0.2483 -0.5325 -0.1340
24702SOL    HW177508   9.353   0.560   9.611 -0.5203 -0.4973 -0.1635
24702SOL    HW277509   9.288   0.511   9.739  1.4083 -0.3428  0.9260
24703SOL     OW77510   6.567   3.837   3.856  0.1052  0.0755  0.3135
24703SOL    HW177511   6.551   3.863   3.765 -1.5858  1.4351  0.9287
24703SOL    HW277512   6.479   3.831   3.895  0.4899 -4.0397  1.0188
24704SOL     OW77513   9.041   5.838   4.048 -0.9002 -0.0547 -0.2102
24704SOL    HW177514   8.961   5.790   4.069 -0.7877 -0.2278 -0.1753
24704SOL    HW277515   9.035   5.918   4.100  0.5104 -1.5254  2.4375
24705SOL     OW77516   6.717   0.940   4.511 -0.1871  0.6525 -0.2440
24705SOL    HW177517   6.703   0.930   4.417 -2.0199  0.4976 -0.0106
24705SOL    HW277518   6.632   0.918   4.550  0.3760  1.2254  1.4143
24706SOL     OW77519   2.386   7.059   0.614  0.2796 -0.1424 -0.0643
24706SOL    HW177520   2.455   7.099   0.668 -1.0695  0.5218  1.2433
24706SOL    HW277521   2.305   7.077   0.662 -0.9736  0.2683 -2.1971
24707SOL     OW77522   7.732   5.986   4.939 -0.3334 -0.3400 -0.2041
24707SOL    HW177523   7.694   6.055   4.884 -1.9251  0.4287  1.7099
24707SOL    HW277524   7.705   5.904   4.897 -0.2265  0.2035 -1.3604
24708SOL     OW77525   3.246   1.573   6.735 -0.3612 -0.1539  0.5559
24708SOL    HW177526   3.174   1.519   6.766 -0.2466 -1.2787 -1.0683
24708SOL    HW277527   3.212   1.663   6.740 -1.6571 -0.6172  0.3341
24709SOL     OW77528  10.564   0.231   0.717 -0.1481  0.2712 -0.3038
24709SOL    HW177529  10.631   0.269   0.774  0.8144  0.7772 -1.7175
24709SOL    HW277530  10.612   0.201   0.640 -1.1598 -2.0207 -0.1224
24710SOL     OW77531   3.511   1.416   3.084 -0.1662 -0.5769 -0.3861
24710SOL    HW177532   3.450   1.378   3.020  0.0569 -1.4382 -0.0976
24710SOL    HW277533   3.464   1.411   3.167 -0.3319  0.2555 -0.4249
24711SOL     OW77534   9.213  10.706  10.739  0.3580 -0.1431 -0.0870
24711SOL    HW177535   9.231  10.613  10.730  1.9241  0.2351 -1.3974
24711SOL    HW277536   9.229  10.742  10.651  0.5836  1.4563  0.5712
24712SOL     OW77537   0.163   2.142   0.544  0.3551  0.2311  0.9095
24712SOL    HW177538   0.142   2.070   0.603  0.9614 -1.1443 -0.4936
24712SOL    HW277539   0.195   2.100   0.464  0.3057  2.0481 -0.1271
24713SOL     OW77540   7.611   4.378   8.273  0.0256  0.6612 -0.5489
24713SOL    HW177541   7.703   4.398   8.258  0.4386 -0.4884  0.2993
24713SOL    HW277542   7.591   4.308   8.211 -0.4418  1.2957 -1.1230
24714SOL     OW77543   7.750  10.398   8.531 -0.1778  0.1645  0.3982
24714SOL    HW177544   7.802  10.470   8.497  1.1256  0.0467  2.0194
24714SOL    HW277545   7.787  10.320   8.491  0.9373  0.0858  1.5044
24715SOL     OW77546   2.060   0.274   3.663 -0.4004  0.1610 -0.2332
24715SOL    HW177547   1.998   0.315   3.604  0.2321  2.0118  0.3236
24715SOL    HW277548   2.029   0.184   3.672 -1.4452  0.2980 -2.0436
24716SOL     OW77549   0.304   4.206   8.773  0.0911  0.4180 -0.7851
24716SOL    HW177550   0.284   4.138   8.708  2.0443  0.6214 -1.6738
24716SOL    HW277551   0.295   4.288   8.724 -2.2499  0.8799  0.2801
24717SOL     OW77552   2.594   6.640   0.132 -0.0246  0.1284  0.2604
24717SOL    HW177553   2.683   6.605   0.139 -0.1353 -0.2072  0.0304
24717SOL    HW277554   2.588   6.674   0.043  0.0377  0.6163  0.4404
24718SOL     OW77555   9.854   0.025   1.278  0.1055  0.3647  1.0256
24718SOL    HW177556   9.841   0.103   1.225  0.7564 -0.5145 -0.4701
24718SOL    HW277557   9.790  -0.038   1.245  1.3370 -0.6080  0.3888
24719SOL     OW77558  10.152   3.368  10.827 -0.4837  0.1350  0.1281
24719SOL    HW177559  10.225   3.404  10.878 -0.1072 -0.1606 -0.1951
24719SOL    HW277560  10.189   3.352  10.740 -1.0586  0.4102 -0.1678
24720SOL     OW77561   4.746   0.306   8.540  0.6799 -0.2907  0.1026
24720SOL    HW177562   4.785   0.255   8.468  0.0424  0.2380 -0.6340
24720SOL    HW277563   4.659   0.268   8.551 -0.0386  0.9933 -0.8665
24721SOL     OW77564   3.345   0.137   5.429 -0.2016  0.0064 -0.5337
24721SOL    HW177565   3.428   0.179   5.450 -1.2560  1.3931  1.1624
24721SOL    HW277566   3.361   0.043   5.443  0.2642  0.4712  3.2458
24722SOL     OW77567   6.350   1.534   8.390 -0.0198 -0.0819 -0.0543
24722SOL    HW177568   6.414   1.498   8.450  1.8403  0.6915 -1.4737
24722SOL    HW277569   6.382   1.511   8.303 -2.2292 -0.5412 -0.8243
24723SOL     OW77570   2.271   1.215   3.166 -0.4772  0.1638  0.1064
24723SOL    HW177571   2.190   1.237   3.120 -0.4329 -1.1921 -0.6807
24723SOL    HW277572   2.333   1.283   3.139 -1.4975  1.6013  1.2378
24724SOL     OW77573   8.181   7.453   0.445 -0.1066  0.1424 -0.3896
24724SOL    HW177574   8.237   7.466   0.368  1.4812  2.8007  1.0476
24724SOL    HW277575   8.173   7.540   0.484 -1.3010 -0.9918  2.1490
24725SOL     OW77576   5.459   0.366   4.919  0.2092 -0.0814  0.3321
24725SOL    HW177577   5.424   0.340   5.004  0.6708 -2.8610 -0.2542
24725SOL    HW277578   5.394   0.428   4.884 -0.3662  0.5143  2.3203
24726SOL     OW77579   0.841   5.248   3.463  0.1781 -0.1214 -0.0584
24726SOL    HW177580   0.752   5.215   3.479  0.4642 -0.9126 -0.0188
24726SOL    HW277581   0.838   5.339   3.491 -0.8628  0.1279 -0.9065
24727SOL     OW77582   7.507   5.448   0.061  0.2330 -0.2377  0.7685
24727SOL    HW177583   7.509   5.516  -0.006 -0.3727  0.4314  1.4197
24727SOL    HW277584   7.576   5.386   0.034  0.7363  0.5833  0.1291
24728SOL     OW77585   0.024   8.209   7.990  0.4458 -0.1473 -0.4768
24728SOL    HW177586  -0.028   8.129   7.981 -0.6725  0.7355 -2.4355
24728SOL    HW277587   0.099   8.196   7.933 -0.5499  0.7731 -2.0661
24729SOL     OW77588   4.918   7.247  10.270 -0.3463 -0.1487 -0.2385
24729SOL    HW177589   4.960   7.313  10.216 -1.3563  0.0200 -0.8480
24729SOL    HW277590   4.989   7.188  10.296  0.6394  1.3373  0.5983
24730SOL     OW77591   5.829   1.865   4.138 -0.0757 -0.5252  0.1106
24730SOL    HW177592   5.816   1.958   4.158 -2.0128 -0.9931  1.2363
24730SOL    HW277593   5.742   1.833   4.115 -0.1536 -2.7922  2.9995
24731SOL     OW77594   7.187   4.753   7.171 -0.2629  0.3885 -0.6977
24731SOL    HW177595   7.158   4.803   7.095  0.2155  0.4206 -0.8621
24731SOL    HW277596   7.153   4.665   7.155 -0.7617  0.5612 -0.6039
24732SOL     OW77597   5.661   3.645   1.487 -0.4434  0.0325  0.2578
24732SOL    HW177598   5.637   3.725   1.534  1.9751 -0.5321  2.7154
24732SOL    HW277599   5.631   3.574   1.544  3.2957 -0.6729  1.6127
24733SOL     OW77600   3.099   9.224  10.082  0.1546  0.1017 -0.0081
24733SOL    HW177601   3.051   9.144  10.063 -1.5414  1.1135 -0.2561
24733SOL    HW277602   3.130   9.213  10.172  0.4331 -1.0316 -0.2273
24734SOL     OW77603   8.749   1.192   3.837  0.3804  0.2057 -0.2356
24734SOL    HW177604   8.813   1.135   3.880  0.1663 -0.7333 -1.1275
24734SOL    HW277605   8.799   1.237   3.769  0.0853 -0.6300 -1.0223
24735SOL     OW77606   0.016   7.192   4.256 -0.0537 -0.2441  0.3795
24735SOL    HW177607   0.015   7.112   4.308  0.0778 -0.6075 -0.1739
24735SOL    HW277608  -0.048   7.249   4.299 -1.7904 -1.4484 -0.4874
24736SOL     OW77609  10.856   5.294   1.441 -0.0163  0.1298 -0.3106
24736SOL    HW177610  10.898   5.230   1.499 -2.9336  1.2822  3.4991
24736SOL    HW277611  10.785   5.245   1.400 -0.0160  0.0935 -0.2678
24737SOL     OW77612   0.688   6.740   3.414  0.1486 -0.0286  0.3195
24737SOL    HW177613   0.636   6.695   3.480  0.8199 -1.3967 -0.0654
24737SOL    HW277614   0.667   6.695   3.332  1.7834 -0.4989  0.1238
24738SOL     OW77615   9.506   5.891   6.975 -0.8114  0.4695  0.1149
24738SOL    HW177616   9.538   5.934   7.055 -1.6088  0.1333  0.6243
24738SOL    HW277617   9.434   5.835   7.005 -0.2052 -0.7448 -0.6357
24739SOL     OW77618   8.306   5.815   7.855  0.1086  0.1227 -0.2187
24739SOL    HW177619   8.294   5.793   7.947  1.4169  2.1033  0.5136
24739SOL    HW277620   8.396   5.788   7.835  0.3694  1.0723 -0.4276
24740SOL     OW77621   0.697   7.010  10.693  0.0698 -0.0537  0.3651
24740SOL    HW177622   0.774   7.012  10.635  0.2816  0.4255  0.6591
24740SOL    HW277623   0.653   6.928  10.671  0.3542 -0.0570 -0.2098
24741SOL     OW77624  10.622   8.607   7.410 -0.3128 -0.3335  0.7365
24741SOL    HW177625  10.583   8.562   7.485 -0.3460 -3.1665 -0.8694
24741SOL    HW277626  10.552   8.661   7.375 -0.0400  1.8393  3.1912
24742SOL     OW77627   8.405  10.808   9.337 -0.3862 -0.1087 -0.0856
24742SOL    HW177628   8.318  10.778   9.363 -0.5741  0.8241  0.4244
24742SOL    HW277629   8.411  10.898   9.372  1.5173 -0.8234  1.6661
24743SOL     OW77630   7.869   9.866   3.148 -0.0722 -0.1698 -0.1760
24743SOL    HW177631   7.798   9.899   3.093  0.0006  2.7384  1.3019
24743SOL    HW277632   7.843   9.887   3.237  0.4335 -3.5452  0.9144
24744SOL     OW77633   7.166   4.025   4.094 -0.2283 -0.4151 -0.0536
24744SOL    HW177634   7.083   3.990   4.128  0.2502 -1.3343  0.2090
24744SOL    HW277635   7.219   4.039   4.173  0.2078 -0.7574 -0.2817
24745SOL     OW77636   2.947   5.487   0.619  0.0067  0.5071  0.4622
24745SOL    HW177637   2.882   5.549   0.586 -0.2724 -0.0635 -0.0820
24745SOL    HW277638   3.027   5.508   0.570 -0.0022  0.6481  0.5088
24746SOL     OW77639   4.453   6.243   3.211 -0.0964 -0.0708 -0.3699
24746SOL    HW177640   4.427   6.326   3.172  0.3059  0.1958 -0.0756
24746SOL    HW277641   4.402   6.238   3.292  0.8520  0.5162  0.2760
24747SOL     OW77642   5.147   1.496   2.704 -0.1614  0.7172 -0.2565
24747SOL    HW177643   5.171   1.406   2.680 -1.3945 -0.0786  1.2993
24747SOL    HW277644   5.189   1.510   2.789  0.3781  1.7959 -0.6812
24748SOL     OW77645   3.742   6.437  10.258 -0.2748  0.5764 -0.7797
24748SOL    HW177646   3.822   6.404  10.216  1.9626  0.7319  2.8476
24748SOL    HW277647   3.690   6.358  10.274  0.4752  0.0725 -0.7474
24749SOL     OW77648   5.206   0.243   5.749  0.6625  0.0298  0.8189
24749SOL    HW177649   5.148   0.285   5.685 -0.3087 -1.3032  0.7786
24749SOL    HW277650   5.259   0.183   5.697  0.6012 -0.2927  1.1241
24750SOL     OW77651   8.025   3.084  10.382 -0.2477  1.0118 -0.8031
24750SOL    HW177652   8.042   3.025  10.309  1.2108 -0.5102  0.6843
24750SOL    HW277653   8.111   3.117  10.408 -0.7259  1.5061  0.2350
24751SOL     OW77654   5.819   9.645   3.890 -0.2196  0.2859  0.4686
24751SOL    HW177655   5.755   9.712   3.913 -1.8083 -1.4756  1.4816
24751SOL    HW277656   5.834   9.597   3.972  1.2033 -0.3351 -0.1204
24752SOL     OW77657   4.769   5.509   0.176  0.4661 -0.3675 -0.2616
24752SOL    HW177658   4.692   5.525   0.122  1.3601 -0.4811 -1.6106
24752SOL    HW277659   4.821   5.589   0.170  0.0388  0.0815  1.4170
24753SOL     OW77660   5.764   3.580   5.927 -0.2686 -0.4157  0.2852
24753SOL    HW177661   5.694   3.641   5.902  0.8851  0.2303 -1.5307
24753SOL    HW277662   5.721   3.495   5.935 -1.2171 -0.0844 -1.0838
24754SOL     OW77663   9.477   8.722   3.186  0.5964  0.0634  0.1962
24754SOL    HW177664   9.522   8.728   3.102  0.1389  0.4161 -0.0218
24754SOL    HW277665   9.411   8.654   3.173 -1.4109  2.0815 -0.6333
24755SOL     OW77666   8.781   9.678   2.194  0.0100 -0.0771  0.1152
24755SOL    HW177667   8.864   9.651   2.233 -0.6267  0.7138  2.1863
24755SOL    HW277668   8.803   9.756   2.143  1.0194 -1.6336 -1.9709
24756SOL     OW77669   7.504   0.474   5.457 -0.6581  0.4899  0.3818
24756SOL    HW177670   7.446   0.546   5.433 -0.4348  1.1224  1.6562
24756SOL    HW277671   7.556   0.458   5.379 -2.6970 -0.2743 -0.8965
24757SOL     OW77672  10.263   6.893   3.137  0.0855  0.3740  0.4125
24757SOL    HW177673  10.261   6.973   3.190 -0.2651  0.7845 -0.2021
24757SOL    HW277674  10.356   6.882   3.116  0.1642  0.4970  0.6812
24758SOL     OW77675   8.382   2.836   2.579 -0.0437 -0.7267 -0.0839
24758SOL    HW177676   8.439   2.806   2.508  2.2137  1.6921  0.5003
24758SOL    HW277677   8.315   2.889   2.535 -0.6569 -1.9162 -0.6231
24759SOL     OW77678   1.515   3.727   6.986 -0.0155  0.0054  0.3526
24759SOL    HW177679   1.509   3.736   7.081  2.2282 -1.0603  0.6656
24759SOL    HW277680   1.446   3.784   6.952  0.1341  1.6432  2.5638
24760SOL     OW77681   3.480   3.603   4.762 -0.1739 -0.6856  0.0483
24760SOL    HW177682   3.512   3.678   4.713  1.6721 -1.6241 -0.2542
24760SOL    HW277683   3.392   3.629   4.791  0.1888  1.3356 -0.5295
24761SOL     OW77684   9.132   7.412   1.767  0.1892 -0.3819 -0.4136
24761SOL    HW177685   9.151   7.352   1.839 -1.3123 -0.3331  0.0598
24761SOL    HW277686   9.190   7.486   1.781  0.4339 -0.7034  0.3168
24762SOL     OW77687   8.396   2.091   5.505  0.1051  0.2638  0.0040
24762SOL    HW177688   8.365   2.020   5.561  0.2345  1.8617  2.2324
24762SOL    HW277689   8.326   2.103   5.441 -1.0301 -0.3049  1.0838
24763SOL     OW77690   4.811   2.807   6.985  0.1563 -0.0622 -0.0219
24763SOL    HW177691   4.798   2.774   6.897  0.4980  0.0141 -0.1026
24763SOL    HW277692   4.793   2.901   6.979  1.3314  0.1550 -0.2682
24764SOL     OW77693   3.801   3.351   5.736  0.5753 -0.1587  0.0495
24764SOL    HW177694   3.850   3.271   5.719  1.6160  0.1161  1.5134
24764SOL    HW277695   3.867   3.412   5.772  0.1961  1.9261 -2.4548
24765SOL     OW77696   9.935   4.157   7.644  0.0514 -0.2166 -0.1369
24765SOL    HW177697   9.964   4.158   7.735 -2.2882  0.2779  0.6708
24765SOL    HW277698  10.005   4.200   7.596  0.0406  2.2555  1.8744
24766SOL     OW77699   1.005   9.127   8.175  0.3400  0.2296  0.1746
24766SOL    HW177700   1.012   9.054   8.237 -0.6448  1.5540  1.9705
24766SOL    HW277701   0.954   9.093   8.102 -0.7709 -0.6761  1.3374
24767SOL     OW77702   9.848   3.600   7.234  0.2333  0.3824  0.2532
24767SOL    HW177703   9.847   3.661   7.308  0.0136  0.9606 -0.2143
24767SOL    HW277704   9.876   3.654   7.160  0.1528 -0.1203 -0.1416
24768SOL     OW77705   0.653   5.322   2.569 -0.3021  0.1404  0.0147
24768SOL    HW177706   0.612   5.368   2.496 -1.0247 -0.0629  0.2884
24768SOL    HW277707   0.677   5.390   2.631  0.6675  0.3549 -0.5713
24769SOL     OW77708   9.427   3.907   9.813  1.0732  0.1402 -0.1769
24769SOL    HW177709   9.512   3.950   9.810  0.9151  0.5903  1.1443
24769SOL    HW277710   9.363   3.978   9.812  0.7822 -0.0804  0.9310
24770SOL     OW77711   4.313   8.343   6.185 -0.5165  0.1389  0.3063
24770SOL    HW177712   4.242   8.278   6.185 -0.5384  0.1524  1.3653
24770SOL    HW277713   4.268   8.426   6.201 -0.2649  0.1420  1.0193
24771SOL     OW77714   3.066   8.199   3.013 -0.0059  0.1159  0.8293
24771SOL    HW177715   3.123   8.265   3.054  0.3772  0.0053  0.4852
24771SOL    HW277716   3.019   8.159   3.086 -1.8777  2.2469  0.9123
24772SOL     OW77717   9.250   1.703   9.000 -0.0667  0.2461  0.0621
24772SOL    HW177718   9.303   1.627   8.979 -2.1559 -1.2190 -0.2053
24772SOL    HW277719   9.267   1.765   8.929 -0.1887 -0.9771 -1.0704
24773SOL     OW77720   4.086   4.979   2.029  0.3395 -0.0743 -0.2134
24773SOL    HW177721   4.137   4.996   1.950  0.9818 -0.3553  0.1353
24773SOL    HW277722   4.000   4.951   1.996 -0.0259  1.6186 -0.7949
24774SOL     OW77723   9.244   7.520   3.165 -0.0798  0.6789 -0.0814
24774SOL    HW177724   9.252   7.611   3.134  1.9609 -0.4460 -3.3004
24774SOL    HW277725   9.324   7.505   3.215  0.5838  0.1312 -1.2638
24775SOL     OW77726   1.549   4.253   4.136  0.5612 -0.1061 -0.2698
24775SOL    HW177727   1.512   4.295   4.213  0.2981 -1.2680  0.2663
24775SOL    HW277728   1.587   4.324   4.085  1.1420  0.6477  1.1578
24776SOL     OW77729   6.011   0.321   5.183 -0.5121 -0.0029  0.6708
24776SOL    HW177730   6.070   0.388   5.220  0.8495 -1.9339  2.2299
24776SOL    HW277731   6.030   0.322   5.089 -0.6513  1.8659  0.6211
24777SOL     OW77732   7.864   2.403   1.493 -0.3275  0.0699 -0.5605
24777SOL    HW177733   7.848   2.426   1.584  0.2304  1.5094 -0.8152
24777SOL    HW277734   7.923   2.328   1.498 -0.4883 -0.0174  0.2549
24778SOL     OW77735   1.480   2.913   8.197  0.3400 -0.3174 -0.0645
24778SOL    HW177736   1.542   2.959   8.142  1.5843 -0.5184  1.1126
24778SOL    HW277737   1.409   2.888   8.138  0.1806  2.0357 -0.9620
24779SOL     OW77738  10.743   6.906   7.489 -0.5449 -0.3811  0.3739
24779SOL    HW177739  10.812   6.850   7.455 -0.7938  0.4441 -1.6500
24779SOL    HW277740  10.788   6.988   7.514 -0.7006 -0.0224 -0.4884
24780SOL     OW77741   2.231   8.065   8.984 -0.1561 -0.0341  0.1604
24780SOL    HW177742   2.202   8.155   9.001 -0.2035  0.4223 -2.0899
24780SOL    HW277743   2.151   8.013   8.982 -0.4576  0.4384 -1.5233
24781SOL     OW77744   1.753  10.608   4.114  0.0976 -0.0644 -0.8776
24781SOL    HW177745   1.785  10.686   4.158 -1.8100  0.6477 -0.6693
24781SOL    HW277746   1.776  10.536   4.173 -1.4466  0.7569  0.8138
24782SOL     OW77747   3.390   0.393   8.461 -0.3606  0.1299 -0.5594
24782SOL    HW177748   3.395   0.371   8.555 -2.5321  2.0487  0.0745
24782SOL    HW277749   3.470   0.443   8.444 -1.0150  1.7621  0.8971
24783SOL     OW77750   6.876   0.801   2.418  0.3198  0.5585 -0.8666
24783SOL    HW177751   6.897   0.711   2.443  0.0504  0.4920 -0.8768
24783SOL    HW277752   6.830   0.793   2.334 -1.3070  0.5499 -0.0286
24784SOL     OW77753   1.982   8.063   7.464  0.6712 -0.4644 -0.4242
24784SOL    HW177754   2.031   8.135   7.424  0.1473  1.8003  2.6188
24784SOL    HW277755   1.891   8.086   7.450  0.4872  0.0641  1.3960
24785SOL     OW77756   2.269   1.833   9.881 -0.1444  0.3456  0.1064
24785SOL    HW177757   2.322   1.904   9.845 -0.6430 -0.0425 -1.4806
24785SOL    HW277758   2.271   1.847   9.976  2.6321  0.4233  0.0929
24786SOL     OW77759   4.827   7.305   8.855 -0.1627  0.0188 -0.1185
24786SOL    HW177760   4.817   7.356   8.774  0.6452  1.6910  0.7716
24786SOL    HW277761   4.919   7.314   8.877  0.0575 -2.0693 -0.0102
24787SOL     OW77762   1.078   0.661   5.543 -0.3421 -0.2282 -0.3039
24787SOL    HW177763   1.080   0.574   5.503  0.0687 -0.7862  0.8842
24787SOL    HW277764   0.991   0.667   5.582 -0.6960  0.2645 -1.1472
24788SOL     OW77765   9.065  10.766   2.900  0.3836  0.7437 -0.4053
24788SOL    HW177766   9.040  10.803   2.816  0.8653  1.3710 -0.2779
24788SOL    HW277767   9.015  10.685   2.906  0.3074  0.7150 -1.2724
24789SOL     OW77768   9.364   8.869   8.952 -0.1908  0.7623 -0.5568
24789SOL    HW177769   9.419   8.946   8.963  0.3567  0.2939  0.0188
24789SOL    HW277770   9.410   8.815   8.887  0.1701  0.2534  0.1114
24790SOL     OW77771   8.177   7.161   8.322  0.4356  0.3007  0.4618
24790SOL    HW177772   8.150   7.203   8.403 -0.0872 -1.4438  1.2387
24790SOL    HW277773   8.181   7.232   8.258 -0.1895  1.5385  1.7515
24791SOL     OW77774   1.863   6.842   9.272 -0.6320  0.4826  0.0353
24791SOL    HW177775   1.802   6.778   9.308 -1.0772  0.0955 -1.3500
24791SOL    HW277776   1.885   6.898   9.346 -0.9475 -0.7036  1.0683
24792SOL     OW77777  10.735   5.194   9.165  0.0400  0.3345  0.2244
24792SOL    HW177778  10.827   5.183   9.144  0.4478  2.0622  0.9247
24792SOL    HW277779  10.734   5.260   9.235 -1.6346 -0.7473  1.3029
24793SOL     OW77780  10.371   3.698   6.652  0.1691  0.3275  0.1036
24793SOL    HW177781  10.409   3.636   6.714 -1.5000  2.7980  4.0007
24793SOL    HW277782  10.408   3.783   6.678 -0.5682  1.5097 -2.4355
24794SOL     OW77783   1.060   8.957   7.799 -0.4541  0.0841 -0.0075
24794SOL    HW177784   1.120   8.978   7.871  0.7925 -2.3923 -0.2168
24794SOL    HW277785   0.974   8.949   7.841  0.2544 -1.3744  1.2944
24795SOL     OW77786   7.818   5.425   7.145 -0.1007 -0.0470  0.8686
24795SOL    HW177787   7.904   5.450   7.179  0.4230 -0.8794  0.1795
24795SOL    HW277788   7.820   5.450   7.053 -0.1603 -1.1272  0.5658
24796SOL     OW77789   3.244   8.455   5.288  0.2427  0.0270  0.0145
24796SOL    HW177790   3.209   8.406   5.362 -0.6875  1.9653  0.9427
24796SOL    HW277791   3.312   8.512   5.327  0.1477  0.6484 -0.7094
24797SOL     OW77792   0.584   1.824   4.105  0.1190  0.5220  0.4960
24797SOL    HW177793   0.650   1.815   4.037 -0.7614 -0.9854 -0.2178
24797SOL    HW277794   0.581   1.918   4.124  1.4316  0.7778 -0.4643
24798SOL     OW77795   1.913   1.837   9.128 -0.5129  0.3036  0.1268
24798SOL    HW177796   1.964   1.756   9.127 -0.5643  0.1660  2.6017
24798SOL    HW277797   1.974   1.904   9.159 -0.4506  1.2999 -1.9702
24799SOL     OW77798   5.401   6.153   1.049  0.4532  0.0304  0.2453
24799SOL    HW177799   5.475   6.134   0.992  0.5032  1.0683 -0.0611
24799SOL    HW277800   5.326   6.159   0.990  0.3294  0.1086  0.4080
24800SOL     OW77801   6.437   1.335   3.698  0.0565  0.1891  0.8322
24800SOL    HW177802   6.512   1.322   3.756  1.9831  2.9860 -0.8217
24800SOL    HW277803   6.401   1.420   3.724 -0.5481  0.3625 -0.4781
24801SOL     OW77804   0.344   4.843   2.504  0.7076 -0.4099  0.2422
24801SOL    HW177805   0.372   4.767   2.554 -0.3259 -1.3623 -0.5854
24801SOL    HW277806   0.249   4.842   2.508  0.6163 -0.1319 -1.1749
24802SOL     OW77807  10.360  10.743   8.550 -0.1566 -0.9899  0.1937
24802SOL    HW177808  10.300  10.812   8.522  1.6673  0.3046 -0.7387
24802SOL    HW277809  10.404  10.779   8.626  1.4531 -0.6807 -0.8275
24803SOL     OW77810   5.806   3.666  10.089  0.4797 -0.2744 -0.3823
24803SOL    HW177811   5.759   3.641  10.010  0.5643 -1.1390 -0.1718
24803SOL    HW277812   5.862   3.739  10.062 -0.1999  0.0738 -0.8809
24804SOL     OW77813   0.949   2.121   3.308 -0.6072 -0.2909  0.1231
24804SOL    HW177814   1.002   2.165   3.375 -1.3307 -0.4171  0.8071
24804SOL    HW277815   1.002   2.048   3.278 -0.2778 -0.2498  0.5953
24805SOL     OW77816   8.086   3.925   6.206 -0.2162 -0.0221  0.2770
24805SOL    HW177817   8.091   3.873   6.126 -1.7410 -0.5560  0.4902
24805SOL    HW277818   8.030   3.999   6.183 -0.9744 -0.3761  0.9201
24806SOL     OW77819   3.162   2.855   3.874  0.6123  0.5033 -0.3184
24806SOL    HW177820   3.245   2.867   3.827  0.9143  1.3314  0.4031
24806SOL    HW277821   3.177   2.893   3.960 -0.0143 -0.7893  0.3878
24807SOL     OW77822   4.665   5.048   6.873  0.0041  0.9339 -0.1529
24807SOL    HW177823   4.628   4.974   6.825 -1.5488  1.7064 -0.2371
24807SOL    HW277824   4.673   5.017   6.963 -0.7050  0.6751 -0.1709
24808SOL     OW77825   9.409   7.160   8.455 -0.1365  0.2769 -0.3460
24808SOL    HW177826   9.441   7.111   8.379  0.8248 -2.0698  1.4723
24808SOL    HW277827   9.483   7.162   8.516 -1.8254 -0.8320  1.8862
24809SOL     OW77828   4.146   2.344   1.027 -0.0834  0.0611  0.0923
24809SOL    HW177829   4.215   2.338   0.961  1.0248 -1.2388  1.3053
24809SOL    HW277830   4.148   2.436   1.055  0.1677  0.3699 -0.8988
24810SOL     OW77831   9.618   7.028  10.422  0.2604 -0.2141  0.2403
24810SOL    HW177832   9.597   7.090  10.351 -1.3963 -0.9579  0.0226
24810SOL    HW277833   9.597   7.077  10.502 -1.8389 -0.6720  0.0497
24811SOL     OW77834   2.778   4.295  10.452  0.1205 -0.0518  0.1453
24811SOL    HW177835   2.848   4.358  10.471 -0.7834  1.0268  0.0427
24811SOL    HW277836   2.758   4.309  10.359  0.1598 -0.7689  0.0209
24812SOL     OW77837   0.764   2.488   1.493 -0.2015 -0.6687 -0.1690
24812SOL    HW177838   0.763   2.467   1.400 -0.6927  0.1374 -0.3633
24812SOL    HW277839   0.838   2.439   1.529 -0.4397 -1.5440 -0.8436
24813SOL     OW77840   8.274   8.079   3.821 -0.7889 -0.1739  0.1356
24813SOL    HW177841   8.335   8.072   3.895 -2.3924  0.2060  1.5552
24813SOL    HW277842   8.326   8.051   3.745  0.8922 -0.6845  1.3958
24814SOL     OW77843  10.114   9.940   0.206  0.0386 -0.2823 -0.3415
24814SOL    HW177844  10.204   9.916   0.185 -0.1301 -1.2703 -0.0184
24814SOL    HW277845  10.064   9.859   0.193 -0.4319 -0.3564  1.6290
24815SOL     OW77846   8.557   7.193   6.688 -0.0647 -0.1936  0.4184
24815SOL    HW177847   8.541   7.273   6.738  2.7653  0.2064  0.8211
24815SOL    HW277848   8.576   7.127   6.755 -3.3789 -1.6373  0.1755
24816SOL     OW77849   7.888   4.800   6.979  0.5815  0.5018 -0.3713
24816SOL    HW177850   7.850   4.816   7.066  2.7747 -0.0751  0.7653
24816SOL    HW277851   7.973   4.844   6.982  1.8976 -1.8260 -1.2035
24817SOL     OW77852   9.423   2.378   4.906 -0.4047  0.3730  0.0736
24817SOL    HW177853   9.405   2.312   4.973  0.6494  1.0340  1.0492
24817SOL    HW277854   9.457   2.453   4.955  0.4577  0.8583 -1.2202
24818SOL     OW77855   1.745   2.898   4.796  0.4806 -0.1748  0.4444
24818SOL    HW177856   1.771   2.808   4.778 -0.1489  0.1665 -2.7520
24818SOL    HW277857   1.649   2.897   4.793  0.4806  0.6967 -0.3606
24819SOL     OW77858   6.960   9.404   4.897 -0.4914 -0.0386 -0.4600
24819SOL    HW177859   7.023   9.356   4.844 -0.8206 -0.4206 -0.5097
24819SOL    HW277860   6.931   9.342   4.964  1.2469  0.9516  1.3214
24820SOL     OW77861  10.883   6.619   0.993  0.4777  0.0340  0.1825
24820SOL    HW177862  10.839   6.551   0.942  2.4168 -0.2099 -1.2687
24820SOL    HW277863  10.902   6.688   0.931 -0.0894  1.2738  1.3313
24821SOL     OW77864   2.720   3.693   8.296 -0.0781  0.3071 -0.3632
24821SOL    HW177865   2.695   3.716   8.207 -0.2795  0.2625 -0.3175
24821SOL    HW277866   2.752   3.603   8.290 -1.1254 -0.0854 -0.2019
24822SOL     OW77867   4.297   4.760   9.215 -0.4587  0.2295  0.8900
24822SOL    HW177868   4.331   4.829   9.158 -0.8759  0.8739  1.4010
24822SOL    HW277869   4.370   4.740   9.274  0.0187 -0.5313  0.0759
24823SOL     OW77870   1.838   1.721   8.867  0.0704 -0.1685  0.4286
24823SOL    HW177871   1.847   1.792   8.930  0.3201 -0.1010  0.3186
24823SOL    HW277872   1.822   1.764   8.784  1.5239 -0.1683  0.1098
24824SOL     OW77873   7.036   7.703   9.947 -0.3199  0.7780 -0.4376
24824SOL    HW177874   6.986   7.782   9.970 -0.8330  0.0369  1.1168
24824SOL    HW277875   7.000   7.678   9.861  0.6185  2.8010 -1.5036
24825SOL     OW77876   1.996  10.306  10.161 -0.1539  0.2467  0.0928
24825SOL    HW177877   2.042  10.354  10.230  0.0373  0.1103  0.0601
24825SOL    HW277878   2.010  10.214  10.182 -0.6596  0.2026  0.2473
24826SOL     OW77879   1.335   2.940   8.695 -0.0959  0.9094 -0.1392
24826SOL    HW177880   1.398   2.911   8.630 -0.4397  0.4520 -0.2793
24826SOL    HW277881   1.380   2.931   8.779 -0.1688  0.0003 -0.1828
24827SOL     OW77882   3.499   7.171   2.997 -0.7736 -0.2070  0.0072
24827SOL    HW177883   3.512   7.077   3.011  0.6474  0.2451  2.2522
24827SOL    HW277884   3.574   7.197   2.944 -1.1298 -0.3188 -0.5558
24828SOL     OW77885   4.585   1.258   7.943 -0.0579  0.3356  0.0228
24828SOL    HW177886   4.670   1.271   7.901 -0.0116 -0.2397 -0.0777
24828SOL    HW277887   4.606   1.223   8.030 -0.1760  0.6502  0.1764
24829SOL     OW77888   4.468   8.053   0.271 -1.0534 -0.0156  0.4837
24829SOL    HW177889   4.398   8.068   0.208 -0.7298  1.7236  0.4659
24829SOL    HW277890   4.425   8.060   0.357 -1.6714 -3.2989  0.5556
24830SOL     OW77891   9.397   3.860   7.566  0.2860 -0.8804 -0.3605
24830SOL    HW177892   9.456   3.785   7.569  0.0777 -1.0385 -0.1194
24830SOL    HW277893   9.383   3.882   7.658 -0.6056 -1.3012 -0.3851
24831SOL     OW77894   4.195   8.163   9.476  0.0383  0.3549  0.6827
24831SOL    HW177895   4.248   8.103   9.423  1.8563  2.0843  0.4230
24831SOL    HW277896   4.105   8.145   9.448  0.7925  0.1102 -1.8832
24832SOL     OW77897   7.126   5.199   8.653  0.7117  0.1933  0.1163
24832SOL    HW177898   7.201   5.247   8.618  1.8211 -1.2196  0.4571
24832SOL    HW277899   7.136   5.206   8.748  0.8894 -0.6844  0.1691
24833SOL     OW77900   6.591   8.403   4.316  0.2605 -0.3206 -0.6625
24833SOL    HW177901   6.602   8.468   4.386  1.1417  0.2678 -1.3284
24833SOL    HW277902   6.582   8.320   4.363  3.6711 -0.3724  0.1868
24834SOL     OW77903  10.735   5.807   1.826  0.2613 -0.5031 -0.1258
24834SOL    HW177904  10.726   5.899   1.851 -0.6725 -0.4659 -0.5510
24834SOL    HW277905  10.823   5.801   1.790 -0.1060  0.5446 -1.2894
24835SOL     OW77906   0.676   0.319  10.844  0.6620 -0.8558  0.1982
24835SOL    HW177907   0.756   0.266  10.845  0.4465 -1.1992 -0.2175
24835SOL    HW277908   0.611   0.264  10.887  0.7134 -0.4663  0.7782
24836SOL     OW77909   8.703   2.176   8.619  0.4921  0.4608 -0.2314
24836SOL    HW177910   8.657   2.255   8.645  0.8352  0.5803  0.0278
24836SOL    HW277911   8.740   2.141   8.701  3.1608  1.8498 -0.7277
24837SOL     OW77912   0.063   2.489   2.633  0.1324  0.2507 -0.4633
24837SOL    HW177913   0.157   2.479   2.646  0.2197  0.7012 -0.7465
24837SOL    HW277914   0.044   2.434   2.556  0.3915  1.1877 -1.2138
24838SOL     OW77915   0.067   8.004  10.455  0.1213  0.1832  0.3414
24838SOL    HW177916   0.002   7.938  10.430 -0.2826 -0.2043  2.2422
24838SOL    HW277917   0.129   7.957  10.510  1.8293  0.6579 -1.0818
24839SOL     OW77918   9.381   9.557   5.050 -0.4705  0.2309  0.4470
24839SOL    HW177919   9.351   9.611   5.123 -1.5793 -0.8152  0.8002
24839SOL    HW277920   9.416   9.478   5.091  1.8270  0.9539 -0.0275
24840SOL     OW77921   8.210   5.919   9.976  0.0632 -0.9197  0.2997
24840SOL    HW177922   8.124   5.956   9.952  0.5011 -0.4928 -0.6568
24840SOL    HW277923   8.219   5.842   9.920  0.3054 -0.9572  0.3912
24841SOL     OW77924   7.039   8.650   9.236 -0.3041 -0.4815 -0.3846
24841SOL    HW177925   7.021   8.557   9.222  0.6605 -0.6660 -0.4854
24841SOL    HW277926   7.026   8.663   9.330  0.9563 -1.0644 -0.1070
24842SOL     OW77927   6.792   3.568   3.512  0.0691 -0.1293 -0.8354
24842SOL    HW177928   6.715   3.512   3.503  0.6720 -0.9049 -1.2753
24842SOL    HW277929   6.759   3.657   3.500 -0.8495 -0.4048 -0.4145
24843SOL     OW77930   7.586   3.223   9.208 -0.6647  0.5631  0.4181
24843SOL    HW177931   7.499   3.183   9.199 -0.5501 -0.5749  3.3366
24843SOL    HW277932   7.635   3.190   9.133 -2.1508 -0.4647 -0.1546
24844SOL     OW77933   4.020   5.730   8.700 -0.0663 -0.1789  0.2941
24844SOL    HW177934   4.036   5.666   8.769 -0.6580 -0.4674  0.1702
24844SOL    HW277935   4.043   5.685   8.619 -1.1829 -0.4970  0.1424
24845SOL     OW77936   3.695   9.850   2.292 -0.5952 -0.0750  0.0049
24845SOL    HW177937   3.667   9.909   2.221 -0.5848 -0.3634 -0.2378
24845SOL    HW277938   3.688   9.762   2.255 -1.6371 -0.3073  0.6998
24846SOL     OW77939   7.513   6.076   0.313  0.2290 -0.5694  0.0230
24846SOL    HW177940   7.541   6.110   0.229  0.3031  2.7351  1.2481
24846SOL    HW277941   7.419   6.061   0.302  0.0531  0.7320 -0.4081
24847SOL     OW77942   3.680   6.480   4.672  0.0630 -0.1705  0.1219
24847SOL    HW177943   3.650   6.507   4.585 -2.5068 -0.4260  0.8495
24847SOL    HW277944   3.713   6.560   4.712 -0.8070  0.4134 -0.3044
24848SOL     OW77945   9.697   2.181  10.117 -0.1272  0.3183 -0.5500
24848SOL    HW177946   9.751   2.246  10.162 -1.6148  1.5269 -0.4624
24848SOL    HW277947   9.693   2.107  10.178 -0.7671  1.2833  0.6066
24849SOL     OW77948   9.888   2.002   0.028  0.1259 -0.0180 -0.0374
24849SOL    HW177949   9.904   1.984   0.121 -0.0157 -0.2787 -0.0640
24849SOL    HW277950   9.812   1.949   0.006 -2.2684  2.9124  0.6519
24850SOL     OW77951   9.888   8.814   4.746  0.4631 -0.1473  0.3357
24850SOL    HW177952   9.946   8.885   4.773  0.3796 -0.5084  1.5608
24850SOL    HW277953   9.894   8.750   4.818 -0.9618 -0.4794  0.1931
24851SOL     OW77954   1.684   0.292   3.004 -0.2330 -0.0870  0.6482
24851SOL    HW177955   1.719   0.337   2.927  0.6160 -0.4109  0.8337
24851SOL    HW277956   1.625   0.226   2.969 -0.8420  0.5995  0.3381
24852SOL     OW77957   2.808   5.286   6.505  0.4480  0.1817  0.2548
24852SOL    HW177958   2.788   5.268   6.597  0.2629  0.4701  0.2682
24852SOL    HW277959   2.786   5.378   6.492  0.6109  0.1813 -0.0422
24853SOL     OW77960   4.522   4.547  10.118  0.1985  0.0693  0.1651
24853SOL    HW177961   4.542   4.482  10.185  0.1648  1.3409  1.4586
24853SOL    HW277962   4.488   4.622  10.166  1.0723  1.4000 -1.1805
24854SOL     OW77963   1.852   1.527   3.162 -0.0299 -0.3701  0.4329
24854SOL    HW177964   1.830   1.615   3.192 -0.1378 -0.6371  1.1545
24854SOL    HW277965   1.947   1.525   3.162 -0.0217 -0.0944 -0.0657
24855SOL     OW77966  10.186   7.338  10.057  0.0184 -0.2070 -0.2050
24855SOL    HW177967  10.251   7.273  10.031 -0.1709 -0.2563 -0.5490
24855SOL    HW277968  10.125   7.343   9.984 -0.6997 -0.5871  0.3476
24856SOL     OW77969   4.047   4.991   2.385 -0.1458 -0.1440  0.1873
24856SOL    HW177970   4.134   4.975   2.422 -0.9521 -0.7283  1.9373
24856SOL    HW277971   4.003   4.906   2.389 -0.1250 -0.4125 -2.7540
24857SOL     OW77972   9.583   5.216   4.933 -0.2263  0.0346  0.3911
24857SOL    HW177973   9.575   5.273   5.009  0.2328  1.0225 -0.2749
24857SOL    HW277974   9.499   5.171   4.928 -0.2003 -0.1649  1.5698
24858SOL     OW77975   8.318   0.526   5.715  0.4435 -0.2492  0.0789
24858SOL    HW177976   8.367   0.587   5.771  2.4813 -0.3784 -1.4649
24858SOL    HW277977   8.355   0.440   5.736  1.3850 -0.2718 -1.5878
24859SOL     OW77978   4.050   1.907   8.115  0.7581 -0.2213  0.0641
24859SOL    HW177979   4.066   1.901   8.021  0.2005 -0.6348 -0.0116
24859SOL    HW277980   4.077   1.822   8.149  0.6897 -0.1740  0.2380
24860SOL     OW77981   5.461   9.673   0.951  0.1860 -0.3213 -0.0994
24860SOL    HW177982   5.396   9.625   1.002  0.5894  0.8117  1.5822
24860SOL    HW277983   5.485   9.613   0.880 -3.1770 -0.5109 -1.2547
24861SOL     OW77984   9.351   3.583   0.159  0.2030 -0.5083 -0.0199
24861SOL    HW177985   9.420   3.620   0.214 -1.1174 -0.2928  1.5828
24861SOL    HW277986   9.354   3.489   0.178 -0.7200 -0.3432  1.0079
24862SOL     OW77987   1.924   9.869   7.750  0.2425  0.0501 -0.2227
24862SOL    HW177988   1.857   9.906   7.693 -0.4103  1.2674  1.2489
24862SOL    HW277989   1.893   9.781   7.770 -0.5055  0.3146 -0.1981
24863SOL     OW77990   4.128   1.983   6.336 -0.2609 -0.2155  0.2322
24863SOL    HW177991   4.059   1.999   6.272 -0.6164 -0.4404  0.5596
24863SOL    HW277992   4.100   1.905   6.383 -0.3383  0.3385  1.1298
24864SOL     OW77993   5.071   2.449   4.621  0.1288  0.1493 -0.2574
24864SOL    HW177994   5.126   2.526   4.605  0.6097  0.1077  1.0778
24864SOL    HW277995   4.983   2.484   4.629  0.0967  0.3457 -1.3563
24865SOL     OW77996   7.317   4.860   9.044 -0.2695  0.4216 -0.7771
24865SOL    HW177997   7.333   4.841   9.136 -0.8345 -2.5945 -1.2033
24865SOL    HW277998   7.228   4.895   9.043 -0.5814 -0.3137 -0.2285
24866SOL     OW77999   1.752   8.765   7.040  0.3888 -0.3775  0.2545
24866SOL    HW178000   1.702   8.791   7.117  1.9216  0.4471  1.0133
24866SOL    HW278001   1.745   8.839   6.980  2.6112  0.8208  1.3553
24867SOL     OW78002   7.176   1.047   6.435  0.3377  0.1432 -0.2816
24867SOL    HW178003   7.110   0.981   6.413  1.7687 -1.3139 -0.3818
24867SOL    HW278004   7.132   1.103   6.500 -1.4989  0.1742 -1.4743
24868SOL     OW78005   6.275   6.408   9.598  0.4867 -0.6377  0.2017
24868SOL    HW178006   6.330   6.377   9.670 -0.1115  0.1514  1.0224
24868SOL    HW278007   6.197   6.352   9.602  0.3567 -0.4523  0.3203
24869SOL     OW78008   6.814   0.940   1.115  0.0655  0.8888 -0.2215
24869SOL    HW178009   6.889   0.886   1.141 -0.1702 -0.3495 -1.9971
24869SOL    HW278010   6.754   0.934   1.189  0.0376 -1.3462 -0.3621
24870SOL     OW78011   1.785   4.419   4.626 -0.3958 -0.5335  0.1920
24870SOL    HW178012   1.878   4.403   4.644 -0.9325 -1.9162  1.9608
24870SOL    HW278013   1.770   4.509   4.655  0.6045  0.1371 -1.2146
24871SOL     OW78014   6.810   9.797   9.245  0.0039  0.4996  0.2707
24871SOL    HW178015   6.757   9.728   9.285  0.6629  0.8069  1.7183
24871SOL    HW278016   6.790   9.790   9.151 -2.1551  0.2656  0.6913
24872SOL     OW78017  10.421   2.212   1.093  0.1734  0.0740  0.8067
24872SOL    HW178018  10.441   2.151   1.022 -2.5135  1.4453 -1.3250
24872SOL    HW278019  10.363   2.162   1.151  0.5531 -0.3698  0.8125
24873SOL     OW78020  10.575   8.268   0.730 -0.2777  0.1618  0.5419
24873SOL    HW178021  10.656   8.229   0.699  0.2475 -0.6322  2.7140
24873SOL    HW278022  10.551   8.215   0.806 -1.3739  2.0136  1.5510
24874SOL     OW78023   6.056  10.643   4.576  0.3208 -0.8272 -0.2608
24874SOL    HW178024   6.115  10.689   4.635  0.1137 -2.2346  1.1024
24874SOL    HW278025   6.095  10.654   4.490  0.6510  1.2475  0.0924
24875SOL     OW78026   3.196   5.157   0.507  0.1118 -0.2455  0.0983
24875SOL    HW178027   3.278   5.108   0.500 -0.3579 -1.0172 -0.0478
24875SOL    HW278028   3.224   5.247   0.524  0.9984 -0.4203 -0.3807
24876SOL     OW78029   1.151   6.359   5.448  0.2641  0.2634  0.2077
24876SOL    HW178030   1.121   6.444   5.480 -0.5041  1.3879 -3.0555
24876SOL    HW278031   1.103   6.296   5.501 -0.4454  1.8812  1.6162
24877SOL     OW78032  10.202   7.987  10.090  0.3487  0.1365  0.1928
24877SOL    HW178033  10.297   7.973  10.093  0.2515 -0.4899  0.5138
24877SOL    HW278034  10.186   8.059  10.151  1.0175  2.7389 -2.4960
24878SOL     OW78035  10.651   8.875   1.656 -0.2615  0.4547 -0.5027
24878SOL    HW178036  10.685   8.871   1.745 -1.3470  2.0853  0.0265
24878SOL    HW278037  10.565   8.833   1.660 -0.1306  0.1282 -0.9066
24879SOL     OW78038   4.733   4.818   9.734 -0.2423  0.0898 -0.1211
24879SOL    HW178039   4.698   4.808   9.823 -2.3379  0.1063 -0.9040
24879SOL    HW278040   4.759   4.910   9.729  1.5566 -0.2933  0.9935
24880SOL     OW78041   3.502   9.824   8.373  0.0583  0.2035  0.0873
24880SOL    HW178042   3.466   9.742   8.405 -0.3243  0.2565 -0.2015
24880SOL    HW278043   3.460   9.838   8.288  2.2360 -0.7557 -1.2336
24881SOL     OW78044   6.685   1.997   0.599 -0.4922  0.8160  0.4132
24881SOL    HW178045   6.752   2.033   0.541  0.0519 -0.3053  0.3111
24881SOL    HW278046   6.622   1.955   0.540 -0.4251  0.4701  0.5864
24882SOL     OW78047   2.328   6.878   6.046 -0.1767  0.0801 -0.1609
24882SOL    HW178048   2.332   6.954   6.103 -0.2132  1.7112 -2.2245
24882SOL    HW278049   2.238   6.847   6.052 -0.1535  0.1502  0.6997
24883SOL     OW78050   8.552   9.548  10.830  0.6087 -0.7355  0.4910
24883SOL    HW178051   8.564   9.586  10.743 -0.7610 -0.3626  0.4461
24883SOL    HW278052   8.498   9.470  10.815 -1.2404  0.3509  1.1810
24884SOL     OW78053   5.302   8.010   5.152 -0.0087  0.1265 -0.1162
24884SOL    HW178054   5.243   7.996   5.226 -0.2794  0.1062 -0.3339
24884SOL    HW278055   5.385   8.037   5.192  0.1996 -1.0136  0.2531
24885SOL     OW78056   5.757   6.985   2.174 -0.2985 -0.1425  0.0767
24885SOL    HW178057   5.733   7.017   2.261 -0.1169 -0.1170  0.1182
24885SOL    HW278058   5.851   7.001   2.168 -0.3256 -0.0614 -0.1581
24886SOL     OW78059   5.400   4.097   2.972  0.3815 -0.3593  0.5882
24886SOL    HW178060   5.481   4.085   3.022  1.9141  2.7796 -0.8128
24886SOL    HW278061   5.427   4.094   2.880 -1.1109  0.5257  0.0761
24887SOL     OW78062   4.996   8.236   2.987  0.0650  0.2425 -0.2379
24887SOL    HW178063   5.001   8.141   2.971 -3.3968 -0.1702  0.4931
24887SOL    HW278064   5.007   8.274   2.900  0.8347 -0.8448 -0.6509
24888SOL     OW78065   5.647   0.155   7.692  0.2279  0.4468  0.1747
24888SOL    HW178066   5.553   0.172   7.691 -0.1491 -1.4295 -0.0519
24888SOL    HW278067   5.671   0.158   7.784  0.4725  3.3208  0.0859
24889SOL     OW78068   7.501   6.436   3.836 -0.3329 -0.8169 -0.5902
24889SOL    HW178069   7.594   6.439   3.816 -0.3086  0.5035 -0.3373
24889SOL    HW278070   7.464   6.513   3.793 -0.9347 -0.1224  1.0819
24890SOL     OW78071   5.398   2.174   1.316  0.3508  0.1720 -0.1118
24890SOL    HW178072   5.490   2.150   1.328  0.7122  0.2266 -2.4055
24890SOL    HW278073   5.349   2.095   1.338  0.7846  0.5213  2.4347
24891SOL     OW78074   8.723   5.065  10.398 -0.6498  0.1746  0.1170
24891SOL    HW178075   8.816   5.085  10.414 -0.5516  0.0686 -0.3067
24891SOL    HW278076   8.699   5.123  10.326 -0.7197 -0.3088 -0.2511
24892SOL     OW78077   2.467   4.237   8.811  0.2119 -0.0989 -0.0880
24892SOL    HW178078   2.494   4.149   8.785  1.6850  0.8123 -1.8804
24892SOL    HW278079   2.520   4.258   8.887  1.4794  0.0345 -0.9862
24893SOL     OW78080   3.845   9.472   3.100  0.2859 -0.4903  0.3139
24893SOL    HW178081   3.925   9.461   3.151  0.5182  1.4466  0.4602
24893SOL    HW278082   3.874   9.475   3.009  0.3334 -0.2579  0.3356
24894SOL     OW78083   9.066   7.224  10.883 -0.4202 -0.3270 -0.4743
24894SOL    HW178084   9.064   7.279  10.805  0.7213 -0.9049 -0.9209
24894SOL    HW278085   9.156   7.229  10.914 -0.9712  0.3364  1.1458
24895SOL     OW78086   3.398   3.661   3.798 -0.0179 -0.2027  0.1132
24895SOL    HW178087   3.317   3.703   3.770 -2.8997 -5.6703 -1.2654
24895SOL    HW278088   3.454   3.664   3.720 -0.1596  0.9458  0.0442
24896SOL     OW78089   9.496   6.666   9.139 -0.4247 -0.0005 -0.3577
24896SOL    HW178090   9.482   6.573   9.119 -0.2041 -0.5983  1.9013
24896SOL    HW278091   9.553   6.665   9.216 -2.2296  1.9443  1.1257
24897SOL     OW78092   0.818   2.843   7.399 -0.2514 -0.1785  0.6171
24897SOL    HW178093   0.766   2.824   7.478 -1.0619 -1.5720 -0.2171
24897SOL    HW278094   0.804   2.768   7.342 -0.3255  1.1560 -1.2175
24898SOL     OW78095   5.273   3.383   7.592 -0.3670  0.6104 -0.0101
24898SOL    HW178096   5.194   3.391   7.645 -0.1253  1.9724  0.1890
24898SOL    HW278097   5.271   3.460   7.535  1.2891  1.2131  0.6884
24899SOL     OW78098   8.776   9.771   4.362 -0.0514  0.0764  0.6700
24899SOL    HW178099   8.785   9.676   4.370  0.3540  0.1403  1.0216
24899SOL    HW278100   8.701   9.793   4.417 -0.8951 -0.1774 -0.3545
24900SOL     OW78101   3.379   2.320   4.662  0.5530  0.3460  0.1396
24900SOL    HW178102   3.305   2.345   4.717 -0.2264  1.7225 -1.4493
24900SOL    HW278103   3.379   2.224   4.666  0.9931  0.3822  3.0347
24901SOL     OW78104   4.318   4.094  10.027  0.3456 -0.5991  0.1876
24901SOL    HW178105   4.253   4.130  10.087 -0.9467  1.2968 -2.1591
24901SOL    HW278106   4.372   4.169  10.001  2.6289 -1.8671  0.9600
24902SOL     OW78107   2.602   2.109   5.080 -0.2295  0.4722 -0.6836
24902SOL    HW178108   2.665   2.056   5.130 -1.9356 -2.6109 -1.5090
24902SOL    HW278109   2.636   2.107   4.990 -0.9328 -0.3840 -0.9495
24903SOL     OW78110   6.333   2.374   8.340 -0.3899  0.1233  0.5981
24903SOL    HW178111   6.334   2.380   8.435 -0.2660 -0.3283  0.6268
24903SOL    HW278112   6.424   2.388   8.313 -0.8635  3.6044  0.3041
24904SOL     OW78113   1.766   1.726  10.150 -0.3347 -0.6591  0.1912
24904SOL    HW178114   1.783   1.637  10.119  1.0893 -0.8949  1.5115
24904SOL    HW278115   1.852   1.759  10.176 -0.5801  1.6682 -1.6002
24905SOL     OW78116   3.077   8.674  10.801  0.6055 -0.3799 -0.8094
24905SOL    HW178117   3.080   8.736  10.728  0.2889 -0.6876 -1.0857
24905SOL    HW278118   3.125   8.597  10.770 -0.3650 -0.8975 -1.0672
24906SOL     OW78119   7.544   9.675   4.278  0.0582  0.3879 -0.0169
24906SOL    HW178120   7.576   9.614   4.211  0.2585  1.0986 -0.5854
24906SOL    HW278121   7.539   9.622   4.357 -2.9244 -1.2497 -1.1450
24907SOL     OW78122   5.941   1.319   5.998  0.1430 -0.8167  0.6976
24907SOL    HW178123   5.917   1.230   6.026 -0.7667 -0.7986  0.0449
24907SOL    HW278124   5.925   1.318   5.903 -0.7998  0.3210  0.8291
24908SOL     OW78125   5.559  10.392   2.842 -0.0061  0.2031 -0.5070
24908SOL    HW178126   5.597  10.479   2.857  0.1702 -0.3681  3.2823
24908SOL    HW278127   5.631  10.331   2.859 -0.4113 -0.7696 -2.0506
24909SOL     OW78128   4.894   2.957   8.566 -0.0493 -0.0928 -0.5163
24909SOL    HW178129   4.893   3.003   8.650 -2.1722 -2.0505  0.6554
24909SOL    HW278130   4.979   2.978   8.528  0.1863  2.4595  1.1736
24910SOL     OW78131   9.372   9.725   1.019  0.0581 -0.3464  0.3216
24910SOL    HW178132   9.336   9.637   1.029 -0.8998 -0.3669 -2.3925
24910SOL    HW278133   9.434   9.717   0.947 -1.3091  1.4593 -1.1598
24911SOL     OW78134   3.138   2.518   1.226 -0.3400 -0.5909 -0.3125
24911SOL    HW178135   3.155   2.441   1.173 -3.8870 -2.6620  1.2525
24911SOL    HW278136   3.172   2.496   1.313 -0.3880  0.0758 -0.1136
24912SOL     OW78137   8.298   4.306   0.571 -0.4420  0.2097  0.2275
24912SOL    HW178138   8.365   4.369   0.598 -0.7254  0.3531  0.6156
24912SOL    HW278139   8.279   4.256   0.650 -0.0657 -0.5104 -0.1338
24913SOL     OW78140   0.184   9.167   8.212  0.4148  0.3904 -0.1964
24913SOL    HW178141   0.202   9.073   8.225  2.6604  0.9375  1.1039
24913SOL    HW278142   0.092   9.177   8.239  0.0322 -1.4744 -0.6578
24914SOL     OW78143   0.179   2.357   6.426  0.9439  0.1524 -0.0912
24914SOL    HW178144   0.150   2.280   6.377  0.0590  0.0171  0.6217
24914SOL    HW278145   0.131   2.353   6.508 -0.5236  2.4020 -0.7433
24915SOL     OW78146   9.467   5.983   3.779 -0.0474  0.0677  0.3235
24915SOL    HW178147   9.470   6.025   3.864 -1.1391  0.1228  0.3565
24915SOL    HW278148   9.558   5.975   3.752  0.4657 -1.6593  2.3241
24916SOL     OW78149   1.255   9.172  10.152  0.1555  0.4573  0.3025
24916SOL    HW178150   1.310   9.162  10.074 -0.1875 -1.0749  0.2182
24916SOL    HW278151   1.169   9.139  10.124 -0.4944  1.6792  0.7843
24917SOL     OW78152   1.036   8.852  10.371 -0.1523 -0.2079 -0.4735
24917SOL    HW178153   0.947   8.886  10.359  0.1917  0.1653 -2.3515
24917SOL    HW278154   1.093   8.924  10.343  0.7608 -0.4573  0.6789
24918SOL     OW78155   2.182   9.289   4.218  0.0028 -0.1658  0.3981
24918SOL    HW178156   2.129   9.246   4.285 -0.4669 -1.3992 -0.7255
24918SOL    HW278157   2.135   9.371   4.200 -0.8398 -0.6567  0.3179
24919SOL     OW78158   6.121   2.440   0.616  0.7024 -0.7637 -0.0338
24919SOL    HW178159   6.168   2.448   0.533 -1.4747 -1.4295 -1.4264
24919SOL    HW278160   6.046   2.499   0.607 -0.0271 -1.4670  1.0984
24920SOL     OW78161   0.419   4.785  10.847  0.2073 -0.0127 -0.7214
24920SOL    HW178162   0.392   4.694  10.861  1.4679 -0.0956  1.6329
24920SOL    HW278163   0.506   4.779  10.809  0.9773  0.1228  0.9090
24921SOL     OW78164   4.448   9.143   6.008  0.3445 -0.2708 -0.4034
24921SOL    HW178165   4.480   9.074   6.066 -2.2707 -1.1106  0.1780
24921SOL    HW278166   4.461   9.107   5.920  1.2654 -0.4153 -0.2254
24922SOL     OW78167   5.784   3.433   4.130  0.4750  0.0331  0.7705
24922SOL    HW178168   5.854   3.493   4.106  0.0192  0.3135  0.1326
24922SOL    HW278169   5.730   3.426   4.052  1.2464 -2.2559  0.3663
24923SOL     OW78170   5.837  10.621   5.027  0.0428  0.1892 -0.2277
24923SOL    HW178171   5.893  10.692   4.995 -0.1646  0.8636  0.8525
24923SOL    HW278172   5.748  10.657   5.025 -0.1771 -0.3549 -0.5065
24924SOL     OW78173   3.334   5.472   8.842 -0.1601 -0.0712 -0.1053
24924SOL    HW178174   3.374   5.494   8.926 -0.9519  0.4608  0.1432
24924SOL    HW278175   3.270   5.404   8.864 -0.6923  0.3912 -0.1953
24925SOL     OW78176   0.947   1.196   7.771  0.1666 -0.5590 -0.4072
24925SOL    HW178177   0.944   1.244   7.854  0.5011  1.0403 -1.2673
24925SOL    HW278178   0.856   1.191   7.743  0.2096  0.5235 -0.7960
24926SOL     OW78179   8.754   1.064   6.048 -0.4481  0.1072  0.3458
24926SOL    HW178180   8.810   1.137   6.074 -2.7737  1.9093  0.5627
24926SOL    HW278181   8.766   1.058   5.953 -0.0196  0.5747  0.3678
24927SOL     OW78182   2.805   5.365   3.361  0.0909 -0.0317  0.5664
24927SOL    HW178183   2.849   5.284   3.385 -1.8644 -0.4069  3.4918
24927SOL    HW278184   2.872   5.433   3.367  0.7737 -0.8348  2.8845
24928SOL     OW78185   8.928   9.223  10.136 -0.3484 -0.0627 -0.4760
24928SOL    HW178186   8.945   9.176  10.218 -1.8071  0.3186  0.0758
24928SOL    HW278187   8.987   9.183  10.072  0.9002 -0.2952  0.7700
24929SOL     OW78188   6.500   6.847   2.317 -0.1666 -0.0016  0.1378
24929SOL    HW178189   6.590   6.817   2.302 -0.1585  0.2174 -0.2685
24929SOL    HW278190   6.482   6.823   2.408  0.2460 -0.1911  0.1746
24930SOL     OW78191   8.975   5.382   8.056  0.1681 -0.1256 -0.7169
24930SOL    HW178192   8.995   5.371   8.148  0.7228 -0.2395 -0.8498
24930SOL    HW278193   8.987   5.476   8.039  1.6902 -0.3516 -1.0404
24931SOL     OW78194   9.628   5.420   5.275  0.0333  0.3624  0.2002
24931SOL    HW178195   9.706   5.388   5.231 -0.9929 -0.2795 -1.2701
24931SOL    HW278196   9.575   5.457   5.204 -1.9181 -1.1521  0.7573
24932SOL     OW78197   4.657   6.833  10.571  0.4930 -0.1057 -0.2307
24932SOL    HW178198   4.672   6.821  10.477  0.7195 -1.1085 -0.0814
24932SOL    HW278199   4.625   6.748  10.601 -0.3513  0.4346  0.4605
24933SOL     OW78200   4.535   8.213   4.144  0.2136  0.2092  0.1573
24933SOL    HW178201   4.623   8.249   4.134  0.2680  0.2527  0.7313
24933SOL    HW278202   4.489   8.238   4.064  0.8068 -0.0581 -0.2731
24934SOL     OW78203  10.431   9.170   5.111  0.3199  0.1070  0.0665
24934SOL    HW178204  10.472   9.224   5.179 -0.3408 -1.0325  1.3987
24934SOL    HW278205  10.351   9.217   5.088  1.3830  1.3862 -1.2166
24935SOL     OW78206   2.289   2.180   9.195  0.1192  0.4331 -0.8371
24935SOL    HW178207   2.224   2.179   9.265  1.2180 -0.0980  0.2088
24935SOL    HW278208   2.243   2.142   9.120 -0.5114 -0.7965  0.1303
24936SOL     OW78209   9.124  10.069   8.715  0.0743  0.3011 -0.5043
24936SOL    HW178210   9.188  10.116   8.768 -0.4833 -0.3270  0.7942
24936SOL    HW278211   9.093  10.133   8.651  1.0852  0.9630 -0.3459
24937SOL     OW78212   3.604   5.579   1.004 -0.1719 -0.0598  0.3306
24937SOL    HW178213   3.525   5.529   0.982  0.7028 -2.7597  2.6392
24937SOL    HW278214   3.674   5.536   0.955  0.2605  0.6252  0.3307
24938SOL     OW78215  10.683  10.911   8.835  0.1744 -0.0249  0.2331
24938SOL    HW178216  10.738  10.977   8.877 -1.3845 -0.2286  2.7924
24938SOL    HW278217  10.719  10.828   8.865 -0.4536 -0.1986  0.5282
24939SOL     OW78218   4.282   2.588   5.431  0.0993  0.5454 -0.1149
24939SOL    HW178219   4.361   2.641   5.419  0.1659  0.8131  1.4027
24939SOL    HW278220   4.214   2.653   5.450  0.0783  0.1285  1.2692
24940SOL     OW78221   7.380  10.185   8.844  0.5464 -0.5968  0.6004
24940SOL    HW178222   7.472  10.161   8.834  1.1718  1.7852 -0.0046
24940SOL    HW278223   7.333  10.102   8.838  2.5294 -1.7164 -0.6890
24941SOL     OW78224  10.437   8.987   0.497  0.0718  0.5943  0.0302
24941SOL    HW178225  10.504   8.929   0.461 -0.3428 -0.5694  1.0679
24941SOL    HW278226  10.361   8.931   0.511 -0.9193  1.7510 -0.4934
24942SOL     OW78227   9.284   7.424   6.547 -0.4548  0.0556  0.2053
24942SOL    HW178228   9.224   7.357   6.516  0.3749  0.0108 -1.4500
24942SOL    HW278229   9.231   7.504   6.552 -1.1381 -0.4345  0.8969
24943SOL     OW78230   5.785   0.516   8.540  0.2926 -0.2391  0.6437
24943SOL    HW178231   5.712   0.456   8.556  0.1709  0.0923  1.3461
24943SOL    HW278232   5.846   0.466   8.487 -0.5732 -0.4295 -0.1960
24944SOL     OW78233   8.277   2.070   6.664 -0.7043  0.2976 -0.7925
24944SOL    HW178234   8.338   1.998   6.651  0.6433  1.2400  0.0549
24944SOL    HW278235   8.300   2.105   6.750 -0.4215  2.5688 -1.7320
24945SOL     OW78236   3.823   6.461   7.127 -0.0118  0.2053 -0.2295
24945SOL    HW178237   3.870   6.387   7.165 -0.0419 -0.7855 -2.0322
24945SOL    HW278238   3.863   6.538   7.168  0.4585 -0.7569  1.1979
24946SOL     OW78239  10.860   5.158   7.407  0.3441 -0.0897 -0.3882
24946SOL    HW178240  10.866   5.200   7.322  0.7937  1.6004  0.4455
24946SOL    HW278241  10.950   5.135   7.430  0.0966 -1.6634 -0.8775
24947SOL     OW78242   1.268   6.653   8.456 -0.2799  0.1924 -0.3368
24947SOL    HW178243   1.231   6.669   8.369 -1.4658  0.5527  0.2135
24947SOL    HW278244   1.242   6.563   8.477 -0.8647  0.4482  0.0536
24948SOL     OW78245   8.163   4.559   2.080 -0.5903 -0.5138  0.0994
24948SOL    HW178246   8.175   4.651   2.102 -0.0408 -0.7066  0.6185
24948SOL    HW278247   8.093   4.559   2.014  0.2139  0.3821 -0.7859
24949SOL     OW78248   1.093  10.521   9.526 -0.2234  0.3292  0.1439
24949SOL    HW178249   1.045  10.497   9.605  0.3188  0.6352  0.5725
24949SOL    HW278250   1.162  10.579   9.556 -0.3295  0.8791 -0.6299
24950SOL     OW78251  10.413   3.180   7.637 -0.0429 -0.3196  0.6829
24950SOL    HW178252  10.377   3.092   7.645  2.2227 -1.7419 -2.5882
24950SOL    HW278253  10.408   3.199   7.543  0.6405  2.5912  1.1386
24951SOL     OW78254   2.373   1.461  10.548 -0.0377 -0.2624 -0.0575
24951SOL    HW178255   2.334   1.514  10.618 -1.8481 -1.1045 -0.3508
24951SOL    HW278256   2.434   1.520  10.504  0.3550  0.6038  1.5614
24952SOL     OW78257   3.812   6.937   4.312  1.0246 -0.0057  0.0238
24952SOL    HW178258   3.806   6.938   4.408  1.2540  0.3713  0.0368
24952SOL    HW278259   3.816   7.030   4.288  2.2655 -0.1270 -0.2669
24953SOL     OW78260   0.025   8.738   6.997  0.2068  0.9263  0.2867
24953SOL    HW178261  -0.065   8.739   6.964  0.8152  0.5840 -1.4848
24953SOL    HW278262   0.021   8.680   7.073 -0.6682 -0.9388 -1.0994
24954SOL     OW78263   9.218   3.712   9.638 -0.2473 -0.8343 -0.6618
24954SOL    HW178264   9.153   3.695   9.706  0.4040 -0.1621  0.1431
24954SOL    HW278265   9.271   3.784   9.672  0.2768 -0.6756 -1.7565
24955SOL     OW78266   7.422   0.459   6.340  0.3710  0.5144 -0.0279
24955SOL    HW178267   7.499   0.457   6.283 -0.0332  0.5988 -0.5820
24955SOL    HW278268   7.458   0.466   6.428  1.0264 -0.2001 -0.2233
24956SOL     OW78269   4.253  10.069   5.397 -0.2780  0.4471  0.1986
24956SOL    HW178270   4.347  10.076   5.417 -0.5558  0.6757  1.4993
24956SOL    HW278271   4.221  10.001   5.455 -0.7980 -0.1811 -0.7847
24957SOL     OW78272   2.007   0.518   5.948  0.0614  0.0185  0.2240
24957SOL    HW178273   2.103   0.517   5.953  0.0678 -0.3182 -0.0022
24957SOL    HW278274   1.979   0.545   6.036  0.3525 -0.3051  0.4178
24958SOL     OW78275   1.891   8.790   8.487 -0.0225 -0.1126  0.4038
24958SOL    HW178276   1.825   8.756   8.548 -0.9763  1.0514  0.0574
24958SOL    HW278277   1.858   8.767   8.400 -0.3936  1.1341  0.1917
24959SOL     OW78278   4.381   9.246   6.346 -1.1104  0.1776  0.2764
24959SOL    HW178279   4.382   9.230   6.252  0.4696  0.5069  0.2024
24959SOL    HW278280   4.324   9.322   6.358 -1.8562 -0.2851 -0.3310
24960SOL     OW78281  10.686   3.175   7.353  0.1431 -0.5355 -0.3871
24960SOL    HW178282  10.699   3.188   7.260 -0.3904 -0.0551 -0.4033
24960SOL    HW278283  10.613   3.112   7.358 -0.5992  0.3083 -0.3040
24961SOL     OW78284   7.354  10.290   2.202 -0.0825 -0.2949  0.4167
24961SOL    HW178285   7.369  10.358   2.136  0.8617 -2.2341 -1.4657
24961SOL    HW278286   7.262  10.302   2.228  0.0401  1.6257  0.1413
24962SOL     OW78287   1.365   0.364   0.587  0.0069  0.2422  0.3841
24962SOL    HW178288   1.380   0.447   0.542 -0.1615  1.3315  2.2149
24962SOL    HW278289   1.307   0.387   0.660 -2.5111 -2.0306 -0.7269
24963SOL     OW78290   7.188   3.482   8.652 -0.4057 -0.0135 -0.2195
24963SOL    HW178291   7.155   3.555   8.600 -0.9228 -0.5785 -0.6977
24963SOL    HW278292   7.113   3.423   8.660  0.0149 -0.5080  0.1340
24964SOL     OW78293   1.814  10.180   1.674  0.5134 -0.3614 -0.7764
24964SOL    HW178294   1.878  10.110   1.667  1.0766  0.1357 -0.6245
24964SOL    HW278295   1.842  10.233   1.749 -0.1520 -0.2221 -0.6154
24965SOL     OW78296   3.378   1.429   1.052  0.3273  0.0585  0.0871
24965SOL    HW178297   3.442   1.424   0.980  0.7742 -0.8204  0.5223
24965SOL    HW278298   3.405   1.359   1.112 -1.5803 -0.9363 -0.1484
24966SOL     OW78299   7.931   0.133   9.621 -0.2749  0.1545 -0.7354
24966SOL    HW178300   7.936   0.089   9.536 -1.3786 -0.1884 -0.6395
24966SOL    HW278301   7.939   0.227   9.600  0.1243  0.0369 -1.1365
24967SOL     OW78302   2.082   8.520   5.793  0.5729  0.1175  0.3061
24967SOL    HW178303   2.001   8.567   5.812  1.3704  1.4606  0.4998
24967SOL    HW278304   2.125   8.510   5.878 -0.2385 -2.2976  0.4965
24968SOL     OW78305   6.658   5.128   1.048 -0.4862 -0.0360 -0.1451
24968SOL    HW178306   6.698   5.055   1.002 -0.4345  0.0573 -0.2478
24968SOL    HW278307   6.654   5.198   0.984  1.5473  0.8005  0.5429
24969SOL     OW78308   5.065   9.078   6.552 -0.4136 -0.2813 -0.2706
24969SOL    HW178309   5.122   9.148   6.583  1.2634 -0.3740 -2.8303
24969SOL    HW278310   5.068   9.012   6.622  2.6776 -0.2597 -0.2411
24970SOL     OW78311   9.796   5.595   6.118  0.4993 -0.2636 -0.2692
24970SOL    HW178312   9.752   5.510   6.114  2.4944 -1.5384  2.1553
24970SOL    HW278313   9.863   5.592   6.051  1.2569 -1.0776  0.5057
24971SOL     OW78314   3.360  10.229   5.997  0.2994  0.0061  0.1635
24971SOL    HW178315   3.338  10.280   5.920  0.3328  0.3670  0.3908
24971SOL    HW278316   3.450  10.200   5.982  0.4943  0.5287  0.3086
24972SOL     OW78317   7.864   0.307   0.332 -0.1134  0.2402  0.0892
24972SOL    HW178318   7.830   0.231   0.285 -0.6469  1.5470 -1.7290
24972SOL    HW278319   7.849   0.286   0.425 -2.4186 -0.8827 -0.4628
24973SOL     OW78320   5.567   5.472   5.718 -0.1262  0.7382  0.4238
24973SOL    HW178321   5.543   5.471   5.625 -0.3140 -0.1527  0.4793
24973SOL    HW278322   5.655   5.433   5.721 -0.0448  0.9315  0.6041
24974SOL     OW78323   9.168   1.490   4.366 -0.2469  0.1294 -0.2111
24974SOL    HW178324   9.126   1.456   4.446  0.5166  0.8081  0.4988
24974SOL    HW278325   9.181   1.583   4.384  0.3507  0.1950 -0.9576
24975SOL     OW78326   0.435  10.702   2.115 -0.4038  0.2979  0.6723
24975SOL    HW178327   0.398  10.744   2.037  0.4576  0.1748  0.1816
24975SOL    HW278328   0.410  10.759   2.187  1.2010  2.0140 -0.0312
24976SOL     OW78329  10.014   4.121   0.871  0.1685 -0.0407 -0.1315
24976SOL    HW178330  10.048   4.047   0.820 -0.3673 -0.6476  0.3633
24976SOL    HW278331   9.977   4.180   0.806 -0.6235 -0.8703 -0.4656
24977SOL     OW78332   2.599   8.111   7.857 -0.1794  0.0468 -0.3239
24977SOL    HW178333   2.528   8.162   7.818 -0.6134  0.9893  1.5905
24977SOL    HW278334   2.580   8.112   7.950  1.1689 -1.5749  0.0030
24978SOL     OW78335   3.673   3.592   5.617  0.0776 -0.1515 -0.2148
24978SOL    HW178336   3.685   3.501   5.644  0.9229  0.1795  0.5750
24978SOL    HW278337   3.692   3.592   5.523  1.6811 -0.5236  0.0878
24979SOL     OW78338   2.689  10.575   2.062  0.3156 -0.1135  0.4200
24979SOL    HW178339   2.718  10.527   1.985  0.4942 -0.3627  0.6385
24979SOL    HW278340   2.627  10.516   2.105  1.3942 -0.6357  1.3006
24980SOL     OW78341  10.263   2.590   9.548 -0.1376  0.3847  0.3160
24980SOL    HW178342  10.267   2.631   9.462  0.5910 -0.0975  0.1183
24980SOL    HW278343  10.350   2.602   9.585  0.0148 -0.7253  0.3661
24981SOL     OW78344   5.000   7.609   0.167 -0.0799  0.5746  0.6313
24981SOL    HW178345   4.922   7.558   0.144 -0.4905  1.4612 -0.0261
24981SOL    HW278346   4.998   7.616   0.262 -0.7441  0.5023  0.6237
24982SOL     OW78347   8.338   0.190  10.483 -0.6590  0.5630 -0.2529
24982SOL    HW178348   8.423   0.226  10.454  0.6906 -1.6790  0.6299
24982SOL    HW278349   8.333   0.212  10.576 -0.6056 -0.0474 -0.1001
24983SOL     OW78350   8.882   9.086   0.208 -1.2835  0.2154  0.3880
24983SOL    HW178351   8.858   9.045   0.125 -1.0434  0.0162  0.4173
24983SOL    HW278352   8.823   9.161   0.216 -0.5703  0.8907 -0.4916
24984SOL     OW78353   4.821   6.623   2.807 -0.4011  0.3260  0.3374
24984SOL    HW178354   4.847   6.600   2.718  0.5842 -1.0208  0.9252
24984SOL    HW278355   4.900   6.608   2.859 -0.4733  2.6406  1.2317
24985SOL     OW78356   9.450   6.459   4.834  0.1612 -0.7331 -0.2950
24985SOL    HW178357   9.475   6.470   4.742  0.0812 -0.1712 -0.2537
24985SOL    HW278358   9.374   6.400   4.831 -0.5305  0.1477 -0.6927
24986SOL     OW78359   1.360   4.471   8.811 -0.5997  0.6642  0.3899
24986SOL    HW178360   1.354   4.516   8.726 -0.4586  1.6112  0.8771
24986SOL    HW278361   1.339   4.380   8.790 -1.3498  1.0246 -0.5440
24987SOL     OW78362   2.551   9.906   8.602  0.7362 -0.5674  0.1925
24987SOL    HW178363   2.530   9.823   8.558  1.8313 -0.9999  0.4532
24987SOL    HW278364   2.485   9.914   8.671 -0.1211 -0.6024 -0.6001
24988SOL     OW78365   9.736   9.934   0.173 -0.5274  0.5071 -0.6860
24988SOL    HW178366   9.645   9.907   0.170 -0.3706 -0.0536 -0.4483
24988SOL    HW278367   9.786   9.853   0.185 -0.0253  0.8414 -0.4436
24989SOL     OW78368   7.968   8.879   9.949 -0.6274 -0.0582 -0.7032
24989SOL    HW178369   7.890   8.875  10.005  0.2214 -1.5589  0.4310
24989SOL    HW278370   8.017   8.954   9.983 -0.2113 -0.8386  0.4909
24990SOL     OW78371   0.181   0.541   2.558  0.7104 -0.3063  0.1817
24990SOL    HW178372   0.224   0.591   2.488 -0.1221 -0.9309 -0.8214
24990SOL    HW278373   0.216   0.453   2.549 -3.1518 -1.8869 -3.1089
24991SOL     OW78374   0.988   9.177   7.363  0.0880 -0.0987 -0.0913
24991SOL    HW178375   0.947   9.094   7.339  1.0052 -0.8752  0.9362
24991SOL    HW278376   0.967   9.188   7.455  0.2241  0.6746 -0.1480
24992SOL     OW78377   8.514   4.602   2.251 -0.8951 -0.1298 -0.6893
24992SOL    HW178378   8.442   4.654   2.215 -1.1607  0.9906  1.2827
24992SOL    HW278379   8.564   4.665   2.304  0.7781 -1.1777 -0.9663
24993SOL     OW78380   9.510   4.222   3.460 -0.0426 -0.2112  0.1827
24993SOL    HW178381   9.537   4.178   3.380 -1.7363 -0.3741 -0.3542
24993SOL    HW278382   9.499   4.151   3.524 -1.3438 -0.4352 -0.2595
24994SOL     OW78383   3.095   2.957   2.338 -0.1206  0.0233 -0.2537
24994SOL    HW178384   3.139   2.976   2.255 -0.8714  0.5228 -0.5499
24994SOL    HW278385   3.034   2.886   2.317 -0.8088  0.6208 -0.2978
24995SOL     OW78386   2.473   5.426   9.152 -0.5972  0.5579  0.0774
24995SOL    HW178387   2.379   5.438   9.146 -0.4382  1.7146 -0.3138
24995SOL    HW278388   2.490   5.412   9.245 -1.0834  0.9753  0.2282
24996SOL     OW78389   2.772   9.943   3.860  0.4272 -0.3696  0.1717
24996SOL    HW178390   2.682   9.946   3.893 -0.0896 -0.1416 -1.2194
24996SOL    HW278391   2.780  10.020   3.804  1.4122 -0.5408  0.0541
24997SOL     OW78392  10.659   0.508   7.651  0.3236 -0.0068 -0.2639
24997SOL    HW178393  10.685   0.510   7.559  0.6964 -2.1986 -0.2727
24997SOL    HW278394  10.713   0.439   7.689 -0.9423 -0.2282  1.2291
24998SOL     OW78395   1.562   3.489   8.479 -0.3135  0.6613  0.4285
24998SOL    HW178396   1.630   3.551   8.507  1.0301 -0.1185 -0.9239
24998SOL    HW278397   1.585   3.469   8.388  0.7393 -3.5500  1.4109
24999SOL     OW78398   0.024   9.260   7.276  0.3471  0.3934  0.5733
24999SOL    HW178399   0.016   9.168   7.298  1.6397 -0.1651 -1.0978
24999SOL    HW278400  -0.049   9.278   7.218 -0.4420  0.7013  1.6225
25000SOL     OW78401   4.432   2.957   5.793  0.1723  0.6783 -0.1802
25000SOL    HW178402   4.440   3.030   5.853 -0.4686  0.8422 -0.2839
25000SOL    HW278403   4.454   2.880   5.845 -0.5271  0.8014  0.3094
25001SOL     OW78404   6.979   5.736   2.544 -0.5874  0.8511 -0.5353
25001SOL    HW178405   6.932   5.699   2.620 -1.6275  1.4423 -0.8708
25001SOL    HW278406   7.054   5.781   2.582 -0.8317  0.7278  0.1116
25002SOL     OW78407   1.418   9.789   5.587 -0.1486  0.7631  0.0690
25002SOL    HW178408   1.456   9.714   5.541  1.4396  1.1975  0.5977
25002SOL    HW278409   1.334   9.757   5.619  1.0118 -1.2271  1.3526
25003SOL     OW78410   5.888   0.214  10.616  0.2079  0.9318 -0.9995
25003SOL    HW178411   5.941   0.135  10.604 -1.2519  0.1148 -2.4279
25003SOL    HW278412   5.879   0.222  10.711  0.9767 -0.2035 -0.8035
25004SOL     OW78413   8.366   2.520   5.144 -0.0915  0.2414  0.7022
25004SOL    HW178414   8.299   2.503   5.078  0.8267  1.8700 -0.7444
25004SOL    HW278415   8.422   2.587   5.105  1.3036  0.2887  2.6094
25005SOL     OW78416   4.795  10.664   1.903  0.1574 -0.0524  0.4577
25005SOL    HW178417   4.775  10.610   1.826 -0.3787 -2.7656  2.3622
25005SOL    HW278418   4.851  10.608   1.957  0.8589  1.9338  1.9125
25006SOL     OW78419   6.172   7.207   2.795 -0.1639 -0.5878 -0.1972
25006SOL    HW178420   6.159   7.203   2.890  1.6063 -1.6635  0.0550
25006SOL    HW278421   6.112   7.275   2.766 -0.5025  0.0280  1.7488
25007SOL     OW78422   9.961   8.652   2.538 -0.0563 -0.7661 -0.1616
25007SOL    HW178423   9.921   8.618   2.458 -0.2749 -0.4592 -0.1829
25007SOL    HW278424   9.976   8.745   2.521 -0.8811 -0.5080  0.4520
25008SOL     OW78425   3.885  10.572   0.972 -0.4200 -0.3221 -0.1132
25008SOL    HW178426   3.854  10.491   1.011  0.3125 -0.8804 -0.6540
25008SOL    HW278427   3.954  10.602   1.032 -0.3556 -0.3601 -0.1687
25009SOL     OW78428   2.416   1.075   3.915 -0.4114 -0.0811 -0.0422
25009SOL    HW178429   2.461   1.127   3.981  1.2140 -1.9643  0.4173
25009SOL    HW278430   2.374   1.140   3.858  0.6457  1.6787  1.0837
25010SOL     OW78431  10.210   2.988   7.636  0.2608  0.7873  0.1807
25010SOL    HW178432  10.125   3.022   7.665 -0.4369 -0.5149 -0.2350
25010SOL    HW278433  10.189   2.936   7.558  1.4999  0.7458 -0.1359
25011SOL     OW78434   2.374   2.102   9.852  0.4696  0.3106  0.0925
25011SOL    HW178435   2.468   2.088   9.851  0.4011 -0.2639  0.7635
25011SOL    HW278436   2.351   2.105   9.944 -0.4968 -2.0436  0.0107
25012SOL     OW78437  10.268   5.986   8.547 -0.1081  0.0983 -0.6054
25012SOL    HW178438  10.213   5.927   8.599  0.6728  0.9558  1.2799
25012SOL    HW278439  10.215   6.066   8.537 -0.3402 -0.1362 -1.3675
25013SOL     OW78440   1.876   1.389   7.974  0.0358  0.2307  0.0096
25013SOL    HW178441   1.814   1.378   7.902 -2.3398  0.8276  1.8426
25013SOL    HW278442   1.894   1.483   7.976 -2.4458  0.7578  2.0559
25014SOL     OW78443   4.031   5.364   0.396 -0.3380 -0.9989  0.6944
25014SOL    HW178444   4.046   5.287   0.341  1.2604 -0.7035  0.6613
25014SOL    HW278445   3.987   5.330   0.473 -1.7955 -1.5609 -0.3485
25015SOL     OW78446   1.475   0.989   9.754  0.2647 -0.3500 -0.1760
25015SOL    HW178447   1.504   0.905   9.789  0.2637 -0.3120 -0.0844
25015SOL    HW278448   1.453   1.041   9.831 -1.1365 -0.7629 -0.2687
25016SOL     OW78449   1.480   1.016   6.136 -0.4835  0.7495 -0.0671
25016SOL    HW178450   1.549   0.989   6.075  0.4737  2.8102  0.0240
25016SOL    HW278451   1.521   1.084   6.189 -2.2999  1.2901  0.6951
25017SOL     OW78452   5.923   3.380   8.851 -0.3014  0.4121 -0.0856
25017SOL    HW178453   5.967   3.363   8.934 -1.2840  1.8776  0.7876
25017SOL    HW278454   5.971   3.453   8.812  0.0570 -0.1624 -0.7542
25018SOL     OW78455   8.605   8.691   0.501  0.3555 -0.0194  0.1276
25018SOL    HW178456   8.614   8.785   0.520  0.8153 -0.2566  1.1731
25018SOL    HW278457   8.518   8.668   0.534  0.7166 -0.1974  0.9946
25019SOL     OW78458   0.946   0.013   2.159  0.1545 -0.2170  0.0520
25019SOL    HW178459   1.031   0.049   2.133 -0.1905  0.0700 -0.6850
25019SOL    HW278460   0.883   0.054   2.100 -0.3490 -1.4305 -0.2741
25020SOL     OW78461   2.978   6.720   5.424 -0.2067  0.3684  0.6831
25020SOL    HW178462   2.904   6.688   5.475  0.4400 -2.3809  0.0854
25020SOL    HW278463   2.939   6.753   5.343 -0.8636 -0.3391  0.6967
25021SOL     OW78464   8.240   3.076   6.516 -0.4129 -1.0554 -0.0167
25021SOL    HW178465   8.206   3.163   6.535 -1.0867 -1.1968 -0.5204
25021SOL    HW278466   8.334   3.082   6.533 -0.6878 -0.6640  1.4271
25022SOL     OW78467   2.498   3.251   6.036 -0.4718  0.3453  0.2611
25022SOL    HW178468   2.534   3.197   6.107  1.6214  0.4723 -0.6252
25022SOL    HW278469   2.437   3.310   6.079 -0.6050 -0.7685  1.6775
25023SOL     OW78470   2.075   8.771   0.850  0.5187 -0.2969 -0.2178
25023SOL    HW178471   2.008   8.825   0.809 -0.1192 -0.2479  0.8532
25023SOL    HW278472   2.029   8.691   0.874  1.2445 -0.9529 -0.9546
25024SOL     OW78473   3.451   7.726   4.516  0.0125 -0.0032  0.5354
25024SOL    HW178474   3.356   7.726   4.505  0.1326  0.4890 -0.5862
25024SOL    HW278475   3.464   7.735   4.611 -1.0557  1.7070  0.5572
25025SOL     OW78476   8.871   1.904  10.353 -0.7508 -0.0917  0.4950
25025SOL    HW178477   8.922   1.978  10.318  1.0534 -1.0229  1.0230
25025SOL    HW278478   8.835   1.938  10.436  0.5025  0.0715  1.0013
25026SOL     OW78479   6.051   1.749   8.406 -0.0232  0.5292 -0.2600
25026SOL    HW178480   6.006   1.732   8.488 -3.8357  0.7859 -2.0950
25026SOL    HW278481   6.062   1.844   8.404 -1.4906  0.7177 -0.6983
25027SOL     OW78482   1.411   7.092   3.489  0.7111 -0.1195  0.3399
25027SOL    HW178483   1.397   7.083   3.583  0.9070 -0.9959  0.2987
25027SOL    HW278484   1.487   7.149   3.482  0.8805 -0.2932  0.7204
25028SOL     OW78485   8.886   8.671   7.389 -0.0970 -0.1662  0.2673
25028SOL    HW178486   8.930   8.732   7.448 -0.1002 -0.2846  0.3942
25028SOL    HW278487   8.837   8.726   7.328 -0.0835 -0.0430  0.3681
25029SOL     OW78488   2.485   3.443   7.537 -0.4687  0.4541  0.3037
25029SOL    HW178489   2.423   3.511   7.510  0.8147  1.7042  0.3838
25029SOL    HW278490   2.499   3.391   7.458 -1.5207  0.2072  0.2582
25030SOL     OW78491   4.118   5.245   5.328  0.2651  0.1869 -0.2686
25030SOL    HW178492   4.170   5.258   5.248  0.8560  0.0608  0.0934
25030SOL    HW278493   4.158   5.169   5.370  0.5897  0.8595  0.6577
25031SOL     OW78494   5.798   3.380   5.006  0.0274  0.0690  0.1888
25031SOL    HW178495   5.857   3.320   5.050  0.5161  0.6916  0.3974
25031SOL    HW278496   5.850   3.459   4.991 -1.1185  1.1407  1.6009
25032SOL     OW78497   4.722  10.392   5.008  0.3763  0.3705  0.7254
25032SOL    HW178498   4.808  10.372   5.045  0.4525 -0.9940 -0.1458
25032SOL    HW278499   4.661  10.383   5.082  1.0333  2.1724  1.5553
25033SOL     OW78500  10.154   8.674   0.509 -0.8171  0.2558 -0.1183
25033SOL    HW178501  10.161   8.639   0.598  1.4460  0.2097 -0.2453
25033SOL    HW278502  10.065   8.652   0.481 -1.1473 -0.8803  1.6517
25034SOL     OW78503   0.765   6.129  10.035  0.1632 -0.6533  0.1918
25034SOL    HW178504   0.674   6.100  10.042 -0.1672 -0.0802 -1.5236
25034SOL    HW278505   0.777   6.153   9.944  0.8018  3.3581  1.1492
25035SOL     OW78506   5.858   5.658   2.081  0.3115  0.3221 -0.3899
25035SOL    HW178507   5.939   5.613   2.102  0.7389  2.4598  3.5675
25035SOL    HW278508   5.882   5.751   2.075 -1.7343  1.0919  1.3866
25036SOL     OW78509   5.016   0.263   1.121 -0.1966 -0.5470  0.7921
25036SOL    HW178510   5.008   0.193   1.056  0.3993  0.1203 -0.0235
25036SOL    HW278511   5.023   0.217   1.205 -0.1646 -1.4479  0.3083
25037SOL     OW78512   8.228   5.218   5.588 -0.0723 -0.1410  0.6505
25037SOL    HW178513   8.286   5.148   5.560 -0.5934 -0.8306  1.2627
25037SOL    HW278514   8.262   5.245   5.674  0.9336  1.2950 -0.1500
25038SOL     OW78515   8.077   5.338   6.838 -0.0283 -0.0934 -0.0599
25038SOL    HW178516   8.149   5.286   6.874 -0.0014 -0.3137 -0.4285
25038SOL    HW278517   8.108   5.366   6.752  0.0355  0.6975  0.2103
25039SOL     OW78518   2.989   2.767   5.753 -0.0166 -0.6622 -0.5291
25039SOL    HW178519   2.946   2.751   5.669  0.4803 -0.3995 -0.8305
25039SOL    HW278520   3.077   2.795   5.731 -0.1628  0.2924  0.0623
25040SOL     OW78521   7.855   1.774   2.031 -0.3190  0.2764  0.0580
25040SOL    HW178522   7.944   1.775   2.068 -0.6098  0.5214  0.7787
25040SOL    HW278523   7.859   1.709   1.961  0.3153 -0.0584  0.3891
25041SOL     OW78524   7.330   3.418   1.430 -0.1224  0.3344 -0.1567
25041SOL    HW178525   7.389   3.449   1.498  1.1768 -0.5888 -0.8307
25041SOL    HW278526   7.313   3.495   1.375  0.8713  0.4937 -0.2487
25042SOL     OW78527   4.249  10.723  10.424  0.3977 -0.1717  0.0110
25042SOL    HW178528   4.315  10.713  10.492 -1.0089 -0.5317  1.3861
25042SOL    HW278529   4.175  10.765  10.469 -0.7173 -0.7871 -1.1863
25043SOL     OW78530   6.555   5.410   1.834  0.1505  0.1467  0.0260
25043SOL    HW178531   6.557   5.339   1.770  0.2206 -0.3859  0.6164
25043SOL    HW278532   6.644   5.445   1.835 -0.2886  1.4452 -1.5791
25044SOL     OW78533   9.491  10.736   8.934  0.0903  0.7148  0.2957
25044SOL    HW178534   9.575  10.709   8.971 -0.6734 -1.8586  0.3421
25044SOL    HW278535   9.510  10.757   8.843  1.1462  2.4042  0.8701
25045SOL     OW78536   6.843   0.982   0.836  0.5557 -0.0001  0.4509
25045SOL    HW178537   6.834   0.943   0.922  0.7640  0.5200  0.7117
25045SOL    HW278538   6.935   0.971   0.813  0.3376 -0.8498 -0.0538
25046SOL     OW78539   5.999   1.741   7.335 -0.3115 -0.1309  0.5679
25046SOL    HW178540   6.060   1.768   7.267 -2.5961  1.1010 -1.0909
25046SOL    HW278541   5.981   1.649   7.315  0.9675 -0.5234  1.1042
25047SOL     OW78542   7.683   2.616   0.194  0.2824 -0.2562  0.3591
25047SOL    HW178543   7.748   2.578   0.136  1.1493  1.8371 -0.1632
25047SOL    HW278544   7.726   2.619   0.280  0.2906 -0.3058  0.3563
25048SOL     OW78545   0.009   2.843   3.258 -0.0383  0.3103  0.0747
25048SOL    HW178546  -0.049   2.905   3.303 -1.1708 -1.6771  1.5121
25048SOL    HW278547  -0.045   2.765   3.244  2.0041 -1.3330  0.7367
25049SOL     OW78548   2.107   7.052   7.136 -0.1720  0.0154 -0.6045
25049SOL    HW178549   2.099   6.960   7.159  0.4840  0.1618  0.2840
25049SOL    HW278550   2.086   7.056   7.043 -1.2781 -0.8588 -0.4014
25050SOL     OW78551   9.136   9.628   4.893 -0.4850 -0.1672  0.4822
25050SOL    HW178552   9.193   9.648   4.968  3.2426 -0.5003 -2.0131
25050SOL    HW278553   9.162   9.540   4.865 -2.0260 -0.1995 -1.0597
25051SOL     OW78554   5.107   6.524   2.664 -0.2154 -0.3075  0.0324
25051SOL    HW178555   5.120   6.536   2.758  0.7351 -1.0672  0.0108
25051SOL    HW278556   5.066   6.438   2.657  3.8853 -2.4796 -0.4346
25052SOL     OW78557   4.706   1.140  10.320  0.6981  0.0028 -0.2302
25052SOL    HW178558   4.708   1.053  10.280  1.8436  1.1714 -3.0151
25052SOL    HW278559   4.794   1.151  10.356  1.3060  0.7665 -1.8523
25053SOL     OW78560   4.399   2.340   0.289 -0.4293  0.1287  0.0426
25053SOL    HW178561   4.408   2.430   0.318 -0.6450  0.0866  0.2390
25053SOL    HW278562   4.327   2.342   0.226  1.5655  0.6735 -2.3873
25054SOL     OW78563   7.426   1.803   4.503  0.3231 -0.3954  0.5672
25054SOL    HW178564   7.408   1.770   4.415  2.6962 -0.2024 -0.0527
25054SOL    HW278565   7.514   1.770   4.523 -0.3258 -0.7711  3.0507
25055SOL     OW78566   4.173   0.089  10.523  0.8688 -0.0973 -0.3090
25055SOL    HW178567   4.172   0.079  10.428  0.6303 -1.5938 -0.1727
25055SOL    HW278568   4.266   0.099  10.545  0.7634  2.7559 -0.8845
25056SOL     OW78569   5.829   6.902   1.928 -0.4432  0.1071  0.5632
25056SOL    HW178570   5.795   6.954   2.001 -2.2074  0.8298 -0.7075
25056SOL    HW278571   5.888   6.839   1.969  1.2591  2.6120  2.2569
25057SOL     OW78572   1.930   1.136  10.552  0.6573 -0.1613  0.1781
25057SOL    HW178573   1.968   1.224  10.558 -1.1173  0.6487 -0.0626
25057SOL    HW278574   1.924   1.107  10.643 -1.2834  1.1249  0.5120
25058SOL     OW78575   9.631   8.165   7.453  0.1550  0.2817 -0.2941
25058SOL    HW178576   9.659   8.256   7.459  0.8420  0.0577 -0.1110
25058SOL    HW278577   9.689   8.125   7.388  1.0165 -0.4600  0.8977
25059SOL     OW78578   6.400   0.032   4.837 -0.1511 -0.3979 -0.4527
25059SOL    HW178579   6.354   0.115   4.847 -0.0425 -0.3997  0.1203
25059SOL    HW278580   6.488   0.057   4.810  0.5954 -0.1482  1.9312
25060SOL     OW78581   9.288  10.913   6.044  0.1485 -0.4131 -0.4680
25060SOL    HW178582   9.359  10.928   6.106 -0.7369  1.6191  0.1463
25060SOL    HW278583   9.210  10.948   6.087 -0.4549  1.3095 -2.7545
25061SOL     OW78584   5.943   1.986   9.171  0.0354 -0.0160  1.0875
25061SOL    HW178585   5.911   1.911   9.222  1.1077 -0.5298  1.0207
25061SOL    HW278586   6.038   1.977   9.171  0.1036  0.4703 -0.2698
25062SOL     OW78587   3.766   9.818   3.753  0.0114  0.0331  0.3040
25062SOL    HW178588   3.683   9.803   3.799  0.3662 -0.0760  0.9183
25062SOL    HW278589   3.775   9.741   3.696 -0.0657 -0.2038  0.6079
25063SOL     OW78590   2.739   1.267   9.063  0.0398  0.2793  0.1708
25063SOL    HW178591   2.744   1.328   9.137  0.2804 -2.1356  2.2690
25063SOL    HW278592   2.740   1.180   9.103 -0.1652 -1.1566 -2.6874
25064SOL     OW78593  10.326   6.225   9.134 -0.0410  0.2377 -0.6440
25064SOL    HW178594  10.398   6.171   9.101 -1.0630 -1.4199 -0.3117
25064SOL    HW278595  10.327   6.303   9.078  1.3560 -0.2223 -1.3059
25065SOL     OW78596   5.575   3.395   5.121  0.0276 -0.1076 -0.7182
25065SOL    HW178597   5.660   3.417   5.084 -0.0677  0.1662 -0.7773
25065SOL    HW278598   5.555   3.466   5.181 -0.3671  0.0695 -1.0504
25066SOL     OW78599   6.616  10.807   0.839  0.0949 -0.4171  0.1875
25066SOL    HW178600   6.547  10.859   0.881  0.4624 -0.7292  1.2281
25066SOL    HW278601   6.577  10.721   0.826  0.3968 -0.7167  1.1595
25067SOL     OW78602   6.570   5.570  10.461  0.1407 -0.3534  0.3315
25067SOL    HW178603   6.561   5.475  10.462  1.4936 -0.5235 -0.3211
25067SOL    HW278604   6.596   5.592  10.551 -1.3615 -0.4329  0.8098
25068SOL     OW78605   6.613   0.293   2.180  0.1049 -0.0698  0.2619
25068SOL    HW178606   6.518   0.283   2.189  0.0102  1.3650  1.1270
25068SOL    HW278607   6.625   0.382   2.147  1.1414 -0.5284 -0.6853
25069SOL     OW78608   4.213   9.146   2.894  0.0528 -0.6054  0.1512
25069SOL    HW178609   4.248   9.200   2.823  1.1717  1.0854  1.8841
25069SOL    HW278610   4.120   9.169   2.897  0.2450  0.2399  0.0080
25070SOL     OW78611   7.093   5.826   9.993 -0.3895 -0.4317 -0.2401
25070SOL    HW178612   7.071   5.747  10.043 -2.5260  0.3874  0.2562
25070SOL    HW278613   7.106   5.894  10.060 -1.1020  0.1808 -0.7018
25071SOL     OW78614   8.994   1.310  10.840 -0.1053 -0.3193 -0.3259
25071SOL    HW178615   8.959   1.341  10.756 -0.2053  0.2731 -0.0781
25071SOL    HW278616   9.076   1.267  10.818 -0.2060 -0.3006 -0.7469
25072SOL     OW78617   0.581   3.124   3.195 -0.3403  0.2751  0.5403
25072SOL    HW178618   0.656   3.117   3.135 -0.5558 -1.6429  0.4487
25072SOL    HW278619   0.507   3.090   3.144 -0.5385 -1.3426  1.8443
25073SOL     OW78620   9.657   7.007   0.159 -0.2684  0.5287 -0.6764
25073SOL    HW178621   9.581   6.956   0.131 -0.4304  0.5365 -0.2604
25073SOL    HW278622   9.636   7.034   0.248  1.4771 -2.0392  0.6463
25074SOL     OW78623   0.444   2.483   8.834  0.0967 -0.4691 -0.2233
25074SOL    HW178624   0.456   2.449   8.923  0.7347  0.2905 -0.0053
25074SOL    HW278625   0.507   2.435   8.781  0.2901 -0.3365 -0.1122
25075SOL     OW78626  10.323   1.684   9.533 -0.1422 -0.0645  0.0387
25075SOL    HW178627  10.239   1.646   9.506 -0.4097  0.3094  0.3331
25075SOL    HW278628  10.348   1.635   9.611  0.5739 -1.0681 -0.7945
25076SOL     OW78629   8.336   9.317   0.949  0.1131 -0.1628  0.2223
25076SOL    HW178630   8.318   9.406   0.977  0.4789 -0.0310  0.0514
25076SOL    HW278631   8.391   9.281   1.019  0.1718 -0.1688  0.1742
25077SOL     OW78632   6.535   0.123   9.307  0.0122 -0.5434 -0.2693
25077SOL    HW178633   6.587   0.193   9.347 -0.0554 -1.4289  1.4786
25077SOL    HW278634   6.570   0.115   9.219 -0.7646  2.4545 -0.9632
25078SOL     OW78635   6.402   0.952   5.277 -0.1355 -0.2888  0.1042
25078SOL    HW178636   6.418   0.925   5.367  1.1957 -0.8298 -0.2675
25078SOL    HW278637   6.485   0.937   5.232 -0.9963 -0.7921 -1.4049
25079SOL     OW78638   3.781   9.477   9.781  0.0154 -0.2240  0.3244
25079SOL    HW178639   3.839   9.486   9.705 -0.1240 -0.8375  0.1395
25079SOL    HW278640   3.748   9.565   9.796 -0.6410 -0.2400 -0.8734
25080SOL     OW78641   5.326   4.581  10.085 -0.4193 -0.3978  0.2635
25080SOL    HW178642   5.384   4.592  10.160  0.5890 -0.3130 -0.5085
25080SOL    HW278643   5.296   4.670  10.065 -0.6892 -0.4202  0.5460
25081SOL     OW78644   8.274   4.342   9.885  0.2546 -0.4239 -0.5780
25081SOL    HW178645   8.336   4.276   9.852 -1.5056 -1.6593 -1.5637
25081SOL    HW278646   8.319   4.425   9.871  1.7223 -1.2734 -1.1936
25082SOL     OW78647   0.605   3.053  10.669  0.1811 -0.2577 -0.0324
25082SOL    HW178648   0.655   3.021  10.744 -0.0579 -0.0829  0.2016
25082SOL    HW278649   0.668   3.101  10.616  0.2676 -0.0653  0.2463
25083SOL     OW78650   5.852   4.947   6.783  0.5346  0.1735  0.5248
25083SOL    HW178651   5.896   5.016   6.733 -0.7386 -0.1635 -1.1652
25083SOL    HW278652   5.890   4.866   6.752 -1.5415 -0.1605 -1.3801
25084SOL     OW78653   6.917   2.920   2.789 -0.3099 -0.4493  0.0680
25084SOL    HW178654   6.986   2.985   2.778 -0.2464 -0.7656 -1.6308
25084SOL    HW278655   6.920   2.898   2.882  2.1048 -0.7251 -0.0152
25085SOL     OW78656   5.386   9.808   2.258 -0.1546  0.7239  0.5638
25085SOL    HW178657   5.362   9.895   2.290 -0.3633  1.2939 -1.0466
25085SOL    HW278658   5.477   9.818   2.227  0.0912  0.1582  1.0899
25086SOL     OW78659   1.268  10.279   4.106 -0.5741  0.2921  0.3845
25086SOL    HW178660   1.277  10.193   4.065  2.4975  0.3726  0.6635
25086SOL    HW278661   1.234  10.260   4.193 -1.8298 -0.4006 -0.2216
25087SOL     OW78662   4.432   2.076   9.502  0.1413  0.5682 -0.5070
25087SOL    HW178663   4.346   2.034   9.489  0.8128 -0.7746 -0.8088
25087SOL    HW278664   4.414   2.148   9.562 -0.7742 -1.5031  1.9019
25088SOL     OW78665   0.546   7.336   2.772 -0.4353 -0.0258  0.2718
25088SOL    HW178666   0.454   7.317   2.791 -0.4168 -0.8881 -0.4144
25088SOL    HW278667   0.592   7.310   2.852 -0.7290 -0.1948  0.3903
25089SOL     OW78668   3.995   3.480   8.219  0.4613 -0.5669  0.1638
25089SOL    HW178669   4.044   3.403   8.245 -0.1080 -0.9816  0.0358
25089SOL    HW278670   3.988   3.532   8.299  0.7557 -0.6983  0.2756
25090SOL     OW78671   4.463   4.986   9.119 -0.3736 -0.2271 -0.5488
25090SOL    HW178672   4.517   4.909   9.104 -0.0542  0.1304 -1.2976
25090SOL    HW278673   4.506   5.055   9.068 -0.2144  0.6401  0.7192
25091SOL     OW78674   2.852   9.681   3.879  0.1326 -0.3106 -0.0906
25091SOL    HW178675   2.805   9.629   3.945  0.2133  0.1241  0.3102
25091SOL    HW278676   2.824   9.771   3.895  0.6447 -0.1237 -0.2418
25092SOL     OW78677   3.017   6.631  10.654  0.1376  0.3044  0.1221
25092SOL    HW178678   3.030   6.654  10.746 -0.3801 -0.8652  0.5064
25092SOL    HW278679   2.947   6.689  10.625 -0.0181  0.3615  0.6009
25093SOL     OW78680   7.499   8.205   2.638  0.0561  0.2854 -0.3982
25093SOL    HW178681   7.462   8.273   2.582  0.0449  0.6840  0.0892
25093SOL    HW278682   7.452   8.126   2.614 -0.1291  0.5083 -0.7713
25094SOL     OW78683   4.822   4.490   2.284 -0.3456 -0.4058 -0.6361
25094SOL    HW178684   4.796   4.398   2.285  1.5286 -0.9993 -2.0163
25094SOL    HW278685   4.829   4.512   2.191 -0.4209  1.0495 -0.3213
25095SOL     OW78686   9.544   6.806   5.684  0.1932 -0.1390 -0.1900
25095SOL    HW178687   9.588   6.773   5.606  1.0214  1.4832 -0.4562
25095SOL    HW278688   9.600   6.778   5.757 -0.3959 -1.3505 -0.1825
25096SOL     OW78689   2.262   1.246   1.270 -0.0359 -0.2801  0.7393
25096SOL    HW178690   2.303   1.255   1.355  0.3488 -1.0013  0.6398
25096SOL    HW278691   2.323   1.289   1.209 -0.8427  1.2076  0.9605
25097SOL     OW78692   3.319   3.350   9.970 -0.1676 -0.5193  0.4011
25097SOL    HW178693   3.403   3.379   9.934 -0.7402  2.4534  1.2094
25097SOL    HW278694   3.340   3.269  10.017  2.0638 -0.2938 -0.0855
25098SOL     OW78695   1.815   5.731  10.223  0.2399 -0.0713 -0.2121
25098SOL    HW178696   1.895   5.695  10.263 -0.1204  0.9798  1.5206
25098SOL    HW278697   1.821   5.825  10.237  0.1541  0.4011 -2.8470
25099SOL     OW78698   2.798  10.815   3.213 -0.0015  0.2648  0.3232
25099SOL    HW178699   2.822  10.753   3.144  0.9728  1.6029 -0.5867
25099SOL    HW278700   2.709  10.842   3.191  0.1332  0.3367 -0.1458
25100SOL     OW78701   5.785   6.258   8.637  0.2448 -0.6416  0.1128
25100SOL    HW178702   5.720   6.323   8.664 -0.9350 -1.3994 -0.8207
25100SOL    HW278703   5.869   6.297   8.662 -0.4264  1.1625 -0.2528
25101SOL     OW78704   1.745   2.022   9.706  0.3127 -0.2812  0.6832
25101SOL    HW178705   1.839   2.038   9.718  0.1981  1.9859 -0.7942
25101SOL    HW278706   1.708   2.109   9.689 -1.5475 -1.4396 -1.8650
25102SOL     OW78707   6.981   1.251   9.842  0.2416 -0.4471  0.4259
25102SOL    HW178708   6.900   1.299   9.826 -1.2160 -2.6856  0.6087
25102SOL    HW278709   7.038   1.273   9.768 -1.0818  0.0620 -0.4610
25103SOL     OW78710   4.594   5.899   1.725  0.1213  0.1181  0.5425
25103SOL    HW178711   4.531   5.829   1.706  0.1287  0.5392 -1.1664
25103SOL    HW278712   4.541   5.976   1.743  0.1190  0.3882 -0.5568
25104SOL     OW78713   1.935   7.154   4.191  0.3153  0.1375 -0.2797
25104SOL    HW178714   1.865   7.090   4.180 -0.3333  0.6395  0.8000
25104SOL    HW278715   1.921   7.191   4.279  2.6644 -0.6494  0.5153
25105SOL     OW78716  10.203   4.582   3.469  0.4244 -0.1193  0.1758
25105SOL    HW178717  10.290   4.551   3.444  1.1450  1.6026  0.3684
25105SOL    HW278718  10.220   4.643   3.540 -1.3092 -2.6359  2.9673
25106SOL     OW78719  10.869   0.456   0.056  0.1696  0.2635  0.3086
25106SOL    HW178720  10.959   0.434   0.079  0.8025  2.5100  0.1620
25106SOL    HW278721  10.874   0.497  -0.030 -1.1253 -0.3036 -0.0761
25107SOL     OW78722   1.943   4.678   8.510 -0.1430  0.0779 -0.4501
25107SOL    HW178723   2.039   4.679   8.504 -0.0835  0.7584  0.4069
25107SOL    HW278724   1.916   4.615   8.444  0.8482  0.5574 -1.3430
25108SOL     OW78725   7.327   8.787   0.732  0.3965 -0.1062 -0.5038
25108SOL    HW178726   7.309   8.736   0.652 -1.4400 -0.3161 -0.0044
25108SOL    HW278727   7.256   8.763   0.791  1.1427  0.8606  0.8188
25109SOL     OW78728   0.128   1.142   5.387 -0.1212  0.3089 -0.5992
25109SOL    HW178729   0.085   1.091   5.319  0.8596 -0.7291 -0.4651
25109SOL    HW278730   0.099   1.232   5.371 -2.3190 -0.3221 -0.5182
25110SOL     OW78731   9.481   0.739   0.425  0.3423  0.3209  0.3136
25110SOL    HW178732   9.456   0.683   0.499  1.0650 -0.1079  0.2501
25110SOL    HW278733   9.398   0.765   0.385 -0.0286 -0.1758  0.7415
25111SOL     OW78734   9.123   8.791   9.664  0.4966  0.7728  0.2981
25111SOL    HW178735   9.091   8.708   9.700 -2.3763  0.6052 -2.2489
25111SOL    HW278736   9.196   8.766   9.607 -1.7411 -0.4662 -2.2180
25112SOL     OW78737   6.175   5.976   1.518 -0.1074  0.4678 -0.2431
25112SOL    HW178738   6.247   5.976   1.581 -0.1147  0.8372 -0.2320
25112SOL    HW278739   6.096   5.977   1.572 -0.1307 -0.3482 -0.2514
25113SOL     OW78740   4.053   0.306   5.516  0.2629  0.0394 -0.1414
25113SOL    HW178741   4.129   0.344   5.561 -0.0318 -0.6705  0.9804
25113SOL    HW278742   4.087   0.280   5.430  1.2679 -0.1704  0.3057
25114SOL     OW78743   5.848   4.227   5.591  0.3286 -0.2381  0.0092
25114SOL    HW178744   5.839   4.286   5.516 -0.1798  0.0619  0.3038
25114SOL    HW278745   5.801   4.271   5.662  2.0323  0.1829  0.9179
25115SOL     OW78746   3.210   3.290   8.600 -0.4483 -0.5431 -0.7486
25115SOL    HW178747   3.223   3.383   8.577 -2.2283 -0.5372 -1.9642
25115SOL    HW278748   3.155   3.292   8.678  1.0029 -0.6075  0.3192
25116SOL     OW78749   3.550   4.492   3.558  0.1893  0.1615 -0.0897
25116SOL    HW178750   3.472   4.544   3.541 -0.5155 -0.6556  0.5255
25116SOL    HW278751   3.596   4.539   3.628 -1.1673 -0.7323  1.4595
25117SOL     OW78752   5.932   0.278   0.954  0.0834 -0.3036 -0.0597
25117SOL    HW178753   5.842   0.302   0.976  0.7023  0.4979  1.8266
25117SOL    HW278754   5.927   0.246   0.864 -1.9715  0.3312 -0.2265
25118SOL     OW78755   9.180   0.987   8.141  0.6659 -0.5072  0.1605
25118SOL    HW178756   9.137   1.057   8.191  0.9124 -0.7948  0.7819
25118SOL    HW278757   9.192   1.024   8.053  1.0287  0.3206  0.5562
25119SOL     OW78758   7.160   2.913   1.983 -0.0976 -0.3590  0.4111
25119SOL    HW178759   7.206   2.996   1.989 -1.4689  0.3945  0.9250
25119SOL    HW278760   7.170   2.886   1.891 -0.7529  1.0528 -0.0966
25120SOL     OW78761   6.709   1.017   1.642 -0.5813 -0.3898 -0.2166
25120SOL    HW178762   6.769   0.948   1.611  1.1387  1.0480 -0.2582
25120SOL    HW278763   6.701   1.077   1.568 -0.5341  0.4141  0.4095
25121SOL     OW78764   2.374   6.254   8.944 -0.6092  0.2921 -0.0751
25121SOL    HW178765   2.378   6.303   9.026 -0.5727  0.0876  0.0466
25121SOL    HW278766   2.378   6.321   8.876 -1.2631  0.5064  0.0907
25122SOL     OW78767   3.754   2.215   2.179  0.4456 -0.4413 -0.4838
25122SOL    HW178768   3.677   2.166   2.153 -0.6739 -0.9928  3.1983
25122SOL    HW278769   3.817   2.202   2.109 -1.9672 -1.9504 -2.5105
25123SOL     OW78770   7.109   9.620   4.988  0.2781  0.0092 -0.4716
25123SOL    HW178771   7.067   9.547   4.942  0.1345 -0.8285  0.9510
25123SOL    HW278772   7.045   9.691   4.983 -0.5592 -0.6862  0.0976
25124SOL     OW78773   1.127   1.036   5.163  0.4516 -0.2906 -0.9020
25124SOL    HW178774   1.043   1.011   5.200 -0.1828 -1.6234 -3.0562
25124SOL    HW278775   1.190   0.975   5.202 -0.2169 -1.7403 -2.0045
25125SOL     OW78776   8.958   0.697   2.211  0.3121  0.6393 -0.7066
25125SOL    HW178777   9.042   0.708   2.167  0.2311  0.6551 -0.8585
25125SOL    HW278778   8.977   0.714   2.304  0.9002 -1.2914 -0.4205
25126SOL     OW78779   3.642   8.175   4.971  0.0380  0.0625 -0.1498
25126SOL    HW178780   3.735   8.154   4.975  0.3699  1.1480 -1.5785
25126SOL    HW278781   3.639   8.270   4.960 -1.2745  0.1343  0.6497
25127SOL     OW78782   8.488   2.985  10.218 -0.3677 -0.0334  0.7138
25127SOL    HW178783   8.573   3.028  10.230 -0.0648 -0.0666 -1.0165
25127SOL    HW278784   8.432   3.052  10.180 -0.6081 -0.4893  0.2540
25128SOL     OW78785   4.923   4.462   8.699  0.1903 -0.0552 -0.0220
25128SOL    HW178786   4.860   4.448   8.771  1.7163  0.4665  1.4714
25128SOL    HW278787   4.877   4.521   8.639 -0.8567  0.1052  0.8891
25129SOL     OW78788   9.288   7.163   0.901  0.2046 -0.3603 -0.1664
25129SOL    HW178789   9.268   7.254   0.880  1.0804  0.0461  0.6727
25129SOL    HW278790   9.292   7.162   0.997 -2.7910 -1.9287  0.0617
25130SOL     OW78791   7.672   0.977   2.282 -0.1764 -0.4474  0.0383
25130SOL    HW178792   7.640   0.890   2.258  0.1808 -0.5633 -0.0129
25130SOL    HW278793   7.595   1.034   2.274 -0.3172 -0.6859 -0.3055
25131SOL     OW78794   5.806   5.187   2.107 -0.2100 -0.4889 -0.2970
25131SOL    HW178795   5.781   5.274   2.136 -0.6756 -0.1162 -1.7639
25131SOL    HW278796   5.899   5.181   2.127  0.3935  1.2461 -2.2578
25132SOL     OW78797   1.230   1.874   5.049 -0.6566 -0.1410 -0.6314
25132SOL    HW178798   1.139   1.843   5.049  0.1999 -2.9641  0.5715
25132SOL    HW278799   1.271   1.827   4.977  0.1513  0.0542 -0.3065
25133SOL     OW78800   3.978   9.835   9.285  0.0092  0.3369  0.3949
25133SOL    HW178801   4.071   9.839   9.308 -0.2737 -0.7386  1.8459
25133SOL    HW278802   3.976   9.855   9.191  1.6387  0.8770  0.4393
25134SOL     OW78803   1.049   1.047   4.769  0.0687  0.2343  0.0975
25134SOL    HW178804   0.986   1.000   4.825 -0.1816  0.9315  0.4173
25134SOL    HW278805   1.054   1.134   4.808 -1.5469  1.3825 -2.0419
25135SOL     OW78806  10.840   5.414   0.016  0.3022  0.0266 -0.4820
25135SOL    HW178807  10.854   5.506   0.040 -0.4973  0.2468 -0.8285
25135SOL    HW278808  10.927   5.375   0.019  0.3775  0.2372  1.8886
25136SOL     OW78809   9.697   9.369   4.251  0.1713 -0.1112  0.0014
25136SOL    HW178810   9.757   9.383   4.324 -0.7353  0.1048  0.7249
25136SOL    HW278811   9.693   9.454   4.207  0.9555 -0.3222 -0.5004
25137SOL     OW78812   3.550   6.498   7.163 -0.3030 -0.1863 -0.1945
25137SOL    HW178813   3.533   6.415   7.208  2.6530 -0.7342  0.1793
25137SOL    HW278814   3.646   6.500   7.154 -0.0404  3.9239  1.3197
25138SOL     OW78815   9.276   3.661   7.109  0.2516  0.1386  0.6619
25138SOL    HW178816   9.210   3.592   7.119  0.6683 -0.3302  0.2950
25138SOL    HW278817   9.303   3.654   7.017  0.7547  0.3702  0.7896
25139SOL     OW78818   2.615   1.762   6.324 -0.3206 -0.3061  0.5843
25139SOL    HW178819   2.674   1.687   6.328 -2.8772 -2.4044  1.6060
25139SOL    HW278820   2.589   1.777   6.414  0.7129  2.4485  0.5326
25140SOL     OW78821   9.068   7.970  10.006 -0.1026  0.1826 -0.2932
25140SOL    HW178822   9.077   7.939   9.916  0.3932  0.8256 -0.4761
25140SOL    HW278823   8.978   7.949  10.030 -1.1166  2.2883 -1.8451
25141SOL     OW78824   2.249   7.765   1.399  0.1631 -0.3434 -0.4062
25141SOL    HW178825   2.322   7.822   1.374 -0.5435  0.2878 -1.0862
25141SOL    HW278826   2.215   7.804   1.480 -2.0652  1.9329 -2.2993
25142SOL     OW78827   1.961   7.554   2.801 -0.0268 -0.6648  0.3311
25142SOL    HW178828   2.023   7.615   2.761 -0.2680 -0.7255 -0.1502
25142SOL    HW278829   1.898   7.610   2.845 -0.2481 -0.5577 -0.1103
25143SOL     OW78830   9.618   5.628   3.693  0.3918 -0.3969 -0.6348
25143SOL    HW178831   9.692   5.678   3.727  0.6672 -0.7354 -0.7307
25143SOL    HW278832   9.654   5.580   3.619  0.0663 -0.5382 -0.7021
25144SOL     OW78833   5.369   8.896   0.547 -0.3382  0.3212 -0.3909
25144SOL    HW178834   5.462   8.872   0.540  0.5372  2.9092  0.8980
25144SOL    HW278835   5.349   8.887   0.640 -1.1033  0.6804 -0.5102
25145SOL     OW78836  10.180   8.814   3.288  0.2180  0.4080  0.1925
25145SOL    HW178837  10.173   8.722   3.314 -0.7522  0.0248 -1.2966
25145SOL    HW278838  10.196   8.861   3.370 -2.0914 -0.7822  1.4355
25146SOL     OW78839   0.915   6.684  10.558  0.1365 -0.5784 -0.0067
25146SOL    HW178840   0.823   6.661  10.573  0.1804 -0.0833  1.1032
25146SOL    HW278841   0.926   6.768  10.602  0.8388 -0.0754 -1.1120
25147SOL     OW78842   7.735   5.467   8.494 -0.6223 -0.1664  0.5896
25147SOL    HW178843   7.752   5.555   8.528 -2.1978  0.3911  0.0171
25147SOL    HW278844   7.812   5.417   8.519 -0.8550  0.6635  3.3490
25148SOL     OW78845   8.787   3.387   2.394 -0.1073  0.4115 -0.2394
25148SOL    HW178846   8.759   3.462   2.342  1.6416  0.7211 -0.8254
25148SOL    HW278847   8.869   3.359   2.352  0.4212 -0.4301  1.2882
25149SOL     OW78848   4.996   3.926   1.589 -0.0799 -0.0804  0.1157
25149SOL    HW178849   4.994   4.002   1.646 -0.5358 -2.4675  3.5768
25149SOL    HW278850   5.087   3.897   1.589 -0.3155 -0.8699  0.8315
25150SOL     OW78851   6.730  10.620   2.299  0.7545 -1.0585 -0.6062
25150SOL    HW178852   6.789  10.658   2.364  0.4133 -0.6898 -0.5085
25150SOL    HW278853   6.779  10.625   2.217  0.6944 -0.3366 -0.6068
25151SOL     OW78854   3.840   0.853   0.031 -0.4568  0.0166  0.4014
25151SOL    HW178855   3.800   0.766   0.029 -0.5076  0.0502 -0.4370
25151SOL    HW278856   3.788   0.905  -0.030  0.3703  0.2708 -0.1087
25152SOL     OW78857   8.135   0.976   7.280 -0.0795  0.0851  0.1389
25152SOL    HW178858   8.172   1.046   7.225 -1.9345  1.0639  0.0626
25152SOL    HW278859   8.062   0.942   7.228  0.3975 -1.4958  0.4641
25153SOL     OW78860   3.308   7.651   8.272 -0.1986 -0.4000  0.2285
25153SOL    HW178861   3.300   7.745   8.255 -0.8875 -0.6327 -0.7855
25153SOL    HW278862   3.222   7.615   8.249  0.3151 -1.3982 -0.1842
25154SOL     OW78863   4.016   8.869   9.697 -0.5895  0.1743 -0.5756
25154SOL    HW178864   4.018   8.856   9.792 -1.9194  1.0637 -0.4022
25154SOL    HW278865   4.000   8.781   9.662  1.2551 -0.4069 -0.0970
25155SOL     OW78866   1.116   8.819   0.754 -0.5473 -0.2907  0.0236
25155SOL    HW178867   1.031   8.858   0.770 -0.4799  0.6410 -1.6600
25155SOL    HW278868   1.097   8.742   0.700 -0.2424  0.8495 -1.7820
25156SOL     OW78869  10.641   6.303   4.666  0.1258 -0.0422 -0.3588
25156SOL    HW178870  10.732   6.325   4.687 -0.5752  1.9531  0.8121
25156SOL    HW278871  10.631   6.326   4.573  1.3951 -2.5300 -1.2078
25157SOL     OW78872   9.596   6.162   5.408  0.5095 -0.2950  0.0170
25157SOL    HW178873   9.568   6.233   5.351 -0.1964 -1.1461 -0.7417
25157SOL    HW278874   9.653   6.203   5.473  1.5699  0.6877 -1.4535
25158SOL     OW78875   8.420   7.304   9.418  0.1453  0.1298 -0.2570
25158SOL    HW178876   8.346   7.333   9.471  0.0254 -1.1311  0.3229
25158SOL    HW278877   8.497   7.345   9.458  0.2302 -1.8587  1.8366
25159SOL     OW78878   6.643   0.696   5.839 -0.2983 -0.4262  0.0082
25159SOL    HW178879   6.708   0.628   5.820  1.9251  1.3137  0.9725
25159SOL    HW278880   6.582   0.692   5.765  0.8557 -2.1643 -0.9194
25160SOL     OW78881   5.200   1.678   6.524 -0.1677 -0.0419 -0.0916
25160SOL    HW178882   5.203   1.689   6.429 -1.0444 -0.0004 -0.1270
25160SOL    HW278883   5.183   1.766   6.558  1.4165  0.1742  0.1992
25161SOL     OW78884   1.659   6.194   9.168 -0.4533 -0.3675  0.0664
25161SOL    HW178885   1.703   6.189   9.253 -0.2003 -0.8283 -0.0875
25161SOL    HW278886   1.651   6.103   9.140  2.5960 -0.1728 -1.9678
25162SOL     OW78887   3.151   8.746   2.297 -0.0839  0.3309  0.0745
25162SOL    HW178888   3.079   8.683   2.302 -0.2331  0.3911 -1.1002
25162SOL    HW278889   3.228   8.697   2.327 -0.4515  0.0120  0.5135
25163SOL     OW78890   1.737  10.384   9.514 -0.5840 -0.4344 -0.6000
25163SOL    HW178891   1.680  10.370   9.590  0.3406 -1.9949 -0.1363
25163SOL    HW278892   1.783  10.465   9.532 -0.8176 -0.4771  0.2345
25164SOL     OW78893   3.997   6.753   6.460 -0.0696  0.2747 -0.4660
25164SOL    HW178894   4.008   6.660   6.441  2.2355  0.4799 -0.4011
25164SOL    HW278895   3.940   6.756   6.537  0.0796 -1.0941 -0.2826
25165SOL     OW78896   1.788   8.262   4.378  0.2763 -0.6740 -0.0466
25165SOL    HW178897   1.864   8.245   4.323 -1.1341  0.8992 -2.7283
25165SOL    HW278898   1.715   8.219   4.333 -1.0379  1.1337  0.2165
25166SOL     OW78899   2.155   6.106   4.919  0.7060 -0.0828 -0.3451
25166SOL    HW178900   2.147   6.146   4.832 -1.7921 -0.4730 -0.3844
25166SOL    HW278901   2.124   6.174   4.979  0.2019 -0.6039 -0.0088
25167SOL     OW78902   2.398   5.170   4.389  0.5638  0.1868  0.5243
25167SOL    HW178903   2.448   5.159   4.309  0.8992 -0.9301  0.8744
25167SOL    HW278904   2.317   5.213   4.361  1.3120  1.1968 -0.1757
25168SOL     OW78905   0.623   8.893   0.226  1.0675 -0.4672  0.4288
25168SOL    HW178906   0.528   8.898   0.241  1.2932  0.3796  1.7120
25168SOL    HW278907   0.638   8.803   0.197  0.2061 -1.5231  2.9745
25169SOL     OW78908   7.463   6.175   8.533  0.1742  0.2205  0.5290
25169SOL    HW178909   7.459   6.106   8.599 -0.8645 -0.2686 -0.0249
25169SOL    HW278910   7.529   6.145   8.470 -0.5555 -0.4844  0.0781
25170SOL     OW78911  10.473   0.358   7.865 -0.2559 -0.1634 -0.1198
25170SOL    HW178912  10.425   0.294   7.813  0.3292 -0.7143 -0.0001
25170SOL    HW278913  10.563   0.353   7.832  0.1220 -0.5027  0.9120
25171SOL     OW78914   3.303   0.823   7.156 -0.3753  0.3488 -0.0697
25171SOL    HW178915   3.344   0.776   7.229 -0.8680 -0.3123 -0.2062
25171SOL    HW278916   3.289   0.756   7.089 -1.5764  0.5629 -0.0641
25172SOL     OW78917  10.595   4.001   5.666 -0.2539  0.2244  0.1345
25172SOL    HW178918  10.520   3.968   5.618 -1.1468  2.0077  0.2435
25172SOL    HW278919  10.644   3.922   5.691 -0.6386 -0.8210 -2.2114
25173SOL     OW78920   1.582   9.313   1.361 -0.0248  0.2158 -0.5225
25173SOL    HW178921   1.573   9.400   1.400 -0.1094 -0.1082  0.2065
25173SOL    HW278922   1.664   9.317   1.312  1.4754 -0.1188  1.8196
25174SOL     OW78923   4.201   7.778   3.250  0.2510 -0.5390 -0.3756
25174SOL    HW178924   4.156   7.763   3.167  0.5567 -3.8673 -0.0928
25174SOL    HW278925   4.157   7.719   3.312  2.4266 -0.9685  0.8551
25175SOL     OW78926   2.565   5.740   6.698 -0.1852 -0.0923 -0.5163
25175SOL    HW178927   2.476   5.727   6.729 -0.9966  0.4691 -2.4861
25175SOL    HW278928   2.575   5.835   6.691  0.9249 -0.0959  0.5916
25176SOL     OW78929   9.286  10.786   6.486 -0.4556  1.0557  0.4174
25176SOL    HW178930   9.231  10.793   6.564 -0.1846  1.6514  0.5618
25176SOL    HW278931   9.374  10.768   6.520 -0.6047 -0.2992  0.1755
25177SOL     OW78932   9.014   8.758   2.454  0.5512 -0.3258  0.6935
25177SOL    HW178933   8.951   8.780   2.385  0.8150 -0.5516  0.3829
25177SOL    HW278934   8.959   8.730   2.528  0.1525  1.7950  1.2857
25178SOL     OW78935  10.305   3.080  10.601  0.4185  0.4883 -0.4829
25178SOL    HW178936  10.271   3.062  10.689 -2.2377 -1.2789 -1.7240
25178SOL    HW278937  10.357   3.003  10.580  1.6771  1.2482 -0.2184
25179SOL     OW78938   1.026   8.204  10.461  0.9034 -0.1616 -0.0550
25179SOL    HW178939   0.944   8.193  10.510  0.5604  0.3085 -0.5073
25179SOL    HW278940   1.041   8.119  10.421 -0.1587  0.1370 -1.1546
25180SOL     OW78941   4.584   4.863  10.805  0.3031  0.3310 -0.1227
25180SOL    HW178942   4.587   4.811  10.886 -0.0450  0.3342 -0.1055
25180SOL    HW278943   4.611   4.950  10.832  0.1287  0.3465  0.0065
25181SOL     OW78944   4.256   1.473   2.949  0.2380  0.1514  0.0888
25181SOL    HW178945   4.329   1.416   2.926 -0.2318  0.0036 -1.0798
25181SOL    HW278946   4.179   1.429   2.914 -0.3385  0.6634  0.6808
25182SOL     OW78947   9.506   6.997   8.253 -0.4805  0.2135 -0.3307
25182SOL    HW178948   9.426   7.018   8.205 -0.2803 -0.7709 -1.1380
25182SOL    HW278949   9.567   6.968   8.186  0.0517 -0.5010  0.4407
25183SOL     OW78950   0.939  10.652   4.698  0.7279  0.7470  0.3907
25183SOL    HW178951   0.929  10.738   4.739  1.5532  2.2782 -2.3203
25183SOL    HW278952   0.938  10.671   4.604 -0.7095 -2.4513 -0.3540
25184SOL     OW78953   9.132   9.566   5.907  0.1424  0.6350  0.1824
25184SOL    HW178954   9.214   9.602   5.874  0.2074 -1.1947 -1.8135
25184SOL    HW278955   9.065   9.604   5.850 -0.0513 -0.3755 -0.2707
25185SOL     OW78956   1.514   5.025   1.058 -0.3497  0.5380 -0.1118
25185SOL    HW178957   1.453   5.078   1.110 -0.2749  0.8080 -0.2947
25185SOL    HW278958   1.568   5.089   1.012 -0.4231  0.3023 -0.5326
25186SOL     OW78959  10.392   8.574   9.916 -0.0184  0.1947 -0.4084
25186SOL    HW178960  10.481   8.593   9.947  0.2755  1.0055 -1.6472
25186SOL    HW278961  10.394   8.599   9.823 -2.2603  2.7667  0.1197
25187SOL     OW78962   3.874   8.529   5.619  0.5062 -0.1336 -0.3892
25187SOL    HW178963   3.810   8.540   5.689 -0.3044 -0.0769 -1.1251
25187SOL    HW278964   3.955   8.503   5.664  0.1842  0.5591  0.6124
25188SOL     OW78965   7.817   6.411   9.338  0.0716 -0.0926 -0.1544
25188SOL    HW178966   7.790   6.390   9.427 -1.2381  0.2870 -0.4328
25188SOL    HW278967   7.911   6.395   9.337  0.5069  1.8132  1.8674
25189SOL     OW78968   4.082   9.053   5.717  0.0936 -0.0325 -0.1829
25189SOL    HW178969   4.048   8.983   5.661 -0.2789 -1.0731  1.3019
25189SOL    HW278970   4.010   9.076   5.775  0.5010  0.9706 -0.0441
25190SOL     OW78971   4.085   5.738   8.355  0.7213 -0.8765  0.4706
25190SOL    HW178972   4.075   5.693   8.271  2.0209 -0.4530  0.0808
25190SOL    HW278973   4.177   5.764   8.358  0.4624 -0.0254  1.5895
25191SOL     OW78974   8.749   2.027   2.016  0.3785 -0.2007  0.1518
25191SOL    HW178975   8.801   2.064   2.087  2.5142  0.8837 -1.8689
25191SOL    HW278976   8.663   2.069   2.026  0.9082  0.6365  1.5290
25192SOL     OW78977  10.201   3.133   3.272  0.0398 -0.1712 -0.1379
25192SOL    HW178978  10.275   3.114   3.329 -1.1009 -1.8314  0.8587
25192SOL    HW278979  10.200   3.229   3.266  1.8994 -0.0967  0.2856
25193SOL     OW78980   5.879   8.865   1.800 -0.1808 -0.3661 -0.2662
25193SOL    HW178981   5.907   8.955   1.816 -0.3801  0.1585 -2.4699
25193SOL    HW278982   5.784   8.869   1.798 -0.1723 -0.2668 -1.9103
25194SOL     OW78983   5.494  10.103   9.701 -0.2371  0.1447  0.6722
25194SOL    HW178984   5.571  10.125   9.647 -0.2483 -0.4271  0.4177
25194SOL    HW278985   5.516  10.019   9.741  0.1130  0.9581  2.2437
25195SOL     OW78986   5.352   7.400   6.505  0.6611  0.1950 -0.3092
25195SOL    HW178987   5.412   7.331   6.476  0.8889  0.1581  0.2482
25195SOL    HW278988   5.267   7.373   6.471  0.6197 -0.7168  0.4755
25196SOL     OW78989   2.723   1.564   2.926  0.1625  0.0454 -0.8269
25196SOL    HW178990   2.739   1.480   2.968 -1.1151  1.6521  3.3356
25196SOL    HW278991   2.807   1.609   2.930 -0.0269  0.3249  0.5444
25197SOL     OW78992   3.786   8.666   5.417  0.0502 -0.5721  1.3293
25197SOL    HW178993   3.863   8.689   5.366  0.4002 -2.4179  0.9354
25197SOL    HW278994   3.818   8.601   5.481 -1.1894 -1.5993  0.9618
25198SOL     OW78995   2.975  10.651   8.441  0.5101  0.2508  0.2108
25198SOL    HW178996   2.986  10.587   8.371  0.5657 -1.4537  1.6993
25198SOL    HW278997   2.882  10.672   8.441  0.3052 -0.6407  0.3680
25199SOL     OW78998   2.031   6.785   7.187  0.0623 -0.1339 -0.2273
25199SOL    HW178999   1.957   6.759   7.133  0.8646  0.3103 -1.5889
25199SOL    HW279000   2.078   6.703   7.205 -0.0631 -0.2483 -0.4267
25200SOL     OW79001  10.504   8.390   9.551 -0.2948 -0.1351  0.0198
25200SOL    HW179002  10.553   8.434   9.481 -0.4130 -1.4872 -0.9666
25200SOL    HW279003  10.572   8.343   9.601 -0.1598  1.1677  1.1100
25201SOL     OW79004   1.552   0.671  10.167 -0.0484  0.4488 -0.3986
25201SOL    HW179005   1.480   0.638  10.222  0.0097  0.9708  0.0046
25201SOL    HW279006   1.568   0.759  10.201  1.0590  0.1869 -0.2111
25202SOL     OW79007   4.334   0.184  10.300 -0.3024  0.1299 -0.5980
25202SOL    HW179008   4.302   0.237  10.226 -1.8299  0.6824  0.4270
25202SOL    HW279009   4.328   0.094  10.269 -1.3989  0.3258 -0.9921
25203SOL     OW79010   4.623   6.645   2.358  0.2577  0.3887 -0.0121
25203SOL    HW179011   4.698   6.598   2.321 -0.4008  0.7084 -1.8644
25203SOL    HW279012   4.586   6.693   2.284 -2.1348 -0.2190  0.6967
25204SOL     OW79013   5.890   7.147   0.222  0.2777  0.7164 -0.5406
25204SOL    HW179014   5.902   7.055   0.246 -1.3590  1.1980  2.6704
25204SOL    HW279015   5.800   7.153   0.191  0.3528  1.2440 -0.6740
25205SOL     OW79016  10.717   2.060   6.054  0.6885 -1.1756  0.0901
25205SOL    HW179017  10.700   2.027   5.966 -2.1041  1.3838 -0.5028
25205SOL    HW279018  10.751   2.148   6.040 -2.8250  0.5914  1.3401
25206SOL     OW79019   3.947   3.252   1.734 -0.0135 -0.0662 -0.1098
25206SOL    HW179020   3.994   3.179   1.774 -0.1028 -0.7167 -1.1409
25206SOL    HW279021   3.879   3.210   1.681 -0.0971  0.7631 -0.6793
25207SOL     OW79022   5.779   2.074   4.340  0.0071 -0.7959 -0.1350
25207SOL    HW179023   5.839   2.076   4.414  0.1288 -2.8812 -0.0941
25207SOL    HW279024   5.768   2.165   4.315  3.1239 -0.2950 -0.0851
25208SOL     OW79025   9.908   2.309   1.315 -0.8394  0.2986  0.5888
25208SOL    HW179026   9.948   2.225   1.337 -0.8604  0.3658  0.8772
25208SOL    HW279027   9.894   2.304   1.220 -0.0664  0.3080  0.4652
25209SOL     OW79028   7.023   3.354  10.514 -0.3320  0.8137  0.0632
25209SOL    HW179029   7.100   3.386  10.561 -0.7850  1.1792  0.5655
25209SOL    HW279030   7.057   3.287  10.455  0.7169  2.4537 -1.2982
25210SOL     OW79031   8.959   9.513   8.057  0.2202 -0.1641  0.5867
25210SOL    HW179032   9.053   9.500   8.063  0.0197 -3.7173 -1.4500
25210SOL    HW279033   8.944   9.547   7.969 -0.4621  0.3464  0.8824
25211SOL     OW79034   8.092   1.593   3.062 -0.2576  0.1529 -0.1176
25211SOL    HW179035   8.134   1.549   3.136  1.2869 -0.2529 -1.1953
25211SOL    HW279036   8.044   1.666   3.102  2.6401  1.5494  1.1302
25212SOL     OW79037   4.296   7.948   9.741 -0.1597 -0.1761 -0.1253
25212SOL    HW179038   4.221   7.920   9.689  0.5354 -1.7898 -0.3263
25212SOL    HW279039   4.258   8.000   9.812 -1.3013  0.3785 -1.0973
25213SOL     OW79040   1.285   0.547   9.697  0.2409  0.5706 -0.1260
25213SOL    HW179041   1.272   0.456   9.725 -0.7257  1.1202  1.3064
25213SOL    HW279042   1.352   0.541   9.628  1.0401 -1.1022  0.7249
25214SOL     OW79043   8.308   7.367   7.286 -0.1266 -0.1578  0.1267
25214SOL    HW179044   8.310   7.460   7.307 -0.7437 -0.5292  2.1085
25214SOL    HW279045   8.339   7.362   7.196 -0.1739  1.9608 -0.0685
25215SOL     OW79046   1.413   1.399  10.871 -0.0438  0.3237 -0.4963
25215SOL    HW179047   1.447   1.488  10.884  0.9750 -0.0475 -0.5038
25215SOL    HW279048   1.318   1.408  10.881 -0.0135  1.5122 -1.0460
25216SOL     OW79049  10.504   4.167   1.012 -0.8394  0.2567  0.1741
25216SOL    HW179050  10.446   4.212   1.073 -0.5683 -0.8413  1.2867
25216SOL    HW279051  10.542   4.237   0.958  1.2261  1.7280  3.2081
25217SOL     OW79052   7.436   0.264   4.738 -0.1402 -0.1838 -0.4942
25217SOL    HW179053   7.488   0.196   4.695  0.6341  1.4549 -2.3438
25217SOL    HW279054   7.402   0.317   4.665 -2.9060 -0.0755  0.7466
25218SOL     OW79055   8.714  10.024   3.749 -0.4907  0.0686 -0.3738
25218SOL    HW179056   8.796   9.985   3.780 -0.2462  0.6977 -0.1948
25218SOL    HW279057   8.661  10.034   3.829 -1.5344 -2.0822 -0.7300
25219SOL     OW79058   5.689  10.456   1.850  0.2083  0.8948  0.9333
25219SOL    HW179059   5.622  10.415   1.795  1.6630 -0.8219  0.3500
25219SOL    HW279060   5.723  10.529   1.798  2.7694 -1.6973 -1.4072
25220SOL     OW79061   9.723   4.497   2.436 -0.5531  0.5057 -0.0207
25220SOL    HW179062   9.800   4.442   2.445  0.2606  1.8772  2.1910
25220SOL    HW279063   9.678   4.490   2.520 -2.4759  0.3132 -1.0195
25221SOL     OW79064   5.623   0.824   3.570  0.1283 -0.2922 -0.0445
25221SOL    HW179065   5.534   0.794   3.556  0.4051 -0.1135 -2.6662
25221SOL    HW279066   5.620   0.871   3.654 -3.0767  2.6042 -1.5149
25222SOL     OW79067   3.141   6.925   3.465  0.1203 -0.6890 -0.6957
25222SOL    HW179068   3.076   6.984   3.502  0.7061  0.8273 -1.9599
25222SOL    HW279069   3.225   6.967   3.484  0.5573 -1.1976 -1.4569
25223SOL     OW79070  10.110  10.331   1.717 -0.5029 -0.4397 -0.2622
25223SOL    HW179071  10.083  10.334   1.626  0.6507  1.5756 -0.6013
25223SOL    HW279072  10.096  10.419   1.750  1.2756 -0.4897  0.8074
25224SOL     OW79073   4.122   4.162   4.026 -0.0307  0.1397 -0.6410
25224SOL    HW179074   4.093   4.104   3.955 -1.3217 -1.1616  0.8739
25224SOL    HW279075   4.215   4.140   4.038 -0.2633 -0.9613 -0.7168
25225SOL     OW79076   1.929   9.136   6.399 -0.1855  0.5115  0.0136
25225SOL    HW179077   1.861   9.143   6.465  0.5033 -0.2433  0.8213
25225SOL    HW279078   1.949   9.043   6.394 -2.0966  0.1283 -3.2251
25226SOL     OW79079   1.872   0.277   5.859  0.1774 -0.4915  0.6470
25226SOL    HW179080   1.777   0.281   5.851  0.2328  0.7464  0.4189
25226SOL    HW279081   1.896   0.359   5.901  1.1194 -0.9589  1.0571
25227SOL     OW79082   1.363   0.771   7.359  0.0114  0.5772  0.0395
25227SOL    HW179083   1.414   0.692   7.341 -1.8348 -0.1689 -2.6410
25227SOL    HW279084   1.417   0.842   7.324  0.8827  0.2890  0.7731
25228SOL     OW79085   9.069   3.309   5.745 -0.4248  0.2408 -0.0670
25228SOL    HW179086   9.136   3.267   5.798 -1.6501 -0.0174  1.3110
25228SOL    HW279087   9.070   3.260   5.662 -0.5812 -1.3332  0.8315
25229SOL     OW79088   0.011   3.073   7.782 -0.6461  0.8588  0.1282
25229SOL    HW179089  -0.064   3.015   7.794 -0.4859  0.1761 -1.8378
25229SOL    HW279090  -0.003   3.113   7.696  1.6388  0.0584 -0.6882
25230SOL     OW79091   1.738   1.891   7.686  0.5493  0.3192 -0.4954
25230SOL    HW179092   1.775   1.859   7.603 -1.3568 -0.4786 -1.0955
25230SOL    HW279093   1.766   1.828   7.751 -0.9047 -1.1460 -1.2072
25231SOL     OW79094   2.108   3.665   9.320  0.4625  0.0258 -0.1276
25231SOL    HW179095   2.083   3.682   9.229 -1.2631  1.1171  0.4990
25231SOL    HW279096   2.026   3.673   9.370  1.8411  3.2881  2.0164
25232SOL     OW79097   7.911   4.268   3.978 -0.2107 -0.3009 -0.0712
25232SOL    HW179098   7.890   4.301   3.890 -0.2732  0.5105  0.2428
25232SOL    HW279099   7.852   4.315   4.036 -0.3485 -1.0289  0.3866
25233SOL     OW79100   3.514   9.342   0.311  0.3813  0.0445  0.1937
25233SOL    HW179101   3.546   9.392   0.386 -0.6991 -1.1493  1.5248
25233SOL    HW279102   3.578   9.272   0.300  0.2742 -0.0776  0.3408
25234SOL     OW79103   3.276   7.787   7.932 -0.1653 -0.3580  0.4348
25234SOL    HW179104   3.283   7.780   8.027 -0.2256 -0.8645  0.4048
25234SOL    HW279105   3.349   7.735   7.899  0.3099  0.4420  0.2114
25235SOL     OW79106   9.429  10.520   1.112  0.1662  0.2722  0.1393
25235SOL    HW179107   9.439  10.529   1.017 -0.3632  1.1546  0.1526
25235SOL    HW279108   9.496  10.457   1.137  0.2132 -0.0863 -0.8427
25236SOL     OW79109   1.929  10.878   2.534  0.6564  0.6682  0.0415
25236SOL    HW179110   1.932  10.802   2.476  0.5859  0.0770  0.7992
25236SOL    HW279111   1.980  10.852   2.611  2.2707  2.0923 -0.4930
25237SOL     OW79112   4.742   8.553   7.540  0.3266 -0.0301 -0.3392
25237SOL    HW179113   4.746   8.563   7.635 -1.3628 -1.5945 -0.0463
25237SOL    HW279114   4.709   8.637   7.508 -1.3037 -0.2121  0.7290
25238SOL     OW79115   7.250   7.869   2.930  0.2585  0.8267 -0.0988
25238SOL    HW179116   7.334   7.830   2.908  0.8135  1.8363  0.1552
25238SOL    HW279117   7.190   7.795   2.938  1.2794  0.0328  0.3932
25239SOL     OW79118  10.197   1.045   0.186  0.1193  0.1367  0.2526
25239SOL    HW179119  10.136   0.989   0.233  0.3996 -1.2476 -0.9706
25239SOL    HW279120  10.270   1.058   0.247 -0.1470 -0.4731  0.7051
25240SOL     OW79121   7.544   8.559   0.674 -0.1881 -0.2433  0.0579
25240SOL    HW179122   7.491   8.484   0.647  0.0134 -0.2315 -0.3889
25240SOL    HW279123   7.614   8.521   0.727 -0.3901 -0.3094  0.2787
25241SOL     OW79124   3.250   2.065  10.148  0.0148  0.0525  0.0818
25241SOL    HW179125   3.185   2.112  10.096  0.3341  1.1961  0.6761
25241SOL    HW279126   3.199   2.009  10.206 -0.4163  0.3478 -0.0080
25242SOL     OW79127   6.049   2.262   1.135 -0.1342 -1.0150  1.0484
25242SOL    HW179128   6.066   2.262   1.041 -1.1993  1.1016  0.7723
25242SOL    HW279129   6.129   2.296   1.174 -0.5779  0.7081  0.5822
25243SOL     OW79130   2.940   6.431   9.910  0.0629 -0.2249  0.7776
25243SOL    HW179131   2.983   6.350   9.885  1.5084  0.8525 -0.3874
25243SOL    HW279132   3.000   6.473   9.971  0.0149  0.6140  0.2734
25244SOL     OW79133   8.243   5.798   1.542  0.2199  0.6161  0.1345
25244SOL    HW179134   8.290   5.805   1.626  0.5309  1.1859 -0.0772
25244SOL    HW279135   8.201   5.712   1.545 -0.6852  1.0644  1.3466
25245SOL     OW79136   4.473   2.617   8.442  0.0727  0.5096  0.0814
25245SOL    HW179137   4.440   2.586   8.358  1.4505 -0.5907 -0.1064
25245SOL    HW279138   4.514   2.539   8.481 -1.4036  0.7388  2.2361
25246SOL     OW79139   1.998   9.652  10.550  0.0166  0.0221 -0.6621
25246SOL    HW179140   2.043   9.580  10.506 -3.2580 -1.7859 -1.4236
25246SOL    HW279141   1.944   9.691  10.481 -1.4676  0.3774  0.6492
25247SOL     OW79142   0.145   1.558   0.683  0.4910  0.2617 -0.4344
25247SOL    HW179143   0.137   1.478   0.734 -0.5722  0.1855 -0.6913
25247SOL    HW279144   0.082   1.548   0.612  1.3243  0.7379 -1.2708
25248SOL     OW79145   5.022   3.963   9.850  0.0432 -0.6016 -0.4425
25248SOL    HW179146   5.049   3.959   9.942  3.2194  1.4421 -1.1456
25248SOL    HW279147   5.031   3.873   9.818 -1.8749 -1.5090  1.3317
25249SOL     OW79148   9.690   7.103   6.215  0.6010 -0.1690 -0.2173
25249SOL    HW179149   9.728   7.123   6.301 -0.2329 -1.0048  0.3745
25249SOL    HW279150   9.691   7.007   6.211  0.8146 -0.1283 -1.2369
25250SOL     OW79151   9.167   4.060   9.827 -0.7645 -0.0343 -0.6899
25250SOL    HW179152   9.204   4.041   9.913  0.4729  0.2830 -1.1284
25250SOL    HW279153   9.074   4.072   9.843 -0.5690 -0.0657  0.5888
25251SOL     OW79154   0.067   9.523   9.845 -0.6652 -0.5643  0.1846
25251SOL    HW179155   0.118   9.570   9.910  0.7106 -3.7024  1.5379
25251SOL    HW279156   0.130   9.501   9.776 -1.5666  0.5322 -1.0568
25252SOL     OW79157   2.392   6.793   0.501 -0.0027  0.5697 -0.0003
25252SOL    HW179158   2.469   6.821   0.450  0.1367  0.9967  0.4355
25252SOL    HW279159   2.368   6.871   0.552 -0.4707  0.3097  0.1787
25253SOL     OW79160   0.622   8.025   2.551 -0.2477  0.4698  0.3083
25253SOL    HW179161   0.536   8.062   2.530 -1.1516  0.1733  3.0960
25253SOL    HW279162   0.673   8.100   2.581  0.1356  0.4720 -0.3317
25254SOL     OW79163   9.070   9.850   0.755 -0.0196  0.0821  0.0430
25254SOL    HW179164   9.071   9.868   0.661  3.3430  1.0217  0.0912
25254SOL    HW279165   9.010   9.915   0.791 -0.6507  0.3250 -1.3804
25255SOL     OW79166   7.899   4.285   7.901 -0.4682  0.0170  0.1285
25255SOL    HW179167   7.892   4.191   7.920  0.2217  0.2404  1.6590
25255SOL    HW279168   7.913   4.289   7.806  0.3274 -1.4873  0.1451
25256SOL     OW79169   2.554   9.711   0.427  0.9433  0.0737 -0.0827
25256SOL    HW179170   2.619   9.728   0.495  0.5757  4.6339 -0.5415
25256SOL    HW279171   2.603   9.713   0.345  0.7335 -0.5406 -0.2286
25257SOL     OW79172   9.353   0.431  10.362  0.0187  0.0141 -0.3290
25257SOL    HW179173   9.346   0.518  10.323  0.2071 -0.2399 -0.9358
25257SOL    HW279174   9.425   0.390  10.315 -0.1995 -0.5426 -0.1771
25258SOL     OW79175   0.202   5.794   3.226  0.4321 -0.1699  0.1140
25258SOL    HW179176   0.263   5.854   3.184 -0.7176  0.9447 -0.0414
25258SOL    HW279177   0.182   5.728   3.160  2.7669 -1.5844  0.7314
25259SOL     OW79178   8.824  10.485   0.041  0.6320  0.1501  0.5265
25259SOL    HW179179   8.907  10.440   0.027  1.4190  1.8169 -0.5375
25259SOL    HW279180   8.848  10.578   0.045 -1.2472  0.7457 -0.6742
25260SOL     OW79181   0.984   1.093   0.231  0.0171  0.2025 -0.3497
25260SOL    HW179182   0.994   1.006   0.268  0.7528 -0.0767 -1.1747
25260SOL    HW279183   1.055   1.144   0.269 -1.1151  0.8077  1.0741
25261SOL     OW79184   1.808  10.877   1.578  0.5603 -0.0168 -0.6710
25261SOL    HW179185   1.811  10.790   1.538  0.9167 -0.6848  0.7488
25261SOL    HW279186   1.721  10.882   1.617  0.7777 -0.0261 -0.1704
25262SOL     OW79187   1.998   9.641   4.584 -0.0711 -0.0251  0.1213
25262SOL    HW179188   2.076   9.665   4.533  0.1192 -1.8829 -0.5311
25262SOL    HW279189   2.004   9.693   4.664  1.8966 -0.1771  0.1111
25263SOL     OW79190   5.839   0.946  10.745 -0.1735  0.6809  0.7127
25263SOL    HW179191   5.880   0.898  10.672  0.9318  1.7168  0.6213
25263SOL    HW279192   5.847   0.886  10.819 -0.4960 -0.0234  0.1934
25264SOL     OW79193   6.532  10.307   1.099 -0.2642  0.1610  0.6759
25264SOL    HW179194   6.600  10.324   1.164  0.4209 -0.8638  0.2634
25264SOL    HW279195   6.523  10.390   1.052 -1.3586  1.1685  2.5618
25265SOL     OW79196   7.091   7.812   1.396  0.3062 -0.6614 -0.4975
25265SOL    HW179197   7.165   7.833   1.338  0.1987 -0.0264 -0.4124
25265SOL    HW279198   7.031   7.886   1.385  0.4218 -0.3855  0.6587
25266SOL     OW79199   8.319   8.903   0.711 -0.1572 -0.4029  0.7206
25266SOL    HW179200   8.256   8.964   0.749 -0.1686 -0.2884  0.5212
25266SOL    HW279201   8.389   8.897   0.776 -0.1412 -0.1523  0.7278
25267SOL     OW79202   5.247   4.768   5.070  0.1977  0.6855  0.1792
25267SOL    HW179203   5.304   4.703   5.110 -0.6715  0.0964  0.4994
25267SOL    HW279204   5.270   4.766   4.977 -0.9341 -1.3274 -0.1197
25268SOL     OW79205   2.083   9.246  10.075 -0.2009  0.8428  0.2732
25268SOL    HW179206   2.142   9.287  10.011 -0.0438 -0.5947 -0.5492
25268SOL    HW279207   1.995   9.268  10.045 -0.2411 -1.6930 -1.9059
25269SOL     OW79208   1.745   5.259   0.669 -0.6837 -0.2688 -0.1525
25269SOL    HW179209   1.810   5.321   0.702 -1.8218  0.0659  1.5547
25269SOL    HW279210   1.786   5.222   0.591  2.1789 -1.1255  1.6125
25270SOL     OW79211   0.211   3.275   5.214 -0.1660  0.5213 -0.0172
25270SOL    HW179212   0.293   3.228   5.199 -0.6251  0.3075 -2.2315
25270SOL    HW279213   0.237   3.366   5.225  0.4336  0.3127  0.3302
25271SOL     OW79214   0.957   2.961   5.911  0.4024 -0.3317  0.6854
25271SOL    HW179215   0.908   3.042   5.925  1.7072  0.5218  0.5050
25271SOL    HW279216   0.908   2.895   5.960 -2.5023 -0.1668 -1.7529
25272SOL     OW79217   2.221   8.565   4.910  0.0187 -0.0104 -0.3353
25272SOL    HW179218   2.260   8.633   4.965  0.0767 -0.8498  0.7097
25272SOL    HW279219   2.256   8.483   4.945 -0.0725 -0.5905 -1.5436
25273SOL     OW79220   2.803   9.470   5.411 -0.5036  0.0735  0.6054
25273SOL    HW179221   2.840   9.383   5.392 -0.8375 -0.4723  2.2251
25273SOL    HW279222   2.865   9.509   5.473 -0.1672  1.1676 -0.3867
25274SOL     OW79223   1.668   1.783   1.953  0.4883  0.0210  0.1793
25274SOL    HW179224   1.583   1.740   1.959  0.1249  0.9093  1.6004
25274SOL    HW279225   1.701   1.758   1.866 -1.0491 -0.6158 -0.2467
25275SOL     OW79226   1.276   6.089   5.929 -0.1100  0.8254 -0.4789
25275SOL    HW179227   1.305   6.149   5.997  1.0041  0.5314 -0.6829
25275SOL    HW279228   1.303   6.003   5.959  1.5818  0.8151 -1.8649
25276SOL     OW79229   9.185   8.689   1.173 -0.0128  0.3040 -0.0260
25276SOL    HW179230   9.153   8.707   1.084 -0.5141 -0.5519 -0.0382
25276SOL    HW279231   9.211   8.774   1.207 -2.2318  1.0571 -0.0692
25277SOL     OW79232   7.691   9.385   5.613  0.0050 -0.0068  0.3313
25277SOL    HW179233   7.769   9.423   5.572  1.1043 -0.8890  1.5267
25277SOL    HW279234   7.654   9.329   5.546  0.6093  0.1412 -0.1356
25278SOL     OW79235   9.458  10.532   3.874  0.5544 -0.1804  0.4277
25278SOL    HW179236   9.480  10.491   3.791 -2.0356 -0.4337 -0.2238
25278SOL    HW279237   9.399  10.470   3.917  2.3401 -0.3705  2.8218
25279SOL     OW79238   7.297   8.768   1.512 -0.0358 -0.3629 -0.0832
25279SOL    HW179239   7.267   8.739   1.599 -1.1931  1.0590  0.0412
25279SOL    HW279240   7.217   8.770   1.459  0.7876 -2.0667 -1.4804
25280SOL     OW79241   1.053   8.625  10.538  0.6891 -0.3073 -0.2364
25280SOL    HW179242   1.042   8.707  10.492  0.4451 -0.1660  0.0690
25280SOL    HW279243   1.015   8.640  10.625 -1.6681 -1.4783 -0.9630
25281SOL     OW79244   0.387   0.030   3.960 -0.7319  0.7600 -0.0753
25281SOL    HW179245   0.376  -0.024   3.882  1.5841  0.0707  0.0139
25281SOL    HW279246   0.440   0.104   3.930 -0.9189  1.1628  0.5751
25282SOL     OW79247   7.993   0.488   5.359  0.1751  0.1624  0.2249
25282SOL    HW179248   8.035   0.456   5.438  2.1207  0.2508 -0.6981
25282SOL    HW279249   7.966   0.577   5.380  1.2773  0.4203  0.6021
25283SOL     OW79250   3.425   8.635   5.886  0.2617 -0.2777  0.5218
25283SOL    HW179251   3.397   8.712   5.837  0.3457  0.0317  0.9511
25283SOL    HW279252   3.521   8.636   5.879  0.2180 -0.8339 -0.2013
25284SOL     OW79253   0.360  10.638   4.727  0.0815  0.2380 -0.7129
25284SOL    HW179254   0.433  10.634   4.788  1.6119  2.7975 -2.1910
25284SOL    HW279255   0.378  10.570   4.662  1.1915  0.8376 -1.0556
25285SOL     OW79256   7.757   3.239   5.621 -0.1353  0.6571  0.3114
25285SOL    HW179257   7.819   3.254   5.550 -0.0100 -0.9658  0.0453
25285SOL    HW279258   7.703   3.319   5.623 -0.9108  0.3047 -2.3777
25286SOL     OW79259   9.623   7.522  10.025 -0.0088 -0.5627 -0.0999
25286SOL    HW179260   9.688   7.589  10.049 -1.1522  1.1290 -1.5095
25286SOL    HW279261   9.674   7.442  10.016  1.5466  0.2639  0.8743
25287SOL     OW79262   7.988   7.219   3.093 -0.2889 -0.5011  0.2516
25287SOL    HW179263   7.998   7.294   3.035 -0.5428  0.0995  0.9680
25287SOL    HW279264   8.075   7.206   3.132 -0.6479  0.6042  1.5195
25288SOL     OW79265   0.965  10.084   4.027  0.4175 -0.0754  0.1500
25288SOL    HW179266   0.960   9.999   3.984 -0.7180  0.6029 -1.1114
25288SOL    HW279267   1.030  10.132   3.976  0.6308  0.0268  0.5117
25289SOL     OW79268   6.366   2.167   6.042 -0.3607  0.4822 -0.4300
25289SOL    HW179269   6.319   2.158   5.958 -2.4461 -0.7325  0.7801
25289SOL    HW279270   6.402   2.080   6.058 -0.0806  0.6766  0.0020
25290SOL     OW79271   2.778   3.156   8.203 -0.4292 -0.4473 -0.4748
25290SOL    HW179272   2.757   3.152   8.109 -2.5360 -3.2829 -0.0117
25290SOL    HW279273   2.837   3.081   8.217  1.6058  1.1877  0.1880
25291SOL     OW79274   1.611   3.767   7.969 -0.5070 -0.0224 -0.2448
25291SOL    HW179275   1.677   3.835   7.957 -0.2439 -0.5381 -1.8543
25291SOL    HW279276   1.643   3.692   7.919 -2.3121 -0.2833 -1.0897
25292SOL     OW79277   0.434   0.392   7.668 -0.0985  0.2974  0.2317
25292SOL    HW179278   0.393   0.455   7.728  0.4670 -0.8264  1.8930
25292SOL    HW279279   0.514   0.365   7.714  1.1669  0.4972 -1.7454
25293SOL     OW79280   9.305   7.868   8.002 -0.7052 -0.3769  0.2785
25293SOL    HW179281   9.307   7.793   8.062  1.7941 -0.3010  0.3970
25293SOL    HW279282   9.358   7.935   8.046 -0.6651  0.4758 -1.0191
25294SOL     OW79283   8.313   0.369   9.225 -0.0695  0.3988 -0.6035
25294SOL    HW179284   8.305   0.409   9.138  0.5877  0.7179 -0.5211
25294SOL    HW279285   8.329   0.442   9.284  2.6740 -0.0536 -0.6469
25295SOL     OW79286   5.615   0.728   6.211 -0.6221  0.0328  0.0798
25295SOL    HW179287   5.616   0.644   6.164 -0.6543  1.7201 -3.2516
25295SOL    HW279288   5.540   0.723   6.269 -2.3353 -1.2612 -2.1080
25296SOL     OW79289   7.035   1.172   4.066  0.5261  0.4125 -0.5852
25296SOL    HW179290   7.115   1.199   4.021 -0.1038  0.2757 -1.8495
25296SOL    HW279291   7.054   1.085   4.099  2.2879  1.8852  2.7802
25297SOL     OW79292   5.044   1.704   7.305  0.0862 -0.1694 -0.4075
25297SOL    HW179293   5.073   1.795   7.307 -0.4512 -0.0015  1.5384
25297SOL    HW279294   4.966   1.704   7.249 -2.0003  1.3035  2.2434
25298SOL     OW79295   2.444   0.416   7.383  0.2340  0.4137  0.1752
25298SOL    HW179296   2.422   0.355   7.453 -2.4873  0.6800 -0.3372
25298SOL    HW279297   2.380   0.487   7.391  1.6834  1.9258 -0.8308
25299SOL     OW79298   3.006   1.983   6.523  0.1907  0.8590 -0.1498
25299SOL    HW179299   2.928   2.035   6.543  0.6979  1.1133  1.3203
25299SOL    HW279300   2.995   1.902   6.573  1.0872  1.1307  0.5322
25300SOL     OW79301   1.397   7.765   3.400 -0.8417  0.3197 -0.2023
25300SOL    HW179302   1.351   7.848   3.409 -2.6309 -0.6080 -0.3121
25300SOL    HW279303   1.386   7.741   3.308 -1.9104 -0.8607  0.1987
25301SOL     OW79304   2.593   3.140   8.392  0.1965 -0.2248  0.3074
25301SOL    HW179305   2.653   3.148   8.318 -1.5785  1.9736 -1.0443
25301SOL    HW279306   2.602   3.049   8.420  1.0543 -1.1434 -2.5414
25302SOL     OW79307   7.888   2.173   8.405  0.7049 -0.4069  0.4054
25302SOL    HW179308   7.840   2.162   8.323  2.3228 -1.9037 -0.3928
25302SOL    HW279309   7.974   2.136   8.388  1.4961  0.3666  2.4233
25303SOL     OW79310   8.353   2.481   2.028  0.1053  0.1783 -0.1652
25303SOL    HW179311   8.362   2.453   1.936 -1.4340 -0.9957  0.0037
25303SOL    HW279312   8.264   2.456   2.052 -0.0547  1.8765  1.2092
25304SOL     OW79313   1.116   8.771   6.064  0.1683 -0.2447  0.5362
25304SOL    HW179314   1.134   8.855   6.022 -0.9014  0.8880  2.1997
25304SOL    HW279315   1.021   8.770   6.075  0.2036 -1.5163  0.8660
25305SOL     OW79316   0.664   8.531   1.612  0.0177 -0.0352  0.0967
25305SOL    HW179317   0.572   8.556   1.623  0.1409  0.4006  0.1309
25305SOL    HW279318   0.713   8.602   1.653  0.3256 -1.3492  2.1574
25306SOL     OW79319   1.213   5.380   0.613 -0.4765  0.8624 -0.4392
25306SOL    HW179320   1.278   5.391   0.544  0.9168  0.7167  0.7863
25306SOL    HW279321   1.232   5.450   0.675 -0.8453  0.2262  0.4203
25307SOL     OW79322   8.153   1.181   4.660  0.2693 -0.1093  0.2900
25307SOL    HW179323   8.188   1.120   4.726  0.5224 -0.8656 -0.5328
25307SOL    HW279324   8.230   1.210   4.612 -0.0593 -0.6938 -0.6152
25308SOL     OW79325   0.798   7.462   7.147  0.5553 -0.7207 -0.2203
25308SOL    HW179326   0.814   7.426   7.060  1.2131 -2.1312  0.4357
25308SOL    HW279327   0.884   7.491   7.178  0.0367  1.5560 -0.7367
25309SOL     OW79328   4.049   9.863   5.262  0.0820 -0.6314 -0.9568
25309SOL    HW179329   4.043   9.952   5.227 -0.1071 -0.0977  0.3768
25309SOL    HW279330   3.962   9.826   5.248 -0.6302  0.2891  0.7094
25310SOL     OW79331   4.276   0.264   6.659  0.3767 -0.5347 -0.1652
25310SOL    HW179332   4.339   0.198   6.689  0.8467 -0.3526 -0.7297
25310SOL    HW279333   4.276   0.329   6.729 -0.9572 -1.6713  0.9552
25311SOL     OW79334   1.521   0.190   8.465 -0.3099 -0.0014 -0.4027
25311SOL    HW179335   1.568   0.199   8.382  1.0183  0.3667  0.3577
25311SOL    HW279336   1.493   0.098   8.466  1.5720 -0.6263 -0.3093
25312SOL     OW79337   0.770   8.332  10.014 -0.4226 -0.0593  0.3086
25312SOL    HW179338   0.856   8.366  10.039 -0.8936  3.2184 -1.9791
25312SOL    HW279339   0.788   8.277   9.938 -0.2716 -0.0448  0.3331
25313SOL     OW79340   1.347   8.203   5.119  0.1112 -0.0562  0.0250
25313SOL    HW179341   1.300   8.120   5.106 -0.2950  0.3882 -1.5259
25313SOL    HW279342   1.428   8.193   5.070 -1.3887  1.6151 -3.0412
25314SOL     OW79343   0.112   5.947   0.399 -0.3586 -0.0298  0.2308
25314SOL    HW179344   0.164   5.911   0.471  0.4480 -1.1888 -0.8907
25314SOL    HW279345   0.033   5.894   0.398  0.0346 -0.6223 -0.2887
25315SOL     OW79346   1.937   0.051   6.102 -0.6511 -0.1482  0.1939
25315SOL    HW179347   1.873  -0.011   6.137 -1.5740  0.2522 -0.7274
25315SOL    HW279348   1.886   0.109   6.045  0.3095  1.0167  0.4686
25316SOL     OW79349   6.862   9.801   3.170 -0.0409  0.2600  0.1378
25316SOL    HW179350   6.819   9.872   3.123 -3.2624 -1.6192 -0.0260
25316SOL    HW279351   6.883   9.737   3.103 -0.1036 -0.3068  0.6550
25317SOL     OW79352   2.837   6.504   4.197  0.2063 -0.2561  0.0622
25317SOL    HW179353   2.912   6.481   4.251  0.9653 -2.9534 -1.8922
25317SOL    HW279354   2.874   6.519   4.110 -1.2869  0.7433 -0.4326
25318SOL     OW79355   7.902   7.179   5.964 -0.2185  0.6161  0.5156
25318SOL    HW179356   7.829   7.197   5.903 -0.7328 -0.4014  0.8095
25318SOL    HW279357   7.860   7.169   6.049  0.0075 -1.7960  0.4055
25319SOL     OW79358   2.000  10.097   0.892 -0.2326  0.2001  0.1293
25319SOL    HW179359   1.990  10.110   0.797  0.9354  0.2094 -0.0089
25319SOL    HW279360   2.042  10.012   0.900  0.1774  0.4414  0.6081
25320SOL     OW79361   4.714   6.886   3.075  0.1850 -0.0157 -0.3573
25320SOL    HW179362   4.670   6.955   3.125 -0.3332 -1.3474  1.1002
25320SOL    HW279363   4.733   6.818   3.140  0.9055 -1.1417 -1.6999
25321SOL     OW79364   6.050   1.483   4.332  0.0724  0.2750  0.3945
25321SOL    HW179365   6.132   1.510   4.290  0.7246 -1.5458  0.4088
25321SOL    HW279366   5.982   1.512   4.272  0.7200  1.5609  0.2355
25322SOL     OW79367   7.112   8.667   3.127 -0.2991 -0.3278 -0.4778
25322SOL    HW179368   7.096   8.617   3.206 -1.8438 -0.0278 -0.5822
25322SOL    HW279369   7.028   8.708   3.106  0.9193  2.5241 -0.2428
25323SOL     OW79370   9.852   6.228   0.872 -0.0999  0.4196 -0.5714
25323SOL    HW179371   9.899   6.307   0.845  1.6842 -0.8135 -1.2411
25323SOL    HW279372   9.765   6.238   0.832 -0.1989  2.3725  0.0142
25324SOL     OW79373   4.807   6.021   7.538 -0.1862 -0.2956  0.7158
25324SOL    HW179374   4.725   6.001   7.583  0.0139  0.3024  1.3762
25324SOL    HW279375   4.868   5.954   7.569 -0.3849 -0.6507  0.3400
25325SOL     OW79376   0.995   5.465  10.301 -0.3594  0.1679  0.4727
25325SOL    HW179377   0.944   5.541  10.332  0.0381  0.9963 -0.8301
25325SOL    HW279378   1.052   5.501  10.232  1.0580 -0.9934  0.9933
25326SOL     OW79379   3.403   8.655   8.503 -0.1968 -0.0273  0.3675
25326SOL    HW179380   3.357   8.629   8.423 -1.0257  3.4798 -0.4759
25326SOL    HW279381   3.349   8.619   8.574  0.0209 -2.3702 -0.5612
25327SOL     OW79382   7.671   5.036  10.276 -0.0816 -0.7298  0.3981
25327SOL    HW179383   7.666   4.971  10.206 -1.2693  1.0541 -1.2456
25327SOL    HW279384   7.683   5.120  10.232  1.4222  0.2473  2.4570
25328SOL     OW79385   0.712   1.197   9.167 -0.1765 -0.3390 -0.0501
25328SOL    HW179386   0.616   1.194   9.160 -0.1844  0.0801 -0.2089
25328SOL    HW279387   0.731   1.290   9.179  0.2731 -0.3004 -1.0177
25329SOL     OW79388   2.770   4.120   3.868 -0.4544 -0.3003 -0.1049
25329SOL    HW179389   2.720   4.044   3.897 -0.4448  0.3681  1.8069
25329SOL    HW279390   2.705   4.188   3.852 -0.3391 -0.0843  0.3009
25330SOL     OW79391   5.804  10.378   6.033  0.4175 -0.2720  0.6015
25330SOL    HW179392   5.816  10.351   5.942  0.9054  0.3369  0.4782
25330SOL    HW279393   5.746  10.453   6.029  0.0567 -0.5331  0.8390
25331SOL     OW79394   5.455   7.647   3.248  0.0807  0.3574 -0.1501
25331SOL    HW179395   5.366   7.619   3.224 -0.3270  1.7876 -0.4155
25331SOL    HW279396   5.466   7.732   3.204  0.9807  0.9487  1.1637
25332SOL     OW79397   2.695   2.678   6.656  0.4478  0.5710 -0.1791
25332SOL    HW179398   2.726   2.629   6.580 -0.8614  0.0604 -0.4010
25332SOL    HW279399   2.623   2.626   6.691  0.0891  1.5257  0.5472
25333SOL     OW79400   5.940   0.421  10.811 -0.0864 -0.4323  0.6927
25333SOL    HW179401   6.025   0.377  10.815  0.2201  0.1285  0.4073
25333SOL    HW279402   5.958   0.505  10.770 -1.2178 -1.5053 -2.3333
25334SOL     OW79403   2.512   7.297   0.734 -0.3417  0.5164  0.1682
25334SOL    HW179404   2.591   7.349   0.718 -0.8317  1.3984  0.5598
25334SOL    HW279405   2.517   7.274   0.827  0.3536 -0.9722 -0.2132
25335SOL     OW79406   9.634   1.111   4.784  0.0158 -0.4014  0.0103
25335SOL    HW179407   9.589   1.033   4.817 -1.0015  0.4785  0.7710
25335SOL    HW279408   9.614   1.179   4.848  0.9609  0.4748 -0.5949
25336SOL     OW79409   7.378   1.762  10.257  0.1158  0.6857  0.0206
25336SOL    HW179410   7.333   1.765  10.172 -1.2081 -0.8830  0.6105
25336SOL    HW279411   7.437   1.687  10.250  0.9588  1.3272  0.0753
25337SOL     OW79412   6.341   3.982   9.756  0.3178 -0.4340  0.1856
25337SOL    HW179413   6.377   4.070   9.767  0.0743 -0.3468  0.2999
25337SOL    HW279414   6.366   3.935   9.835 -2.9479  0.7124  2.1009
25338SOL     OW79415   4.881   6.091   7.278 -0.4510 -0.3184  0.4418
25338SOL    HW179416   4.975   6.073   7.287 -0.4128  0.4799  1.8740
25338SOL    HW279417   4.846   6.082   7.367 -2.3664 -3.7327 -0.4593
25339SOL     OW79418   9.353   3.025   7.012  0.0531 -0.2353 -0.3459
25339SOL    HW179419   9.313   3.110   7.030 -1.2153 -0.9497  0.2540
25339SOL    HW279420   9.375   3.029   6.919 -0.2129  0.6439 -0.3850
25340SOL     OW79421   5.068   0.003  10.324  0.1286  0.1697  0.4098
25340SOL    HW179422   5.153  -0.024  10.360  0.0817 -0.7182 -0.1118
25340SOL    HW279423   5.032   0.062  10.391  2.5710  3.3139 -0.7682
25341SOL     OW79424   2.735   9.617   1.982  0.0870  0.3631 -0.0353
25341SOL    HW179425   2.739   9.569   2.065  0.1951 -3.4055 -1.9854
25341SOL    HW279426   2.643   9.637   1.970  0.0874  1.0817  1.0100
25342SOL     OW79427  10.268   4.024   0.665 -0.6232 -0.4576  0.1329
25342SOL    HW179428  10.204   3.954   0.658  0.9586 -1.8080 -2.2568
25342SOL    HW279429  10.307   4.030   0.578  1.9499  0.7877  1.2504
25343SOL     OW79430   0.166   3.132  10.749 -0.4123  0.5347 -0.5677
25343SOL    HW179431   0.244   3.182  10.773 -1.0454  0.9512  0.6717
25343SOL    HW279432   0.189   3.041  10.771  0.5409  0.2902 -2.3399
25344SOL     OW79433   5.810   0.840   5.376 -0.6746 -0.4380 -0.1589
25344SOL    HW179434   5.732   0.897   5.380 -0.8421 -0.6436 -0.4672
25344SOL    HW279435   5.781   0.757   5.413 -0.3411 -0.2278  0.5811
25345SOL     OW79436   0.022   8.938   1.502 -0.2373  0.4536  0.3731
25345SOL    HW179437  -0.024   8.900   1.576 -0.3258  1.6470  0.9456
25345SOL    HW279438   0.105   8.890   1.498  0.2949  1.1694  2.0093
25346SOL     OW79439   6.051   2.090   9.710 -0.5393  0.3618  0.1927
25346SOL    HW179440   6.117   2.028   9.679 -1.9844 -1.1679  0.0956
25346SOL    HW279441   6.087   2.176   9.686 -0.1521 -0.5647 -3.0726
25347SOL     OW79442   4.818   4.730  10.177  0.4209 -0.2734 -0.8150
25347SOL    HW179443   4.829   4.695  10.089 -0.5294 -0.1799 -0.9815
25347SOL    HW279444   4.813   4.825  10.165  0.0130 -0.2797 -0.6889
25348SOL     OW79445   0.286   5.511   0.123  0.0418  0.3255  0.1459
25348SOL    HW179446   0.303   5.604   0.108  0.3276  0.1854 -0.4384
25348SOL    HW279447   0.308   5.469   0.040 -3.8908  0.1995 -1.0203
25349SOL     OW79448   0.986   1.738   2.256  0.6124  0.5999  0.2231
25349SOL    HW179449   0.893   1.740   2.281  0.1935 -1.0247 -1.0190
25349SOL    HW279450   1.033   1.720   2.337 -0.2741  0.2058  0.6580
25350SOL     OW79451   3.844   1.963  10.846 -0.1734  0.6046 -0.0553
25350SOL    HW179452   3.883   1.953  10.758 -0.1615  2.0720 -0.2480
25350SOL    HW279453   3.910   2.012  10.895 -0.8893  1.2527  0.2688
25351SOL     OW79454   7.449   1.158   6.830 -0.7323 -0.1150  0.3434
25351SOL    HW179455   7.449   1.223   6.900 -1.6138  2.2011 -1.6694
25351SOL    HW279456   7.374   1.101   6.849  0.8200 -1.5038  2.8429
25352SOL     OW79457   8.782   5.501   6.991 -0.3337  0.1006 -0.4756
25352SOL    HW179458   8.823   5.417   6.971  0.1400  0.3257 -0.4718
25352SOL    HW279459   8.814   5.559   6.922  0.2496  0.5590  0.1695
25353SOL     OW79460   6.771   8.236  10.225 -0.5408  0.3148  0.6251
25353SOL    HW179461   6.840   8.170  10.219 -0.7624  0.0347  1.0640
25353SOL    HW279462   6.807   8.303  10.283 -0.1359  0.8142 -0.1881
25354SOL     OW79463   3.046   0.552   5.855  0.0535  0.0891  0.2175
25354SOL    HW179464   3.022   0.459   5.856  0.4216 -0.0060  0.6500
25354SOL    HW279465   3.039   0.579   5.947 -2.4512  1.1302 -0.1945
25355SOL     OW79466   8.237   3.655   7.428  0.3071 -0.4364 -0.0708
25355SOL    HW179467   8.173   3.612   7.485  1.7028 -1.1166  1.0477
25355SOL    HW279468   8.210   3.747   7.428 -2.3498 -1.0931 -1.9901
25356SOL     OW79469  10.584   6.745   0.410  0.1309 -0.1638  0.7124
25356SOL    HW179470  10.534   6.684   0.464 -0.2335 -0.7906 -0.3034
25356SOL    HW279471  10.602   6.697   0.329 -1.7943  1.6529 -0.9123
25357SOL     OW79472   8.509   7.082   6.220  0.1387 -0.1978  1.4633
25357SOL    HW179473   8.486   7.135   6.296  0.5927  0.4463  1.1611
25357SOL    HW279474   8.511   7.144   6.147  1.3585 -0.4903  1.2255
25358SOL     OW79475   1.432   3.623   8.926  0.0460  0.0004 -0.6841
25358SOL    HW179476   1.383   3.565   8.984  2.3711 -0.8629  0.5344
25358SOL    HW279477   1.415   3.588   8.838 -2.5091  0.5606 -0.4939
25359SOL     OW79478   1.959   2.188   5.676  0.2682  0.2996 -0.2684
25359SOL    HW179479   1.999   2.107   5.643  0.8339  0.3068  0.3652
25359SOL    HW279480   1.918   2.161   5.759  2.6673  1.1515  1.2804
25360SOL     OW79481   7.113  10.326   2.658  0.2289 -0.2271 -0.2752
25360SOL    HW179482   7.150  10.414   2.660  0.7252 -0.4317  1.5878
25360SOL    HW279483   7.020  10.339   2.641  0.4070  0.6223 -0.5984
25361SOL     OW79484   4.956   3.039   3.586  0.0281  0.2536  0.3891
25361SOL    HW179485   4.947   3.134   3.597  0.1743  0.0754  2.3006
25361SOL    HW279486   5.047   3.027   3.559 -0.1907  0.6923 -0.5933
25362SOL     OW79487   3.196   9.042   0.855  0.3239  0.1646 -0.3482
25362SOL    HW179488   3.180   8.957   0.813  1.7824  0.3445 -1.3420
25362SOL    HW279489   3.286   9.064   0.831 -0.4480  2.6418 -1.2846
25363SOL     OW79490   1.885   4.045   5.728 -0.1052 -0.4062 -0.3073
25363SOL    HW179491   1.797   4.044   5.691 -0.4112  1.8765  0.2067
25363SOL    HW279492   1.875   4.011   5.817 -0.2271 -1.2614 -0.6378
25364SOL     OW79493  10.393   9.211   8.072  0.2389  0.7859 -0.0985
25364SOL    HW179494  10.366   9.152   8.001  1.2091  0.0539  0.1323
25364SOL    HW279495  10.488   9.211   8.069  0.3583 -0.2172  1.9834
25365SOL     OW79496   9.877   5.072   3.559  0.2485 -0.1440  0.3487
25365SOL    HW179497   9.951   5.131   3.542  0.1284 -0.0588  0.1220
25365SOL    HW279498   9.907   4.987   3.528 -0.0320  0.0432 -0.4749
25366SOL     OW79499   3.318   6.119   5.132 -0.0233  0.3682  0.6963
25366SOL    HW179500   3.348   6.197   5.085  0.4586 -0.2034  0.0285
25366SOL    HW279501   3.307   6.148   5.222  0.2173  1.1945  0.4677
25367SOL     OW79502   9.933   6.743   2.679  0.4179  0.0964 -0.3746
25367SOL    HW179503  10.006   6.766   2.623  1.0984 -2.0034 -0.4481
25367SOL    HW279504   9.973   6.717   2.762 -0.0536 -2.2680 -0.8009
25368SOL     OW79505   8.070   0.012   7.812 -0.0295  0.6453 -0.3504
25368SOL    HW179506   8.005   0.076   7.784  0.5935  0.9610 -1.1038
25368SOL    HW279507   8.050  -0.067   7.762 -1.5307 -0.1811  1.4255
25369SOL     OW79508   2.491  10.322   9.816  0.5391  0.4136 -0.1402
25369SOL    HW179509   2.544  10.243   9.824  0.7277  0.5326 -0.2042
25369SOL    HW279510   2.459  10.321   9.726 -2.4058 -1.4433  0.7959
25370SOL     OW79511   6.307   9.682   1.629  0.0777 -0.9588  0.2337
25370SOL    HW179512   6.222   9.681   1.584  1.0678  2.0240 -2.0445
25370SOL    HW279513   6.285   9.687   1.722 -2.2500  0.0113 -0.2995
25371SOL     OW79514  10.580   9.531   3.569 -0.0354 -0.1776 -0.5452
25371SOL    HW179515  10.495   9.492   3.552  0.5174 -0.9195 -1.7377
25371SOL    HW279516  10.596   9.589   3.494 -0.3533  1.5611  0.6536
25372SOL     OW79517  10.399   5.474   3.588  0.0397 -0.0572 -0.1638
25372SOL    HW179518  10.377   5.567   3.585 -0.4998 -0.1055  1.4612
25372SOL    HW279519  10.380   5.448   3.678 -1.9390 -2.2301 -1.1071
25373SOL     OW79520   3.762   6.169  10.054 -0.1406  0.0954  0.4726
25373SOL    HW179521   3.845   6.139  10.091 -0.4091  0.5724  1.4935
25373SOL    HW279522   3.704   6.180  10.129 -0.2128  2.6545  0.1343
25374SOL     OW79523   4.124   7.802   6.223 -0.3156 -0.6721 -0.1377
25374SOL    HW179524   4.150   7.726   6.172  0.5238 -1.0392  0.8086
25374SOL    HW279525   4.152   7.782   6.313 -1.2301  0.2004  0.3704
25375SOL     OW79526   3.187   3.626   7.895  0.4026 -0.1899 -0.0902
25375SOL    HW179527   3.274   3.663   7.909  0.2355  0.5720 -0.9232
25375SOL    HW279528   3.168   3.577   7.975  0.7993  1.2376  0.9213
25376SOL     OW79529   0.175   0.148   8.678  0.1863 -0.0987  0.3174
25376SOL    HW179530   0.127   0.227   8.652 -1.1186 -0.2301  2.1679
25376SOL    HW279531   0.179   0.152   8.773  1.6216 -1.4195  0.3498
25377SOL     OW79532   9.411   2.753   1.274  0.1681 -0.0254  0.4277
25377SOL    HW179533   9.474   2.681   1.285  0.6252  0.6546  3.1559
25377SOL    HW279534   9.464   2.832   1.284 -0.8245  0.5990  0.8520
25378SOL     OW79535   8.447   9.277   0.261 -0.2082  0.0205 -0.1975
25378SOL    HW179536   8.402   9.258   0.343 -0.4188  2.7371  0.4072
25378SOL    HW279537   8.379   9.269   0.194 -0.8199  0.8880  0.3062
25379SOL     OW79538   0.018   6.718   7.394  0.0764 -0.0639  0.0654
25379SOL    HW179539   0.041   6.712   7.301  0.0295 -0.3297  0.0695
25379SOL    HW279540  -0.030   6.637   7.412 -0.3112  0.1996  0.2119
25380SOL     OW79541   9.307   7.337   1.592 -0.2627  0.1794  0.7229
25380SOL    HW179542   9.239   7.358   1.656 -1.4037  0.9245 -0.6733
25380SOL    HW279543   9.287   7.393   1.516  0.2913 -1.5361 -0.7693
25381SOL     OW79544  10.453   0.135   7.714 -0.5030  0.5957  0.4063
25381SOL    HW179545  10.516   0.163   7.648  0.2735 -1.0902  0.3847
25381SOL    HW279546  10.409   0.060   7.675  0.1567 -0.6048  1.8617
25382SOL     OW79547   4.530   7.180   8.242 -0.2376  0.4628 -0.2831
25382SOL    HW179548   4.509   7.163   8.334 -0.6315  0.3100 -0.3994
25382SOL    HW279549   4.446   7.176   8.197  0.1408 -1.1595 -0.9239
25383SOL     OW79550   9.680   6.867   8.506  0.0261 -0.4433  0.5086
25383SOL    HW179551   9.667   6.774   8.527  1.9493 -0.9718 -0.4196
25383SOL    HW279552   9.606   6.889   8.448 -0.3962 -1.4113  0.6586
25384SOL     OW79553   1.655   2.780   7.882  0.0877  0.6753  0.2663
25384SOL    HW179554   1.748   2.778   7.861 -0.1115 -1.8981 -0.7421
25384SOL    HW279555   1.620   2.852   7.829  1.2134  0.4364 -0.8625
25385SOL     OW79556   6.461   3.659   5.831  0.0105  0.1061 -0.5259
25385SOL    HW179557   6.467   3.687   5.922  0.4389 -2.4079  0.3045
25385SOL    HW279558   6.370   3.678   5.805 -0.0351  1.0858  0.3351
25386SOL     OW79559   8.580   0.823   0.191 -0.0468 -0.0516  0.6058
25386SOL    HW179560   8.562   0.773   0.272 -1.8737  1.0388  0.9263
25386SOL    HW279561   8.647   0.886   0.217 -1.2256  0.8607  1.5521
25387SOL     OW79562   4.773  10.516   3.331  0.4912 -0.2770  0.3691
25387SOL    HW179563   4.697  10.464   3.308  0.5273 -0.1405 -0.0642
25387SOL    HW279564   4.742  10.606   3.332  1.0032 -0.0301 -1.4862
25388SOL     OW79565   4.503  10.373   6.299 -0.4639  0.4372  0.0429
25388SOL    HW179566   4.410  10.392   6.290 -0.2449  1.5894  0.1019
25388SOL    HW279567   4.540  10.451   6.342  0.6683  0.3616 -0.7467
25389SOL     OW79568   8.440  10.295   4.469  0.6319  0.3121  0.4433
25389SOL    HW179569   8.354  10.266   4.438  1.7261 -1.9884 -0.6281
25389SOL    HW279570   8.429  10.389   4.483 -2.6393 -0.2094  2.4541
25390SOL     OW79571   6.697   3.543   7.975  0.1381 -0.4201  0.0349
25390SOL    HW179572   6.721   3.577   7.889  1.2253 -0.2901  0.3725
25390SOL    HW279573   6.771   3.487   8.000 -1.3680 -2.6518 -0.2782
25391SOL     OW79574   1.928  10.063   5.896 -0.3876  0.0908  0.4117
25391SOL    HW179575   2.010  10.112   5.887 -0.6790  0.2119 -2.9691
25391SOL    HW279576   1.879  10.110   5.963  1.8228  0.6623  1.7323
25392SOL     OW79577   3.224  10.257  10.838  0.3550  0.0742  0.1371
25392SOL    HW179578   3.213  10.260  10.933  0.2378 -1.2273  0.1814
25392SOL    HW279579   3.316  10.283  10.824 -0.3202  2.9200  0.3609
25393SOL     OW79580   0.886   2.783   2.272 -0.2846 -0.3965 -0.2839
25393SOL    HW179581   0.882   2.696   2.312 -0.8887  0.2888  1.2026
25393SOL    HW279582   0.965   2.823   2.309 -0.5969  0.0758 -0.1209
25394SOL     OW79583   7.384   6.481   9.993 -0.5154  0.1847  0.1482
25394SOL    HW179584   7.321   6.528   9.938 -2.4203  1.7421  3.3384
25394SOL    HW279585   7.439   6.550  10.031 -0.0380 -0.6761  1.0724
25395SOL     OW79586   0.898   7.054   5.658  0.4670 -0.2661  0.3982
25395SOL    HW179587   0.828   7.021   5.601  0.8292 -1.3390  0.5571
25395SOL    HW279588   0.860   7.053   5.746  0.0621  0.9603  0.2616
25396SOL     OW79589   5.495   4.639   7.699  0.0103 -0.5504  0.2093
25396SOL    HW179590   5.556   4.635   7.773 -0.3949 -1.1858  0.5099
25396SOL    HW279591   5.423   4.581   7.724 -1.1446  0.8453  0.2405
25397SOL     OW79592   6.917   1.061   3.056  0.6906 -0.0528 -0.0002
25397SOL    HW179593   6.906   1.155   3.072 -2.5448 -0.5281  1.3243
25397SOL    HW279594   6.891   1.020   3.139  2.3120 -2.1733 -0.4530
25398SOL     OW79595   2.834   4.151   2.066  0.3324  0.5402  0.5105
25398SOL    HW179596   2.808   4.239   2.093 -0.4954  0.8450 -1.1565
25398SOL    HW279597   2.757   4.097   2.082 -0.7155  1.0105 -2.3986
25399SOL     OW79598   8.738   8.405   6.763  0.6575 -0.5160 -0.0999
25399SOL    HW179599   8.800   8.360   6.704 -0.3779 -0.1548 -1.5304
25399SOL    HW279600   8.783   8.486   6.785  0.8683 -0.4207 -0.8236
25400SOL     OW79601   1.020   5.205   5.987  0.1694 -0.3493  0.3258
25400SOL    HW179602   1.043   5.289   5.948 -0.7157 -0.8003 -1.2541
25400SOL    HW279603   0.934   5.184   5.950 -0.6303 -0.9511  2.3452
25401SOL     OW79604   5.225   1.889  10.624 -0.0155 -0.2812  0.1063
25401SOL    HW179605   5.274   1.915  10.701  1.2027  0.3867 -0.8594
25401SOL    HW279606   5.137   1.924  10.639  0.2132 -0.1186  1.1606
25402SOL     OW79607   0.510   7.949   4.951  0.1777 -0.0123  0.0232
25402SOL    HW179608   0.497   8.044   4.955  1.0890  0.1180  0.0020
25402SOL    HW279609   0.519   7.930   4.857 -1.2665 -0.3103 -0.0820
25403SOL     OW79610   4.102   7.188   9.380 -0.0129  0.1736 -0.7059
25403SOL    HW179611   4.079   7.153   9.466  0.8221 -0.0752 -0.5767
25403SOL    HW279612   4.048   7.138   9.318 -1.3015  0.9694 -0.2826
25404SOL     OW79613   2.163   0.979   7.573 -0.0349  0.2613 -0.0216
25404SOL    HW179614   2.201   0.901   7.614  1.0922 -1.1873 -3.5133
25404SOL    HW279615   2.236   1.040   7.566 -0.2434  0.5349  0.1534
25405SOL     OW79616  10.445   5.504   9.071  0.1987  0.5340  0.1834
25405SOL    HW179617  10.540   5.497   9.087 -0.0222  0.4938  1.6123
25405SOL    HW279618  10.430   5.448   8.994  1.3289  0.5338 -0.0581
25406SOL     OW79619   6.266   2.396   0.388 -0.3119 -0.2853  0.4765
25406SOL    HW179620   6.344   2.351   0.418  0.8998  0.9816 -0.6287
25406SOL    HW279621   6.245   2.355   0.304  0.3252  0.5990 -0.1447
25407SOL     OW79622   6.968   5.772   8.917  0.0950  0.4198  0.2527
25407SOL    HW179623   6.959   5.677   8.908 -0.8997  0.4908  0.4382
25407SOL    HW279624   6.916   5.794   8.994 -1.5580  1.3988 -1.0716
25408SOL     OW79625   4.080   6.789   7.526  0.4261  0.2856 -0.0566
25408SOL    HW179626   4.132   6.859   7.487  0.7400  0.4725  0.6755
25408SOL    HW279627   4.082   6.807   7.620  0.5389 -0.7152  0.1479
25409SOL     OW79628   0.913   9.268   6.389 -0.0159 -0.2634 -0.0619
25409SOL    HW179629   0.952   9.356   6.397  0.5926 -0.6326  1.4275
25409SOL    HW279630   0.894   9.243   6.480 -2.3348 -0.7449 -0.6243
25410SOL     OW79631   7.172   0.340  10.594 -0.2531  0.5976  0.1180
25410SOL    HW179632   7.136   0.292  10.519 -0.1266  0.0228  0.4172
25410SOL    HW279633   7.179   0.430  10.563 -0.9613  0.5256 -0.2959
25411SOL     OW79634   3.995   9.475   2.849 -0.7906 -0.0965 -0.4415
25411SOL    HW179635   4.022   9.567   2.850 -4.5776  1.1918 -0.9625
25411SOL    HW279636   4.010   9.446   2.759 -0.4925  0.3071 -0.5252
25412SOL     OW79637   0.111   3.496   7.691 -0.0232  0.2915 -0.1110
25412SOL    HW179638   0.026   3.479   7.649 -0.8402  0.1021  1.5129
25412SOL    HW279639   0.122   3.591   7.685 -0.6859  0.3983  0.2330
25413SOL     OW79640   2.094   2.818   3.977  0.6113  0.8690  0.1030
25413SOL    HW179641   2.024   2.867   3.935  0.2735  2.3524  2.2057
25413SOL    HW279642   2.168   2.879   3.980  1.7832 -0.3989 -1.3629
25414SOL     OW79643   0.705   0.696   2.722 -0.3115 -0.7639 -0.5317
25414SOL    HW179644   0.741   0.610   2.741  0.8636 -0.1474  0.0949
25414SOL    HW279645   0.753   0.726   2.644 -1.2482 -0.9701 -1.2139
25415SOL     OW79646  10.732   7.620   3.712 -0.4266 -0.3642 -0.0304
25415SOL    HW179647  10.754   7.700   3.760 -1.3909  0.8894 -1.5935
25415SOL    HW279648  10.656   7.585   3.760  0.7301 -1.0698  1.3820
25416SOL     OW79649   0.583   9.285   3.843 -0.1665  0.2528  0.5199
25416SOL    HW179650   0.558   9.312   3.931  0.6151  1.1617  0.4650
25416SOL    HW279651   0.529   9.339   3.785 -1.0553 -0.6978  0.4164
25417SOL     OW79652   2.602   9.903   9.750  0.3364  0.8029 -0.7240
25417SOL    HW179653   2.576   9.971   9.812  0.3788 -0.3885  0.6546
25417SOL    HW279654   2.540   9.912   9.677  0.6009  2.5450 -0.7767
25418SOL     OW79655   1.090   8.569   9.660 -0.0346  0.2573  0.3414
25418SOL    HW179656   1.135   8.648   9.629 -0.5153  0.3969  0.0043
25418SOL    HW279657   1.124   8.557   9.749  0.7599  0.2979  0.0533
25419SOL     OW79658   2.343   8.806   6.606  0.4345  0.0773  0.1467
25419SOL    HW179659   2.252   8.829   6.621  0.0323  0.7710 -2.7111
25419SOL    HW279660   2.341   8.716   6.574  0.4595  0.7255 -1.8169
25420SOL     OW79661   1.706   1.653   6.965  0.0745 -0.2991 -0.5251
25420SOL    HW179662   1.784   1.601   6.941 -0.7157 -2.1750  0.7111
25420SOL    HW279663   1.731   1.743   6.945  1.7766 -1.0509 -2.1687
25421SOL     OW79664   2.245   7.632   2.086  0.0110  0.1582  0.2785
25421SOL    HW179665   2.310   7.663   2.148  1.0862 -3.0362  0.9644
25421SOL    HW279666   2.205   7.556   2.129 -3.0301  0.9536 -0.8414
25422SOL     OW79667   9.978   0.784   7.297  0.5965 -0.0120 -0.3583
25422SOL    HW179668  10.070   0.778   7.322  0.2478 -0.7368  0.8197
25422SOL    HW279669   9.971   0.727   7.220  1.1554  0.1486 -0.5335
25423SOL     OW79670   8.429   9.202   2.651  0.0605  0.0036 -0.1945
25423SOL    HW179671   8.520   9.193   2.623  0.7707 -2.6929  2.5368
25423SOL    HW279672   8.385   9.125   2.616 -0.1452 -0.8610  1.8361
25424SOL     OW79673   5.289   6.709   4.783 -0.1944  0.2708  0.2240
25424SOL    HW179674   5.355   6.640   4.788  0.4692  0.9641  1.2224
25424SOL    HW279675   5.207   6.663   4.762  0.1340 -0.8836  1.3858
25425SOL     OW79676  10.068   5.457  10.424  0.2029  0.2921  0.1086
25425SOL    HW179677  10.003   5.390  10.402  0.5722  0.0174 -0.1704
25425SOL    HW279678  10.152   5.416  10.402  0.3537  1.3965 -1.5845
25426SOL     OW79679  10.726   2.665  10.839  0.4622  0.0894  0.0438
25426SOL    HW179680  10.772   2.622  10.911 -0.2101 -1.0794 -0.2013
25426SOL    HW279681  10.764   2.753  10.835  3.5985 -1.1912 -0.9644
25427SOL     OW79682   7.628   1.416  10.385 -0.0626  0.1786  0.0303
25427SOL    HW179683   7.698   1.430  10.321 -0.2771  0.5077 -0.1328
25427SOL    HW279684   7.636   1.324  10.410  1.4662  0.5948  1.2270
25428SOL     OW79685   9.794   9.229   4.026 -0.3380  0.0551  0.3741
25428SOL    HW179686   9.766   9.299   4.085  0.4567  0.0849  0.7356
25428SOL    HW279687   9.883   9.208   4.055 -0.1094 -0.2555 -0.5163
25429SOL     OW79688   9.545   2.587   7.298 -0.2225  0.0413  0.1175
25429SOL    HW179689   9.479   2.604   7.231 -1.4104 -1.8257  0.7063
25429SOL    HW279690   9.625   2.567   7.250 -0.8844 -0.6102 -0.7472
25430SOL     OW79691   4.728   7.107   1.186  0.8396 -0.2134 -0.2578
25430SOL    HW179692   4.698   7.043   1.251  1.1374 -1.1952 -1.0547
25430SOL    HW279693   4.785   7.166   1.234 -1.1120  0.7895  0.9668
25431SOL     OW79694   1.645   9.927   6.632  0.1316  0.5426 -0.3066
25431SOL    HW179695   1.590   9.878   6.693  2.3521 -1.2970  0.3948
25431SOL    HW279696   1.646   9.873   6.553  1.3034  0.2384 -0.1069
25432SOL     OW79697   9.196   2.766   2.279  0.2364 -1.2626  0.2167
25432SOL    HW179698   9.279   2.722   2.294  0.9937  0.4323  1.1189
25432SOL    HW279699   9.158   2.778   2.366  2.4950  4.4131  0.8558
25433SOL     OW79700   9.807   5.053   0.767  0.0201 -0.7125 -0.1884
25433SOL    HW179701   9.776   5.082   0.852  0.1789  0.9048 -0.6507
25433SOL    HW279702   9.790   4.959   0.766  0.8105 -0.9325  1.9519
25434SOL     OW79703   8.784  10.500   4.845  0.0611 -0.1737 -0.1684
25434SOL    HW179704   8.746  10.586   4.865  0.1349 -0.1271 -0.2275
25434SOL    HW279705   8.733  10.467   4.772  0.7130  0.2887 -0.8566
25435SOL     OW79706   9.986   0.564   6.849 -0.0707  0.0124  0.0107
25435SOL    HW179707   9.997   0.644   6.798 -0.1282 -0.3494 -0.5848
25435SOL    HW279708  10.012   0.588   6.938  0.5153  0.5271 -0.2907
25436SOL     OW79709  10.257   1.571   3.680  0.2945 -0.6467 -0.1704
25436SOL    HW179710  10.339   1.580   3.632 -0.9377 -0.5419 -2.4107
25436SOL    HW279711  10.249   1.652   3.730  1.0178 -0.1591 -0.8283
25437SOL     OW79712  10.222   9.650   5.401  0.0015 -0.4432 -0.5569
25437SOL    HW179713  10.213   9.557   5.423  1.6073 -0.7792 -1.2457
25437SOL    HW279714  10.248   9.651   5.309  0.9347  0.6543 -0.2982
25438SOL     OW79715   0.817   5.804   9.997 -0.0071 -0.5108  0.4147
25438SOL    HW179716   0.798   5.897   9.986  1.4150 -0.1908  0.4592
25438SOL    HW279717   0.736   5.760   9.973 -0.8530  0.7585  0.8340
25439SOL     OW79718   2.400   1.435   7.688 -0.4858 -0.2521 -0.5325
25439SOL    HW179719   2.492   1.445   7.714 -1.0801  1.9521  0.9096
25439SOL    HW279720   2.398   1.464   7.597  0.0618  0.7973 -0.2185
25440SOL     OW79721   6.815   4.254   5.637 -0.0929 -0.0449  0.4161
25440SOL    HW179722   6.855   4.341   5.626  1.5202 -0.6003  1.4964
25440SOL    HW279723   6.876   4.207   5.694 -1.8966 -1.2702  1.4301
25441SOL     OW79724   8.161   4.930   0.327 -1.2350  0.3434 -0.7827
25441SOL    HW179725   8.153   4.862   0.260 -3.6560  1.4950 -1.7540
25441SOL    HW279726   8.202   4.885   0.401  0.9550 -1.1378 -2.7259
25442SOL     OW79727   3.960   2.744   6.047 -0.5138 -0.2619  0.0068
25442SOL    HW179728   4.026   2.813   6.045 -1.2599  0.4758 -0.1008
25442SOL    HW279729   3.984   2.689   6.121 -0.5291  0.7622  0.7884
25443SOL     OW79730   5.859   7.046   1.473  0.3808  0.1054  0.1801
25443SOL    HW179731   5.783   7.010   1.427 -0.5834  0.3790  1.5066
25443SOL    HW279732   5.895   6.972   1.522  0.0936  0.2992  0.6887
25444SOL     OW79733   1.691   5.715   1.058 -0.0921  0.2129  0.0003
25444SOL    HW179734   1.762   5.652   1.053  0.3870  0.8238 -1.3989
25444SOL    HW279735   1.723   5.783   1.116  0.1384  0.0903  0.0183
25445SOL     OW79736   3.171   1.922   4.757 -0.2993  0.4602  0.7183
25445SOL    HW179737   3.168   1.984   4.829  0.7858  1.3803  0.0165
25445SOL    HW279738   3.242   1.954   4.701 -1.9126  0.5329 -1.4275
25446SOL     OW79739   0.934   8.854   1.137 -0.2318  0.1819  0.3710
25446SOL    HW179740   1.016   8.806   1.128 -0.1736  0.2262  0.6646
25446SOL    HW279741   0.892   8.846   1.051  0.2907  0.5585  0.0779
25447SOL     OW79742   1.710   5.178   5.539 -0.0877  0.0545  0.3334
25447SOL    HW179743   1.727   5.272   5.545 -2.7433  0.5469  1.1828
25447SOL    HW279744   1.735   5.144   5.624  0.2791  0.0843  0.2407
25448SOL     OW79745   5.444   5.840   8.900  0.1023  0.5388 -0.1278
25448SOL    HW179746   5.530   5.823   8.862 -0.6576  0.0605 -1.7294
25448SOL    HW279747   5.388   5.771   8.864 -1.0100  0.9816  0.6901
25449SOL     OW79748   0.635   1.374   0.981 -0.1393  0.2747  0.5823
25449SOL    HW179749   0.662   1.454   1.026 -2.4072  1.1259  0.5711
25449SOL    HW279750   0.644   1.395   0.888 -0.2304  0.3368  0.5869
25450SOL     OW79751   1.700   6.794   8.987 -0.0584  0.4796  0.3575
25450SOL    HW179752   1.684   6.872   8.934  0.4603  0.1156 -0.3567
25450SOL    HW279753   1.782   6.811   9.032  0.3832  0.0995 -0.2895
25451SOL     OW79754   9.658   1.261   5.247  0.2574  0.4474 -0.4010
25451SOL    HW179755   9.736   1.263   5.192  1.2153  2.8365  0.8517
25451SOL    HW279756   9.689   1.227   5.331  0.9188  4.3138  1.1445
25452SOL     OW79757   2.492   4.542  10.143 -0.2845 -0.0486 -0.2509
25452SOL    HW179758   2.448   4.473  10.094 -0.7041  1.3782 -1.9883
25452SOL    HW279759   2.583   4.538  10.114 -0.2829  0.0542 -0.2619
25453SOL     OW79760   4.449   0.452   8.743  0.3040  0.1385  0.2652
25453SOL    HW179761   4.354   0.445   8.756 -0.1595  2.1615 -1.4531
25453SOL    HW279762   4.478   0.512   8.812  0.1450  0.4251  0.0814
25454SOL     OW79763   7.773   3.500   9.067 -0.0634 -0.0189 -0.4984
25454SOL    HW179764   7.734   3.567   9.124 -0.2371 -0.4529 -0.0970
25454SOL    HW279765   7.710   3.428   9.069 -0.5301  0.3298 -2.0120
25455SOL     OW79766   7.742   1.486   3.675 -0.2235 -0.0672  0.3051
25455SOL    HW179767   7.686   1.432   3.620  0.2181  0.3340 -0.5605
25455SOL    HW279768   7.788   1.543   3.613  0.3640  0.3166  1.0837
25456SOL     OW79769   1.844   8.593   6.842  0.6976 -0.0953  0.0911
25456SOL    HW179770   1.817   8.648   6.914 -0.4770  1.1059 -1.2111
25456SOL    HW279771   1.763   8.566   6.800  1.3252 -1.4259 -0.3198
25457SOL     OW79772   7.297   1.907  10.483  0.8475  0.3649  0.5182
25457SOL    HW179773   7.296   1.849  10.559  1.5259  0.3693  0.5425
25457SOL    HW279774   7.333   1.853  10.413 -0.3796  0.1693  0.0282
25458SOL     OW79775   9.198   9.406  10.807  0.2724  0.5107 -0.3649
25458SOL    HW179776   9.294   9.401  10.810  0.2321  0.0860  0.3637
25458SOL    HW279777   9.176   9.369  10.721  0.7556  0.4784 -0.4807
25459SOL     OW79778  10.452   0.377   3.857 -0.8527  0.5078 -0.3689
25459SOL    HW179779  10.376   0.343   3.810 -1.4240  1.0567  0.1386
25459SOL    HW279780  10.525   0.324   3.826 -1.6469 -0.9163  0.1039
25460SOL     OW79781   3.373   2.986   2.743  0.0507  0.3033  0.1210
25460SOL    HW179782   3.367   3.007   2.836 -0.4387 -0.2056  0.2158
25460SOL    HW279783   3.313   3.047   2.701  1.6636  1.7982 -0.0996
25461SOL     OW79784   3.768   5.728   2.965 -0.2872  0.3634  0.0356
25461SOL    HW179785   3.857   5.761   2.960 -0.1497 -0.0988 -0.8915
25461SOL    HW279786   3.716   5.791   2.915 -0.2268 -0.1460 -0.6857
25462SOL     OW79787   3.433   6.900   2.977 -0.1084  0.5918  0.3260
25462SOL    HW179788   3.523   6.869   2.988 -0.4377 -0.1536  0.9789
25462SOL    HW279789   3.398   6.845   2.907 -0.5280 -0.1724  1.1229
25463SOL     OW79790  10.768   0.244   9.431 -0.0805 -0.5162  0.2328
25463SOL    HW179791  10.861   0.268   9.432  0.2306 -1.7053  0.9972
25463SOL    HW279792  10.765   0.160   9.387 -0.8531 -0.3124 -0.1190
25464SOL     OW79793   0.336   7.142   8.423  0.0707  0.3951  0.3429
25464SOL    HW179794   0.306   7.191   8.347 -0.1289 -0.0925  0.1039
25464SOL    HW279795   0.256   7.108   8.463  0.3179 -1.9229 -0.9801
25465SOL     OW79796   0.799   9.426   1.056  0.1971 -0.5474 -0.1885
25465SOL    HW179797   0.718   9.437   1.107  1.1794 -2.4711  1.9924
25465SOL    HW279798   0.822   9.514   1.029 -2.1991  0.1478 -0.2154
25466SOL     OW79799   1.315   4.064   5.195  0.4208  0.5814  0.1657
25466SOL    HW179800   1.394   4.117   5.182  0.0732  1.8166  2.5307
25466SOL    HW279801   1.268   4.108   5.266 -1.6173 -1.0256 -0.0886
25467SOL     OW79802   7.741   7.784   1.754  0.6207  0.1840  0.0088
25467SOL    HW179803   7.751   7.719   1.823  0.0987  0.8331  0.7122
25467SOL    HW279804   7.830   7.817   1.740  0.6607  0.4167  0.7485
25468SOL     OW79805   1.912   0.320   8.531  0.0996  0.5873 -0.5163
25468SOL    HW179806   1.907   0.241   8.585  2.1911  0.7636  0.0295
25468SOL    HW279807   1.826   0.362   8.540 -1.0432 -1.5817 -0.8046
25469SOL     OW79808   4.534   6.324   7.542 -0.0109  0.6369  0.3478
25469SOL    HW179809   4.620   6.312   7.503  0.0414  0.7799  0.4172
25469SOL    HW279810   4.472   6.310   7.470 -0.1519 -3.0124  0.9780
25470SOL     OW79811   7.030   4.092   5.295 -0.5727  0.7731  0.1876
25470SOL    HW179812   6.937   4.111   5.285 -1.3083 -2.8538 -1.3189
25470SOL    HW279813   7.066   4.102   5.206  0.0243  0.1679  0.3539
25471SOL     OW79814   8.398   1.701   6.900  0.0359 -0.5346 -0.2159
25471SOL    HW179815   8.472   1.680   6.957  0.3847 -0.6687 -0.7138
25471SOL    HW279816   8.323   1.660   6.943  0.0935  0.3476  0.7554
25472SOL     OW79817   6.862   2.954   4.207 -0.4398 -0.4526  0.5704
25472SOL    HW179818   6.881   3.048   4.198  0.6744 -0.8145 -1.2766
25472SOL    HW279819   6.773   2.952   4.243  0.0496  1.2880  2.0627
25473SOL     OW79820   4.454   7.261   5.399 -0.4585 -0.1312  0.2106
25473SOL    HW179821   4.466   7.169   5.425 -0.4531 -0.6838 -1.5835
25473SOL    HW279822   4.389   7.257   5.329 -1.1005  1.3529  0.6948
25474SOL     OW79823   0.170   4.264   0.724 -0.2032 -0.3981 -0.0233
25474SOL    HW179824   0.184   4.315   0.644  1.9265  1.3169  1.3352
25474SOL    HW279825   0.254   4.265   0.769 -0.5684 -3.5989  1.0369
25475SOL     OW79826   1.519   7.578   5.018  0.5424 -0.0466  0.6844
25475SOL    HW179827   1.575   7.592   4.942  1.9523 -0.7372  1.5387
25475SOL    HW279828   1.451   7.645   5.012  1.3568  0.6962 -0.5076
25476SOL     OW79829   9.047   1.769   5.101  0.5625 -0.6159 -0.6783
25476SOL    HW179830   8.991   1.846   5.105 -0.0981 -1.1484  1.9036
25476SOL    HW279831   9.115   1.785   5.165  1.4675 -1.4244 -1.4044
25477SOL     OW79832   3.984   8.609   1.332 -0.0090 -0.3059 -0.1044
25477SOL    HW179833   3.925   8.684   1.334  0.4542  0.1338 -1.5335
25477SOL    HW279834   4.067   8.645   1.301 -0.1041 -1.5923 -2.0019
25478SOL     OW79835   0.046   0.403   8.623  0.6384  0.0789  0.0440
25478SOL    HW179836   0.022   0.329   8.566 -0.4250  1.9071 -2.0226
25478SOL    HW279837  -0.038   0.436   8.655  1.1389  0.1238  1.3523
25479SOL     OW79838   5.211   6.070   9.051 -0.1014  0.0644  0.0445
25479SOL    HW179839   5.143   6.114   9.102  0.0753 -0.5902  0.8716
25479SOL    HW279840   5.189   5.977   9.056  0.3744 -0.0772 -0.4054
25480SOL     OW79841   7.579   8.948   0.285  0.2797 -0.2943 -0.6684
25480SOL    HW179842   7.653   8.931   0.227 -0.2759 -0.8242 -1.2440
25480SOL    HW279843   7.566   9.042   0.280  0.5331 -0.2768 -1.0478
25481SOL     OW79844   6.627   7.775   9.002  0.0039  0.3525 -0.1581
25481SOL    HW179845   6.685   7.851   9.009 -1.0411  1.2965 -1.3721
25481SOL    HW279846   6.542   7.806   9.031 -0.3081 -0.5426 -0.0643
25482SOL     OW79847   0.438   2.443   0.391  0.6348  0.0144 -0.0470
25482SOL    HW179848   0.471   2.493   0.316  0.3292 -0.2655 -0.3692
25482SOL    HW279849   0.359   2.401   0.359  0.2624  0.2399  0.5620
25483SOL     OW79850   3.733   6.565   2.892  0.5956  0.4769  0.7817
25483SOL    HW179851   3.766   6.488   2.939  0.5351  0.6312  1.0780
25483SOL    HW279852   3.673   6.530   2.827 -1.0063  0.3922  2.2217
25484SOL     OW79853   6.569   2.662   0.265  0.0661 -0.3654 -0.2459
25484SOL    HW179854   6.664   2.669   0.275  0.2612 -1.7293 -0.9474
25484SOL    HW279855   6.539   2.622   0.346  0.1468 -0.4002 -0.2334
25485SOL     OW79856   9.300   0.800   5.446 -0.1568  0.5103  0.5720
25485SOL    HW179857   9.305   0.708   5.421  0.5365  0.6426  0.2141
25485SOL    HW279858   9.351   0.846   5.380  0.3830  1.0309  1.3371
25486SOL     OW79859   7.836   4.785   3.474  0.2201 -0.0961  0.1973
25486SOL    HW179860   7.787   4.744   3.402  1.4156 -0.3157 -0.5060
25486SOL    HW279861   7.852   4.874   3.443 -1.6870  0.7338  1.3926
25487SOL     OW79862   5.364   9.554   9.914 -0.2085 -0.0061  0.2466
25487SOL    HW179863   5.317   9.490   9.967 -3.8643  1.6364 -0.7022
25487SOL    HW279864   5.391   9.505   9.836 -0.9034 -0.9087  0.5527
25488SOL     OW79865   6.770   3.625   6.599 -0.1474 -0.4949  0.2880
25488SOL    HW179866   6.713   3.701   6.587 -0.1873 -0.5992 -0.1846
25488SOL    HW279867   6.822   3.648   6.677  1.0251  0.7788 -0.8108
25489SOL     OW79868   2.069   6.450   4.815 -0.6938  0.0175 -0.0219
25489SOL    HW179869   2.097   6.420   4.728 -0.6594  1.6930 -0.6245
25489SOL    HW279870   2.150   6.480   4.857 -0.5251 -1.7817  1.0643
25490SOL     OW79871   0.217  10.813   2.916  0.8911 -0.0374 -0.1729
25490SOL    HW179872   0.286  10.794   2.980  1.2562 -0.6632 -0.7403
25490SOL    HW279873   0.242  10.762   2.839 -0.8355 -1.2328  0.0133
25491SOL     OW79874   4.119   9.428   4.847 -0.5175  0.1965 -0.8461
25491SOL    HW179875   4.151   9.341   4.820 -1.3970  0.1262 -1.7122
25491SOL    HW279876   4.036   9.438   4.801 -0.4882  1.4539 -0.6443
25492SOL     OW79877   4.186   8.394   9.733  0.9401 -0.3054  0.3321
25492SOL    HW179878   4.126   8.423   9.664  0.6336  0.6072  0.9604
25492SOL    HW279879   4.133   8.339   9.790  0.9514 -0.3062  0.3420
25493SOL     OW79880   6.081   0.932   5.712  0.5044  0.4472 -0.1442
25493SOL    HW179881   6.073   0.844   5.748 -0.4421  0.1256 -1.1098
25493SOL    HW279882   6.014   0.983   5.758 -0.6285  0.0627 -1.3191
25494SOL     OW79883   8.027   4.391   7.323  0.3320  0.7897  0.2356
25494SOL    HW179884   7.942   4.435   7.328  0.5418  1.4702 -1.5745
25494SOL    HW279885   8.014   4.320   7.261  1.0786  0.8779 -0.0326
25495SOL     OW79886   7.094   2.696   4.130  0.5557  0.3727  0.6715
25495SOL    HW179887   7.122   2.707   4.039  0.5400  0.0955  0.6313
25495SOL    HW279888   7.173   2.712   4.182  0.9522 -0.9786  0.5309
25496SOL     OW79889   8.834   2.232   8.880  0.0379 -0.2789 -0.1660
25496SOL    HW179890   8.859   2.291   8.810  2.1708 -1.4687 -0.4649
25496SOL    HW279891   8.916   2.203   8.919 -0.9506 -2.3146  0.5762
25497SOL     OW79892   4.226  10.349   1.211  0.2043  0.6122  0.1409
25497SOL    HW179893   4.318  10.363   1.189  0.0601  0.7809 -0.3484
25497SOL    HW279894   4.180  10.423   1.173 -0.1849  0.3254  0.0448
25498SOL     OW79895   6.457   4.186   4.425 -0.1204  0.3660  0.1136
25498SOL    HW179896   6.398   4.233   4.366 -0.7483 -1.1274 -0.4897
25498SOL    HW279897   6.520   4.143   4.367 -0.2835 -0.5119  0.5830
25499SOL     OW79898   0.385   0.238   4.928 -0.0118  0.0746  0.3413
25499SOL    HW179899   0.357   0.153   4.895  0.5991 -0.1334  0.3355
25499SOL    HW279900   0.307   0.276   4.968 -0.3152 -0.4399  0.2385
25500SOL     OW79901   5.177   6.174   1.336 -0.2428 -0.0441  0.0411
25500SOL    HW179902   5.124   6.135   1.266  0.1098 -1.2726  0.4338
25500SOL    HW279903   5.268   6.158   1.309 -0.0931 -1.9771  1.5108
25501SOL     OW79904   2.661   8.461   0.022  0.2093  0.0893  0.2342
25501SOL    HW179905   2.727   8.435  -0.042 -0.0750  1.2419 -0.5535
25501SOL    HW279906   2.705   8.452   0.107  0.5950 -1.4432 -0.0962
25502SOL     OW79907   9.535   6.389   1.754 -0.3420  0.6101 -0.7007
25502SOL    HW179908   9.496   6.305   1.779  0.7254 -0.2240 -1.7387
25502SOL    HW279909   9.493   6.412   1.671 -1.8110  1.9529  0.3590
25503SOL     OW79910   9.871   0.873   4.685 -0.6497 -0.3197  0.3015
25503SOL    HW179911   9.864   0.963   4.719  0.2687 -0.9593  2.3408
25503SOL    HW279912   9.948   0.875   4.629 -1.0259  0.3063 -0.2142
25504SOL     OW79913   1.170   6.059   2.970 -0.5697  0.4074  0.5460
25504SOL    HW179914   1.132   6.133   2.923  1.2901  1.5710  0.7810
25504SOL    HW279915   1.232   6.021   2.908  0.0193  0.3480  1.1699
25505SOL     OW79916   8.942   2.671   4.249 -0.0498 -0.2561 -0.6005
25505SOL    HW179917   8.887   2.645   4.175  0.6961 -0.5514 -1.0683
25505SOL    HW279918   8.887   2.731   4.300 -1.4087 -1.8817 -0.0903
25506SOL     OW79919   0.150   1.567   6.843  0.7431 -0.5675 -0.0445
25506SOL    HW179920   0.129   1.646   6.892 -2.3163 -1.8135  0.9228
25506SOL    HW279921   0.225   1.530   6.889  0.5509  0.4477  1.1420
25507SOL     OW79922   4.330   1.248   6.107 -0.2524  0.2533 -0.4593
25507SOL    HW179923   4.396   1.209   6.050  0.0243  0.0391  0.0115
25507SOL    HW279924   4.247   1.212   6.076 -0.1431  0.4331 -0.9744
25508SOL     OW79925   6.673   9.228   6.139 -0.0048  0.1062  0.1045
25508SOL    HW179926   6.678   9.301   6.077 -1.6169 -0.8160 -1.1699
25508SOL    HW279927   6.757   9.183   6.129 -0.6048 -0.6514 -2.2936
25509SOL     OW79928  10.569   6.350   7.713  0.0618  0.2463  0.5185
25509SOL    HW179929  10.509   6.299   7.660  0.7695  0.0163 -0.0799
25509SOL    HW279930  10.632   6.286   7.746 -0.6761  0.2830  2.1200
25510SOL     OW79931   4.383   1.929   6.229  0.0498 -0.1922 -0.4666
25510SOL    HW179932   4.295   1.957   6.252  0.4262  0.5726  0.0786
25510SOL    HW279933   4.434   2.010   6.227  0.5524 -0.5122 -1.6636
25511SOL     OW79934   1.819   7.884   8.093  0.2073 -0.0849 -0.0930
25511SOL    HW179935   1.774   7.872   8.009  1.9318 -1.2343 -0.9173
25511SOL    HW279936   1.852   7.797   8.115 -1.3344 -0.1203  2.5233
25512SOL     OW79937   2.561   3.646   6.380 -0.0174 -0.4657 -0.7317
25512SOL    HW179938   2.560   3.579   6.448  0.5578 -1.3150 -1.5402
25512SOL    HW279939   2.641   3.629   6.331  0.8185  1.5961 -0.2033
25513SOL     OW79940   9.002   4.925   6.772  0.0948  0.0889 -0.4083
25513SOL    HW179941   9.047   4.871   6.837  0.1805 -1.4967 -1.7040
25513SOL    HW279942   8.927   4.962   6.819  0.5522 -0.4252  0.7613
25514SOL     OW79943   2.005   2.864   5.853 -0.1678  0.5948  0.0315
25514SOL    HW179944   1.923   2.825   5.881  0.0480 -0.1901 -0.3879
25514SOL    HW279945   1.986   2.957   5.842 -1.5547  0.1296 -2.0390
25515SOL     OW79946   5.139   8.567   4.447  0.2764 -0.5744  0.0937
25515SOL    HW179947   5.225   8.538   4.477 -0.1532 -1.5919  0.3755
25515SOL    HW279948   5.083   8.490   4.455 -0.8833  0.3023  0.7541
25516SOL     OW79949   9.199   1.127   6.078  0.2828  0.3300 -0.3844
25516SOL    HW179950   9.205   1.057   6.013  0.9703 -0.2628  0.2924
25516SOL    HW279951   9.199   1.207   6.026  1.7033 -0.0918 -1.1000
25517SOL     OW79952   0.859   4.362   5.574  0.4892 -0.2400  0.3485
25517SOL    HW179953   0.774   4.342   5.614  0.3694 -0.8765 -0.2066
25517SOL    HW279954   0.905   4.278   5.571  1.1721  0.1060  0.6942
25518SOL     OW79955   4.157   9.703   1.682  0.3376 -0.1804 -0.1059
25518SOL    HW179956   4.171   9.753   1.762 -1.1623  0.2614 -0.1006
25518SOL    HW279957   4.224   9.736   1.622 -0.2636  1.4881  0.0797
25519SOL     OW79958   7.767   2.940   7.500 -0.0482 -0.3045 -0.2829
25519SOL    HW179959   7.683   2.959   7.458  0.4651 -0.4418 -1.4220
25519SOL    HW279960   7.799   3.024   7.531 -0.5318 -0.2291  0.0154
25520SOL     OW79961   2.101   2.382   1.791 -0.4688  0.1647  0.2413
25520SOL    HW179962   2.008   2.361   1.793 -0.9048  1.9506 -0.0512
25520SOL    HW279963   2.141   2.307   1.747 -2.1277  0.5688 -2.1698
25521SOL     OW79964   2.557   5.997   5.663  0.0601 -0.2985 -0.2933
25521SOL    HW179965   2.630   6.026   5.718 -0.0046 -1.8229  0.6627
25521SOL    HW279966   2.485   6.056   5.684  0.6944  0.5613 -0.4626
25522SOL     OW79967   1.601   8.047   2.441 -0.4701  0.3384  0.2063
25522SOL    HW179968   1.630   8.073   2.353 -2.7045 -0.2043 -0.7640
25522SOL    HW279969   1.641   7.961   2.455 -1.4346 -0.3748 -1.0776
25523SOL     OW79970   3.714   8.704   6.327  0.0025 -0.3791 -0.1529
25523SOL    HW179971   3.772   8.630   6.344 -1.2534 -1.7751 -1.6135
25523SOL    HW279972   3.628   8.674   6.353 -0.6121  0.3618 -1.2338
25524SOL     OW79973  10.694   0.419   4.018 -0.1759 -0.0358  0.3143
25524SOL    HW179974  10.617   0.372   3.987 -0.7424  1.3356 -0.4406
25524SOL    HW279975  10.765   0.386   3.964 -0.6119  0.1475 -0.3827
25525SOL     OW79976   4.450  10.750   8.281  0.0911  0.1918  0.5704
25525SOL    HW179977   4.451  10.719   8.372  0.0834 -2.3996 -0.2514
25525SOL    HW279978   4.359  10.737   8.253  0.2852  0.1985 -0.0662
25526SOL     OW79979   0.967   1.494   5.542 -0.3040  0.6229  0.0758
25526SOL    HW179980   0.968   1.516   5.449  1.6936 -1.4179 -0.4887
25526SOL    HW279981   0.878   1.463   5.558 -0.7144  1.1137 -1.1208
25527SOL     OW79982   9.213   5.968   7.321 -0.4714  0.5688  0.5457
25527SOL    HW179983   9.210   5.873   7.339  1.4391  0.3424 -0.1622
25527SOL    HW279984   9.272   6.002   7.388 -0.1456  1.0750 -0.0051
25528SOL     OW79985   1.736   2.054   6.241  0.4354 -0.2967 -0.0651
25528SOL    HW179986   1.815   2.017   6.280 -0.1665 -1.3354  0.1859
25528SOL    HW279987   1.718   2.000   6.164  0.8043  0.8637 -1.0055
25529SOL     OW79988   3.893   5.411   6.332  0.2489 -0.2250 -0.1700
25529SOL    HW179989   3.816   5.461   6.361 -1.0044 -2.3152  0.3100
25529SOL    HW279990   3.871   5.382   6.244  1.0522  0.2022 -0.5217
25530SOL     OW79991   5.754   7.389   9.318 -0.1963 -0.0932  0.1367
25530SOL    HW179992   5.706   7.315   9.355  0.9675 -1.1898 -0.4656
25530SOL    HW279993   5.845   7.376   9.348 -0.0970  1.5228  0.6549
25531SOL     OW79994   6.888   7.637   9.268  0.8758 -0.1984 -0.4179
25531SOL    HW179995   6.968   7.594   9.300 -0.2364 -2.2511 -0.2442
25531SOL    HW279996   6.892   7.626   9.173  1.0003  0.0677 -0.4436
25532SOL     OW79997   5.243  10.887   2.962  0.4760 -0.3154 -0.2644
25532SOL    HW179998   5.191  10.923   3.034  0.0920  0.6046 -0.9739
25532SOL    HW279999   5.309  10.953   2.944 -0.4232  0.2210 -1.7898
25533SOL     OW80000   5.301   2.671   2.415 -0.6481 -0.0241  0.3117
25533SOL    HW180001   5.387   2.708   2.435 -0.9439  1.1013 -0.4377
25533SOL    HW280002   5.311   2.577   2.430  1.0061 -0.0473 -0.7779
25534SOL     OW80003   7.947   1.327   9.073 -0.0517 -0.4104  0.2146
25534SOL    HW180004   7.909   1.413   9.092 -0.5515 -0.5455 -0.1443
25534SOL    HW280005   8.041   1.343   9.069 -0.1066  0.0402  0.5611
25535SOL     OW80006   0.274   7.100   2.611 -0.0992  0.2472  0.0819
25535SOL    HW180007   0.269   7.160   2.536  1.1118 -0.4034 -0.5655
25535SOL    HW280008   0.281   7.157   2.687 -0.6278  0.9271 -0.3664
25536SOL     OW80009   2.859   3.598   5.378 -0.4002  0.2221 -0.5903
25536SOL    HW180010   2.793   3.653   5.419 -0.7575  0.3507 -1.3221
25536SOL    HW280011   2.842   3.510   5.412  1.5725  0.8232  2.3714
25537SOL     OW80012  10.205   9.909   4.989 -0.2677  0.0370 -0.2697
25537SOL    HW180013  10.207   9.914   4.893 -3.1104  0.1123 -0.4114
25537SOL    HW280014  10.236   9.996   5.017 -1.2037  0.7027 -1.2053
25538SOL     OW80015   1.093   2.484   0.138 -0.1883  0.1314  0.1080
25538SOL    HW180016   1.108   2.398   0.099  0.1215  0.1924  0.0886
25538SOL    HW280017   1.181   2.521   0.150 -0.3398  0.7682 -0.6309
25539SOL     OW80018  10.676   4.654   7.583 -0.1601 -0.2701 -0.4859
25539SOL    HW180019  10.718   4.657   7.669  3.0031 -0.6005 -1.8814
25539SOL    HW280020  10.701   4.737   7.542 -0.6074 -0.6381 -1.5190
25540SOL     OW80021   2.800   8.298  10.509 -0.1792  0.1799 -0.3177
25540SOL    HW180022   2.736   8.248  10.459  0.1267 -0.4599 -0.0806
25540SOL    HW280023   2.878   8.301  10.454  0.6018 -1.6250  0.5926
25541SOL     OW80024   6.962   0.796   2.935  0.2661  0.0788 -0.3283
25541SOL    HW180025   6.912   0.860   2.985  1.3890  0.7168  0.0130
25541SOL    HW280026   6.913   0.786   2.853 -0.7318  0.2101  0.2313
25542SOL     OW80027   6.073   1.144   2.573 -0.1781 -0.3493 -0.0998
25542SOL    HW180028   6.108   1.119   2.658 -0.2434 -0.6260 -0.1531
25542SOL    HW280029   5.993   1.091   2.563  0.7726 -1.6629 -1.1132
25543SOL     OW80030   8.925   7.225   7.146  0.6902  0.5326  0.0626
25543SOL    HW180031   9.004   7.186   7.185  0.6570  0.0376 -0.3518
25543SOL    HW280032   8.889   7.155   7.091  0.0752  0.8269  0.0889
25544SOL     OW80033   4.865  10.180   9.654 -0.2277  0.0326 -0.0544
25544SOL    HW180034   4.804  10.135   9.713 -1.6910  0.5511 -1.1129
25544SOL    HW280035   4.950  10.172   9.697 -0.6603 -2.4652  0.5102
25545SOL     OW80036   5.172   7.453   3.662  0.1845  0.1984  0.6906
25545SOL    HW180037   5.243   7.496   3.613  0.8400 -1.3796  0.1905
25545SOL    HW280038   5.150   7.376   3.610  0.7347 -1.4195  2.7125
25546SOL     OW80039   2.904   3.709   5.646 -0.1989 -0.1218  0.0924
25546SOL    HW180040   2.866   3.648   5.709  0.0912 -0.3479  0.0462
25546SOL    HW280041   2.987   3.736   5.685  1.5904 -2.7619 -1.6505
25547SOL     OW80042   4.694   0.580  10.049 -0.3604 -0.6079 -0.4340
25547SOL    HW180043   4.668   0.618   9.966 -2.9117  0.4636  0.7706
25547SOL    HW280044   4.723   0.655  10.102  2.4851 -1.4109 -0.6726
25548SOL     OW80045   9.535   9.565   0.269  0.1993  0.2998 -0.3253
25548SOL    HW180046   9.529   9.480   0.227 -0.5557 -0.0771  0.4912
25548SOL    HW280047   9.529   9.628   0.198 -0.4054 -0.3254 -0.8381
25549SOL     OW80048   1.051   5.286   1.328 -0.3397 -0.4047 -0.2735
25549SOL    HW180049   1.078   5.352   1.264  0.4136 -1.0301 -0.6155
25549SOL    HW280050   1.061   5.328   1.413  0.7104 -0.2654 -0.4550
25550SOL     OW80051   3.533   7.563   5.789  0.3608  0.1847  0.1439
25550SOL    HW180052   3.466   7.545   5.854 -0.4773  2.4319 -0.0295
25550SOL    HW280053   3.504   7.642   5.745  2.8330  0.9132 -0.3399
25551SOL     OW80054   9.966   6.752   8.869 -0.7100  0.1791 -0.4327
25551SOL    HW180055  10.041   6.702   8.900 -0.1638  0.8697 -0.6286
25551SOL    HW280056   9.890   6.701   8.899 -0.1795 -1.1341 -1.2316
25552SOL     OW80057   4.898   9.695   8.745 -0.2717  0.4114  0.0158
25552SOL    HW180058   4.803   9.684   8.754 -0.3735  1.9626  1.4577
25552SOL    HW280059   4.926   9.730   8.830  1.3233  1.5215 -0.9049
25553SOL     OW80060   2.646   9.141   3.422 -0.0986 -0.4609 -0.3477
25553SOL    HW180061   2.603   9.134   3.337 -1.0514  2.4053 -0.2109
25553SOL    HW280062   2.579   9.178   3.480  0.4593 -2.4908  1.7517
25554SOL     OW80063   2.567   6.006   9.843 -0.3960 -0.3290  0.0471
25554SOL    HW180064   2.565   5.913   9.868  0.1420  0.0035  1.4206
25554SOL    HW280065   2.660   6.027   9.835 -0.4290  0.5617  1.6831
25555SOL     OW80066   0.335   4.416   9.445  0.4759 -0.0038  0.1566
25555SOL    HW180067   0.301   4.379   9.526 -1.9424  0.5996 -0.5261
25555SOL    HW280068   0.413   4.464   9.472  0.3966 -0.7916  1.9198
25556SOL     OW80069  10.643   9.060   0.723 -0.3182 -0.1355 -0.1187
25556SOL    HW180070  10.664   9.109   0.643  0.4911 -0.8256 -0.3445
25556SOL    HW280071  10.555   9.025   0.707 -0.5224  0.4464 -0.3362
25557SOL     OW80072   2.374   5.671  10.486  0.0341  0.3482  0.1766
25557SOL    HW180073   2.394   5.764  10.475  0.3916  0.3246  0.6068
25557SOL    HW280074   2.382   5.655  10.580 -0.4490 -0.0224  0.1579
25558SOL     OW80075   0.061   4.757   1.407  0.0059  0.8191 -0.5438
25558SOL    HW180076   0.150   4.793   1.408  0.0175  0.7887 -0.4695
25558SOL    HW280077   0.047   4.724   1.496 -0.3965  1.6141 -0.3004
25559SOL     OW80078   7.203   7.280   9.138 -0.0369 -0.5411  0.5569
25559SOL    HW180079   7.161   7.329   9.067  0.3510 -0.5278  0.3335
25559SOL    HW280080   7.199   7.189   9.111 -1.4507 -0.7289  1.3296
25560SOL     OW80081   0.201   4.117   6.527 -0.0536 -0.8652 -0.4419
25560SOL    HW180082   0.294   4.129   6.511  0.1521 -2.9914 -1.0728
25560SOL    HW280083   0.159   4.146   6.445  0.0708 -0.2976 -0.3084
25561SOL     OW80084   8.943   9.942   7.485 -0.2351  0.1309 -0.5265
25561SOL    HW180085   8.957   9.922   7.392 -1.1164  1.3021 -0.9340
25561SOL    HW280086   9.031   9.948   7.522  0.1171 -1.2352 -1.0716
25562SOL     OW80087   3.409   5.528   5.502 -0.4577 -0.5454 -0.5556
25562SOL    HW180088   3.416   5.553   5.409 -1.0776 -0.6118 -0.6254
25562SOL    HW280089   3.320   5.555   5.527 -0.6584 -1.4629 -0.2645
25563SOL     OW80090   2.641   7.761   4.072 -0.2469  0.2309 -0.1511
25563SOL    HW180091   2.647   7.666   4.062 -0.8665  0.2041 -0.2854
25563SOL    HW280092   2.551   7.782   4.049 -0.0273  0.8948 -0.4303
25564SOL     OW80093   6.510   1.537  10.088  0.2371 -0.0701  0.0935
25564SOL    HW180094   6.603   1.556  10.102  0.1251  1.3998 -0.9493
25564SOL    HW280095   6.485   1.485  10.164  2.0212 -0.9166  0.1557
25565SOL     OW80096   9.994   9.512   4.101  0.0316 -0.5387  0.7881
25565SOL    HW180097  10.017   9.587   4.046 -0.9199 -1.4949 -1.0049
25565SOL    HW280098   9.900   9.501   4.087 -0.0108 -1.5083  1.7443
25566SOL     OW80099   7.633   4.703  10.507 -0.0624 -0.3731 -0.3595
25566SOL    HW180100   7.565   4.712  10.575  0.7349 -1.7135  0.6541
25566SOL    HW280101   7.675   4.789  10.505  0.9475 -0.7040  2.0584
25567SOL     OW80102   2.381   0.498   4.604  0.3937 -0.6013  0.0774
25567SOL    HW180103   2.309   0.558   4.585  2.0426  2.2849  2.1105
25567SOL    HW280104   2.340   0.425   4.649 -1.5726 -0.4490 -1.3335
25568SOL     OW80105   4.871  10.439   6.497  0.1666 -0.0951  0.1130
25568SOL    HW180106   4.919  10.366   6.459 -0.1006  1.2371 -3.0456
25568SOL    HW280107   4.939  10.494   6.537  0.9606  0.1413 -1.4739
25569SOL     OW80108   0.630  10.723   1.569 -0.0744  0.5665 -0.1566
25569SOL    HW180109   0.535  10.720   1.573 -0.2211  2.4388 -1.0363
25569SOL    HW280110   0.651  10.716   1.476  0.7043 -0.5602  0.0855
25570SOL     OW80111   2.259   7.204   1.483 -0.0437 -0.1532  0.5861
25570SOL    HW180112   2.192   7.243   1.539 -0.9227  0.1566 -0.6438
25570SOL    HW280113   2.333   7.266   1.489 -0.9291  1.0460 -0.2784
25571SOL     OW80114   6.417   0.227   6.543 -0.9296 -0.9290 -0.1255
25571SOL    HW180115   6.399   0.320   6.553 -1.5459 -1.2114  1.7518
25571SOL    HW280116   6.363   0.200   6.468  0.1417  0.4116 -1.4511
25572SOL     OW80117   6.508   0.123   4.120 -0.0261  0.1690 -0.5541
25572SOL    HW180118   6.565   0.061   4.167  0.4533  0.7812 -0.3152
25572SOL    HW280119   6.459   0.068   4.059  0.7497 -0.3915 -0.6949
25573SOL     OW80120   0.032   7.093   4.006  0.0583 -0.6532 -0.3181
25573SOL    HW180121   0.029   7.122   4.097 -0.0399  1.4908 -0.9440
25573SOL    HW280122  -0.055   7.059   3.988 -0.7674  1.3601 -0.3114
25574SOL     OW80123   6.566   0.087   3.404 -0.6370  0.2563 -0.6580
25574SOL    HW180124   6.509   0.162   3.417  0.3022  0.8395  0.2491
25574SOL    HW280125   6.526   0.018   3.457 -0.3835  0.7288  0.1638
25575SOL     OW80126   2.382   2.173   0.920 -0.0789 -0.9110 -0.2881
25575SOL    HW180127   2.337   2.150   1.001 -0.9341  1.3512 -0.0637
25575SOL    HW280128   2.463   2.122   0.923 -0.1338 -0.9574  1.9452
25576SOL     OW80129   1.932   8.043   0.629  0.1791  0.4591  0.1020
25576SOL    HW180130   2.011   8.078   0.671  0.5842 -0.4684  0.1476
25576SOL    HW280131   1.889   8.119   0.590  0.5632  1.1263  0.9523
25577SOL     OW80132   1.452   2.827   8.906 -0.3671  0.2740 -0.5214
25577SOL    HW180133   1.541   2.812   8.936 -0.3589  1.6145  0.2343
25577SOL    HW280134   1.398   2.815   8.984 -0.4413  2.9213 -0.0644
25578SOL     OW80135   4.379   5.812   9.199  0.3421 -0.0042  0.3100
25578SOL    HW180136   4.350   5.901   9.221 -0.7808 -0.4662  0.7648
25578SOL    HW280137   4.446   5.792   9.265 -0.1311  0.1286  0.8351
25579SOL     OW80138   7.931   9.105  10.455  0.3554  0.4576 -0.3789
25579SOL    HW180139   7.987   9.129  10.528 -0.6433 -0.1426  0.6149
25579SOL    HW280140   7.856   9.060  10.495  0.1182 -0.5149 -1.8162
25580SOL     OW80141   0.151  10.047   2.600  0.1007 -0.1748  0.3035
25580SOL    HW180142   0.207  10.029   2.675  1.4065  2.7909  0.1864
25580SOL    HW280143   0.206  10.099   2.541 -2.3027  1.7330 -0.4355
25581SOL     OW80144   3.150   7.612   2.759 -0.1139 -0.4392 -0.1408
25581SOL    HW180145   3.240   7.587   2.779  0.2181  1.1860  0.5946
25581SOL    HW280146   3.157   7.702   2.726 -1.4691 -0.2816 -0.0481
25582SOL     OW80147   8.058   6.241   1.024  0.0108 -0.1017  0.4876
25582SOL    HW180148   8.139   6.247   0.973 -0.8187 -0.6209 -0.9802
25582SOL    HW280149   8.044   6.147   1.035 -0.4123 -0.0149  0.6793
25583SOL     OW80150   8.260   9.387   5.449 -0.2347 -0.2054 -0.4217
25583SOL    HW180151   8.204   9.319   5.487 -0.0642  0.4110  1.0114
25583SOL    HW280152   8.199   9.456   5.422 -0.3136 -0.4192 -0.8013
25584SOL     OW80153  10.183   1.077   5.015 -0.4863  0.0950  0.3798
25584SOL    HW180154  10.217   0.997   4.975  1.3344  1.0492 -0.0802
25584SOL    HW280155  10.240   1.092   5.090 -2.2244 -0.2267  1.8354
25585SOL     OW80156   1.832   6.776   3.554  0.0694  0.0061 -0.0823
25585SOL    HW180157   1.772   6.842   3.520  1.4643  1.1522 -0.4344
25585SOL    HW280158   1.862   6.728   3.477  0.0882 -0.1345  0.0126
25586SOL     OW80159  10.178   0.787   2.819  0.4002 -0.3390 -0.2584
25586SOL    HW180160  10.259   0.743   2.791 -0.1559 -0.5381 -1.5940
25586SOL    HW280161  10.108   0.735   2.781 -0.3427  0.3556  0.1335
25587SOL     OW80162   6.578   5.207   0.778 -0.3798  0.0316 -0.4066
25587SOL    HW180163   6.503   5.201   0.837 -0.1814  1.0057 -0.0367
25587SOL    HW280164   6.569   5.132   0.720 -0.3222 -1.2563  1.1661
25588SOL     OW80165   0.303   9.301   6.961  0.1794 -0.4902  0.5160
25588SOL    HW180166   0.222   9.311   7.011  0.5151 -0.5695  1.0841
25588SOL    HW280167   0.371   9.338   7.017  0.5948 -0.7731  0.2094
25589SOL     OW80168   8.585   7.742   8.552  0.0369 -0.4199 -0.8481
25589SOL    HW180169   8.514   7.739   8.617  0.7809 -0.3138 -0.0009
25589SOL    HW280170   8.586   7.654   8.514 -0.9550 -0.2369 -1.3417
25590SOL     OW80171   0.280   4.674  10.514  0.2905  0.0710  0.3198
25590SOL    HW180172   0.297   4.761  10.551  1.7035 -0.2513  0.4831
25590SOL    HW280173   0.306   4.682  10.422 -0.5065  0.0759  0.0846
25591SOL     OW80174   1.849   6.173   3.104  0.6046  0.0190 -0.0818
25591SOL    HW180175   1.762   6.211   3.106  0.8554  0.6624  2.3835
25591SOL    HW280176   1.866   6.155   3.012 -2.3649 -0.7553 -0.5596
25592SOL     OW80177   0.115   6.425   3.533 -0.1230 -0.0944 -0.5079
25592SOL    HW180178   0.136   6.403   3.442  1.1325  0.3416 -0.3569
25592SOL    HW280179   0.199   6.418   3.579 -0.6078  0.3564  0.4840
25593SOL     OW80180   4.011   5.454   5.951  0.0068 -0.1092  0.2619
25593SOL    HW180181   4.102   5.424   5.957  0.0203  0.2218  2.3477
25593SOL    HW280182   4.017   5.538   5.905  0.9833  0.6760  1.7337
25594SOL     OW80183   6.424   3.536   1.747 -0.4800  0.3161  0.0777
25594SOL    HW180184   6.435   3.447   1.714 -0.4569  0.5784 -0.6353
25594SOL    HW280185   6.414   3.525   1.842  3.7113 -0.1331  0.6583
25595SOL     OW80186   4.695   8.672   2.114  0.2972 -0.0865 -0.1399
25595SOL    HW180187   4.628   8.678   2.045 -0.5164 -0.3218  0.6057
25595SOL    HW280188   4.777   8.694   2.070 -0.3202  0.5643 -0.9991
25596SOL     OW80189  10.402   9.881   9.263  0.0771 -0.3148  0.1913
25596SOL    HW180190  10.384   9.907   9.173  0.1157 -0.6293  0.0913
25596SOL    HW280191  10.338   9.812   9.280 -1.6960  1.4768  1.2571
25597SOL     OW80192   1.101   0.794   4.366  0.0359  0.5798  0.2476
25597SOL    HW180193   1.014   0.785   4.327  0.0472  0.0076  0.3567
25597SOL    HW280194   1.161   0.793   4.291 -0.0634  1.2916  0.1456
25598SOL     OW80195   5.154   9.464   0.486 -0.2475  0.3067  0.3971
25598SOL    HW180196   5.137   9.376   0.453 -0.8159  0.5634  0.0025
25598SOL    HW280197   5.248   9.476   0.475 -0.0752 -0.4549  0.9614
25599SOL     OW80198   7.725   2.863  10.394  0.1776  0.3695  0.1033
25599SOL    HW180199   7.778   2.902  10.463 -1.4823  1.6202  0.7299
25599SOL    HW280200   7.731   2.769  10.409  1.1831  0.5550  0.9336
25600SOL     OW80201   4.339   1.385   2.494 -0.0396 -0.3768 -0.1338
25600SOL    HW180202   4.326   1.291   2.498 -1.5670 -0.1224  2.0464
25600SOL    HW280203   4.260   1.419   2.452  0.4048 -0.0247 -0.7112
25601SOL     OW80204   7.218   3.001   9.545  0.1139  0.0289 -0.6197
25601SOL    HW180205   7.140   3.007   9.490  0.9605  0.8013 -1.7669
25601SOL    HW280206   7.208   2.917   9.590 -0.3785 -0.8644 -2.3077
25602SOL     OW80207   0.473   6.022   4.690  0.4334  0.1492  0.3796
25602SOL    HW180208   0.398   6.051   4.638 -0.1020  0.6139  1.3852
25602SOL    HW280209   0.519   6.102   4.713  1.5970 -0.1755 -0.7316
25603SOL     OW80210   8.745  10.402   1.271 -0.1701  0.7016 -0.7070
25603SOL    HW180211   8.836  10.427   1.291  0.0944  0.0657 -1.0925
25603SOL    HW280212   8.752  10.348   1.193 -0.7119 -0.6749  0.1546
25604SOL     OW80213   3.489   2.648   4.953 -0.4114  0.1710 -0.2971
25604SOL    HW180214   3.486   2.584   5.025 -1.2426 -0.0433 -0.5168
25604SOL    HW280215   3.421   2.620   4.893 -0.9974  1.4333 -0.2536
25605SOL     OW80216  10.335   5.158   1.186  0.4887  1.1706  0.1076
25605SOL    HW180217  10.332   5.092   1.255 -1.3803  2.0539  0.9536
25605SOL    HW280218  10.387   5.118   1.116  0.1940 -0.7946  0.9559
25606SOL     OW80219   7.850   2.649   0.422 -0.0042 -0.4446 -0.0462
25606SOL    HW180220   7.936   2.642   0.380  0.2893 -2.3233  0.7878
25606SOL    HW280221   7.865   2.707   0.497  0.4308 -0.4118 -0.1563
25607SOL     OW80222   2.232   4.451  10.669 -0.3584  0.4075  0.1676
25607SOL    HW180223   2.252   4.499  10.588 -0.5738  0.4296  0.1252
25607SOL    HW280224   2.175   4.380  10.640  0.7975 -0.5012  0.0737
25608SOL     OW80225   2.631   2.892   8.500  0.5352  0.6484 -0.2944
25608SOL    HW180226   2.704   2.883   8.562  0.5749 -0.0371 -0.4325
25608SOL    HW280227   2.627   2.808   8.455  0.8827  1.3245 -1.6481
25609SOL     OW80228   3.626   3.127   8.767  0.1194 -0.4361 -0.6306
25609SOL    HW180229   3.579   3.186   8.708  0.5063  0.0162 -0.4884
25609SOL    HW280230   3.620   3.041   8.724  0.0446 -0.1884 -1.1228
25610SOL     OW80231   2.004   6.634   5.592 -0.2400 -0.1596  0.0228
25610SOL    HW180232   1.984   6.718   5.634  1.1630 -0.0007  0.4073
25610SOL    HW280233   1.998   6.653   5.498 -1.8293 -0.1316  0.0973
25611SOL     OW80234   4.219   1.872   2.939  0.6363 -0.5279  0.0666
25611SOL    HW180235   4.314   1.872   2.940  0.6665 -0.3258  2.1693
25611SOL    HW280236   4.194   1.938   3.003 -0.8860 -1.7474  0.8086
25612SOL     OW80237   8.516   1.096  10.810 -0.1607  0.7931  0.0724
25612SOL    HW180238   8.570   1.159  10.857 -1.0982  1.2143  0.6190
25612SOL    HW280239   8.478   1.041  10.879  0.1057  0.0552 -0.3521
25613SOL     OW80240   1.813   7.136   6.604 -0.0947 -0.4253 -0.0958
25613SOL    HW180241   1.786   7.227   6.594  0.0003 -0.3734  0.1065
25613SOL    HW280242   1.783   7.093   6.524  1.8420  0.2645 -1.2653
25614SOL     OW80243   2.982   9.595   2.670 -0.3693  0.4220  0.7685
25614SOL    HW180244   3.018   9.603   2.759 -1.4418  0.3472  1.2197
25614SOL    HW280245   2.900   9.644   2.673 -0.8185 -0.2720  0.0503
25615SOL     OW80246   0.447   5.085   1.793  0.2550  0.0257  0.8669
25615SOL    HW180247   0.461   5.147   1.865  2.5701 -0.5111  0.9560
25615SOL    HW280248   0.386   5.021   1.829  0.8450  0.1380  2.1351
25616SOL     OW80249   2.139   7.946   1.553 -0.4201  0.1810  0.0222
25616SOL    HW180250   2.132   8.033   1.513 -2.2482  0.7674  1.4698
25616SOL    HW280251   2.158   7.963   1.645 -0.6560 -0.9718  0.3023
25617SOL     OW80252   5.938   1.110   1.294 -0.1909  0.1285  0.7399
25617SOL    HW180253   5.982   1.070   1.219  0.9963 -0.6852  1.8163
25617SOL    HW280254   5.939   1.204   1.275 -0.1974 -0.0834 -0.3872
25618SOL     OW80255   4.834   2.154   4.178 -0.0135  0.3593  1.0480
25618SOL    HW180256   4.791   2.108   4.251  0.7954  0.8389  1.8491
25618SOL    HW280257   4.917   2.108   4.166 -0.6020 -0.3984 -0.3200
25619SOL     OW80258   5.570   5.525   8.524 -0.0655  0.0653 -0.3189
25619SOL    HW180259   5.497   5.464   8.533  1.3709 -1.4638  2.0210
25619SOL    HW280260   5.638   5.475   8.478  0.1117  0.9257 -1.0323
25620SOL     OW80261   9.798   9.421   3.089  0.0546 -0.0917  0.2813
25620SOL    HW180262   9.852   9.394   3.015 -1.6084 -0.3355 -0.8902
25620SOL    HW280263   9.728   9.356   3.092 -0.5210  0.5618  1.3684
25621SOL     OW80264   5.500   2.378   0.752 -0.4100 -0.1161  0.1552
25621SOL    HW180265   5.434   2.332   0.699 -0.6955  1.7489 -1.2065
25621SOL    HW280266   5.582   2.331   0.734 -1.1194 -1.8055  1.0482
25622SOL     OW80267   1.602   8.636   1.162  0.5393  0.1665  0.3749
25622SOL    HW180268   1.565   8.666   1.245 -0.0116 -0.1820  0.2664
25622SOL    HW280269   1.655   8.560   1.185 -2.9779 -2.6657  0.0009
25623SOL     OW80270   5.190   1.950   6.597 -0.4246 -0.0376  0.4719
25623SOL    HW180271   5.266   2.006   6.612  0.2730 -0.9473  0.4557
25623SOL    HW280272   5.135   1.999   6.536  0.7064  0.1476 -0.4193
25624SOL     OW80273   8.618   5.793   8.913  0.6829  0.0991  0.1871
25624SOL    HW180274   8.714   5.803   8.912  0.5083  2.3406  0.8139
25624SOL    HW280275   8.593   5.811   9.003 -0.4427  0.8525 -0.2600
25625SOL     OW80276   9.008   1.003   8.434  0.1483 -0.5333  0.2007
25625SOL    HW180277   8.936   0.981   8.492 -0.2242 -0.0560 -0.0723
25625SOL    HW280278   8.979   1.081   8.387  0.4320 -0.9069 -0.6309
25626SOL     OW80279   4.201   6.062   5.638 -0.3804 -0.3132  0.2977
25626SOL    HW180280   4.243   6.079   5.722 -0.6403 -1.1960  0.6225
25626SOL    HW280281   4.130   6.125   5.633 -1.0655 -0.9752  1.2673
25627SOL     OW80282   1.414   9.550   7.298  0.1789  0.2606  0.7157
25627SOL    HW180283   1.330   9.506   7.308  0.2310 -0.3307 -1.1396
25627SOL    HW280284   1.392   9.643   7.295 -0.1990  0.2323  2.0335
25628SOL     OW80285   7.226   2.019   6.492 -0.1247  0.5052 -0.0451
25628SOL    HW180286   7.219   1.983   6.581 -0.4008 -0.5354 -0.4728
25628SOL    HW280287   7.320   2.018   6.473  0.0171  1.4910  0.5225
25629SOL     OW80288   4.393   8.954   6.986  0.0596  0.5629 -0.0787
25629SOL    HW180289   4.415   8.921   6.898  2.2336  0.3670  0.4826
25629SOL    HW280290   4.377   9.047   6.973 -2.0448  0.1197 -1.0311
25630SOL     OW80291   3.674   0.508   8.502 -0.0606  0.1577  0.4262
25630SOL    HW180292   3.630   0.588   8.474 -3.2391 -1.1402  1.2669
25630SOL    HW280293   3.681   0.516   8.597 -0.8711 -0.7499  0.5760
25631SOL     OW80294  10.560   1.683   0.620 -0.3776 -0.0917  0.1680
25631SOL    HW180295  10.536   1.699   0.711  0.5045  0.6915  0.2841
25631SOL    HW280296  10.614   1.758   0.597 -2.2284  0.7696 -1.6457
25632SOL     OW80297   0.943   3.604   5.503 -0.0655  0.8461 -0.2467
25632SOL    HW180298   0.957   3.529   5.444  0.5418  1.6019 -1.0914
25632SOL    HW280299   1.025   3.654   5.498 -0.4874  1.5985  0.2582
25633SOL     OW80300   0.445   8.580   7.416  0.0129  0.5078 -0.4105
25633SOL    HW180301   0.502   8.621   7.350 -1.6019 -0.8842 -2.8317
25633SOL    HW280302   0.357   8.601   7.387 -0.8242  1.7634  2.6845
25634SOL     OW80303   5.508   3.783   2.142  0.6566 -0.1628 -0.1649
25634SOL    HW180304   5.442   3.803   2.076  1.1313  3.1243  0.2154
25634SOL    HW280305   5.557   3.709   2.105 -2.4790 -2.0541 -0.8972
25635SOL     OW80306   7.605   1.518   7.571 -0.1507  0.3151  0.9163
25635SOL    HW180307   7.537   1.538   7.506  1.8109 -1.6707 -2.0169
25635SOL    HW280308   7.663   1.594   7.569  0.2246  0.0271 -0.2253
25636SOL     OW80309   1.779  10.434  10.828 -0.1812  0.3901  0.0787
25636SOL    HW180310   1.829  10.402  10.902 -1.3311  0.7189  1.0356
25636SOL    HW280311   1.784  10.364  10.763  2.3350  0.8266 -0.3041
25637SOL     OW80312   2.779   8.967   9.412 -0.1660 -0.4595  0.1322
25637SOL    HW180313   2.845   8.898   9.408 -1.0470 -1.3506  0.4793
25637SOL    HW280314   2.695   8.920   9.418 -0.7818  0.6386  0.4520
25638SOL     OW80315   7.430   4.163   3.582 -0.1519  0.7280 -0.0517
25638SOL    HW180316   7.451   4.256   3.574 -0.7645  0.8712 -0.0321
25638SOL    HW280317   7.454   4.127   3.497  0.5659  0.8064  0.1154
25639SOL     OW80318   2.570   7.560   8.779  0.6159  0.4386  0.1800
25639SOL    HW180319   2.653   7.594   8.745  0.5749  0.3213 -0.0325
25639SOL    HW280320   2.564   7.471   8.745 -1.2863  1.5738 -2.7591
25640SOL     OW80321   4.119   3.941   0.174  0.4139 -0.7613 -0.7196
25640SOL    HW180322   4.131   4.036   0.165 -1.9702 -0.4101 -0.8196
25640SOL    HW280323   4.123   3.925   0.268 -0.2454 -0.3687 -0.6188
25641SOL     OW80324   7.300   9.626   2.968  0.0623  0.0566 -0.1829
25641SOL    HW180325   7.345   9.579   2.898 -0.2593  0.8201 -0.9348
25641SOL    HW280326   7.253   9.696   2.922 -0.7156  0.1524  0.7345
25642SOL     OW80327   9.013   5.850   0.092  0.2490  0.4714 -1.2166
25642SOL    HW180328   9.029   5.764   0.052 -1.0865 -0.0561 -0.6576
25642SOL    HW280329   8.925   5.873   0.065 -1.2477 -0.4750  2.2585
25643SOL     OW80330   8.969   0.798   5.783  0.0825  0.5261  0.1809
25643SOL    HW180331   9.030   0.748   5.728  0.3892  0.5170  0.5300
25643SOL    HW280332   8.890   0.743   5.787  0.1915  0.3577  0.0559
25644SOL     OW80333   5.663   1.906   6.914  0.2242 -0.1517  0.2372
25644SOL    HW180334   5.731   1.907   6.846 -0.5936 -1.6299 -0.6375
25644SOL    HW280335   5.709   1.877   6.993  0.9902  0.6943  0.1203
25645SOL     OW80336   1.836   0.968   6.567  0.4317  0.6632  0.3800
25645SOL    HW180337   1.747   0.992   6.595 -0.2891  0.0930 -1.3079
25645SOL    HW280338   1.838   0.990   6.474  1.7958 -0.1409  0.2010
25646SOL     OW80339   3.278   5.777   6.181 -0.1679  0.1304 -0.5121
25646SOL    HW180340   3.259   5.846   6.245  0.8718 -1.1524  1.2462
25646SOL    HW280341   3.365   5.799   6.147  0.0558 -0.1619 -0.1365
25647SOL     OW80342   1.389  10.781   3.032 -0.0544 -0.3869 -0.1668
25647SOL    HW180343   1.357  10.704   3.079 -1.2470 -0.7400 -1.4729
25647SOL    HW280344   1.339  10.854   3.068 -1.6898 -0.7930 -1.4805
25648SOL     OW80345   0.524   2.421   7.779  0.0185 -0.3196  0.1384
25648SOL    HW180346   0.617   2.410   7.797 -0.2315  0.3255  2.2239
25648SOL    HW280347   0.520   2.487   7.710  1.1268  1.4169  1.6349
25649SOL     OW80348   9.793   7.984   3.846 -1.0164 -0.7171  0.2980
25649SOL    HW180349   9.698   7.998   3.850 -0.9336 -0.5241  3.4490
25649SOL    HW280350   9.809   7.907   3.899  0.5106 -1.7714 -1.5490
25650SOL     OW80351   6.607   9.856  10.241  0.1260 -0.4539 -0.0977
25650SOL    HW180352   6.586   9.844  10.149 -1.8100 -0.2193  0.2840
25650SOL    HW280353   6.542   9.804  10.288 -1.4817  2.5029  1.2427
25651SOL     OW80354   7.055   6.598   2.131 -0.6113 -0.2155  0.2532
25651SOL    HW180355   7.036   6.511   2.095  0.5939 -0.4885  0.2348
25651SOL    HW280356   7.141   6.621   2.096 -0.4210  0.4983  1.1310
25652SOL     OW80357   2.688   9.282   1.710  0.4073 -0.1039 -0.2386
25652SOL    HW180358   2.758   9.329   1.664  0.0635  0.1960 -0.4592
25652SOL    HW280359   2.730   9.251   1.791  0.8770 -0.1972 -0.5123
25653SOL     OW80360   7.729  10.905   3.933  0.5996 -0.0112 -0.0092
25653SOL    HW180361   7.768  10.821   3.909 -0.5739 -0.5961  0.0670
25653SOL    HW280362   7.677  10.930   3.858  1.4109  0.9718 -0.2723
25654SOL     OW80363   5.430   7.495  10.905  0.0696 -0.1337  0.0167
25654SOL    HW180364   5.487   7.572  10.898 -1.6616  1.1840 -0.1500
25654SOL    HW280365   5.358   7.524  10.961 -0.4016 -1.7860  0.3047
25655SOL     OW80366   6.900   2.517   8.641  0.3916 -0.1940  0.0850
25655SOL    HW180367   6.974   2.467   8.607  0.7017 -0.2357  0.8015
25655SOL    HW280368   6.936   2.604   8.658  0.1598 -0.0815 -0.0019
25656SOL     OW80369   2.866   9.486   0.807 -0.3734 -0.2309 -0.5261
25656SOL    HW180370   2.876   9.562   0.750  0.2172  1.0797  1.2195
25656SOL    HW280371   2.789   9.441   0.774 -1.5154  1.8420 -0.8713
25657SOL     OW80372   5.969   3.517  10.294  0.6093  0.2479 -0.3104
25657SOL    HW180373   6.015   3.461  10.232  0.0627 -0.4596 -0.0879
25657SOL    HW280374   5.905   3.564  10.240  1.3779  1.0329 -0.5748
25658SOL     OW80375   0.349   4.624   8.922 -0.3846  0.4307 -0.4660
25658SOL    HW180376   0.309   4.672   8.995  0.9576 -0.1602  0.7189
25658SOL    HW280377   0.444   4.634   8.936 -0.0941 -0.8033 -1.3847
25659SOL     OW80378   4.331  10.660   1.288  0.2157 -0.0355  0.0570
25659SOL    HW180379   4.385  10.589   1.251  1.6931 -0.2388  2.3715
25659SOL    HW280380   4.251  10.616   1.316 -0.4908 -0.0560 -1.8459
25660SOL     OW80381   9.732   0.930   7.781  0.0951 -0.4194  0.5698
25660SOL    HW180382   9.759   1.012   7.742  1.0831 -0.3143  1.4417
25660SOL    HW280383   9.763   0.863   7.721 -0.0880 -0.1889  0.2165
25661SOL     OW80384   5.015   5.488  10.479  0.5065 -1.0864 -0.2643
25661SOL    HW180385   5.100   5.525  10.505 -0.2002  1.0105 -0.7713
25661SOL    HW280386   4.979   5.453  10.561  0.0860  1.7948  0.9274
25662SOL     OW80387   7.421   1.311   9.502  0.2777 -0.3803  0.4853
25662SOL    HW180388   7.477   1.234   9.504 -1.2736 -1.5456  1.0997
25662SOL    HW280389   7.389   1.314   9.412 -0.1203 -0.8244  0.6053
25663SOL     OW80390   2.681   1.749   5.904  0.1124  0.0899 -0.4904
25663SOL    HW180391   2.776   1.748   5.916  0.0203 -1.7011  0.2933
25663SOL    HW280392   2.653   1.827   5.952  1.2301  1.1423 -1.4509
25664SOL     OW80393   4.792   2.457   1.105  0.5872 -0.3984  0.1385
25664SOL    HW180394   4.877   2.483   1.140  0.7807 -0.5832 -0.1922
25664SOL    HW280395   4.812   2.412   1.023  0.0175  1.8780 -1.3350
25665SOL     OW80396   8.542   3.582   8.536 -0.4867 -0.0259  0.1206
25665SOL    HW180397   8.614   3.520   8.541 -0.9939 -0.7361 -0.8642
25665SOL    HW280398   8.566   3.642   8.465 -0.5687  0.1243  0.2195
25666SOL     OW80399   0.564   8.101   6.398 -0.0565 -0.1410  0.5111
25666SOL    HW180400   0.563   8.050   6.318  0.8264  1.8426 -0.8362
25666SOL    HW280401   0.496   8.168   6.385  1.6494  1.6551  0.3511
25667SOL     OW80402  10.489   8.663   5.131  0.0049  0.1510  0.1700
25667SOL    HW180403  10.485   8.750   5.091  0.7483 -0.0099 -0.2599
25667SOL    HW280404  10.487   8.602   5.058  1.9916 -0.1331  0.3172
25668SOL     OW80405   9.119   6.870  10.695  0.2367 -0.3950  0.2506
25668SOL    HW180406   9.134   6.811  10.621  1.5230  0.9178 -0.5727
25668SOL    HW280407   9.058   6.936  10.661 -0.1239 -0.4627  0.7470
25669SOL     OW80408   3.728   6.681   9.508 -0.1176  0.2808  0.5670
25669SOL    HW180409   3.713   6.685   9.414  0.1844 -2.4192  0.3212
25669SOL    HW280410   3.718   6.771   9.538 -0.4961  1.1659 -1.9878
25670SOL     OW80411   6.143   5.839   4.540  0.2249 -0.1760  0.3494
25670SOL    HW180412   6.176   5.761   4.496  0.9021 -0.0744  0.6494
25670SOL    HW280413   6.088   5.806   4.611  0.0511 -0.3661  0.1248
25671SOL     OW80414   8.381   6.184   3.649  0.0498  0.3317 -0.6542
25671SOL    HW180415   8.453   6.124   3.628  1.5757  1.8236  0.1070
25671SOL    HW280416   8.322   6.177   3.575  1.2298 -0.5699 -1.5478
25672SOL     OW80417   8.152  10.008   8.073 -0.1620 -0.0926  0.0205
25672SOL    HW180418   8.211   9.933   8.073  0.6876  0.4797  2.4843
25672SOL    HW280419   8.064   9.970   8.068  0.2767 -1.2195  0.6527
25673SOL     OW80420   1.371   3.248   9.208 -0.5963 -0.3359  0.3158
25673SOL    HW180421   1.332   3.314   9.152 -0.2133  0.1707  0.6352
25673SOL    HW280422   1.297   3.206   9.252 -0.7764  0.8629  1.1914
25674SOL     OW80423   4.575   5.609   1.905  0.0912  0.7039 -0.2374
25674SOL    HW180424   4.589   5.610   1.810 -0.8716 -0.4804 -0.4186
25674SOL    HW280425   4.601   5.696   1.934  0.6853  0.9924 -1.5453
25675SOL     OW80426   7.652   0.039   1.553  0.0727  0.3196 -0.4064
25675SOL    HW180427   7.713  -0.028   1.522  1.4869  1.2247  0.3285
25675SOL    HW280428   7.708   0.108   1.588 -1.3813  1.3397 -0.0086
25676SOL     OW80429   8.601   6.048   5.558  0.3159  0.0671 -0.5471
25676SOL    HW180430   8.668   5.992   5.519  0.7512  1.6573 -2.1798
25676SOL    HW280431   8.591   6.121   5.497 -2.3015  0.3275  0.0767
25677SOL     OW80432   6.672   9.820   0.989  0.4069  0.3398 -0.1411
25677SOL    HW180433   6.585   9.814   1.028  0.0495  0.3351 -0.9164
25677SOL    HW280434   6.680   9.912   0.964 -0.4150 -0.1273 -2.3463
25678SOL     OW80435   5.836   2.272   3.323  0.6079  0.0817  0.1469
25678SOL    HW180436   5.909   2.230   3.278  0.0369 -1.4157  0.5761
25678SOL    HW280437   5.763   2.211   3.314  0.2291  0.1323  2.2908
25679SOL     OW80438   1.030   0.307   2.914 -0.2715  0.0331  0.1836
25679SOL    HW180439   1.121   0.334   2.925 -0.2949 -0.2717  1.3397
25679SOL    HW280440   1.022   0.282   2.822  0.3410  1.7518 -0.3604
25680SOL     OW80441   6.074  10.692  10.772  0.2206  0.2103 -0.2600
25680SOL    HW180442   6.075  10.698  10.677  1.8823 -0.7078 -0.3356
25680SOL    HW280443   6.131  10.617  10.793 -1.5286 -0.7571  1.3949
25681SOL     OW80444   0.424   4.062   2.300  0.7197  0.4076  0.1368
25681SOL    HW180445   0.414   4.143   2.250  0.6278  0.9576  1.0285
25681SOL    HW280446   0.338   4.047   2.340  1.2603  0.9686  1.5796
25682SOL     OW80447   2.713   1.085  10.134 -0.3681  0.5320 -0.3096
25682SOL    HW180448   2.731   1.018  10.068 -2.5852  1.4518 -1.9861
25682SOL    HW280449   2.751   1.051  10.215  0.7325 -1.5621 -1.6362
25683SOL     OW80450   1.623   3.467   7.327  0.1712 -0.7963 -0.1433
25683SOL    HW180451   1.573   3.449   7.247 -0.4290  0.5450 -0.0797
25683SOL    HW280452   1.706   3.504   7.296 -0.3958  0.5128 -0.1336
25684SOL     OW80453   5.119   0.661   1.957  0.3516  0.2421 -0.0294
25684SOL    HW180454   5.128   0.746   1.914  1.2865 -0.6574 -1.7162
25684SOL    HW280455   5.202   0.650   2.005  0.0948  0.4196  0.4581
25685SOL     OW80456   2.390   7.099   8.274 -0.0014 -0.3530 -0.5423
25685SOL    HW180457   2.355   7.132   8.192 -0.6224  2.1880  0.6512
25685SOL    HW280458   2.330   7.029   8.299 -0.8092  0.0210 -1.3995
25686SOL     OW80459   1.538   5.006   3.519 -0.0175  0.2953  0.1437
25686SOL    HW180460   1.599   4.939   3.550  2.7397  2.5710  0.0502
25686SOL    HW280461   1.512   5.053   3.598  0.3500  0.8983 -0.0909
25687SOL     OW80462   9.856   8.627  10.462  0.1722 -1.1605 -0.3295
25687SOL    HW180463   9.864   8.671  10.377  0.1560 -2.7421 -1.1843
25687SOL    HW280464   9.762   8.627  10.481  0.3260  1.0937  0.7839
25688SOL     OW80465   6.856   2.476   7.041  0.5496  0.1099 -0.6868
25688SOL    HW180466   6.765   2.449   7.032  0.0822  1.4425 -0.1973
25688SOL    HW280467   6.899   2.403   7.086  0.2043 -1.4121 -2.6811
25689SOL     OW80468   2.125  10.091   8.923  0.4132 -0.0234 -0.1397
25689SOL    HW180469   2.210  10.112   8.960 -0.1520 -0.4231  1.4530
25689SOL    HW280470   2.099  10.170   8.876  0.2451  1.3406  2.1012
25690SOL     OW80471   6.157   5.833   2.939 -0.1004 -0.7734 -0.4207
25690SOL    HW180472   6.248   5.862   2.951 -0.2781 -0.2263 -0.3881
25690SOL    HW280473   6.138   5.782   3.018  0.0813 -0.6435 -0.2913
25691SOL     OW80474   8.754   7.481   7.942 -0.1418 -0.4674 -0.3349
25691SOL    HW180475   8.815   7.461   7.871 -1.1893  0.2396 -1.4737
25691SOL    HW280476   8.739   7.575   7.934 -0.6336 -0.4624  0.5450
25692SOL     OW80477   5.325   9.885   2.625  0.7902  0.4280  0.4825
25692SOL    HW180478   5.308   9.888   2.531 -0.0611 -1.8805  0.5119
25692SOL    HW280479   5.300   9.972   2.657  1.9698  1.5552 -1.5231
25693SOL     OW80480  10.482   7.788   9.794  0.0464  0.2202  0.0576
25693SOL    HW180481  10.423   7.786   9.869 -1.7891 -1.0872 -1.3266
25693SOL    HW280482  10.464   7.871   9.750  0.9933  0.9040  0.9366
25694SOL     OW80483   6.934   6.073   3.842  0.1064 -0.1703  0.0847
25694SOL    HW180484   6.908   5.985   3.870 -0.4827 -0.3607 -1.0076
25694SOL    HW280485   6.984   6.107   3.916  2.8882 -2.5142 -0.5041
25695SOL     OW80486  10.772   6.005   4.654 -0.0632 -0.3732 -0.3678
25695SOL    HW180487  10.840   6.072   4.644  0.1997 -0.4234  0.9639
25695SOL    HW280488  10.713   6.021   4.581  1.4303 -0.4093 -1.6501
25696SOL     OW80489   4.396   1.130   4.199  0.0013 -0.0616 -0.9711
25696SOL    HW180490   4.391   1.107   4.106  0.2748 -0.5857 -0.8596
25696SOL    HW280491   4.321   1.087   4.239  1.2726 -1.9652 -0.5254
25697SOL     OW80492  10.312   0.859   1.580  0.2083 -0.3944 -0.6190
25697SOL    HW180493  10.282   0.817   1.499 -1.6639  1.8026 -1.1957
25697SOL    HW280494  10.272   0.807   1.650  0.6104 -1.4357 -1.1400
25698SOL     OW80495   0.021  10.661   0.438  0.7846  0.2924 -0.3570
25698SOL    HW180496   0.048  10.651   0.529 -1.5366  0.0074  0.3692
25698SOL    HW280497   0.075  10.732   0.403  1.1927  0.9121  1.4650
25699SOL     OW80498   6.116   5.230   8.466 -0.1591 -0.2511  0.0145
25699SOL    HW180499   6.146   5.153   8.514  2.5905  2.6949  3.5930
25699SOL    HW280500   6.182   5.242   8.398 -0.0907 -0.5414  0.0255
25700SOL     OW80501   5.219   5.942   4.043  0.2888  0.2736  0.3622
25700SOL    HW180502   5.247   5.873   3.982  0.5583  1.5298 -0.9942
25700SOL    HW280503   5.267   5.923   4.123  0.1881 -1.2421  0.1041
25701SOL     OW80504   2.326   4.608   0.692 -0.2915  0.5985 -0.2366
25701SOL    HW180505   2.298   4.572   0.776 -2.8811  1.7515 -0.5306
25701SOL    HW280506   2.353   4.532   0.641  0.3862 -0.2129  1.2771
25702SOL     OW80507   7.830   9.770   2.842 -0.3024  0.3305 -0.6607
25702SOL    HW180508   7.855   9.745   2.753 -0.3989  0.5139 -0.7373
25702SOL    HW280509   7.736   9.756   2.846 -0.3742  0.7972 -0.7373
25703SOL     OW80510   7.845   7.949   1.414  0.4847 -0.3918 -0.0760
25703SOL    HW180511   7.907   7.974   1.345 -0.9744  0.2515 -1.2032
25703SOL    HW280512   7.900   7.909   1.482  2.3131  1.3378 -0.4343
25704SOL     OW80513   5.076   4.913  10.113 -0.0947 -0.0656  0.5296
25704SOL    HW180514   5.099   5.001  10.083  0.1648 -1.0223 -2.3836
25704SOL    HW280515   5.102   4.911  10.205  2.3331  2.0721 -0.0141
25705SOL     OW80516  10.853   2.457  10.692 -0.5946 -0.8214  0.2753
25705SOL    HW180517  10.824   2.534  10.741  0.7132 -0.2421  0.1743
25705SOL    HW280518  10.920   2.417  10.748 -0.4583 -1.2337 -0.1792
25706SOL     OW80519   1.182   4.821   2.243  0.7389  0.4323 -0.3991
25706SOL    HW180520   1.249   4.758   2.270 -1.0799 -1.2422  0.4469
25706SOL    HW280521   1.126   4.831   2.320 -1.7878 -0.6869 -1.9554
25707SOL     OW80522   1.472   6.720   4.151  0.3196  0.1440  0.4174
25707SOL    HW180523   1.443   6.769   4.074  1.1835  0.2414  0.1410
25707SOL    HW280524   1.523   6.647   4.115  3.4315  1.8868  0.8953
25708SOL     OW80525   2.473   4.030   2.565  0.2647 -0.0986  0.0024
25708SOL    HW180526   2.525   4.086   2.508  1.2746  0.2686  1.2431
25708SOL    HW280527   2.511   3.943   2.555 -0.5087 -0.3484 -0.9737
25709SOL     OW80528   9.674  10.611   3.369  0.0034  0.4391  0.1784
25709SOL    HW180529   9.722  10.691   3.347  0.1187  0.3693  0.1734
25709SOL    HW280530   9.622  10.634   3.446  0.5791  0.3224  0.6166
25710SOL     OW80531   6.320   6.981   9.593 -0.2367  0.1747 -0.0680
25710SOL    HW180532   6.371   6.900   9.598  1.4167  1.2017  0.7347
25710SOL    HW280533   6.284   6.993   9.681  0.5705  0.9223  0.1777
25711SOL     OW80534   1.744   3.495   9.755 -0.1691 -0.1728 -0.0866
25711SOL    HW180535   1.822   3.526   9.710 -0.0235 -0.4184 -0.0068
25711SOL    HW280536   1.756   3.521   9.846 -0.5055  0.4029 -0.2051
25712SOL     OW80537   0.290   9.093   3.400 -0.2990 -0.0713  0.3727
25712SOL    HW180538   0.323   9.096   3.310  0.1732 -2.4010  0.4193
25712SOL    HW280539   0.244   9.010   3.407 -0.5251  0.1614  2.2360
25713SOL     OW80540   8.521   4.745   1.913 -0.3032  0.9167 -0.0948
25713SOL    HW180541   8.451   4.757   1.977 -0.5830 -1.4423  0.1412
25713SOL    HW280542   8.582   4.683   1.955 -0.4514 -0.6386 -2.0099
25714SOL     OW80543   9.908   2.598   3.960  0.1777 -0.1751  0.0692
25714SOL    HW180544   9.831   2.626   3.910  2.1264 -0.2088 -3.2536
25714SOL    HW280545   9.914   2.660   4.032 -1.8147  1.0295 -0.7299
25715SOL     OW80546   9.566   0.307   7.429  0.3470  0.3417 -0.1622
25715SOL    HW180547   9.655   0.271   7.429  0.0499 -0.4425 -1.1442
25715SOL    HW280548   9.565   0.367   7.503  2.1705  1.5429 -1.0280
25716SOL     OW80549   0.967  10.018   2.181  0.4381 -0.1908  0.3010
25716SOL    HW180550   1.003  10.043   2.096 -3.0212  3.8650 -0.2965
25716SOL    HW280551   0.886   9.972   2.161 -1.4002  2.4489  1.1830
25717SOL     OW80552   3.743   5.996   8.254  0.0887  0.5950 -0.1775
25717SOL    HW180553   3.776   6.047   8.328 -1.3131 -0.4778  1.2478
25717SOL    HW280554   3.821   5.978   8.201  0.9384  2.4280  0.3447
25718SOL     OW80555   9.642   9.534   7.796 -0.1859 -0.1410 -0.1010
25718SOL    HW180556   9.669   9.620   7.827  0.7212  0.6587 -2.7809
25718SOL    HW280557   9.718   9.502   7.747 -0.9055 -1.9857 -0.0842
25719SOL     OW80558  10.566   4.879   4.860  0.3932 -0.1795 -0.3763
25719SOL    HW180559  10.477   4.865   4.892  1.4892 -0.3400  2.9880
25719SOL    HW280560  10.622   4.856   4.934  3.1876  1.4414 -1.8162
25720SOL     OW80561   0.812   8.541   6.634  0.3421 -0.5123 -0.2523
25720SOL    HW180562   0.727   8.501   6.620 -0.6021  0.4396  2.2630
25720SOL    HW280563   0.796   8.612   6.696  2.6059  1.1565 -1.4047
25721SOL     OW80564   2.528   8.144   8.511 -0.4149  0.5177 -0.3161
25721SOL    HW180565   2.434   8.126   8.504 -0.7811  1.7436  0.9912
25721SOL    HW280566   2.552   8.109   8.597  0.1236  1.0312 -0.2558
25722SOL     OW80567   6.975   0.316   7.137 -0.0627  0.0853 -0.0716
25722SOL    HW180568   7.000   0.375   7.208  1.4303 -0.1635 -0.3655
25722SOL    HW280569   7.057   0.282   7.103 -0.8663 -2.2456  0.1274
25723SOL     OW80570  10.193   2.261   7.907 -0.6105 -0.7341  0.1985
25723SOL    HW180571  10.228   2.179   7.942 -2.0304 -1.8659 -0.8814
25723SOL    HW280572  10.101   2.242   7.890 -0.4763  0.3794 -2.1626
25724SOL     OW80573  10.385   8.876   6.757  0.6550  0.4983  0.4483
25724SOL    HW180574  10.331   8.855   6.833 -0.5136 -1.1175 -0.7463
25724SOL    HW280575  10.341   8.950   6.715  0.7684  0.7816  0.8286
25725SOL     OW80576   9.019   9.203   8.461 -0.4592 -0.3864 -0.4400
25725SOL    HW180577   8.958   9.270   8.430 -0.2703 -0.8347 -1.8712
25725SOL    HW280578   8.964   9.138   8.505 -0.7997  0.0510 -0.2159
25726SOL     OW80579   2.328   6.979   6.681  0.4662  0.4006  0.4922
25726SOL    HW180580   2.243   6.982   6.723 -0.4651 -2.3803 -0.9411
25726SOL    HW280581   2.391   6.985   6.753 -0.9065  1.2859  1.6844
25727SOL     OW80582   4.155   3.498   3.049  0.0809 -0.7752 -0.1340
25727SOL    HW180583   4.126   3.509   3.139  1.4553 -0.4770  0.2927
25727SOL    HW280584   4.084   3.450   3.006  0.4860 -3.2468  1.7561
25728SOL     OW80585   1.907   3.329   4.934 -0.0191  0.4302 -0.1256
25728SOL    HW180586   1.986   3.360   4.889 -0.0354  0.5012 -0.1047
25728SOL    HW280587   1.847   3.307   4.863  0.3572 -0.5081 -0.1649
25729SOL     OW80588   7.425   2.075   2.279  0.2154 -0.1045  0.2091
25729SOL    HW180589   7.417   2.017   2.354  1.0564 -0.3147  0.1561
25729SOL    HW280590   7.456   2.018   2.208  0.5743  0.3080  0.0287
25730SOL     OW80591   5.303   4.290   4.413 -0.3615 -0.4888  0.2563
25730SOL    HW180592   5.349   4.335   4.484  0.1592 -1.7104  0.7220
25730SOL    HW280593   5.337   4.201   4.415 -2.3667 -1.2980  0.2655
25731SOL     OW80594   1.638   4.777   7.046  0.2404  0.3977 -0.1493
25731SOL    HW180595   1.690   4.845   7.004 -0.8447 -0.0112 -2.3422
25731SOL    HW280596   1.700   4.705   7.061  0.3280 -0.3789 -3.3894
25732SOL     OW80597   3.482   6.713   8.291  0.1436 -0.3175 -0.3321
25732SOL    HW180598   3.483   6.631   8.241 -0.8141 -0.6129  0.1048
25732SOL    HW280599   3.415   6.699   8.358  0.4545  0.5763  0.1796
25733SOL     OW80600  10.520   6.834   6.836 -0.1827 -0.4672  0.3379
25733SOL    HW180601  10.441   6.885   6.853  0.4576  1.0691 -0.9953
25733SOL    HW280602  10.561   6.822   6.922 -0.8800  0.4032  0.8011
25734SOL     OW80603   4.587   1.241  10.710 -0.5886 -0.4986 -0.3463
25734SOL    HW180604   4.501   1.202  10.724 -0.9855 -0.3438 -2.1032
25734SOL    HW280605   4.617   1.265  10.798 -2.0882 -1.0553  0.3576
25735SOL     OW80606   8.136   3.306   4.410  0.0783  0.5716  0.2237
25735SOL    HW180607   8.219   3.265   4.434  0.2213  1.1818  0.8231
25735SOL    HW280608   8.080   3.234   4.383  0.8979  0.1796 -0.4808
25736SOL     OW80609   4.843   8.617   3.354 -0.4953  0.4906  0.2540
25736SOL    HW180610   4.776   8.552   3.333 -1.9223  2.2972 -1.1433
25736SOL    HW280611   4.918   8.593   3.300 -1.4563  0.7117 -1.2116
25737SOL     OW80612   7.687   1.145   8.017 -0.1080  0.0975  0.6555
25737SOL    HW180613   7.623   1.209   7.986 -1.0521 -2.5121 -3.6089
25737SOL    HW280614   7.769   1.193   8.021 -1.0724  2.0042 -0.6669
25738SOL     OW80615   2.153   7.497   6.515  0.2035 -0.1613 -0.0493
25738SOL    HW180616   2.130   7.420   6.566 -1.3110  0.9348  1.0398
25738SOL    HW280617   2.069   7.540   6.499  1.1856  2.7123  1.8030
25739SOL     OW80618   3.824   0.915   2.231 -0.4396  0.5144  0.4891
25739SOL    HW180619   3.829   0.844   2.167 -1.3681  0.3593  0.5750
25739SOL    HW280620   3.783   0.987   2.184 -0.6344  0.5789  0.7589
25740SOL     OW80621  10.191   1.151   4.010 -0.2699  0.4098  0.3152
25740SOL    HW180622  10.191   1.149   3.914  0.0697 -2.9441  0.2432
25740SOL    HW280623  10.251   1.080   4.035 -2.4603 -0.7026  2.9519
25741SOL     OW80624   4.046   0.627   2.302  0.2769  0.1041  0.3290
25741SOL    HW180625   3.973   0.668   2.349 -1.0908 -1.6491 -0.1297
25741SOL    HW280626   4.038   0.534   2.322  0.8549 -0.4429 -1.7461
25742SOL     OW80627   9.926   0.914   3.864  0.1947 -0.1242  0.3440
25742SOL    HW180628   9.987   0.859   3.815 -0.5578 -0.0516 -0.7086
25742SOL    HW280629   9.845   0.913   3.812 -0.7212 -0.2432  1.7225
25743SOL     OW80630   6.791  10.052   2.668 -0.0313 -0.1211  0.2293
25743SOL    HW180631   6.771  10.000   2.589 -0.3819 -0.6804  0.6757
25743SOL    HW280632   6.705  10.067   2.708  0.1919 -0.2549  0.7571
25744SOL     OW80633   1.859   7.377   0.301 -0.1873  0.3231  0.5018
25744SOL    HW180634   1.945   7.341   0.326  0.5885  2.8230  1.7861
25744SOL    HW280635   1.880   7.446   0.238 -1.2975  0.7369  0.5742
25745SOL     OW80636   0.927   7.223   3.628  0.3198  0.3501  0.3845
25745SOL    HW180637   0.854   7.222   3.690 -0.1306  1.0174 -0.1157
25745SOL    HW280638   0.910   7.149   3.569  0.9671 -0.5375  1.2842
25746SOL     OW80639   7.969   2.260  10.106  0.3537 -0.2671  0.2111
25746SOL    HW180640   7.894   2.279  10.162 -0.4787 -2.1255 -0.1970
25746SOL    HW280641   8.020   2.196  10.155  1.1494  0.2202  0.0390
25747SOL     OW80642  10.703  10.332   1.521 -0.3272 -0.8321  0.0565
25747SOL    HW180643  10.785  10.282   1.515 -0.2773 -0.7682  0.2272
25747SOL    HW280644  10.723  10.405   1.579 -0.8105 -1.4136  0.9748
25748SOL     OW80645   8.521   5.601   0.196 -0.4454  0.0641  0.1927
25748SOL    HW180646   8.515   5.680   0.142 -0.5994  0.4630  0.7833
25748SOL    HW280647   8.437   5.556   0.181 -0.8487  0.6112  0.7622
25749SOL     OW80648   6.453   5.408   8.489 -0.5756 -0.0696  0.0127
25749SOL    HW180649   6.397   5.359   8.549  0.3243 -0.3492  0.6486
25749SOL    HW280650   6.444   5.363   8.405 -1.1426 -0.2271  0.1518
25750SOL     OW80651   5.762   2.397  10.710 -0.1108  0.3757  0.0917
25750SOL    HW180652   5.692   2.361  10.764 -0.7510 -0.2190 -1.0986
25750SOL    HW280653   5.732   2.384  10.620 -0.3789  3.8216 -0.4606
25751SOL     OW80654   6.019   6.698   2.020 -0.2773 -0.1183  0.0005
25751SOL    HW180655   6.113   6.704   2.041 -0.6154  0.2254  1.5125
25751SOL    HW280656   5.975   6.716   2.103 -1.6781 -1.5125 -0.4075
25752SOL     OW80657   3.789   2.726   8.471  0.0288  0.0021  0.3550
25752SOL    HW180658   3.875   2.682   8.470  0.0198 -0.0407 -1.0226
25752SOL    HW280659   3.751   2.706   8.385 -0.8661  0.9900  0.4960
25753SOL     OW80660   9.405   5.610   4.817 -0.0996 -0.1721  0.1668
25753SOL    HW180661   9.315   5.580   4.805 -0.2527  0.5752 -0.6246
25753SOL    HW280662   9.458   5.549   4.766 -0.2724  0.0787 -0.3135
25754SOL     OW80663   2.042   6.669   1.558  0.1613  0.0154  0.2195
25754SOL    HW180664   2.137   6.660   1.559  0.2387  0.6840 -0.3370
25754SOL    HW280665   2.025   6.752   1.603 -0.2533 -0.7252  1.4843
25755SOL     OW80666   7.379   5.247   2.878  0.1146  0.0132  0.4437
25755SOL    HW180667   7.433   5.317   2.913  4.1967 -1.6439 -1.9122
25755SOL    HW280668   7.398   5.245   2.785 -3.8620 -1.0594 -0.5625
25756SOL     OW80669   6.445   5.632   4.511  0.5677  0.0591  0.0823
25756SOL    HW180670   6.481   5.643   4.423 -0.9990 -0.4765 -0.6754
25756SOL    HW280671   6.355   5.604   4.496  1.0906 -3.0407  1.8214
25757SOL     OW80672   7.851   8.187   3.961  0.1205  0.0994 -0.3188
25757SOL    HW180673   7.908   8.260   3.987 -0.0755  0.0294  0.3013
25757SOL    HW280674   7.891   8.154   3.880  1.2835 -0.3025  0.3979
25758SOL     OW80675   7.694   8.366   4.202  0.0104  0.1181 -0.1401
25758SOL    HW180676   7.690   8.440   4.142 -1.2028  0.8176  0.7577
25758SOL    HW280677   7.785   8.337   4.199  0.1423  0.6034 -1.7271
25759SOL     OW80678   1.205   7.502   1.145  0.4201 -0.1747 -0.4316
25759SOL    HW180679   1.167   7.513   1.232  0.9101  0.9432 -0.3397
25759SOL    HW280680   1.290   7.546   1.150  0.2082  0.4128 -1.6341
25760SOL     OW80681   3.686   0.903   4.109  0.0632 -0.4498  0.1078
25760SOL    HW180682   3.764   0.849   4.125  0.0606 -0.2998  0.6333
25760SOL    HW280683   3.709   0.989   4.142 -0.6509 -0.6305  1.1082
25761SOL     OW80684   6.373   8.336   0.109  0.8016  0.3568  0.4317
25761SOL    HW180685   6.439   8.286   0.062 -2.0829 -2.1425 -1.2643
25761SOL    HW280686   6.310   8.362   0.042 -0.7251  1.3805  2.1755
25762SOL     OW80687   0.382   2.051   1.736  0.3215 -0.4593  0.6798
25762SOL    HW180688   0.364   1.961   1.761 -0.3066 -0.5192  0.0490
25762SOL    HW280689   0.461   2.074   1.784 -0.5586 -0.7150  2.3384
25763SOL     OW80690   9.519   4.432   2.254  0.4506  0.3813  0.1295
25763SOL    HW180691   9.585   4.376   2.214  0.3622  0.7483 -0.5355
25763SOL    HW280692   9.562   4.469   2.331  0.8055  0.1200  0.0601
25764SOL     OW80693  10.246   3.853   1.536 -0.1085 -0.1009 -0.0053
25764SOL    HW180694  10.273   3.933   1.492  1.5273  0.0018  1.1102
25764SOL    HW280695  10.177   3.881   1.597 -2.0825 -0.1825 -2.0609
25765SOL     OW80696   3.910   3.062   5.194 -1.1284 -0.2050 -0.5296
25765SOL    HW180697   3.944   3.059   5.104 -0.3289 -1.3803 -0.2231
25765SOL    HW280698   3.879   2.972   5.210 -0.9281 -0.1041  0.4836
25766SOL     OW80699  10.251   8.031   8.885 -0.6299 -0.1586  0.4213
25766SOL    HW180700  10.308   8.108   8.892 -0.9345  0.1634 -0.5220
25766SOL    HW280701  10.184   8.057   8.822 -1.6265 -0.6534  1.2478
25767SOL     OW80702   9.902  10.063   3.513  0.2081  0.2331  0.2544
25767SOL    HW180703   9.831  10.063   3.448  1.5716  1.5400 -1.3201
25767SOL    HW280704   9.943   9.977   3.505  1.6447  1.0716 -2.1595
25768SOL     OW80705   0.230  10.688   7.510 -0.1721  0.0417 -0.1616
25768SOL    HW180706   0.278  10.610   7.480 -0.3123  0.4559 -1.5571
25768SOL    HW280707   0.298  10.748   7.540  0.0425 -0.1202 -0.3201
25769SOL     OW80708   0.733   1.598   1.939 -0.6158  0.1872  0.5542
25769SOL    HW180709   0.768   1.513   1.966  1.1981  0.7737  0.2320
25769SOL    HW280710   0.810   1.648   1.913 -1.6815  1.7960  0.3276
25770SOL     OW80711   0.639   8.221   4.041 -0.3613  0.0843 -0.3860
25770SOL    HW180712   0.681   8.159   3.982 -2.2140 -0.0853 -1.6218
25770SOL    HW280713   0.580   8.168   4.094  0.1190  0.4549  0.5628
25771SOL     OW80714   6.003   9.104   1.892 -0.5214 -0.2384 -0.0062
25771SOL    HW180715   6.005   9.154   1.811 -1.1022 -0.4524 -0.1612
25771SOL    HW280716   6.093   9.075   1.906 -0.6414 -1.2971 -1.2671
25772SOL     OW80717   6.899   3.674   9.307  0.0258 -0.0426 -0.2125
25772SOL    HW180718   6.978   3.687   9.359 -0.1623 -0.4387  0.1843
25772SOL    HW280719   6.918   3.715   9.223 -0.1067  1.6806  0.5527
25773SOL     OW80720   8.895   2.783   9.035  0.1147 -0.1367  0.0572
25773SOL    HW180721   8.904   2.690   9.056 -0.8698 -0.6371 -1.5542
25773SOL    HW280722   8.947   2.828   9.102 -0.4571 -1.7488  1.6526
25774SOL     OW80723   9.441   8.716   9.544  0.1171  0.0774  0.2739
25774SOL    HW180724   9.420   8.694   9.454  0.3864  1.9510 -0.2939
25774SOL    HW280725   9.528   8.677   9.559 -0.2543 -0.8744 -0.0117
25775SOL     OW80726   2.932   9.958   6.556  0.6991 -0.3537  0.4860
25775SOL    HW180727   2.963  10.044   6.584  2.4359 -0.9414  0.5125
25775SOL    HW280728   2.871   9.931   6.624 -2.5854  2.2001 -1.1345
25776SOL     OW80729  10.484   3.475   3.304 -0.1819 -0.2205  0.0882
25776SOL    HW180730  10.492   3.421   3.383  0.1604  1.7764  1.4727
25776SOL    HW280731  10.390   3.488   3.294 -0.2631  4.2915  3.7230
25777SOL     OW80732   2.771   6.809   8.477 -0.4646  0.0260 -0.5993
25777SOL    HW180733   2.835   6.802   8.406 -1.1618  0.5848 -1.2982
25777SOL    HW280734   2.715   6.882   8.451 -1.3207 -0.3876  0.0549
25778SOL     OW80735   7.994   0.369   7.454  0.5056  0.1471  0.0203
25778SOL    HW180736   8.044   0.288   7.459  0.9705  0.3964 -0.4530
25778SOL    HW280737   7.939   0.358   7.376  0.8425  0.4351 -0.2588
25779SOL     OW80738   8.189   6.510   8.186  0.2385  0.0124  0.0770
25779SOL    HW180739   8.112   6.518   8.242 -0.0597 -1.7477 -0.0251
25779SOL    HW280740   8.196   6.417   8.167  0.1909  0.5229 -3.0410
25780SOL     OW80741   7.519   6.493   0.504  0.4049  0.3327  0.2654
25780SOL    HW180742   7.424   6.504   0.494  0.3594  1.0046  1.3846
25780SOL    HW280743   7.538   6.526   0.591  1.3972 -1.5490  0.8165
25781SOL     OW80744   2.679   7.043   5.739 -0.0968  0.4988  0.4974
25781SOL    HW180745   2.647   7.051   5.649 -2.0240 -0.6658  1.0276
25781SOL    HW280746   2.601   7.022   5.791  0.9713  1.1506  2.4549
25782SOL     OW80747   7.906   0.625  10.077 -0.0030  0.0940 -0.1660
25782SOL    HW180748   7.943   0.702  10.033 -0.3364  0.3488 -0.0018
25782SOL    HW280749   7.889   0.654  10.167 -0.7890  0.0453 -0.2907
25783SOL     OW80750   4.172   3.265   5.254 -0.0086 -0.0678  0.7650
25783SOL    HW180751   4.099   3.204   5.251 -1.1459  1.2881 -0.7644
25783SOL    HW280752   4.153   3.321   5.329 -0.2944 -0.0144  0.6532
25784SOL     OW80753   4.100   7.196   8.798 -0.6918 -0.2887  0.4598
25784SOL    HW180754   4.093   7.225   8.889  1.8841 -0.6608  0.8304
25784SOL    HW280755   4.035   7.250   8.751 -2.1106 -0.1369  2.4746
25785SOL     OW80756   0.303   3.916   3.228 -0.0806 -0.3952 -0.0494
25785SOL    HW180757   0.361   3.961   3.168  0.9939 -0.2257  1.0818
25785SOL    HW280758   0.219   3.961   3.218  0.3009  0.1757 -0.7969
25786SOL     OW80759   9.638   5.752   7.891  0.3220 -0.4917  0.0185
25786SOL    HW180760   9.712   5.732   7.948  0.3060 -1.7888 -0.3860
25786SOL    HW280761   9.566   5.700   7.927 -0.5166  1.0397  0.6375
25787SOL     OW80762  10.117  10.039   0.983 -0.8525  0.1935 -0.0354
25787SOL    HW180763  10.205  10.074   0.997 -0.9105  1.3518 -2.1314
25787SOL    HW280764  10.130   9.946   0.966 -0.4613 -0.4875  3.3259
25788SOL     OW80765   1.894   2.529   7.122 -0.1477  0.0283  0.0236
25788SOL    HW180766   1.990   2.533   7.124 -0.0305 -0.7177 -1.7279
25788SOL    HW280767   1.873   2.511   7.030 -2.0057  0.7568  0.2611
25789SOL     OW80768   3.576   6.881   3.283  0.2054 -0.0447 -0.3287
25789SOL    HW180769   3.567   6.817   3.212 -0.5829 -0.1163 -0.1754
25789SOL    HW280770   3.627   6.952   3.246  0.3073 -0.3511 -0.7812
25790SOL     OW80771   3.261   9.168   5.289 -0.3676  0.6182  0.5885
25790SOL    HW180772   3.245   9.076   5.309 -0.9664  0.3371 -1.0422
25790SOL    HW280773   3.348   9.186   5.326  1.2160 -1.5054 -1.7475
25791SOL     OW80774   6.896   5.776   0.958 -0.3284 -0.0195 -0.1497
25791SOL    HW180775   6.825   5.806   0.901  0.8707  1.5259 -0.9097
25791SOL    HW280776   6.967   5.756   0.897  1.3855  2.7836  0.7948
25792SOL     OW80777   8.392   9.790   7.524  0.1093  0.1109 -0.2538
25792SOL    HW180778   8.313   9.819   7.479 -0.9668  0.0104  1.4821
25792SOL    HW280779   8.402   9.851   7.597  0.3371 -1.2150  0.8712
25793SOL     OW80780   5.207   9.787   8.340 -0.9176  0.5070  0.8104
25793SOL    HW180781   5.200   9.877   8.308 -1.6922  0.8650  1.9249
25793SOL    HW280782   5.166   9.789   8.426 -0.3268 -0.7730  1.1467
25794SOL     OW80783   2.511  10.064   1.105 -0.3832  0.0114 -0.2114
25794SOL    HW180784   2.497  10.147   1.058  1.5136 -0.7284 -2.2665
25794SOL    HW280785   2.439  10.008   1.075 -0.9852  0.5172  0.2512
25795SOL     OW80786   2.990   7.900   0.021 -0.0490  0.2739  0.1890
25795SOL    HW180787   3.051   7.890   0.094 -0.4925 -0.0238  0.5256
25795SOL    HW280788   2.995   7.817  -0.027 -1.4005 -0.4247  1.1737
25796SOL     OW80789   7.069   3.359   2.635  0.0194 -0.2385  0.2203
25796SOL    HW180790   7.120   3.278   2.638  1.2375  0.5317  1.2743
25796SOL    HW280791   7.017   3.357   2.715  0.3623  0.2070  0.4563
25797SOL     OW80792   3.369  10.008   3.674 -0.1747 -0.2244  0.3178
25797SOL    HW180793   3.340  10.083   3.725 -1.0373 -0.7346  0.5970
25797SOL    HW280794   3.387   9.940   3.739  2.0793  0.1789  0.1931
25798SOL     OW80795   3.934   9.389   8.857 -0.1845 -0.0492  0.2299
25798SOL    HW180796   3.915   9.475   8.819  2.3173 -0.1102 -1.3947
25798SOL    HW280797   4.025   9.395   8.884 -0.1722 -2.0072  0.7150
25799SOL     OW80798   8.246   2.365  10.665 -0.3757 -0.0428  0.0049
25799SOL    HW180799   8.317   2.332  10.609 -0.1358 -0.8795  0.7700
25799SOL    HW280800   8.233   2.455  10.637 -1.9462 -1.1066 -3.0715
25800SOL     OW80801   0.650   6.791   0.247 -0.1568  0.2119 -0.1510
25800SOL    HW180802   0.633   6.882   0.271 -0.7862  0.2873 -0.8604
25800SOL    HW280803   0.626   6.740   0.325 -1.2939  0.5236 -0.2947
25801SOL     OW80804   9.066   2.461   8.906 -0.0250  0.5153 -0.5707
25801SOL    HW180805   9.007   2.479   8.833 -0.2122  2.1472 -0.0731
25801SOL    HW280806   9.038   2.523   8.974  1.0720  0.0239  0.3539
25802SOL     OW80807  10.578   1.144   0.532 -0.3890 -0.2741  0.0712
25802SOL    HW180808  10.555   1.226   0.574  1.0764 -0.2941  0.9347
25802SOL    HW280809  10.551   1.076   0.594 -0.6314 -0.4238 -0.1894
25803SOL     OW80810   8.372   8.695   4.219  0.2212  0.2942 -0.1689
25803SOL    HW180811   8.303   8.739   4.269 -0.7258 -2.1038  0.7927
25803SOL    HW280812   8.448   8.693   4.278  0.0250  0.0306  0.0810
25804SOL     OW80813   7.312   8.273   7.927 -0.0377  0.2170  0.3573
25804SOL    HW180814   7.337   8.343   7.987  1.3481 -0.4374  0.5799
25804SOL    HW280815   7.286   8.318   7.847 -0.7239  1.0419  1.0202
25805SOL     OW80816   3.539   9.324   8.643 -0.1083  0.7077  0.0869
25805SOL    HW180817   3.577   9.296   8.726 -0.3390  0.3412  0.0711
25805SOL    HW280818   3.446   9.336   8.661 -0.2334  0.2343 -0.2082
25806SOL     OW80819   3.915   9.137   5.978  0.1795  0.3246 -0.2139
25806SOL    HW180820   3.906   9.225   5.942 -0.7232  1.0341  1.6041
25806SOL    HW280821   3.886   9.145   6.069 -0.2350 -1.9258 -0.0854
25807SOL     OW80822   0.993   9.046  10.073  0.6153 -0.0266 -0.6340
25807SOL    HW180823   0.981   8.959  10.111  0.1549  0.2341 -0.1683
25807SOL    HW280824   0.904   9.075  10.051  0.5757  0.9707  0.6902
25808SOL     OW80825   0.580   2.759   3.808 -0.0260  0.0642 -0.7692
25808SOL    HW180826   0.547   2.841   3.843  2.1330 -0.2058  2.2971
25808SOL    HW280827   0.528   2.691   3.852  0.0360 -0.2599 -1.1837
25809SOL     OW80828   5.146  10.771   2.713 -0.4392  0.5615  0.5039
25809SOL    HW180829   5.053  10.764   2.732 -0.2662  0.1170  1.2614
25809SOL    HW280830   5.183  10.816   2.789  0.0436  0.1814  0.5047
25810SOL     OW80831   6.390   9.772   0.139  0.3452  0.1724  0.0340
25810SOL    HW180832   6.388   9.680   0.111  2.2299  0.3003 -0.7013
25810SOL    HW280833   6.358   9.770   0.229  1.3640 -1.3948  0.4071
25811SOL     OW80834   6.283   9.798  10.510 -0.2540  0.1652 -0.2422
25811SOL    HW180835   6.364   9.818  10.556 -0.2119 -0.9693  0.2270
25811SOL    HW280836   6.311   9.763  10.425 -0.2930  0.7853 -0.5180
25812SOL     OW80837   0.853   7.389   5.853  0.1557 -0.1488 -0.6263
25812SOL    HW180838   0.884   7.306   5.818 -0.4879 -1.2312  1.2538
25812SOL    HW280839   0.758   7.380   5.857  0.1048  0.5113  0.0025
25813SOL     OW80840   6.302   6.895   3.112  0.0936  0.1174  0.1255
25813SOL    HW180841   6.324   6.842   3.036 -0.9849 -0.2118  0.0217
25813SOL    HW280842   6.362   6.866   3.180  1.3536  0.7073 -0.6981
25814SOL     OW80843   6.844   2.494   7.709 -0.2087  0.7223 -0.3196
25814SOL    HW180844   6.833   2.460   7.620  2.0961  0.9228 -0.7370
25814SOL    HW280845   6.827   2.419   7.766  0.5185 -0.0061 -1.0379
25815SOL     OW80846   2.925   2.522   9.504 -0.4587  0.1866  0.4353
25815SOL    HW180847   2.917   2.602   9.453 -0.4417  1.1036  1.8366
25815SOL    HW280848   3.018   2.499   9.498 -0.6937 -0.5302 -1.0879
25816SOL     OW80849   3.537   1.955   9.047  0.0653  0.3009 -0.3469
25816SOL    HW180850   3.545   1.860   9.051  1.8498  0.4488  0.6859
25816SOL    HW280851   3.447   1.973   9.073 -0.3295 -1.0999 -0.6791
25817SOL     OW80852   4.149   0.162   9.640 -0.3031 -0.0700  0.4685
25817SOL    HW180853   4.190   0.226   9.582 -0.4837  0.2993  0.7443
25817SOL    HW280854   4.100   0.214   9.704 -0.2252 -0.4726  0.8678
25818SOL     OW80855   9.722   2.378   2.396  0.1385  0.0355 -0.2457
25818SOL    HW180856   9.630   2.359   2.375 -0.3854  0.5376  1.4078
25818SOL    HW280857   9.762   2.292   2.408 -0.7246 -0.1801  1.3277
25819SOL     OW80858   8.468   5.060   2.582 -0.0882 -0.2461 -0.0794
25819SOL    HW180859   8.530   5.024   2.645 -0.2471 -2.1331 -0.9486
25819SOL    HW280860   8.445   5.147   2.617  1.8725 -0.1333  1.0203
25820SOL     OW80861   4.351   3.879   8.599  0.2693  0.1363 -0.0341
25820SOL    HW180862   4.402   3.951   8.562  0.8218 -0.0586  0.3491
25820SOL    HW280863   4.313   3.915   8.679  0.5239  0.0093  0.1432
25821SOL     OW80864   5.659   5.355   5.079 -0.1418 -0.1265  0.4616
25821SOL    HW180865   5.579   5.345   5.029  0.8456 -1.0963 -0.9917
25821SOL    HW280866   5.664   5.449   5.099 -0.1587  0.4516 -2.0036
25822SOL     OW80867   7.555   3.323   8.916  0.0863 -0.0144  0.3105
25822SOL    HW180868   7.532   3.378   8.991 -0.6882 -1.4934  1.2148
25822SOL    HW280869   7.480   3.331   8.857  0.0426  0.0100  0.3691
25823SOL     OW80870   4.479   4.997   4.005 -0.0129  0.3116 -0.1612
25823SOL    HW180871   4.559   5.021   4.051 -0.1244  1.1505 -0.3996
25823SOL    HW280872   4.505   4.991   3.913  0.1893 -1.2780 -0.0305
25824SOL     OW80873  10.449   3.904   9.334 -0.1407  0.2120 -0.8234
25824SOL    HW180874  10.429   3.980   9.280 -0.9269  1.4383  1.0940
25824SOL    HW280875  10.369   3.852   9.333 -1.1268  1.5961  1.2471
25825SOL     OW80876  10.119   3.193   6.142 -0.3337 -0.2419  0.1858
25825SOL    HW180877  10.139   3.135   6.068  0.9145  1.9482 -1.3039
25825SOL    HW280878  10.195   3.186   6.199 -0.4075 -0.4336  0.2617
25826SOL     OW80879   4.747   2.991   4.671  0.5388 -0.3949  0.2128
25826SOL    HW180880   4.661   2.950   4.667  0.4247 -0.0786 -1.0148
25826SOL    HW280881   4.748   3.036   4.755 -0.3482 -0.7254  0.4102
25827SOL     OW80882   3.253   5.517   6.658  0.2638 -0.2006 -0.1139
25827SOL    HW180883   3.263   5.426   6.686  1.9862 -0.4554 -1.3358
25827SOL    HW280884   3.162   5.525   6.632 -0.3006 -1.1228  1.4917
25828SOL     OW80885   6.360   3.759   1.960  0.0108 -0.3507 -0.1744
25828SOL    HW180886   6.344   3.665   1.955  2.4419 -0.7868 -0.9506
25828SOL    HW280887   6.328   3.784   2.047 -0.1340 -1.9954  0.2779
25829SOL     OW80888   0.286   4.197   1.547  0.1634 -0.0825 -0.2155
25829SOL    HW180889   0.334   4.120   1.577 -0.1176 -0.6149 -1.1265
25829SOL    HW280890   0.256   4.175   1.459  2.5645  2.1512 -1.7168
25830SOL     OW80891   3.861   7.906   1.775  0.5043 -0.3965  0.8126
25830SOL    HW180892   3.820   7.824   1.745 -0.2576 -0.3176  1.6055
25830SOL    HW280893   3.947   7.906   1.733 -0.4094 -0.4075 -1.1900
25831SOL     OW80894   2.700  10.656   8.384 -0.2045  0.0479  0.1585
25831SOL    HW180895   2.661  10.739   8.355  2.0810  1.2682  0.3057
25831SOL    HW280896   2.626  10.601   8.408 -1.8599  3.1388  3.0172
25832SOL     OW80897   0.924   9.483   9.422  0.1223  0.2905 -0.8314
25832SOL    HW180898   0.970   9.505   9.503 -0.2884 -0.5340 -0.3671
25832SOL    HW280899   0.894   9.568   9.388  0.3931  0.6513 -0.1871
25833SOL     OW80900   9.300   5.601   5.673  0.1939  0.5014  0.2680
25833SOL    HW180901   9.353   5.607   5.593  1.0858 -0.2403  0.7786
25833SOL    HW280902   9.364   5.607   5.744 -0.6907  2.1836  0.9663
25834SOL     OW80903   0.236   4.681   7.877  0.1091  0.4072  0.0945
25834SOL    HW180904   0.151   4.682   7.834 -0.1174  1.2811  0.5357
25834SOL    HW280905   0.219   4.646   7.964  0.4313 -0.6278 -0.2493
25835SOL     OW80906   9.309   5.527   2.724 -0.5452  0.2282 -0.4894
25835SOL    HW180907   9.278   5.454   2.777 -2.6420  1.5227  0.1649
25835SOL    HW280908   9.293   5.500   2.634  1.7272 -1.3984 -0.5054
25836SOL     OW80909   5.538   1.929   1.109  0.1862 -0.3410  0.5326
25836SOL    HW180910   5.459   1.907   1.159 -0.0414 -1.9770 -0.4464
25836SOL    HW280911   5.598   1.855   1.126  0.4097 -0.5227 -0.9230
25837SOL     OW80912   8.988   5.919   9.167  0.5915 -0.1493 -0.4847
25837SOL    HW180913   8.983   6.012   9.143  2.1123 -0.2729 -1.4455
25837SOL    HW280914   8.968   5.917   9.260 -3.5489  0.6204 -1.1515
25838SOL     OW80915   5.869   0.787  10.494  0.8982  0.1061  0.4159
25838SOL    HW180916   5.886   0.725  10.423  1.5413  0.4512  0.2710
25838SOL    HW280917   5.790   0.833  10.466  2.6199  2.1678 -1.4215
25839SOL     OW80918   7.023   9.080   2.356  0.8382  0.3472  0.4247
25839SOL    HW180919   6.952   9.017   2.361  1.0426  0.1197  0.4590
25839SOL    HW280920   7.082   9.056   2.427  1.4391 -0.0691 -0.1961
25840SOL     OW80921   9.351   2.306   5.666 -0.2794 -0.1890 -0.0138
25840SOL    HW180922   9.441   2.274   5.672 -0.1074  0.4216  1.1158
25840SOL    HW280923   9.298   2.236   5.704 -0.0695  0.1939  1.0189
25841SOL     OW80924   8.030  10.891   0.498  0.0200  0.1111 -0.2783
25841SOL    HW180925   7.997  10.981   0.498  0.8542  0.4260 -1.4536
25841SOL    HW280926   8.119  10.898   0.531  0.4442 -0.1345 -1.3393
25842SOL     OW80927   0.720   5.790   9.650 -0.0439 -0.4705  0.1720
25842SOL    HW180928   0.778   5.763   9.721 -1.0023 -0.9144  0.7911
25842SOL    HW280929   0.664   5.715   9.634  0.7130 -0.7011 -1.6610
25843SOL     OW80930   3.636  10.639   0.379 -0.6269 -0.3582 -0.0760
25843SOL    HW180931   3.698  10.620   0.449 -1.1584  0.4751  0.6473
25843SOL    HW280932   3.672  10.717   0.336 -1.7399  0.8786  1.1214
25844SOL     OW80933   3.554  10.412   1.615 -0.2105  0.2477  0.0720
25844SOL    HW180934   3.491  10.442   1.681  0.0745 -0.6990  0.7974
25844SOL    HW280935   3.633  10.463   1.632 -1.4552  3.3933 -2.5011
25845SOL     OW80936   7.112   7.452   3.725 -0.1555 -0.1278  0.1254
25845SOL    HW180937   7.114   7.363   3.688  0.9774 -0.5337  1.1204
25845SOL    HW280938   7.203   7.482   3.721 -0.3655  0.6130  0.6847
25846SOL     OW80939   3.734   8.821   8.355 -0.2696  0.3795 -0.1771
25846SOL    HW180940   3.726   8.736   8.399  1.9368  1.3535  2.3671
25846SOL    HW280941   3.664   8.874   8.393 -0.0942  0.4175  0.0933
25847SOL     OW80942   8.112  10.076   4.279 -0.0868  0.1967  0.5749
25847SOL    HW180943   8.090  10.168   4.298  0.8943  0.2804  1.4629
25847SOL    HW280944   8.190  10.060   4.333 -0.3177 -1.1983  0.5055
25848SOL     OW80945   6.891   7.160   0.212 -0.1911  0.0673  0.8889
25848SOL    HW180946   6.825   7.119   0.156 -0.1943  2.4106 -0.9974
25848SOL    HW280947   6.974   7.124   0.180 -0.1863  1.4235 -0.8169
25849SOL     OW80948   9.631   3.242   3.504 -0.3931  0.1082 -0.3404
25849SOL    HW180949   9.679   3.301   3.562 -0.4816  0.1084 -0.2660
25849SOL    HW280950   9.688   3.164   3.498 -1.0195 -0.4908  0.9161
25850SOL     OW80951   7.359   1.450  10.276 -0.1884  0.0774 -0.5790
25850SOL    HW180952   7.375   1.368  10.229 -0.4261 -0.4154  0.1757
25850SOL    HW280953   7.441   1.467  10.322 -0.9964 -1.2817  1.5362
25851SOL     OW80954   7.322   3.308   5.439 -0.6542 -0.1936 -0.4509
25851SOL    HW180955   7.325   3.244   5.368  1.5320 -0.7495  0.0453
25851SOL    HW280956   7.358   3.261   5.515  0.1345  1.3128  0.1596
25852SOL     OW80957   8.243   8.925   0.250  0.6213  0.2895 -0.4626
25852SOL    HW180958   8.336   8.950   0.250  0.3784  1.2705  0.2351
25852SOL    HW280959   8.229   8.883   0.335  0.4172  0.1657 -0.5562
25853SOL     OW80960   4.530   7.293   1.201 -0.6258  0.0018  0.0509
25853SOL    HW180961   4.601   7.229   1.214  1.6198  2.0732 -1.1032
25853SOL    HW280962   4.481   7.291   1.283  0.7616 -1.5650  0.9083
25854SOL     OW80963   0.442   0.918   5.790  0.2448 -0.1521 -0.1845
25854SOL    HW180964   0.364   0.944   5.740  1.1285 -0.3685 -1.7193
25854SOL    HW280965   0.417   0.837   5.833 -0.0035 -0.8937 -1.6715
25855SOL     OW80966   3.309   7.517   2.358  0.1484  0.2491 -0.2031
25855SOL    HW180967   3.360   7.499   2.436 -1.4379 -0.9332  0.6239
25855SOL    HW280968   3.303   7.612   2.354 -1.1003  0.3296  2.0794
25856SOL     OW80969   5.078   7.703   5.448  0.3171  0.1904 -0.1639
25856SOL    HW180970   4.986   7.677   5.443  0.5431 -0.5727 -0.5754
25856SOL    HW280971   5.124   7.638   5.395  0.7969  2.1112 -2.2677
25857SOL     OW80972  10.632   4.076   8.918  0.6316 -0.1528 -0.6665
25857SOL    HW180973  10.713   4.116   8.884  0.6293  0.1714 -0.3056
25857SOL    HW280974  10.587   4.044   8.841  1.9483 -1.9530 -0.7533
25858SOL     OW80975   5.098   5.023   9.573  0.8456  0.0749 -0.2627
25858SOL    HW180976   5.031   4.962   9.543  2.0810 -0.5181 -1.9039
25858SOL    HW280977   5.174   4.969   9.593  0.2983  0.4259  3.8095
25859SOL     OW80978   8.202   8.950   2.085  0.6048  0.2741 -0.2913
25859SOL    HW180979   8.266   8.882   2.104  0.0698 -0.2495 -0.3468
25859SOL    HW280980   8.118   8.913   2.111  0.1018  0.3034 -1.7596
25860SOL     OW80981   6.434   9.228   7.996  0.2626 -0.3887  0.0701
25860SOL    HW180982   6.356   9.185   7.961  0.7083 -2.2452  1.1980
25860SOL    HW280983   6.483   9.157   8.037  0.6557  1.3199  2.7956
25861SOL     OW80984   6.773   9.196   4.277 -0.2092  0.0726  0.3271
25861SOL    HW180985   6.721   9.154   4.208 -0.7115  1.7709 -0.4021
25861SOL    HW280986   6.859   9.208   4.237  0.2355 -1.1077  0.8896
25862SOL     OW80987  10.546  10.671   7.796 -0.3993  0.1634  0.3212
25862SOL    HW180988  10.598  10.593   7.777  0.2369  0.4696  0.7860
25862SOL    HW280989  10.581  10.704   7.879 -0.8060  0.8245  0.2355
25863SOL     OW80990   3.490   7.206   4.041  0.3441  0.0592 -0.4224
25863SOL    HW180991   3.398   7.196   4.018  0.6570 -0.3411 -1.5960
25863SOL    HW280992   3.532   7.126   4.008  1.1137  0.2448  0.0711
25864SOL     OW80993   1.468   9.776   9.898  0.7274 -0.5156  0.1482
25864SOL    HW180994   1.490   9.770   9.805  1.1654  1.8413  0.0451
25864SOL    HW280995   1.386   9.825   9.900  1.3940  0.6016  1.0426
25865SOL     OW80996   6.656   8.815  10.081 -0.3952  0.3927 -1.5274
25865SOL    HW180997   6.651   8.889  10.020  0.0795  1.7221 -0.0439
25865SOL    HW280998   6.574   8.819  10.130  0.2553  0.9260 -0.4194
25866SOL     OW80999   1.960   2.283   7.266  0.6811 -0.0488 -0.1460
25866SOL    HW181000   1.936   2.349   7.201 -2.6285 -1.0245 -0.1320
25866SOL    HW281001   2.027   2.230   7.223  1.6147  1.8254 -1.0927
25867SOL     OW81002   8.956  10.301   7.740 -0.2289 -0.2028 -0.6739
25867SOL    HW181003   8.893  10.371   7.760  0.7579  0.8244 -1.0605
25867SOL    HW281004   8.908  10.220   7.759 -0.6049  0.5794  2.1806
25868SOL     OW81005   0.134   1.995   1.588  0.2027 -0.0489  0.4576
25868SOL    HW181006   0.195   2.020   1.657 -0.3676  0.0534  0.9373
25868SOL    HW281007   0.079   2.073   1.575 -1.1284 -0.7750  1.4691
25869SOL     OW81008   3.882   7.577  10.052 -0.7502  0.2216  0.0138
25869SOL    HW181009   3.946   7.647  10.059 -0.2081 -0.2814  0.2161
25869SOL    HW281010   3.849   7.565  10.141  1.0682 -1.5083  0.5314
25870SOL     OW81011   8.156   0.048   1.840 -0.3991  0.3722  0.2369
25870SOL    HW181012   8.215  -0.025   1.859 -0.2182  0.1369 -1.1437
25870SOL    HW281013   8.068   0.010   1.842 -0.3649  0.2991  0.3416
25871SOL     OW81014   6.079   5.082   5.609 -0.2092 -0.6334 -0.0204
25871SOL    HW181015   5.997   5.051   5.647 -0.2853  0.5438  0.8051
25871SOL    HW281016   6.114   5.005   5.564 -1.2628 -1.4236  0.4529
25872SOL     OW81017   5.352   4.899   4.529 -0.1245  0.2083  0.0536
25872SOL    HW181018   5.257   4.887   4.525 -0.1498 -0.2255  1.5510
25872SOL    HW281019   5.372   4.904   4.622  1.5928 -2.0982 -0.1133
25873SOL     OW81020   7.248  10.208   3.096 -0.0053  0.7144 -0.2168
25873SOL    HW181021   7.205  10.180   3.015 -2.0147  2.0833  0.3044
25873SOL    HW281022   7.319  10.265   3.067 -0.5452  0.9838 -1.0404
25874SOL     OW81023  10.294   2.208   3.371  0.4454 -0.3188 -0.5334
25874SOL    HW181024  10.201   2.190   3.357  0.0598  0.5574  0.7672
25874SOL    HW281025  10.309   2.292   3.327  0.7022 -0.6035 -0.9977
25875SOL     OW81026   4.912   3.699  10.898 -0.0093 -0.1841  0.5887
25875SOL    HW181027   4.906   3.777  10.844  0.0126 -1.1734 -0.8845
25875SOL    HW281028   4.864   3.632  10.849  1.6466 -1.6084  0.8484
25876SOL     OW81029   8.826  10.259  10.763  0.0007 -0.2253 -0.4033
25876SOL    HW181030   8.784  10.229  10.843 -0.6815  0.2490 -0.5740
25876SOL    HW281031   8.788  10.205  10.694  0.7014 -0.7389 -0.3967
25877SOL     OW81032   0.016   9.757   2.322 -0.2648  0.1519 -0.2104
25877SOL    HW181033  -0.033   9.706   2.387 -0.4353 -0.4207 -0.7729
25877SOL    HW281034   0.012   9.847   2.354  0.0915 -0.1837  0.8392
25878SOL     OW81035   2.406   0.001   4.857  0.2674 -0.1639  0.5042
25878SOL    HW181036   2.427   0.028   4.768 -1.3160  0.6940  0.3676
25878SOL    HW281037   2.360  -0.082   4.846  3.0995 -1.9222  0.7914
25879SOL     OW81038   6.188  10.611   4.025  0.1224  0.4555 -0.4772
25879SOL    HW181039   6.264  10.634   3.973  1.4766 -0.4227  1.0118
25879SOL    HW281040   6.188  10.673   4.098 -0.9010  0.7681 -0.7197
25880SOL     OW81041   8.355   0.524   0.223  0.2866 -0.3325  0.1954
25880SOL    HW181042   8.291   0.458   0.250 -0.7084  0.4989 -0.0721
25880SOL    HW281043   8.302   0.596   0.187  1.3843  0.2594 -0.2882
25881SOL     OW81044   5.242   5.721   6.447 -0.4533  0.1312  0.0866
25881SOL    HW181045   5.246   5.627   6.459 -0.8449  0.2502  1.2984
25881SOL    HW281046   5.267   5.758   6.531  1.1215  1.1552 -0.7762
25882SOL     OW81047   3.365   8.148   9.340 -0.1324  0.2965  0.6463
25882SOL    HW181048   3.276   8.126   9.314  0.0439 -3.1069  2.3194
25882SOL    HW281049   3.416   8.140   9.259 -1.1042  0.6628 -0.0126
25883SOL     OW81050   3.386   3.911   2.946 -0.0135 -0.3736 -0.2780
25883SOL    HW181051   3.392   3.821   2.979  0.2383  0.0019  0.7441
25883SOL    HW281052   3.293   3.924   2.930 -0.0240 -0.8981 -0.6926
25884SOL     OW81053   1.259   8.090   4.073 -0.3946  0.1785 -0.1925
25884SOL    HW181054   1.168   8.070   4.052 -0.5516  1.3127 -0.7013
25884SOL    HW281055   1.307   8.071   3.993 -0.4378  1.0813 -0.4437
25885SOL     OW81056   8.975   6.396   8.058 -0.8389  0.1542  0.3412
25885SOL    HW181057   9.070   6.389   8.056 -0.9102 -1.2668  0.5569
25885SOL    HW281058   8.956   6.438   8.142 -0.4139  0.0683  0.4838
25886SOL     OW81059   0.275   0.158   4.181 -0.0120  0.1576 -0.8402
25886SOL    HW181060   0.306   0.114   4.102  1.2400  0.5751 -0.6164
25886SOL    HW281061   0.224   0.232   4.149 -0.3650 -0.2565 -1.2412
25887SOL     OW81062   6.218   9.925   9.416  0.6883 -0.2068  0.0103
25887SOL    HW181063   6.255   9.927   9.328  0.9861  1.0863  0.1461
25887SOL    HW281064   6.167  10.006   9.422  0.2852 -0.5141  0.8740
25888SOL     OW81065   2.943   1.701   6.932  0.0930  0.1670  0.2246
25888SOL    HW181066   2.969   1.614   6.899 -0.9220 -0.2615  0.5140
25888SOL    HW281067   2.956   1.696   7.026 -0.5291  0.1165  0.3131
25889SOL     OW81068   1.744   5.994   4.487  0.1400 -0.7863 -0.4234
25889SOL    HW181069   1.762   6.063   4.551  1.8733 -0.4282 -1.2340
25889SOL    HW281070   1.667   6.026   4.439 -2.1026 -1.7024  2.2672
25890SOL     OW81071  10.023   0.504   6.562  0.0202 -0.5043  0.1984
25890SOL    HW181072   9.950   0.562   6.541  0.3229 -0.1346  0.1539
25890SOL    HW281073  10.009   0.479   6.654  0.1675  0.0475  0.3709
25891SOL     OW81074   8.954   0.113   9.326 -0.0638  0.5045  0.1921
25891SOL    HW181075   8.870   0.067   9.336  0.0284  0.5798  1.5552
25891SOL    HW281076   8.991   0.078   9.245  0.8153 -3.2318  1.9758
25892SOL     OW81077   7.800   6.988   9.779  0.5429 -0.5746 -0.1588
25892SOL    HW181078   7.862   7.037   9.833  1.1030 -1.6015  0.1645
25892SOL    HW281079   7.855   6.934   9.722 -0.0452 -1.4076  0.0417
25893SOL     OW81080   2.959   9.521   0.070  0.0690  0.2128  0.7027
25893SOL    HW181081   2.930   9.566  -0.009  0.9738  2.8083  1.7468
25893SOL    HW281082   2.879   9.492   0.113 -0.5879  1.1869  0.1512
25894SOL     OW81083   8.674   0.235   1.621  0.2261 -0.4563 -0.0665
25894SOL    HW181084   8.608   0.225   1.552 -0.1461 -1.6680  0.4363
25894SOL    HW281085   8.746   0.283   1.579 -0.8692  0.7142 -0.6812
25895SOL     OW81086   6.506   1.873   0.434  0.1668 -0.2328 -0.3684
25895SOL    HW181087   6.485   1.945   0.375 -0.6095 -1.1525 -1.2543
25895SOL    HW281088   6.514   1.797   0.377 -0.4472 -1.1227  0.6983
25896SOL     OW81089   7.049   7.212   1.400  0.2238  0.1080 -0.1931
25896SOL    HW181090   7.085   7.151   1.464 -1.3500  0.0565  0.6856
25896SOL    HW281091   7.003   7.157   1.337 -0.0528  0.3020 -0.1619
25897SOL     OW81092  10.585   5.092   7.322  0.1539  0.0775  0.2911
25897SOL    HW181093  10.666   5.142   7.321  1.1339 -1.3987 -1.5427
25897SOL    HW281094  10.595   5.029   7.250 -2.1183 -0.9472  0.7791
25898SOL     OW81095   1.794   3.708   1.654 -0.0068 -0.1945 -0.6549
25898SOL    HW181096   1.759   3.718   1.743  2.3036 -1.6369  0.5071
25898SOL    HW281097   1.849   3.786   1.642  0.3102 -0.3914 -0.4923
25899SOL     OW81098   8.101   3.314  10.228  0.2615  0.5063 -0.0142
25899SOL    HW181099   8.062   3.396  10.258  0.1769  0.0019  1.3576
25899SOL    HW281100   8.050   3.246  10.271  0.6548 -0.2576 -0.7262
25900SOL     OW81101   2.021   2.979   2.995  0.2928  0.1124  0.2964
25900SOL    HW181102   1.943   3.015   3.037  0.5015 -0.1775  0.9364
25900SOL    HW281103   2.079   3.055   2.985 -0.5462  0.5777 -1.3165
25901SOL     OW81104   7.827  10.651   4.051 -0.3316  0.1141  0.0660
25901SOL    HW181105   7.748  10.604   4.028 -0.2360  0.0878 -0.2163
25901SOL    HW281106   7.885  10.585   4.089  0.5503 -0.4412 -2.0657
25902SOL     OW81107  10.066   0.713   0.255  0.1185  0.0856 -0.4953
25902SOL    HW181108   9.973   0.710   0.231  0.5069  0.4951 -2.1732
25902SOL    HW281109  10.081   0.803   0.284  0.4932  0.7498 -2.5881
25903SOL     OW81110   6.906   2.500   9.658 -0.7928  0.7214 -0.0333
25903SOL    HW181111   6.893   2.408   9.682  2.0019 -0.0593 -1.0910
25903SOL    HW281112   6.965   2.535   9.725 -0.6295  1.3109 -0.4744
25904SOL     OW81113   9.998   7.954   9.584 -0.3111 -1.0092 -0.2951
25904SOL    HW181114  10.000   7.985   9.494 -0.4578  0.2218  0.1110
25904SOL    HW281115  10.017   8.032   9.637 -0.7536 -1.5957  0.7614
25905SOL     OW81116   2.038   9.360   5.617  0.0937  0.0336 -0.0624
25905SOL    HW181117   2.056   9.429   5.553  1.5321 -0.7756 -0.5673
25905SOL    HW281118   2.030   9.406   5.701  0.4332  0.8802 -0.4881
25906SOL     OW81119   3.315   1.373   2.416  0.3953  0.0821  0.7064
25906SOL    HW181120   3.277   1.394   2.501  2.5358  1.3556  1.4188
25906SOL    HW281121   3.397   1.329   2.436  2.5067  3.1600 -0.5459
25907SOL     OW81122   5.923   8.514   9.094 -0.0340 -0.1609 -0.5470
25907SOL    HW181123   5.882   8.432   9.120 -0.2683  0.0797 -0.1452
25907SOL    HW281124   5.857   8.581   9.113  0.3283  0.1700 -0.4381
25908SOL     OW81125   2.517   0.956   7.443  0.1803  0.4257 -0.7427
25908SOL    HW181126   2.470   0.986   7.521 -0.6697 -0.3144 -0.9506
25908SOL    HW281127   2.566   0.880   7.471 -0.7072 -0.2888 -1.0765
25909SOL     OW81128   1.779   5.082   8.371 -0.1902 -0.4361 -0.4545
25909SOL    HW181129   1.743   5.035   8.296  0.9866  0.2348 -1.4807
25909SOL    HW281130   1.726   5.161   8.378 -2.1511 -1.7900  1.2551
25910SOL     OW81131   0.200   6.105   2.195  0.0684  0.4141  0.2905
25910SOL    HW181132   0.203   6.009   2.192  0.5323  0.4361 -0.1226
25910SOL    HW281133   0.285   6.132   2.161 -0.1875  0.9770  0.0955
25911SOL     OW81134   1.213  10.660   0.124  0.6096  0.0013  0.5050
25911SOL    HW181135   1.220  10.565   0.114 -0.7799 -0.1809  1.0171
25911SOL    HW281136   1.303  10.690   0.135  1.3402 -0.9442 -2.0907
25912SOL     OW81137   0.630   9.402   4.672 -0.5162  0.2579  0.1863
25912SOL    HW181138   0.561   9.338   4.657 -0.8512  0.7859 -0.5760
25912SOL    HW281139   0.700   9.352   4.713 -0.7431 -0.6067 -0.4556
25913SOL     OW81140   4.523   9.738   5.075  0.2717 -0.4553 -0.5446
25913SOL    HW181141   4.463   9.810   5.093  1.9026  0.8371 -0.0316
25913SOL    HW281142   4.483   9.690   5.002 -0.5682  1.3187 -1.2898
25914SOL     OW81143   2.704   1.345   3.071  0.2038 -0.4288  0.0740
25914SOL    HW181144   2.755   1.272   3.036  1.4739 -0.4320  1.7901
25914SOL    HW281145   2.733   1.354   3.162 -1.3944  0.9209  0.5208
25915SOL     OW81146   4.981   4.096   5.864  0.5676  0.5780 -0.4480
25915SOL    HW181147   4.998   4.188   5.883  1.3591  0.4249 -0.3796
25915SOL    HW281148   4.896   4.095   5.820  1.0592  1.4582 -1.4372
25916SOL     OW81149   8.447   7.353   0.701 -0.1195 -0.0653  0.2528
25916SOL    HW181150   8.464   7.304   0.781 -0.8563  0.9508  1.0674
25916SOL    HW281151   8.449   7.445   0.728 -3.4179  0.2691 -0.2019
25917SOL     OW81152   8.061   4.337   6.552  0.5390 -0.3229  0.1445
25917SOL    HW181153   8.066   4.306   6.462 -0.7862 -1.6822  0.5032
25917SOL    HW281154   8.150   4.326   6.587  0.5455 -1.9111 -0.3342
25918SOL     OW81155  10.781  10.502   9.539 -0.4163  0.2733 -0.3833
25918SOL    HW181156  10.774  10.408   9.552 -1.0361  0.2803 -0.6165
25918SOL    HW281157  10.851  10.513   9.474 -0.8873 -0.0818 -0.9635
25919SOL     OW81158   5.694   0.396   1.024  0.2770  0.4706 -0.2667
25919SOL    HW181159   5.709   0.476   1.076  0.7096  0.1925  0.0406
25919SOL    HW281160   5.607   0.366   1.051  0.7656 -0.0291  0.7829
25920SOL     OW81161   4.119   5.473   0.892  0.5773  0.4414  0.2015
25920SOL    HW181162   4.136   5.508   0.804  0.6402  0.4044  0.1991
25920SOL    HW281163   4.180   5.519   0.949 -0.2686  1.3316  0.4147
25921SOL     OW81164   4.261   4.949  10.322  0.3801  0.1879  0.0663
25921SOL    HW181165   4.262   4.958  10.227 -0.6053 -0.1216  0.0129
25921SOL    HW281166   4.226   4.861  10.337 -1.3834  0.9441  0.7161
25922SOL     OW81167   6.320   2.408   4.605 -0.5305 -0.6874 -0.2645
25922SOL    HW181168   6.296   2.463   4.680 -0.4766 -0.4657 -0.4109
25922SOL    HW281169   6.414   2.421   4.595 -0.5053 -0.8593 -0.2584
25923SOL     OW81170   7.966   0.970   7.556  0.2251  0.2798 -0.2269
25923SOL    HW181171   7.915   1.032   7.504 -0.6517  0.3096  0.6235
25923SOL    HW281172   7.964   0.889   7.506  1.9159  1.0529 -1.6607
25924SOL     OW81173   6.952   6.293   2.329 -0.1381 -0.6933 -0.2732
25924SOL    HW181174   7.035   6.245   2.335 -1.5069 -3.3576 -0.8045
25924SOL    HW281175   6.977   6.383   2.311  2.6251 -1.4511 -0.6784
25925SOL     OW81176   7.237   5.769   3.468  0.1554  0.2709  0.0723
25925SOL    HW181177   7.159   5.766   3.523 -0.7493  2.5328 -0.9809
25925SOL    HW281178   7.304   5.810   3.523 -0.7924  2.6797 -0.4621
25926SOL     OW81179   1.153   7.627   0.487  0.2353 -0.5227 -0.9465
25926SOL    HW181180   1.206   7.681   0.428  1.5051 -1.0824 -0.3552
25926SOL    HW281181   1.179   7.537   0.466 -0.4111 -0.7970 -0.5762
25927SOL     OW81182   4.844   5.843   6.671  0.2771 -0.4067  0.0580
25927SOL    HW181183   4.851   5.755   6.632 -1.6998 -1.1299  1.1847
25927SOL    HW281184   4.757   5.845   6.709 -0.7030  2.9305 -1.9589
25928SOL     OW81185   3.513   7.606   2.564  0.4465  0.8566  0.6449
25928SOL    HW181186   3.542   7.680   2.511 -1.7888  1.9126  0.7627
25928SOL    HW281187   3.556   7.530   2.525  1.4778  2.0013 -0.5604
25929SOL     OW81188   0.429   4.281   1.904  0.6885 -0.0906 -0.3361
25929SOL    HW181189   0.444   4.206   1.846 -2.6460 -4.5601  3.7538
25929SOL    HW281190   0.338   4.306   1.887 -0.0683 -0.9173  2.0597
25930SOL     OW81191   2.524   4.698   9.266  0.1261  0.0118  0.5658
25930SOL    HW181192   2.469   4.741   9.331 -0.3548 -0.0639  0.2121
25930SOL    HW281193   2.583   4.642   9.317  0.2939  0.5609  0.9834
25931SOL     OW81194  10.697   7.574   5.292  0.6335  0.6578 -0.1898
25931SOL    HW181195  10.695   7.561   5.386 -1.3367 -1.0544 -0.3924
25931SOL    HW281196  10.758   7.508   5.259 -0.4523 -0.3325 -0.2691
25932SOL     OW81197  10.550   2.706   7.938  0.4917 -0.5409  0.9944
25932SOL    HW181198  10.545   2.658   7.856 -1.6859  0.9287  0.1794
25932SOL    HW281199  10.496   2.784   7.924  3.8897  2.3181  2.1313
25933SOL     OW81200  10.464   8.769   7.164  0.0043 -0.6068  0.0259
25933SOL    HW181201  10.390   8.756   7.104 -0.9857 -1.3462  1.3312
25933SOL    HW281202  10.472   8.864   7.172 -1.6583 -0.4902  0.7947
25934SOL     OW81203   5.706  10.709   2.477  0.5546  0.4213 -0.2856
25934SOL    HW181204   5.664  10.707   2.562  1.0164  1.0310 -0.0378
25934SOL    HW281205   5.666  10.637   2.428 -2.2507  2.1545 -0.7576
25935SOL     OW81206  10.057   9.826   8.908  0.1615 -0.1288  0.2004
25935SOL    HW181207  10.101   9.819   8.823 -0.0992  0.9964 -0.0492
25935SOL    HW281208  10.094   9.906   8.947  0.7643 -0.9830  1.4432
25936SOL     OW81209  10.194   3.521   7.065  0.2225 -0.0246  0.6644
25936SOL    HW181210  10.248   3.569   7.001  0.1750 -0.2015  0.4915
25936SOL    HW281211  10.180   3.584   7.136  1.1074 -0.1608  0.9596
25937SOL     OW81212   9.647  10.716   3.946 -0.0386  0.4321  0.0785
25937SOL    HW181213   9.581  10.649   3.930  0.1531 -0.6068  3.0510
25937SOL    HW281214   9.723  10.668   3.979 -0.1580  2.0284  3.0690
25938SOL     OW81215   8.527   7.369  10.748 -0.0356 -0.3430  0.6056
25938SOL    HW181216   8.434   7.348  10.756 -0.5923  1.5675 -0.2599
25938SOL    HW281217   8.545   7.427  10.822  0.2216  0.0342  0.2506
25939SOL     OW81218   0.704   3.918   1.975 -0.3260  0.3724 -0.3303
25939SOL    HW181219   0.771   3.856   1.946 -0.4193  1.1599 -2.4165
25939SOL    HW281220   0.621   3.877   1.950 -0.6183 -0.1393  1.3389
25940SOL     OW81221   6.998   6.439   3.584 -0.3438 -0.2560  0.4479
25940SOL    HW181222   6.981   6.529   3.558  0.8734 -0.4929 -1.3567
25940SOL    HW281223   7.085   6.441   3.624  0.6483 -0.8871 -1.5244
25941SOL     OW81224   0.806   9.436   1.848  0.2760  0.6154 -0.5097
25941SOL    HW181225   0.790   9.349   1.811  0.3333  0.0533  0.7147
25941SOL    HW281226   0.821   9.492   1.773 -0.9792 -0.1827 -1.4015
25942SOL     OW81227   6.619   3.161   9.644  0.2562 -0.3414  0.0750
25942SOL    HW181228   6.707   3.128   9.659 -0.3044 -2.0436 -0.2035
25942SOL    HW281229   6.585   3.178   9.732  0.7134 -0.0822  0.2039
25943SOL     OW81230   9.008   5.109   0.753 -0.2342 -0.1554 -0.2633
25943SOL    HW181231   8.991   5.203   0.746 -1.3969 -0.3850 -0.7872
25943SOL    HW281232   8.930   5.068   0.715  0.3252 -1.3303 -0.1783
25944SOL     OW81233   8.749   8.736   4.040 -0.6365  0.3583  0.1203
25944SOL    HW181234   8.687   8.776   4.101 -3.0332 -1.1400 -1.1666
25944SOL    HW281235   8.764   8.804   3.973 -2.5802  0.0995 -0.6436
25945SOL     OW81236  10.236   0.885   8.241 -0.9320  0.0184  0.1879
25945SOL    HW181237  10.211   0.792   8.242  0.9560 -0.5389  1.9036
25945SOL    HW281238  10.216   0.916   8.329 -1.2166  1.1910 -0.2637
25946SOL     OW81239   9.581   4.392   1.163 -0.7405 -0.1550  0.0048
25946SOL    HW181240   9.601   4.474   1.118  0.9404 -0.7073 -0.3542
25946SOL    HW281241   9.595   4.325   1.097  0.0898 -0.8586  0.8707
25947SOL     OW81242   7.630   5.197   8.691  0.3765 -0.1536 -0.2824
25947SOL    HW181243   7.570   5.247   8.747  1.8302  1.8774 -0.4128
25947SOL    HW281244   7.580   5.179   8.611  0.1022  2.1251 -0.6893
25948SOL     OW81245   5.015  10.718   3.071  0.5540 -0.4641 -0.0823
25948SOL    HW181246   4.944  10.781   3.063 -0.2790 -1.2532  0.6780
25948SOL    HW281247   5.093  10.765   3.044 -0.1191  0.7219 -0.0261
25949SOL     OW81248   1.606   4.867   5.732 -0.0804 -0.4021  0.2867
25949SOL    HW181249   1.692   4.851   5.771 -0.0887  0.5330  0.7139
25949SOL    HW281250   1.544   4.843   5.801 -0.1022  0.9479  0.7648
25950SOL     OW81251   1.528  10.912   5.507 -0.2723  0.7033  0.2055
25950SOL    HW181252   1.486  10.995   5.528  0.2778  0.8102  0.9158
25950SOL    HW281253   1.619  10.923   5.536 -0.2062 -0.1570  0.3377
25951SOL     OW81254  10.734  10.259   9.250  0.4334 -0.1521 -0.1576
25951SOL    HW181255  10.662  10.305   9.293 -1.9505 -1.0275 -2.8627
25951SOL    HW281256  10.719  10.167   9.268 -0.0876 -0.4644 -1.9296
25952SOL     OW81257   8.176   6.941   2.288 -0.6583  0.1912  0.3344
25952SOL    HW181258   8.211   6.854   2.307  0.4709  0.7065  0.7305
25952SOL    HW281259   8.253   6.998   2.286 -1.4836  1.3993  1.2787
25953SOL     OW81260  10.871   6.051   2.384 -0.2480  0.4638 -0.1511
25953SOL    HW181261  10.842   6.061   2.294 -0.5016 -1.3272 -0.3197
25953SOL    HW281262  10.965   6.038   2.379 -0.5158 -1.8072 -0.4291
25954SOL     OW81263   6.119   0.630   4.672  0.4148 -0.7187 -0.9392
25954SOL    HW181264   6.086   0.692   4.737 -1.0176 -4.0292  1.7709
25954SOL    HW281265   6.088   0.665   4.588 -0.6422  1.9581  0.4450
25955SOL     OW81266   3.463   7.423   7.638 -0.1581  0.2399  0.5012
25955SOL    HW181267   3.505   7.402   7.721  1.1735 -0.8298 -0.3959
25955SOL    HW281268   3.417   7.343   7.612  0.7506  0.0210 -0.5234
25956SOL     OW81269   7.960   2.435   5.116 -0.3069  0.5426  0.3424
25956SOL    HW181270   7.876   2.446   5.071 -0.0166  1.5230  0.0055
25956SOL    HW281271   7.966   2.512   5.173  0.7814  0.9712 -0.3370
25957SOL     OW81272   3.904   4.979   4.218 -0.3714  1.0018  0.3521
25957SOL    HW181273   3.879   5.060   4.173 -0.8972  0.0025 -1.2506
25957SOL    HW281274   3.835   4.917   4.195  1.0854 -0.4853 -0.1633
25958SOL     OW81275   2.559   8.769   3.393  0.5572 -0.0534 -0.0227
25958SOL    HW181276   2.635   8.712   3.378  1.2141  0.7302  0.2667
25958SOL    HW281277   2.583   8.821   3.470  0.3620  1.2583 -0.8197
25959SOL     OW81278  10.068   4.482   4.467 -0.3847  0.3169  0.0240
25959SOL    HW181279  10.162   4.478   4.481 -0.2643  2.3095  0.1313
25959SOL    HW281280  10.055   4.443   4.380  0.5455  0.1221 -0.0405
25960SOL     OW81281  10.577   5.943   1.238 -0.1288  0.2487  0.2669
25960SOL    HW181282  10.547   6.022   1.192 -0.4443 -0.3282 -0.5499
25960SOL    HW281283  10.606   5.885   1.168  0.9777 -0.0123  0.9180
25961SOL     OW81284   7.079   8.826   1.722  0.2209  0.1935  0.2719
25961SOL    HW181285   7.136   8.755   1.750  0.4750  0.2723 -0.0456
25961SOL    HW281286   6.994   8.806   1.761  0.5224  0.2070  0.9604
25962SOL     OW81287   1.378   8.763   6.264 -0.3615 -0.1488  0.4857
25962SOL    HW181288   1.336   8.699   6.321 -0.3980  0.0717  0.7104
25962SOL    HW281289   1.329   8.759   6.182 -0.4749 -0.2799  0.5599
25963SOL     OW81290   9.471   9.633   9.969  0.2763  0.3147  0.2671
25963SOL    HW181291   9.438   9.648  10.057  1.7273 -0.8522  1.0493
25963SOL    HW281292   9.419   9.559   9.937 -0.3472  0.8278  0.0624
25964SOL     OW81293   0.013   7.600   7.481 -0.2502 -0.6499 -0.0321
25964SOL    HW181294   0.002   7.685   7.438  1.2024 -1.2153 -1.6437
25964SOL    HW281295  -0.004   7.535   7.412 -0.2868 -1.6552  0.8886
25965SOL     OW81296   8.753   4.213   8.045 -0.1052  0.2888 -0.1386
25965SOL    HW181297   8.785   4.285   8.100 -0.6431 -1.1197  2.1520
25965SOL    HW281298   8.658   4.224   8.043 -0.2901 -0.8317  1.0382
25966SOL     OW81299   1.751   0.085   8.639 -0.5062 -0.0886  0.0222
25966SOL    HW181300   1.758  -0.010   8.640 -1.4010 -0.1646 -0.4506
25966SOL    HW281301   1.696   0.105   8.563  2.2486  0.9982 -1.8791
25967SOL     OW81302   1.652   9.338   2.850 -0.3017 -0.1744  0.4357
25967SOL    HW181303   1.644   9.251   2.889  0.4802 -0.2731  0.3938
25967SOL    HW281304   1.676   9.395   2.924 -0.3710 -0.0704  0.3788
25968SOL     OW81305   0.140   5.213   2.660 -0.1123  0.8813 -0.1246
25968SOL    HW181306   0.227   5.252   2.648 -0.7716  2.3092 -0.5267
25968SOL    HW281307   0.117   5.179   2.573  0.6353 -0.8841  0.3165
25969SOL     OW81308   2.702   8.963   7.029 -0.1051  0.0588 -0.7469
25969SOL    HW181309   2.618   8.923   7.050  0.8716 -1.6841 -0.0001
25969SOL    HW281310   2.745   8.900   6.971  1.3951  0.0966  0.2887
25970SOL     OW81311   2.870   2.268   1.559  0.2168 -0.4640  0.5725
25970SOL    HW181312   2.868   2.271   1.654 -0.0136  0.7229  0.5443
25970SOL    HW281313   2.824   2.347   1.531  0.2052 -0.8380 -0.5267
25971SOL     OW81314   6.905   3.478   9.545 -0.2752  0.0931 -0.1678
25971SOL    HW181315   6.876   3.512   9.629  2.3845 -1.9290  1.7574
25971SOL    HW281316   6.967   3.543   9.513 -1.0702  0.7225 -0.4681
25972SOL     OW81317   3.847   1.954   6.437 -0.1665  0.2099  0.0692
25972SOL    HW181318   3.839   2.029   6.378  0.5126 -0.1889 -0.5414
25972SOL    HW281319   3.871   1.992   6.521  0.8365  0.6407 -0.3919
25973SOL     OW81320   8.260   1.351   2.722  0.4771  0.1419  0.6402
25973SOL    HW181321   8.286   1.413   2.653  2.0494 -0.9119  0.2370
25973SOL    HW281322   8.164   1.356   2.722  0.3929  0.0546 -1.7661
25974SOL     OW81323   1.850   1.239   5.965 -0.1335  0.2493  0.1411
25974SOL    HW181324   1.931   1.206   5.925 -0.7397 -0.3538 -0.6133
25974SOL    HW281325   1.866   1.332   5.978  0.6086  0.1778 -0.1929
25975SOL     OW81326   3.533   0.867   2.418  0.4559  0.0431  0.0887
25975SOL    HW181327   3.485   0.932   2.469  1.6550  2.2867 -1.4565
25975SOL    HW281328   3.564   0.914   2.341  3.2604 -1.7797 -0.0792
25976SOL     OW81329   9.919   2.569   0.581  0.3750 -0.3561 -0.1778
25976SOL    HW181330   9.898   2.477   0.569  0.5382 -0.5574  0.9269
25976SOL    HW281331   9.953   2.598   0.496  1.2924 -1.5821 -0.2547
25977SOL     OW81332   1.007   4.684   2.062 -0.4992  0.2022  0.1810
25977SOL    HW181333   1.074   4.726   2.115  0.3519 -1.1949  0.2637
25977SOL    HW281334   1.028   4.591   2.067 -0.6173 -0.0186 -2.3178
25978SOL     OW81335  10.817   4.854   3.230  0.3138 -0.2675 -0.3646
25978SOL    HW181336  10.775   4.801   3.163 -0.4511 -1.2929  0.8941
25978SOL    HW281337  10.910   4.836   3.220  0.1527 -0.9008 -0.7394
25979SOL     OW81338   5.357   4.333   0.693  0.2941 -0.0380  0.1034
25979SOL    HW181339   5.391   4.245   0.712  1.2571  0.2975 -0.0099
25979SOL    HW281340   5.262   4.322   0.693  0.3651 -0.8614  1.1658
25980SOL     OW81341   2.181   7.322   2.548 -0.3516 -0.2672  0.0436
25980SOL    HW181342   2.150   7.411   2.565  0.9853  0.7974 -2.5509
25980SOL    HW281343   2.225   7.296   2.629 -0.5714  1.5181  0.7896
25981SOL     OW81344   5.976   0.683   2.309  0.5621  0.0320 -0.8422
25981SOL    HW181345   5.903   0.698   2.248 -0.4860  2.0132  0.7752
25981SOL    HW281346   6.033   0.758   2.296  1.3481 -0.5373 -0.7266
25982SOL     OW81347   2.029   8.254   3.818  0.0922 -0.3501  0.6823
25982SOL    HW181348   2.108   8.242   3.872 -0.4651 -2.3232  1.1539
25982SOL    HW281349   2.052   8.214   3.734 -0.7602 -2.1330  1.2336
25983SOL     OW81350   8.554   6.046   5.218 -0.2635  0.1933 -0.5050
25983SOL    HW181351   8.495   6.018   5.288  0.5672  1.7895  0.9318
25983SOL    HW281352   8.554   6.142   5.224  2.1064  0.2712 -0.7452
25984SOL     OW81353   6.943   9.351   5.635  0.0994  0.1118  0.4630
25984SOL    HW181354   6.968   9.427   5.687  2.8019 -0.5458  0.2780
25984SOL    HW281355   6.852   9.369   5.609 -0.1775  2.0820  2.4310
25985SOL     OW81356   4.680   2.680   4.866 -0.3391  0.0838  0.1736
25985SOL    HW181357   4.718   2.592   4.859  1.4782  0.8547 -0.0718
25985SOL    HW281358   4.735   2.725   4.930  0.3067  1.8035 -1.5014
25986SOL     OW81359   5.839   7.584  10.499  0.2677 -0.0707 -0.2708
25986SOL    HW181360   5.845   7.499  10.542  0.3358 -0.2907 -0.7107
25986SOL    HW281361   5.925   7.623  10.512  0.5729 -0.5066 -0.9703
25987SOL     OW81362   8.762   3.751   6.919  0.5127  0.4071 -0.5346
25987SOL    HW181363   8.731   3.762   7.010  2.4989  3.6324 -0.0689
25987SOL    HW281364   8.838   3.810   6.913  2.1873 -1.8205 -3.5451
25988SOL     OW81365   6.472   1.616   3.492 -0.2405  0.3377 -0.4549
25988SOL    HW181366   6.482   1.707   3.462  0.4323 -0.0477 -1.4452
25988SOL    HW281367   6.455   1.624   3.586  1.1794  1.4436 -0.2523
25989SOL     OW81368   9.643   9.616  10.880 -0.9072 -0.3096 -0.0007
25989SOL    HW181369   9.674   9.699  10.844 -1.3411 -0.5607 -0.9832
25989SOL    HW281370   9.722   9.572  10.910 -0.7498  0.7676  1.2245
25990SOL     OW81371   0.485   2.334   6.087  0.0197 -0.0329 -0.0703
25990SOL    HW181372   0.497   2.281   6.009 -1.4542 -0.8144  0.2047
25990SOL    HW281373   0.527   2.283   6.157  0.2160  0.0528 -0.1252
25991SOL     OW81374   7.460   2.143  10.415  0.0501  0.1671  0.1702
25991SOL    HW181375   7.425   2.058  10.389  0.2894 -0.0990  0.6984
25991SOL    HW281376   7.445   2.200  10.339  0.0984 -0.4044 -0.2698
25992SOL     OW81377   6.791   3.521   8.317  0.5322 -0.0385  0.2644
25992SOL    HW181378   6.857   3.482   8.259  1.0858 -0.4586  1.1622
25992SOL    HW281379   6.756   3.448   8.367 -1.2749  0.0445 -0.8024
25993SOL     OW81380   5.503   8.822   1.361  0.1071 -0.3722 -0.4495
25993SOL    HW181381   5.554   8.771   1.298  1.7479 -1.1765  1.4112
25993SOL    HW281382   5.458   8.756   1.415  1.5020  0.0673  1.3796
25994SOL     OW81383  10.822   2.816   0.807 -0.4886 -0.3767  0.0521
25994SOL    HW181384  10.830   2.734   0.856 -0.4466 -0.1325  0.4576
25994SOL    HW281385  10.788   2.879   0.871  1.6809  0.5209  0.3921
25995SOL     OW81386   2.296   8.414   3.329 -0.9480  0.1824 -0.8497
25995SOL    HW181387   2.360   8.352   3.295 -2.3036 -0.7667 -1.7911
25995SOL    HW281388   2.219   8.403   3.271 -1.9180  1.3366  0.1654
25996SOL     OW81389   3.654   1.270   5.171  0.0041  0.1221 -0.3325
25996SOL    HW181390   3.634   1.199   5.233 -0.0416 -0.7643 -1.3294
25996SOL    HW281391   3.571   1.285   5.126 -0.0811  1.0863  0.1344
25997SOL     OW81392   2.187   3.932   1.734  0.3673 -0.2571 -0.1219
25997SOL    HW181393   2.237   3.993   1.680 -0.7230  1.4036  0.6524
25997SOL    HW281394   2.116   3.902   1.678  0.0384  0.3842 -0.0619
25998SOL     OW81395   4.111   2.571   8.042  0.0755  0.4701  0.1519
25998SOL    HW181396   4.109   2.588   7.948 -0.7435  0.6100  0.1945
25998SOL    HW281397   4.068   2.646   8.082 -3.5654 -1.5083  0.3420
25999SOL     OW81398   3.863   0.774   9.933  0.0670  0.3143  0.7871
25999SOL    HW181399   3.826   0.708   9.991 -0.4054  2.4217  3.0308
25999SOL    HW281400   3.789   0.830   9.908  0.7254  1.0447  0.4032
26000SOL     OW81401   6.292   2.882   7.323 -0.0713 -0.6640  0.0921
26000SOL    HW181402   6.269   2.834   7.243 -0.7720  2.5038 -1.8024
26000SOL    HW281403   6.384   2.862   7.337  0.1369 -1.1271 -1.6671
26001SOL     OW81404   0.808  10.603   1.741  0.6763 -0.0500  0.3368
26001SOL    HW181405   0.768  10.604   1.828 -2.6718  1.6437 -1.0122
26001SOL    HW281406   0.742  10.644   1.685  1.7776 -2.8172 -3.3843
26002SOL     OW81407   4.922   1.852   3.549 -0.0290 -0.5382  0.0710
26002SOL    HW181408   4.930   1.926   3.609 -0.7065 -1.5962  1.5302
26002SOL    HW281409   4.835   1.861   3.510 -0.2852 -0.7702  0.5717
26003SOL     OW81410   4.943   2.619   2.718  0.0342 -0.7015 -0.0895
26003SOL    HW181411   4.873   2.641   2.657  0.4279  0.3747 -0.1622
26003SOL    HW281412   5.014   2.679   2.696  0.2313 -0.3892  1.3203
26004SOL     OW81413   1.243   8.943   8.023  0.5164  0.0737  0.0764
26004SOL    HW181414   1.289   9.026   8.009 -0.8662  0.7255 -0.7913
26004SOL    HW281415   1.205   8.951   8.111  0.3816  0.3622 -0.0091
26005SOL     OW81416   7.261   2.810   6.473  0.0089 -0.7596 -0.0778
26005SOL    HW181417   7.341   2.757   6.479  0.0288 -0.7861 -0.5920
26005SOL    HW281418   7.201   2.757   6.421 -0.4868 -0.9114  0.6328
26006SOL     OW81419   5.151   9.749   2.453  0.1934  0.6292 -0.5772
26006SOL    HW181420   5.169   9.664   2.493 -1.1853  0.9885  0.9253
26006SOL    HW281421   5.063   9.740   2.416  0.4080  1.1327 -1.2328
26007SOL     OW81422   4.149   1.673   7.431  1.0393  0.2861 -0.8603
26007SOL    HW181423   4.225   1.641   7.384  1.6560  1.4570 -0.7060
26007SOL    HW281424   4.161   1.641   7.521  1.5588  0.7696 -0.7479
26008SOL     OW81425   5.306   7.459   2.805  0.1152  0.0249 -0.1626
26008SOL    HW181426   5.311   7.411   2.722 -0.4758  0.7646 -0.6388
26008SOL    HW281427   5.381   7.428   2.856  1.3100  0.6067 -1.5277
26009SOL     OW81428   0.902   1.449   0.003 -0.4287 -0.0267 -0.1861
26009SOL    HW181429   0.890   1.544   0.013  0.5457  0.2121 -1.0245
26009SOL    HW281430   0.872   1.412   0.086 -1.5473  0.9438 -0.1296
26010SOL     OW81431   7.753   9.848   7.191 -0.0137  0.4789 -0.1727
26010SOL    HW181432   7.666   9.882   7.213  0.5848  0.9668  1.6501
26010SOL    HW281433   7.778   9.795   7.267  1.4330  0.6501 -0.4948
26011SOL     OW81434  10.018   1.642   5.338  0.1832  0.7389  0.3068
26011SOL    HW181435   9.932   1.607   5.314  0.0238  1.4901 -0.2733
26011SOL    HW281436  10.081   1.584   5.295 -0.0457  0.4694  0.3346
26012SOL     OW81437  10.773   3.826   7.473 -0.3247 -0.0416  0.0834
26012SOL    HW181438  10.763   3.774   7.553 -0.5896  1.2802  0.9294
26012SOL    HW281439  10.696   3.805   7.422 -0.3427 -0.6133  0.3334
26013SOL     OW81440   3.373   4.452   1.068  0.4704 -0.0475  0.3121
26013SOL    HW181441   3.448   4.417   1.116  0.7022 -1.9116 -1.3065
26013SOL    HW281442   3.398   4.446   0.976 -0.4271  2.3132 -0.1599
26014SOL     OW81443  10.141  10.814   1.416 -0.3253  0.5774 -0.2076
26014SOL    HW181444  10.142  10.785   1.325 -0.5664  0.9359 -0.3243
26014SOL    HW281445  10.177  10.902   1.414  0.0984  0.4160  0.1050
26015SOL     OW81446   9.985   9.379   7.326  0.1013 -0.4224 -0.1680
26015SOL    HW181447   9.999   9.423   7.241  0.8651  1.6844  0.9708
26015SOL    HW281448   9.896   9.404   7.351  0.1154 -0.4868 -0.0549
26016SOL     OW81449   1.320   5.714   3.300 -0.0335  0.1057 -0.3026
26016SOL    HW181450   1.243   5.660   3.319  0.8302 -0.8453  0.5779
26016SOL    HW281451   1.392   5.652   3.293  0.5267  0.9017 -2.0497
26017SOL     OW81452   9.650   8.533   6.474 -0.9947  0.2694  0.1437
26017SOL    HW181453   9.696   8.480   6.539  0.0177  0.0228 -0.7599
26017SOL    HW281454   9.559   8.534   6.505 -0.5520  0.1046  1.5219
26018SOL     OW81455   1.541   1.655   8.629 -0.4997  0.7249 -0.0440
26018SOL    HW181456   1.609   1.721   8.643  0.5565 -0.1721 -0.7148
26018SOL    HW281457   1.498   1.646   8.713 -0.0533  1.5990  0.2945
26019SOL     OW81458   3.445   3.167   7.780 -0.1951  0.1153  0.0137
26019SOL    HW181459   3.354   3.165   7.810 -0.7359 -3.0153 -1.3332
26019SOL    HW281460   3.443   3.118   7.697  2.7429 -0.2356  0.0468
26020SOL     OW81461   1.388   2.053   4.820  0.1281 -0.0464 -0.6420
26020SOL    HW181462   1.335   1.973   4.814  1.4786 -0.9490 -0.8817
26020SOL    HW281463   1.403   2.079   4.729  0.6394 -0.1703 -0.5945
26021SOL     OW81464   7.990   4.990  10.594 -0.2628 -0.2528 -0.3032
26021SOL    HW181465   8.040   4.912  10.616 -0.1605 -0.1532 -0.1829
26021SOL    HW281466   7.906   4.957  10.564 -1.0388 -0.3520  1.8136
26022SOL     OW81467   3.580   1.091   6.674 -0.3461 -0.0598  0.1401
26022SOL    HW181468   3.600   1.003   6.644 -0.8971 -0.5585  1.1754
26022SOL    HW281469   3.587   1.086   6.769 -0.6056  0.9591  0.2235
26023SOL     OW81470   4.575   6.434   8.321 -0.1551 -0.1154 -0.7666
26023SOL    HW181471   4.665   6.463   8.313  0.1661 -0.5998  0.8380
26023SOL    HW281472   4.578   6.360   8.382 -1.1562 -2.5479 -3.4170
26024SOL     OW81473   1.244   4.486   5.371 -0.5871  0.1867  0.0310
26024SOL    HW181474   1.314   4.423   5.359 -1.2422 -0.5929  0.2379
26024SOL    HW281475   1.223   4.517   5.283  0.0452  0.4620 -0.0237
26025SOL     OW81476   3.048   4.595   0.667  0.2512 -0.2107 -0.2802
26025SOL    HW181477   3.001   4.638   0.738  1.7413  2.1335 -0.6139
26025SOL    HW281478   3.058   4.662   0.600  1.9322 -1.3350 -1.2379
26026SOL     OW81479   4.727   6.952   2.793 -0.1223  0.6795  0.3388
26026SOL    HW181480   4.732   6.915   2.880 -0.1669  0.0060  0.0574
26026SOL    HW281481   4.708   6.878   2.735  3.9603  0.3374 -0.8238
26027SOL     OW81482  10.164   3.122   6.857  0.3606  0.3614 -0.8745
26027SOL    HW181483  10.126   3.188   6.915 -0.5063  0.8824 -2.0019
26027SOL    HW281484  10.094   3.058   6.845  0.6131  0.1373 -1.1733
26028SOL     OW81485   6.747   8.264   0.466 -0.2577  0.6862  0.1086
26028SOL    HW181486   6.684   8.226   0.526 -0.2500  0.7053  0.1287
26028SOL    HW281487   6.742   8.208   0.388  1.2618 -0.6631  0.9016
26029SOL     OW81488   3.738   3.526   1.322 -0.7184 -0.0216  0.4190
26029SOL    HW181489   3.643   3.537   1.312 -0.6951  0.7139  0.8891
26029SOL    HW281490   3.747   3.468   1.397 -0.8035 -0.7321 -0.1136
26030SOL     OW81491  10.656   4.054   7.555 -0.1295  0.1526 -0.6923
26030SOL    HW181492  10.727   4.118   7.561 -0.0485 -0.0205  0.5530
26030SOL    HW281493  10.701   3.969   7.548 -0.2196  0.1314 -0.9877
26031SOL     OW81494   4.431   2.585   2.592 -0.2635  0.1585 -0.5640
26031SOL    HW181495   4.448   2.534   2.512 -1.5923  0.2426 -0.9394
26031SOL    HW281496   4.335   2.593   2.594 -0.3835 -1.0440  1.7848
26032SOL     OW81497   9.673   3.143   1.847  0.2590 -0.1968 -0.5888
26032SOL    HW181498   9.580   3.155   1.829 -0.1903 -0.8799  1.1224
26032SOL    HW281499   9.683   3.049   1.863  1.0406  0.0160  0.2830
26033SOL     OW81500   4.957   5.105   7.129  0.8827  0.0205  0.6560
26033SOL    HW181501   5.023   5.037   7.137  0.4915 -0.3344  0.9037
26033SOL    HW281502   4.874   5.058   7.134  0.5964  0.3495 -0.5157
26034SOL     OW81503   5.711   9.533   6.031 -0.1518  0.1588 -0.7486
26034SOL    HW181504   5.687   9.449   5.991 -0.2085 -0.9490  1.4238
26034SOL    HW281505   5.659   9.598   5.984  0.3532 -0.9219 -2.9001
26035SOL     OW81506  10.471   5.639   5.155  0.1800  0.3625  0.8865
26035SOL    HW181507  10.480   5.580   5.080  0.5437 -1.2287  2.1310
26035SOL    HW281508  10.394   5.692   5.134  1.5769  1.6195 -1.6465
26036SOL     OW81509   1.578   2.421   7.190 -0.2829  0.1877  0.3641
26036SOL    HW181510   1.602   2.512   7.170 -1.5114  0.2653 -0.8557
26036SOL    HW281511   1.662   2.375   7.197  0.3124  1.1841 -0.1369
26037SOL     OW81512   2.347   1.077   5.207  0.5588 -0.2642  0.1455
26037SOL    HW181513   2.262   1.047   5.241  0.7015  0.8726  1.6193
26037SOL    HW281514   2.387   0.998   5.171 -0.9226 -0.9190 -0.1515
26038SOL     OW81515   2.353   9.720   4.750 -0.5206  0.1272  0.2993
26038SOL    HW181516   2.281   9.663   4.777 -0.6938  1.1297  2.1985
26038SOL    HW281517   2.311   9.803   4.729  0.0530  0.8637  1.8654
26039SOL     OW81518   2.346   3.701   2.583  0.2416 -0.0980  0.2204
26039SOL    HW181519   2.314   3.623   2.537  0.0806  0.1183 -0.0370
26039SOL    HW281520   2.435   3.713   2.551 -0.0357  0.3286 -0.3923
26040SOL     OW81521   0.541   4.053   4.088 -0.0670  0.1193 -0.2559
26040SOL    HW181522   0.485   3.986   4.128 -0.1785  0.4151  0.0933
26040SOL    HW281523   0.521   4.133   4.136  0.9254  0.1562  0.1398
26041SOL     OW81524   5.981   8.326   5.364 -0.2068 -0.3626 -0.3656
26041SOL    HW181525   6.024   8.329   5.449 -0.4180 -0.9017 -0.2330
26041SOL    HW281526   5.996   8.412   5.326 -1.4630  0.4457  0.8769
26042SOL     OW81527   5.542   5.023  10.856  0.2112 -0.5750 -0.0877
26042SOL    HW181528   5.492   4.969  10.917 -1.2983  2.1800  1.3011
26042SOL    HW281529   5.490   5.023  10.776 -0.5749 -0.0449  0.4032
26043SOL     OW81530   0.897   2.110   4.032  0.0025 -0.3955  0.5274
26043SOL    HW181531   0.982   2.152   4.041  0.2959 -0.8599  0.0347
26043SOL    HW281532   0.892   2.049   4.106 -0.0555 -0.1137  0.7560
26044SOL     OW81533   9.606   9.252   0.768  0.3167 -0.1540  0.0630
26044SOL    HW181534   9.561   9.225   0.689  0.6319  3.4534 -1.5767
26044SOL    HW281535   9.682   9.301   0.736  1.6400 -0.3434  2.6544
26045SOL     OW81536   8.414   2.994   8.793 -0.0453 -0.6294  0.3000
26045SOL    HW181537   8.492   3.009   8.848  0.7389 -1.0523 -0.6590
26045SOL    HW281538   8.390   2.903   8.811  0.6773 -1.0190 -0.5824
26046SOL     OW81539   9.318   3.527   6.827  0.0939  0.1407  0.4832
26046SOL    HW181540   9.266   3.606   6.814 -0.9436 -0.4849  0.7524
26046SOL    HW281541   9.297   3.471   6.753 -1.6733 -1.1916  1.9143
26047SOL     OW81542   3.288  10.625  10.783  0.0188 -0.0125 -0.3286
26047SOL    HW181543   3.302  10.638  10.877  1.2872  0.5169 -0.5668
26047SOL    HW281544   3.347  10.553  10.759 -0.0383  0.0865 -0.7813
26048SOL     OW81545   5.816   6.542   0.121 -0.1443 -0.2423 -0.7612
26048SOL    HW181546   5.735   6.500   0.150 -1.6277  1.8261 -1.6881
26048SOL    HW281547   5.821   6.523   0.027  0.2220 -0.0412 -0.7856
26049SOL     OW81548   6.287  10.479   1.300 -0.0319  0.4797 -0.1502
26049SOL    HW181549   6.203  10.483   1.345  0.1623 -0.0202  0.2619
26049SOL    HW281550   6.338  10.413   1.348  0.9437  1.4483  0.1839
26050SOL     OW81551   4.821   8.366   8.678 -0.0505 -0.3881 -0.5930
26050SOL    HW181552   4.789   8.442   8.726  0.6333  0.2442 -1.1085
26050SOL    HW281553   4.903   8.396   8.637  0.6974 -1.6563 -0.1043
26051SOL     OW81554   2.846   1.399   4.220  0.1126 -0.5251  0.0620
26051SOL    HW181555   2.815   1.356   4.299  0.4593 -2.6096 -0.8627
26051SOL    HW281556   2.766   1.428   4.176 -0.0845  0.5442  1.0952
26052SOL     OW81557   1.236   8.241   4.558  0.0591  0.0514 -0.0196
26052SOL    HW181558   1.159   8.219   4.506 -0.1952  0.5649  0.1285
26052SOL    HW281559   1.305   8.255   4.494  0.0721 -0.5743 -0.1444
26053SOL     OW81560   2.259   1.540   9.757  0.0237 -0.1299 -0.8616
26053SOL    HW181561   2.243   1.551   9.851 -0.1945 -1.3649 -0.7454
26053SOL    HW281562   2.305   1.620   9.731 -0.0877  0.3068  0.2582
26054SOL     OW81563   8.008   9.000   1.433 -0.4871  0.1558 -0.1363
26054SOL    HW181564   7.916   9.009   1.409 -1.0326 -1.7077  1.0372
26054SOL    HW281565   8.051   9.076   1.394 -2.1305 -0.0927 -2.5928
26055SOL     OW81566   5.742   8.248  10.333  0.2918 -0.0047 -0.3208
26055SOL    HW181567   5.764   8.332  10.374 -1.3624  0.3257 -0.0495
26055SOL    HW281568   5.745   8.266  10.239 -1.0030  0.6425 -0.2582
26056SOL     OW81569   7.562  10.533   9.134 -0.6306  0.3274 -0.4920
26056SOL    HW181570   7.538  10.625   9.129  1.2835  0.8762 -0.5706
26056SOL    HW281571   7.503  10.489   9.073 -0.0905  1.8586 -2.1995
26057SOL     OW81572  10.116   0.336   7.110  0.4122  0.2195 -0.4597
26057SOL    HW181573  10.203   0.369   7.087  1.6000 -1.5352  1.2693
26057SOL    HW281574  10.104   0.259   7.054 -1.3240  1.9974 -2.7359
26058SOL     OW81575   6.463   1.303   4.469 -0.7099  0.4873  0.2354
26058SOL    HW181576   6.485   1.260   4.551  0.1080 -0.7328 -0.5877
26058SOL    HW281577   6.526   1.374   4.461  0.0348 -0.1832  0.0663
26059SOL     OW81578   0.897   2.036   5.263 -0.1295 -0.3259 -0.0969
26059SOL    HW181579   0.835   2.109   5.271 -0.7791 -0.8988  0.1634
26059SOL    HW281580   0.969   2.060   5.322 -0.9946 -0.5398  1.0959
26060SOL     OW81581   2.898   7.308   7.179 -0.0917  0.5929 -0.0533
26060SOL    HW181582   2.979   7.337   7.136  0.1358 -0.6974 -0.5171
26060SOL    HW281583   2.851   7.259   7.112 -0.2879 -0.4329  0.8215
26061SOL     OW81584   4.081   7.307   9.028 -0.1270  0.0152  0.2383
26061SOL    HW181585   4.166   7.280   9.064  1.4153 -0.0053 -3.0646
26061SOL    HW281586   4.074   7.400   9.051 -0.1950 -0.4240  2.1751
26062SOL     OW81587   5.155   9.100   9.544 -0.4395 -0.2487  0.2409
26062SOL    HW181588   5.125   9.082   9.455 -0.7169 -0.6565  0.4102
26062SOL    HW281589   5.075   9.094   9.597  0.0404 -2.1315  0.8112
26063SOL     OW81590   9.432   7.806   4.291 -0.5067 -0.0556 -0.0266
26063SOL    HW181591   9.406   7.897   4.298 -3.4480 -0.7903 -0.1560
26063SOL    HW281592   9.398   7.765   4.370  1.1108 -1.0240  0.2248
26064SOL     OW81593   4.815   1.668   6.020 -0.0929  0.2306 -0.0146
26064SOL    HW181594   4.731   1.706   6.046 -0.1457  1.1984 -1.5055
26064SOL    HW281595   4.880   1.720   6.067 -0.2934 -1.1640  1.9504
26065SOL     OW81596   1.441   2.423  10.750 -0.1533  0.7177 -0.1332
26065SOL    HW181597   1.486   2.463  10.824 -0.8101  0.2915  0.5122
26065SOL    HW281598   1.361   2.385  10.788 -0.0899 -0.2406 -0.9028
26066SOL     OW81599   3.912   3.250   2.197  0.0548 -0.4009  0.1880
26066SOL    HW181600   4.008   3.249   2.204  0.0888 -1.8553 -0.1755
26066SOL    HW281601   3.893   3.318   2.133  0.8658 -0.2711  0.0792
26067SOL     OW81602   3.613   7.546   4.938  0.1584  0.2492  0.1401
26067SOL    HW181603   3.546   7.608   4.965  0.1919  0.6776 -0.7177
26067SOL    HW281604   3.575   7.460   4.957 -0.5685  0.4943 -0.1789
26068SOL     OW81605  10.019   1.994   7.428  0.6007  0.2505 -0.0155
26068SOL    HW181606   9.930   1.988   7.393  0.4338  0.2596  0.4098
26068SOL    HW281607  10.014   2.060   7.496  0.8546 -0.0177  0.2672
26069SOL     OW81608   0.007   1.891   4.569  0.5500  0.2917 -0.2851
26069SOL    HW181609  -0.007   1.968   4.514 -0.6409 -0.5808 -1.2861
26069SOL    HW281610   0.018   1.819   4.507  0.9458 -0.4504  0.6246
26070SOL     OW81611   9.078   7.781   1.677 -0.2810  0.1213  0.3359
26070SOL    HW181612   8.994   7.734   1.672  0.2587 -0.7325 -2.4955
26070SOL    HW281613   9.138   7.718   1.717 -0.6227  0.1901  0.9782
26071SOL     OW81614   0.777   5.257   1.970 -0.1051  0.0692  0.0349
26071SOL    HW181615   0.828   5.270   1.889 -1.2416  1.3035 -0.5173
26071SOL    HW281616   0.701   5.314   1.960  1.5002  3.2932  3.5722
26072SOL     OW81617   1.888   1.861   3.229  0.2705  0.1006  0.5065
26072SOL    HW181618   1.963   1.898   3.277 -1.0784  1.0138  2.0034
26072SOL    HW281619   1.886   1.911   3.147  1.1418  0.2272  0.5441
26073SOL     OW81620   2.363   5.734   2.055 -0.2376  0.2555 -0.0736
26073SOL    HW181621   2.407   5.818   2.041 -2.2810  1.5122  0.6073
26073SOL    HW281622   2.345   5.731   2.149 -2.3208  0.2226 -0.4176
26074SOL     OW81623   6.355   9.103  10.749 -0.7477 -0.3394 -0.1118
26074SOL    HW181624   6.400   9.188  10.755  0.3734 -1.0176  2.4817
26074SOL    HW281625   6.264   9.122  10.769  0.0430 -0.0559  3.9732
26075SOL     OW81626  10.653   9.454   5.746  0.2655  0.1088 -0.1349
26075SOL    HW181627  10.734   9.494   5.780  0.8220 -0.9519 -0.1646
26075SOL    HW281628  10.614   9.411   5.822  0.0204  0.1384 -0.2427
26076SOL     OW81629   0.748   6.347   8.158 -0.6111 -0.0756 -0.8589
26076SOL    HW181630   0.709   6.413   8.101  0.5874  0.7256 -0.7762
26076SOL    HW281631   0.763   6.391   8.241  1.7140  0.0996 -1.2957
26077SOL     OW81632   1.586   9.827   6.967 -0.2266  0.0892 -0.6995
26077SOL    HW181633   1.579   9.749   6.912  0.7020 -1.0450  0.7216
26077SOL    HW281634   1.501   9.869   6.960 -0.9793 -1.4164 -0.9946
26078SOL     OW81635   2.554   0.133   0.764 -0.7623 -0.2729  0.3836
26078SOL    HW181636   2.517   0.103   0.681 -1.5401 -0.9710  0.9672
26078SOL    HW281637   2.545   0.228   0.762  0.9438 -0.0913 -1.1257
26079SOL     OW81638   9.771   5.865  10.749 -0.0654 -0.6471  0.1040
26079SOL    HW181639   9.864   5.866  10.772 -0.1642 -0.4470  0.5002
26079SOL    HW281640   9.758   5.947  10.702 -0.3890  0.1232  1.4735
26080SOL     OW81641   0.715   4.106   0.180 -0.0874 -0.0337 -0.1260
26080SOL    HW181642   0.669   4.084   0.099  0.2175  0.7507 -0.5220
26080SOL    HW281643   0.661   4.069   0.249  0.0089 -1.3421 -0.7155
26081SOL     OW81644   6.505   1.437   9.427  0.0479 -0.1601 -0.3305
26081SOL    HW181645   6.557   1.506   9.468 -1.4962  1.9403 -1.7176
26081SOL    HW281646   6.563   1.401   9.360  1.0127 -0.5541  0.6750
26082SOL     OW81647   5.508   9.977   8.176 -0.6513  0.0196 -0.3714
26082SOL    HW181648   5.535  10.013   8.091 -0.7563  0.5540 -0.1834
26082SOL    HW281649   5.413   9.980   8.175 -0.6361  1.5703  0.4009
26083SOL     OW81650   7.180   0.961  10.463  0.0256  0.3153  0.0079
26083SOL    HW181651   7.112   0.969  10.395 -0.4963  2.4547  0.7044
26083SOL    HW281652   7.131   0.954  10.545  0.6325  0.4740  0.3913
26084SOL     OW81653   3.172   8.171   1.494 -0.3201 -0.6594  0.5159
26084SOL    HW181654   3.236   8.189   1.563  1.0818  3.1584 -1.4764
26084SOL    HW281655   3.089   8.206   1.528 -0.1107 -0.6841  1.0590
26085SOL     OW81656   3.168   7.061   6.900 -0.0488  0.8668 -0.1212
26085SOL    HW181657   3.194   7.054   6.992  1.0881  0.3501 -0.4591
26085SOL    HW281658   3.076   7.034   6.899  0.2136 -0.1482  0.7215
26086SOL     OW81659   8.765   3.111   8.641 -0.2411  0.2207  0.0309
26086SOL    HW181660   8.699   3.108   8.572 -1.1837 -1.4855  0.9238
26086SOL    HW281661   8.767   3.202   8.670 -0.7041  0.7043 -1.3935
26087SOL     OW81662  10.037   8.723   1.767 -0.2939 -0.3263  0.5441
26087SOL    HW181663  10.044   8.649   1.707  3.4095  0.3739 -0.1363
26087SOL    HW281664  10.009   8.796   1.712  0.5947 -0.2550  0.1629
26088SOL     OW81665   4.280   8.072   8.555  0.0786 -0.0700  0.0078
26088SOL    HW181666   4.364   8.073   8.510 -0.9116  0.2756 -1.9614
26088SOL    HW281667   4.291   8.010   8.626  1.7071 -0.7587 -0.7965
26089SOL     OW81668   6.291   5.403   9.857 -0.6940 -0.1275  0.5071
26089SOL    HW181669   6.306   5.476   9.918 -0.3295  0.0399  0.2205
26089SOL    HW281670   6.219   5.433   9.802 -0.2756  0.1918  0.1235
26090SOL     OW81671   7.831   4.080   1.801 -0.6998 -0.1025 -0.4052
26090SOL    HW181672   7.821   3.995   1.759  0.2800  0.1862 -1.2629
26090SOL    HW281673   7.901   4.123   1.753  0.4799  0.2705  1.5197
26091SOL     OW81674   7.534   6.121   3.488  1.0264 -0.0538  0.1506
26091SOL    HW181675   7.572   6.071   3.416  2.7749  1.2291  0.1101
26091SOL    HW281676   7.528   6.210   3.454  1.0415  0.3948  1.2852
26092SOL     OW81677   1.039   6.553   1.773 -0.6155 -0.7721 -0.1179
26092SOL    HW181678   1.030   6.462   1.743 -2.3424 -0.7819  0.3302
26092SOL    HW281679   1.076   6.544   1.861  0.4507 -0.9599 -0.5740
26093SOL     OW81680   2.006   3.400   7.225  0.0968  0.7930 -0.0430
26093SOL    HW181681   1.954   3.479   7.209 -0.4492 -0.0722 -3.2663
26093SOL    HW281682   1.943   3.328   7.216  1.2280 -0.1414 -0.6903
26094SOL     OW81683   4.220   8.167   4.997  0.0115 -0.6713 -0.3980
26094SOL    HW181684   4.232   8.208   5.082 -1.7315  2.0053 -1.2988
26094SOL    HW281685   4.279   8.214   4.939 -1.6085  0.2926 -1.3568
26095SOL     OW81686   8.382   4.819   2.426 -0.4875 -0.1866  0.3343
26095SOL    HW181687   8.390   4.896   2.482  1.4931 -0.1936  0.1382
26095SOL    HW281688   8.382   4.745   2.486  3.0193 -0.2808  0.4107
26096SOL     OW81689   6.416   9.897   2.576 -0.3491 -0.3764 -0.3953
26096SOL    HW181690   6.325   9.874   2.596 -0.2369 -0.3234  0.2049
26096SOL    HW281691   6.413   9.930   2.486 -1.0683  0.3897 -0.1123
26097SOL     OW81692   1.251   0.115   5.561  0.1653 -0.1945 -0.4303
26097SOL    HW181693   1.303   0.056   5.615  0.7660 -0.2639 -1.0787
26097SOL    HW281694   1.243   0.070   5.477 -0.4455  0.0801 -0.5246
26098SOL     OW81695   5.431   3.729   7.712 -0.9423  0.1538 -0.2269
26098SOL    HW181696   5.505   3.703   7.767 -0.5778  1.0765 -0.2558
26098SOL    HW281697   5.353   3.709   7.765 -0.5665  3.1854  1.6948
26099SOL     OW81698   6.368   2.549   7.496  0.0979 -0.7184  0.1734
26099SOL    HW181699   6.382   2.460   7.463  1.1523 -0.6765  0.4426
26099SOL    HW281700   6.451   2.571   7.539 -0.3998  0.1267  0.7368
26100SOL     OW81701   6.672  10.534   3.832  0.1458  0.5588  0.0856
26100SOL    HW181702   6.739  10.546   3.765  0.3730  1.1376  0.4076
26100SOL    HW281703   6.661  10.439   3.838 -1.3511  0.5391 -2.1776
26101SOL     OW81704  10.108   3.994   3.205  0.1149 -0.0257  0.8951
26101SOL    HW181705  10.111   4.086   3.231 -0.9093  0.4144 -0.4607
26101SOL    HW281706  10.198   3.964   3.214  0.2289  0.6835  2.7333
26102SOL     OW81707   8.130   2.300   2.729 -0.6930  0.3309  0.4442
26102SOL    HW181708   8.163   2.213   2.755 -0.8451  0.1944  0.1841
26102SOL    HW281709   8.058   2.317   2.790 -2.0819 -0.6778 -0.8454
26103SOL     OW81710   4.782   2.758   4.366  0.3095  0.4698  0.1617
26103SOL    HW181711   4.767   2.852   4.353 -1.3710 -0.0021 -1.6391
26103SOL    HW281712   4.797   2.723   4.278  0.3299 -1.0583  0.7408
26104SOL     OW81713   4.664  10.038   3.253 -0.3766 -0.1412  0.8194
26104SOL    HW181714   4.641   9.976   3.183 -0.3958  0.1575  0.5594
26104SOL    HW281715   4.579  10.066   3.288 -0.4979  1.6446 -0.7338
26105SOL     OW81716   0.776   7.944   7.432 -0.3469 -0.1908 -0.1574
26105SOL    HW181717   0.779   7.936   7.528  0.2198 -0.3782 -0.1869
26105SOL    HW281718   0.868   7.952   7.406 -0.3381 -1.9854 -0.8402
26106SOL     OW81719   3.691   9.336   7.795 -0.4849  0.0574  0.2011
26106SOL    HW181720   3.666   9.416   7.750  0.3821 -0.6472 -1.6120
26106SOL    HW281721   3.786   9.337   7.795 -0.4005  0.3600  2.7298
26107SOL     OW81722   2.638  10.610   5.221 -0.1067 -0.5174 -0.3249
26107SOL    HW181723   2.604  10.537   5.273  2.4513 -1.1793  0.5689
26107SOL    HW281724   2.618  10.688   5.273 -1.2879 -0.7212 -0.4398
26108SOL     OW81725   6.330   6.793   8.379 -0.2439 -0.3774 -0.2717
26108SOL    HW181726   6.291   6.749   8.454 -0.2300 -1.3257 -0.8117
26108SOL    HW281727   6.398   6.849   8.416 -0.4814 -0.5618  0.4498
26109SOL     OW81728   0.399   7.698   7.382 -0.3196 -0.3999  0.2713
26109SOL    HW181729   0.442   7.676   7.299 -2.6651 -0.9896 -0.8604
26109SOL    HW281730   0.335   7.629   7.396 -2.2139  1.3641  0.8756
26110SOL     OW81731   3.844   8.928   6.419 -0.0240 -0.2642  0.1264
26110SOL    HW181732   3.845   8.929   6.515  0.3936 -1.1895  0.1436
26110SOL    HW281733   3.793   8.850   6.397 -1.6139  0.8711 -0.4291
26111SOL     OW81734   2.744   0.663   3.085 -0.0307 -0.1559  0.2702
26111SOL    HW181735   2.654   0.679   3.055  0.1627 -2.0331 -1.5121
26111SOL    HW281736   2.798   0.692   3.012  0.8792  1.1785  1.4244
26112SOL     OW81737   9.480   4.625   5.275  0.5684  0.0419  0.2350
26112SOL    HW181738   9.494   4.652   5.366  0.6814  1.3321 -0.1439
26112SOL    HW281739   9.568   4.602   5.244  1.1858  2.9758 -0.5398
26113SOL     OW81740   7.614   9.134  10.730  0.5097 -0.1966  0.0696
26113SOL    HW181741   7.678   9.158  10.798 -0.5648  0.6383  0.8283
26113SOL    HW281742   7.587   9.218  10.692 -0.4727 -0.4870  0.1004
26114SOL     OW81743   3.658   1.364   5.542  0.0848 -0.5637  0.0795
26114SOL    HW181744   3.628   1.404   5.461 -1.1896 -2.2760 -0.3600
26114SOL    HW281745   3.696   1.280   5.515  0.6862 -0.6611  1.1529
26115SOL     OW81746   3.926   7.996   2.916  0.4178  0.1206  0.3179
26115SOL    HW181747   3.961   7.955   2.837  0.6065 -1.2813  1.1075
26115SOL    HW281748   3.896   8.083   2.886  1.4738  0.0485 -1.0560
26116SOL     OW81749   2.264   7.233   0.032 -0.2243 -0.7723 -0.4632
26116SOL    HW181750   2.349   7.277   0.043 -0.9311  0.8353 -1.0954
26116SOL    HW281751   2.282   7.141   0.050  1.9067 -0.6658 -1.6532
26117SOL     OW81752   3.629   9.830   6.970  0.2798 -0.0927  0.0303
26117SOL    HW181753   3.570   9.768   6.928 -1.2657  0.0027  1.9141
26117SOL    HW281754   3.614   9.913   6.925  0.2663 -0.4502 -0.6340
26118SOL     OW81755   5.744   1.503   6.100 -0.0736  0.1087  0.1636
26118SOL    HW181756   5.733   1.586   6.053  0.6965  0.4347  0.5432
26118SOL    HW281757   5.816   1.459   6.055 -2.0261 -1.5111 -1.6006
26119SOL     OW81758   0.286   5.950   7.997 -0.1548  0.6362  0.1121
26119SOL    HW181759   0.315   5.863   8.025  1.8621  0.3391 -2.4982
26119SOL    HW281760   0.221   5.933   7.929  1.9046  0.9693 -2.0863
26120SOL     OW81761   5.127  10.233   8.434 -0.5997 -0.3770  0.2709
26120SOL    HW181762   5.207  10.285   8.421 -1.4798  0.6204 -1.5878
26120SOL    HW281763   5.056  10.294   8.413 -1.8246 -1.4774  1.1027
26121SOL     OW81764   3.168   1.698   1.567 -0.4348 -0.1179 -0.0571
26121SOL    HW181765   3.085   1.730   1.603 -0.7837 -0.7705 -0.2766
26121SOL    HW281766   3.221   1.777   1.556 -1.0924  0.3279 -0.0853
26122SOL     OW81767   8.500   2.975   2.328 -0.1145 -0.5949  0.3839
26122SOL    HW181768   8.594   2.968   2.312  0.1051  2.0295  0.0951
26122SOL    HW281769   8.461   2.917   2.263  1.2792 -1.8752  0.6266
26123SOL     OW81770   9.248   2.697   9.380  0.5284  0.0574 -0.0696
26123SOL    HW181771   9.304   2.743   9.443  1.7035  0.5109 -1.3998
26123SOL    HW281772   9.169   2.675   9.430  1.8367 -0.5280  1.8498
26124SOL     OW81773   5.348   5.338   1.237 -0.6546  0.0345  0.2493
26124SOL    HW181774   5.308   5.261   1.278  0.5160  0.0689  1.5416
26124SOL    HW281775   5.440   5.335   1.265 -0.4519  1.5955 -0.1436
26125SOL     OW81776   2.018   4.709   6.118 -0.0322 -0.0417 -0.5325
26125SOL    HW181777   2.077   4.641   6.086  0.2607 -0.2495  0.4007
26125SOL    HW281778   2.046   4.789   6.073  0.5947 -0.2493 -0.5249
26126SOL     OW81779   8.037   9.382   8.257 -0.2411 -0.5430 -0.4132
26126SOL    HW181780   7.950   9.420   8.269  0.3801  0.5770  0.8194
26126SOL    HW281781   8.049   9.378   8.162 -1.7483 -1.0322 -0.6065
26127SOL     OW81782   7.352   0.375   9.528  0.1302  0.4568  0.4764
26127SOL    HW181783   7.349   0.296   9.581  0.8584  0.1956  0.1442
26127SOL    HW281784   7.442   0.378   9.494  0.3977  1.9257  1.2377
26128SOL     OW81785   9.159   7.993   4.651 -0.4284 -0.5595  0.1960
26128SOL    HW181786   9.153   7.897   4.650 -0.5058 -0.5520 -0.0092
26128SOL    HW281787   9.071   8.022   4.628 -0.6485 -0.4347  1.1464
26129SOL     OW81788   1.372   3.496   8.697  0.1577  0.4514 -0.0221
26129SOL    HW181789   1.370   3.401   8.690 -0.3950  0.3104  1.5185
26129SOL    HW281790   1.404   3.527   8.612  2.7814 -1.2149  0.2682
26130SOL     OW81791   5.417   2.034  10.838 -0.2053  0.3829 -0.1877
26130SOL    HW181792   5.474   2.108  10.816  1.2652 -0.7763 -0.4420
26130SOL    HW281793   5.435   2.016  10.930 -1.0070  0.7066  0.0385
26131SOL     OW81794   9.025   8.362  10.391 -0.1504 -0.0430 -0.3426
26131SOL    HW181795   9.022   8.444  10.343  1.5670  0.4698  0.3362
26131SOL    HW281796   9.020   8.294  10.323  0.5256  0.6465 -1.1020
26132SOL     OW81797   1.012   7.037   7.759 -0.1059 -0.3179  0.4419
26132SOL    HW181798   1.030   6.957   7.807 -1.7216 -0.5450  0.7349
26132SOL    HW281799   0.923   7.062   7.785  0.6805  2.1061  1.0881
26133SOL     OW81800   6.761  10.272   8.240 -0.2787  0.2118 -0.1015
26133SOL    HW181801   6.668  10.250   8.235 -0.1269 -0.5107  0.1351
26133SOL    HW281802   6.806  10.188   8.229  0.3394  0.5221  0.0298
26134SOL     OW81803   6.394   0.855   9.470  0.7123 -0.2894 -0.7619
26134SOL    HW181804   6.338   0.908   9.412  1.5206  1.2284 -0.2098
26134SOL    HW281805   6.458   0.917   9.504  1.4464 -1.5669  0.2550
26135SOL     OW81806   6.916   3.220   4.120 -0.6167  0.2116 -0.2349
26135SOL    HW181807   6.875   3.276   4.186  2.3580  0.6082  1.4410
26135SOL    HW281808   7.008   3.248   4.118  0.0058 -1.6258 -2.6341
26136SOL     OW81809   3.970   7.639   9.620 -0.2427 -0.3885 -0.0843
26136SOL    HW181810   4.048   7.589   9.645 -0.0420 -0.1885 -0.3105
26136SOL    HW281811   3.908   7.574   9.590  0.0292 -0.5024 -0.4044
26137SOL     OW81812  10.110   7.877   8.194  0.6263 -0.5188 -0.2982
26137SOL    HW181813  10.017   7.896   8.177  0.6070 -0.9113 -0.6395
26137SOL    HW281814  10.109   7.809   8.261  0.6226 -1.7073 -1.4615
26138SOL     OW81815   6.794   3.402   8.742 -0.3297  0.0538  0.0660
26138SOL    HW181816   6.756   3.335   8.800  1.1607  0.8586  2.0735
26138SOL    HW281817   6.887   3.380   8.738 -0.5755 -0.9464 -3.4847
26139SOL     OW81818  10.620   5.584   6.218  0.0237  0.0273 -0.4028
26139SOL    HW181819  10.696   5.525   6.220 -1.5794 -2.1469  0.2739
26139SOL    HW281820  10.639   5.645   6.146  1.5601 -1.6288 -1.4974
26140SOL     OW81821   1.910   3.097   5.088  0.0231  0.5406 -0.1936
26140SOL    HW181822   2.000   3.098   5.123  0.5603  0.2042 -1.4999
26140SOL    HW281823   1.916   3.145   5.006 -1.0073  0.5324 -0.2792
26141SOL     OW81824   3.313   8.795  10.586  0.0066 -0.2728 -0.2500
26141SOL    HW181825   3.353   8.751  10.661 -1.2659  0.7428  1.0975
26141SOL    HW281826   3.266   8.870  10.625  0.3827  1.0467 -2.2068
26142SOL     OW81827   8.516   7.558   5.060  0.1990 -0.5612 -0.0212
26142SOL    HW181828   8.428   7.526   5.076  0.1517  0.0463  1.0583
26142SOL    HW281829   8.554   7.567   5.147  0.5826  1.2439 -0.3263
26143SOL     OW81830   1.304   8.191   1.668  0.1470 -0.2360  0.0401
26143SOL    HW181831   1.385   8.141   1.682 -0.0675 -0.2448  1.3852
26143SOL    HW281832   1.295   8.244   1.747 -1.1977 -0.2790 -0.0617
26144SOL     OW81833   2.805   7.416  10.801 -0.5110 -0.1399 -0.8017
26144SOL    HW181834   2.754   7.446  10.877 -0.7439  0.4828 -1.1923
26144SOL    HW281835   2.879   7.477  10.798 -0.1668 -0.5534 -0.7048
26145SOL     OW81836   4.731   4.125   2.173 -0.0684  0.4465 -0.1238
26145SOL    HW181837   4.728   4.164   2.085  3.6431  2.4209  0.4203
26145SOL    HW281838   4.658   4.166   2.220  0.1112  2.1838 -1.2866
26146SOL     OW81839   1.358   5.890  10.184 -0.0381 -0.3255 -0.2320
26146SOL    HW181840   1.292   5.911  10.118  2.1460  1.0305 -2.1674
26146SOL    HW281841   1.323   5.924  10.266 -1.5391  0.7155 -1.2654
26147SOL     OW81842   2.378   3.491   0.401 -0.2099  0.3197  0.1045
26147SOL    HW181843   2.309   3.517   0.462  0.1226 -0.0730  0.6605
26147SOL    HW281844   2.407   3.405   0.432  1.8547  1.2812  1.1027
26148SOL     OW81845   7.782   9.238   9.698 -0.0800  0.6958  0.0516
26148SOL    HW181846   7.743   9.188   9.770 -0.6761  1.8434  0.5579
26148SOL    HW281847   7.857   9.283   9.737  0.8337 -0.2759 -0.5492
26149SOL     OW81848   4.788   4.824   2.794 -0.1818  0.0539  0.1274
26149SOL    HW181849   4.792   4.729   2.794  0.1372  0.0484  1.8864
26149SOL    HW281850   4.869   4.852   2.751 -1.4482 -0.4339 -2.8057
26150SOL     OW81851   1.854   5.850   5.080  0.3242 -0.1541  0.5392
26150SOL    HW181852   1.808   5.838   4.997 -1.2538 -0.2917  1.3893
26150SOL    HW281853   1.808   5.792   5.141  0.0389  1.5239  2.0047
26151SOL     OW81854   2.618  10.908   8.973  0.2981  0.6084  0.3464
26151SOL    HW181855   2.697  10.883   8.926 -0.4891 -0.3718 -0.5108
26151SOL    HW281856   2.578  10.825   8.999 -0.2360  1.0937  1.1415
26152SOL     OW81857   5.124   9.454   5.543  0.1983 -0.5236  0.3776
26152SOL    HW181858   5.063   9.527   5.530  0.7191 -0.0152  0.7688
26152SOL    HW281859   5.080   9.397   5.606  0.3966  0.1635  1.1461
26153SOL     OW81860   5.553   0.614   3.252 -0.0717  0.6212  0.0340
26153SOL    HW181861   5.488   0.626   3.321 -0.0572  0.3418  0.0957
26153SOL    HW281862   5.621   0.679   3.272  0.9293 -0.7901  1.4710
26154SOL     OW81863   9.902   9.942   7.992 -0.3494  0.4515  0.2742
26154SOL    HW181864   9.994   9.946   8.020 -0.2089  1.3702 -0.2975
26154SOL    HW281865   9.853   9.936   8.073  0.2185 -0.1183  0.5865
26155SOL     OW81866   5.764   6.705   2.153  0.1910 -0.2341 -0.6363
26155SOL    HW181867   5.711   6.782   2.129  0.2945 -0.0864 -0.3987
26155SOL    HW281868   5.727   6.633   2.101 -1.8616 -0.6962  1.3358
26156SOL     OW81869   7.292   1.088   4.233 -0.4016 -0.0784 -0.0718
26156SOL    HW181870   7.323   1.090   4.142  2.4066  2.9846  0.7542
26156SOL    HW281871   7.346   1.020   4.274  2.2884  2.1012  0.3128
26157SOL     OW81872  10.506   7.072   3.224  0.1482 -0.2201  0.0438
26157SOL    HW181873  10.515   6.987   3.182 -1.1972 -0.9585  1.1512
26157SOL    HW281874  10.505   7.053   3.318 -2.0142  0.7653  0.2837
26158SOL     OW81875   7.250   7.350   4.508 -0.2162 -0.2250 -0.4805
26158SOL    HW181876   7.233   7.378   4.598  2.3220  1.7589 -0.5037
26158SOL    HW281877   7.318   7.283   4.517 -0.1380 -0.2024 -0.9076
26159SOL     OW81878   7.259   8.370   1.801  0.1340 -0.2220  0.3770
26159SOL    HW181879   7.304   8.353   1.719 -0.4393  1.7417 -0.3848
26159SOL    HW281880   7.168   8.347   1.784 -0.0786  0.6536  0.2894
26160SOL     OW81881  10.432   8.706   1.621 -0.4768 -0.1644  0.6041
26160SOL    HW181882  10.367   8.740   1.559  1.1549  0.5594 -0.7712
26160SOL    HW281883  10.469   8.629   1.578 -0.2314 -0.4394  1.2812
26161SOL     OW81884   1.091   8.252   5.232 -0.0861 -0.0897 -0.0724
26161SOL    HW181885   1.084   8.200   5.312 -0.7421 -1.3532 -0.9334
26161SOL    HW281886   1.169   8.218   5.188 -0.0466  0.2270 -0.2511
26162SOL     OW81887   7.776   9.154   8.337 -0.1353 -0.2419  0.1714
26162SOL    HW181888   7.854   9.122   8.290 -0.9578 -0.9539 -0.7630
26162SOL    HW281889   7.717   9.079   8.339 -0.5745  0.1111  1.4072
26163SOL     OW81890   3.491   0.732   8.288  0.2689 -0.3937  0.0988
26163SOL    HW181891   3.586   0.726   8.292  0.1561 -1.9792  2.8620
26163SOL    HW281892   3.474   0.790   8.214  3.4147  1.4204  0.6047
26164SOL     OW81893   6.935   9.386   3.530  0.5582  0.1086 -0.0458
26164SOL    HW181894   6.899   9.333   3.601 -0.1745  2.0374  1.1011
26164SOL    HW281895   6.860   9.408   3.476  0.8906 -0.1442 -0.6220
26165SOL     OW81896   2.567   3.747   8.562 -0.0875 -0.5805 -0.6673
26165SOL    HW181897   2.521   3.768   8.481  2.0128  1.9237 -1.3517
26165SOL    HW281898   2.658   3.734   8.535  0.4536 -0.8936  1.1637
26166SOL     OW81899   9.234   4.746   9.616 -0.2325 -0.9230 -0.5183
26166SOL    HW181900   9.293   4.814   9.651  1.1467 -2.1019 -0.4448
26166SOL    HW281901   9.247   4.751   9.521 -1.1014 -0.2586 -0.6158
26167SOL     OW81902   1.168   1.610   3.147  0.2278  0.0413 -0.0000
26167SOL    HW181903   1.095   1.613   3.085  0.5258  0.8390 -0.3212
26167SOL    HW281904   1.131   1.568   3.225 -0.2232 -0.7316 -0.6163
26168SOL     OW81905   6.652   7.019   5.248 -0.4205  0.0522  0.7622
26168SOL    HW181906   6.562   6.987   5.255 -0.4790  0.1164  0.3191
26168SOL    HW281907   6.705   6.939   5.243 -0.5152  0.0127  0.2951
26169SOL     OW81908   6.320   5.407   4.886  0.0546  0.2556  0.0209
26169SOL    HW181909   6.261   5.433   4.957  0.3196 -1.4498  0.9267
26169SOL    HW281910   6.275   5.333   4.844  0.4196  0.5366 -0.8932
26170SOL     OW81911   9.316   4.675   6.179 -0.4141  1.0046  0.3198
26170SOL    HW181912   9.376   4.667   6.105 -1.3689 -3.0037 -0.2203
26170SOL    HW281913   9.368   4.649   6.255 -0.7655  0.0916  0.2521
26171SOL     OW81914   2.806   9.856   7.174  0.2806  0.4046 -0.0035
26171SOL    HW181915   2.790   9.950   7.164  0.8667  0.3655 -1.5308
26171SOL    HW281916   2.764   9.816   7.098  2.0283 -0.3304 -0.6264
26172SOL     OW81917   2.003   1.931   9.818 -0.0405  0.3646 -0.0532
26172SOL    HW181918   2.026   2.011   9.866  0.5840 -1.8758  3.8338
26172SOL    HW281919   2.086   1.886   9.805 -0.6759 -1.7466  2.2557
26173SOL     OW81920   9.241   9.015   5.815 -0.5208  0.0454  0.2796
26173SOL    HW181921   9.229   9.061   5.732 -0.1723  1.5250  1.0200
26173SOL    HW281922   9.161   8.963   5.826 -0.2737 -0.7487 -1.3033
26174SOL     OW81923   2.770   3.362   1.933  0.1429  0.5152 -0.2288
26174SOL    HW181924   2.800   3.315   1.856  1.3717  1.9474 -0.6714
26174SOL    HW281925   2.680   3.332   1.946  0.6199 -1.3652 -0.9054
26175SOL     OW81926   3.045   2.027   0.096  0.3136 -0.4981 -0.0939
26175SOL    HW181927   3.071   2.111   0.133 -0.6647 -0.5182  0.6802
26175SOL    HW281928   3.104   2.014   0.021  1.4652  0.1645  0.6686
26176SOL     OW81929   3.279   4.216   7.916 -0.8480  0.2378  0.1447
26176SOL    HW181930   3.296   4.307   7.941  0.0153  0.0187  0.3959
26176SOL    HW281931   3.259   4.171   7.998 -2.5276  0.4368 -0.1159
26177SOL     OW81932   4.953   7.455   8.063 -0.1518  0.4754  0.3458
26177SOL    HW181933   5.000   7.400   8.125 -0.0841  1.1209  0.8778
26177SOL    HW281934   4.871   7.478   8.108  0.1668  1.4451  0.4543
26178SOL     OW81935  10.513   0.671   2.021 -0.2716 -0.3857 -0.4547
26178SOL    HW181936  10.518   0.635   2.110 -1.0255  0.0537 -0.2251
26178SOL    HW281937  10.576   0.743   2.021 -1.5486  0.7797  0.3054
26179SOL     OW81938   7.549   3.031   5.654 -0.1383  0.2370 -0.1048
26179SOL    HW181939   7.597   3.098   5.607  1.6538 -1.0452 -0.1964
26179SOL    HW281940   7.505   3.078   5.724  0.9508  1.5202 -0.2383
26180SOL     OW81941   8.155   6.950   3.295 -0.5462 -0.3230 -0.6958
26180SOL    HW181942   8.074   6.906   3.270  0.3457 -2.0205 -0.7457
26180SOL    HW281943   8.222   6.882   3.288  0.8992  1.0548 -0.7140
26181SOL     OW81944   4.866   7.247   4.580 -0.2189  0.1070 -0.4454
26181SOL    HW181945   4.832   7.336   4.588 -3.4323 -0.8653 -1.8137
26181SOL    HW281946   4.861   7.228   4.486 -0.6413 -1.8721 -0.0614
26182SOL     OW81947   9.014   4.518  10.203  0.1132 -0.1202 -0.1151
26182SOL    HW181948   8.967   4.541  10.283  1.1863 -0.1875  0.5572
26182SOL    HW281949   9.085   4.462  10.233  0.3388 -0.4055 -1.1636
26183SOL     OW81950  10.387   6.021   7.189  0.8006 -0.0854  0.0557
26183SOL    HW181951  10.451   5.958   7.156  2.2242  0.6377  1.2753
26183SOL    HW281952  10.309   6.007   7.136  2.2360 -0.4291 -2.0730
26184SOL     OW81953   4.247   4.414   8.922  0.0065 -0.1811 -0.2590
26184SOL    HW181954   4.244   4.338   8.979  1.4371 -0.5019 -0.5897
26184SOL    HW281955   4.338   4.444   8.925 -0.0978  0.3503 -1.6418
26185SOL     OW81956   4.108   9.285   7.517  0.0966 -0.4165 -0.2846
26185SOL    HW181957   4.058   9.296   7.598 -2.3077 -0.7287 -1.6404
26185SOL    HW281958   4.079   9.201   7.481  0.3306  0.1834 -1.9895
26186SOL     OW81959  10.806   9.480   2.219 -0.9182 -0.8748 -0.2752
26186SOL    HW181960  10.821   9.572   2.199  0.7321 -1.2177 -0.7610
26186SOL    HW281961  10.855   9.432   2.152 -1.0895 -2.0951  0.4354
26187SOL     OW81962   6.701   5.522   3.273  0.2559  0.4505  0.6027
26187SOL    HW181963   6.790   5.552   3.255 -0.6916  1.7803 -2.3699
26187SOL    HW281964   6.677   5.469   3.197 -0.9742 -1.3223  2.1217
26188SOL     OW81965   4.050   2.124   8.842  0.1003 -0.2000 -0.0993
26188SOL    HW181966   3.959   2.138   8.870 -0.1585 -0.9435 -0.5364
26188SOL    HW281967   4.066   2.192   8.778 -0.4565 -0.6059 -0.6836
26189SOL     OW81968   8.707   2.470   5.097 -0.5400  0.0866  0.0948
26189SOL    HW181969   8.682   2.522   5.173 -2.3136 -0.1870 -0.2522
26189SOL    HW281970   8.748   2.533   5.037  0.5645  0.3620  1.1023
26190SOL     OW81971   8.175   7.843   1.336 -0.6265  0.3218 -0.5633
26190SOL    HW181972   8.122   7.811   1.409 -0.5882 -1.7132 -1.3675
26190SOL    HW281973   8.221   7.766   1.303 -0.1384  1.2990 -2.3362
26191SOL     OW81974   6.832   5.766   4.938  0.2671 -0.4433 -0.2643
26191SOL    HW181975   6.923   5.746   4.959 -0.5578  0.3231  5.3619
26191SOL    HW281976   6.823   5.860   4.951 -1.4486 -0.6070  0.0430
26192SOL     OW81977   6.238   4.689   7.166  0.2385  0.3136 -0.5685
26192SOL    HW181978   6.309   4.641   7.123  1.1856  1.4110 -0.2626
26192SOL    HW281979   6.234   4.772   7.120 -0.8627  0.2667 -0.5714
26193SOL     OW81980   3.831   2.870   3.704 -0.1542 -0.2215 -0.4531
26193SOL    HW181981   3.797   2.898   3.789 -0.3472 -0.8314 -0.3245
26193SOL    HW281982   3.917   2.833   3.723  1.1476  2.3734 -0.9248
26194SOL     OW81983   9.946   6.456   6.793  0.1822 -0.1201 -0.5708
26194SOL    HW181984   9.921   6.365   6.805  0.2364 -0.0500  0.0700
26194SOL    HW281985  10.042   6.456   6.797  0.1642  0.0258 -0.1633
26195SOL     OW81986  10.207  10.708   7.939  0.9553  0.2898  0.1839
26195SOL    HW181987  10.249  10.635   7.894 -0.0496 -0.6046  0.6469
26195SOL    HW281988  10.113  10.692   7.928  0.7148  1.5759  0.2076
26196SOL     OW81989   0.147   7.654   3.588 -0.3858  0.0605  0.2451
26196SOL    HW181990   0.204   7.692   3.521 -0.6827  2.4903  1.2754
26196SOL    HW281991   0.068   7.628   3.540  0.9769 -2.1444 -0.9753
26197SOL     OW81992   0.556   1.291   7.086  0.0401 -0.6196  0.9472
26197SOL    HW181993   0.593   1.221   7.033  1.1317  1.2831 -0.9396
26197SOL    HW281994   0.518   1.246   7.161  1.5261 -3.1369  0.3141
26198SOL     OW81995   8.402   7.896   2.803 -0.6062  0.0290  0.4303
26198SOL    HW181996   8.394   7.989   2.783 -1.6301 -0.2721 -0.6833
26198SOL    HW281997   8.481   7.889   2.856 -1.2991  1.7168  1.7794
26199SOL     OW81998   0.216   0.882   7.009  0.1724  0.1525  0.0390
26199SOL    HW181999   0.294   0.922   7.047 -0.6148  1.5088  0.3029
26199SOL    HW282000   0.150   0.887   7.079 -0.0393 -1.3873 -0.0236
26200SOL     OW82001   3.471   4.320   2.586 -0.0442  0.2484 -0.1712
26200SOL    HW182002   3.499   4.410   2.572  1.4994 -0.0111  0.9793
26200SOL    HW282003   3.433   4.320   2.674 -0.5516 -0.1252 -0.3807
26201SOL     OW82004   5.353   3.001   0.875  0.0141  0.1544 -0.1019
26201SOL    HW182005   5.448   3.014   0.875  0.0920 -0.3093  0.8170
26201SOL    HW282006   5.328   3.010   0.967 -0.6262 -1.1021 -0.1368
26202SOL     OW82007   0.843   2.347   4.437  0.0774 -0.4425 -0.1483
26202SOL    HW182008   0.787   2.387   4.371  1.7033  0.1424 -1.2320
26202SOL    HW282009   0.893   2.420   4.474  0.1620 -0.9450  0.7450
26203SOL     OW82010  10.159   3.608   6.264 -0.2488  0.0473  0.4692
26203SOL    HW182011  10.140   3.681   6.206  0.3646 -0.9682 -1.0518
26203SOL    HW282012  10.092   3.543   6.245 -1.7955  0.7621  2.9645
26204SOL     OW82013   7.998   1.417   2.552 -0.5559  0.0092  0.0314
26204SOL    HW182014   7.957   1.375   2.476 -1.2799  0.7377  0.0032
26204SOL    HW282015   7.961   1.370   2.628 -0.9826  0.2629 -0.0165
26205SOL     OW82016   6.938   4.483   0.379 -0.7715 -0.4301  0.7358
26205SOL    HW182017   7.005   4.416   0.367 -0.6497 -0.1898 -0.0120
26205SOL    HW282018   6.874   4.444   0.437  0.2449 -0.5002  1.8439
26206SOL     OW82019  10.115   7.667  10.452 -1.1480  0.2141  0.0818
26206SOL    HW182020  10.143   7.581  10.485  1.3977  1.1758  0.7045
26206SOL    HW282021  10.069   7.648  10.370 -1.1036 -1.7603  0.4632
26207SOL     OW82022   2.094   2.632   5.645 -0.2250  0.4079  0.0434
26207SOL    HW182023   2.014   2.607   5.599  0.1799 -0.1879 -0.3520
26207SOL    HW282024   2.070   2.711   5.694 -0.8818  0.5922 -0.5560
26208SOL     OW82025   3.300   7.406  10.774 -0.2603  0.3326  0.4849
26208SOL    HW182026   3.379   7.396  10.827 -1.0279 -1.4633  1.3873
26208SOL    HW282027   3.317   7.483  10.720  0.8933  1.8153  2.7813
26209SOL     OW82028   9.924   5.445   4.804  0.2210 -0.1729 -0.1545
26209SOL    HW182029   9.890   5.433   4.715 -0.3223 -0.6179  0.1062
26209SOL    HW282030   9.902   5.364   4.849 -0.1644  0.3395  0.6010
26210SOL     OW82031   9.932   7.312   6.172 -0.3494 -0.3262  0.1842
26210SOL    HW182032   9.862   7.344   6.229 -0.7284 -0.0657 -0.4290
26210SOL    HW282033   9.888   7.282   6.093  0.0449 -1.9417  0.5433
26211SOL     OW82034  10.383   3.778   4.643 -0.2014 -0.6954  0.7768
26211SOL    HW182035  10.309   3.798   4.586  1.2408 -0.1906 -1.0135
26211SOL    HW282036  10.447   3.847   4.626  1.1338 -1.7008  1.4460
26212SOL     OW82037   4.012   2.877   7.587  0.2832 -0.0005  0.7229
26212SOL    HW182038   4.040   2.965   7.565  0.5646 -0.1961  0.2764
26212SOL    HW282039   3.941   2.889   7.650 -1.6729  0.6806 -1.4617
26213SOL     OW82040   5.060   1.551   5.282  0.5063 -0.4165  0.1932
26213SOL    HW182041   5.054   1.482   5.349 -1.1778  0.0065  0.5349
26213SOL    HW282042   5.003   1.521   5.211  0.4616  0.2029 -0.0430
26214SOL     OW82043   4.140  10.343   8.282  0.8454 -0.2831  0.3780
26214SOL    HW182044   4.046  10.353   8.301  0.8576 -0.7554  0.7011
26214SOL    HW282045   4.148  10.255   8.244  1.1307 -0.1638  0.1550
26215SOL     OW82046   7.283   2.333   6.317  0.4004  0.3226  0.2460
26215SOL    HW182047   7.244   2.278   6.249 -0.1603 -1.1739  1.7118
26215SOL    HW282048   7.366   2.291   6.339 -0.0825 -0.0592  1.4578
26216SOL     OW82049   1.865   9.033   6.150  0.2054  0.3658 -0.0531
26216SOL    HW182050   1.916   9.069   6.077  0.6167 -1.1150 -0.5277
26216SOL    HW282051   1.895   9.083   6.226  0.6825  1.0834 -0.6913
26217SOL     OW82052   7.158   4.117   1.625 -0.6086  0.3909  0.5921
26217SOL    HW182053   7.141   4.178   1.553  1.3860 -0.0355 -0.3138
26217SOL    HW282054   7.076   4.069   1.636 -1.2026  1.0251 -0.8598
26218SOL     OW82055   2.372   5.962   3.954  0.7079 -0.0871  0.0896
26218SOL    HW182056   2.287   5.917   3.949  0.3929  0.6102 -1.0441
26218SOL    HW282057   2.429   5.900   4.000 -0.5769 -0.3039  1.4532
26219SOL     OW82058  10.032   3.339   9.270  0.1806 -0.5887  0.6937
26219SOL    HW182059  10.039   3.376   9.358  2.6135  1.8449 -0.3820
26219SOL    HW282060   9.998   3.411   9.217 -1.1300 -1.9784 -0.4506
26220SOL     OW82061   1.061  10.918   4.685  0.5051 -0.4419  0.0077
26220SOL    HW182062   1.140  10.880   4.723  1.2889  0.1297 -1.0064
26220SOL    HW282063   1.083  10.931   4.593 -1.0154 -0.9211 -0.4546
26221SOL     OW82064   5.525   5.860   2.929  0.2919  0.2323  0.0132
26221SOL    HW182065   5.470   5.839   3.004 -3.1858  1.1819 -2.0450
26221SOL    HW282066   5.570   5.941   2.953  1.2780 -0.8193  1.9259
26222SOL     OW82067   5.239   6.809   0.912 -0.5746  0.1626  0.1552
26222SOL    HW182068   5.189   6.758   0.976  0.2671  1.4206  1.9091
26222SOL    HW282069   5.281   6.743   0.856 -0.6437 -1.0278  1.4551
26223SOL     OW82070   7.094   5.505   8.461  0.1264  0.1897  0.4236
26223SOL    HW182071   7.004   5.501   8.495 -0.2034 -0.4357 -0.4656
26223SOL    HW282072   7.092   5.576   8.397 -0.5602 -1.6239 -1.7294
26224SOL     OW82073   3.451   3.181   2.085  0.1274  0.8502  0.0820
26224SOL    HW182074   3.445   3.097   2.040 -1.1900  1.2256 -0.4985
26224SOL    HW282075   3.433   3.246   2.017  2.1648  1.7004  0.2744
26225SOL     OW82076  10.077   3.059   6.521  0.0180  0.5958  0.0617
26225SOL    HW182077  10.018   3.104   6.581  0.2606 -0.2095  0.9308
26225SOL    HW282078  10.165   3.077   6.557  0.1350 -0.2847  0.2449
26226SOL     OW82079   7.576   0.087   4.388 -0.0462  0.2373 -0.2181
26226SOL    HW182080   7.612   0.087   4.476  0.5213  0.0611 -0.4453
26226SOL    HW282081   7.556  -0.005   4.371  0.1905  0.2203 -0.4098
26227SOL     OW82082   2.202   5.447   5.967 -0.3865  0.2149 -0.1969
26227SOL    HW182083   2.275   5.487   5.920  0.6979  0.4559  1.6002
26227SOL    HW282084   2.243   5.387   6.029 -1.6082  1.0267  1.4892
26228SOL     OW82085   0.705   3.637  10.254  0.0454  0.1820  0.1066
26228SOL    HW182086   0.702   3.690  10.175 -0.7081  0.9769  0.6447
26228SOL    HW282087   0.616   3.641  10.290  0.3417 -0.2469  0.9385
26229SOL     OW82088   2.454   5.794   1.664  0.4652  0.2845 -0.7703
26229SOL    HW182089   2.369   5.815   1.704  1.0270  1.1937 -0.0165
26229SOL    HW282090   2.501   5.746   1.733  1.2986  1.5330 -0.4449
26230SOL     OW82091  10.275   9.662   5.842  0.6207  0.5196 -0.2606
26230SOL    HW182092  10.295   9.573   5.815  0.9253  0.6021 -0.3104
26230SOL    HW282093  10.180   9.670   5.832  0.8941  1.2296 -3.3856
26231SOL     OW82094   4.267   9.232   5.762  0.2500 -0.6045 -0.3056
26231SOL    HW182095   4.186   9.182   5.751 -0.8524  0.9795  0.3539
26231SOL    HW282096   4.257   9.275   5.847  3.2901 -3.0386  1.5114
26232SOL     OW82097   0.922   8.517   0.766  0.0682  0.2155  0.2344
26232SOL    HW182098   0.919   8.471   0.682 -2.1649 -1.3452  1.0988
26232SOL    HW282099   0.839   8.565   0.771  0.5996  1.0905  1.1491
26233SOL     OW82100   8.699   6.036   3.810  0.1629  0.2013  0.1944
26233SOL    HW182101   8.765   6.036   3.741  1.2284  1.3070  1.1653
26233SOL    HW282102   8.666   6.125   3.812 -1.9513 -0.4952 -0.7625
26234SOL     OW82103   4.454   9.960   7.802 -0.1533 -0.4387 -0.1214
26234SOL    HW182104   4.492   9.873   7.794 -1.4858 -1.0153 -0.3942
26234SOL    HW282105   4.515  10.008   7.859  1.6841 -0.8649 -1.6264
26235SOL     OW82106   8.013  10.756   9.776 -0.3624 -0.2809  0.6751
26235SOL    HW182107   7.923  10.763   9.743 -0.7264 -2.1918  1.1753
26235SOL    HW282108   8.004  10.760   9.871  0.2966  1.2909  0.6984
26236SOL     OW82109   8.322   7.817   9.895 -0.2715 -0.1364 -0.0705
26236SOL    HW182110   8.270   7.896   9.909 -0.9574 -0.5040 -0.4602
26236SOL    HW282111   8.386   7.817   9.966 -0.9656  0.2033  0.5723
26237SOL     OW82112   1.042   6.358   9.122 -0.2225  0.1799 -0.2777
26237SOL    HW182113   1.046   6.429   9.058 -0.9317  1.4458  1.0376
26237SOL    HW282114   1.118   6.303   9.101 -0.5745  0.3962 -2.3505
26238SOL     OW82115   5.872   4.414   6.567 -0.0557  0.3620 -0.5700
26238SOL    HW182116   5.803   4.440   6.628  0.5893 -0.0518  0.3623
26238SOL    HW282117   5.864   4.475   6.494 -0.4989  1.2164  0.1745
26239SOL     OW82118   3.466   5.431   4.526 -0.0072 -0.8167  0.4801
26239SOL    HW182119   3.478   5.453   4.618 -1.5167 -2.7463  1.2056
26239SOL    HW282120   3.547   5.388   4.500  1.0801  1.1438  0.3698
26240SOL     OW82121   1.485  10.031   9.675 -0.3061  0.2246 -0.0374
26240SOL    HW182122   1.396  10.002   9.691 -0.5310  0.7205 -0.3611
26240SOL    HW282123   1.539   9.953   9.686 -1.0800 -0.8335 -2.7746
26241SOL     OW82124   1.794   2.298  10.582 -0.7305 -0.3473 -0.1535
26241SOL    HW182125   1.791   2.392  10.600 -0.2334 -0.1595 -1.0285
26241SOL    HW282126   1.707   2.277  10.549 -0.5783 -0.0216 -0.7737
26242SOL     OW82127   6.461   3.515   7.533 -0.3750 -0.6071 -0.7419
26242SOL    HW182128   6.548   3.534   7.497 -0.6784 -0.5904 -1.4875
26242SOL    HW282129   6.476   3.507   7.627  0.3461 -0.0664 -0.7918
26243SOL     OW82130   0.682   7.920   3.359  0.7808 -0.6232 -0.0343
26243SOL    HW182131   0.749   7.955   3.300  0.7742 -1.0691 -0.3159
26243SOL    HW282132   0.681   7.826   3.339 -0.9936 -0.4107 -1.1371
26244SOL     OW82133   2.837   7.356   2.458 -0.6261 -0.1452  0.2236
26244SOL    HW182134   2.845   7.325   2.548 -2.6831 -1.3591  0.0516
26244SOL    HW282135   2.927   7.363   2.427  0.2428  1.9455  2.8492
26245SOL     OW82136   4.170   9.922   4.429  0.5563 -0.2829 -0.6433
26245SOL    HW182137   4.221   9.932   4.348  2.0266  0.2785  0.3221
26245SOL    HW282138   4.123  10.005   4.437  2.3083  0.6788  0.3086
26246SOL     OW82139   4.293   6.325   3.437 -0.3307 -0.6393 -0.2651
26246SOL    HW182140   4.290   6.400   3.496  0.8916 -0.4809 -0.3749
26246SOL    HW282141   4.346   6.260   3.484  0.2521 -0.6905 -0.9667
26247SOL     OW82142   0.073   1.111   6.307  0.1953  0.4694  0.1515
26247SOL    HW182143   0.140   1.129   6.373 -1.4117  0.1101  1.9587
26247SOL    HW282144   0.025   1.194   6.297 -1.6019 -0.2902  1.9040
26248SOL     OW82145   2.946   1.324   9.523 -0.3629 -0.1723 -0.1480
26248SOL    HW182146   2.874   1.349   9.465 -0.2328  1.8297  0.4579
26248SOL    HW282147   2.929   1.372   9.604  0.3705 -1.5721  0.8764
26249SOL     OW82148   5.619   9.697   5.662  0.0212 -0.2866 -0.1301
26249SOL    HW182149   5.630   9.748   5.582 -0.1108 -0.6162 -0.3605
26249SOL    HW282150   5.630   9.606   5.634  0.1888 -0.3906  0.2633
26250SOL     OW82151   1.585   6.568   8.954  0.0085 -0.4248  0.5887
26250SOL    HW182152   1.548   6.556   8.867 -0.5582 -1.4859  0.9574
26250SOL    HW282153   1.635   6.649   8.948 -3.0124  1.5955  0.2338
26251SOL     OW82154   5.637   9.030   0.625  0.0537  0.0075  0.3806
26251SOL    HW182155   5.653   8.994   0.712 -1.0101  0.8087  0.9342
26251SOL    HW282156   5.662   9.122   0.633  0.8441 -0.1244 -0.4425
26252SOL     OW82157   3.827  10.276   6.893 -0.8818 -0.2627  0.6593
26252SOL    HW182158   3.812  10.278   6.987 -2.0400 -0.4779  0.4875
26252SOL    HW282159   3.793  10.360   6.861  0.6305  0.3494  0.5756
26253SOL     OW82160   9.220   6.429   5.080  0.1530 -0.0518 -0.2863
26253SOL    HW182161   9.167   6.504   5.053 -0.0942 -0.6220 -1.4596
26253SOL    HW282162   9.272   6.407   5.002  0.8465 -0.5758  0.3079
26254SOL     OW82163  10.557   7.241   6.935  0.1447  0.2269  0.2461
26254SOL    HW182164  10.560   7.171   6.870  2.2561  0.1045  0.4134
26254SOL    HW282165  10.463   7.260   6.946 -0.5113 -2.6725  0.3262
26255SOL     OW82166   9.484   0.615   4.788 -0.7101  0.3990 -0.1856
26255SOL    HW182167   9.492   0.710   4.801  1.8618  0.4266 -1.3213
26255SOL    HW282168   9.534   0.598   4.708 -0.9228 -1.9621  0.1234
26256SOL     OW82169   8.233   8.937  10.862 -0.1949  0.5041  0.5580
26256SOL    HW182170   8.213   8.917  10.954  0.5591 -1.3832  0.3582
26256SOL    HW282171   8.324   8.908  10.850 -1.0716 -1.8143 -1.4030
26257SOL     OW82172   5.160   8.503   8.683  0.1833  0.4036  0.0563
26257SOL    HW182173   5.246   8.532   8.713 -0.2695  0.7734  1.0404
26257SOL    HW282174   5.134   8.435   8.746 -0.1066  0.0507 -0.4294
26258SOL     OW82175   9.972   1.123   1.604 -0.0398 -0.5942  0.2998
26258SOL    HW182176   9.979   1.054   1.537  2.6778 -0.9998  0.8681
26258SOL    HW282177  10.021   1.197   1.568  0.4096 -0.3803  1.3034
26259SOL     OW82178   5.603   4.443   5.574  0.1036 -0.1010 -0.1868
26259SOL    HW182179   5.684   4.475   5.535  0.2012 -0.3187 -0.1635
26259SOL    HW282180   5.628   4.414   5.662  0.1270 -0.7570 -0.4071
26260SOL     OW82181   0.318   2.179   9.283 -0.3582 -0.0852 -0.5081
26260SOL    HW182182   0.323   2.158   9.190  0.7134 -0.6372 -0.3472
26260SOL    HW282183   0.255   2.117   9.319  0.2727 -0.8116 -0.6326
26261SOL     OW82184   9.283   6.634   1.187 -0.1722  0.1684  0.4081
26261SOL    HW182185   9.246   6.717   1.156 -1.2759 -0.5452 -0.2405
26261SOL    HW282186   9.229   6.610   1.262  1.1163  0.7759  1.5956
26262SOL     OW82187   1.590   6.785   2.157  0.6100  0.2519 -0.4695
26262SOL    HW182188   1.666   6.730   2.142  1.3669  0.5059  1.9829
26262SOL    HW282189   1.592   6.849   2.086  1.8915 -0.5790 -1.2160
26263SOL     OW82190   6.484   2.541   8.924 -0.2896 -0.5811  0.2245
26263SOL    HW182191   6.522   2.462   8.963  1.8007 -1.1820 -2.6916
26263SOL    HW282192   6.557   2.603   8.918 -1.0619  0.2743 -0.6823
26264SOL     OW82193   2.131   8.944  10.750  0.1543  0.4873  0.1730
26264SOL    HW182194   2.072   9.005  10.704  1.0259  0.0526 -1.6088
26264SOL    HW282195   2.075   8.900  10.814 -1.5909 -0.2093 -1.7329
26265SOL     OW82196   3.741   0.875   6.348 -0.2921 -0.3580  0.3457
26265SOL    HW182197   3.725   0.969   6.359 -1.0027 -0.3246 -0.8626
26265SOL    HW282198   3.659   0.840   6.314  0.3198 -1.2258 -0.2950
26266SOL     OW82199   8.733   5.218   1.349  0.1086  0.2061  0.5519
26266SOL    HW182200   8.708   5.141   1.400 -0.1961  0.5849  0.9843
26266SOL    HW282201   8.799   5.261   1.402  0.3918  0.1634  0.2371
26267SOL     OW82202   8.624   3.052   8.970  0.2494 -0.4168  0.4009
26267SOL    HW182203   8.716   3.059   8.942 -0.2689 -1.2268 -1.7264
26267SOL    HW282204   8.628   3.000   9.050  1.6812  0.0180  0.6504
26268SOL     OW82205   6.546   4.418   7.386 -0.1459 -0.2940  0.1533
26268SOL    HW182206   6.477   4.458   7.440  0.0248  1.6352 -0.9614
26268SOL    HW282207   6.596   4.364   7.447 -0.8825  0.5998  1.6105
26269SOL     OW82208   2.174   0.494   6.310 -0.4502  0.1354  0.1194
26269SOL    HW182209   2.209   0.524   6.393 -0.5091  1.8982 -0.4420
26269SOL    HW282210   2.247   0.450   6.267  0.7690  2.5923 -0.4812
26270SOL     OW82211  10.465   6.617   2.954 -0.0801  0.3190  0.4069
26270SOL    HW182212  10.556   6.588   2.958 -0.2819 -0.6703 -1.2554
26270SOL    HW282213  10.415   6.536   2.945 -1.0041  0.9211 -0.0161
26271SOL     OW82214   1.500   1.187   0.201  0.4399  0.0465 -0.4262
26271SOL    HW182215   1.538   1.249   0.263 -0.3330  1.0470 -0.9320
26271SOL    HW282216   1.506   1.102   0.245 -0.1353  0.7378  1.0408
26272SOL     OW82217  10.746   7.838   9.781  0.2432 -0.2156 -0.3590
26272SOL    HW182218  10.788   7.754   9.801 -0.9830 -0.7143  0.2937
26272SOL    HW282219  10.652   7.817   9.778  0.0924  0.5366 -3.2730
26273SOL     OW82220   7.861   8.668   3.774 -0.1014 -0.3938 -0.4184
26273SOL    HW182221   7.932   8.732   3.768  0.4742 -0.8301  1.2662
26273SOL    HW282222   7.824   8.665   3.686  2.0517 -0.2490 -1.3784
26274SOL     OW82223   0.726   0.306   2.565 -0.2306  0.2765  0.5141
26274SOL    HW182224   0.643   0.353   2.568 -1.0007 -0.8071 -1.5249
26274SOL    HW282225   0.706   0.219   2.600 -1.0881 -1.3219 -3.3933
26275SOL     OW82226   7.190  10.798   4.466 -0.1851  0.0141  0.3299
26275SOL    HW182227   7.246  10.829   4.394 -1.0352  0.2897 -0.2208
26275SOL    HW282228   7.170  10.707   4.442 -2.0396  0.6692 -0.8071
26276SOL     OW82229  10.484   9.481   2.995 -0.1185  0.4665  0.4501
26276SOL    HW182230  10.556   9.495   2.933 -0.5353  0.2029 -0.0974
26276SOL    HW282231  10.449   9.396   2.973  0.8021 -0.4207  2.1583
26277SOL     OW82232   3.592   8.609   8.191  0.2880 -0.3317 -0.1430
26277SOL    HW182233   3.558   8.525   8.220  0.0965 -0.8002 -1.6395
26277SOL    HW282234   3.687   8.602   8.198  0.2392  0.4063  2.4998
26278SOL     OW82235   5.682   0.304   1.373 -0.6868 -0.5902 -0.1753
26278SOL    HW182236   5.755   0.257   1.333  1.0720  1.3184  0.6094
26278SOL    HW282237   5.724   0.366   1.433 -2.8899  1.4451 -0.5995
26279SOL     OW82238   4.218   8.626   7.561  0.0051  0.1045 -0.1048
26279SOL    HW182239   4.309   8.655   7.563 -0.2217  0.8122 -0.0741
26279SOL    HW282240   4.200   8.599   7.651  0.2330 -0.2003 -0.1474
26280SOL     OW82241   0.974   2.018  10.540 -0.1886  0.2076 -0.0659
26280SOL    HW182242   0.979   1.950  10.473 -0.7967  0.0005  0.0896
26280SOL    HW282243   0.928   2.091  10.498  0.2677  0.4404 -0.1652
26281SOL     OW82244   2.637   9.884   6.569 -0.2005  0.4189 -0.0667
26281SOL    HW182245   2.670   9.795   6.576  0.1190  0.5464  0.1100
26281SOL    HW282246   2.655   9.909   6.478 -1.8673 -0.2915 -0.6314
26282SOL     OW82247   0.397   5.433  10.203  0.5490  0.4250 -0.2450
26282SOL    HW182248   0.367   5.469  10.120 -1.6019  1.9043  1.0562
26282SOL    HW282249   0.318   5.429  10.257  1.8737 -0.4339  1.7517
26283SOL     OW82250   8.792   1.709   7.466 -0.0401 -0.3283  0.2082
26283SOL    HW182251   8.827   1.694   7.554  1.5584 -0.1650 -0.3541
26283SOL    HW282252   8.812   1.628   7.418 -3.9465 -1.8382  0.8196
26284SOL     OW82253   3.177   1.522   9.083  0.6806  0.6518  0.0889
26284SOL    HW182254   3.114   1.450   9.077 -1.0583  2.1018  0.1274
26284SOL    HW282255   3.218   1.510   9.169 -0.3261  0.2664  0.5441
26285SOL     OW82256   1.853   2.265   1.738  0.1604  0.1471  0.2540
26285SOL    HW182257   1.799   2.213   1.798 -2.0460 -0.2566 -1.9087
26285SOL    HW282258   1.877   2.204   1.669 -0.1206  1.3139 -0.9180
26286SOL     OW82259   9.119   9.295   0.696 -0.0666 -0.4983  0.3428
26286SOL    HW182260   9.185   9.305   0.764  0.9464  1.2310 -0.8105
26286SOL    HW282261   9.164   9.247   0.626  0.1140  0.9053 -0.5519
26287SOL     OW82262   5.887   0.304   2.407  0.2857 -0.4079  0.3836
26287SOL    HW182263   5.844   0.222   2.383 -2.1051  1.2229 -1.3753
26287SOL    HW282264   5.876   0.361   2.331  1.5985  1.6773  1.6256
26288SOL     OW82265   7.104   0.137   0.568  0.1134  0.2058  0.9769
26288SOL    HW182266   7.146   0.193   0.634  1.3249  0.9073 -0.3292
26288SOL    HW282267   7.117   0.048   0.601  0.4984  0.5555  1.7944
26289SOL     OW82268   9.677   6.413   3.659  0.5366  0.0181 -0.8745
26289SOL    HW182269   9.612   6.372   3.603  1.8294 -1.3144 -1.4623
26289SOL    HW282270   9.691   6.500   3.621 -1.3541  0.6199 -0.3243
26290SOL     OW82271   3.624   3.537   2.227  0.5712  0.0222 -0.2287
26290SOL    HW182272   3.665   3.615   2.264 -1.4778  1.1101 -0.1242
26290SOL    HW282273   3.594   3.487   2.303 -1.2068  0.9110 -0.2857
26291SOL     OW82274   7.676   3.624  10.817 -0.6037 -0.2975 -0.3636
26291SOL    HW182275   7.745   3.674  10.862 -0.1298 -0.2781 -1.1088
26291SOL    HW282276   7.610   3.611  10.885  0.2708 -0.6023  0.4588
26292SOL     OW82277   9.469   6.548   8.644  0.3938  0.8586 -0.3056
26292SOL    HW182278   9.451   6.608   8.572  0.6006  0.3707 -0.7670
26292SOL    HW282279   9.399   6.564   8.707 -1.4589 -0.6844 -1.8587
26293SOL     OW82280   4.417   0.940   5.619 -0.3963 -0.4200  0.0000
26293SOL    HW182281   4.493   0.959   5.675 -0.6721  0.8792 -0.0408
26293SOL    HW282282   4.434   0.988   5.538 -1.2505 -0.1545 -0.0259
26294SOL     OW82283   0.862   8.611   3.914 -0.2001  0.1315  0.1961
26294SOL    HW182284   0.802   8.641   3.983 -0.3142  0.2484  0.0485
26294SOL    HW282285   0.922   8.684   3.901 -0.8234  0.5304 -0.5550
26295SOL     OW82286   1.949   5.294   7.092  0.0088 -0.2690  0.0960
26295SOL    HW182287   1.962   5.344   7.011 -0.2378  0.7877  0.6930
26295SOL    HW282288   1.859   5.264   7.088  0.6154 -2.1537 -1.0474
26296SOL     OW82289   5.138   7.071   5.276 -0.3550  0.0105 -0.2234
26296SOL    HW182290   5.212   7.115   5.318  1.5775 -0.7730 -2.6342
26296SOL    HW282291   5.121   6.995   5.331 -0.3588  0.9490  1.1351
26297SOL     OW82292   5.647   8.003   3.134 -0.3188  0.1943 -0.3688
26297SOL    HW182293   5.560   7.966   3.144 -1.6638  1.6219 -4.4524
26297SOL    HW282294   5.702   7.929   3.105 -0.9246 -0.1470 -0.6564
26298SOL     OW82295   2.976   7.185   9.565 -0.8056  0.3085 -0.4120
26298SOL    HW182296   3.012   7.163   9.651 -0.1441  1.6410 -0.3104
26298SOL    HW282297   2.910   7.118   9.549  0.9302 -1.5927 -0.0933
26299SOL     OW82298   1.372   2.565   6.969  0.5146  0.7412  0.4749
26299SOL    HW182299   1.439   2.627   6.998  2.8414 -0.4154 -1.9978
26299SOL    HW282300   1.369   2.576   6.874  1.2950 -3.0688 -0.1403
26300SOL     OW82301   0.418   1.314  10.088 -0.8696  0.0789  0.0036
26300SOL    HW182302   0.380   1.232  10.056 -0.1070 -0.9294  1.5808
26300SOL    HW282303   0.443   1.296  10.178  0.1688  1.7792  0.1052
26301SOL     OW82304   1.472   8.662   8.867  0.4491 -0.1686 -0.2388
26301SOL    HW182305   1.451   8.657   8.960  0.2695  0.5939 -0.2332
26301SOL    HW282306   1.446   8.577   8.832  1.5272 -0.8756  0.6037
26302SOL     OW82307   4.280  10.523   0.870 -0.5970  0.1132  0.0989
26302SOL    HW182308   4.313  10.546   0.783  0.3014 -0.4051  0.2984
26302SOL    HW282309   4.338  10.453   0.901 -0.6231  0.5940  1.3011
26303SOL     OW82310   7.897  10.133   0.025  0.8422  0.4935  0.1046
26303SOL    HW182311   7.864  10.091  -0.054  1.7309  1.1394 -0.6357
26303SOL    HW282312   7.900  10.226   0.004 -0.7622  0.9352  1.6027
26304SOL     OW82313   5.878   3.692   0.942  0.1240  0.2950  0.3823
26304SOL    HW182314   5.865   3.676   0.848  0.0589  2.0483  0.0642
26304SOL    HW282315   5.935   3.768   0.946 -0.9464  1.0691  1.7624
26305SOL     OW82316   6.553   2.181   2.738  0.2107  0.3562 -0.2462
26305SOL    HW182317   6.543   2.267   2.697  0.1930  0.4038 -0.1408
26305SOL    HW282318   6.646   2.175   2.759  0.1419  0.5148  0.1129
26306SOL     OW82319   6.635   3.074   5.878  0.2391 -0.2094 -0.3726
26306SOL    HW182320   6.720   3.078   5.836  0.5100  0.2751  0.2152
26306SOL    HW282321   6.622   2.981   5.897  1.3734 -0.1134  1.0205
26307SOL     OW82322   8.949   6.430   4.203 -0.0939 -0.4629  0.3284
26307SOL    HW182323   8.941   6.336   4.191 -0.0414 -0.3273 -0.8684
26307SOL    HW282324   9.024   6.455   4.149  0.7670  0.0828  1.6980
26308SOL     OW82325   7.501   3.808   0.330  0.1656  0.3859 -0.1227
26308SOL    HW182326   7.423   3.860   0.349  0.3393  0.2953  0.8744
26308SOL    HW282327   7.572   3.855   0.375  0.7450  0.6425 -1.2778
26309SOL     OW82328   4.507   1.893   4.467  0.2965 -0.1603  0.7333
26309SOL    HW182329   4.517   1.818   4.408 -2.0153  1.0939 -1.4343
26309SOL    HW282330   4.563   1.961   4.429 -1.2032  0.6526 -0.1207
26310SOL     OW82331   3.478   8.486   6.204 -0.0040  0.2066 -0.1348
26310SOL    HW182332   3.512   8.404   6.238  0.1085 -0.4556 -1.7421
26310SOL    HW282333   3.458   8.468   6.112 -2.0560  1.3492  0.0012
26311SOL     OW82334   4.046   7.703   1.138  0.4165  0.2303 -0.1118
26311SOL    HW182335   4.034   7.672   1.048  0.3000  1.9718 -0.7277
26311SOL    HW282336   3.965   7.676   1.183  1.4236 -2.7386  0.1829
26312SOL     OW82337   4.427   7.747   8.995 -0.1740  0.2330  0.3067
26312SOL    HW182338   4.493   7.691   9.035 -1.5015 -1.2571  0.4968
26312SOL    HW282339   4.449   7.835   9.024  1.0825 -0.3636  1.2420
26313SOL     OW82340   3.565   7.074   7.314 -0.3985  0.5479  0.3128
26313SOL    HW182341   3.573   7.149   7.256 -0.0604  1.6375  1.6984
26313SOL    HW282342   3.652   7.033   7.311 -0.4433  0.4797 -0.0964
26314SOL     OW82343   0.254   6.679   9.599 -0.2482 -0.2856 -0.6514
26314SOL    HW182344   0.264   6.757   9.545  0.1120 -0.0885 -0.3097
26314SOL    HW282345   0.194   6.706   9.668 -0.5299 -0.4690 -0.8233
26315SOL     OW82346   8.334   5.880   2.770 -0.1709 -0.0002  0.0869
26315SOL    HW182347   8.287   5.954   2.808  0.8391  0.3910  0.5974
26315SOL    HW282348   8.291   5.866   2.685 -0.1124  1.4515 -0.2123
26316SOL     OW82349   4.997   4.816   9.869  0.3030  0.4117 -0.1625
26316SOL    HW182350   5.045   4.846   9.946 -0.1490 -0.1455  0.3417
26316SOL    HW282351   4.941   4.890   9.846  0.6555  0.6895 -0.1434
26317SOL     OW82352   0.511   7.664   1.865  0.1258  0.0069  0.0268
26317SOL    HW182353   0.521   7.682   1.958 -1.9602  1.5108  0.0304
26317SOL    HW282354   0.568   7.727   1.821 -1.5183  1.7414  0.2548
26318SOL     OW82355   4.703   7.463   1.587  0.0970  0.7364  0.4191
26318SOL    HW182356   4.759   7.529   1.629 -0.5199  1.6863 -0.2066
26318SOL    HW282357   4.662   7.510   1.514  1.3599 -0.9142 -1.4720
26319SOL     OW82358   0.614   2.084   9.046 -0.3240 -0.5114 -0.3873
26319SOL    HW182359   0.598   2.030   9.124 -0.7249  1.0236  0.6606
26319SOL    HW282360   0.672   2.154   9.077 -0.4906  0.1283 -1.4699
26320SOL     OW82361   9.736   0.511   2.094  0.8062  0.1001  0.0584
26320SOL    HW182362   9.681   0.433   2.085 -0.2002  0.5611  1.7872
26320SOL    HW282363   9.779   0.519   2.009 -2.3342  0.0821 -1.7214
26321SOL     OW82364   6.409  10.586   5.084 -0.1467 -0.4585  0.2763
26321SOL    HW182365   6.342  10.520   5.065 -1.3593  0.5841  0.8481
26321SOL    HW282366   6.415  10.587   5.179  1.2033 -1.0290  0.2130
26322SOL     OW82367   9.783   8.637   3.972  0.2109  0.1353  0.5844
26322SOL    HW182368   9.774   8.547   4.001 -0.3890  0.0715  0.2108
26322SOL    HW282369   9.730   8.642   3.892  2.6132  0.0048 -1.1422
26323SOL     OW82370  10.452   7.078   1.555 -0.3798  0.2941  0.6395
26323SOL    HW182371  10.402   7.021   1.497 -0.1574 -0.0947  0.8245
26323SOL    HW282372  10.391   7.099   1.626  0.2547 -1.6679  1.8276
26324SOL     OW82373   3.363   7.149   2.522 -0.6579  0.1499  0.1291
26324SOL    HW182374   3.326   7.103   2.446 -1.4875 -1.5574  1.4902
26324SOL    HW282375   3.429   7.208   2.485 -1.9766  0.3884 -2.0345
26325SOL     OW82376   4.057   0.008   0.046 -0.5000  0.5462  0.6378
26325SOL    HW182377   3.987   0.015  -0.018 -0.0205 -0.8991 -0.0985
26325SOL    HW282378   4.110   0.086   0.032 -1.1259  0.8972  0.1757
26326SOL     OW82379   2.877   9.250   9.031  0.1410  0.3611  0.2076
26326SOL    HW182380   2.805   9.207   9.079  1.7853 -1.0833  1.5307
26326SOL    HW282381   2.953   9.241   9.090  1.5195  1.3843 -1.3461
26327SOL     OW82382  10.155   3.689   0.159  0.0964 -0.1686 -0.4915
26327SOL    HW182383  10.171   3.744   0.082 -1.6097  0.6325 -0.3256
26327SOL    HW282384  10.145   3.751   0.231 -0.7836 -0.7484 -0.0944
26328SOL     OW82385   3.832   1.125   0.309  0.4132  0.2902 -0.1547
26328SOL    HW182386   3.745   1.131   0.271  0.9523 -2.1834 -2.0757
26328SOL    HW282387   3.886   1.184   0.256  0.6256 -1.1807 -1.6789
26329SOL     OW82388   1.614   0.270   7.960  0.7967  0.0551  0.0720
26329SOL    HW182389   1.604   0.362   7.937  1.8374 -0.1056 -1.0611
26329SOL    HW282390   1.561   0.260   8.040  1.9721  1.9921  1.1617
26330SOL     OW82391  10.859   1.258   4.299 -0.0686  0.0180  0.1897
26330SOL    HW182392  10.931   1.202   4.326  1.1359  1.4932  0.1395
26330SOL    HW282393  10.825   1.296   4.380 -1.6358 -1.6005  0.3462
26331SOL     OW82394   6.635   6.869   1.730 -0.9272 -0.4020 -0.1208
26331SOL    HW182395   6.697   6.824   1.786 -1.3304 -0.0177  0.6543
26331SOL    HW282396   6.556   6.877   1.783 -1.8292 -1.3199 -1.2484
26332SOL     OW82397   3.896   0.817   0.946  0.7492  0.2013  0.0935
26332SOL    HW182398   3.942   0.743   0.906  2.1769  1.3059 -0.3930
26332SOL    HW282399   3.908   0.805   1.040  1.4911  0.1366 -0.0078
26333SOL     OW82400   0.149   0.096   5.989  0.0235 -0.0656  0.2225
26333SOL    HW182401   0.105   0.168   6.035 -0.0106 -0.0735  0.2026
26333SOL    HW282402   0.226   0.137   5.948  0.6194 -0.2559  1.1311
26334SOL     OW82403   9.855   0.733   5.724 -0.1842 -0.0155 -0.3783
26334SOL    HW182404   9.802   0.654   5.718  1.1215 -1.0102  0.6112
26334SOL    HW282405   9.871   0.745   5.818  0.5838  0.7710 -0.5940
26335SOL     OW82406  10.632   6.297   0.396  0.2568 -0.6372 -0.0459
26335SOL    HW182407  10.644   6.286   0.302  0.9637 -0.8146  0.0601
26335SOL    HW282408  10.546   6.259   0.414  0.1597 -0.6901 -0.6036
26336SOL     OW82409   8.331   3.536   0.552 -1.2875  0.6568 -0.2927
26336SOL    HW182410   8.333   3.441   0.539 -1.2622  0.5506  0.4344
26336SOL    HW282411   8.403   3.553   0.613  0.3392  1.4724 -2.3185
26337SOL     OW82412   9.528   6.014   1.717  0.1515  0.4000  0.0812
26337SOL    HW182413   9.451   6.071   1.727 -0.1378 -0.0805  0.6286
26337SOL    HW282414   9.557   6.029   1.627 -0.6694  0.4847 -0.1781
26338SOL     OW82415   4.762   1.476   5.522  0.4258 -0.2954  0.0636
26338SOL    HW182416   4.684   1.494   5.470  0.4311 -0.5162 -0.0218
26338SOL    HW282417   4.732   1.413   5.588  0.0457  1.1147  1.2925
26339SOL     OW82418   2.748   2.644   9.261 -0.1470 -0.2621  0.9408
26339SOL    HW182419   2.661   2.675   9.287 -0.4999 -0.8746  0.5426
26339SOL    HW282420   2.804   2.720   9.267 -0.9652  0.4341  0.0895
26340SOL     OW82421   0.248   3.882   4.750  0.1517 -0.5345 -0.1703
26340SOL    HW182422   0.270   3.801   4.703  0.7052 -0.1758 -0.5470
26340SOL    HW282423   0.326   3.937   4.740 -0.4336  0.2716 -0.4237
26341SOL     OW82424   0.388   6.101   8.185  0.4524 -0.2835 -0.1869
26341SOL    HW182425   0.482   6.081   8.189  0.6317  0.1297 -1.7272
26341SOL    HW282426   0.357   6.056   8.106 -0.2244  1.1955 -0.7927
26342SOL     OW82427   6.367   3.899   0.677  0.0567 -0.0033 -0.1000
26342SOL    HW182428   6.393   3.908   0.769  1.8302 -1.1024 -0.4325
26342SOL    HW282429   6.286   3.849   0.679  0.0171  0.0914  0.8742
26343SOL     OW82430   0.830   0.597   9.575 -1.1861  0.1170 -0.1814
26343SOL    HW182431   0.907   0.654   9.578 -0.1892 -0.9587 -2.6775
26343SOL    HW282432   0.765   0.643   9.627  0.5895  1.9184  0.5978
26344SOL     OW82433   9.850   9.403   8.750  0.5535 -0.2916 -0.1476
26344SOL    HW182434   9.934   9.389   8.705 -0.2424 -0.2992 -1.6918
26344SOL    HW282435   9.832   9.320   8.793  1.1771 -0.3921 -0.0590
26345SOL     OW82436   1.934   6.474   6.839 -0.5882 -0.4584  0.5255
26345SOL    HW182437   1.850   6.460   6.795 -0.1615 -1.0330 -0.1078
26345SOL    HW282438   1.914   6.540   6.906 -1.6046 -0.7777  0.5594
26346SOL     OW82439   3.844   6.172   2.006  0.3589 -0.1583 -0.3720
26346SOL    HW182440   3.842   6.084   2.041  1.0500 -0.1435 -0.2860
26346SOL    HW282441   3.936   6.199   2.012  0.2633  0.3328 -0.9673
26347SOL     OW82442   5.831   6.558   2.382 -0.4656 -0.1574 -0.0142
26347SOL    HW182443   5.832   6.620   2.310 -0.5797 -0.1060  0.0290
26347SOL    HW282444   5.924   6.546   2.405 -0.4449 -0.0075 -0.0240
26348SOL     OW82445   4.640   5.299   1.152  0.2853 -0.1431  0.1644
26348SOL    HW182446   4.689   5.294   1.233 -0.6520 -2.6234  0.6604
26348SOL    HW282447   4.577   5.227   1.157 -1.8570  1.4667 -1.4405
26349SOL     OW82448   7.772   3.458   4.510  0.0861  0.2201  0.1097
26349SOL    HW182449   7.854   3.477   4.465 -0.2722  3.1779  0.5036
26349SOL    HW282450   7.798   3.408   4.587  1.2467 -0.7221 -0.8610
26350SOL     OW82451   3.277   8.650   9.673 -0.2177 -0.4912 -0.0815
26350SOL    HW182452   3.330   8.574   9.698 -1.3147 -1.3994 -0.4846
26350SOL    HW282453   3.260   8.638   9.580  0.1415  0.6072 -0.3104
26351SOL     OW82454  10.878   0.538   6.959  0.7015 -0.0234 -0.1013
26351SOL    HW182455  10.838   0.543   6.872  1.8577  0.6591 -0.6269
26351SOL    HW282456  10.927   0.456   6.959 -1.5136 -1.4566  0.9613
26352SOL     OW82457   9.170   6.626   3.298 -0.8228 -0.2720  0.1109
26352SOL    HW182458   9.106   6.627   3.227 -2.8305 -1.0575  1.8178
26352SOL    HW282459   9.128   6.577   3.368  1.6686 -0.8080  1.3473
26353SOL     OW82460   4.331   6.015   3.098 -0.2068 -0.5346  0.6483
26353SOL    HW182461   4.392   5.942   3.083  0.8196  0.5494 -0.7355
26353SOL    HW282462   4.387   6.090   3.117 -1.2316  0.0253  1.5897
26354SOL     OW82463   4.739   1.841   9.039  0.1590  0.6076  0.2117
26354SOL    HW182464   4.816   1.788   9.057  0.7977  2.3142  3.1484
26354SOL    HW282465   4.758   1.885   8.955  1.1625 -0.9649 -0.4192
26355SOL     OW82466   9.080   9.282   2.277 -0.3211 -0.0054  0.1733
26355SOL    HW182467   9.056   9.366   2.316 -0.1849 -0.2393  0.7770
26355SOL    HW282468   9.072   9.296   2.183 -1.9414  0.1899  0.3083
26356SOL     OW82469   3.765   3.219   7.777  0.1895  0.0901 -0.4024
26356SOL    HW182470   3.799   3.135   7.806 -0.0089 -0.2125 -1.0338
26356SOL    HW282471   3.813   3.284   7.829 -0.1081 -0.4271  0.5490
26357SOL     OW82472   9.414   4.697   0.115  0.2876 -0.2948  0.5736
26357SOL    HW182473   9.477   4.736   0.055  0.8381 -0.6586  0.8954
26357SOL    HW282474   9.363   4.771   0.149 -0.3362 -0.1397 -0.6686
26358SOL     OW82475   2.943   2.318   2.721 -0.4731 -0.1273  0.0362
26358SOL    HW182476   2.890   2.303   2.800  0.8504 -2.6622  0.5863
26358SOL    HW282477   2.974   2.230   2.697  1.6694  0.9534 -1.4941
26359SOL     OW82478   0.003   9.388   8.930  0.0356 -0.1987  0.0200
26359SOL    HW182479  -0.075   9.347   8.966 -0.9487  0.5604 -1.1533
26359SOL    HW282480   0.040   9.439   9.002 -1.1329  0.2502  0.3102
26360SOL     OW82481   9.465   4.990   5.213 -0.0424  0.2208 -0.1209
26360SOL    HW182482   9.544   5.043   5.229  0.0971 -0.1696  0.5042
26360SOL    HW282483   9.402   5.052   5.177  0.4779  0.5868 -0.4123
26361SOL     OW82484   5.957   3.621   6.685  0.0171  0.1068 -0.5679
26361SOL    HW182485   5.918   3.551   6.738  1.2732 -0.2126 -0.0299
26361SOL    HW282486   5.985   3.577   6.605  0.8778 -0.0371 -0.1968
26362SOL     OW82487   4.958   6.264   4.772  0.6774 -0.2990 -0.3337
26362SOL    HW182488   4.917   6.335   4.722 -0.7210 -0.3058  0.7407
26362SOL    HW282489   4.884   6.213   4.806  1.6332 -1.4200  0.1310
26363SOL     OW82490   5.354   0.253  10.688  0.3022  0.0054  0.0437
26363SOL    HW182491   5.313   0.291  10.765 -0.1727  1.4547 -0.8911
26363SOL    HW282492   5.291   0.269  10.617  1.4040  0.0748 -0.9426
26364SOL     OW82493   6.431   1.901   4.922  0.0611 -0.1493 -0.2470
26364SOL    HW182494   6.416   1.916   4.828 -1.2044 -0.0554 -0.0539
26364SOL    HW282495   6.518   1.936   4.939  0.7421 -1.0892 -1.5999
26365SOL     OW82496   0.467   2.841   7.146 -0.2354 -0.1738  0.5060
26365SOL    HW182497   0.431   2.781   7.081  0.6351  0.0497 -0.2082
26365SOL    HW282498   0.465   2.927   7.104 -0.6557  0.1606  1.1876
26366SOL     OW82499   8.240   2.845   7.440 -0.1169 -0.4399 -0.0454
26366SOL    HW182500   8.286   2.877   7.363  0.2191 -1.0330 -0.0914
26366SOL    HW282501   8.147   2.857   7.419 -0.0077  1.8710  0.5145
26367SOL     OW82502   6.673   6.767   0.623  0.0355  0.0856  0.1161
26367SOL    HW182503   6.639   6.688   0.582 -1.1572  0.2184  0.8058
26367SOL    HW282504   6.717   6.736   0.702  2.4429 -0.1831 -1.2151
26368SOL     OW82505   5.085   6.571   2.937 -0.4565  0.7009  0.2534
26368SOL    HW182506   5.100   6.650   2.990 -0.5266  0.6833  0.2989
26368SOL    HW282507   5.019   6.522   2.985 -1.1984  1.1219 -0.3083
26369SOL     OW82508   3.019   8.896  10.644  0.6695  0.3589  0.0527
26369SOL    HW182509   3.051   8.982  10.673  1.7591  0.1695 -0.5599
26369SOL    HW282510   2.944   8.917  10.588  1.0522  0.9230 -0.2554
26370SOL     OW82511   1.518   8.598   2.729 -0.1220  0.7071  0.5277
26370SOL    HW182512   1.497   8.505   2.745  0.1471  0.4765 -0.4017
26370SOL    HW282513   1.582   8.620   2.796  1.6411 -0.4783 -0.6870
26371SOL     OW82514   4.013   8.236   6.467  0.2246  0.0287 -0.5400
26371SOL    HW182515   4.079   8.284   6.517  0.6754 -1.2660  0.1479
26371SOL    HW282516   4.037   8.144   6.477 -2.2586 -0.5796  0.5671
26372SOL     OW82517   4.100   3.506   2.011 -0.0585  0.0138  0.1289
26372SOL    HW182518   4.051   3.424   2.002  0.4374 -0.2138 -0.6033
26372SOL    HW282519   4.036   3.568   2.044 -1.2765  0.0931 -2.1739
26373SOL     OW82520   0.171   6.388   4.223  0.3553 -0.2973  0.1325
26373SOL    HW182521   0.172   6.398   4.319  0.3008  0.0871  0.0946
26373SOL    HW282522   0.196   6.297   4.209  1.5024 -0.0539  0.4715
26374SOL     OW82523   9.083  10.262   2.068  0.4343 -0.5009 -0.0615
26374SOL    HW182524   9.007  10.204   2.061  0.0988 -0.2360  1.1736
26374SOL    HW282525   9.138  10.238   1.993  0.1558 -2.1817  0.2308
26375SOL     OW82526   2.363   3.017  10.765  0.0860  0.6120  0.4635
26375SOL    HW182527   2.369   2.922  10.757  1.1702  0.6866  0.1881
26375SOL    HW282528   2.445   3.043  10.808  1.6408  1.7572 -2.8813
26376SOL     OW82529   9.620   4.759   9.613  0.3895 -0.0764  0.8197
26376SOL    HW182530   9.643   4.666   9.612  2.3562  0.3347  1.4371
26376SOL    HW282531   9.654   4.793   9.531 -1.6676 -0.1431 -0.0988
26377SOL     OW82532   8.278   2.466   7.683  0.0849 -0.1024 -0.1942
26377SOL    HW182533   8.239   2.422   7.607  0.7648 -0.1868 -0.5077
26377SOL    HW282534   8.341   2.528   7.645 -0.0270  0.3099  0.2836
26378SOL     OW82535   2.502   7.730   1.558  0.1065 -0.5495  0.5599
26378SOL    HW182536   2.473   7.822   1.555  1.7420 -0.0312 -1.4942
26378SOL    HW282537   2.569   7.729   1.626  1.0269  0.1337 -0.2972
26379SOL     OW82538   4.020   0.227   4.535 -0.5339 -0.7727  0.0511
26379SOL    HW182539   4.100   0.235   4.587 -1.2224  0.6750  0.9568
26379SOL    HW282540   4.045   0.253   4.447  0.1666 -1.1258  0.1405
26380SOL     OW82541   6.278   6.116   0.929  0.3105  0.2538  0.2628
26380SOL    HW182542   6.354   6.061   0.950  0.4507  0.0013 -0.8334
26380SOL    HW282543   6.233   6.069   0.859 -0.1770  1.0111  0.0555
26381SOL     OW82544   4.445   2.455   9.253  0.3515 -0.1257  0.2144
26381SOL    HW182545   4.482   2.457   9.341 -1.1727  0.8801  0.8652
26381SOL    HW282546   4.473   2.538   9.214 -0.9580  0.5366  0.6298
26382SOL     OW82547   5.480   4.834   5.611  0.3718  0.3765  0.0459
26382SOL    HW182548   5.451   4.758   5.561 -0.8893  0.9889 -0.2077
26382SOL    HW282549   5.519   4.798   5.690  0.0090 -0.5399 -0.1794
26383SOL     OW82550   1.242   9.243   2.990  0.6707 -0.1005 -0.1492
26383SOL    HW182551   1.285   9.320   3.026  3.9771 -2.1374  0.7058
26383SOL    HW282552   1.246   9.256   2.895  1.8848  0.4460 -0.0384
26384SOL     OW82553   5.800   6.277   2.353 -0.0102  0.3149 -0.5820
26384SOL    HW182554   5.793   6.373   2.360  2.5335  0.6998 -2.0532
26384SOL    HW282555   5.788   6.259   2.260  1.7598 -0.4780 -0.7083
26385SOL     OW82556  10.410   5.618   7.642 -1.0417  0.3873 -0.3086
26385SOL    HW182557  10.490   5.565   7.653 -1.0806  0.5089  0.6683
26385SOL    HW282558  10.429   5.675   7.568  0.2913  1.3032  0.6833
26386SOL     OW82559   3.072   1.532   4.204 -0.2687  0.9416 -0.2070
26386SOL    HW182560   3.064   1.569   4.292 -1.3460 -2.4672  1.2709
26386SOL    HW282561   2.993   1.479   4.193  1.3958 -1.3953 -1.8295
26387SOL     OW82562  10.282   0.325   8.596  0.4239  0.2682 -0.6362
26387SOL    HW182563  10.249   0.309   8.508  0.2014  0.4613 -0.5898
26387SOL    HW282564  10.333   0.406   8.588 -0.7656  1.0805 -0.3068
26388SOL     OW82565   3.357   9.798  10.648  0.2375  0.2550  0.0646
26388SOL    HW182566   3.339   9.723  10.705  0.3057  1.1610  1.3077
26388SOL    HW282567   3.359   9.760  10.559  2.5281 -1.6327  0.8067
26389SOL     OW82568   7.919   9.624   3.052 -0.5055  0.0407 -0.1261
26389SOL    HW182569   7.913   9.659   2.964  0.2727  1.0730  0.2142
26389SOL    HW282570   7.906   9.699   3.109  1.6807 -0.0636  0.6223
26390SOL     OW82571   1.311   3.315   6.203 -0.3657 -0.2782  0.1024
26390SOL    HW182572   1.229   3.280   6.168 -0.6970  1.1222 -0.6259
26390SOL    HW282573   1.368   3.325   6.127  0.4023 -0.9944  0.5649
26391SOL     OW82574   7.971   6.925   8.413 -0.7389  0.3804 -0.0038
26391SOL    HW182575   8.034   6.955   8.347 -1.0174 -2.5330 -1.7696
26391SOL    HW282576   7.938   7.006   8.453  2.7076  2.1009 -0.2506
26392SOL     OW82577   2.652   2.345   2.051 -0.2618  0.2388 -0.0509
26392SOL    HW182578   2.633   2.402   2.126  0.9937 -1.5124  1.6979
26392SOL    HW282579   2.706   2.275   2.087  1.0055 -0.3074 -2.7642
26393SOL     OW82580   7.502   1.848   1.610 -0.5160 -0.2569 -0.3214
26393SOL    HW182581   7.421   1.897   1.592 -1.1910 -1.9705 -2.3443
26393SOL    HW282582   7.474   1.758   1.625  0.9455 -0.7027 -0.0691
26394SOL     OW82583   1.278   1.741  10.234 -0.4786 -0.0123  0.1070
26394SOL    HW182584   1.361   1.777  10.266 -1.1540  1.6050  0.1436
26394SOL    HW282585   1.295   1.647  10.224  1.6971  0.4300 -0.9768
26395SOL     OW82586   7.005   7.555   0.892  0.6328  0.2551  0.3498
26395SOL    HW182587   7.093   7.523   0.915 -0.2431 -1.8172  1.0826
26395SOL    HW282588   6.951   7.476   0.892 -1.3881  1.5794  0.6677
26396SOL     OW82589   1.165   4.737   0.378  0.2604 -0.1328  0.0120
26396SOL    HW182590   1.155   4.688   0.460 -1.5810  0.7623  0.3903
26396SOL    HW282591   1.151   4.672   0.310 -1.4722 -0.3266  0.4973
26397SOL     OW82592   3.728   2.234   3.368  0.5371 -0.1099  0.1849
26397SOL    HW182593   3.725   2.151   3.415  0.0934 -0.9810 -1.3064
26397SOL    HW282594   3.813   2.272   3.391  0.6247 -0.8414  1.1073
26398SOL     OW82595   7.505   2.525   8.121 -0.0579 -0.3938  0.5271
26398SOL    HW182596   7.449   2.543   8.045  0.6489  2.2046  0.5429
26398SOL    HW282597   7.470   2.581   8.190  1.7461  0.2913  0.9168
26399SOL     OW82598   4.969   4.098  10.686  0.0204 -0.0987 -0.6669
26399SOL    HW182599   5.000   4.057  10.605  0.4774 -0.6405 -0.2256
26399SOL    HW282600   4.892   4.048  10.711  1.8101 -2.2291  1.0642
26400SOL     OW82601   3.871   6.306   9.649 -0.3713 -0.1718  0.0317
26400SOL    HW182602   3.931   6.311   9.724 -0.6784  0.6870  0.2292
26400SOL    HW282603   3.785   6.328   9.686 -0.6663 -0.5646 -0.4181
26401SOL     OW82604   8.696   4.487  10.457  0.0750 -0.7979 -0.1065
26401SOL    HW182605   8.656   4.404  10.433 -1.0479 -0.7225  1.3594
26401SOL    HW282606   8.671   4.548  10.388 -0.7641 -1.2134 -0.1727
26402SOL     OW82607   8.264   9.115   3.159  0.0774  0.2858  0.2337
26402SOL    HW182608   8.313   9.183   3.206  0.9410  0.0082 -0.2572
26402SOL    HW282609   8.295   9.121   3.069  0.3989 -0.9590  0.2452
26403SOL     OW82610  10.505   2.298   1.542  0.1855 -0.1039  0.3015
26403SOL    HW182611  10.562   2.233   1.583 -0.2650  0.5109  1.9640
26403SOL    HW282612  10.564   2.370   1.518  0.2589  0.1503  1.2072
26404SOL     OW82613   8.054   9.726   4.113 -0.3395 -0.3976  0.5982
26404SOL    HW182614   8.060   9.779   4.192  0.0461  0.7884 -0.2054
26404SOL    HW282615   7.993   9.656   4.136  1.7338 -1.6334  2.7795
26405SOL     OW82616   1.328  10.572   7.122 -0.4872  0.2924  0.1711
26405SOL    HW182617   1.247  10.554   7.074  0.6737 -0.4657 -1.6237
26405SOL    HW282618   1.385  10.614   7.057  1.4127 -1.4399  0.6215
26406SOL     OW82619   4.036   9.458   1.643 -0.1060 -0.5078 -0.1944
26406SOL    HW182620   4.079   9.520   1.584  3.2059 -2.6717 -0.3396
26406SOL    HW282621   3.996   9.513   1.711 -0.0831  1.8431 -1.9474
26407SOL     OW82622   6.442   4.437   9.525 -0.3860  0.0223 -0.0720
26407SOL    HW182623   6.524   4.387   9.532 -0.0689  0.6475  1.1427
26407SOL    HW282624   6.413   4.446   9.616 -1.9498 -0.3997 -0.5185
26408SOL     OW82625   3.232   8.320   1.073  0.1784  0.5572  0.6802
26408SOL    HW182626   3.287   8.331   1.150  1.4782  1.1891 -0.3133
26408SOL    HW282627   3.281   8.261   1.016  1.0667  3.0328 -1.2913
26409SOL     OW82628   3.845   2.106   9.730  0.0035  0.2826 -0.3617
26409SOL    HW182629   3.776   2.117   9.664  0.5366 -0.7703 -1.1265
26409SOL    HW282630   3.865   2.012   9.727  1.3559  0.5497 -0.0378
26410SOL     OW82631   4.727  10.021   4.463 -0.1151 -0.6013  0.0948
26410SOL    HW182632   4.738   9.930   4.434  0.9889 -0.4766  0.0826
26410SOL    HW282633   4.816  10.054   4.473 -0.4856  0.7244 -0.6621
26411SOL     OW82634   8.614   1.259   1.784  0.5337  0.0566  0.0225
26411SOL    HW182635   8.554   1.274   1.857  1.3539 -0.8178  0.9287
26411SOL    HW282636   8.694   1.306   1.809  0.3985  0.8414 -0.9546
26412SOL     OW82637   2.710   5.262   5.966  0.2944  0.3106  0.2375
26412SOL    HW182638   2.769   5.316   5.913 -0.0836  1.0653  0.5760
26412SOL    HW282639   2.767   5.199   6.010  0.7160  0.3031 -0.3099
26413SOL     OW82640   9.450   1.971   2.746  0.1876  0.4219  0.5129
26413SOL    HW182641   9.373   1.949   2.693  0.0296  0.4136  0.7459
26413SOL    HW282642   9.493   2.042   2.698  1.6673 -1.5017 -1.1919
26414SOL     OW82643   0.529   4.317   8.555  0.3124  0.0286  1.1669
26414SOL    HW182644   0.488   4.293   8.472 -0.6043 -1.1584  1.9254
26414SOL    HW282645   0.612   4.269   8.555  1.1001  1.3045  0.2653
26415SOL     OW82646   0.023   3.040   6.312  0.3839 -0.6346  0.0092
26415SOL    HW182647   0.010   2.973   6.380  1.4405 -0.0088  0.8664
26415SOL    HW282648  -0.043   3.106   6.331  0.5107 -0.5827  0.2908
26416SOL     OW82649   6.795   9.009   8.721 -0.5427  0.2139  0.6165
26416SOL    HW182650   6.762   8.922   8.744  0.1197 -0.6436 -1.4775
26416SOL    HW282651   6.889   9.002   8.735 -0.4495  0.4811  0.1250
26417SOL     OW82652   6.873   1.364   7.678 -0.1404 -0.1682 -0.0276
26417SOL    HW182653   6.951   1.343   7.730 -1.0861 -0.8106  1.1978
26417SOL    HW282654   6.809   1.297   7.703 -0.9063 -0.0000 -1.4390
26418SOL     OW82655   7.678   8.744   4.165 -1.0299  0.2425 -0.5592
26418SOL    HW182656   7.668   8.676   4.098 -1.5667  0.5189 -0.7684
26418SOL    HW282657   7.639   8.707   4.244 -0.1282 -0.1999 -0.3097
26419SOL     OW82658   1.535   6.421   7.684 -0.1229  0.1669 -0.4933
26419SOL    HW182659   1.532   6.513   7.656  1.1192  1.0055  1.8368
26419SOL    HW282660   1.450   6.385   7.660 -0.4688  1.7828 -1.8754
26420SOL     OW82661  10.793   2.420   5.542  0.3533 -0.1139 -0.1316
26420SOL    HW182662  10.816   2.467   5.623 -0.7594 -0.3823  0.3581
26420SOL    HW282663  10.707   2.382   5.560 -0.6392  1.0797 -1.9691
26421SOL     OW82664   1.934   8.150   2.439 -0.2157  0.0551 -0.1179
26421SOL    HW182665   1.853   8.160   2.387  0.0353  0.7359 -0.4011
26421SOL    HW282666   1.906   8.103   2.517 -0.6551 -0.7705 -0.7525
26422SOL     OW82667   1.459   5.623   4.864  0.1827 -0.2657 -0.4318
26422SOL    HW182668   1.440   5.556   4.930  0.4879 -1.1203 -1.1774
26422SOL    HW282669   1.380   5.676   4.859 -0.4976 -1.2737 -0.6122
26423SOL     OW82670   6.057   2.717   4.216 -0.2150 -0.2378  0.6789
26423SOL    HW182671   6.095   2.771   4.285  2.0577  0.6099 -1.0865
26423SOL    HW282672   6.005   2.778   4.163  1.9800  0.2514 -1.0513
26424SOL     OW82673   4.103   9.043   8.700  0.1873  0.0240 -0.2706
26424SOL    HW182674   4.191   9.057   8.665 -0.3323 -0.4060 -1.8019
26424SOL    HW282675   4.116   9.042   8.795  1.9409 -0.7416 -0.4712
26425SOL     OW82676   9.566   6.534   0.497 -0.0430  0.2908  0.6328
26425SOL    HW182677   9.504   6.607   0.497 -0.4579 -0.0465  1.1554
26425SOL    HW282678   9.536   6.477   0.427 -0.3141  0.1471  0.8597
26426SOL     OW82679   6.769   7.684  10.108  0.6805  0.2597 -0.8173
26426SOL    HW182680   6.708   7.745  10.151  0.6913 -0.2733 -0.0314
26426SOL    HW282681   6.748   7.690  10.015  0.1910  0.9219 -0.6690
26427SOL     OW82682   6.682   9.762   0.166 -0.4135  0.3682  0.6044
26427SOL    HW182683   6.728   9.835   0.208 -0.8229  0.2116  1.3463
26427SOL    HW282684   6.590   9.788   0.169 -0.5903 -0.2797  1.1018
26428SOL     OW82685   8.064  10.304   8.132  0.3022  0.2784 -0.0732
26428SOL    HW182686   8.089  10.218   8.166  0.6964  1.0239  1.6166
26428SOL    HW282687   8.121  10.365   8.178 -1.2682  1.6073  0.1788
26429SOL     OW82688   4.958   7.953   9.017  0.4250 -0.0075  0.1939
26429SOL    HW182689   4.956   7.979   9.109  0.0043  1.0333 -0.0972
26429SOL    HW282690   5.045   7.977   8.986  1.1250 -1.7294  0.6729
26430SOL     OW82691   1.430   4.707   7.220  0.7777  0.1736 -0.8089
26430SOL    HW182692   1.506   4.706   7.161  1.2503 -2.6303 -0.2744
26430SOL    HW282693   1.357   4.683   7.164  0.7495  0.2231 -0.7931
26431SOL     OW82694   5.727   8.236   5.474  0.2306  0.0291 -0.0856
26431SOL    HW182695   5.795   8.262   5.413 -0.7969  0.3803 -1.1098
26431SOL    HW282696   5.744   8.287   5.553  1.9887 -0.9381  0.2215
26432SOL     OW82697   8.297  10.638   9.606 -0.3144 -0.4783  0.1268
26432SOL    HW182698   8.254  10.556   9.630 -1.1776  0.3231  1.4449
26432SOL    HW282699   8.231  10.705   9.622  0.7433  0.5847  0.1839
26433SOL     OW82700   0.930   8.410   0.510  1.1084 -0.5958  0.4442
26433SOL    HW182701   0.862   8.347   0.536 -0.5996  1.6106  1.7941
26433SOL    HW282702   0.933   8.405   0.415  0.7556 -2.3982  0.4952
26434SOL     OW82703   2.696   6.453   2.290  0.1917 -0.1608  0.2599
26434SOL    HW182704   2.618   6.427   2.240  0.8541  0.0300 -0.9113
26434SOL    HW282705   2.752   6.376   2.289 -0.1042 -0.4083  1.3907
26435SOL     OW82706   4.627   9.334   6.465  0.0066  0.7389  0.1269
26435SOL    HW182707   4.556   9.331   6.400 -0.9146  0.2325  1.1243
26435SOL    HW282708   4.707   9.324   6.414 -0.8207 -4.4099 -0.6419
26436SOL     OW82709  10.745   3.312   5.012  0.1843  0.4309  0.6737
26436SOL    HW182710  10.717   3.227   4.981  2.1102  0.2475 -0.6906
26436SOL    HW282711  10.780   3.295   5.100  3.3695 -0.8534 -0.6930
26437SOL     OW82712   7.508   5.540   3.346 -0.3746 -0.2910 -0.0917
26437SOL    HW182713   7.483   5.598   3.275  0.5883  0.7930  0.4381
26437SOL    HW282714   7.570   5.479   3.307 -0.1557  0.0476 -0.2701
26438SOL     OW82715  10.097   4.244   8.121 -0.2881  0.5130 -0.0318
26438SOL    HW182716  10.031   4.272   8.057  0.0812  1.4587 -0.0098
26438SOL    HW282717  10.053   4.176   8.172 -1.2686  1.1742  0.0247
26439SOL     OW82718   3.643   4.465   3.299  0.0144 -0.0277  0.1296
26439SOL    HW182719   3.621   4.494   3.388 -3.2294  4.4224 -1.7796
26439SOL    HW282720   3.706   4.529   3.268  1.3833 -1.7353 -0.8244
26440SOL     OW82721   2.672   6.369   0.521  0.2527 -0.1495  0.3981
26440SOL    HW182722   2.752   6.408   0.487  0.2547  1.1357  1.7674
26440SOL    HW282723   2.611   6.442   0.528 -0.9701 -1.0608 -0.3477
26441SOL     OW82724   7.494  10.430   8.078 -0.3323 -0.3253  0.2222
26441SOL    HW182725   7.554  10.504   8.086 -0.9414  0.1410  0.5355
26441SOL    HW282726   7.538  10.358   8.123 -0.5138  0.3222  1.4611
26442SOL     OW82727   8.061   2.607   2.847 -0.6510  0.3118 -0.3191
26442SOL    HW182728   8.025   2.523   2.873 -0.4504  1.0571  2.7043
26442SOL    HW282729   8.080   2.597   2.753 -3.5498 -1.8832 -0.7942
26443SOL     OW82730   1.354   3.781   6.161 -0.2848  0.2380  0.0075
26443SOL    HW182731   1.320   3.729   6.087 -1.7148  1.5312 -0.2922
26443SOL    HW282732   1.357   3.719   6.234  1.8083 -1.2495 -1.2308
26444SOL     OW82733   6.974   3.233   1.065 -0.1798 -0.2190  0.2797
26444SOL    HW182734   6.882   3.208   1.057 -0.1437 -0.4622  0.5776
26444SOL    HW282735   6.972   3.317   1.112 -0.1942 -0.9648  1.6755
26445SOL     OW82736   1.846   0.550   9.597  0.5267  0.1353  0.0994
26445SOL    HW182737   1.924   0.511   9.637  0.6533  2.1048  1.9987
26445SOL    HW282738   1.865   0.644   9.594 -1.8768  0.7246  0.9721
26446SOL     OW82739   0.821   2.070   8.876  0.4847  0.3325 -0.1198
26446SOL    HW182740   0.838   1.981   8.844  0.4998 -0.4076  1.8042
26446SOL    HW282741   0.731   2.067   8.909  0.2860  1.2042 -0.5530
26447SOL     OW82742   7.828   8.771   1.856  0.2264 -0.1095 -0.0286
26447SOL    HW182743   7.894   8.823   1.811  1.8783 -2.8970 -1.0508
26447SOL    HW282744   7.839   8.793   1.949  1.0389  1.1139 -0.3888
26448SOL     OW82745   2.010   0.104   1.733  0.2876  0.5969 -0.4077
26448SOL    HW182746   1.998   0.198   1.734  1.8504  0.8243  0.7906
26448SOL    HW282747   1.924   0.068   1.711 -0.5854  2.2407  0.2333
26449SOL     OW82748   8.316  10.690   4.690 -0.5331 -0.4228  0.3821
26449SOL    HW182749   8.287  10.721   4.776 -2.4486  0.6752 -0.5847
26449SOL    HW282750   8.292  10.760   4.630  0.0058 -1.5112 -1.1727
26450SOL     OW82751   6.510   1.801   3.728  0.4654 -0.3781  0.1809
26450SOL    HW182752   6.533   1.845   3.647 -1.5797  0.0946 -0.1873
26450SOL    HW282753   6.477   1.870   3.785 -1.9701 -1.2258 -0.0940
26451SOL     OW82754   9.632   7.730   5.554 -0.1534  0.2842  0.2561
26451SOL    HW182755   9.558   7.676   5.526  0.5802 -0.5526 -0.0991
26451SOL    HW282756   9.669   7.683   5.628 -0.0720  0.7972  0.5511
26452SOL     OW82757  10.854   0.601   0.972  0.1029 -0.0282  0.2224
26452SOL    HW182758  10.780   0.590   1.032  0.2600 -1.1411  0.2441
26452SOL    HW282759  10.906   0.671   1.010 -0.4747  0.1511  0.6948
26453SOL     OW82760   6.381   6.831   9.131  0.5729  0.5665  0.8600
26453SOL    HW182761   6.300   6.852   9.177 -0.9790  0.9844 -1.8435
26453SOL    HW282762   6.376   6.737   9.114 -0.7531  1.0000 -1.6017
26454SOL     OW82763   7.865  10.455   2.424  0.2581 -0.0431 -0.0974
26454SOL    HW182764   7.793  10.432   2.483  3.4053 -2.5575  3.2722
26454SOL    HW282765   7.877  10.377   2.369  1.4125 -0.4172  0.6342
26455SOL     OW82766   0.945   6.283   7.785  0.9209  0.1024  0.2450
26455SOL    HW182767   0.979   6.295   7.696 -1.9625  1.9402 -0.7896
26455SOL    HW282768   1.021   6.292   7.842  2.6866  0.1254 -1.9666
26456SOL     OW82769   7.046   6.338   9.004  0.2555  0.4300  0.2013
26456SOL    HW182770   7.084   6.267   8.953 -2.3287  0.1492 -1.5083
26456SOL    HW282771   7.039   6.411   8.942 -1.5053  0.5974  0.5345
26457SOL     OW82772  10.024   8.312   9.609 -0.4993  0.0063 -0.6038
26457SOL    HW182773  10.100   8.314   9.668 -0.6579 -0.3121 -0.3836
26457SOL    HW282774   9.965   8.247   9.648 -1.5306  1.2686  0.0194
26458SOL     OW82775   0.584   7.039   6.641 -0.0649  0.3752  0.2449
26458SOL    HW182776   0.610   7.053   6.731 -0.3798  0.9234  0.2550
26458SOL    HW282777   0.557   6.947   6.638 -0.4804  0.4730  0.8184
26459SOL     OW82778   3.147   2.260   5.350  0.0520  0.3031 -0.2247
26459SOL    HW182779   3.140   2.345   5.393  0.4171 -0.2655  0.9915
26459SOL    HW282780   3.233   2.227   5.374  0.2446 -0.0705 -1.3540
26460SOL     OW82781   0.479   0.025   8.665  0.3715  0.0020 -0.4577
26460SOL    HW182782   0.457  -0.016   8.581 -0.4584 -2.5156  0.8717
26460SOL    HW282783   0.406   0.083   8.685 -0.2053 -0.6129 -0.7526
26461SOL     OW82784   9.635   0.057   9.110  0.5505 -0.4582  0.4057
26461SOL    HW182785   9.716   0.075   9.063 -0.5743 -0.8424 -1.7973
26461SOL    HW282786   9.645  -0.032   9.142  0.5533 -0.9670 -0.9337
26462SOL     OW82787   0.763   1.270   2.682  0.4080  0.4358  0.3362
26462SOL    HW182788   0.798   1.199   2.628 -0.0716  0.6402 -0.2600
26462SOL    HW282789   0.841   1.316   2.715  0.7187 -0.3069  0.6613
26463SOL     OW82790   5.774   2.316   7.285 -0.4552 -1.3068  0.0865
26463SOL    HW182791   5.819   2.274   7.358  0.0382 -3.0947 -1.1771
26463SOL    HW282792   5.707   2.370   7.327  1.5557 -0.1017  1.9315
26464SOL     OW82793  10.839   3.747   8.679 -0.0091  0.0462  1.0841
26464SOL    HW182794  10.904   3.765   8.611 -3.2784  0.8247 -2.1867
26464SOL    HW282795  10.870   3.793   8.756  3.1177  0.5380 -0.3240
26465SOL     OW82796   6.594   3.332   2.776  0.2027 -0.2424  0.3323
26465SOL    HW182797   6.514   3.325   2.723  0.4708 -1.8116  0.0770
26465SOL    HW282798   6.600   3.247   2.820  0.8285  0.4779  1.6807
26466SOL     OW82799   1.982   6.157   9.809 -0.2971  0.6201  0.0230
26466SOL    HW182800   1.897   6.201   9.802 -0.5345  0.0163 -1.1465
26466SOL    HW282801   2.035   6.217   9.861 -0.9557  1.7625 -0.5784
26467SOL     OW82802   6.434   1.884   4.036 -0.3850 -0.2024  0.2046
26467SOL    HW182803   6.364   1.942   4.005 -0.0106 -0.1592 -0.5844
26467SOL    HW282804   6.415   1.872   4.129 -1.4962 -0.2697 -0.0162
26468SOL     OW82805   9.482   9.682  10.230 -0.1801  0.0448 -0.4622
26468SOL    HW182806   9.566   9.724  10.249  0.0122 -1.2168  1.7888
26468SOL    HW282807   9.416   9.743  10.264 -0.1089  0.2911 -0.7593
26469SOL     OW82808   3.943   8.822   3.728 -0.1010 -0.1038  0.3021
26469SOL    HW182809   4.011   8.862   3.673 -0.0664 -2.4834 -1.5350
26469SOL    HW282810   3.990   8.787   3.803  0.4563 -0.2631 -0.1174
26470SOL     OW82811   2.440   1.633   6.163  0.6587 -0.5285  0.2194
26470SOL    HW182812   2.504   1.696   6.195 -1.2899  2.3060 -1.0522
26470SOL    HW282813   2.410   1.588   6.241 -0.4005  2.6813  1.8382
26471SOL     OW82814   7.091   4.706   0.663  0.3647  0.0537 -0.6569
26471SOL    HW182815   7.153   4.715   0.735 -0.9808 -0.3298  0.5888
26471SOL    HW282816   7.102   4.616   0.633 -0.0977 -0.2501  0.0606
26472SOL     OW82817   5.676   1.496   0.463 -0.4124 -0.0892  0.1051
26472SOL    HW182818   5.679   1.406   0.496 -0.4541 -0.4208 -0.7693
26472SOL    HW282819   5.717   1.492   0.377 -0.0134  0.8226  0.2353
26473SOL     OW82820   7.794   9.272   1.386 -0.7461  0.4102 -0.2854
26473SOL    HW182821   7.871   9.295   1.438 -2.0133  0.8207  1.5075
26473SOL    HW282822   7.726   9.332   1.417 -2.3944 -1.4243 -0.1957
26474SOL     OW82823   6.120   8.245   6.463  0.1711 -0.5778  0.3934
26474SOL    HW182824   6.169   8.191   6.402  1.4017 -0.6423  1.4041
26474SOL    HW282825   6.062   8.184   6.509  0.4222 -0.7920  0.4276
26475SOL     OW82826   7.820   5.317   3.021  0.7801 -0.0061  0.0622
26475SOL    HW182827   7.757   5.349   2.956 -2.2917  0.7990  3.0930
26475SOL    HW282828   7.825   5.222   3.004 -1.2589 -0.0929 -0.3839
26476SOL     OW82829   1.265  10.273   0.499 -0.2592 -0.4258 -0.5291
26476SOL    HW182830   1.227  10.186   0.511 -0.5858 -0.5750 -2.4055
26476SOL    HW282831   1.244  10.296   0.409  0.6901  1.1896 -0.3707
26477SOL     OW82832   6.494   2.502   3.735  0.2505 -0.3174 -0.7776
26477SOL    HW182833   6.552   2.552   3.793  1.2559 -0.7523 -1.3876
26477SOL    HW282834   6.407   2.536   3.754  0.4211 -1.0249  1.6169
26478SOL     OW82835   3.398  10.865  10.662 -0.1336  0.3333  0.0224
26478SOL    HW182836   3.370  10.862  10.571 -0.8934 -0.2836  0.2675
26478SOL    HW282837   3.375  10.779  10.698  0.9004  0.2693  0.5867
26479SOL     OW82838   5.399   4.576   5.206  0.1053 -0.3583  0.4503
26479SOL    HW182839   5.398   4.485   5.235  1.2984 -0.1282  1.3177
26479SOL    HW282840   5.475   4.582   5.148  0.0068  0.0607  0.3635
26480SOL     OW82841   3.210   9.372   9.639 -0.1567  0.3199 -0.3171
26480SOL    HW182842   3.159   9.387   9.718  0.1491 -0.4008  0.0321
26480SOL    HW282843   3.156   9.405   9.568 -0.6359  0.5475  0.1532
26481SOL     OW82844   3.094   9.357   5.214  0.4924  0.1694 -0.2752
26481SOL    HW182845   3.163   9.308   5.259  0.5416  0.7997  0.3479
26481SOL    HW282846   3.013   9.329   5.256  0.5651  0.9899  0.4502
26482SOL     OW82847   4.741   5.373   6.189 -0.2013 -0.0843 -0.6767
26482SOL    HW182848   4.664   5.400   6.238 -0.5588  0.7585 -1.6818
26482SOL    HW282849   4.775   5.453   6.150  1.1052 -0.4663 -0.3706
26483SOL     OW82850   2.791   1.554   7.299 -0.3290  0.5875  0.6960
26483SOL    HW182851   2.751   1.638   7.274 -1.1676 -0.4998 -2.0256
26483SOL    HW282852   2.722   1.489   7.284  1.1467 -0.8844 -0.0634
26484SOL     OW82853   4.975  10.146   5.677 -0.3468  0.4013 -0.0065
26484SOL    HW182854   4.890  10.162   5.716 -1.3762 -0.2472 -1.8353
26484SOL    HW282855   5.014  10.078   5.732  1.1561  3.8425  3.6924
26485SOL     OW82856   7.545   0.992   5.067 -0.2863  0.1491 -0.0972
26485SOL    HW182857   7.609   1.014   5.000  0.5587  0.4611  0.7828
26485SOL    HW282858   7.492   0.921   5.029 -1.5920  2.0795 -2.1268
26486SOL     OW82859   4.254   9.150   3.382 -0.3053 -0.2714  0.4578
26486SOL    HW182860   4.267   9.181   3.293 -0.8165  0.7433  0.7182
26486SOL    HW282861   4.287   9.221   3.437  0.4948 -1.1075  1.0829
26487SOL     OW82862   5.056   2.975   9.196  0.5509  0.3650  0.0920
26487SOL    HW182863   5.138   2.927   9.205 -0.0638 -0.8182 -0.3398
26487SOL    HW282864   4.997   2.936   9.261 -0.4216 -0.5506 -1.2639
26488SOL     OW82865   5.635   5.177   6.155  0.4219 -0.3337  0.2848
26488SOL    HW182866   5.568   5.245   6.159  0.5071 -0.2688  0.6632
26488SOL    HW282867   5.684   5.187   6.236 -0.9302 -2.2332  1.4359
26489SOL     OW82868   3.049   5.463   9.877  0.2394  0.2808 -0.2471
26489SOL    HW182869   2.979   5.468   9.942  0.9019  0.1699  0.4895
26489SOL    HW282870   3.103   5.390   9.906  0.7311  0.4447 -0.7439
26490SOL     OW82871   8.597   6.709   2.932 -0.7207  0.0827 -0.5838
26490SOL    HW182872   8.544   6.705   2.852  1.4288 -0.2615 -2.0865
26490SOL    HW282873   8.681   6.746   2.903  0.2914 -0.4996  1.4397
26491SOL     OW82874  10.752   4.287   1.932 -1.0100  0.3431 -0.2853
26491SOL    HW182875  10.702   4.368   1.917 -0.6487  0.8555  1.1080
26491SOL    HW282876  10.823   4.313   1.990 -0.7648 -0.9525  0.0275
26492SOL     OW82877   7.947   4.626   2.423 -0.2905  0.1087  0.2859
26492SOL    HW182878   7.889   4.697   2.393 -1.9026 -0.5204  1.7217
26492SOL    HW282879   7.890   4.571   2.477  1.8493 -0.1299  2.4261
26493SOL     OW82880   2.957   1.651  10.148 -0.2350  0.2484  0.1697
26493SOL    HW182881   3.050   1.628  10.154 -0.8723 -3.3981 -1.1746
26493SOL    HW282882   2.941   1.662  10.054 -1.4442 -1.0141  0.1825
26494SOL     OW82883   0.873   2.689   6.983 -0.5688  0.0091 -0.2263
26494SOL    HW182884   0.805   2.643   7.032 -0.4260  0.5162  0.4677
26494SOL    HW282885   0.944   2.626   6.976 -1.1707 -0.5916 -1.1224
26495SOL     OW82886  10.806   0.573   8.892 -0.1000  0.5266  0.5078
26495SOL    HW182887  10.739   0.634   8.923 -0.8130 -0.8372  1.7961
26495SOL    HW282888  10.757   0.499   8.858  0.7527 -0.2743  0.9966
26496SOL     OW82889   8.061   0.414   5.648 -0.3434 -0.2245  0.1817
26496SOL    HW182890   7.995   0.454   5.705  0.0731  1.2030 -0.2912
26496SOL    HW282891   8.141   0.462   5.668 -0.3204  0.7560 -2.0229
26497SOL     OW82892   2.147   5.544  10.407  0.1732 -0.4881 -0.1768
26497SOL    HW182893   2.229   5.590  10.424  0.6480 -1.0115 -1.0193
26497SOL    HW282894   2.136   5.485  10.482 -1.4378  2.2730  1.9868
26498SOL     OW82895   7.559   3.404   4.287 -0.0924  0.0384  0.6091
26498SOL    HW182896   7.634   3.418   4.345 -0.4266  0.3575  0.9692
26498SOL    HW282897   7.577   3.459   4.211  0.9282 -1.2848 -0.1491
26499SOL     OW82898   3.166   4.061   4.539 -0.6368 -0.4300  0.1474
26499SOL    HW182899   3.153   4.058   4.445  1.1146  0.5302 -0.1743
26499SOL    HW282900   3.106   4.128   4.570  0.4457  0.9608 -0.6583
26500SOL     OW82901   9.245   0.056   1.980 -0.0981  0.4606 -0.3200
26500SOL    HW182902   9.172   0.113   1.956  0.8956  1.1061 -1.9510
26500SOL    HW282903   9.239   0.048   2.075 -0.9762  2.3183 -0.1771
26501SOL     OW82904   1.868   8.397   2.825  0.0775 -0.0027 -0.1753
26501SOL    HW182905   1.813   8.327   2.790  1.9210 -3.2348  2.7156
26501SOL    HW282906   1.807   8.455   2.872 -1.3971 -0.1143 -1.8567
26502SOL     OW82907   2.178  10.263   5.622  0.2871  0.0600  0.3526
26502SOL    HW182908   2.253  10.311   5.587 -0.1194 -0.9503 -2.0577
26502SOL    HW282909   2.217  10.188   5.668  0.7737  0.2481  0.2554
26503SOL     OW82910   9.069   2.319   0.617  0.0573  0.1315  0.0188
26503SOL    HW182911   9.091   2.226   0.617 -0.7144 -0.0536 -0.3628
26503SOL    HW282912   9.039   2.337   0.528 -0.8751  0.4861  0.3910
26504SOL     OW82913   3.342  10.110   9.278 -0.6394  0.6763 -0.0775
26504SOL    HW182914   3.418  10.168   9.280  0.0877 -0.2532  0.3227
26504SOL    HW282915   3.346  10.068   9.192  0.5295 -0.9037  0.6960
26505SOL     OW82916   6.722   8.802   0.271 -0.4187 -0.4416  0.0205
26505SOL    HW182917   6.684   8.853   0.200 -1.2706 -1.4897 -0.2952
26505SOL    HW282918   6.648   8.759   0.313  0.1383 -0.3458  1.1615
26506SOL     OW82919   0.046   4.857  10.779  0.3838 -0.1178 -0.0901
26506SOL    HW182920   0.032   4.951  10.792 -1.6860 -0.2400 -1.1418
26506SOL    HW282921   0.061   4.824  10.867 -0.5343  0.9626  0.5077
26507SOL     OW82922   2.594   5.284   7.400  0.7126  0.0199 -0.0598
26507SOL    HW182923   2.639   5.219   7.346 -0.5466  0.1337 -1.3207
26507SOL    HW282924   2.567   5.235   7.478  1.0753 -0.6051 -0.3184
26508SOL     OW82925   3.155   1.731   8.925  0.0043 -0.6572 -0.7171
26508SOL    HW182926   3.175   1.652   8.975  2.8277 -0.3833 -1.2840
26508SOL    HW282927   3.133   1.699   8.837  0.2827 -0.8754 -0.7082
26509SOL     OW82928   1.870   0.702   2.722  0.1514 -0.0287  0.3814
26509SOL    HW182929   1.960   0.697   2.690  0.1113 -0.7934  0.3632
26509SOL    HW282930   1.876   0.749   2.805  0.1770  2.5491 -0.9724
26510SOL     OW82931  10.054   4.199   2.267  0.5368 -0.1053 -0.4918
26510SOL    HW182932  10.033   4.247   2.347  0.6421 -1.0092  0.0883
26510SOL    HW282933   9.998   4.122   2.269  1.9879 -1.1983 -0.2382
26511SOL     OW82934   8.935   0.268   2.652 -0.0126  0.0566 -0.2633
26511SOL    HW182935   8.888   0.202   2.703 -0.8360  0.5409 -0.3779
26511SOL    HW282936   8.866   0.326   2.619  0.7069  1.0581 -0.0440
26512SOL     OW82937   0.213   6.257  10.746  0.1069  0.0422 -0.3854
26512SOL    HW182938   0.308   6.244  10.744  0.2097  0.8295 -0.9244
26512SOL    HW282939   0.198   6.312  10.823  0.2588  1.0923 -1.0781
26513SOL     OW82940   2.867   6.991   1.297 -0.7490 -0.6704  0.4870
26513SOL    HW182941   2.924   7.055   1.340 -1.8912  2.5048 -2.2880
26513SOL    HW282942   2.852   6.924   1.363  2.4900  0.6451  2.8208
26514SOL     OW82943   6.590   3.996   7.885  0.2763  0.0433  0.4804
26514SOL    HW182944   6.623   3.965   7.801 -1.0728  0.4759 -0.2331
26514SOL    HW282945   6.497   4.009   7.871 -0.1025 -0.4941  2.2460
26515SOL     OW82946   6.224   6.225  10.877 -0.1495  0.1201 -0.5456
26515SOL    HW182947   6.294   6.159  10.872 -0.5260 -0.4173  0.7177
26515SOL    HW282948   6.259   6.292  10.935 -0.6244 -0.1097  0.0254
26516SOL     OW82949   2.905   9.766   3.581 -0.7367  0.2580  0.5368
26516SOL    HW182950   2.888   9.749   3.674 -0.1319  0.4836  0.6961
26516SOL    HW282951   2.843   9.834   3.557 -0.8944  0.2004  0.7776
26517SOL     OW82952   7.236   3.570   9.674 -0.8077  0.0669 -0.9249
26517SOL    HW182953   7.319   3.617   9.671 -0.9539  0.2932 -2.2176
26517SOL    HW282954   7.253   3.487   9.629 -1.1016 -0.1971 -0.5600
26518SOL     OW82955  10.076   7.511   8.607  1.1598  0.1167 -0.0503
26518SOL    HW182956  10.067   7.537   8.699  0.2587  0.1477 -0.1372
26518SOL    HW282957  10.165   7.479   8.599  0.9669 -0.7339  1.0515
26519SOL     OW82958   8.955  10.253   7.096 -0.4474  0.7162  0.1568
26519SOL    HW182959   8.950  10.263   7.191  2.2019  0.7001  0.3851
26519SOL    HW282960   8.959  10.343   7.063  0.1861  0.7099  0.2082
26520SOL     OW82961   6.212   3.773   3.339 -0.8330 -0.2338  0.5974
26520SOL    HW182962   6.264   3.693   3.339  0.7995  0.6450 -2.8537
26520SOL    HW282963   6.137   3.753   3.283 -0.4548  0.5814 -0.2318
26521SOL     OW82964   5.523   4.871   7.249  0.2865 -0.1049 -0.1282
26521SOL    HW182965   5.588   4.807   7.278 -0.0538  0.7013  2.6607
26521SOL    HW282966   5.447   4.855   7.304 -0.5882  1.3094 -0.8656
26522SOL     OW82967   0.980   4.242  10.133 -0.5876  0.2746 -0.7627
26522SOL    HW182968   1.061   4.202  10.164  0.5731  2.7439 -0.4239
26522SOL    HW282969   0.914   4.212  10.196  0.3507 -0.4679 -0.0886
26523SOL     OW82970   8.254  10.853   4.899  0.2441 -0.1073  0.1261
26523SOL    HW182971   8.235  10.819   4.986 -0.1642 -0.1103  0.0374
26523SOL    HW282972   8.323  10.917   4.912 -0.3026  0.4065  0.5480
26524SOL     OW82973   0.367   6.668   3.079  0.3045 -0.1546  0.2645
26524SOL    HW182974   0.321   6.589   3.107  1.1816 -1.1295 -0.9483
26524SOL    HW282975   0.398   6.648   2.991  0.1251  1.7344 -0.2728
26525SOL     OW82976   3.826   9.193   4.710  1.3934 -0.2062 -0.6359
26525SOL    HW182977   3.765   9.146   4.766  0.4658  0.6383 -0.9102
26525SOL    HW282978   3.907   9.197   4.761  0.2142  1.6883  1.2685
26526SOL     OW82979   9.535   7.874   9.818  0.1317  0.2513 -0.0308
26526SOL    HW182980   9.609   7.814   9.815  0.8589  1.0506  1.1043
26526SOL    HW282981   9.570   7.955   9.856 -1.5168  0.3321  1.4888
26527SOL     OW82982   7.008   0.555   3.152  0.1876 -0.8861  0.0517
26527SOL    HW182983   6.995   0.558   3.247  1.0524 -0.9171  0.1799
26527SOL    HW282984   7.101   0.572   3.140  0.2178 -1.5506 -0.7557
26528SOL     OW82985   8.475   9.542   5.971 -0.1521 -0.0868  0.3527
26528SOL    HW182986   8.438   9.607   6.031 -0.5700 -1.3625  1.5186
26528SOL    HW282987   8.565   9.573   5.955  0.2828 -0.1783  2.3614
26529SOL     OW82988  10.636   4.331  10.407 -0.3595 -0.1156 -0.0205
26529SOL    HW182989  10.682   4.337  10.490  2.2107 -0.0218 -1.3713
26529SOL    HW282990  10.649   4.417  10.366 -2.0495  0.0235 -0.3350
26530SOL     OW82991  10.092   5.106   9.281 -0.6132 -0.2504 -0.4602
26530SOL    HW182992  10.004   5.088   9.314 -0.6393  0.5633 -0.0618
26530SOL    HW282993  10.102   5.048   9.205 -1.8524  0.3620 -1.1057
26531SOL     OW82994   2.556   2.510   0.059  0.2333  0.3543  0.6464
26531SOL    HW182995   2.546   2.582  -0.003  1.7453  0.2477  0.2346
26531SOL    HW282996   2.631   2.535   0.113  0.5924 -0.7571  0.6945
26532SOL     OW82997  10.189   2.027   2.106 -0.0966  0.1764 -0.0185
26532SOL    HW182998  10.207   2.067   2.191 -0.5095 -1.2491  0.7673
26532SOL    HW282999  10.267   2.047   2.053  0.8222 -0.1414  1.1640
26533SOL     OW83000   1.033   6.209   7.535 -0.2453 -0.3250  0.1354
26533SOL    HW183001   1.046   6.117   7.515 -0.2072 -0.4960  0.9214
26533SOL    HW283002   1.036   6.253   7.449 -0.4883 -1.0698 -0.2604
26534SOL     OW83003   2.434   7.795   8.531 -0.3093  0.2826  0.1012
26534SOL    HW183004   2.378   7.769   8.604 -0.1937  1.3190  0.5781
26534SOL    HW283005   2.400   7.880   8.503  0.8207  0.7833  0.1922
26535SOL     OW83006   8.917   3.137   2.636 -0.3679 -0.1935 -0.3698
26535SOL    HW183007   8.878   3.122   2.550  0.1269 -0.1182 -0.6114
26535SOL    HW283008   8.893   3.227   2.657 -1.8137 -0.7107  0.2758
26536SOL     OW83009   3.798   3.878   1.624  0.1027  0.2859 -0.1680
26536SOL    HW183010   3.833   3.831   1.700 -0.8563 -0.3513 -0.1000
26536SOL    HW283011   3.726   3.930   1.660  0.1837  0.6372 -0.5083
26537SOL     OW83012   2.871   2.198   5.397  0.1122  0.5755  0.0726
26537SOL    HW183013   2.831   2.277   5.434  1.8605  0.8563  1.4899
26537SOL    HW283014   2.965   2.217   5.396  0.3978 -0.7495 -1.4237
26538SOL     OW83015   1.668   4.409   1.407  0.1701  0.2721 -0.0891
26538SOL    HW183016   1.618   4.417   1.488  0.4879 -0.0630  0.1430
26538SOL    HW283017   1.759   4.424   1.434  0.6960 -2.6749  0.1809
26539SOL     OW83018   2.559   9.590   9.610 -0.5809 -0.0138  0.0308
26539SOL    HW183019   2.567   9.673   9.563 -0.0877  0.2391  0.5458
26539SOL    HW283020   2.647   9.573   9.643 -1.0768  0.2356  1.5429
26540SOL     OW83021   4.598   5.635   2.982  0.1557  0.3145  0.1976
26540SOL    HW183022   4.542   5.557   2.984  0.4761  0.0990  1.0844
26540SOL    HW283023   4.636   5.640   3.070  1.2883  0.6447 -0.2935
26541SOL     OW83024   7.674   3.839   7.924  0.1105  0.0668 -0.0152
26541SOL    HW183025   7.651   3.795   7.842  1.0166 -0.4603  0.0047
26541SOL    HW283026   7.746   3.788   7.959  1.0093  1.4028  0.1509
26542SOL     OW83027   9.682   5.689   0.136 -0.0917  0.2986  0.0560
26542SOL    HW183028   9.734   5.624   0.090  1.3410  1.2110  0.3413
26542SOL    HW283029   9.617   5.637   0.184  0.4148 -0.8532 -0.4619
26543SOL     OW83030   3.010   3.654  10.222  0.9202  0.5843  0.7857
26543SOL    HW183031   2.945   3.596  10.260  1.2813 -1.2157 -1.1229
26543SOL    HW283032   3.091   3.602  10.220  0.8890  0.4768 -2.3860
26544SOL     OW83033   0.960   6.088   5.505 -0.1706 -0.1898 -0.1809
26544SOL    HW183034   0.971   6.083   5.600  1.6110 -0.5883 -0.3788
26544SOL    HW283035   0.878   6.135   5.494 -1.1431 -1.3437  1.5566
26545SOL     OW83036   3.245   3.849  10.788 -0.3723 -0.1907  0.4016
26545SOL    HW183037   3.201   3.771  10.755 -1.1457 -0.8644  2.8502
26545SOL    HW283038   3.313   3.816  10.847  0.9608  0.9544 -0.4282
26546SOL     OW83039   6.221   1.049   0.801 -0.0707  0.2541 -0.2740
26546SOL    HW183040   6.242   1.075   0.711 -1.8751  0.0654 -0.7819
26546SOL    HW283041   6.255   0.960   0.808 -0.4137  0.0613 -0.9626
26547SOL     OW83042   0.505   1.682  10.689 -0.1589 -0.1571 -0.7323
26547SOL    HW183043   0.591   1.708  10.655 -0.4207  1.9937  0.0721
26547SOL    HW283044   0.454   1.660  10.612  0.5068  0.5937 -1.4134
26548SOL     OW83045   5.678   5.302  10.785 -0.0369 -0.0150 -0.3617
26548SOL    HW183046   5.772   5.315  10.791  0.1268 -0.0958 -2.2583
26548SOL    HW283047   5.668   5.208  10.769 -0.5466 -0.2375  1.0550
26549SOL     OW83048   4.418   0.691   3.008 -0.0147 -0.3842 -0.1715
26549SOL    HW183049   4.384   0.727   3.090  1.0909 -0.4005  0.3101
26549SOL    HW283050   4.478   0.621   3.035 -0.2815 -0.9670 -1.0242
26550SOL     OW83051   7.677   3.291   6.792  0.3519  0.2388  0.5448
26550SOL    HW183052   7.762   3.252   6.811  1.0725  1.9604  1.0533
26550SOL    HW283053   7.656   3.262   6.703 -0.0135 -2.6640  1.4846
26551SOL     OW83054   4.208   2.911   0.608 -0.0981 -0.2332  0.0294
26551SOL    HW183055   4.266   2.904   0.684  0.0771 -1.0607 -0.1749
26551SOL    HW283056   4.120   2.899   0.643  0.0384 -1.4693  0.0023
26552SOL     OW83057   1.099   2.975   1.644  0.0915  0.2892  0.4960
26552SOL    HW183058   1.041   2.931   1.582  0.9256 -0.0087 -0.0926
26552SOL    HW283059   1.045   2.988   1.722 -0.1106 -2.0079  0.7928
26553SOL     OW83060   9.956   4.079   8.284 -0.6053 -0.5980  0.0553
26553SOL    HW183061   9.908   4.141   8.338 -1.6796 -0.4910 -0.9957
26553SOL    HW283062  10.045   4.080   8.319 -0.3984  2.0581 -0.3651
26554SOL     OW83063   9.350   7.268   6.766  0.5022  0.2226 -0.5070
26554SOL    HW183064   9.313   7.299   6.684  0.4643 -1.3997 -1.1531
26554SOL    HW283065   9.274   7.249   6.821  0.4390 -0.7101 -0.9005
26555SOL     OW83066   7.007   0.140   3.474 -0.3128 -0.1276  0.5322
26555SOL    HW183067   6.959   0.059   3.487  0.1204 -0.6538 -0.9671
26555SOL    HW283068   7.091   0.126   3.518 -0.1055 -0.6268 -0.0202
26556SOL     OW83069   1.906   6.046   5.239 -0.0358 -0.3829 -0.2493
26556SOL    HW183070   1.857   6.037   5.320  0.1680 -0.7234 -0.1627
26556SOL    HW283071   1.893   5.963   5.193 -0.8729  0.1244 -0.9734
26557SOL     OW83072   2.392   0.213   2.742 -0.4008  1.3418  0.2058
26557SOL    HW183073   2.429   0.257   2.818  2.6233  1.4811 -1.1911
26557SOL    HW283074   2.407   0.274   2.669 -0.2148 -0.1124 -1.0223
26558SOL     OW83075   3.061  10.490   9.834  0.3673  0.4697  0.1536
26558SOL    HW183076   3.125  10.558   9.813  1.3319  0.0177  1.4997
26558SOL    HW283077   3.099  10.410   9.799 -0.3177  0.4547 -0.5905
26559SOL     OW83078   6.309   1.746   3.240  0.0093  0.1149  0.2169
26559SOL    HW183079   6.331   1.687   3.169 -1.2851 -1.4727  1.0660
26559SOL    HW283080   6.214   1.759   3.232 -0.0774  0.2810  1.3608
26560SOL     OW83081   8.379  10.379   7.259 -0.1370 -0.6698 -0.1794
26560SOL    HW183082   8.316  10.449   7.280  0.6069 -0.0997  0.2387
26560SOL    HW283083   8.334  10.323   7.196 -1.4606 -0.8866  0.9208
26561SOL     OW83084   9.477   1.113   9.967 -0.2041 -0.1492 -0.2683
26561SOL    HW183085   9.401   1.169   9.950  0.2050  1.2850  2.0985
26561SOL    HW283086   9.460   1.077  10.054  2.7265  1.9956  1.3716
26562SOL     OW83087  10.882   0.990   8.965 -0.2980 -0.3294  0.0772
26562SOL    HW183088  10.834   0.953   9.039 -1.2368  1.7577  0.5858
26562SOL    HW283089  10.814   1.015   8.903  0.5015 -2.6670 -1.9109
26563SOL     OW83090   7.596   3.077   1.697  0.2472  0.1704  0.2447
26563SOL    HW183091   7.663   3.066   1.630  1.0446 -0.7334  1.1667
26563SOL    HW283092   7.636   3.045   1.777 -0.8101  0.9155  1.0996
26564SOL     OW83093   2.982  10.353   3.007 -0.5905  0.5987 -0.5749
26564SOL    HW183094   3.009  10.406   2.931 -1.6070  1.1255 -0.5874
26564SOL    HW283095   2.899  10.392   3.035 -0.3299  0.2736  0.6902
26565SOL     OW83096  10.324   4.750   4.696  0.6821  0.6515  0.1592
26565SOL    HW183097  10.308   4.658   4.719 -2.0501  1.2531  1.0561
26565SOL    HW283098  10.360   4.746   4.607  1.7903 -1.3017  0.6276
26566SOL     OW83099   7.484   3.625   6.442 -0.1456  0.1458  0.4694
26566SOL    HW183100   7.506   3.708   6.400  1.5817 -0.9017 -0.8690
26566SOL    HW283101   7.394   3.636   6.473 -0.3879  2.0747 -0.7800
26567SOL     OW83102   3.642   3.136   9.916 -0.0026 -0.1281 -0.4170
26567SOL    HW183103   3.627   3.227   9.891 -0.8511  0.0777  0.8035
26567SOL    HW283104   3.597   3.085   9.848 -1.9358  0.4174  0.4110
26568SOL     OW83105   3.174   3.158  10.368  0.2431 -0.1722  0.0287
26568SOL    HW183106   3.157   3.064  10.377 -0.2150  0.0986  2.5608
26568SOL    HW283107   3.099   3.200  10.409  1.6125  1.2417  1.2173
26569SOL     OW83108   9.632   4.303   9.216 -0.0529 -0.4521  0.1562
26569SOL    HW183109   9.548   4.311   9.170  0.0140 -0.6589 -0.0034
26569SOL    HW283110   9.672   4.390   9.209  0.9145 -0.9927 -2.0372
26570SOL     OW83111   5.067   3.066   7.196  0.3357  0.4863 -0.0345
26570SOL    HW183112   5.098   3.090   7.283  1.0507 -0.5756  0.0171
26570SOL    HW283113   5.146   3.062   7.142 -0.2500  2.9741 -1.2437
26571SOL     OW83114   5.851   7.497   0.366  0.4363  0.0710  0.2225
26571SOL    HW183115   5.944   7.493   0.388  0.8797  3.6182 -0.4257
26571SOL    HW283116   5.809   7.532   0.445 -0.7653 -2.9287  1.0920
26572SOL     OW83117   8.973   0.384  10.886  0.4582 -0.0301 -0.0321
26572SOL    HW183118   8.994   0.300  10.928  1.5314  0.7048  0.9950
26572SOL    HW283119   8.883   0.374  10.856 -1.4432  0.1455  4.6868
26573SOL     OW83120   8.739   2.887   8.423 -0.3078  0.1554 -0.3425
26573SOL    HW183121   8.755   2.977   8.454 -0.7373 -0.2321  1.0644
26573SOL    HW283122   8.681   2.898   8.348 -1.8175  0.9825  0.8819
26574SOL     OW83123   1.673   9.780   1.051 -0.2423  0.2426 -0.0157
26574SOL    HW183124   1.608   9.746   1.113  0.8768 -1.2621  0.4087
26574SOL    HW283125   1.658   9.729   0.972  0.6950 -0.4633  0.2413
26575SOL     OW83126   0.352   3.364   5.732  0.7612 -0.1720  0.5558
26575SOL    HW183127   0.374   3.362   5.825  1.8388 -2.3653  0.3390
26575SOL    HW283128   0.437   3.367   5.688  0.3158 -0.4942 -0.3444
26576SOL     OW83129   9.082   3.606   1.472 -0.2047 -0.2673 -0.0628
26576SOL    HW183130   9.025   3.554   1.529 -0.7632  0.6609  0.2401
26576SOL    HW283131   9.099   3.548   1.397 -0.9755 -0.8181  0.1702
26577SOL     OW83132   3.536   4.720   8.970 -0.2669 -0.0701  0.6323
26577SOL    HW183133   3.516   4.713   9.064 -0.7973 -1.0120  0.4536
26577SOL    HW283134   3.493   4.801   8.943 -0.2638  0.1138  1.1598
26578SOL     OW83135  10.673   5.874   5.360 -0.3106 -0.2914 -0.5027
26578SOL    HW183136  10.669   5.809   5.290 -3.9054  1.2598 -2.0374
26578SOL    HW283137  10.743   5.934   5.333  0.3119 -1.3009 -1.2097
26579SOL     OW83138   8.736   8.938   3.797 -0.4029  0.1993 -0.1828
26579SOL    HW183139   8.782   8.865   3.756  1.5555  1.7244 -0.8495
26579SOL    HW283140   8.648   8.935   3.760  0.3058 -0.5083 -1.9072
26580SOL     OW83141   5.987   3.702   8.192  0.6512 -0.1580 -0.5164
26580SOL    HW183142   6.043   3.727   8.118  0.0615 -0.6734 -1.1518
26580SOL    HW283143   5.969   3.609   8.177  1.1044 -0.4444  0.6721
26581SOL     OW83144  10.668   3.014   0.923 -0.3675 -0.6407 -0.4295
26581SOL    HW183145  10.586   3.017   0.874 -0.0541  0.7199 -0.9289
26581SOL    HW283146  10.641   3.017   1.015 -0.8971 -1.0346 -0.5677
26582SOL     OW83147   0.727   2.744   2.689  0.2773  0.6075 -0.1716
26582SOL    HW183148   0.728   2.683   2.763  0.0406 -0.2514 -0.8473
26582SOL    HW283149   0.637   2.742   2.658  0.4919  0.5395 -0.8045
26583SOL     OW83150   9.409   6.017   7.502 -0.1513 -0.7555  0.4096
26583SOL    HW183151   9.357   5.983   7.575 -0.7506  0.5202  0.5964
26583SOL    HW283152   9.500   6.000   7.527 -0.3480 -0.1964  1.5182
26584SOL     OW83153   3.230   2.003   4.297  0.6968 -0.0826 -0.1159
26584SOL    HW183154   3.183   2.049   4.228  1.0418 -1.0957 -1.0535
26584SOL    HW283155   3.296   2.066   4.327  1.9466 -0.3202 -2.1909
26585SOL     OW83156   9.196   0.839   2.952  0.1436 -0.0990 -0.1248
26585SOL    HW183157   9.194   0.811   3.044 -3.4895  0.3321  0.0502
26585SOL    HW283158   9.236   0.926   2.955  0.6477 -0.3386  0.9387
26586SOL     OW83159   4.645   9.817  10.340 -0.9031 -0.3585 -0.0454
26586SOL    HW183160   4.654   9.898  10.289 -1.7043 -0.1397  0.1448
26586SOL    HW283161   4.616   9.751  10.277  0.3742 -0.6792 -0.3376
26587SOL     OW83162   9.037  10.093   9.479 -0.4895 -0.3043  0.3200
26587SOL    HW183163   9.071  10.128   9.396 -0.7323 -2.2431 -0.6489
26587SOL    HW283164   9.113  10.087   9.536 -0.2031  0.4536  0.0281
26588SOL     OW83165   0.559   9.438   1.198 -0.5164  0.3894 -0.3388
26588SOL    HW183166   0.523   9.508   1.253 -0.7817  0.5276 -0.6866
26588SOL    HW283167   0.600   9.378   1.260  0.4865  1.2971 -0.0827
26589SOL     OW83168   5.410   3.675   3.941  0.1896  0.0780  0.2959
26589SOL    HW183169   5.441   3.760   3.971  2.3972 -1.0470  1.4164
26589SOL    HW283170   5.367   3.636   4.017 -0.0184 -0.1757  0.0512
26590SOL     OW83171   6.679   4.325   9.610  0.4498 -0.3197  0.3037
26590SOL    HW183172   6.679   4.343   9.704  0.2137 -0.4065  0.3203
26590SOL    HW283173   6.755   4.374   9.577 -0.2691  0.8467  0.3276
26591SOL     OW83174   4.962   0.208   0.767 -0.4022  0.4703 -0.3044
26591SOL    HW183175   5.027   0.177   0.703 -0.5672 -0.8440  0.1360
26591SOL    HW283176   4.938   0.130   0.816 -0.0647  1.4989  1.5859
26592SOL     OW83177   8.964   4.717  10.020  0.3599 -0.2077  0.2377
26592SOL    HW183178   8.967   4.646  10.085  1.6910  0.1848  0.6304
26592SOL    HW283179   9.056   4.732   9.997  0.2011  2.0326  0.8645
26593SOL     OW83180   9.832   3.292   4.269 -0.4657 -0.0571  0.6246
26593SOL    HW183181   9.893   3.360   4.243  1.4809 -1.8703  0.1428
26593SOL    HW283182   9.795   3.260   4.188  0.1278 -0.8550  0.6533
26594SOL     OW83183   5.217   9.501   1.883  0.6322 -0.3343  0.0015
26594SOL    HW183184   5.201   9.567   1.949  0.5070 -1.2636  0.9213
26594SOL    HW283185   5.228   9.419   1.932  3.1353 -0.6335 -0.8992
26595SOL     OW83186   9.524   9.535  10.507 -0.1006  0.3114  0.2632
26595SOL    HW183187   9.494   9.571  10.423  1.5940 -2.5568 -1.7534
26595SOL    HW283188   9.446   9.538  10.563 -2.2470 -0.4817 -2.4298
26596SOL     OW83189   3.681   1.969   8.414 -0.1019  0.2325 -0.6516
26596SOL    HW183190   3.650   1.981   8.503  0.5795  0.6960 -0.4592
26596SOL    HW283191   3.755   2.030   8.406  0.5291 -0.5700 -1.1855
26597SOL     OW83192   0.209   0.115   3.477 -0.4632  0.0126 -0.2189
26597SOL    HW183193   0.156   0.161   3.412 -1.0003 -0.9017 -0.4332
26597SOL    HW283194   0.176   0.026   3.477 -0.0444 -0.1578  0.8588
26598SOL     OW83195   4.121   8.865   4.372  0.4124  0.0605  0.1352
26598SOL    HW183196   4.029   8.855   4.399  0.8161  1.1351  2.0875
26598SOL    HW283197   4.150   8.775   4.355 -0.9787 -0.2998 -0.5046
26599SOL     OW83198   9.909   6.049   8.477 -0.4097 -0.0621  0.3537
26599SOL    HW183199   9.902   5.989   8.551  1.7702 -0.4779  0.2920
26599SOL    HW283200   9.987   6.101   8.496  0.1724 -0.1582 -1.6264
26600SOL     OW83201   9.629   4.942  10.046 -0.1428  0.3106  0.2340
26600SOL    HW183202   9.584   5.026  10.056 -0.7469 -0.0292  0.4625
26600SOL    HW283203   9.601   4.891  10.123 -0.1122 -0.2395 -0.1104
26601SOL     OW83204   1.880   6.612   0.619  0.1936  0.0401  0.0200
26601SOL    HW183205   1.821   6.686   0.617 -1.9940 -1.6230 -1.1596
26601SOL    HW283206   1.900   6.594   0.527 -0.0156 -1.3423  0.2251
26602SOL     OW83207   0.626  10.437   0.554  0.0868  0.1272  0.5300
26602SOL    HW183208   0.669  10.379   0.617 -0.7973  0.5080  1.5097
26602SOL    HW283209   0.609  10.381   0.478  0.1261 -0.6476  1.0819
26603SOL     OW83210   1.516   2.501   9.739  0.1627 -0.2479  0.1016
26603SOL    HW183211   1.592   2.491   9.682  0.3167  2.7501 -0.3637
26603SOL    HW283212   1.553   2.499   9.828  0.6934  0.3370 -0.0966
26604SOL     OW83213   8.804   3.294   0.806 -0.3233  0.1304 -0.3069
26604SOL    HW183214   8.826   3.204   0.831  0.5744  0.2066 -0.7763
26604SOL    HW283215   8.737   3.321   0.869 -0.9527 -1.0271 -0.4622
26605SOL     OW83216   2.313   3.769   7.339  0.5348 -0.6697 -0.7581
26605SOL    HW183217   2.275   3.715   7.409  0.2282 -1.6655 -1.6543
26605SOL    HW283218   2.373   3.828   7.383 -0.6638 -0.3388  0.5034
26606SOL     OW83219   9.982   6.509   0.576 -0.1110 -0.4012  0.0561
26606SOL    HW183220   9.921   6.583   0.580 -1.1685 -1.3058  2.0323
26606SOL    HW283221   9.981   6.481   0.485  0.9432  2.4616 -0.9481
26607SOL     OW83222   0.715   4.784   8.129 -0.1485  0.3356  0.0369
26607SOL    HW183223   0.635   4.746   8.092 -0.8338 -0.5695  2.2326
26607SOL    HW283224   0.786   4.736   8.087 -0.9054 -0.9969  0.2158
26608SOL     OW83225   4.055   0.882   1.961  0.1271 -0.3010  0.2743
26608SOL    HW183226   4.037   0.898   1.868 -0.6312 -0.6804  0.3511
26608SOL    HW283227   3.989   0.819   1.988 -0.3673  0.6347  1.3519
26609SOL     OW83228   2.353   7.879   2.355 -0.5994 -0.0741 -0.2011
26609SOL    HW183229   2.277   7.937   2.352 -1.3600 -0.8201  2.4028
26609SOL    HW283230   2.412   7.919   2.420 -0.5444 -1.4686  0.6513
26610SOL     OW83231   8.561   9.935  10.642 -0.2498 -0.9578  0.0550
26610SOL    HW183232   8.521   9.853  10.615 -0.3392 -0.6709 -0.7000
26610SOL    HW283233   8.654   9.923  10.625 -0.1372 -1.2340  0.8141
26611SOL     OW83234   4.487   6.662   1.461 -0.4181  0.0764  0.5221
26611SOL    HW183235   4.583   6.654   1.458 -0.5107 -1.2186  0.3058
26611SOL    HW283236   4.468   6.740   1.410  0.4923 -0.0002  0.0343
26612SOL     OW83237  10.842  10.621   8.627 -0.4977 -0.1439  0.0612
26612SOL    HW183238  10.824  10.591   8.716 -3.3951 -1.8308 -0.9517
26612SOL    HW283239  10.756  10.644   8.592  0.8915  3.6104 -1.3384
26613SOL     OW83240   3.719   7.623   5.985 -0.3220 -0.4513  0.1102
26613SOL    HW183241   3.770   7.542   5.989  0.3909 -0.0429 -0.2899
26613SOL    HW283242   3.671   7.617   5.903  0.4271 -0.0870 -0.3699
26614SOL     OW83243   7.690   3.659   7.542 -0.1875  0.0548  0.5189
26614SOL    HW183244   7.647   3.626   7.463 -0.8776  2.4804 -0.1859
26614SOL    HW283245   7.666   3.751   7.546  0.2564  0.1256  3.3157
26615SOL     OW83246  10.099   6.689   1.190  0.2025 -0.3944 -0.2551
26615SOL    HW183247  10.143   6.747   1.129  3.1468 -1.0835  1.0433
26615SOL    HW283248  10.134   6.602   1.171  0.2297 -0.8151  1.5007
26616SOL     OW83249   9.880   8.109  10.423 -0.1101  0.2756  0.2348
26616SOL    HW183250   9.903   8.059  10.345 -0.9406  0.6025 -0.2259
26616SOL    HW283251   9.959   8.106  10.477  0.3860 -0.1708 -0.4985
26617SOL     OW83252   7.052   9.944   5.948 -0.0889 -0.2060 -0.3891
26617SOL    HW183253   7.000   9.989   6.015  0.8636 -1.7879  1.5436
26617SOL    HW283254   6.998   9.870   5.921  0.0805 -0.3570 -0.3206
26618SOL     OW83255   2.670   0.248   7.307  0.0824 -0.5788 -0.0463
26618SOL    HW183256   2.738   0.315   7.296  1.6460 -2.0840 -0.1493
26618SOL    HW283257   2.593   0.295   7.337  0.4481  1.5349 -2.1970
26619SOL     OW83258   5.115   2.076   6.367  0.3419  0.5320 -0.1644
26619SOL    HW183259   5.180   2.061   6.299 -0.7327  0.8763 -1.3035
26619SOL    HW283260   5.050   2.133   6.326 -0.1179  1.1001  1.2878
26620SOL     OW83261   6.783   5.588   1.127 -0.0934  0.0894 -0.0048
26620SOL    HW183262   6.818   5.612   1.041  0.0719  0.0978  0.0626
26620SOL    HW283263   6.692   5.566   1.112  0.0902 -0.4996 -0.2927
26621SOL     OW83264   2.051   9.812   5.951  0.0334 -0.5048  0.4174
26621SOL    HW183265   2.089   9.810   6.039  1.0456 -1.6339 -0.0289
26621SOL    HW283266   1.989   9.885   5.954 -1.0096 -1.3960  2.4911
26622SOL     OW83267   5.132   0.793   8.195 -0.4509  0.2884 -0.1098
26622SOL    HW183268   5.204   0.846   8.161  2.0801 -1.8298  1.5941
26622SOL    HW283269   5.105   0.838   8.275  2.2056 -1.2055  1.7524
26623SOL     OW83270   2.790   0.229  10.259 -0.1548 -0.5836 -0.4892
26623SOL    HW183271   2.791   0.316  10.219  0.8427 -1.4114 -2.3969
26623SOL    HW283272   2.801   0.168  10.185  1.5667 -2.2129  0.9942
26624SOL     OW83273   7.585  10.289   4.955 -0.1414  0.2115 -0.3018
26624SOL    HW183274   7.677  10.316   4.955  0.2002 -0.5953 -3.3356
26624SOL    HW283275   7.536  10.371   4.958  0.7746  0.8770 -2.0060
26625SOL     OW83276  10.913   1.877   6.099  0.6398 -0.3245  0.2979
26625SOL    HW183277  10.997   1.920   6.110  0.6573 -0.4905  0.8563
26625SOL    HW283278  10.852   1.948   6.078  0.7696 -0.0944  0.6856
26626SOL     OW83279   9.597   1.206   5.830  0.5759  0.2859  1.1620
26626SOL    HW183280   9.590   1.281   5.771  0.9126 -0.0419  0.7000
26626SOL    HW283281   9.559   1.133   5.781 -0.1768  0.2480  1.7895
26627SOL     OW83282   6.340   3.312   6.561  0.1397  0.0802  0.6205
26627SOL    HW183283   6.421   3.280   6.601  0.8384  0.5939 -0.3449
26627SOL    HW283284   6.281   3.237   6.563 -0.0316  0.1950  3.0016
26628SOL     OW83285   2.604   4.827   0.885 -0.2705 -0.3032 -0.2507
26628SOL    HW183286   2.562   4.771   0.950 -1.4767  2.2120  1.2651
26628SOL    HW283287   2.619   4.910   0.930  1.7114  0.5512 -2.2995
26629SOL     OW83288   0.498   0.622   4.888 -0.3938 -0.1637 -0.1281
26629SOL    HW183289   0.531   0.685   4.824  0.0263 -0.4336 -0.1812
26629SOL    HW283290   0.411   0.599   4.858  0.6996 -2.2090 -2.0407
26630SOL     OW83291   6.018   0.248   6.895 -0.3342  0.0331  0.1207
26630SOL    HW183292   6.058   0.262   6.981  1.5457 -2.6579 -0.1640
26630SOL    HW283293   5.935   0.206   6.914  0.1398 -0.6911  0.6710
26631SOL     OW83294   4.063   1.192   5.216  0.5551 -0.6427  0.0367
26631SOL    HW183295   4.025   1.116   5.261  1.9786 -1.7866 -0.5944
26631SOL    HW283296   4.000   1.214   5.148 -1.1686  0.5011  1.8808
26632SOL     OW83297   7.287   8.308   3.862  0.3345 -0.2640  0.4051
26632SOL    HW183298   7.235   8.244   3.910  0.1234  0.5763  1.3363
26632SOL    HW283299   7.378   8.278   3.874  0.2326 -0.4530  0.7384
26633SOL     OW83300   5.888   6.830   2.519 -0.8313 -0.3158 -0.1056
26633SOL    HW183301   5.917   6.863   2.604 -1.9293 -1.6814  0.8463
26633SOL    HW283302   5.956   6.769   2.492 -0.8741 -0.4997  0.1980
26634SOL     OW83303   8.048   9.648   7.863 -0.0053 -0.2536 -0.1166
26634SOL    HW183304   8.031   9.690   7.778 -0.3975  1.6978  0.8708
26634SOL    HW283305   8.011   9.708   7.927  2.7767 -0.2042  1.6251
26635SOL     OW83306   3.685   2.383   8.992 -0.4921  0.1714  0.6381
26635SOL    HW183307   3.736   2.397   9.071 -0.3878  0.9640  0.4356
26635SOL    HW283308   3.694   2.464   8.942 -0.6521 -0.2671 -0.1314
26636SOL     OW83309   1.274  10.259   6.983  0.1321  0.4285 -0.4262
26636SOL    HW183310   1.281  10.273   7.077  0.4070 -0.9375 -0.2136
26636SOL    HW283311   1.257  10.345   6.946  0.5257  1.0576  0.8247
26637SOL     OW83312   2.615  10.323  10.696  0.7295  0.3644  0.2295
26637SOL    HW183313   2.683  10.259  10.679  1.3160  0.0680  3.0723
26637SOL    HW283314   2.630  10.393  10.633  0.3879 -1.9554 -2.5962
26638SOL     OW83315   7.914   9.163   3.758 -0.3318  0.1310 -0.5999
26638SOL    HW183316   7.962   9.088   3.794 -0.2415  0.5815  0.2505
26638SOL    HW283317   7.980   9.214   3.712  0.0447  0.7855  0.6273
26639SOL     OW83318   3.693   1.878   3.824 -0.1533 -0.7015  0.9862
26639SOL    HW183319   3.761   1.907   3.884 -0.0592 -0.4248  0.7490
26639SOL    HW283320   3.618   1.935   3.844  0.5955  0.9690 -0.7035
26640SOL     OW83321   0.838   9.340   3.396 -0.6628  0.5712 -0.4170
26640SOL    HW183322   0.881   9.290   3.466  1.1296  2.0348 -0.4132
26640SOL    HW283323   0.860   9.291   3.317 -1.4189 -0.2516 -0.1409
26641SOL     OW83324   2.333   8.547   8.850 -0.6871 -0.5946  0.0025
26641SOL    HW183325   2.373   8.631   8.825  0.4462 -0.6513  1.4509
26641SOL    HW283326   2.244   8.551   8.816 -0.1168  0.4585 -1.4753
26642SOL     OW83327   1.242   5.788   4.855 -0.4544  0.3887 -0.2136
26642SOL    HW183328   1.218   5.807   4.946  1.8464  1.3322  0.2672
26642SOL    HW283329   1.261   5.874   4.817  0.3289 -0.1481 -1.0647
26643SOL     OW83330   0.487   5.799   2.407  0.0506 -0.3469 -0.3892
26643SOL    HW183331   0.407   5.754   2.380 -1.9965  2.9721 -0.4265
26643SOL    HW283332   0.457   5.869   2.465  3.1545  0.0431  0.9807
26644SOL     OW83333   8.444   6.352   4.278  0.1484  0.1638 -0.0221
26644SOL    HW183334   8.516   6.332   4.337  0.3744  0.9818 -0.0077
26644SOL    HW283335   8.365   6.340   4.331  0.3290  0.4221  0.3109
26645SOL     OW83336   9.117   3.218   0.889  0.0417 -0.5496 -0.2343
26645SOL    HW183337   9.114   3.313   0.897  1.5131 -0.4489 -0.5008
26645SOL    HW283338   9.026   3.190   0.893 -0.3050  0.5291  3.7834
26646SOL     OW83339   3.590  10.389   3.863 -0.0866 -0.2150  0.0374
26646SOL    HW183340   3.499  10.419   3.867 -0.4840 -1.0401 -1.7782
26646SOL    HW283341   3.618  10.412   3.775  2.3654  2.3342  1.3055
26647SOL     OW83342  10.757   7.774   9.236  0.1997 -0.0605  0.1290
26647SOL    HW183343  10.826   7.774   9.170  0.5388 -0.1561  0.4742
26647SOL    HW283344  10.789   7.714   9.304 -0.1988 -0.0643  0.3186
26648SOL     OW83345  10.880  10.676   2.220 -0.1928 -0.0595  0.1179
26648SOL    HW183346  10.824  10.604   2.249 -0.3018  0.1293  0.3806
26648SOL    HW283347  10.968  10.649   2.247 -0.3807  0.4340  1.2662
26649SOL     OW83348   0.054   9.508  10.571 -0.2139  0.5537 -0.0632
26649SOL    HW183349   0.094   9.505  10.657  0.4196  1.1283 -0.3331
26649SOL    HW283350   0.116   9.556  10.516  0.6942 -2.0819 -1.5306
26650SOL     OW83351   5.588   2.532   2.186  0.0009  0.4628 -0.3349
26650SOL    HW183352   5.603   2.589   2.262 -0.7821  2.3224 -1.5142
26650SOL    HW283353   5.493   2.534   2.174 -0.0938 -1.4770 -0.1620
26651SOL     OW83354   1.761   8.897   2.649  0.2705 -0.3325 -0.3395
26651SOL    HW183355   1.756   8.974   2.592  0.0358 -1.0179 -1.2833
26651SOL    HW283356   1.719   8.828   2.598  0.1754 -1.0047  0.6317
26652SOL     OW83357   0.032  10.819   1.975 -0.2230 -0.4545 -0.3426
26652SOL    HW183358   0.031  10.779   2.062 -1.8745 -0.3363 -0.2776
26652SOL    HW283359  -0.015  10.902   1.986 -0.6338 -0.5342 -1.3881
26653SOL     OW83360   5.393   2.212   2.642 -0.2746  0.8118  0.0163
26653SOL    HW183361   5.390   2.162   2.724 -0.3117  0.8458  0.0359
26653SOL    HW283362   5.413   2.147   2.575 -2.1571  0.4124 -0.2333
26654SOL     OW83363   3.723   6.157   1.379  0.0284  0.4914  0.6317
26654SOL    HW183364   3.774   6.081   1.408 -1.2301 -0.2130  1.0425
26654SOL    HW283365   3.788   6.228   1.375  1.1183 -0.4616  0.7610
26655SOL     OW83366   6.362   5.920   9.018  0.4908 -0.4739  0.2259
26655SOL    HW183367   6.361   5.827   8.996 -1.0322 -0.9023  1.8339
26655SOL    HW283368   6.303   5.960   8.954  0.9312 -0.6598 -0.2980
26656SOL     OW83369   3.636   5.744   5.053 -0.5740 -0.2329 -0.1843
26656SOL    HW183370   3.572   5.673   5.049 -1.1356  0.2497  0.0927
26656SOL    HW283371   3.658   5.762   4.961 -1.1314 -0.1417 -0.3036
26657SOL     OW83372  10.785   1.522   7.110 -0.0857  0.1960  0.0837
26657SOL    HW183373  10.738   1.499   7.190 -0.2143 -1.4003 -0.4069
26657SOL    HW283374  10.864   1.469   7.112 -0.4726 -0.4845 -1.2089
26658SOL     OW83375  10.659   4.514   6.044  0.4589  0.4033 -0.7840
26658SOL    HW183376  10.667   4.604   6.073  1.3400  0.1081 -0.0759
26658SOL    HW283377  10.705   4.512   5.960 -0.3405  0.8050 -1.2397
26659SOL     OW83378   3.558   3.482   3.061  0.4924 -0.0000  0.0600
26659SOL    HW183379   3.530   3.447   3.146 -1.7633  1.0528 -0.1987
26659SOL    HW283380   3.503   3.438   2.997  1.7960 -0.3728 -0.8366
26660SOL     OW83381   5.030   8.853   6.076 -0.0953 -0.0886  0.2351
26660SOL    HW183382   5.081   8.830   5.998  0.7328  1.4129  0.2980
26660SOL    HW283383   5.093   8.854   6.147 -0.6131 -0.2179  0.7053
26661SOL     OW83384   2.372   2.992   9.802 -0.4550  0.4562  0.0944
26661SOL    HW183385   2.382   2.968   9.710 -0.8783 -2.5009  0.7112
26661SOL    HW283386   2.460   3.018   9.830 -0.3018  1.2677 -1.0820
26662SOL     OW83387   2.151   5.381   6.309 -0.7849 -0.3713 -0.0077
26662SOL    HW183388   2.218   5.355   6.246 -1.0889  1.1311 -0.9804
26662SOL    HW283389   2.156   5.476   6.312 -0.7376 -0.4000  2.3158
26663SOL     OW83390   6.925   7.533   5.071  0.1189 -0.2022  0.1588
26663SOL    HW183391   6.903   7.601   5.135 -2.5723  1.9464 -2.7636
26663SOL    HW283392   7.002   7.567   5.025  0.3284 -0.4050  0.3515
26664SOL     OW83393   1.363   4.080   2.345  0.2391  0.9480  0.2591
26664SOL    HW183394   1.325   4.036   2.421  0.4531  0.7780  0.2691
26664SOL    HW283395   1.422   4.146   2.381 -0.4576  1.5923  0.2506
26665SOL     OW83396   1.748   6.252   7.603  0.0519 -0.0265 -0.1612
26665SOL    HW183397   1.684   6.315   7.635 -0.3950 -1.2305  1.4705
26665SOL    HW283398   1.708   6.213   7.526 -1.0278 -0.4552  0.5909
26666SOL     OW83399   5.913   9.402  10.734 -0.0117 -0.0670 -0.4704
26666SOL    HW183400   6.003   9.396  10.767 -0.3665  0.5390  0.6533
26666SOL    HW283401   5.891   9.312  10.710 -0.2961 -0.9320  2.5534
26667SOL     OW83402   3.503  10.109   6.583 -0.0729 -0.1469 -0.0264
26667SOL    HW183403   3.425  10.092   6.636 -1.2395 -2.1566 -2.2089
26667SOL    HW283404   3.492  10.199   6.552 -1.1698 -0.1745  0.2521
26668SOL     OW83405   1.231   5.669  10.677 -0.1452  0.4807  0.6357
26668SOL    HW183406   1.314   5.635  10.644 -0.3381  0.0618  0.5804
26668SOL    HW283407   1.177   5.678  10.598  0.1705  1.6865  0.5379
26669SOL     OW83408   0.122   8.248   3.830 -0.1188 -0.6458 -0.1519
26669SOL    HW183409   0.113   8.153   3.819 -0.2263 -0.4975 -1.4553
26669SOL    HW283410   0.204   8.258   3.878 -0.9781 -1.4602  1.6126
26670SOL     OW83411   0.875   6.255   1.057  0.2045 -0.3769  0.3577
26670SOL    HW183412   0.794   6.212   1.029  0.2986 -0.3036 -0.0233
26670SOL    HW283413   0.859   6.276   1.149  0.0743 -1.0283  0.4883
26671SOL     OW83414   8.055   4.632   8.501 -0.2230 -0.6832 -0.2918
26671SOL    HW183415   8.055   4.547   8.545  1.2430 -0.1839  0.7324
26671SOL    HW283416   7.993   4.685   8.552  0.2124 -0.6108  0.1694
26672SOL     OW83417   3.957   7.929   2.637 -0.0435 -0.2496  0.1613
26672SOL    HW183418   4.003   7.865   2.583  0.7560  1.0007 -0.6834
26672SOL    HW283419   3.904   7.979   2.576  1.4537  1.6907  0.3331
26673SOL     OW83420   9.951   6.275   4.161  0.4891 -0.4024 -0.0155
26673SOL    HW183421   9.859   6.277   4.187  0.5247 -1.1346  0.1855
26673SOL    HW283422   9.990   6.350   4.206  0.3894 -1.2066  1.4830
26674SOL     OW83423   4.308   6.757   4.640  0.0669  0.0305 -0.2210
26674SOL    HW183424   4.249   6.708   4.582 -0.5946  0.3822  0.1487
26674SOL    HW283425   4.321   6.840   4.595  0.3366 -0.0713 -0.3330
26675SOL     OW83426   5.063   4.502   1.338 -0.7021 -0.2224 -0.1248
26675SOL    HW183427   5.028   4.432   1.394 -0.5273  0.0303  0.3115
26675SOL    HW283428   5.098   4.457   1.262  0.6436 -0.7657  0.7707
26676SOL     OW83429   3.942   0.045   8.741 -0.5783 -0.2381 -0.0451
26676SOL    HW183430   3.968   0.052   8.649 -0.2660  0.5588  0.0949
26676SOL    HW283431   4.020   0.016   8.787 -1.2496 -2.6151 -0.2810
26677SOL     OW83432   0.010   3.462   3.600 -0.1088  0.6828  0.3052
26677SOL    HW183433   0.070   3.533   3.624 -1.4472  2.0409 -0.2054
26677SOL    HW283434  -0.075   3.489   3.634 -0.5581 -0.9781  0.6077
26678SOL     OW83435   0.799   5.601   6.789  0.5401  0.2147  0.4884
26678SOL    HW183436   0.838   5.540   6.852  0.3370 -1.3147 -0.8265
26678SOL    HW283437   0.869   5.617   6.725 -0.3775 -1.1895 -0.9299
26679SOL     OW83438   8.602   9.577   3.685 -0.1186  0.3573 -0.3544
26679SOL    HW183439   8.591   9.483   3.694  1.4548  0.2998  1.6525
26679SOL    HW283440   8.657   9.588   3.608 -1.5141 -0.2099 -1.4869
26680SOL     OW83441   9.473  10.131   9.583 -0.2514 -0.1268  0.1151
26680SOL    HW183442   9.493  10.093   9.669 -0.3252  1.3001  0.7860
26680SOL    HW283443   9.556  10.167   9.553 -0.3954  0.0463 -0.0772
26681SOL     OW83444   5.151   3.514   8.189  0.5981 -0.0113 -0.0307
26681SOL    HW183445   5.147   3.446   8.256 -2.4821  0.4573  0.4190
26681SOL    HW283446   5.168   3.595   8.238 -2.2574  0.4242  0.3963
26682SOL     OW83447   4.296   0.428   0.083 -0.5012  0.6867  0.6782
26682SOL    HW183448   4.233   0.447   0.014 -0.6364  1.2911  0.9588
26682SOL    HW283449   4.293   0.333   0.094  0.2097  0.4731 -0.7895
26683SOL     OW83450   9.446   9.376   3.814 -0.0755  0.0302 -0.2133
26683SOL    HW183451   9.479   9.355   3.727 -0.3321 -0.8990 -0.1005
26683SOL    HW283452   9.467   9.298   3.867 -0.2713  0.4233  0.4538
26684SOL     OW83453   3.381   8.635   2.316 -0.4194 -0.4831 -0.5296
26684SOL    HW183454   3.451   8.585   2.274 -1.0471 -0.4062 -1.7171
26684SOL    HW283455   3.404   8.727   2.301 -1.2378 -0.4616 -1.7622
26685SOL     OW83456   8.097   2.273   3.433 -0.2243 -0.1160 -0.1216
26685SOL    HW183457   8.087   2.366   3.411 -0.9598 -0.2332 -0.3051
26685SOL    HW283458   8.190   2.255   3.420 -0.0940  0.5719 -0.1739
26686SOL     OW83459   4.025   9.911   0.484  0.1121 -0.1480  0.0291
26686SOL    HW183460   3.991   9.904   0.395  0.7896  0.8905 -0.3234
26686SOL    HW283461   3.983   9.839   0.531  0.6793 -1.4869 -1.4193
26687SOL     OW83462   3.079   7.964   7.945  0.3739 -0.8317  0.3659
26687SOL    HW183463   3.140   8.033   7.972 -1.0053 -0.0697  1.6652
26687SOL    HW283464   3.136   7.890   7.924  1.8035  0.1515  0.5621
26688SOL     OW83465   8.178   7.103   4.013 -0.0972  0.2905  0.5420
26688SOL    HW183466   8.248   7.042   3.988 -0.1038  0.9074 -1.0963
26688SOL    HW283467   8.223   7.187   4.022 -0.6299  0.7171 -0.6574
26689SOL     OW83468   5.496   6.110   3.649  0.2304 -0.2163 -0.2617
26689SOL    HW183469   5.429   6.044   3.631  1.0377 -1.1380 -0.0033
26689SOL    HW283470   5.566   6.092   3.585 -0.5392  1.9490 -1.8267
26690SOL     OW83471   6.977  10.232   1.335 -0.0568 -0.3068 -0.0797
26690SOL    HW183472   7.034  10.264   1.265  0.8893  0.8858  1.1881
26690SOL    HW283473   7.036  10.204   1.404 -0.9016  1.9941  1.7309
26691SOL     OW83474  10.101   9.462   3.521  0.1148  0.3407  0.1996
26691SOL    HW183475  10.076   9.465   3.428  0.1652 -3.6935 -0.1183
26691SOL    HW283476  10.195   9.444   3.519 -0.0595 -0.7153  0.9792
26692SOL     OW83477   3.824   3.820   9.855  0.8088 -0.3059 -0.1991
26692SOL    HW183478   3.876   3.862   9.787  0.4604  0.0512 -0.2525
26692SOL    HW283479   3.885   3.762   9.900  0.5240 -2.4568 -2.3805
26693SOL     OW83480   2.108   5.640   2.457 -0.4154 -0.5314 -0.0834
26693SOL    HW183481   2.175   5.576   2.431 -1.1908 -0.9097 -1.2079
26693SOL    HW283482   2.068   5.602   2.535 -0.2411 -0.9731 -0.2053
26694SOL     OW83483   1.161   8.020   0.081 -0.1293 -0.3337  0.3270
26694SOL    HW183484   1.178   8.113   0.071  1.1791 -0.5149  0.7182
26694SOL    HW283485   1.099   7.999   0.011 -1.0313  0.9697  0.7129
26695SOL     OW83486   0.197   3.660   3.773  1.1102 -0.0259 -0.2444
26695SOL    HW183487   0.284   3.622   3.757  0.6443 -1.3439  0.2895
26695SOL    HW283488   0.214   3.732   3.834  1.8645 -0.0815 -0.3733
26696SOL     OW83489   0.899   5.928   6.340  0.3750 -0.4010  0.5268
26696SOL    HW183490   0.899   5.835   6.360  1.5690 -1.0856 -2.1796
26696SOL    HW283491   0.920   5.933   6.247 -2.0261  2.4939 -0.0370
26697SOL     OW83492   8.555   6.777   7.896  0.2891  0.0876 -0.5479
26697SOL    HW183493   8.471   6.747   7.930 -0.3434  1.0284 -1.2084
26697SOL    HW283494   8.583   6.845   7.957  0.4586 -0.0672 -0.4532
26698SOL     OW83495   8.776   2.791   5.057 -0.3878  0.5832  0.2796
26698SOL    HW183496   8.794   2.842   4.979  2.9306 -1.7535 -0.6913
26698SOL    HW283497   8.830   2.831   5.125  0.1481  0.0205  0.1967
26699SOL     OW83498   7.936   0.529   6.842  0.0510 -0.4853 -0.0619
26699SOL    HW183499   7.973   0.563   6.760  1.9311 -2.5591 -0.1438
26699SOL    HW283500   8.011   0.508   6.896 -1.1044 -1.4949  1.2205
26700SOL     OW83501  10.619  10.166  10.342 -0.3868 -0.6873  0.0931
26700SOL    HW183502  10.685  10.208  10.397 -0.6418  0.5147 -0.4623
26700SOL    HW283503  10.652  10.177  10.252 -0.8754 -0.9151 -0.1199
26701SOL     OW83504   9.614   4.023   8.465  0.3928 -0.3777 -0.3068
26701SOL    HW183505   9.539   4.061   8.510 -0.8675 -2.4671 -0.5350
26701SOL    HW283506   9.668   3.987   8.536 -0.3988 -1.5577 -0.2675
26702SOL     OW83507   2.466   9.127   2.507  0.6581 -0.0741  0.2070
26702SOL    HW183508   2.454   9.037   2.538 -0.7345 -0.4372 -1.2261
26702SOL    HW283509   2.556   9.129   2.474 -0.2646 -2.0798 -2.9245
26703SOL     OW83510   7.281   1.790   5.425 -0.2784  0.2445 -0.0019
26703SOL    HW183511   7.331   1.777   5.506 -0.2125  0.5238  0.0014
26703SOL    HW283512   7.234   1.707   5.413  0.1382  0.0027  0.0246
26704SOL     OW83513   3.913   1.421   7.700 -0.0505 -0.3174 -0.4473
26704SOL    HW183514   3.890   1.376   7.619 -2.7589  0.7297 -0.3748
26704SOL    HW283515   3.877   1.365   7.769  0.4352 -0.1994 -0.0946
26705SOL     OW83516   0.542   5.398   8.233  0.0349 -0.0243 -0.0561
26705SOL    HW183517   0.604   5.397   8.306  0.3436  3.2029 -0.1163
26705SOL    HW283518   0.580   5.339   8.168  1.5845 -0.2727  1.0238
26706SOL     OW83519   5.160   3.322   6.263  0.4013  0.5675 -0.8101
26706SOL    HW183520   5.195   3.366   6.341  0.1488 -0.5931 -0.0171
26706SOL    HW283521   5.178   3.382   6.191 -0.0063  2.0055  0.2450
26707SOL     OW83522   0.375   0.666   3.064  0.4203 -0.1643 -0.0197
26707SOL    HW183523   0.456   0.617   3.077  0.3525  0.1147  1.5538
26707SOL    HW283524   0.387   0.709   2.979  0.9839 -1.8839 -0.8611
26708SOL     OW83525   7.574   2.440   7.034  0.1786  0.8028  0.5653
26708SOL    HW183526   7.636   2.512   7.040  1.6769 -0.3835 -0.0778
26708SOL    HW283527   7.560   2.429   6.940  1.8388 -1.2293  0.4905
26709SOL     OW83528   9.879   4.417   5.217  0.4262  0.3024 -0.0303
26709SOL    HW183529   9.904   4.449   5.303 -1.2842 -0.2021  0.7006
26709SOL    HW283530   9.919   4.330   5.211 -0.5155 -0.2075  0.8265
26710SOL     OW83531   0.764   0.009   3.881 -0.3488  0.5294  0.2631
26710SOL    HW183532   0.823  -0.066   3.869  0.8113  1.5728 -1.0748
26710SOL    HW283533   0.695  -0.023   3.938  0.4363 -1.3711  0.2313
26711SOL     OW83534   0.790   2.721   8.447 -0.3051 -0.1454  0.1218
26711SOL    HW183535   0.879   2.755   8.450 -0.4464  0.2692 -0.3096
26711SOL    HW283536   0.778   2.679   8.532  0.2369 -0.0449  0.2534
26712SOL     OW83537   5.932   1.239   4.451 -0.0824  0.3450 -0.3347
26712SOL    HW183538   5.894   1.210   4.368 -0.5662  0.3533 -0.1203
26712SOL    HW283539   5.971   1.324   4.432 -1.6042  1.1088 -0.1894
26713SOL     OW83540  10.009   3.130   2.376 -0.1291 -0.7682  0.1108
26713SOL    HW183541  10.101   3.117   2.398 -0.1040  0.2227  0.6728
26713SOL    HW283542   9.966   3.147   2.460 -0.2022  2.1239 -0.3826
26714SOL     OW83543   4.362   8.000   3.472 -0.8673  0.0586  0.4269
26714SOL    HW183544   4.434   8.054   3.439 -2.8076  1.4698 -1.8852
26714SOL    HW283545   4.360   8.017   3.566  1.6025  0.1511  0.5403
26715SOL     OW83546  10.468   7.022   8.312  0.3180  0.1477 -0.1437
26715SOL    HW183547  10.443   7.106   8.350  2.0805  0.6592 -0.0537
26715SOL    HW283548  10.477   6.963   8.387 -0.7050 -0.0904 -0.1900
26716SOL     OW83549   7.589  10.789   7.929  0.2249 -0.9741  0.2935
26716SOL    HW183550   7.607  10.728   7.857 -0.4669 -2.1842  1.1064
26716SOL    HW283551   7.669  10.842   7.936 -0.1519  0.0252 -2.1357
26717SOL     OW83552   4.156   6.350   7.508  0.1445  0.8250  0.1955
26717SOL    HW183553   4.201   6.387   7.584  0.4877  0.4614  0.1759
26717SOL    HW283554   4.069   6.389   7.510  0.1880  0.9082  0.7096
26718SOL     OW83555   4.043   7.917   8.764 -0.3678  0.0126  0.0707
26718SOL    HW183556   4.025   7.855   8.693  2.6859 -0.3836 -0.5115
26718SOL    HW283557   3.974   7.982   8.757 -1.0201 -0.8328 -2.3128
26719SOL     OW83558   1.494   0.979   1.313  0.3290 -0.1012 -0.1383
26719SOL    HW183559   1.546   1.059   1.304  1.0394 -0.4525  0.6460
26719SOL    HW283560   1.559   0.909   1.324 -0.1908 -1.1332 -2.8831
26720SOL     OW83561   4.774   2.569   4.170 -0.3477  0.3830 -0.1998
26720SOL    HW183562   4.767   2.521   4.087  0.0432  1.0269 -0.6154
26720SOL    HW283563   4.816   2.508   4.230 -2.0573 -0.6658  0.0073
26721SOL     OW83564   3.527  10.055   4.993 -0.3495  0.2027  0.3109
26721SOL    HW183565   3.508   9.978   4.939 -1.6033 -0.0649  1.0844
26721SOL    HW283566   3.620  10.071   4.981 -0.1349 -1.2518 -0.1197
26722SOL     OW83567   3.267   9.737   5.341  0.0644 -0.1743  0.2157
26722SOL    HW183568   3.226   9.734   5.254  1.8499 -0.7316 -0.6700
26722SOL    HW283569   3.203   9.696   5.399 -1.2424  0.3608 -0.7981
26723SOL     OW83570   5.287   5.568   3.314 -0.0039 -0.0216 -0.4224
26723SOL    HW183571   5.222   5.631   3.346  0.2049  0.1031 -0.2344
26723SOL    HW283572   5.243   5.483   3.321  0.5755 -0.2143  1.8038
26724SOL     OW83573   8.583   2.506   3.423  0.1854 -0.3071 -0.3637
26724SOL    HW183574   8.633   2.563   3.365 -1.3831  1.1913 -0.3654
26724SOL    HW283575   8.648   2.461   3.476  1.5364  1.5777 -0.3189
26725SOL     OW83576   2.814   6.604   1.067 -0.0823 -0.7053  0.0049
26725SOL    HW183577   2.848   6.561   1.146  1.7113 -1.0599 -0.9234
26725SOL    HW283578   2.751   6.542   1.031  1.2017 -1.8187 -0.3728
26726SOL     OW83579   7.131   3.992   8.410 -0.2268 -0.6734  0.0790
26726SOL    HW183580   7.156   4.013   8.320 -0.6947 -0.0965  0.0804
26726SOL    HW283581   7.167   4.064   8.463 -0.9901 -0.3749  0.2016
26727SOL     OW83582   2.671   0.272   9.229  0.0992 -0.0247  0.1600
26727SOL    HW183583   2.748   0.284   9.174 -0.9773 -0.9927 -1.6318
26727SOL    HW283584   2.602   0.244   9.169 -1.3612 -0.3148  1.8824
26728SOL     OW83585  10.133  10.641   1.653  0.2806  0.0538  0.3417
26728SOL    HW183586  10.117  10.693   1.574  0.5277 -0.3482  0.0260
26728SOL    HW283587  10.219  10.600   1.638 -0.1495 -0.8643  0.3610
26729SOL     OW83588   1.354   3.240   3.661  0.1361 -0.1866 -0.1445
26729SOL    HW183589   1.260   3.261   3.658  0.0254 -0.0329  2.0797
26729SOL    HW283590   1.398   3.325   3.662  0.1126 -0.1620  1.3949
26730SOL     OW83591   6.487   5.688   2.974 -0.2237 -0.5864 -0.2901
26730SOL    HW183592   6.458   5.779   2.987 -0.3650 -0.8833  1.8206
26730SOL    HW283593   6.571   5.696   2.929  0.0598  0.6361  0.4089
26731SOL     OW83594   7.027   3.130  10.333  0.1692 -0.0590  0.0804
26731SOL    HW183595   6.991   3.072  10.266 -0.0305 -1.1465  1.0756
26731SOL    HW283596   7.110   3.088  10.358  0.7304  0.8741 -0.1817
26732SOL     OW83597   8.521   9.494   5.301 -0.4570  0.1487  0.1774
26732SOL    HW183598   8.443   9.542   5.328  0.3573  0.9129  1.2930
26732SOL    HW283599   8.590   9.528   5.358  0.4989 -1.1702 -0.1544
26733SOL     OW83600   2.799   4.814   2.944  0.4698 -0.6777 -0.2041
26733SOL    HW183601   2.847   4.852   2.870  0.2020 -0.4098 -0.2388
26733SOL    HW283602   2.861   4.752   2.982  1.0192 -0.0026  0.0237
26734SOL     OW83603  10.582   3.093   6.137  0.9426  0.3759 -0.1233
26734SOL    HW183604  10.645   3.144   6.188  1.0507 -0.0772  0.2117
26734SOL    HW283605  10.611   3.103   6.046  1.3068  0.4373 -0.0033
26735SOL     OW83606   9.681   7.506   8.447  0.1481  0.2313  0.0478
26735SOL    HW183607   9.756   7.564   8.433  0.5503 -0.2370  0.2239
26735SOL    HW283608   9.719   7.418   8.450 -0.4046 -0.0077  0.1718
26736SOL     OW83609  10.045   6.464   9.320  0.8727  0.3080  0.0451
26736SOL    HW183610  10.019   6.409   9.247  0.2375  0.0277  0.4771
26736SOL    HW283611  10.135   6.438   9.339  0.2725 -1.2974  0.8683
26737SOL     OW83612   3.292  10.170   9.545 -0.1449  0.3236 -0.1393
26737SOL    HW183613   3.387  10.181   9.553 -0.3594  2.5098 -0.0105
26737SOL    HW283614   3.276  10.163   9.451  0.0616  0.9536 -0.2247
26738SOL     OW83615   9.981   3.197   1.823 -0.1786 -0.3613  0.5854
26738SOL    HW183616   9.968   3.205   1.918 -0.3186  1.2878  0.4588
26738SOL    HW283617  10.055   3.137   1.814 -1.2231 -1.8512  1.6694
26739SOL     OW83618   8.588   8.587   9.842 -0.2546  0.1819 -0.2464
26739SOL    HW183619   8.496   8.561   9.837  0.3097 -1.8946 -1.1422
26739SOL    HW283620   8.626   8.552   9.762  1.7546 -0.9601  1.1325
26740SOL     OW83621   8.443   9.817   0.660  0.1551  0.1969  0.4991
26740SOL    HW183622   8.425   9.887   0.722 -0.2861  0.2302  0.3343
26740SOL    HW283623   8.530   9.837   0.626  0.6673 -0.1451  1.5418
26741SOL     OW83624   1.551  10.887   0.759 -0.2808  0.2177 -0.2006
26741SOL    HW183625   1.476  10.929   0.716  0.6235 -0.0692 -2.1885
26741SOL    HW283626   1.553  10.926   0.847 -0.6737  2.8723 -1.2577
26742SOL     OW83627  10.047   2.438   5.418 -0.6830  0.3312 -0.0260
26742SOL    HW183628   9.956   2.417   5.399 -0.7510  1.2068 -0.7478
26742SOL    HW283629  10.072   2.378   5.488 -2.1082  0.7276  0.8536
26743SOL     OW83630   3.196   5.226   1.340  0.3576 -0.1426  0.7052
26743SOL    HW183631   3.291   5.240   1.343  0.6106 -0.8742 -1.7530
26743SOL    HW283632   3.185   5.144   1.292 -1.5392 -0.2201  1.1914
26744SOL     OW83633   1.542  10.245   2.493  0.4458  0.2081  0.3597
26744SOL    HW183634   1.581  10.281   2.413 -1.1795  1.4659  0.0896
26744SOL    HW283635   1.583  10.159   2.503  2.5682  1.0704 -0.3871
26745SOL     OW83636   8.999   6.193   8.620 -0.0811  0.6008 -0.4778
26745SOL    HW183637   8.985   6.167   8.529 -2.0973  0.4537 -0.1698
26745SOL    HW283638   8.920   6.240   8.644  0.4383  0.6947  1.1876
26746SOL     OW83639   0.305   1.077   9.981 -0.0132 -0.1721 -0.1020
26746SOL    HW183640   0.312   1.005  10.044 -0.4469 -0.1579 -0.0372
26746SOL    HW283641   0.286   1.035   9.897 -1.4891 -0.0747  0.1523
26747SOL     OW83642   0.325   6.895   5.916 -0.0013 -0.0329 -0.8113
26747SOL    HW183643   0.305   6.971   5.862 -2.1994 -0.5109 -0.7485
26747SOL    HW283644   0.284   6.913   6.000 -0.8644 -1.4163 -0.9084
26748SOL     OW83645  10.325   7.998   7.501 -1.0911  0.0807  0.1868
26748SOL    HW183646  10.285   7.926   7.452 -0.4665  1.1696 -2.0967
26748SOL    HW283647  10.251   8.054   7.525 -1.3811 -0.2874  0.1593
26749SOL     OW83648   1.955   0.828   6.124 -0.1944 -0.5161 -0.2012
26749SOL    HW183649   1.923   0.748   6.165  0.7871 -0.0658  1.5512
26749SOL    HW283650   2.047   0.809   6.103 -0.6493 -0.7117 -2.2198
26750SOL     OW83651   4.177   0.529   4.573 -0.2322  0.3727  0.0446
26750SOL    HW183652   4.256   0.564   4.531 -0.7236  0.2388 -1.0331
26750SOL    HW283653   4.125   0.494   4.500 -1.0501 -0.0119  0.7958
26751SOL     OW83654   3.230   4.632  10.619 -0.3971  0.3840 -0.3170
26751SOL    HW183655   3.164   4.699  10.637 -0.2014  0.2733  0.8267
26751SOL    HW283656   3.199   4.590  10.538 -1.7809  0.2884  0.2381
26752SOL     OW83657  10.436   9.672   1.339  0.3211 -0.1648 -0.2445
26752SOL    HW183658  10.517   9.724   1.340  0.3072 -0.1517  0.7734
26752SOL    HW283659  10.367   9.736   1.355  0.2996 -0.4786  0.9632
26753SOL     OW83660   6.647   5.625   0.353 -0.4445 -0.5596 -0.2932
26753SOL    HW183661   6.644   5.655   0.444  0.3821 -1.6632  0.1284
26753SOL    HW283662   6.684   5.698   0.304  0.2607 -0.3920  0.4773
26754SOL     OW83663   3.417   6.437   0.826  0.2153 -0.1285  0.5656
26754SOL    HW183664   3.362   6.400   0.895 -1.0865 -0.8174 -0.7871
26754SOL    HW283665   3.382   6.525   0.812 -0.8379 -0.6732 -0.5072
26755SOL     OW83666   4.665   6.415   4.013 -0.3495 -0.3749  0.2435
26755SOL    HW183667   4.748   6.445   4.050 -1.0644  2.9272 -0.5270
26755SOL    HW283668   4.678   6.417   3.918 -1.7024  1.8435  0.0302
26756SOL     OW83669   1.791   7.700   0.500 -0.2050 -0.4920 -0.1933
26756SOL    HW183670   1.757   7.733   0.583  1.2850  1.1496 -0.1613
26756SOL    HW283671   1.885   7.721   0.503 -0.4504  1.7671 -3.2105
26757SOL     OW83672   2.494   7.054   2.229  0.3451  0.3713  0.2243
26757SOL    HW183673   2.467   7.139   2.263  0.7284  1.3248 -1.7638
26757SOL    HW283674   2.577   7.036   2.274  1.5256  2.2298 -1.1053
26758SOL     OW83675   5.280   6.247   3.808 -0.1380  0.2944 -0.3967
26758SOL    HW183676   5.371   6.241   3.779 -0.6254  0.5348 -2.0887
26758SOL    HW283677   5.253   6.336   3.786 -1.0636 -0.0732 -0.8227
26759SOL     OW83678   7.416   0.022   0.817 -0.2455  0.0105  0.4732
26759SOL    HW183679   7.325   0.007   0.793 -0.2200 -2.0140  1.4552
26759SOL    HW283680   7.465  -0.041   0.765  0.6785  1.3246 -0.3192
26760SOL     OW83681   3.838   7.189   4.939 -0.1644  0.4553 -0.6152
26760SOL    HW183682   3.856   7.265   4.995 -1.8063  0.3655  0.0805
26760SOL    HW283683   3.756   7.210   4.895 -0.0743 -0.4650 -1.2593
26761SOL     OW83684   9.857   8.951   3.882  0.4998 -0.6717 -0.1690
26761SOL    HW183685   9.929   8.958   3.820  0.1089 -0.6072 -0.6179
26761SOL    HW283686   9.840   8.857   3.889  0.5588 -0.6802 -0.1391
26762SOL     OW83687   1.202   1.267   1.695  0.2142  0.4405  0.2811
26762SOL    HW183688   1.165   1.226   1.617  1.7822 -0.1507 -0.1994
26762SOL    HW283689   1.198   1.199   1.762  0.0079  0.5388  0.3710
26763SOL     OW83690   8.023   3.725   6.829  0.5913 -0.3139  0.4800
26763SOL    HW183691   8.103   3.689   6.792  0.5559  1.1876 -1.2118
26763SOL    HW283692   7.977   3.763   6.754 -1.5531 -0.8159  1.4483
26764SOL     OW83693   1.558   1.134   2.769 -0.3086 -0.2532 -0.1824
26764SOL    HW183694   1.490   1.083   2.812 -0.8673 -0.5385 -1.3637
26764SOL    HW283695   1.624   1.070   2.743 -0.3062 -0.1858 -0.3509
26765SOL     OW83696   9.409   6.680   7.690  0.3378  0.2197  0.1072
26765SOL    HW183697   9.483   6.710   7.638  1.8106 -2.8418  0.2243
26765SOL    HW283698   9.435   6.696   7.781  0.1906  0.4878  0.1043
26766SOL     OW83699   0.615   5.350   0.614  0.1831  0.0391  0.1614
26766SOL    HW183700   0.670   5.277   0.643  1.0582  0.4388 -0.4526
26766SOL    HW283701   0.544   5.308   0.566  0.4349 -0.4416  0.1970
26767SOL     OW83702   4.996   5.264   3.089 -0.1631  0.1363  0.0217
26767SOL    HW183703   4.920   5.218   3.125 -0.4353  0.2325 -0.4226
26767SOL    HW283704   5.024   5.210   3.015 -0.3667  0.5776 -0.3822
26768SOL     OW83705   5.538   1.509   4.931  0.5852  0.7686 -0.4883
26768SOL    HW183706   5.448   1.494   4.961  1.3238 -1.0269  0.9473
26768SOL    HW283707   5.567   1.585   4.982  0.0763  1.0245 -0.5670
26769SOL     OW83708   1.145   1.114   7.595 -0.4017 -0.4889 -0.6092
26769SOL    HW183709   1.085   1.147   7.662  0.2608 -0.3147 -0.0911
26769SOL    HW283710   1.149   1.185   7.530  0.7625  0.3703  0.3395
26770SOL     OW83711   9.271   3.283   7.051 -0.0309  0.2549  0.6132
26770SOL    HW183712   9.204   3.350   7.053  0.0117  0.2898  0.8540
26770SOL    HW283713   9.334   3.313   6.986 -0.1838  0.2823  0.4780
26771SOL     OW83714   4.196   1.124   5.801  0.2094 -0.6494 -0.4685
26771SOL    HW183715   4.285   1.158   5.807 -0.9686  2.4407  1.5550
26771SOL    HW283716   4.180   1.118   5.706  1.8401  0.8233 -0.9003
26772SOL     OW83717   2.813   6.800   1.513 -0.1503  0.5056 -0.0993
26772SOL    HW183718   2.735   6.856   1.517  0.4367  1.3267  0.2358
26772SOL    HW283719   2.870   6.834   1.582  1.1259  0.8932 -1.2978
26773SOL     OW83720   4.337   9.414   4.165 -0.5548  0.1284  0.0520
26773SOL    HW183721   4.257   9.407   4.216 -0.5745  0.3868  0.0575
26773SOL    HW283722   4.344   9.330   4.119  0.4460 -0.8675  1.9019
26774SOL     OW83723   8.769   8.813   7.132 -0.2267 -0.3287 -0.3104
26774SOL    HW183724   8.732   8.757   7.064 -2.2820  0.2003  0.2897
26774SOL    HW283725   8.782   8.898   7.089  0.2278 -0.4952 -0.5055
26775SOL     OW83726   6.029   5.044   6.569  0.4314 -0.7653  0.0152
26775SOL    HW183727   6.074   5.128   6.568 -0.4910 -0.2548  0.2471
26775SOL    HW283728   6.091   4.984   6.611  0.3693  0.2429  1.6279
26776SOL     OW83729   8.344  10.402   0.288 -0.2746  0.0622 -0.2954
26776SOL    HW183730   8.327  10.454   0.367 -2.1764 -0.5325 -0.2713
26776SOL    HW283731   8.435  10.423   0.265  0.6768 -0.4891  2.5907
26777SOL     OW83732   8.436   4.467   5.476  0.3447 -0.3346 -0.1334
26777SOL    HW183733   8.514   4.411   5.473  0.0137 -0.7761 -0.5474
26777SOL    HW283734   8.364   4.408   5.497 -0.1166 -0.1964 -1.2448
26778SOL     OW83735   1.086   2.139   8.918 -0.0275  0.0733 -0.2141
26778SOL    HW183736   0.994   2.117   8.907 -0.2176 -0.5672  2.0574
26778SOL    HW283737   1.091   2.233   8.900 -1.4376  0.4292  1.0499
26779SOL     OW83738   3.528   8.122   6.438  0.5003  0.3609 -0.6425
26779SOL    HW183739   3.480   8.201   6.461  0.7164  0.3945 -0.3027
26779SOL    HW283740   3.505   8.106   6.346  1.9768  1.9359 -1.3325
26780SOL     OW83741   0.021   9.596   8.141 -0.1628  0.4240 -1.0222
26780SOL    HW183742   0.074   9.578   8.219  1.2793  0.0138 -2.0454
26780SOL    HW283743  -0.017   9.683   8.157  1.7800  1.2791 -0.6956
26781SOL     OW83744   5.772  10.696   4.444  0.0775  0.1469  0.0871
26781SOL    HW183745   5.821  10.721   4.522 -0.0859 -1.0643  0.6117
26781SOL    HW283746   5.735  10.777   4.411  0.0969  0.6740  1.3169
26782SOL     OW83747  10.050   4.952   0.360 -0.3122 -0.3676 -0.4942
26782SOL    HW183748   9.955   4.946   0.351 -0.1980 -0.5811 -1.7296
26782SOL    HW283749  10.084   4.915   0.278  0.8318 -0.2630 -0.0794
26783SOL     OW83750   1.505   8.315   2.106 -0.0256  0.0472  0.4470
26783SOL    HW183751   1.473   8.272   2.026  0.8096  0.7245 -0.2621
26783SOL    HW283752   1.426   8.351   2.146 -0.3645  0.3740 -0.4843
26784SOL     OW83753   4.357   0.920   4.599  0.1433  0.1904  0.1553
26784SOL    HW183754   4.383   0.828   4.602 -1.0826 -0.1882 -0.0960
26784SOL    HW283755   4.379   0.954   4.685 -1.8990 -1.0914  1.2806
26785SOL     OW83756   3.268   1.022   4.586 -0.2584  0.1573  0.3029
26785SOL    HW183757   3.214   1.027   4.506 -0.1744  0.8844  0.2801
26785SOL    HW283758   3.208   1.047   4.656  0.0838  1.1548  0.2549
26786SOL     OW83759   5.099   1.563   0.786  0.1375  0.4299  0.1124
26786SOL    HW183760   5.136   1.596   0.704  1.1010 -1.0087 -0.0619
26786SOL    HW283761   5.118   1.632   0.850  1.5742  0.5024 -0.3569
26787SOL     OW83762   8.718   1.691   8.620  0.1185  0.0445 -0.4882
26787SOL    HW183763   8.755   1.753   8.557 -2.0995  1.5620 -0.4306
26787SOL    HW283764   8.712   1.608   8.572  0.3179  0.6626 -1.6156
26788SOL     OW83765   0.099   0.563   2.812  0.0303 -0.0526 -0.1815
26788SOL    HW183766   0.186   0.548   2.850 -0.5681 -0.9469  0.9282
26788SOL    HW283767   0.112   0.558   2.718  1.0191 -1.2282 -0.0055
26789SOL     OW83768   9.702   6.307  10.766  0.6929  0.6793  0.6585
26789SOL    HW183769   9.757   6.385  10.774  0.0528  1.1788  0.1782
26789SOL    HW283770   9.613   6.340  10.758  0.4758 -0.0837 -0.1816
26790SOL     OW83771   1.620   9.765   3.398  0.8507  0.3276 -0.3985
26790SOL    HW183772   1.565   9.690   3.375  3.3353 -1.2033 -1.7705
26790SOL    HW283773   1.682   9.772   3.326  1.9285  2.5082  0.6703
26791SOL     OW83774   7.840   5.143   1.409  0.3182  0.2534  0.9550
26791SOL    HW183775   7.746   5.124   1.412  0.1148  0.4071 -1.9286
26791SOL    HW283776   7.852   5.212   1.475 -1.6923  0.6024  1.0191
26792SOL     OW83777   1.487   2.204   1.948 -0.2019  0.1547 -0.2323
26792SOL    HW183778   1.444   2.179   2.030  2.6578  1.1119  1.7154
26792SOL    HW283779   1.516   2.294   1.962 -0.5499  0.7554 -2.7820
26793SOL     OW83780   7.419   9.479   3.607  0.4480  1.1216 -0.3872
26793SOL    HW183781   7.465   9.563   3.605  2.6744 -0.0466 -0.5336
26793SOL    HW283782   7.327   9.503   3.595  0.7888  3.6818  1.1996
26794SOL     OW83783   0.922   0.834   6.557  0.3236  0.0537  0.7957
26794SOL    HW183784   0.967   0.778   6.494 -0.0595 -0.4556  0.9661
26794SOL    HW283785   0.832   0.839   6.523 -0.3311 -1.5743  2.1462
26795SOL     OW83786   9.494   4.887   5.479  0.1858 -0.7327  0.0800
26795SOL    HW183787   9.500   4.944   5.403  1.2955 -1.4033 -0.3620
26795SOL    HW283788   9.407   4.904   5.515  0.3325  0.9160 -0.2752
26796SOL     OW83789   3.216   5.799   8.561  0.1271 -0.1398  0.1694
26796SOL    HW183790   3.153   5.868   8.582 -0.3402 -0.6448  0.4427
26796SOL    HW283791   3.259   5.830   8.481  0.0516  0.5486  0.3809
26797SOL     OW83792   5.109   8.845   1.728 -0.2492  0.4388 -0.0239
26797SOL    HW183793   5.189   8.794   1.711 -1.1260 -1.3520  0.9054
26797SOL    HW283794   5.074   8.806   1.808 -1.6216  1.7582  0.0403
26798SOL     OW83795   8.256  10.726   4.155 -0.1744  0.6286 -0.3092
26798SOL    HW183796   8.260  10.794   4.088  0.4168 -0.1278 -1.0603
26798SOL    HW283797   8.344  10.689   4.158 -0.6048 -0.4624 -0.3120
26799SOL     OW83798   3.375   5.451   0.961 -0.3132  0.2127  0.0371
26799SOL    HW183799   3.312   5.457   1.032  0.3187 -1.9322  0.8753
26799SOL    HW283800   3.322   5.432   0.883 -1.0704  3.2315 -0.2999
26800SOL     OW83801   9.855   8.581   5.602  0.4091 -0.0427 -0.2405
26800SOL    HW183802   9.853   8.569   5.507 -0.4728  0.0788 -0.2434
26800SOL    HW283803   9.946   8.604   5.621  0.5125  0.3125 -1.1019
26801SOL     OW83804   5.097   1.687   4.848 -0.1389 -0.0984 -0.0673
26801SOL    HW183805   5.175   1.737   4.824  1.5844 -2.1331  0.9917
26801SOL    HW283806   5.070   1.724   4.932  0.2154  0.0197 -0.0030
26802SOL     OW83807   7.118   3.618   7.215 -0.1418 -0.1006 -0.8122
26802SOL    HW183808   7.176   3.567   7.158  1.5863 -0.7462  1.3981
26802SOL    HW283809   7.173   3.689   7.247 -1.4417  0.9682 -0.8568
26803SOL     OW83810   7.608   8.759   0.903 -0.0799 -0.4117 -0.4458
26803SOL    HW183811   7.581   8.755   0.811 -2.0234 -2.3090  0.1201
26803SOL    HW283812   7.637   8.849   0.915 -3.6397  1.1375 -1.9357
26804SOL     OW83813   0.292   8.958   7.474  0.1996 -0.2072  0.1341
26804SOL    HW183814   0.285   8.930   7.383 -3.1671 -0.6998  0.4410
26804SOL    HW283815   0.326   8.881   7.520  1.6022 -0.0572 -0.5832
26805SOL     OW83816   0.980   6.627   2.648 -0.8758 -0.1182  0.2219
26805SOL    HW183817   1.052   6.681   2.618 -0.9679  0.9719  1.8771
26805SOL    HW283818   0.953   6.578   2.570  1.6382 -0.6011 -0.4370
26806SOL     OW83819   5.556   6.803   2.774  0.0666  0.7006 -0.0330
26806SOL    HW183820   5.583   6.744   2.704  1.8376  1.0888  0.2668
26806SOL    HW283821   5.579   6.756   2.855 -0.1869  1.0443  0.2420
26807SOL     OW83822   7.555   2.129   7.265 -0.0861 -0.4683 -0.1088
26807SOL    HW183823   7.645   2.146   7.240 -0.3017  1.5135  0.2827
26807SOL    HW283824   7.560   2.100   7.356  0.0854  1.3240  0.4957
26808SOL     OW83825   7.125   0.955   9.243  0.4433  0.4673 -0.0869
26808SOL    HW183826   7.036   0.920   9.236  0.7945 -0.7640  1.2660
26808SOL    HW283827   7.150   0.972   9.152 -0.4076 -1.1619 -0.6807
26809SOL     OW83828   4.329   4.068   2.827 -0.2556  0.4272  0.5897
26809SOL    HW183829   4.321   4.162   2.813 -0.7477  0.7571  2.8387
26809SOL    HW283830   4.415   4.046   2.790 -1.3940  1.0762 -2.8410
26810SOL     OW83831   9.125   8.151   4.981 -0.1322  0.1084 -0.2217
26810SOL    HW183832   9.185   8.201   5.036 -0.7702  1.6719 -0.9050
26810SOL    HW283833   9.181   8.095   4.928  0.5663 -0.2742  0.8771
26811SOL     OW83834   4.824   0.687   0.513 -0.1774  0.4643  0.2799
26811SOL    HW183835   4.751   0.639   0.475  1.6737 -2.7165  0.3790
26811SOL    HW283836   4.874   0.621   0.561  3.4633  2.1708 -0.8057
26812SOL     OW83837   7.582   8.022   2.330  0.4030 -0.0233  0.5583
26812SOL    HW183838   7.563   8.022   2.423 -0.4112 -1.6193  0.4258
26812SOL    HW283839   7.508   7.976   2.290  1.6900 -1.1611 -0.6320
26813SOL     OW83840   6.600   2.371   8.278  0.0203 -0.0547  0.0939
26813SOL    HW183841   6.639   2.386   8.364 -0.0601 -0.8683  0.2834
26813SOL    HW283842   6.641   2.436   8.221  0.4999  0.1159  0.6231
26814SOL     OW83843   0.162   0.880   0.477 -0.2226  0.1194  0.4348
26814SOL    HW183844   0.069   0.884   0.499 -0.5025 -2.1824 -0.0501
26814SOL    HW283845   0.201   0.831   0.549  0.3982  0.0415  0.0532
26815SOL     OW83846   7.634   1.673  10.469 -0.5732  0.3520  0.1990
26815SOL    HW183847   7.622   1.607  10.401  1.5977  0.4523 -0.3828
26815SOL    HW283848   7.708   1.641  10.521 -0.2388  1.7163  0.6218
26816SOL     OW83849   3.799   4.002   2.160 -1.0526 -0.4425  0.5313
26816SOL    HW183850   3.752   4.082   2.137 -1.0092 -0.7197 -0.5925
26816SOL    HW283851   3.874   4.000   2.100 -1.6666 -1.8689 -0.2386
26817SOL     OW83852   2.587   4.743   8.657  0.2545 -0.0778  0.3862
26817SOL    HW183853   2.535   4.803   8.710  0.8615 -0.0847  1.0107
26817SOL    HW283854   2.604   4.668   8.714  0.0646 -0.5412 -0.1623
26818SOL     OW83855   0.599   1.769   3.112  0.6839 -0.4293  0.4438
26818SOL    HW183856   0.649   1.842   3.149 -2.5055  0.4572  3.5758
26818SOL    HW283857   0.562   1.805   3.031  0.4673  0.8824  1.0981
26819SOL     OW83858   5.232   7.076   9.628  0.3301  0.8910 -0.6173
26819SOL    HW183859   5.151   7.110   9.589 -0.5986  0.1001  0.5366
26819SOL    HW283860   5.262   7.009   9.566 -1.4137 -0.7315  0.1617
26820SOL     OW83861   6.303   1.470   8.010 -0.2451  0.2368 -0.0244
26820SOL    HW183862   6.209   1.475   7.995 -0.5326 -0.5625  1.3341
26820SOL    HW283863   6.337   1.555   7.981 -1.4874  0.7981  0.1187
26821SOL     OW83864   1.576   0.499   6.833 -0.0621 -1.1469 -0.1420
26821SOL    HW183865   1.613   0.421   6.793  0.0060 -2.7667  2.7671
26821SOL    HW283866   1.634   0.570   6.806 -0.2564 -1.9730 -3.0663
26822SOL     OW83867   6.167   2.446   5.720 -0.4583 -0.1985  0.4133
26822SOL    HW183868   6.202   2.475   5.636 -0.0980  1.7776  1.2082
26822SOL    HW283869   6.196   2.355   5.728 -1.6945 -0.9078 -2.2062
26823SOL     OW83870   6.010   4.287   9.192 -0.0651 -0.7647  0.1160
26823SOL    HW183871   6.100   4.270   9.221 -0.1274  1.3046  1.8251
26823SOL    HW283872   5.957   4.224   9.240  0.3539 -1.0000  0.2774
26824SOL     OW83873   7.350   1.201   2.286 -0.3947  0.0794 -0.3048
26824SOL    HW183874   7.383   1.158   2.207  0.2709 -0.6235  0.3456
26824SOL    HW283875   7.260   1.227   2.263  0.5394  2.0146 -2.0982
26825SOL     OW83876  10.892   9.311   8.670 -1.1184  0.2442  0.7491
26825SOL    HW183877  10.929   9.338   8.754  2.2346 -0.4046 -0.3586
26825SOL    HW283878  10.893   9.215   8.673 -2.8160  0.1899  0.6357
26826SOL     OW83879   5.294   9.636   8.651  0.0572 -0.1227  0.0099
26826SOL    HW183880   5.210   9.611   8.613 -0.4978  1.6187  0.0459
26826SOL    HW283881   5.284   9.620   8.745 -0.2764  0.2117  0.0297
26827SOL     OW83882   9.360  10.136  10.228  0.4577  0.4155  0.3513
26827SOL    HW183883   9.412  10.209  10.261  0.9535 -0.6321  1.9970
26827SOL    HW283884   9.331  10.164  10.141  2.8260  1.5018 -0.1599
26828SOL     OW83885   6.550   0.573   9.193  0.1711  0.2421 -0.1963
26828SOL    HW183886   6.559   0.656   9.146 -0.3267  0.4453  0.0544
26828SOL    HW283887   6.592   0.589   9.278 -0.9568  0.6341  0.3102
26829SOL     OW83888   2.894  10.647   2.988 -0.2666  0.1911 -0.1664
26829SOL    HW183889   2.956  10.610   2.926 -1.1755  1.7937 -2.1349
26829SOL    HW283890   2.808  10.624   2.953 -0.8037  0.7445  0.7349
26830SOL     OW83891   1.307   8.507  10.823 -0.2801 -0.0431 -1.0500
26830SOL    HW183892   1.231   8.521  10.766  1.5197 -1.9192 -4.1911
26830SOL    HW283893   1.364   8.583  10.807 -0.7831  0.6362  0.2042
26831SOL     OW83894   9.247   8.956   2.657 -0.7185  0.4579 -0.0512
26831SOL    HW183895   9.212   9.036   2.696  0.7024  1.1043 -0.0472
26831SOL    HW283896   9.323   8.985   2.606  1.2998 -1.1279  1.8705
26832SOL     OW83897   4.442   6.089   3.998  0.6487 -0.4588 -0.0144
26832SOL    HW183898   4.495   6.143   4.057  1.9689 -2.1247  0.4119
26832SOL    HW283899   4.388   6.151   3.950  1.3015  1.1335  1.2259
26833SOL     OW83900   7.489   1.904   7.523 -0.0853 -0.4741 -0.1521
26833SOL    HW183901   7.430   1.874   7.591  0.6697  0.3022  0.8754
26833SOL    HW283902   7.442   1.887   7.441 -0.4852 -2.5897  0.4667
26834SOL     OW83903   0.782   1.719   6.892 -0.5804  0.1174 -0.0789
26834SOL    HW183904   0.693   1.729   6.926  0.0829  0.8251  1.5597
26834SOL    HW283905   0.829   1.795   6.925  0.3430  0.4635 -2.0477
26835SOL     OW83906   0.689   8.625   5.886 -0.0956 -0.1911 -0.0153
26835SOL    HW183907   0.762   8.687   5.884  0.2565 -0.5562  0.6296
26835SOL    HW283908   0.720   8.550   5.835 -0.4501  0.0821 -0.6447
26836SOL     OW83909   5.491   2.644   3.024 -0.1796 -0.2065  0.1763
26836SOL    HW183910   5.526   2.572   2.972 -1.2292 -0.8071  0.2746
26836SOL    HW283911   5.428   2.687   2.967 -0.7764 -0.3999  0.6752
26837SOL     OW83912   5.359   8.220   0.980 -0.1752  0.2271  0.0896
26837SOL    HW183913   5.310   8.139   0.960 -1.0065  0.5231  0.8410
26837SOL    HW283914   5.450   8.192   0.988 -0.4860 -0.6901  0.5752
26838SOL     OW83915  10.184   6.434   1.776  0.3479 -0.3756 -0.0007
26838SOL    HW183916  10.131   6.513   1.778 -0.5756 -0.9693 -0.5784
26838SOL    HW283917  10.175   6.400   1.687  2.8046  0.2224 -0.5581
26839SOL     OW83918   1.390   4.662   2.299 -0.0006  0.2147  0.2599
26839SOL    HW183919   1.391   4.592   2.233  2.3969 -0.7536  1.2059
26839SOL    HW283920   1.379   4.617   2.382  0.6286  1.0298  0.8108
26840SOL     OW83921   8.635   7.023   1.054  0.0289 -0.2960  0.0097
26840SOL    HW183922   8.587   6.997   1.133 -1.1195 -0.6747 -0.7848
26840SOL    HW283923   8.713   6.968   1.054 -0.1759 -0.5919  0.6712
26841SOL     OW83924   4.347   7.245   9.131  0.7159 -0.2240  0.2374
26841SOL    HW183925   4.404   7.213   9.061  0.9983 -0.1546  0.4349
26841SOL    HW283926   4.362   7.184   9.204  1.1379  0.2589  0.5612
26842SOL     OW83927   9.337   1.067   6.466  0.0260  0.1232 -0.4254
26842SOL    HW183928   9.427   1.036   6.449  1.0596  1.3945  2.1492
26842SOL    HW283929   9.341   1.161   6.447 -1.1634 -0.0215 -1.5041
26843SOL     OW83930   0.960   0.670   8.852  0.0158 -0.1748 -0.5301
26843SOL    HW183931   0.892   0.714   8.903  0.1771 -0.1113 -0.3669
26843SOL    HW283932   0.982   0.592   8.904  0.3629  0.0239 -0.3714
26844SOL     OW83933   6.584   9.154   2.290  0.3590 -0.3232 -0.3534
26844SOL    HW183934   6.568   9.124   2.379 -0.7823 -0.3931 -0.5729
26844SOL    HW283935   6.534   9.095   2.235  0.5786  0.0860 -1.0063
26845SOL     OW83936  10.067   1.101   5.611  0.4991 -0.0853  0.2554
26845SOL    HW183937  10.154   1.127   5.640  0.5264  0.2040 -0.0790
26845SOL    HW283938  10.037   1.174   5.557 -0.7846  0.7511  1.9889
26846SOL     OW83939   5.300   4.523  10.405  0.1562 -0.1537 -0.2574
26846SOL    HW183940   5.209   4.524  10.378 -0.1009  1.0706  0.5873
26846SOL    HW283941   5.332   4.437  10.377 -0.4781  0.4016 -3.0270
26847SOL     OW83942   0.589   1.611   9.741 -0.2313  0.6226  0.5317
26847SOL    HW183943   0.662   1.558   9.709 -2.0632 -0.7466 -1.6491
26847SOL    HW283944   0.571   1.576   9.828  0.2987 -0.5424  0.1938
26848SOL     OW83945   2.452   0.121   8.307 -0.0460 -0.3469 -0.4176
26848SOL    HW183946   2.409   0.037   8.293  0.2391 -0.6776  0.6524
26848SOL    HW283947   2.444   0.138   8.401 -0.4321  1.0081 -0.6607
26849SOL     OW83948   8.509   6.381   8.769 -0.4044  0.0085  0.2526
26849SOL    HW183949   8.471   6.441   8.705  1.5200  1.1349  0.0642
26849SOL    HW283950   8.461   6.299   8.758 -2.5890  1.2566 -0.0392
26850SOL     OW83951   6.151   2.194  10.730 -0.8206 -0.4418 -0.1495
26850SOL    HW183952   6.155   2.170  10.637 -2.0717  1.7195 -0.8335
26850SOL    HW283953   6.057   2.195  10.750 -0.7303  1.6545  0.3802
26851SOL     OW83954   4.093   2.020   3.148 -0.4158  0.1347 -0.2220
26851SOL    HW183955   4.054   1.985   3.228  0.8077 -0.5496  0.1148
26851SOL    HW283956   4.185   2.033   3.170 -0.0058 -0.2656 -1.5679
26852SOL     OW83957   4.304   7.706   1.199 -0.6291 -0.1053 -0.4154
26852SOL    HW183958   4.336   7.796   1.201  0.1061 -0.3030 -1.9383
26852SOL    HW283959   4.210   7.715   1.184 -0.6749  0.4086  0.1190
26853SOL     OW83960   9.982   0.228   1.607  0.1775 -0.1403 -0.0791
26853SOL    HW183961  10.002   0.268   1.522  2.1813  0.0142  0.4202
26853SOL    HW283962  10.063   0.185   1.633 -0.7552 -1.1837  1.2356
26854SOL     OW83963   0.765  10.626   2.893  0.5899 -0.1343 -0.1181
26854SOL    HW183964   0.783  10.652   2.984  0.3237  1.1646 -0.4120
26854SOL    HW283965   0.781  10.532   2.891 -2.4881 -0.8435  2.0611
26855SOL     OW83966   3.471   8.907   2.293  0.0298 -0.2189  0.1167
26855SOL    HW183967   3.491   8.972   2.361 -0.8513  0.9475 -0.6825
26855SOL    HW283968   3.533   8.926   2.222 -2.2745  2.0297 -1.4930
26856SOL     OW83969   9.318   6.138   6.661 -0.6540 -0.6849 -0.0853
26856SOL    HW183970   9.265   6.189   6.722 -0.2160 -0.0553 -0.2172
26856SOL    HW283971   9.406   6.177   6.667 -0.4587 -1.0272 -0.6474
26857SOL     OW83972   0.101   1.254   2.448 -0.0622  0.7749 -0.4754
26857SOL    HW183973   0.059   1.323   2.397  0.6195  1.0379 -0.6861
26857SOL    HW283974   0.146   1.199   2.383 -1.4530 -0.4979 -0.4276
26858SOL     OW83975   0.653   9.806   2.902  0.5699  0.2970 -0.0573
26858SOL    HW183976   0.698   9.777   2.981 -1.2050 -0.4907  0.7047
26858SOL    HW283977   0.575   9.851   2.933 -0.3313 -0.3101 -1.3514
26859SOL     OW83978   6.348  10.073   8.491 -0.3404  0.4584  0.2937
26859SOL    HW183979   6.278  10.132   8.466  1.1287  2.0023 -0.3325
26859SOL    HW283980   6.351  10.078   8.586 -0.5915  0.9422  0.2761
26860SOL     OW83981   4.336   1.933   4.031 -0.4808  0.1568  0.2535
26860SOL    HW183982   4.330   1.983   4.113  0.7801  0.9912 -0.1439
26860SOL    HW283983   4.262   1.965   3.979 -0.2132  0.9601  0.3577
26861SOL     OW83984   3.685   2.783   0.139 -0.2968 -0.3762  0.1153
26861SOL    HW183985   3.758   2.751   0.087  0.0194 -1.8331  1.3868
26861SOL    HW283986   3.705   2.755   0.228 -0.9702  1.7613  1.0125
26862SOL     OW83987   2.060   8.211   0.087  0.0870  0.4263  0.2087
26862SOL    HW183988   2.146   8.178   0.060  0.7643  3.3494 -1.6832
26862SOL    HW283989   2.079   8.261   0.167  0.0170  0.5449  0.1501
26863SOL     OW83990   6.940   5.425   2.452  0.1105  0.3949 -0.3284
26863SOL    HW183991   6.851   5.460   2.461  0.0907  0.0847  0.8987
26863SOL    HW283992   6.979   5.437   2.538  1.1216  0.1361 -0.7415
26864SOL     OW83993   0.850   5.718   8.947 -0.3382 -0.2278  0.0485
26864SOL    HW183994   0.846   5.658   8.872  0.5004  0.4084 -0.5308
26864SOL    HW283995   0.913   5.785   8.920 -0.9551  0.6925  0.8412
26865SOL     OW83996   8.412   3.567   8.197 -0.5037 -0.1835  0.0857
26865SOL    HW183997   8.438   3.475   8.210 -2.1776 -0.8311 -0.8027
26865SOL    HW283998   8.317   3.563   8.186 -0.7737  1.8136  1.2136
26866SOL     OW83999   2.737   4.455   5.471 -0.3289  0.1017 -0.1922
26866SOL    HW184000   2.661   4.510   5.487 -0.2157  0.0922  0.4041
26866SOL    HW284001   2.811   4.507   5.502 -0.1556 -0.1336 -0.2092
26867SOL     OW84002  10.568   5.955   8.534 -0.0817 -0.5065  0.5110
26867SOL    HW184003  10.491   6.002   8.503 -1.0287 -0.9267  2.1089
26867SOL    HW284004  10.535   5.869   8.559  1.1459 -1.1209  0.0869
26868SOL     OW84005   1.147   2.377  10.509 -0.1814 -0.1555  0.2010
26868SOL    HW184006   1.171   2.285  10.498 -0.4447 -0.3907  1.4928
26868SOL    HW284007   1.069   2.376  10.564 -0.1704  0.8492  0.2604
26869SOL     OW84008   7.433   0.955   7.092 -0.3615 -0.4158  0.4936
26869SOL    HW184009   7.359   0.966   7.033 -0.3158 -0.7229  0.3788
26869SOL    HW284010   7.504   0.921   7.037 -0.2950 -0.6250  0.7030
26870SOL     OW84011   1.962   8.832   5.457 -0.1220  0.6023  0.0580
26870SOL    HW184012   1.981   8.926   5.465  0.7405  0.6437 -1.9107
26870SOL    HW284013   1.868   8.828   5.438  0.1872  1.2483 -1.8121
26871SOL     OW84014   8.352  10.631   8.033  0.2141  0.2308 -0.4926
26871SOL    HW184015   8.311  10.711   8.067 -0.4103  0.6374 -2.0722
26871SOL    HW284016   8.337  10.636   7.938  3.1599 -0.0675 -1.0565
26872SOL     OW84017   0.278   8.670   1.379 -0.5187 -0.2932 -0.3590
26872SOL    HW184018   0.240   8.700   1.296  0.0480 -1.7699 -1.2027
26872SOL    HW284019   0.213   8.610   1.415  0.7563 -2.6396 -1.6883
26873SOL     OW84020   2.711   6.897   1.094 -0.2669  0.1004  0.0924
26873SOL    HW184021   2.736   6.809   1.066 -1.2578 -0.2775  0.3627
26873SOL    HW284022   2.770   6.917   1.167 -1.7793 -1.4535  1.8469
26874SOL     OW84023   4.593   4.033   2.793 -0.3593 -0.1610  0.2871
26874SOL    HW184024   4.667   4.076   2.751  0.6056 -0.3858  1.6720
26874SOL    HW284025   4.600   3.941   2.768 -0.8451  0.0051 -0.4887
26875SOL     OW84026   9.339   4.647   2.670 -0.3830 -0.1975  0.3153
26875SOL    HW184027   9.308   4.680   2.586 -0.5562  2.0688  1.2039
26875SOL    HW284028   9.328   4.552   2.664 -2.2088  0.0659 -1.4926
26876SOL     OW84029   6.520   4.407   0.720 -0.0881 -0.6307  0.0981
26876SOL    HW184030   6.437   4.373   0.687 -0.7278 -1.3639  2.3451
26876SOL    HW284031   6.497   4.490   0.762  0.4293 -0.5522  0.2297
26877SOL     OW84032   0.075   6.046   1.274  0.3413  0.1229  0.0384
26877SOL    HW184033   0.009   6.077   1.212 -0.3615 -1.3468  0.0277
26877SOL    HW284034   0.132   6.122   1.288 -1.0046  1.2423 -0.3964
26878SOL     OW84035  10.422   6.300   7.495  0.0617  0.1182  0.2542
26878SOL    HW184036  10.336   6.289   7.453  0.8452 -1.1948 -1.1172
26878SOL    HW284037  10.457   6.381   7.457 -0.8063  1.0128  1.3041
26879SOL     OW84038   7.181   3.660   5.321  0.4820  0.5261 -0.2697
26879SOL    HW184039   7.189   3.700   5.235  1.0333  2.9439  0.8015
26879SOL    HW284040   7.104   3.702   5.360  0.9378  0.3839  0.8409
26880SOL     OW84041   2.804  10.224   8.157 -0.1190 -0.1327  0.0502
26880SOL    HW184042   2.810  10.288   8.086  0.4624  1.0605  1.1408
26880SOL    HW284043   2.760  10.149   8.117  1.2770 -0.0032 -1.9160
26881SOL     OW84044   0.991   0.457  10.814  0.7014  0.1252  0.3841
26881SOL    HW184045   0.956   0.441  10.726  1.7477  0.1518 -0.0407
26881SOL    HW284046   0.915   0.489  10.863 -0.2423 -1.2043 -0.1209
26882SOL     OW84047   0.417   5.919   1.413 -0.1163 -0.2544 -0.3978
26882SOL    HW184048   0.502   5.942   1.449 -0.3823  0.5455 -0.2675
26882SOL    HW284049   0.429   5.831   1.376  0.9171  0.0929 -0.9124
26883SOL     OW84050   7.656   2.436   2.937 -0.0709 -0.5598  0.0510
26883SOL    HW184051   7.621   2.379   2.869  1.2713  0.3452 -1.4878
26883SOL    HW284052   7.600   2.514   2.934  0.6134 -0.0684 -0.8329
26884SOL     OW84053   1.420   1.874   7.466 -0.4483  0.0913  0.0819
26884SOL    HW184054   1.461   1.961   7.467 -1.3836  0.5766  1.8261
26884SOL    HW284055   1.387   1.863   7.556 -1.4525 -1.5400 -0.4485
26885SOL     OW84056  10.585  10.633   2.638 -0.3487  0.0495  0.0480
26885SOL    HW184057  10.634  10.706   2.600  0.4098 -1.3253 -1.7537
26885SOL    HW284058  10.651  10.586   2.690  0.3848 -1.7974 -2.3692
26886SOL     OW84059   9.104   8.580   7.022 -0.2232  0.0592 -0.7989
26886SOL    HW184060   9.078   8.623   7.104  1.6359  2.0822 -1.1688
26886SOL    HW284061   9.159   8.507   7.049 -0.6857 -0.0863 -0.2327
26887SOL     OW84062   5.169   5.158   4.235 -0.2369 -0.7270  0.0039
26887SOL    HW184063   5.095   5.210   4.203 -0.5742 -1.3150 -0.1846
26887SOL    HW284064   5.173   5.176   4.329  1.5192  1.9844 -0.4552
26888SOL     OW84065   7.086   2.604   1.180  0.5435 -0.1921 -0.5989
26888SOL    HW184066   7.044   2.527   1.219  1.0822  1.4596  3.7957
26888SOL    HW284067   7.154   2.568   1.124  0.0608 -2.9200  0.4177
26889SOL     OW84068   4.761  10.607   7.055 -0.0214 -0.3787 -0.5500
26889SOL    HW184069   4.752  10.519   7.017  0.5136 -1.1772  1.0558
26889SOL    HW284070   4.683  10.617   7.110  0.0983 -0.0153 -0.4450
26890SOL     OW84071   4.343   5.991  10.289 -0.3300  0.0659 -0.5945
26890SOL    HW184072   4.279   5.943  10.342 -0.4532 -0.7194 -1.4154
26890SOL    HW284073   4.293   6.020  10.212  0.3080 -0.6868 -1.3182
26891SOL     OW84074   3.414   9.156   0.775 -0.7243  0.4226  0.0697
26891SOL    HW184075   3.379   9.240   0.807 -0.1270 -0.1575  2.5140
26891SOL    HW284076   3.507   9.159   0.798 -0.0443  0.2091 -2.4446
26892SOL     OW84077   2.872   9.909   7.604  0.1069 -0.1923  0.2030
26892SOL    HW184078   2.862   9.816   7.623 -2.1407  0.3732  2.2608
26892SOL    HW284079   2.798   9.929   7.546 -1.2445  0.8294  2.1758
26893SOL     OW84080   1.822   6.185   4.668 -0.2107  0.0691 -0.2156
26893SOL    HW184081   1.915   6.202   4.680 -0.3660  0.3224  0.7074
26893SOL    HW284082   1.781   6.216   4.748 -0.9471 -1.1746 -0.0785
26894SOL     OW84083   2.074   3.056  10.023 -0.2027 -0.4518 -0.3077
26894SOL    HW184084   2.116   3.102   9.951  0.2793 -0.7862 -0.2405
26894SOL    HW284085   2.003   3.115  10.050 -0.4097 -0.3363 -1.0683
26895SOL     OW84086   2.832   4.967   6.896 -0.3239 -0.5501  0.6448
26895SOL    HW184087   2.914   5.006   6.866 -0.6703  0.0579  0.4692
26895SOL    HW284088   2.790   5.036   6.948 -1.7317 -0.0451 -1.0625
26896SOL     OW84089   5.695   6.747   4.509  0.7253  0.3765  0.8437
26896SOL    HW184090   5.748   6.754   4.588 -0.1571 -0.0020  1.4872
26896SOL    HW284091   5.638   6.672   4.525 -1.3791  1.9369  1.0205
26897SOL     OW84092   8.458   4.656   7.485  0.1663  0.2189 -0.1101
26897SOL    HW184093   8.479   4.605   7.564  0.8012 -0.0715 -0.4603
26897SOL    HW284094   8.543   4.670   7.442 -0.3891 -1.3834 -1.8195
26898SOL     OW84095   7.501   0.307   0.928 -0.5910 -0.3130  0.0835
26898SOL    HW184096   7.559   0.345   0.862  0.3727 -3.1558 -0.8632
26898SOL    HW284097   7.520   0.355   1.008  0.7464  0.9292 -0.9393
26899SOL     OW84098   0.641   1.063   5.523 -0.3170  0.5179  0.7448
26899SOL    HW184099   0.577   1.022   5.464 -0.1421  1.4618 -0.1312
26899SOL    HW284100   0.594   1.075   5.605 -0.9781  0.3516  0.3988
26900SOL     OW84101   6.942   7.077   2.498  0.0302  0.1380 -0.2600
26900SOL    HW184102   6.907   7.163   2.517  1.3711  0.6750 -0.1590
26900SOL    HW284103   6.940   7.030   2.581 -1.0911 -0.1044 -0.3982
26901SOL     OW84104   6.374   4.306   4.647 -0.8780  0.4107 -0.0772
26901SOL    HW184105   6.408   4.252   4.576 -1.0569  1.2172 -0.7959
26901SOL    HW284106   6.338   4.244   4.710 -2.4914 -0.2895 -1.6095
26902SOL     OW84107   6.991   6.187   9.602 -0.1942  0.5407  0.4669
26902SOL    HW184108   6.926   6.190   9.532 -0.8194  2.9791  1.0724
26902SOL    HW284109   6.990   6.274   9.641 -0.3954 -0.8326  3.9813
26903SOL     OW84110   3.438   5.090   0.376 -0.3228 -0.5755  0.3261
26903SOL    HW184111   3.493   5.051   0.444  0.6829 -0.2310 -0.2621
26903SOL    HW284112   3.487   5.073   0.295 -1.3303 -0.6786 -0.2700
26904SOL     OW84113   0.745   4.120   3.889 -0.0058 -0.6386  0.5410
26904SOL    HW184114   0.837   4.098   3.901  0.2211  0.5397  1.1329
26904SOL    HW284115   0.697   4.042   3.917  0.8146 -1.7695 -1.0669
26905SOL     OW84116   7.217   0.815   0.254 -0.3102 -0.4520  0.4319
26905SOL    HW184117   7.229   0.896   0.204 -0.2589 -1.1456 -0.7285
26905SOL    HW284118   7.226   0.842   0.345 -0.0278  0.8047  0.0623
26906SOL     OW84119   8.697   5.106   2.802 -0.2754  0.2395 -0.8154
26906SOL    HW184120   8.655   5.024   2.775 -2.6060  1.3052 -0.6444
26906SOL    HW284121   8.687   5.107   2.897 -0.7707  0.9712 -0.8715
26907SOL     OW84122   1.101   9.295   1.609 -0.0992  0.0533  0.3155
26907SOL    HW184123   1.112   9.389   1.625  1.5027 -0.4397  2.5708
26907SOL    HW284124   1.060   9.290   1.523 -0.6749  2.8261  0.3400
26908SOL     OW84125   2.493   4.437   9.620 -0.3356 -0.1639  0.2981
26908SOL    HW184126   2.573   4.465   9.576 -1.4318  0.5205 -1.3722
26908SOL    HW284127   2.493   4.341   9.610  1.2846 -0.4239  2.2162
26909SOL     OW84128   1.434   9.642   4.470 -0.3058  0.2316  0.7449
26909SOL    HW184129   1.342   9.650   4.445 -0.0101  1.8072  0.0784
26909SOL    HW284130   1.483   9.657   4.389  0.5680  0.4419  1.2979
26910SOL     OW84131   2.691   5.140   1.692  0.0709  0.5002  0.1379
26910SOL    HW184132   2.633   5.094   1.632  0.5306 -0.1860  0.2134
26910SOL    HW284133   2.632   5.182   1.755 -0.4084  1.1781 -0.7431
26911SOL     OW84134   1.517   2.341   2.953  0.4775  0.1417  0.6082
26911SOL    HW184135   1.510   2.416   2.895  1.3346 -0.3316 -0.1526
26911SOL    HW284136   1.610   2.316   2.948 -0.2228 -2.6115 -1.3631
26912SOL     OW84137   7.972   7.971  10.461  0.3314  0.7555 -0.0863
26912SOL    HW184138   7.990   7.961  10.368  2.7558  2.3015  0.1459
26912SOL    HW284139   7.882   8.004  10.465  0.0719  0.3458 -1.8331
26913SOL     OW84140   0.023   1.828   5.537  0.1607  0.1183  0.6424
26913SOL    HW184141  -0.009   1.739   5.520 -0.6724  0.3759  0.8178
26913SOL    HW284142  -0.056   1.881   5.545  0.6568  1.2018 -1.1041
26914SOL     OW84143   6.537   2.340   4.264 -0.4217 -0.2073  0.7654
26914SOL    HW184144   6.622   2.382   4.281 -0.3641  0.3280 -0.6872
26914SOL    HW284145   6.473   2.407   4.284 -0.3455  0.4956 -1.1741
26915SOL     OW84146   5.805   8.476   1.577  0.4422 -0.0845 -0.9275
26915SOL    HW184147   5.853   8.406   1.532 -2.0327 -2.0113 -0.8182
26915SOL    HW284148   5.720   8.478   1.533 -0.6730  0.6684  1.1325
26916SOL     OW84149   7.715   6.949   5.453 -0.0734  0.2188  0.0588
26916SOL    HW184150   7.729   7.018   5.388 -1.1036  1.5635  1.1899
26916SOL    HW284151   7.625   6.918   5.437 -0.4539  0.7811  1.0031
26917SOL     OW84152   5.287   3.916   3.684 -0.2170  0.1822  0.1149
26917SOL    HW184153   5.220   3.903   3.751  0.8397  0.8241  1.3419
26917SOL    HW284154   5.341   3.988   3.717  1.8138 -1.1112 -0.2287
26918SOL     OW84155   7.157   4.423  10.178  0.0494  0.3886  0.7760
26918SOL    HW184156   7.147   4.516  10.196  0.1911  0.5216  0.1725
26918SOL    HW284157   7.239   4.399  10.222  0.1306  0.5967  0.7395
26919SOL     OW84158   2.059   9.092   5.548  0.5241  0.2104  0.4654
26919SOL    HW184159   2.003   9.073   5.624 -1.3595  1.3252 -0.5825
26919SOL    HW284160   2.061   9.187   5.544 -0.4762  0.1855 -1.6022
26920SOL     OW84161   5.043   7.323   3.250  0.2104 -0.3757 -0.2301
26920SOL    HW184162   4.956   7.348   3.220  0.5155  0.1719 -0.6878
26920SOL    HW284163   5.066   7.389   3.315  0.7613  0.1937 -0.9809
26921SOL     OW84164   0.582   1.390   3.116  0.0551 -0.1969 -0.2256
26921SOL    HW184165   0.501   1.415   3.070  0.3631  0.8958 -0.1920
26921SOL    HW284166   0.589   1.453   3.188 -0.2065 -1.6444  1.1051
26922SOL     OW84167   1.160   1.247  10.615 -0.3003  0.1820  0.2232
26922SOL    HW184168   1.123   1.248  10.703 -0.3731  0.4243  0.1893
26922SOL    HW284169   1.235   1.187  10.621 -1.0574 -0.7989  0.1400
26923SOL     OW84170   6.823   4.943   4.489 -0.3328  0.0516  0.3362
26923SOL    HW184171   6.779   4.892   4.556  1.1849  0.6178  1.8628
26923SOL    HW284172   6.795   5.033   4.505  1.6683  0.5068  1.7028
26924SOL     OW84173   6.609   8.340   3.065 -0.1897  0.0265 -0.0361
26924SOL    HW184174   6.668   8.365   2.994 -0.5262 -0.9647 -0.6873
26924SOL    HW284175   6.651   8.375   3.144  0.9792 -0.1590 -0.5425
26925SOL     OW84176   7.030   4.868   9.003  0.2523 -0.1819  0.2589
26925SOL    HW184177   6.952   4.813   9.010 -0.6906  1.1238  0.3549
26925SOL    HW284178   7.015   4.922   8.925  0.1753  1.3912  1.3172
26926SOL     OW84179   2.291  10.499   3.676 -0.3387 -0.0329 -0.1725
26926SOL    HW184180   2.330  10.537   3.598 -1.6425  2.4865  0.3062
26926SOL    HW284181   2.364  10.457   3.721  0.9657  0.8525 -1.3932
26927SOL     OW84182   2.290   6.436   0.396  0.1654  0.0664  0.1671
26927SOL    HW184183   2.351   6.506   0.417 -0.5670  1.0501 -0.8530
26927SOL    HW284184   2.217   6.449   0.456 -0.0036  0.2319 -0.0719
26928SOL     OW84185   2.196   7.605   3.184 -0.0804  0.0363  0.0385
26928SOL    HW184186   2.111   7.561   3.193  0.0392 -0.3065 -0.4560
26928SOL    HW284187   2.180   7.694   3.216 -0.5096 -0.1539  0.3688
26929SOL     OW84188   9.913   7.093   9.987  0.0990 -0.0007 -0.0970
26929SOL    HW184189   9.926   7.039   9.909  0.2602 -0.9295  0.5611
26929SOL    HW284190   9.988   7.072  10.042  1.1548  2.2452 -0.5716
26930SOL     OW84191   0.763   1.039  10.061  0.1636 -0.4707 -0.0835
26930SOL    HW184192   0.706   1.009  10.132  1.1258 -0.3852  0.7559
26930SOL    HW284193   0.841   0.984  10.069 -0.0205 -0.9885 -1.5845
26931SOL     OW84194   5.611   6.351   9.571  0.4788 -0.1873 -0.1524
26931SOL    HW184195   5.628   6.261   9.597  2.5481 -0.0077 -0.7475
26931SOL    HW284196   5.541   6.380   9.630  1.5156 -1.3720  1.7553
26932SOL     OW84197   6.414   1.513   1.422  0.0392  0.1915 -0.2140
26932SOL    HW184198   6.477   1.491   1.491  1.0687  1.7761 -0.5915
26932SOL    HW284199   6.336   1.463   1.444  1.8891 -3.1891 -0.6145
26933SOL     OW84200   5.934  10.224   2.161  0.1265  0.0734 -0.0603
26933SOL    HW184201   5.969  10.219   2.250  0.3299 -1.4460 -0.2002
26933SOL    HW284202   5.875  10.300   2.163 -0.5604 -0.4422  1.6308
26934SOL     OW84203   2.690  10.199   0.529 -0.4786 -0.3724  0.1881
26934SOL    HW184204   2.675  10.264   0.598 -1.4847 -0.2380 -0.1280
26934SOL    HW284205   2.785  10.190   0.523 -0.0999  3.0841 -1.5750
26935SOL     OW84206   0.295   4.315   6.718  0.3618  0.3499  0.2492
26935SOL    HW184207   0.294   4.247   6.786 -0.5747  0.1686  0.0630
26935SOL    HW284208   0.207   4.315   6.683  0.8028  0.5349 -0.8925
26936SOL     OW84209   1.028   9.388   9.192 -0.1312  0.9097 -0.3209
26936SOL    HW184210   0.939   9.368   9.162 -0.3503 -0.5763  1.1840
26936SOL    HW284211   1.014   9.436   9.274  0.4326 -0.5043  0.6272
26937SOL     OW84212   2.671   6.378  10.808 -0.1501  0.2837  0.3209
26937SOL    HW184213   2.623   6.340  10.881  1.5488  0.4794  1.6050
26937SOL    HW284214   2.755   6.332  10.807 -0.6792 -0.8207 -2.5398
26938SOL     OW84215   2.496   5.705   3.766  0.6738  0.1152  0.2183
26938SOL    HW184216   2.473   5.795   3.741 -2.1553 -0.4781  0.4215
26938SOL    HW284217   2.414   5.657   3.763  1.9242 -2.2488  1.1970
26939SOL     OW84218   8.348  10.538   6.963  0.1969  0.4196 -0.1336
26939SOL    HW184219   8.345  10.588   7.044 -1.3973 -0.7698  0.5872
26939SOL    HW284220   8.257  10.529   6.937  0.7314  2.1559 -2.9945
26940SOL     OW84221   5.323   8.710   1.640 -0.0015  0.0149 -0.0597
26940SOL    HW184222   5.370   8.629   1.625  1.0962  0.8010 -1.0569
26940SOL    HW284223   5.391   8.777   1.644 -0.9685  1.0562 -0.5377
26941SOL     OW84224  10.585   6.494   6.877 -0.3318  0.1514 -0.7141
26941SOL    HW184225  10.504   6.543   6.890 -1.0976 -1.1009 -0.5907
26941SOL    HW284226  10.556   6.405   6.857  1.0166 -0.2849 -0.8268
26942SOL     OW84227   5.331   6.633   0.740  0.0594  0.3728  0.5451
26942SOL    HW184228   5.368   6.614   0.654  1.5341 -0.4860  1.3425
26942SOL    HW284229   5.296   6.549   0.771 -1.1285  0.8245  0.5044
26943SOL     OW84230   0.614   8.794   1.023  0.1940 -0.6345  0.4445
26943SOL    HW184231   0.652   8.869   1.069 -0.4613 -0.4419  0.6814
26943SOL    HW284232   0.587   8.734   1.093  0.6346 -1.0568  0.2589
26944SOL     OW84233   0.636   3.196   9.559 -0.7079 -0.7286  0.6626
26944SOL    HW184234   0.549   3.203   9.599 -0.5635 -0.3343  0.9020
26944SOL    HW284235   0.639   3.267   9.495  0.0179  0.2297  1.7375
26945SOL     OW84236   3.266   0.047   2.662  0.7383 -0.0252 -0.2417
26945SOL    HW184237   3.272   0.076   2.752 -0.3610  0.2355 -0.2370
26945SOL    HW284238   3.347  -0.002   2.647  0.2912 -1.3427  1.3366
26946SOL     OW84239   6.869   3.698   8.815 -0.1857 -0.9807  0.0399
26946SOL    HW184240   6.782   3.738   8.811 -1.8873 -4.0043  2.3054
26946SOL    HW284241   6.857   3.612   8.775  2.2246 -0.9506 -0.9113
26947SOL     OW84242   7.598   4.575   5.114  0.3289 -0.6276 -0.1229
26947SOL    HW184243   7.534   4.505   5.109 -0.1582 -0.2101  0.2096
26947SOL    HW284244   7.573   4.636   5.045  0.0106 -0.1743  0.3858
26948SOL     OW84245  10.591   1.893   9.772 -0.3880  0.0399 -0.4101
26948SOL    HW184246  10.662   1.832   9.753 -1.3250 -0.8549 -1.2090
26948SOL    HW284247  10.596   1.958   9.702 -0.9545 -0.6121 -1.0898
26949SOL     OW84248   7.385   5.939   3.592 -0.2135 -0.7753 -0.4913
26949SOL    HW184249   7.449   6.003   3.561  1.2020 -1.6734  0.4809
26949SOL    HW284250   7.309   5.992   3.617  0.1742  0.3279 -1.5286
26950SOL     OW84251   1.417   4.186   1.665 -0.6396 -0.5526 -0.0566
26950SOL    HW184252   1.339   4.174   1.719 -0.5055 -0.0425  0.2598
26950SOL    HW284253   1.401   4.132   1.587 -1.8798  0.5058 -0.5783
26951SOL     OW84254   6.127   9.714   8.978  0.1896  0.5026  0.2772
26951SOL    HW184255   6.084   9.716   8.893  0.1667 -0.1794  0.2653
26951SOL    HW284256   6.077   9.775   9.032 -1.0832 -0.6018  0.3966
26952SOL     OW84257   8.309  10.429   4.750 -0.3689  0.4725  0.4529
26952SOL    HW184258   8.333  10.521   4.737  0.1419  0.3235  0.3254
26952SOL    HW284259   8.218  10.424   4.719 -0.9561  1.2652  1.9486
26953SOL     OW84260   5.602   9.280   9.584  0.0883 -0.4723 -0.0615
26953SOL    HW184261   5.659   9.349   9.553  0.0729 -0.7724 -0.7787
26953SOL    HW284262   5.573   9.235   9.505 -1.7116  0.1051  0.2222
26954SOL     OW84263   8.773   3.819   0.722  0.0446 -0.0645 -0.0939
26954SOL    HW184264   8.813   3.826   0.809 -1.4001  0.4438  0.5612
26954SOL    HW284265   8.781   3.727   0.699  1.2350 -0.0506  0.1642
26955SOL     OW84266   8.717   6.682   0.484  0.2349  0.4023  0.2706
26955SOL    HW184267   8.622   6.669   0.479  0.2967  0.3382 -1.3157
26955SOL    HW284268   8.728   6.777   0.487  0.1316  0.4921 -1.2124
26956SOL     OW84269   9.092   3.849  10.287 -0.0588 -0.3662  0.1341
26956SOL    HW184270   9.001   3.831  10.263 -0.3707 -2.8143  2.6659
26956SOL    HW284271   9.134   3.763  10.290  1.9729  0.5707  0.4649
26957SOL     OW84272   9.196   9.877   4.463 -0.5094  0.2472 -0.3667
26957SOL    HW184273   9.152   9.819   4.525  1.3896 -2.7221 -1.5851
26957SOL    HW284274   9.274   9.906   4.509 -0.8448  0.8791 -0.1870
26958SOL     OW84275   4.046  10.180   9.697  0.0453 -0.0477 -0.1881
26958SOL    HW184276   4.019  10.122   9.768 -2.4407  1.2108  0.0142
26958SOL    HW284277   4.000  10.146   9.620 -0.5453  0.9462 -0.2930
26959SOL     OW84278   6.710   7.864  10.725  0.0978 -0.3505  0.6203
26959SOL    HW184279   6.751   7.800  10.782 -0.5641 -0.5961  0.8283
26959SOL    HW284280   6.640   7.902  10.777  1.1160  1.2987  0.8603
26960SOL     OW84281   5.610   8.268   1.414  0.0727 -0.2150 -0.5308
26960SOL    HW184282   5.692   8.227   1.386  0.6647  1.0005 -0.6221
26960SOL    HW284283   5.580   8.316   1.336 -1.3511 -1.5872 -0.8719
26961SOL     OW84284   9.909   5.673  10.509 -0.1035  0.1764 -0.2289
26961SOL    HW184285   9.972   5.603  10.494 -0.3855  0.0652 -0.9511
26961SOL    HW284286   9.857   5.643  10.584  0.0183 -0.2167 -0.3001
26962SOL     OW84287   1.739   0.753   4.661 -0.2184  0.5399 -0.2906
26962SOL    HW184288   1.662   0.802   4.690  0.9079  1.3354  1.5103
26962SOL    HW284289   1.809   0.782   4.718  1.1190 -1.2327 -0.9383
26963SOL     OW84290   4.554   0.256   1.984  0.2766 -0.1134  0.6082
26963SOL    HW184291   4.598   0.340   2.000  0.6504 -0.3681  0.9512
26963SOL    HW284292   4.517   0.232   2.069 -1.4829  0.6174  0.0838
26964SOL     OW84293   5.263   6.354   6.275  0.4178 -1.0336  0.2506
26964SOL    HW184294   5.210   6.321   6.347  0.1931 -0.3716  0.3951
26964SOL    HW284295   5.202   6.403   6.221  0.6931 -1.0797 -0.1059
26965SOL     OW84296   4.889  10.134   2.080 -0.1476 -0.4159 -0.2481
26965SOL    HW184297   4.811  10.188   2.086  0.2548  0.0748  0.9628
26965SOL    HW284298   4.856  10.044   2.084 -0.7752 -0.2856 -1.7256
26966SOL     OW84299   8.575   5.116   9.696  0.3285 -0.1693  0.2175
26966SOL    HW184300   8.621   5.079   9.771  0.6851 -1.6399 -0.6734
26966SOL    HW284301   8.521   5.187   9.732  2.5685  1.0121  1.4365
26967SOL     OW84302   8.254   9.154   3.774  0.0716 -0.0524 -0.1786
26967SOL    HW184303   8.232   9.076   3.825  1.7778 -0.6782 -0.3115
26967SOL    HW284304   8.213   9.226   3.821  0.3015 -0.7931  1.2191
26968SOL     OW84305   7.039   6.370   1.981 -0.0167  0.3227  0.5284
26968SOL    HW184306   7.080   6.291   2.016  2.1359  0.6643 -1.0479
26968SOL    HW284307   6.987   6.339   1.906 -2.7171 -0.0819  2.4034
26969SOL     OW84308   4.014   3.480   8.628 -0.0090 -0.4521 -0.2984
26969SOL    HW184309   3.929   3.436   8.622 -0.0921 -0.3342 -0.0228
26969SOL    HW284310   4.067   3.440   8.559 -0.3752 -0.3297 -0.6557
26970SOL     OW84311   7.035   1.776   8.464 -0.5429 -0.4508  0.0157
26970SOL    HW184312   7.007   1.777   8.372  0.4851 -0.6784 -0.3137
26970SOL    HW284313   7.032   1.684   8.490 -0.1002 -0.4790 -0.0268
26971SOL     OW84314   2.937   2.024   5.739  0.3715  0.2026 -0.0389
26971SOL    HW184315   3.018   2.053   5.697 -0.1133  1.4745 -0.1391
26971SOL    HW284316   2.909   2.099   5.791 -2.1148  0.7863 -2.0541
26972SOL     OW84317   9.490   7.408   0.362 -0.3711  0.3763  0.0075
26972SOL    HW184318   9.429   7.453   0.303 -0.2954 -1.7993 -1.8348
26972SOL    HW284319   9.576   7.428   0.326 -0.2102  0.5322  0.4811
26973SOL     OW84320   0.329   3.306   3.885 -0.3564 -0.4097 -0.8582
26973SOL    HW184321   0.392   3.358   3.835 -0.7784 -1.0807 -2.1393
26973SOL    HW284322   0.333   3.219   3.845 -0.2747 -1.1435  0.6948
26974SOL     OW84323   0.671   7.063   0.794 -0.4919  0.2004  0.1430
26974SOL    HW184324   0.686   7.154   0.768 -0.7635 -0.1371 -1.2561
26974SOL    HW284325   0.605   7.069   0.863 -0.8510  1.0378 -0.2542
26975SOL     OW84326   2.055   8.964   0.507 -0.2280  0.3396 -0.2089
26975SOL    HW184327   1.966   8.930   0.517 -0.4413  1.1352  0.6400
26975SOL    HW284328   2.075   8.950   0.414 -1.0017 -0.3919 -0.2811
26976SOL     OW84329   1.255   4.637  10.839 -0.1066 -0.0363 -0.0894
26976SOL    HW184330   1.235   4.595  10.755 -0.4176  0.5688 -0.3207
26976SOL    HW284331   1.288   4.565  10.894  0.4069 -0.3732 -0.8244
26977SOL     OW84332  10.661   5.124   2.348 -0.1336 -0.5934  0.1708
26977SOL    HW184333  10.616   5.040   2.350 -0.3035 -0.5324 -0.6340
26977SOL    HW284334  10.591   5.189   2.357  0.1019 -0.5281  1.9952
26978SOL     OW84335   4.753   3.337  10.185 -0.2127  0.1018 -0.1169
26978SOL    HW184336   4.820   3.403  10.168  0.9896 -1.1680 -0.4753
26978SOL    HW284337   4.678   3.367  10.133  0.9811  0.1462 -1.9078
26979SOL     OW84338   2.060   9.450   1.895 -0.3272  0.4939  0.5903
26979SOL    HW184339   2.103   9.472   1.812  0.6068  3.3199  1.6971
26979SOL    HW284340   2.025   9.362   1.881  2.4060 -0.3925 -1.7510
26980SOL     OW84341   6.412   8.115   1.037 -0.0648  0.3857  0.3439
26980SOL    HW184342   6.504   8.109   1.060  0.4187  4.3717  0.2134
26980SOL    HW284343   6.366   8.092   1.118  1.1504  0.8769  1.1974
26981SOL     OW84344   4.329   2.063   4.267 -0.1502 -0.2651 -0.7106
26981SOL    HW184345   4.247   2.026   4.300  0.5156 -1.2633 -0.1362
26981SOL    HW284346   4.380   2.082   4.346  0.8356 -1.2207 -1.0951
26982SOL     OW84347   8.155   6.529   6.340  0.1097 -0.2903  0.1677
26982SOL    HW184348   8.241   6.487   6.342  1.0144  1.0008 -3.5611
26982SOL    HW284349   8.143   6.562   6.429  3.9355  0.2830  0.6592
26983SOL     OW84350   1.311   2.816   7.455 -0.0929  0.2606 -0.1342
26983SOL    HW184351   1.395   2.840   7.494 -0.4494  0.8734  0.2640
26983SOL    HW284352   1.317   2.846   7.364  0.1425  0.2372 -0.1263
26984SOL     OW84353   0.373   6.860   0.054  0.4563  0.3879  0.2070
26984SOL    HW184354   0.278   6.865   0.044  0.2172 -2.3221  0.4716
26984SOL    HW284355   0.406   6.859  -0.036  0.2584  1.1248  0.1143
26985SOL     OW84356   3.002   7.731   1.968  0.0670 -0.5859  0.1453
26985SOL    HW184357   3.076   7.791   1.975 -0.3154  0.0598 -1.1375
26985SOL    HW284358   2.978   7.731   1.875 -0.3859 -2.1998  0.2167
26986SOL     OW84359   9.281   1.606   2.318  0.5021 -0.3507 -0.1233
26986SOL    HW184360   9.299   1.691   2.276  0.1052 -0.0353  0.3319
26986SOL    HW284361   9.334   1.607   2.398  1.0585 -0.8435 -0.4832
26987SOL     OW84362   6.765   9.688   3.781  0.2387  0.5353 -0.2618
26987SOL    HW184363   6.856   9.659   3.784  0.3610  0.9286 -0.0534
26987SOL    HW284364   6.738   9.690   3.873  0.1131  0.7029 -0.3024
26988SOL     OW84365   6.795   2.507   5.192  0.2614  0.6878 -0.0301
26988SOL    HW184366   6.734   2.570   5.231  0.7060  0.7638  0.5563
26988SOL    HW284367   6.770   2.504   5.099  0.6124  2.1805 -0.2036
26989SOL     OW84368   3.418   5.167   3.958  0.1497 -0.1921  0.3440
26989SOL    HW184369   3.438   5.225   3.885  1.0784  1.9485  2.1956
26989SOL    HW284370   3.369   5.094   3.918 -0.1309  1.2956 -2.2368
26990SOL     OW84371   5.685   9.783   3.340 -0.0043  0.0174  0.1954
26990SOL    HW184372   5.638   9.807   3.419  0.5715  0.1600  0.4940
26990SOL    HW284373   5.713   9.867   3.302  2.8384 -0.1215  1.7385
26991SOL     OW84374   1.384   8.073   4.759  0.0020  0.1331  0.1916
26991SOL    HW184375   1.332   8.041   4.833 -0.3389 -1.6121 -0.7489
26991SOL    HW284376   1.326   8.135   4.714 -1.2837 -1.6743 -0.7537
26992SOL     OW84377   7.198  10.904   6.140 -0.2399  0.2215 -0.0573
26992SOL    HW184378   7.168  10.814   6.123  1.2187  0.2105 -3.3786
26992SOL    HW284379   7.259  10.895   6.214  0.0581 -1.5982 -0.4593
26993SOL     OW84380   1.300   4.767   8.231  0.1185 -0.3249  0.1561
26993SOL    HW184381   1.326   4.689   8.281 -3.7368 -1.2317  1.0365
26993SOL    HW284382   1.373   4.781   8.170  1.7988 -3.4991  1.1910
26994SOL     OW84383   8.986   9.447   3.936  0.0022 -0.2755 -0.2734
26994SOL    HW184384   9.004   9.445   3.842  0.6161 -0.1536 -0.1682
26994SOL    HW284385   9.065   9.411   3.976  0.1186  0.5098  0.2345
26995SOL     OW84386   8.129  10.217  10.724 -0.2249 -0.9139  0.4634
26995SOL    HW184387   8.138  10.244  10.815 -0.1132 -1.9982  0.7942
26995SOL    HW284388   8.210  10.169  10.705 -0.6221 -1.4361  0.0684
26996SOL     OW84389   1.816   9.340   9.165  0.5750  0.6532  0.0862
26996SOL    HW184390   1.844   9.277   9.099  0.2639  0.5442  0.0600
26996SOL    HW284391   1.727   9.365   9.140  0.2373  0.1743  0.7800
26997SOL     OW84392  10.754   8.238   0.487  0.4501 -0.3621  0.0779
26997SOL    HW184393  10.713   8.323   0.500  1.0418 -0.3670  2.2325
26997SOL    HW284394  10.848   8.254   0.498  0.4498 -1.5614  2.5445
26998SOL     OW84395   8.307   6.934   6.105  0.2955 -0.0491 -0.0984
26998SOL    HW184396   8.308   6.987   6.026 -1.4907 -0.8287 -0.6875
26998SOL    HW284397   8.373   6.974   6.162 -1.1948  3.0478 -0.3478
26999SOL     OW84398   6.390   6.936   5.241 -0.5386  0.4967  0.1122
26999SOL    HW184399   6.338   6.856   5.233 -0.4248  0.3485  0.8002
26999SOL    HW284400   6.402   6.967   5.151  1.6421 -1.6736 -0.4455
27000SOL     OW84401   4.031   1.782   4.174 -0.0377 -0.1311 -0.3072
27000SOL    HW184402   3.956   1.738   4.215  0.7284 -0.8306  0.4002
27000SOL    HW284403   4.017   1.773   4.080 -1.1844  0.3604 -0.1930
27001SOL     OW84404   2.922   4.300   0.658  0.7115  0.9003 -0.2425
27001SOL    HW184405   2.998   4.357   0.658 -0.1470  2.1016 -1.1174
27001SOL    HW284406   2.847   4.360   0.661 -0.2544 -0.2578  3.3278
27002SOL     OW84407   9.494   0.886   4.869  0.3088 -0.4190 -0.1472
27002SOL    HW184408   9.525   0.874   4.959  1.0956  3.8855  0.3862
27002SOL    HW284409   9.403   0.911   4.878  1.0356  2.5534 -0.1774
27003SOL     OW84410   4.801   3.170   5.606  0.7139 -0.4832 -0.7575
27003SOL    HW184411   4.731   3.218   5.650  1.0643  0.6793 -1.4405
27003SOL    HW284412   4.849   3.128   5.677  0.8841  0.8326 -0.0735
27004SOL     OW84413   1.167   1.768   7.686  0.2304 -0.4974 -0.1368
27004SOL    HW184414   1.117   1.838   7.644  3.5045  2.1926 -0.0797
27004SOL    HW284415   1.116   1.689   7.672 -3.1956  1.6875 -1.2435
27005SOL     OW84416   1.100   8.921   5.675 -0.7333  0.0842  0.7401
27005SOL    HW184417   1.184   8.877   5.662 -0.1606  1.0075  1.1437
27005SOL    HW284418   1.081   8.962   5.591 -1.1770 -0.7699  0.4182
27006SOL     OW84419   6.417   4.720   7.398  0.4273  0.1923  0.0186
27006SOL    HW184420   6.358   4.699   7.325  0.6847  0.0892 -0.1608
27006SOL    HW284421   6.504   4.705   7.363  0.8360  3.8642 -0.9833
27007SOL     OW84422   5.851   5.787   5.012  0.1898  0.2704 -0.4606
27007SOL    HW184423   5.932   5.737   5.020  0.5651  0.7180 -1.3650
27007SOL    HW284424   5.822   5.774   4.922 -0.4021  0.6317 -0.3336
27008SOL     OW84425   3.666   5.505   4.245 -0.4095  0.0843  0.1478
27008SOL    HW184426   3.639   5.424   4.288 -0.0677 -0.9092 -1.4028
27008SOL    HW284427   3.597   5.522   4.181 -0.8361  1.4411  0.9250
27009SOL     OW84428   6.606   1.711   6.848  0.7759 -1.0314  0.7904
27009SOL    HW184429   6.649   1.742   6.928  1.9851 -1.1151  0.1919
27009SOL    HW284430   6.534   1.656   6.879 -1.5924  2.3837  1.9398
27010SOL     OW84431   3.545   2.651   2.193 -0.0221 -0.7719 -0.2014
27010SOL    HW184432   3.542   2.571   2.246 -0.8374 -0.5564  0.0924
27010SOL    HW284433   3.481   2.709   2.234  0.0576 -0.2297 -0.8327
27011SOL     OW84434   8.278   0.687  10.169 -0.3989  0.5092 -0.4693
27011SOL    HW184435   8.305   0.712  10.257  1.0872  0.0682 -0.7725
27011SOL    HW284436   8.298   0.593  10.163 -0.3128  0.5729 -1.3229
27012SOL     OW84437   8.610   6.317   4.478 -0.2850 -0.0366  0.3463
27012SOL    HW184438   8.697   6.333   4.515 -0.1906  0.1863  0.0297
27012SOL    HW284439   8.572   6.249   4.534  0.7896 -1.4479 -0.5675
27013SOL     OW84440   4.126   5.231   6.953 -0.1224 -0.1924  0.1789
27013SOL    HW184441   4.207   5.185   6.934  0.5708  0.5659  1.1888
27013SOL    HW284442   4.137   5.318   6.915 -0.9978 -0.4837 -0.7987
27014SOL     OW84443   0.672   1.411   7.494  0.0250  0.3815 -0.1769
27014SOL    HW184444   0.706   1.394   7.582  1.3266  1.3750 -0.4573
27014SOL    HW284445   0.596   1.352   7.486  1.6479 -1.9616  0.4927
27015SOL     OW84446   9.348  10.695   1.789 -0.0842 -0.5748 -0.5959
27015SOL    HW184447   9.423  10.658   1.835 -0.3016  0.2976  0.4875
27015SOL    HW284448   9.383  10.725   1.705  1.2054  1.4833  0.5983
27016SOL     OW84449   8.459  10.005   6.359  0.6774 -0.4501 -0.1105
27016SOL    HW184450   8.446  10.037   6.269 -1.9571  0.2157  0.4126
27016SOL    HW284451   8.473   9.911   6.349  1.1950 -0.2770 -1.2493
27017SOL     OW84452   5.808   3.713   3.658  0.1536 -0.0126  0.1553
27017SOL    HW184453   5.821   3.622   3.631 -0.5004  0.5842 -2.4037
27017SOL    HW284454   5.713   3.723   3.663  0.1027  1.0483 -1.8164
27018SOL     OW84455  10.549   5.260   8.972 -0.0250  0.4484  0.3314
27018SOL    HW184456  10.623   5.277   9.030 -0.9120  0.5813  1.4465
27018SOL    HW284457  10.508   5.181   9.008 -0.9900  0.9230  0.2879
27019SOL     OW84458   7.067   2.514   5.945 -0.3275 -0.0424  0.0992
27019SOL    HW184459   7.004   2.506   6.015 -1.1231  0.9797 -0.4705
27019SOL    HW284460   7.152   2.524   5.989 -0.8303  0.7292  0.9124
27020SOL     OW84461   6.667   1.737   8.174 -0.2904  0.2616 -0.8623
27020SOL    HW184462   6.662   1.821   8.128  1.0075  0.2971 -0.9801
27020SOL    HW284463   6.758   1.731   8.202 -1.1678  0.6203  2.4647
27021SOL     OW84464   8.029   2.735   1.224  0.2007  0.1506 -0.0709
27021SOL    HW184465   8.006   2.779   1.306  0.4290 -0.5232  0.3702
27021SOL    HW284466   7.988   2.649   1.232  1.7994 -0.6250  0.1883
27022SOL     OW84467   4.246   5.863   6.001 -0.4560  0.0500 -0.2869
27022SOL    HW184468   4.318   5.868   5.938  0.3349  1.8994  0.6680
27022SOL    HW284469   4.228   5.955   6.023 -2.9542 -0.3602 -0.2797
27023SOL     OW84470   6.812   4.499   3.231 -0.6142  0.3486  0.1942
27023SOL    HW184471   6.724   4.499   3.194 -1.1428 -3.2443  1.0935
27023SOL    HW284472   6.869   4.470   3.160 -0.7068 -0.5439  0.4667
27024SOL     OW84473   4.262  10.363   4.530  0.8857  0.4569  0.1513
27024SOL    HW184474   4.346  10.319   4.514  0.4796 -0.3171  0.0703
27024SOL    HW284475   4.252  10.361   4.626  0.9345  0.5015  0.1573
27025SOL     OW84476   7.897  10.400   1.150 -0.6413 -0.5713 -0.1307
27025SOL    HW184477   7.864  10.474   1.099 -1.0980 -1.2876 -0.8967
27025SOL    HW284478   7.979  10.376   1.106  0.0982  0.1654  0.7877
27026SOL     OW84479   1.550   1.001   0.909 -0.1185  0.2330 -0.3912
27026SOL    HW184480   1.539   0.929   0.847  0.9716  0.8544 -1.3633
27026SOL    HW284481   1.576   0.959   0.991 -0.5226 -0.5423 -0.6533
27027SOL     OW84482   6.896   6.842  10.286  0.4836  0.5760  0.0891
27027SOL    HW184483   6.828   6.788  10.247 -0.0903  0.5821  1.0319
27027SOL    HW284484   6.974   6.787  10.286 -0.0648 -0.2278  0.9278
27028SOL     OW84485  10.635   0.181   6.277 -0.3358  0.1517 -0.4407
27028SOL    HW184486  10.560   0.142   6.232  0.4486 -0.7727 -0.9914
27028SOL    HW284487  10.612   0.274   6.285 -2.1649 -0.3514  0.7361
27029SOL     OW84488   5.908  10.829   3.568  0.9077  0.5864  1.0149
27029SOL    HW184489   5.869  10.748   3.599  1.9945  0.0494  1.0223
27029SOL    HW284490   5.834  10.882   3.538  0.1646 -0.2816  1.2929
27030SOL     OW84491   4.017   7.779   5.395  0.0784 -0.3132 -0.3561
27030SOL    HW184492   3.975   7.697   5.422 -0.4796  0.3678  0.9672
27030SOL    HW284493   4.078   7.798   5.466 -0.6860  1.0334 -0.0267
27031SOL     OW84494  10.858   5.314   8.691 -0.2891  0.8310 -0.3314
27031SOL    HW184495  10.876   5.250   8.760 -1.3060 -0.8663 -1.5655
27031SOL    HW284496  10.826   5.392   8.738  1.3308  0.6206  1.2281
27032SOL     OW84497  10.684   8.757   6.920 -0.3957  0.3295 -0.1740
27032SOL    HW184498  10.664   8.787   6.831  1.4757  0.7123 -0.5003
27032SOL    HW284499  10.666   8.663   6.917 -2.7139  0.6959 -0.1997
27033SOL     OW84500   2.354   8.645   2.571 -0.4877 -0.8281  0.2337
27033SOL    HW184501   2.330   8.676   2.483  1.8066  1.7545  0.3836
27033SOL    HW284502   2.292   8.690   2.629 -2.0572 -2.5986  0.0026
27034SOL     OW84503   8.792   5.225   5.881  0.1290  0.0289  0.3703
27034SOL    HW184504   8.876   5.188   5.910 -0.0399  0.1098  0.9828
27034SOL    HW284505   8.784   5.197   5.790  1.7394  1.6704 -0.3244
27035SOL     OW84506   0.530   2.107   9.659  0.5240  0.3483  0.4188
27035SOL    HW184507   0.481   2.184   9.631 -0.7767 -0.8273 -0.6681
27035SOL    HW284508   0.608   2.107   9.604  1.1290  1.4859  1.2243
27036SOL     OW84509   1.783   9.726   7.183  0.0068  0.0224  0.3242
27036SOL    HW184510   1.704   9.721   7.130  0.6184 -1.8871 -0.4872
27036SOL    HW284511   1.773   9.654   7.246  1.3410 -0.6315 -0.1850
27037SOL     OW84512   4.536   1.934   0.953 -0.3124  0.1931  0.2087
27037SOL    HW184513   4.610   1.987   0.985  0.4660 -0.1544 -0.9426
27037SOL    HW284514   4.477   1.929   1.027  0.1286  1.7234  0.7199
27038SOL     OW84515  10.492   5.073   9.591 -0.6333  0.3800  0.3041
27038SOL    HW184516  10.488   5.114   9.504  0.9686  0.6848  0.3295
27038SOL    HW284517  10.586   5.059   9.606 -0.9097 -0.0187  1.8275
27039SOL     OW84518   5.835  10.033   9.826  0.2249 -0.2398  0.0865
27039SOL    HW184519   5.782  10.060   9.901 -1.3463  1.3080 -1.4713
27039SOL    HW284520   5.867  10.114   9.788  2.0172 -1.0607 -0.2548
27040SOL     OW84521   9.121   5.983   8.096  0.3186 -0.1843 -0.0201
27040SOL    HW184522   9.196   6.038   8.121  0.3196 -0.3410  0.3195
27040SOL    HW284523   9.097   6.015   8.009  0.2673  0.4151  0.2097
27041SOL     OW84524   0.750  10.698   4.310 -0.1564  0.1998 -0.1384
27041SOL    HW184525   0.737  10.608   4.338  0.3543  0.8139  2.3091
27041SOL    HW284526   0.845  10.711   4.315 -0.3755  1.4435  1.6411
27042SOL     OW84527   4.386   8.666   7.917 -0.2458 -0.3425 -0.1062
27042SOL    HW184528   4.379   8.570   7.911  1.9970 -0.7012  1.5771
27042SOL    HW284529   4.462   8.688   7.863 -1.2740  0.6457 -1.1937
27043SOL     OW84530   3.221   9.797   4.288  0.0931  0.2635 -0.6854
27043SOL    HW184531   3.146   9.783   4.230 -0.8586 -0.0776  0.5834
27043SOL    HW284532   3.192   9.762   4.372  1.3798  0.9049  0.0417
27044SOL     OW84533   3.756   0.094   6.102 -0.4832  0.3096 -0.2342
27044SOL    HW184534   3.791   0.170   6.150  0.3802 -0.1840 -0.0611
27044SOL    HW284535   3.676   0.127   6.061 -0.4042  1.1716  0.2704
27045SOL     OW84536   7.545   2.594   9.743  0.0438 -0.0404  0.0972
27045SOL    HW184537   7.584   2.640   9.669 -0.1428 -1.2385 -0.7757
27045SOL    HW284538   7.557   2.654   9.817  2.7427  0.0289 -0.2941
27046SOL     OW84539   7.621   6.196   2.809 -0.9317  0.2890 -0.1128
27046SOL    HW184540   7.541   6.168   2.765 -0.8791 -1.8753  1.0625
27046SOL    HW284541   7.593   6.271   2.862 -2.3443 -0.7950  0.7392
27047SOL     OW84542  10.064   7.707   3.611  0.2420 -0.5439 -0.0853
27047SOL    HW184543  10.086   7.760   3.535 -0.9004  1.0828  0.6688
27047SOL    HW284544   9.970   7.693   3.605  0.3387 -1.5203  0.3613
27048SOL     OW84545   6.350   2.298   6.282  0.3738  0.3952 -0.0753
27048SOL    HW184546   6.358   2.247   6.202 -0.7088 -0.5038  0.3517
27048SOL    HW284547   6.389   2.243   6.350  0.7593  0.8925  0.1075
27049SOL     OW84548   2.712   6.191  10.203  0.2396  0.4279 -0.0240
27049SOL    HW184549   2.662   6.228  10.275 -0.4487 -1.5082  0.5589
27049SOL    HW284550   2.683   6.240  10.126 -1.6628  0.2160  0.4956
27050SOL     OW84551   7.531   3.252   6.218 -0.0344 -0.4105 -0.6047
27050SOL    HW184552   7.561   3.276   6.306 -0.6151  0.3449 -0.5924
27050SOL    HW284553   7.481   3.171   6.231 -0.1077 -0.3108 -0.2363
27051SOL     OW84554   5.892   9.830   6.300 -0.3117  0.1449  0.8245
27051SOL    HW184555   5.825   9.772   6.266  0.3199  0.0368 -0.2652
27051SOL    HW284556   5.955   9.771   6.343  1.3417 -0.2824 -1.9267
27052SOL     OW84557   9.580  10.360   9.285 -0.2129 -0.2315  0.0900
27052SOL    HW184558   9.620  10.274   9.297 -0.5395 -0.6332 -1.4728
27052SOL    HW284559   9.562  10.391   9.374 -0.0339 -1.7504  0.6787
27053SOL     OW84560   9.444   0.532   6.092  0.3407 -0.1332  1.0852
27053SOL    HW184561   9.447   0.625   6.113  1.3793  0.2677 -0.6664
27053SOL    HW284562   9.527   0.497   6.124  0.7574 -0.0640  0.1067
27054SOL     OW84563   4.129   6.867   2.422 -0.0287 -0.2483 -0.0156
27054SOL    HW184564   4.122   6.846   2.515 -2.5948 -3.3192 -0.7159
27054SOL    HW284565   4.164   6.787   2.382  1.1164  1.0396 -1.7316
27055SOL     OW84566   0.459   6.797   1.416 -0.2170 -0.3679 -0.4252
27055SOL    HW184567   0.419   6.843   1.342  0.5346  0.9818 -0.0438
27055SOL    HW284568   0.390   6.741   1.450 -1.0449  0.1511 -1.2009
27056SOL     OW84569   8.201   1.881  10.684 -0.2798 -0.2323 -0.7349
27056SOL    HW184570   8.174   1.972  10.671 -1.7298 -0.5370 -0.0027
27056SOL    HW284571   8.187   1.864  10.777  0.5116 -1.0510 -0.7482
27057SOL     OW84572   7.187   3.608   4.580  0.4403 -0.0136 -0.0473
27057SOL    HW184573   7.221   3.519   4.571 -0.4593 -0.3556 -0.1072
27057SOL    HW284574   7.261   3.664   4.554  1.0133 -0.7310 -0.0117
27058SOL     OW84575   5.617   0.705   9.533 -0.2964 -0.6482 -0.6575
27058SOL    HW184576   5.567   0.640   9.484  1.6695 -1.3995 -1.8197
27058SOL    HW284577   5.634   0.775   9.470 -0.4923 -0.0596 -0.0693
27059SOL     OW84578   8.163   1.184   1.796 -0.5174 -0.2602  0.0534
27059SOL    HW184579   8.240   1.206   1.849 -0.4990 -0.2735  0.0326
27059SOL    HW284580   8.104   1.141   1.858 -0.5651 -0.1265  0.1010
27060SOL     OW84581   2.017   6.246   5.087 -0.8212 -0.1647 -0.0539
27060SOL    HW184582   1.948   6.276   5.028 -0.0416 -1.4108 -1.7050
27060SOL    HW284583   1.974   6.182   5.144 -1.7225  1.4924  1.2284
27061SOL     OW84584   3.027   5.506   3.842 -0.4700  0.3907  0.2412
27061SOL    HW184585   3.036   5.577   3.906 -0.6849  0.0979  0.5999
27061SOL    HW284586   2.936   5.512   3.812 -0.9616 -0.6969  1.4290
27062SOL     OW84587   8.100   8.488   1.981  0.6136  0.1484 -0.7405
27062SOL    HW184588   8.165   8.557   1.969  0.9608 -0.4171 -2.4422
27062SOL    HW284589   8.022   8.534   2.011  1.2302  1.1007 -0.5419
27063SOL     OW84590   6.562   2.300   9.026 -0.1810 -0.1329  0.2194
27063SOL    HW184591   6.562   2.205   9.012  0.3820 -0.4790  2.1981
27063SOL    HW284592   6.563   2.310   9.122 -0.5304  1.8761  0.0629
27064SOL     OW84593   4.251   1.821   5.775  0.0984  0.0719  0.4547
27064SOL    HW184594   4.220   1.747   5.722 -1.2343  0.3353  0.8166
27064SOL    HW284595   4.212   1.898   5.734 -0.4247  0.3368  1.4111
27065SOL     OW84596   3.801   8.006   0.376 -0.0789  0.3699 -0.0160
27065SOL    HW184597   3.809   7.934   0.439  0.1137 -0.1740 -0.6552
27065SOL    HW284598   3.883   8.054   0.384  0.7735 -0.8272 -1.2112
27066SOL     OW84599   5.058   0.029  10.744 -0.7010  0.3314 -0.0075
27066SOL    HW184600   5.059  -0.062  10.714 -0.8412  0.9488 -1.9875
27066SOL    HW284601   5.043   0.080  10.665  0.0250  2.1330  0.9773
27067SOL     OW84602   8.325   1.145  10.615 -0.5027  0.3121 -0.0496
27067SOL    HW184603   8.386   1.092  10.666  0.5373  1.9686  0.5196
27067SOL    HW284604   8.331   1.111  10.526  0.6624 -0.0757  0.1675
27068SOL     OW84605   2.703   7.579   4.594  0.2546 -0.4737  0.3953
27068SOL    HW184606   2.713   7.533   4.511 -1.0588 -2.1096  1.0809
27068SOL    HW284607   2.789   7.573   4.636  0.5289 -0.9347 -0.2239
27069SOL     OW84608   6.699   7.301  10.834 -0.6466 -0.5617 -0.0405
27069SOL    HW184609   6.756   7.259  10.770  0.1629  1.0976 -0.4664
27069SOL    HW284610   6.706   7.394  10.815 -2.7057 -0.2236  0.5906
27070SOL     OW84611   4.690   6.914   7.471  0.2525 -0.2754 -0.4476
27070SOL    HW184612   4.666   6.843   7.531  2.4889 -0.1913  0.6699
27070SOL    HW284613   4.755   6.965   7.519  1.1907  0.5621 -2.4809
27071SOL     OW84614   0.367   2.976   2.225 -0.1839  0.5981  0.7177
27071SOL    HW184615   0.463   2.975   2.231 -0.2366  1.0910  1.7888
27071SOL    HW284616   0.339   2.891   2.259 -0.1934  1.1167  2.0631
27072SOL     OW84617   6.171   1.857   6.349 -0.4917 -0.1347  0.2386
27072SOL    HW184618   6.154   1.951   6.352  1.1798  0.1938  0.3698
27072SOL    HW284619   6.226   1.840   6.425 -1.2510 -1.3350  0.5425
27073SOL     OW84620   4.637   8.207   1.901  0.0913 -0.0972  0.0255
27073SOL    HW184621   4.725   8.169   1.899 -0.0501 -0.4672  0.3990
27073SOL    HW284622   4.639   8.270   1.973  0.3086  0.5700 -0.5580
27074SOL     OW84623   0.813   7.357   4.040  0.0155  0.1674 -0.0814
27074SOL    HW184624   0.848   7.309   4.116  0.1301 -0.1477 -0.3330
27074SOL    HW284625   0.858   7.442   4.043 -0.1630  0.2493  0.3457
27075SOL     OW84626   9.272   6.057   0.673 -0.0385 -0.2270 -0.4167
27075SOL    HW184627   9.309   6.144   0.660  0.2608 -0.2327  0.3402
27075SOL    HW284628   9.179   6.066   0.651 -0.5234  0.8550  1.7843
27076SOL     OW84629   4.654  10.545   8.424  0.0615 -0.1087  0.3013
27076SOL    HW184630   4.682  10.606   8.493 -2.5330  0.7266  0.7163
27076SOL    HW284631   4.570  10.510   8.455  0.4423 -2.2997 -0.9274
27077SOL     OW84632   1.003   8.293   3.906  0.1306  0.1414  0.3589
27077SOL    HW184633   1.067   8.283   3.835 -0.1519  2.0189 -0.2141
27077SOL    HW284634   0.942   8.359   3.874  0.4694  1.6740  2.6526
27078SOL     OW84635   5.890   6.484   6.260  0.0411 -0.0819  0.0042
27078SOL    HW184636   5.912   6.426   6.188 -1.8667 -2.2956  1.0756
27078SOL    HW284637   5.911   6.435   6.339 -2.6165  0.1534  0.9665
27079SOL     OW84638   7.074  10.901   1.506 -0.2149  0.2088  0.3059
27079SOL    HW184639   6.986  10.864   1.505 -0.1083 -0.0425 -0.3294
27079SOL    HW284640   7.125  10.844   1.448  0.4791  0.0766  1.0365
27080SOL     OW84641   1.131   5.784   5.126 -0.3637 -0.5282  0.4597
27080SOL    HW184642   1.212   5.768   5.174 -0.2405 -1.8755 -0.1560
27080SOL    HW284643   1.080   5.842   5.183  1.5550  1.4920  0.2613
27081SOL     OW84644   2.779   7.832   3.032 -0.3638  0.0205  0.0722
27081SOL    HW184645   2.698   7.857   3.077 -0.2049  0.1461  0.2900
27081SOL    HW284646   2.750   7.780   2.957 -0.8533  2.1259 -1.3166
27082SOL     OW84647  10.850   7.838   5.819  0.1327  0.4771  0.2128
27082SOL    HW184648  10.856   7.748   5.849 -0.0649  0.4344  0.1198
27082SOL    HW284649  10.788   7.879   5.879 -1.4469  0.0188 -1.0510
27083SOL     OW84650   9.879   6.849   9.131 -0.3000 -0.3264 -0.1318
27083SOL    HW184651   9.783   6.841   9.126 -0.3155  0.3129 -1.3393
27083SOL    HW284652   9.902   6.898   9.052  1.0381 -0.5367  0.1182
27084SOL     OW84653   7.310   7.815   0.386  0.0871 -0.1399  0.1402
27084SOL    HW184654   7.336   7.837   0.296 -0.2852  0.5900  0.1987
27084SOL    HW284655   7.281   7.899   0.423 -0.3111 -0.5438  0.7539
27085SOL     OW84656   8.186   9.936   0.777  0.4284  0.0233 -0.1366
27085SOL    HW184657   8.124  10.001   0.810 -0.0965 -0.9573  0.8666
27085SOL    HW284658   8.182   9.864   0.840  2.9193  0.1093  0.1992
27086SOL     OW84659   1.855   3.011  10.776  0.2133 -0.2443 -0.5409
27086SOL    HW184660   1.839   3.106  10.770  1.5629  0.2075  1.7909
27086SOL    HW284661   1.768   2.973  10.790 -0.3164  0.6575 -1.2192
27087SOL     OW84662   0.266   1.976   1.173  0.1906  0.2904 -0.3355
27087SOL    HW184663   0.334   2.001   1.111 -1.2818  0.6923 -1.8976
27087SOL    HW284664   0.272   2.041   1.243  0.8152  0.8694 -0.9108
27088SOL     OW84665   9.259   4.988  10.197  0.2166 -0.3872  0.0949
27088SOL    HW184666   9.255   4.919  10.263  0.5885 -0.6770 -0.1890
27088SOL    HW284667   9.220   4.950  10.119 -2.5825  0.7344  0.7989
27089SOL     OW84668   8.769   3.886   8.181 -0.3376 -0.2407 -0.5888
27089SOL    HW184669   8.739   3.968   8.221 -0.8741 -0.6174 -0.2035
27089SOL    HW284670   8.834   3.913   8.116  0.4321  0.4014  0.4148
27090SOL     OW84671   5.363   8.235   5.577 -0.6745  0.6855  0.1672
27090SOL    HW184672   5.435   8.298   5.573  0.2064 -0.3196 -0.8174
27090SOL    HW284673   5.407   8.150   5.586 -1.7979  0.1403  0.6839
27091SOL     OW84674   5.426  10.073   4.536  0.6607 -0.1872 -0.2623
27091SOL    HW184675   5.364  10.131   4.494  0.7780  0.5078  0.4951
27091SOL    HW284676   5.511  10.097   4.500  0.8255  0.7468  0.6955
27092SOL     OW84677   7.780   3.224  10.392 -0.0516 -0.2817  0.2100
27092SOL    HW184678   7.856   3.166  10.401 -1.3258 -1.8309  1.7263
27092SOL    HW284679   7.766   3.258  10.480  0.2813  1.9137 -0.5325
27093SOL     OW84680   7.857   0.131   8.010  0.2101  0.3861 -0.6966
27093SOL    HW184681   7.798   0.064   8.044  0.9027 -0.4586 -1.1234
27093SOL    HW284682   7.911   0.155   8.085  1.3526 -1.0602 -1.0203
27094SOL     OW84683   9.885   1.458   7.141  0.2844  0.3996 -0.3107
27094SOL    HW184684   9.919   1.482   7.228 -0.0608  2.9160 -0.7900
27094SOL    HW284685   9.908   1.533   7.086  0.4533 -1.1274 -2.4133
27095SOL     OW84686   6.338   7.199   1.561 -0.6511  0.1436 -0.5487
27095SOL    HW184687   6.272   7.256   1.601 -0.6098  1.3878 -2.1185
27095SOL    HW284688   6.416   7.255   1.553  0.5256 -1.1921  0.9542
27096SOL     OW84689   2.158   9.107   3.993 -0.1544 -0.5364 -0.1190
27096SOL    HW184690   2.214   9.045   4.039  0.5327 -1.2481 -1.8427
27096SOL    HW284691   2.163   9.187   4.045  2.7381 -0.4678 -0.3608
27097SOL     OW84692   3.976   3.552   1.031  0.3099 -0.1584  0.1874
27097SOL    HW184693   4.044   3.521   0.972  0.9037  0.8974  0.3040
27097SOL    HW284694   3.951   3.474   1.081 -1.0364 -1.3756 -2.1863
27098SOL     OW84695  10.063   9.558   9.109  0.8101  0.3985 -0.0952
27098SOL    HW184696  10.036   9.474   9.146  2.4323  0.1014  0.4842
27098SOL    HW284697  10.008   9.569   9.031  0.4689 -1.1221 -0.1003
27099SOL     OW84698   4.587  10.157  10.741 -0.3865 -0.0670 -0.0711
27099SOL    HW184699   4.496  10.159  10.712 -0.6998 -0.1123  0.8685
27099SOL    HW284700   4.585  10.104  10.821  0.5749 -0.6281 -0.4037
27100SOL     OW84701   9.330   4.192   9.185  0.2481 -0.0350 -0.1723
27100SOL    HW184702   9.352   4.153   9.270 -1.0635  1.8161  1.1039
27100SOL    HW284703   9.273   4.128   9.143  0.1557 -0.5917  0.7683
27101SOL     OW84704   7.063   6.508   4.856 -0.0757 -0.1565 -0.5469
27101SOL    HW184705   7.020   6.539   4.776  1.6065  0.0093 -1.4352
27101SOL    HW284706   7.098   6.421   4.832 -1.7534 -1.2602  0.8336
27102SOL     OW84707   1.674   4.470   9.894  0.5204 -0.2784 -0.1073
27102SOL    HW184708   1.746   4.519   9.935  0.4079 -0.8733  0.8361
27102SOL    HW284709   1.600   4.482   9.954 -0.1504  0.2401 -1.0213
27103SOL     OW84710   0.386   9.094   8.942  0.3048  0.2526 -0.4728
27103SOL    HW184711   0.322   9.030   8.911 -0.0340  0.1326  0.4408
27103SOL    HW284712   0.406   9.067   9.032  1.6015  0.3253 -0.7130
27104SOL     OW84713   5.081  10.093  10.885  0.0595  0.2285 -0.0931
27104SOL    HW184714   5.158  10.085  10.828 -0.9409  1.5964 -1.7270
27104SOL    HW284715   5.013  10.130  10.829 -1.4782  0.1155  1.6025
27105SOL     OW84716   8.944  10.264   7.392 -0.2769  0.1277 -1.4203
27105SOL    HW184717   8.858  10.247   7.431  0.2240  1.0773  0.1875
27105SOL    HW284718   9.006  10.244   7.462  0.9353 -1.7406 -2.9251
27106SOL     OW84719   5.410   4.597   5.495  0.0784  0.2949 -0.1924
27106SOL    HW184720   5.485   4.539   5.507 -0.4888 -0.3068  0.5525
27106SOL    HW284721   5.401   4.604   5.400  1.6834  1.2116 -0.3217
27107SOL     OW84722   5.151   2.354  10.020 -0.2101  0.4103  0.2632
27107SOL    HW184723   5.170   2.286  10.084 -0.6821  0.9407  0.9763
27107SOL    HW284724   5.237   2.385   9.991  0.0044  0.0435  0.4957
27108SOL     OW84725   1.702   3.656   9.062  0.4357 -0.4913 -0.3540
27108SOL    HW184726   1.628   3.656   9.121 -0.8135  0.5790 -1.8161
27108SOL    HW284727   1.778   3.675   9.118 -0.6915  0.5516  0.8850
27109SOL     OW84728   7.867   9.224  10.118  0.0304  0.1274 -0.6999
27109SOL    HW184729   7.913   9.283  10.179  1.1164  0.4663 -1.7815
27109SOL    HW284730   7.936   9.167  10.084 -0.7355 -0.7202 -0.8563
27110SOL     OW84731   3.400   9.502   4.102 -0.7716 -0.2738  0.3954
27110SOL    HW184732   3.351   9.568   4.053 -0.8099  0.7009  1.6652
27110SOL    HW284733   3.382   9.419   4.058 -2.5715  0.2348  0.1189
27111SOL     OW84734   6.020   3.416   2.029 -0.2715  0.4189 -0.0508
27111SOL    HW184735   6.087   3.406   2.096 -0.4367  2.6692  0.5445
27111SOL    HW284736   5.997   3.509   2.032 -2.8550 -0.1046 -0.7827
27112SOL     OW84737   7.822   6.753   2.608 -1.1746  0.6912 -0.3049
27112SOL    HW184738   7.899   6.697   2.593  1.5753  4.3334 -1.2766
27112SOL    HW284739   7.750   6.706   2.566  0.4404 -2.7794  0.3573
27113SOL     OW84740   2.146   8.209   3.560  0.2480  0.1773 -0.2119
27113SOL    HW184741   2.147   8.299   3.528 -0.6805  0.6384  1.0075
27113SOL    HW284742   2.235   8.177   3.543  0.2275  0.8829 -1.8223
27114SOL     OW84743   7.614   0.903   6.885  0.3760  0.0847  0.6456
27114SOL    HW184744   7.635   0.900   6.791 -0.0679 -2.0206  0.5659
27114SOL    HW284745   7.651   0.822   6.921 -1.4389 -0.2822  1.8207
27115SOL     OW84746   0.157   2.374  10.066  0.4712 -0.0813 -0.5576
27115SOL    HW184747   0.088   2.423  10.022 -0.1539 -1.8299 -1.5955
27115SOL    HW284748   0.111   2.307  10.117  1.3545 -0.9305 -0.8370
27116SOL     OW84749   5.045   0.487   0.117  0.8574  0.4516  0.1864
27116SOL    HW184750   4.971   0.505   0.059 -0.5218 -0.3444  1.6186
27116SOL    HW284751   5.031   0.545   0.192  1.7832  0.4088  0.3995
27117SOL     OW84752   0.257   9.868   0.400 -0.0065 -0.3395 -0.0387
27117SOL    HW184753   0.193   9.939   0.398 -2.2731 -2.2681 -2.8490
27117SOL    HW284754   0.246   9.829   0.487 -2.5298 -0.4321 -0.3313
27118SOL     OW84755   1.513   0.646   4.437 -0.0075  0.4016 -0.4411
27118SOL    HW184756   1.474   0.669   4.521  1.6994  3.8118 -0.4038
27118SOL    HW284757   1.464   0.698   4.372 -0.2442 -0.9272 -1.3722
27119SOL     OW84758   2.941   0.382   4.199  0.4406 -0.4288 -0.1202
27119SOL    HW184759   3.018   0.333   4.227  0.3269  0.3011  1.5535
27119SOL    HW284760   2.867   0.332   4.233  0.1351 -1.0595 -1.6156
27120SOL     OW84761   9.195   9.891   3.306  0.1624  0.3104  0.2393
27120SOL    HW184762   9.284   9.922   3.315  0.6348 -1.4388  2.5901
27120SOL    HW284763   9.156   9.903   3.393 -1.7490  0.5898 -0.6061
27121SOL     OW84764   3.617   0.519   6.184  0.2156  0.4176 -0.5522
27121SOL    HW184765   3.562   0.447   6.217 -0.2348  1.9262  2.3298
27121SOL    HW284766   3.700   0.509   6.231 -0.2487  2.3476  0.7965
27122SOL     OW84767   6.503  10.495  10.806 -0.4765  0.8120 -0.4272
27122SOL    HW184768   6.415  10.507  10.842 -0.5209 -0.4500 -0.0574
27122SOL    HW284769   6.557  10.558  10.853 -1.0617  1.1295 -0.1701
27123SOL     OW84770   8.762   7.118  10.184 -0.2822  0.0967  0.2299
27123SOL    HW184771   8.760   7.208  10.218  0.7614  0.5151 -0.7461
27123SOL    HW284772   8.740   7.127  10.091 -3.3845 -1.0547  0.7511
27124SOL     OW84773   7.696   3.049   3.397 -0.0722  0.3100  0.0848
27124SOL    HW184774   7.694   2.956   3.421 -1.9136  0.3493  0.2241
27124SOL    HW284775   7.707   3.095   3.480  0.6821  0.2397  0.0329
27125SOL     OW84776   3.444   8.648  10.769 -0.4128  0.1606  0.0906
27125SOL    HW184777   3.507   8.712  10.804  0.0730 -0.7638  0.9631
27125SOL    HW284778   3.463   8.567  10.816 -0.2301 -0.9652 -1.8007
27126SOL     OW84779   7.346   4.551   2.278 -0.0535 -0.2480 -0.2631
27126SOL    HW184780   7.264   4.592   2.305 -0.0105  0.0721 -0.6071
27126SOL    HW284781   7.319   4.475   2.226 -0.1448 -1.3065  1.2759
27127SOL     OW84782   8.422   4.800   6.000  0.4547 -0.5507 -0.3425
27127SOL    HW184783   8.352   4.864   6.013 -0.7239 -1.0155 -3.4374
27127SOL    HW284784   8.501   4.844   6.031 -1.0363  0.1427  2.9367
27128SOL     OW84785   2.995   3.611   5.145 -1.3898  0.3878 -0.2491
27128SOL    HW184786   2.938   3.593   5.219  0.9147  0.3140  1.6503
27128SOL    HW284787   2.999   3.706   5.139 -0.4778  0.4336  0.7189
27129SOL     OW84788   9.270   8.285   5.150  0.8107 -0.4751 -0.3764
27129SOL    HW184789   9.357   8.247   5.149  0.4266 -1.3881  0.2167
27129SOL    HW284790   9.279   8.365   5.201  1.5800  0.1626 -1.4751
27130SOL     OW84791   3.708   4.436   9.824 -0.2614  0.7656 -0.3158
27130SOL    HW184792   3.717   4.508   9.886  1.1993  1.9541 -1.8009
27130SOL    HW284793   3.750   4.468   9.744 -0.3574 -1.4108 -1.3177
27131SOL     OW84794   8.736   2.051   4.527 -0.3856  0.1856 -0.0353
27131SOL    HW184795   8.729   1.963   4.564 -0.3960 -0.0994 -0.6992
27131SOL    HW284796   8.769   2.037   4.438 -1.2805  0.7926 -0.4718
27132SOL     OW84797   1.235   4.573   6.836 -0.3028 -0.1960  0.1750
27132SOL    HW184798   1.140   4.585   6.839 -0.4947 -1.1553 -1.0886
27132SOL    HW284799   1.255   4.561   6.743  1.1087  0.3213  0.3828
27133SOL     OW84800   2.782  10.891   4.695 -0.4592  0.3541 -0.3181
27133SOL    HW184801   2.734  10.948   4.753  1.0031  0.9735  0.3361
27133SOL    HW284802   2.814  10.948   4.625  1.3670  0.4738  0.5637
27134SOL     OW84803   6.767   7.833   3.074 -0.4802 -0.7796 -0.7005
27134SOL    HW184804   6.835   7.827   3.141 -1.6922 -1.7408  0.4851
27134SOL    HW284805   6.801   7.782   3.001 -0.2831 -1.9990  0.2143
27135SOL     OW84806   3.018   5.921   6.373  0.4539 -0.3841 -0.8449
27135SOL    HW184807   2.977   5.996   6.415  2.2324  0.1346  0.0468
27135SOL    HW284808   3.111   5.931   6.392  0.9349 -1.8633 -2.2316
27136SOL     OW84809   9.081   5.968  10.087  0.0431  0.4540  0.0825
27136SOL    HW184810   9.071   6.019  10.168 -0.7953  0.1928  0.1452
27136SOL    HW284811   9.114   6.031  10.023  1.5491  0.4824  0.8349
27137SOL     OW84812   0.190   3.736   5.680 -0.7590 -0.2867 -0.2850
27137SOL    HW184813   0.267   3.720   5.626 -1.2306  0.2282 -1.1220
27137SOL    HW284814   0.205   3.823   5.717  0.6093 -1.4754  2.2405
27138SOL     OW84815   7.357   2.165   0.141  0.0720 -0.2117 -0.2847
27138SOL    HW184816   7.406   2.089   0.176  0.8025 -0.1302 -1.0923
27138SOL    HW284817   7.355   2.151   0.047 -0.1051  0.5974 -0.4088
27139SOL     OW84818   5.375   0.397   3.469 -0.1175 -0.3838 -0.6074
27139SOL    HW184819   5.358   0.488   3.448 -0.9177 -0.2625  0.4652
27139SOL    HW284820   5.319   0.379   3.545  1.5339 -1.1750  0.4947
27140SOL     OW84821   8.439   3.764   1.902 -0.0042 -0.0771  0.0977
27140SOL    HW184822   8.424   3.857   1.921  0.5827 -0.2070  1.2890
27140SOL    HW284823   8.356   3.721   1.923  0.1299  0.0093  0.8338
27141SOL     OW84824   3.035   8.336   3.578 -0.9219 -0.1295 -0.2654
27141SOL    HW184825   3.119   8.379   3.597 -0.9210 -0.2402 -0.0135
27141SOL    HW284826   3.049   8.291   3.495 -0.4837 -0.7969  0.1580
27142SOL     OW84827   8.796   2.088   4.204  0.3169  0.4142  0.4641
27142SOL    HW184828   8.782   2.156   4.138  0.8281  0.7431  0.6895
27142SOL    HW284829   8.714   2.039   4.206  0.9333 -0.8334 -1.8024
27143SOL     OW84830  10.028   6.221   7.692  0.1167  0.1040 -0.1470
27143SOL    HW184831  10.017   6.296   7.634 -0.9142  0.5000  0.5241
27143SOL    HW284832   9.938   6.196   7.715  0.5022  0.3093  1.7061
27144SOL     OW84833   9.423   5.624   7.995 -0.4200 -0.0364  0.0844
27144SOL    HW184834   9.350   5.664   8.042 -0.4819 -0.8078  0.6802
27144SOL    HW284835   9.454   5.556   8.055 -0.2982 -0.8392 -0.8738
27145SOL     OW84836   2.056  10.168   2.710 -0.0863 -0.1443  0.3562
27145SOL    HW184837   2.049  10.118   2.629  1.2294  0.6337 -0.2799
27145SOL    HW284838   1.980  10.226   2.709 -0.5552 -0.7606  0.1184
27146SOL     OW84839   3.626   1.057   3.137 -0.0178  1.0192 -0.0415
27146SOL    HW184840   3.537   1.081   3.162  0.0584  0.7925  0.4652
27146SOL    HW284841   3.653   0.994   3.203  0.1584  0.3265 -0.7636
27147SOL     OW84842   5.141  10.541   2.567  0.5697  0.6786  0.6804
27147SOL    HW184843   5.168  10.623   2.610  1.0630  0.6505  0.4329
27147SOL    HW284844   5.219  10.513   2.519 -0.5275  1.7155 -1.8517
27148SOL     OW84845   4.970  10.583   2.355  0.1442 -0.0984  0.2776
27148SOL    HW184846   5.006  10.557   2.440 -0.5668 -3.0606 -0.2185
27148SOL    HW284847   5.020  10.531   2.291  0.1918  1.5495 -1.1097
27149SOL     OW84848  10.518   3.815   9.011 -0.3385  0.4638  0.4936
27149SOL    HW184849  10.423   3.822   9.027 -0.2363 -0.2084  1.5206
27149SOL    HW284850  10.541   3.897   8.968 -1.6698 -0.0287 -1.2508
27150SOL     OW84851   7.605   4.841   3.978 -0.2807  0.4849  0.1793
27150SOL    HW184852   7.634   4.856   4.068  0.3081 -1.8811  0.4515
27150SOL    HW284853   7.662   4.772   3.945 -2.7169 -1.2329 -0.7697
27151SOL     OW84854   7.911   4.909   0.816 -0.0535  0.4266 -0.1329
27151SOL    HW184855   7.921   4.973   0.745  2.4310  0.7195  0.3890
27151SOL    HW284856   7.905   4.962   0.896  0.6703  0.0623  0.1767
27152SOL     OW84857   4.811   3.706   5.850 -0.1188  0.1151 -0.2331
27152SOL    HW184858   4.773   3.650   5.917  1.4252 -0.9583 -0.1988
27152SOL    HW284859   4.753   3.696   5.775 -0.8500 -0.1189  0.3544
27153SOL     OW84860   0.726   6.876   5.135 -0.1748 -0.5144  0.4168
27153SOL    HW184861   0.757   6.826   5.211 -0.3229 -0.7046  0.3538
27153SOL    HW284862   0.709   6.810   5.068 -0.7579 -0.4190  0.4678
27154SOL     OW84863   7.104   4.660   1.342  0.3744  0.1529 -0.4222
27154SOL    HW184864   7.032   4.682   1.283  2.0998 -0.7709 -3.0086
27154SOL    HW284865   7.161   4.737   1.340  1.0160 -0.3235 -0.9197
27155SOL     OW84866   9.485   8.549   3.585 -0.3595 -0.1013 -0.2573
27155SOL    HW184867   9.480   8.498   3.504 -0.2982  0.1408 -0.4146
27155SOL    HW284868   9.397   8.585   3.596 -0.5772 -0.7496  0.1903
27156SOL     OW84869   6.838   1.126   0.334 -0.2922  0.8583 -0.8134
27156SOL    HW184870   6.810   1.155   0.247 -0.1498  0.3328 -1.0416
27156SOL    HW284871   6.867   1.036   0.320 -0.4975  0.6895 -0.1698
27157SOL     OW84872   4.947   5.551  10.755  0.3223 -0.3926  0.0135
27157SOL    HW184873   4.871   5.606  10.733  0.1698 -0.9975 -1.0062
27157SOL    HW284874   4.954   5.559  10.851  0.0187  1.0083 -0.0480
27158SOL     OW84875   4.398   3.266  10.114 -0.3319  0.3461 -0.6820
27158SOL    HW184876   4.339   3.328  10.155 -0.1694  0.0705 -0.0253
27158SOL    HW284877   4.482   3.313  10.107  0.2156 -0.2839  1.1958
27159SOL     OW84878   9.745   7.577   5.768 -0.2895 -0.2168  0.0285
27159SOL    HW184879   9.692   7.508   5.809 -0.5995  0.4735  0.8010
27159SOL    HW284880   9.830   7.571   5.812 -0.6089  0.4951  0.7627
27160SOL     OW84881   7.661   6.300   1.189  0.1520  0.0795  0.2755
27160SOL    HW184882   7.621   6.215   1.171  0.6802 -0.2758  0.7453
27160SOL    HW284883   7.755   6.283   1.186  0.2587  0.6289  0.4642
27161SOL     OW84884   7.137   5.792   9.245 -0.3078  0.0366 -0.6707
27161SOL    HW184885   7.047   5.763   9.228 -0.1664 -0.0471 -1.2885
27161SOL    HW284886   7.155   5.857   9.178 -0.3118  0.9345  0.1826
27162SOL     OW84887  10.257   8.354   5.625 -0.0299 -0.1534 -0.6430
27162SOL    HW184888  10.272   8.434   5.674  0.2376 -0.7195  0.2276
27162SOL    HW284889  10.209   8.297   5.686  2.4352 -1.8034 -0.0966
27163SOL     OW84890   6.734   3.532  10.686 -0.0373 -0.3423  0.5209
27163SOL    HW184891   6.669   3.475  10.726 -2.5421  2.0797  0.1673
27163SOL    HW284892   6.745   3.498  10.598  0.2951 -1.5955  1.0182
27164SOL     OW84893   5.181   2.960   6.969  0.4605  0.1063 -0.2066
27164SOL    HW184894   5.146   2.886   7.019  0.7385 -0.1719 -0.4250
27164SOL    HW284895   5.103   3.002   6.932  0.2630  0.2351  0.3524
27165SOL     OW84896   5.856   9.245   4.688  0.2557  0.1786  0.6533
27165SOL    HW184897   5.883   9.193   4.764 -0.4577 -1.9751 -0.4717
27165SOL    HW284898   5.889   9.196   4.613 -0.2356  1.5275 -0.4811
27166SOL     OW84899   2.067   4.042   7.591 -0.7420  0.0310 -0.3410
27166SOL    HW184900   2.006   3.981   7.551 -0.3826  0.1692 -1.1252
27166SOL    HW284901   2.142   4.043   7.532  1.0540 -1.8711  1.7323
27167SOL     OW84902   3.756   8.647   4.607 -0.1425  0.4865  0.5155
27167SOL    HW184903   3.741   8.617   4.517 -0.4733  0.7523  0.4816
27167SOL    HW284904   3.717   8.734   4.611  1.8768  1.4768  0.2684
27168SOL     OW84905   1.384   2.538   4.067 -0.3076  0.6187  0.9407
27168SOL    HW184906   1.309   2.480   4.053  1.4496 -1.4388 -0.9119
27168SOL    HW284907   1.420   2.552   3.980  1.5462  1.3787  1.7673
27169SOL     OW84908   3.716   4.716   7.694  0.2868  0.5982 -0.1994
27169SOL    HW184909   3.741   4.782   7.630 -1.5687 -0.2195 -1.8889
27169SOL    HW284910   3.789   4.654   7.696 -0.4586 -0.5319 -3.2687
27170SOL     OW84911   1.288   4.618   7.600  0.1676  0.3490 -0.7019
27170SOL    HW184912   1.343   4.589   7.673  1.0860  1.5630 -0.8851
27170SOL    HW284913   1.280   4.540   7.545  0.1792 -0.3459  0.2433
27171SOL     OW84914   1.979   3.988   2.938  0.1652  0.5946  0.0758
27171SOL    HW184915   2.036   4.055   2.974  0.2861  0.6106 -0.1409
27171SOL    HW284916   2.030   3.950   2.866  0.2026  0.0948  0.3635
27172SOL     OW84917   6.146   1.257   4.835 -0.2128 -0.3155  0.3699
27172SOL    HW184918   6.180   1.275   4.747  2.1901 -0.9510  1.0903
27172SOL    HW284919   6.064   1.305   4.839 -0.8314 -0.9520 -2.5113
27173SOL     OW84920   0.279   4.466   8.702 -0.0017 -0.0044 -0.1468
27173SOL    HW184921   0.305   4.536   8.761 -1.1559  0.3846 -0.0777
27173SOL    HW284922   0.210   4.504   8.648 -0.7740 -1.1393  0.0186
27174SOL     OW84923   0.744   6.740   4.524  0.5761  0.1954 -0.0100
27174SOL    HW184924   0.718   6.794   4.599  2.6447  0.0012  0.9264
27174SOL    HW284925   0.782   6.661   4.564  1.3819 -0.0761 -1.2672
27175SOL     OW84926   0.777   6.361   0.186 -0.0898  0.1893 -0.5059
27175SOL    HW184927   0.764   6.335   0.277 -0.6547 -0.3952 -0.7454
27175SOL    HW284928   0.689   6.374   0.152  0.0881 -0.3266 -1.1766
27176SOL     OW84929   3.414   1.775   0.108  0.2219  0.0592  0.0880
27176SOL    HW184930   3.405   1.870   0.115 -1.7889  0.0730 -1.5542
27176SOL    HW284931   3.417   1.743   0.198  1.0976  1.6695  0.6615
27177SOL     OW84932   3.998   4.029   3.816 -0.3874  0.4589 -0.2425
27177SOL    HW184933   4.038   3.968   3.754 -0.4137  1.1053 -0.9252
27177SOL    HW284934   3.946   4.088   3.761  0.0299  1.3968  0.3292
27178SOL     OW84935   6.411   5.930   1.668  0.3640 -0.2945  0.1915
27178SOL    HW184936   6.458   5.869   1.726  1.3243  0.6504  0.4462
27178SOL    HW284937   6.388   6.004   1.725  3.4152  1.7717 -1.0038
27179SOL     OW84938   4.805   2.421   2.214 -0.5747 -0.1039 -0.4396
27179SOL    HW184939   4.757   2.482   2.158 -2.5358 -0.4630  0.7455
27179SOL    HW284940   4.821   2.469   2.295 -0.8436 -0.6637 -0.0424
27180SOL     OW84941   9.264   7.247   5.058  0.1979  0.3191 -0.1876
27180SOL    HW184942   9.334   7.196   5.098  0.5323  0.5574 -0.4638
27180SOL    HW284943   9.185   7.219   5.104  0.4540 -0.0461  0.0374
27181SOL     OW84944  10.212   2.793   0.969 -0.2378 -0.4819 -0.2186
27181SOL    HW184945  10.141   2.828   1.023  0.1981  0.0850 -0.0024
27181SOL    HW284946  10.292   2.821   1.014  0.1399  0.2660 -1.3187
27182SOL     OW84947   4.323   9.727   8.313  0.4908  0.6118  0.6117
27182SOL    HW184948   4.332   9.632   8.310 -0.1115  0.5542  0.4078
27182SOL    HW284949   4.377   9.758   8.241  2.7630  0.6185  2.1985
27183SOL     OW84950   6.323   0.910  10.102 -0.1964 -0.1263  0.1908
27183SOL    HW184951   6.347   0.997  10.071 -2.6904  0.1893 -1.0859
27183SOL    HW284952   6.330   0.854  10.025 -1.0668 -0.5132  0.3783
27184SOL     OW84953   0.227   6.100   0.173 -0.2681  0.5291 -0.0285
27184SOL    HW184954   0.157   6.101   0.107 -1.4200  0.8464  1.1559
27184SOL    HW284955   0.189   6.055   0.248  1.2474 -0.4179  0.2089
27185SOL     OW84956   9.592   3.999   2.819 -0.2792  0.1283 -0.0733
27185SOL    HW184957   9.555   3.982   2.905 -0.1812  1.2685  0.2115
27185SOL    HW284958   9.593   3.914   2.776 -0.0126 -0.5151  1.1686
27186SOL     OW84959   8.298   8.214   2.989  0.0773 -0.4056 -0.3845
27186SOL    HW184960   8.302   8.278   3.060 -0.7615  0.7856 -1.3434
27186SOL    HW284961   8.233   8.150   3.018 -1.3457  0.8570 -0.6237
27187SOL     OW84962   9.308   6.931   4.487 -0.0615  0.0040 -0.0980
27187SOL    HW184963   9.227   6.981   4.476  0.9833  1.6305 -0.8192
27187SOL    HW284964   9.283   6.855   4.539 -1.9695  0.6569  0.0012
27188SOL     OW84965   2.667   1.591   1.973  0.0574 -0.0603 -0.0999
27188SOL    HW184966   2.632   1.508   1.940  0.2772  0.3126 -1.3124
27188SOL    HW284967   2.759   1.573   1.988  0.0762 -0.0735 -0.2290
27189SOL     OW84968   6.674   4.525   1.234 -0.3363 -0.9040  0.3819
27189SOL    HW184969   6.747   4.465   1.218 -0.6370 -1.2491  0.2862
27189SOL    HW284970   6.689   4.558   1.323 -0.1010 -1.0279  0.3882
27190SOL     OW84971   2.351   9.325   6.060 -0.2065 -0.0166 -1.0953
27190SOL    HW184972   2.397   9.267   6.121  0.6969 -0.0598 -1.7989
27190SOL    HW284973   2.387   9.412   6.078 -1.1542  0.2559 -0.4302
27191SOL     OW84974   2.747   5.278   9.632 -0.7695  0.0832  0.0834
27191SOL    HW184975   2.722   5.367   9.656  0.0831 -0.1465  2.0892
27191SOL    HW284976   2.685   5.222   9.680  1.8031 -0.4250  3.2221
27192SOL     OW84977   2.397   3.988   8.946 -0.4223 -0.3419  0.2199
27192SOL    HW184978   2.446   3.920   8.990  0.0814 -0.8068 -0.9993
27192SOL    HW284979   2.427   3.985   8.855 -0.8286  1.0939 -0.0046
27193SOL     OW84980   3.268   7.867  10.716 -0.2565  0.1386 -0.2379
27193SOL    HW184981   3.312   7.952  10.716  0.5438 -0.2434  1.3433
27193SOL    HW284982   3.185   7.883  10.672  0.4186  1.4404 -1.0928
27194SOL     OW84983   0.313   8.917  10.491  0.0794  0.0159  0.1833
27194SOL    HW184984   0.378   8.977  10.526 -0.5971  0.8932 -0.0092
27194SOL    HW284985   0.229   8.951  10.523 -0.2659 -1.3927  0.8765
27195SOL     OW84986   9.357   1.577   4.101 -0.6667 -0.0706 -0.4634
27195SOL    HW184987   9.443   1.578   4.142 -0.9411  1.1328  0.1238
27195SOL    HW284988   9.375   1.591   4.008 -0.1164 -1.7903 -0.6435
27196SOL     OW84989   5.614   9.313   0.955  0.1438 -0.0275 -0.0346
27196SOL    HW184990   5.541   9.253   0.971 -0.0482  0.3818  0.6922
27196SOL    HW284991   5.670   9.304   1.033 -0.9104  2.1819  1.0614
27197SOL     OW84992   1.912   0.520  10.264 -0.3043  0.5812  0.1313
27197SOL    HW184993   1.981   0.533  10.329  0.9228  2.4221 -1.3911
27197SOL    HW284994   1.868   0.605  10.259 -2.8913 -0.6110  1.2067
27198SOL     OW84995   9.022   5.016   3.237  0.1355  0.4629  0.0264
27198SOL    HW184996   9.093   4.955   3.255  0.9684  0.9726 -1.3541
27198SOL    HW284997   8.944   4.960   3.230  0.3401 -0.0833  1.7068
27199SOL     OW84998   0.445   8.973   6.622  0.0578 -0.6219 -0.1113
27199SOL    HW184999   0.372   8.982   6.560  0.1060 -2.1712 -0.4420
27199SOL    HW285000   0.449   9.057   6.667 -0.1455  0.4808 -2.0261
27200SOL     OW85001  10.490   1.571   3.522 -0.0711  0.6014 -0.3578
27200SOL    HW185002  10.545   1.649   3.512  0.7700 -0.0561 -1.0335
27200SOL    HW285003  10.445   1.562   3.439  1.2822 -0.6778 -1.0046
27201SOL     OW85004   4.358   3.273   6.371 -0.0035  0.0895 -0.0581
27201SOL    HW185005   4.270   3.237   6.362  0.5189 -1.8578  1.8717
27201SOL    HW285006   4.364   3.300   6.462  1.3448  0.2926 -0.1863
27202SOL     OW85007  10.216  10.645   9.285  0.8682  0.2145 -0.0008
27202SOL    HW185008  10.183  10.604   9.366  1.0290 -0.3086 -0.1966
27202SOL    HW285009  10.137  10.664   9.235  0.6060  2.4078  1.1294
27203SOL     OW85010   9.340  10.355   7.114 -0.2983  0.5394  0.0512
27203SOL    HW185011   9.271  10.377   7.176 -0.7000  1.4998 -0.7196
27203SOL    HW285012   9.299  10.366   7.028  0.5629  0.2668 -0.4029
27204SOL     OW85013   5.208   1.427  10.171 -0.4341 -0.0834  0.0849
27204SOL    HW185014   5.131   1.404  10.224  0.9689 -1.5310  1.6051
27204SOL    HW285015   5.176   1.423  10.081 -1.8510 -1.9986  0.5951
27205SOL     OW85016   5.393   9.423   6.786  0.4293 -0.4680 -0.0976
27205SOL    HW185017   5.395   9.512   6.753 -2.1492  0.1802  1.1891
27205SOL    HW285018   5.455   9.422   6.859 -0.1477  0.5493  0.4251
27206SOL     OW85019   2.367   0.418   0.223 -0.4793 -0.2589 -0.4080
27206SOL    HW185020   2.327   0.360   0.287 -0.6809 -0.9894 -1.1731
27206SOL    HW285021   2.443   0.455   0.268 -1.0341 -0.2031  0.4793
27207SOL     OW85022   9.327   5.291   5.491  0.1217  0.3718 -0.2646
27207SOL    HW185023   9.250   5.305   5.547 -1.0133  1.7711 -2.0633
27207SOL    HW285024   9.293   5.243   5.415  1.4441 -0.6838 -0.2170
27208SOL     OW85025   6.754   7.563   0.231  0.0576 -0.0306  0.3324
27208SOL    HW185026   6.677   7.524   0.272 -0.1804 -0.4788 -0.5140
27208SOL    HW285027   6.815   7.490   0.220  0.5838  0.3122  0.9413
27209SOL     OW85028   8.011   4.208   3.287 -0.6153  0.2531 -0.4339
27209SOL    HW185029   8.003   4.132   3.229 -0.7099 -0.2905  0.2768
27209SOL    HW285030   7.927   4.213   3.333 -0.3146  0.2723  0.1323
27210SOL     OW85031   9.298   8.668   0.545  0.0136 -0.1879 -0.4723
27210SOL    HW185032   9.240   8.742   0.563  1.1411  0.3217  1.4169
27210SOL    HW285033   9.240   8.597   0.519 -1.4287  0.4001  0.9830
27211SOL     OW85034   7.025   4.656   9.415 -0.0813 -0.0268  0.2420
27211SOL    HW185035   7.002   4.721   9.482  1.6709 -0.3395  1.2057
27211SOL    HW285036   6.941   4.617   9.390 -1.0352  1.7085  0.5469
27212SOL     OW85037   9.129   4.024   9.549 -0.3800 -0.4278 -0.1770
27212SOL    HW185038   9.145   4.044   9.642 -1.3837 -2.4093  0.4782
27212SOL    HW285039   9.103   4.108   9.512  1.0207  0.6201  1.0946
27213SOL     OW85040   4.904   9.417   9.746 -0.0802 -0.1763  0.0608
27213SOL    HW185041   4.903   9.445   9.837 -2.5965  2.7425 -0.7244
27213SOL    HW285042   4.824   9.366   9.735 -0.2520  0.2405 -0.7085
27214SOL     OW85043   9.580   3.792   6.085 -0.2995  0.1996 -0.3546
27214SOL    HW185044   9.671   3.794   6.115 -0.2894 -1.1605 -0.2417
27214SOL    HW285045   9.570   3.872   6.033  1.0218  0.2593 -0.5476
27215SOL     OW85046   6.254   8.780   9.001  0.2170 -0.0426 -0.0370
27215SOL    HW185047   6.220   8.690   9.001 -2.5543  0.8793 -1.7476
27215SOL    HW285048   6.213   8.821   9.077  1.3378 -0.1156  0.6362
27216SOL     OW85049   9.216   1.220   0.651  0.2114 -0.3643  0.0892
27216SOL    HW185050   9.290   1.277   0.673 -0.1051  0.0131  0.1821
27216SOL    HW285051   9.204   1.166   0.729 -1.0951  1.1673  1.0110
27217SOL     OW85052   0.618   3.736   4.823 -0.2716  0.0428  0.0343
27217SOL    HW185053   0.649   3.646   4.816  1.9336  0.7560 -0.0084
27217SOL    HW285054   0.608   3.765   4.733 -1.3940 -0.2548  0.0441
27218SOL     OW85055  10.393  10.069  10.804 -0.3803  0.2121  0.2090
27218SOL    HW185056  10.368  10.129  10.874 -1.0717 -0.0339  0.1779
27218SOL    HW285057  10.313  10.021  10.784 -0.5580  1.2540 -1.7308
27219SOL     OW85058   9.108   9.830   1.046  0.1117  1.3016 -0.5379
27219SOL    HW185059   9.200   9.810   1.064 -0.2041 -0.1233 -0.3537
27219SOL    HW285060   9.087   9.777   0.970 -0.9360  0.4441  0.3133
27220SOL     OW85061   2.828   7.400  10.121 -0.1523  0.0956  0.4180
27220SOL    HW185062   2.774   7.323  10.102 -2.3869  1.8123 -0.6514
27220SOL    HW285063   2.848   7.437  10.035 -1.2285  2.0399  0.9445
27221SOL     OW85064   5.223   1.444   4.819 -0.6201  0.6440  0.8536
27221SOL    HW185065   5.175   1.518   4.857 -0.2291  1.9641 -1.0749
27221SOL    HW285066   5.299   1.483   4.777 -0.3875 -0.8530 -0.2151
27222SOL     OW85067   2.167   3.085   7.980  0.0632 -0.4567 -0.2721
27222SOL    HW185068   2.165   3.142   7.904  0.2992 -1.3855 -0.9877
27222SOL    HW285069   2.257   3.091   8.012 -0.6427  2.0172  1.5956
27223SOL     OW85070   4.350   2.764   3.287 -0.5441 -0.5298  0.0630
27223SOL    HW185071   4.370   2.754   3.380 -1.4019  0.6653  0.3936
27223SOL    HW285072   4.416   2.711   3.243  1.2157  0.5783  1.2545
27224SOL     OW85073   5.706   1.942  10.123 -0.1932 -0.5151 -0.2990
27224SOL    HW185074   5.669   2.029  10.113 -1.7422 -1.0995  0.1497
27224SOL    HW285075   5.640   1.892  10.171  0.4339 -2.0905 -0.9862
27225SOL     OW85076   4.250   4.477   4.994 -0.5060  0.1555  0.1442
27225SOL    HW185077   4.284   4.556   4.952  0.7845  0.7596  2.1558
27225SOL    HW285078   4.159   4.471   4.963 -0.0380  1.2756 -1.5927
27226SOL     OW85079   2.442   0.772   8.517  0.4005 -0.3325  0.3498
27226SOL    HW185080   2.389   0.803   8.443 -0.2328 -1.0060  0.5054
27226SOL    HW285081   2.414   0.828   8.590 -2.6578 -2.7941  1.2707
27227SOL     OW85082   5.871   6.003   9.803 -0.1923  0.5824 -0.0621
27227SOL    HW185083   5.887   5.913   9.775 -0.1498  1.4362 -3.2869
27227SOL    HW285084   5.955   6.047   9.792 -1.1074  1.8970 -3.0128
27228SOL     OW85085   9.476  10.184   0.162 -0.6929  0.1074 -0.4316
27228SOL    HW185086   9.465  10.090   0.178 -0.9677 -0.0006 -1.2189
27228SOL    HW285087   9.414  10.226   0.221 -0.3956 -0.1919  0.0978
27229SOL     OW85088   9.475   2.262   4.071  0.3187  0.0159  0.0121
27229SOL    HW185089   9.413   2.316   4.120  1.4035  0.7456  0.6177
27229SOL    HW285090   9.421   2.213   4.009 -0.8875  0.3829  0.7535
27230SOL     OW85091  10.716   3.643   0.606 -0.1125  0.3307  0.2479
27230SOL    HW185092  10.767   3.722   0.590 -0.5974  0.3069 -1.6522
27230SOL    HW285093  10.630   3.662   0.569 -0.1246 -1.1815 -0.6046
27231SOL     OW85094   2.872   3.026   0.953 -0.1542 -0.0387 -0.1833
27231SOL    HW185095   2.822   3.049   0.875  1.2938  0.8756 -0.8932
27231SOL    HW285096   2.846   2.936   0.974 -2.0732  0.4180 -0.4851
27232SOL     OW85097   9.770   9.304   0.544 -0.0450  0.5837 -0.1444
27232SOL    HW185098   9.856   9.277   0.512 -0.5558 -0.9476 -0.3151
27232SOL    HW285099   9.777   9.399   0.555  1.1192  0.7384 -1.8172
27233SOL     OW85100   0.370   5.963   0.931 -0.3963  0.6534  0.1803
27233SOL    HW185101   0.465   5.962   0.919 -0.3793 -0.9705  0.2702
27233SOL    HW285102   0.357   5.980   1.025 -0.1070 -1.1231  0.5772
27234SOL     OW85103  10.233   4.500   2.059 -0.2562 -1.0361  0.1987
27234SOL    HW185104  10.166   4.437   2.033 -1.9595  1.9261 -3.4227
27234SOL    HW285105  10.299   4.495   1.989 -0.3178  0.9757 -0.0497
27235SOL     OW85106   8.361   6.459   0.936  0.1015  0.1805  0.0503
27235SOL    HW185107   8.274   6.493   0.958  0.1966  0.7570 -0.4424
27235SOL    HW285108   8.370   6.476   0.843  0.8273  0.3130  0.1415
27236SOL     OW85109   3.845   2.320   0.580 -0.4472 -0.5605 -0.2369
27236SOL    HW185110   3.763   2.368   0.584 -0.0752  0.1959 -1.2030
27236SOL    HW285111   3.903   2.366   0.640 -0.5846 -0.8003  0.0793
27237SOL     OW85112  10.071   1.751  10.478 -0.1629 -0.0407  0.2365
27237SOL    HW185113  10.078   1.659  10.453 -2.7058 -0.6086  1.2783
27237SOL    HW285114  10.141   1.794  10.430 -0.4083 -2.1424 -2.2240
27238SOL     OW85115   2.225   5.027   9.348 -0.1852  0.2230 -0.2282
27238SOL    HW185116   2.263   4.981   9.273 -0.0205 -0.4045  0.2324
27238SOL    HW285117   2.137   5.052   9.320 -0.0952  0.0567 -0.6582
27239SOL     OW85118   7.428   6.896   1.891  0.1415  0.1190 -0.2978
27239SOL    HW185119   7.456   6.888   1.800 -0.8719 -0.3640 -0.5808
27239SOL    HW285120   7.414   6.990   1.903 -0.1963  0.1382 -0.7973
27240SOL     OW85121   3.055   3.802   6.746 -0.1880  0.8429  0.1779
27240SOL    HW185122   3.005   3.841   6.819  0.5921  0.1039  1.1430
27240SOL    HW285123   3.118   3.870   6.721 -0.7658  1.2754 -0.1367
27241SOL     OW85124   2.736   9.194   2.408  0.5214 -0.3299 -0.2921
27241SOL    HW185125   2.788   9.230   2.479 -1.3126  3.0190 -0.4652
27241SOL    HW285126   2.771   9.235   2.329 -0.2413 -0.6329 -0.8000
27242SOL     OW85127   6.187   1.795   2.484  0.1384  0.5531  0.2669
27242SOL    HW185128   6.202   1.702   2.466  1.6344  0.5902  1.1672
27242SOL    HW285129   6.219   1.840   2.406 -0.5022  0.3316 -0.1327
27243SOL     OW85130   1.856   1.808   5.164 -0.2644  0.2633 -0.2051
27243SOL    HW185131   1.916   1.767   5.101 -0.2963  0.1071 -0.1336
27243SOL    HW285132   1.777   1.755   5.159  0.8656 -1.9054  2.4555
27244SOL     OW85133   2.391   4.195   2.967 -0.3221 -0.2094 -0.6576
27244SOL    HW185134   2.354   4.150   2.890 -3.2469 -2.1529  1.6485
27244SOL    HW285135   2.476   4.153   2.981 -1.3308 -2.4775 -0.8022
27245SOL     OW85136  10.428   5.708   3.079  0.5911 -0.0790  0.1165
27245SOL    HW185137  10.389   5.623   3.058 -0.1816  0.1105  0.7463
27245SOL    HW285138  10.499   5.687   3.140 -0.1059 -0.2054  0.8934
27246SOL     OW85139   3.561   0.061   3.926  0.1238  0.1118 -0.6431
27246SOL    HW185140   3.568   0.131   3.991  0.3205  0.4213 -0.9949
27246SOL    HW285141   3.641   0.010   3.936  0.3378  0.3934 -0.9096
27247SOL     OW85142   2.643   0.594  10.239 -0.6182  1.0317 -0.0952
27247SOL    HW185143   2.708   0.555  10.181  0.4828  1.6904  0.6772
27247SOL    HW285144   2.567   0.609  10.183 -0.1341  0.2079 -0.9963
27248SOL     OW85145   0.766   4.578   1.779  0.3611  0.2362  0.6255
27248SOL    HW185146   0.786   4.662   1.820  1.1524  0.0674  0.6075
27248SOL    HW285147   0.715   4.600   1.701 -1.8742  0.5125  2.0680
27249SOL     OW85148   9.078   3.173   9.615  0.0463 -0.2403  0.5725
27249SOL    HW185149   9.093   3.128   9.532  1.1628  0.2307  0.5073
27249SOL    HW285150   9.053   3.262   9.589  0.2460 -0.1360  0.7399
27250SOL     OW85151   8.967   8.613   4.825  0.0932 -0.1232 -0.1991
27250SOL    HW185152   8.886   8.579   4.863  1.4451  0.2451  3.3883
27250SOL    HW285153   9.031   8.543   4.839  1.7874  1.8604  2.9254
27251SOL     OW85154   7.043   7.411   1.208  0.0510  0.2765  0.2101
27251SOL    HW185155   7.067   7.343   1.271  1.0123 -1.6780 -2.1221
27251SOL    HW285156   7.122   7.428   1.158 -0.6562  1.8478 -0.4674
27252SOL     OW85157   8.754   9.127   1.342 -0.7299  0.3038 -0.1699
27252SOL    HW185158   8.675   9.178   1.361 -0.8776 -0.1248  0.3963
27252SOL    HW285159   8.732   9.038   1.368 -1.1006 -0.4525 -2.8126
27253SOL     OW85160   3.642   4.088   1.352  0.2909 -0.6001 -0.2294
27253SOL    HW185161   3.639   4.003   1.308 -0.4119 -0.1148 -1.1515
27253SOL    HW285162   3.552   4.121   1.346  0.6029  0.3109 -0.0833
27254SOL     OW85163   2.650   8.393   9.275  0.1327  0.1128  0.3079
27254SOL    HW185164   2.582   8.370   9.338  1.1682 -0.2325  1.3335
27254SOL    HW285165   2.630   8.483   9.250 -1.7019 -0.5300 -0.7639
27255SOL     OW85166   9.531   1.927   5.719 -0.2924  0.0691 -0.4229
27255SOL    HW185167   9.498   1.837   5.710 -1.4101  0.6234 -3.0153
27255SOL    HW285168   9.554   1.935   5.811 -2.5123 -2.0943  0.4523
27256SOL     OW85169   7.286   9.878   6.448  0.2786  0.1335  0.6587
27256SOL    HW185170   7.204   9.916   6.481  0.8440  1.6894  0.3536
27256SOL    HW285171   7.290   9.792   6.489 -2.7301 -1.0696 -1.2342
27257SOL     OW85172   8.070  10.423   7.613 -0.2051  0.1870  0.0105
27257SOL    HW185173   8.113  10.353   7.662  0.2837  0.1624 -0.4488
27257SOL    HW285174   7.977  10.416   7.638  0.2944  1.6462  2.7468
27258SOL     OW85175   8.618   2.430   2.100 -0.8858  0.3708  0.0954
27258SOL    HW185176   8.665   2.509   2.128  0.2146  0.1502 -1.0527
27258SOL    HW285177   8.528   2.459   2.085 -0.1065  1.8302 -2.0546
27259SOL     OW85178   1.547   6.039   0.749  0.5021 -0.7821 -0.4570
27259SOL    HW185179   1.507   6.124   0.731  0.4735 -0.9748 -1.3922
27259SOL    HW285180   1.513   6.013   0.834 -0.6094 -0.5039 -0.8086
27260SOL     OW85181   2.366   7.626   4.403  0.0675 -0.1199 -0.2094
27260SOL    HW185182   2.461   7.621   4.394 -0.0999 -0.5542 -2.1731
27260SOL    HW285183   2.338   7.679   4.328 -1.2926 -0.4148  0.0659
27261SOL     OW85184   1.567   0.650  10.682 -0.2013  0.2125  0.0307
27261SOL    HW185185   1.655   0.636  10.647 -0.4531 -0.3122 -0.3981
27261SOL    HW285186   1.574   0.627  10.775 -0.1978 -1.1424 -0.2926
27262SOL     OW85187   0.264   9.648   9.974 -0.5551 -0.1491  0.1459
27262SOL    HW185188   0.326   9.583   9.940 -0.6022 -0.5344  0.7690
27262SOL    HW285189   0.300   9.673  10.059 -1.2266 -0.3356  0.4925
27263SOL     OW85190   4.131   0.813  10.034  0.0498  0.2786  0.3404
27263SOL    HW185191   4.042   0.807   9.998 -0.2723 -0.7059  1.2428
27263SOL    HW285192   4.140   0.735  10.089  2.4381 -1.0865 -1.7806
27264SOL     OW85193   5.086   5.160  10.037 -0.0813  0.1890  0.1988
27264SOL    HW185194   5.048   5.243  10.065 -2.3240 -1.1556  1.3645
27264SOL    HW285195   5.102   5.172   9.943 -1.9475  1.4032 -0.0188
27265SOL     OW85196   6.254   5.024   2.901 -0.3417 -0.3591  0.2760
27265SOL    HW185197   6.208   4.941   2.887 -0.7655  0.1592 -1.8313
27265SOL    HW285198   6.328   5.001   2.958 -1.4824 -1.7989  1.2340
27266SOL     OW85199  10.469   5.898   7.730  0.2538 -0.4369  0.5251
27266SOL    HW185200  10.532   5.902   7.802  1.3785  2.8249 -0.4345
27266SOL    HW285201  10.391   5.941   7.765  1.1801  2.2026 -0.3408
27267SOL     OW85202   9.482   7.941   1.162 -0.2518  0.0940  0.1281
27267SOL    HW185203   9.546   7.894   1.216  1.2872 -0.6349 -2.1753
27267SOL    HW285204   9.401   7.891   1.171  0.4489 -1.0385  0.3945
27268SOL     OW85205   7.433   5.146   0.147  0.1750 -0.3900 -0.1023
27268SOL    HW185206   7.501   5.154   0.214  0.6822 -1.1819 -0.5024
27268SOL    HW285207   7.428   5.233   0.107  0.6526 -0.2094  0.2148
27269SOL     OW85208   0.634   8.973   6.923 -0.7407 -0.6232 -0.4243
27269SOL    HW185209   0.539   8.974   6.928 -0.6744 -0.6795  1.7352
27269SOL    HW285210   0.655   9.034   6.852 -2.3413  0.0864 -0.3265
27270SOL     OW85211   8.069   4.399  10.445 -0.6295 -0.0313 -0.4666
27270SOL    HW185212   8.128   4.455  10.496 -0.8718  0.7096 -0.9864
27270SOL    HW285213   8.126   4.355  10.381 -0.4433 -0.3710 -0.0734
27271SOL     OW85214   2.604   9.606   5.304 -0.3430 -0.0924  0.5785
27271SOL    HW185215   2.601   9.542   5.233  0.8201 -1.7171  1.9365
27271SOL    HW285216   2.671   9.574   5.363 -1.1547  1.3039  2.3546
27272SOL     OW85217   2.995   0.525   6.961  0.9154 -0.0456 -0.2733
27272SOL    HW185218   2.920   0.584   6.965  0.1933 -0.9659 -0.0252
27272SOL    HW285219   3.071   0.582   6.975  0.1988  0.7488  0.4838
27273SOL     OW85220   2.693   8.664   1.273 -0.5831 -0.3492 -0.2543
27273SOL    HW185221   2.696   8.759   1.287  0.9209 -0.7281  2.6695
27273SOL    HW285222   2.606   8.648   1.236 -1.2362  2.0655  0.0780
27274SOL     OW85223   6.504   4.105   2.568  0.0876 -0.2592  0.2751
27274SOL    HW185224   6.562   4.147   2.504  1.1919 -1.7502  0.2387
27274SOL    HW285225   6.539   4.134   2.653 -0.3685  0.4141  0.2453
27275SOL     OW85226   2.040   3.709   4.710  0.5955 -0.4845  0.0149
27275SOL    HW185227   2.014   3.706   4.802 -0.4506  1.2495 -0.1767
27275SOL    HW285228   1.986   3.643   4.667  0.8166 -1.0377  0.5696
27276SOL     OW85229  10.401   5.447   1.690  0.0225 -0.4478 -0.0429
27276SOL    HW185230  10.437   5.535   1.676  0.6373 -0.5140  1.0314
27276SOL    HW285231  10.467   5.402   1.743 -0.6541 -1.3055  0.0968
27277SOL     OW85232   7.215   7.583   0.434  0.0132  0.2076 -0.2745
27277SOL    HW185233   7.252   7.663   0.399 -0.7961  1.1366  0.8819
27277SOL    HW285234   7.168   7.611   0.513 -1.8005 -1.1108 -0.8037
27278SOL     OW85235   8.889   9.056   2.364 -0.0434 -0.1202  0.0155
27278SOL    HW185236   8.928   9.143   2.375 -0.5114  0.2066 -0.8605
27278SOL    HW285237   8.881   9.022   2.453  0.1500  0.7312  0.3623
27279SOL     OW85238  10.294   9.090  10.301  0.2197  0.1347  0.3028
27279SOL    HW185239  10.319   9.054  10.386  0.7331 -2.5525 -0.8984
27279SOL    HW285240  10.350   9.045  10.238 -1.1422  0.9707 -1.6127
27280SOL     OW85241   5.123   4.399   7.435 -0.0182  0.1895 -0.1274
27280SOL    HW185242   5.068   4.321   7.428  0.0740  0.0022  0.9667
27280SOL    HW285243   5.068   4.463   7.480  1.1836 -0.6257  2.7816
27281SOL     OW85244   3.379   2.936   4.593 -0.2779  0.3216 -0.3684
27281SOL    HW185245   3.423   2.939   4.679 -1.7853  0.5797  0.4227
27281SOL    HW285246   3.297   2.983   4.607 -0.4992  0.4569 -2.0046
27282SOL     OW85247   1.630   5.477   2.995 -0.1851 -0.3373 -0.3214
27282SOL    HW185248   1.627   5.570   2.972  0.2380 -0.3655 -0.5209
27282SOL    HW285249   1.539   5.451   3.006 -0.2617  0.3432  0.7482
27283SOL     OW85250   9.256   6.225  10.004  0.2699 -0.2045  0.5010
27283SOL    HW185251   9.334   6.252   9.957 -0.9979  1.2740 -0.8655
27283SOL    HW285252   9.289   6.173  10.077  2.5053  0.3039 -0.0722
27284SOL     OW85253   5.555   6.176   4.488 -0.2017  0.3030  0.1191
27284SOL    HW185254   5.644   6.207   4.500 -0.6720  2.1092 -0.6586
27284SOL    HW285255   5.542   6.112   4.559  1.5379  0.3211  0.5012
27285SOL     OW85256   6.134   2.733   0.640 -0.3055 -0.3769 -0.1321
27285SOL    HW185257   6.164   2.705   0.726  1.0205 -2.0134 -1.0883
27285SOL    HW285258   6.195   2.802   0.614  1.1415 -1.9453 -0.9964
27286SOL     OW85259   9.550   8.827   2.915 -0.5120  0.3050 -0.3369
27286SOL    HW185260   9.480   8.836   2.851  0.6299 -0.5762 -1.7684
27286SOL    HW285261   9.623   8.789   2.867 -0.0443 -1.7532  1.7854
27287SOL     OW85262   5.387   8.627   3.412 -0.2938 -0.4257  0.1652
27287SOL    HW185263   5.424   8.697   3.465  1.2488 -0.6047 -0.6118
27287SOL    HW285264   5.395   8.548   3.466 -1.0664 -0.2004  0.6275
27288SOL     OW85265   7.320  10.778   7.183 -0.5038 -0.1082  0.5212
27288SOL    HW185266   7.402  10.728   7.179 -0.7499 -0.4772 -0.0411
27288SOL    HW285267   7.346  10.865   7.214  0.2141  0.0205 -0.4280
27289SOL     OW85268   6.143   1.996   4.005 -0.0691  0.4397  0.4460
27289SOL    HW185269   6.130   1.948   4.087 -0.0548  0.0720  0.2342
27289SOL    HW285270   6.142   2.088   4.031 -1.7810  0.4012  0.6419
27290SOL     OW85271  10.584   5.373   7.917  1.0202  0.0265  0.4776
27290SOL    HW185272  10.596   5.301   7.855  2.5174 -1.1011  1.9775
27290SOL    HW285273  10.494   5.362   7.949  1.0034 -0.7811  0.1829
27291SOL     OW85274  10.822   4.805   8.525  0.3889  0.0544 -0.0938
27291SOL    HW185275  10.772   4.796   8.444  2.1584  1.0526 -1.3687
27291SOL    HW285276  10.855   4.716   8.542 -1.1973 -0.4789  0.4125
27292SOL     OW85277   0.574   7.309   4.333 -0.1778 -0.1873  0.0141
27292SOL    HW185278   0.649   7.368   4.329  0.3788 -0.6097  2.5245
27292SOL    HW285279   0.586   7.251   4.258  0.8310  1.0612 -0.8365
27293SOL     OW85280   2.169   6.333   1.840  0.0338  0.2492 -0.4705
27293SOL    HW185281   2.144   6.425   1.846  0.2690  0.2784  0.0761
27293SOL    HW285282   2.241   6.332   1.777 -0.3989  0.3473 -0.9758
27294SOL     OW85283   6.414   3.196   5.802  0.6209  0.2477  0.0708
27294SOL    HW185284   6.494   3.147   5.821  0.0788 -0.0530  1.7427
27294SOL    HW285285   6.343   3.133   5.815  0.0412  0.8903  0.0758
27295SOL     OW85286   1.424   2.436   4.798 -0.0737  0.2000  0.0095
27295SOL    HW185287   1.401   2.488   4.722 -0.1872 -0.6891 -0.5784
27295SOL    HW285288   1.423   2.345   4.767  2.2116 -0.0364  0.4570
27296SOL     OW85289   8.253   7.494   2.353  0.4383 -0.4086  0.4099
27296SOL    HW185290   8.283   7.447   2.430 -0.5700 -1.9727 -0.1065
27296SOL    HW285291   8.294   7.449   2.279  0.7865  0.5913 -0.0220
27297SOL     OW85292   8.848  10.318   1.702 -0.0273 -0.8607 -0.6671
27297SOL    HW185293   8.821  10.402   1.665 -1.8457 -1.3027 -0.4452
27297SOL    HW285294   8.940  10.309   1.678  0.0595  0.9601 -1.1125
27298SOL     OW85295   8.243   2.888   0.107 -1.0383  0.1042 -0.2376
27298SOL    HW185296   8.271   2.826   0.040 -1.1846  0.2838 -0.4690
27298SOL    HW285297   8.274   2.851   0.190  1.2953  1.0539 -0.5973
27299SOL     OW85298   9.549   7.399   5.636 -0.1086 -0.2657 -0.1225
27299SOL    HW185299   9.555   7.305   5.648  2.2195  0.0434  1.8546
27299SOL    HW285300   9.584   7.414   5.548 -0.8630 -1.2354 -0.6108
27300SOL     OW85301   6.543   4.250   1.624  0.0520  0.3892  0.2561
27300SOL    HW185302   6.612   4.273   1.686  0.5223  0.2643 -0.2084
27300SOL    HW285303   6.577   4.173   1.578 -0.1046  0.7207 -0.4342
27301SOL     OW85304  10.482   8.743   4.730 -0.1719  0.1247 -0.0543
27301SOL    HW185305  10.577   8.749   4.744 -0.0673 -0.4331 -0.5105
27301SOL    HW285306  10.457   8.660   4.770 -0.1787 -0.5647 -1.4410
27302SOL     OW85307   1.386   3.808   8.134 -0.9494  0.0373 -0.4695
27302SOL    HW185308   1.381   3.900   8.159 -0.5456  0.3928 -1.6512
27302SOL    HW285309   1.455   3.804   8.068 -0.4184 -1.2522  0.1362
27303SOL     OW85310   5.996   2.132   1.360  0.2626  0.2524  0.3896
27303SOL    HW185311   6.051   2.189   1.413 -0.5431  1.6609 -0.2315
27303SOL    HW285312   5.996   2.172   1.273 -2.4641  0.8570  0.5857
27304SOL     OW85313   0.654   0.540   4.328  0.6060  0.3598 -0.3688
27304SOL    HW185314   0.740   0.500   4.331 -0.1313 -1.2934  0.1046
27304SOL    HW285315   0.625   0.542   4.419  0.6155  2.0215 -0.3827
27305SOL     OW85316   2.875   8.408   4.688 -0.0175  0.2314  0.5639
27305SOL    HW185317   2.927   8.387   4.611 -1.3416  1.0101 -0.5889
27305SOL    HW285318   2.828   8.326   4.708  0.2474  0.0582  0.4810
27306SOL     OW85319   0.985   7.826   2.430 -0.1009 -0.4007  0.0115
27306SOL    HW185320   1.056   7.886   2.455 -0.8838  1.0969 -1.1770
27306SOL    HW285321   0.942   7.804   2.512  1.3524 -0.8473  0.6892
27307SOL     OW85322   6.935   6.854   2.178  0.9751  0.1586 -0.0577
27307SOL    HW185323   6.973   6.941   2.172  2.7293 -0.4185  1.5255
27307SOL    HW285324   7.006   6.795   2.153  0.0562 -0.8509 -0.3661
27308SOL     OW85325   5.167   1.299   1.697 -0.9092  0.5608 -0.0079
27308SOL    HW185326   5.206   1.341   1.620 -0.2024 -1.0380 -0.5483
27308SOL    HW285327   5.133   1.216   1.664  0.2415 -0.5780  1.5920
27309SOL     OW85328   0.410   3.611   3.085  0.2179  0.5683  0.3882
27309SOL    HW185329   0.428   3.530   3.134 -0.0125  1.8122  2.6457
27309SOL    HW285330   0.496   3.639   3.053  0.3659 -0.2705 -0.0020
27310SOL     OW85331   7.597   3.459   5.592  0.2115 -0.3504 -0.2432
27310SOL    HW185332   7.554   3.538   5.560  1.3912  0.8152  0.9327
27310SOL    HW285333   7.544   3.430   5.665 -0.1427 -0.5710 -0.5852
27311SOL     OW85334   4.621   5.338  10.396  0.0698  0.3012  0.0481
27311SOL    HW185335   4.614   5.423  10.440  0.6258  1.3514 -1.8126
27311SOL    HW285336   4.549   5.287  10.433 -1.4689  2.2128 -0.1228
27312SOL     OW85337   2.174   9.619  10.767 -0.0606 -1.1324 -0.2473
27312SOL    HW185338   2.105   9.629  10.702  0.0001 -1.6420 -0.3953
27312SOL    HW285339   2.132   9.573  10.840 -1.1759  2.6257  1.7512
27313SOL     OW85340   3.200   3.792   3.668  0.5616  0.6643 -0.0032
27313SOL    HW185341   3.129   3.849   3.696 -0.5858 -0.7415  0.0839
27313SOL    HW285342   3.252   3.845   3.608 -1.3197  1.3559 -1.1060
27314SOL     OW85343   8.474   7.137   2.598  0.2550  0.3136  0.0180
27314SOL    HW185344   8.442   7.124   2.687 -1.3759  0.1414 -0.5708
27314SOL    HW285345   8.541   7.206   2.607 -0.7070  1.1461  1.2074
27315SOL     OW85346   9.969   1.679   0.681  0.5005 -1.1207 -0.1582
27315SOL    HW185347   9.882   1.637   0.675  1.0074 -2.1428 -0.6752
27315SOL    HW285348   9.978   1.726   0.599 -0.7666  1.5202  1.0864
27316SOL     OW85349   9.609   3.409   7.927 -0.3510 -0.0593  0.0587
27316SOL    HW185350   9.552   3.344   7.969 -1.0674  0.4072 -0.1742
27316SOL    HW285351   9.657   3.449   7.999  0.1938 -0.9219  0.1970
27317SOL     OW85352   5.531   6.594   2.320 -0.2434  0.1440 -0.0950
27317SOL    HW185353   5.613   6.636   2.293  0.9502 -1.5062  0.7954
27317SOL    HW285354   5.469   6.667   2.329  1.0981  1.4368 -0.8077
27318SOL     OW85355   4.175   4.559   7.669 -0.3021 -0.1174  0.0145
27318SOL    HW185356   4.103   4.498   7.682 -2.2485  1.7640 -1.1527
27318SOL    HW285357   4.174   4.615   7.747  3.7658 -3.4491  2.8700
27319SOL     OW85358   6.792   3.641   0.319  0.2187  0.4028 -0.0939
27319SOL    HW185359   6.806   3.735   0.328  0.1123  0.4096  0.0141
27319SOL    HW285360   6.867   3.609   0.270  0.1470  0.5793 -0.3184
27320SOL     OW85361  10.735   5.802   6.855  0.3385  0.2682 -0.3812
27320SOL    HW185362  10.723   5.847   6.771  1.9913 -0.1507 -0.8683
27320SOL    HW285363  10.804   5.851   6.899 -1.3628  1.2463  1.3368
27321SOL     OW85364   4.023   0.831   4.904  0.0743 -0.0987 -0.5101
27321SOL    HW185365   3.948   0.777   4.878  0.8220 -1.2026 -0.4685
27321SOL    HW285366   4.023   0.905   4.843  0.0381 -1.0713 -1.7264
27322SOL     OW85367   2.707   0.162   4.260 -0.2101  0.1758 -0.0975
27322SOL    HW185368   2.621   0.164   4.301 -0.1701 -1.4932  0.1300
27322SOL    HW285369   2.690   0.131   4.171  0.1958 -0.5875  0.0860
27323SOL     OW85370   4.596   2.481   7.645  0.1109 -0.1862 -0.7319
27323SOL    HW185371   4.509   2.446   7.662  0.3473  0.3808  2.0876
27323SOL    HW285372   4.587   2.575   7.656  0.8962 -0.0131 -1.4429
27324SOL     OW85373   5.410   4.707   1.791 -0.7207 -0.8036  0.0397
27324SOL    HW185374   5.365   4.647   1.733 -0.8183 -0.8263  0.1396
27324SOL    HW285375   5.360   4.788   1.786 -0.2371 -0.5353 -0.5700
27325SOL     OW85376   9.820  10.558   9.398  0.3618 -0.5245  0.4278
27325SOL    HW185377   9.727  10.552   9.375  0.5144 -1.0012 -0.0886
27325SOL    HW285378   9.820  10.595   9.487 -0.1967  2.2185 -0.6115
27326SOL     OW85379   2.019   7.637   9.808 -0.1989  0.3690  0.0536
27326SOL    HW185380   1.956   7.702   9.839  0.2111  1.1687 -0.7428
27326SOL    HW285381   2.016   7.646   9.712 -0.3027 -0.9491 -0.0802
27327SOL     OW85382   4.999   0.078   4.774  0.5002 -0.2467 -0.5658
27327SOL    HW185383   5.085   0.040   4.755  1.1792  1.3976 -1.0082
27327SOL    HW285384   5.002   0.098   4.867  0.4949 -0.4279 -0.5265
27328SOL     OW85385   8.951   6.158   2.667 -0.1716  0.6542 -0.2997
27328SOL    HW185386   8.945   6.145   2.761 -0.7584  1.9468 -0.1411
27328SOL    HW285387   8.874   6.210   2.645 -0.9885 -1.0634 -1.7762
27329SOL     OW85388   2.967   0.697   9.427  0.3294  0.5022  0.0391
27329SOL    HW185389   2.899   0.698   9.360  0.0847 -0.8232  0.2202
27329SOL    HW285390   2.934   0.754   9.497 -0.0174  0.8426 -0.4021
27330SOL     OW85391   1.404   9.931  10.180 -0.1581  0.3732  0.2789
27330SOL    HW185392   1.367   9.957  10.264 -0.1778 -0.7062  0.6126
27330SOL    HW285393   1.371   9.998  10.118  0.6334  1.7173  1.2655
27331SOL     OW85394   9.896   7.643   6.493 -0.4853  0.4289  0.0759
27331SOL    HW185395   9.872   7.678   6.579 -0.5936 -0.2893  0.3464
27331SOL    HW285396   9.891   7.718   6.434 -3.1919  0.3686  0.1423
27332SOL     OW85397   6.799   4.848   9.381  0.7390 -0.3558 -0.1286
27332SOL    HW185398   6.770   4.758   9.397  0.4735 -0.1159  0.7851
27332SOL    HW285399   6.873   4.860   9.441  0.9554 -0.0601 -0.4549
27333SOL     OW85400   6.983   3.748  10.141 -0.1804 -0.3612 -0.1508
27333SOL    HW185401   6.941   3.822  10.096 -0.4976 -0.6428 -0.3227
27333SOL    HW285402   6.910   3.701  10.181  0.1751  0.5689  1.7291
27334SOL     OW85403   7.357   8.787   0.218  0.2529  0.8708  0.0231
27334SOL    HW185404   7.331   8.804   0.127 -0.3265  1.0001  0.2049
27334SOL    HW285405   7.423   8.853   0.237 -0.6696  1.7842  0.1447
27335SOL     OW85406   6.731   4.790   7.320  0.0851 -0.2956  0.2109
27335SOL    HW185407   6.766   4.811   7.407 -0.6166  1.1485  0.1763
27335SOL    HW285408   6.724   4.874   7.276 -0.9634 -0.8420 -0.7104
27336SOL     OW85409   4.576   7.096   4.742 -0.2645  0.0880  0.1685
27336SOL    HW185410   4.486   7.108   4.772 -1.0617 -2.5287 -0.7888
27336SOL    HW285411   4.631   7.122   4.815 -1.6199  3.9161  0.0266
27337SOL     OW85412  10.019   1.488   6.352 -0.2612  0.4064  0.2026
27337SOL    HW185413  10.046   1.564   6.301 -2.1562  1.0049  0.0125
27337SOL    HW285414   9.995   1.423   6.285 -1.7161  0.8113  0.3009
27338SOL     OW85415   8.863   3.667   5.616  0.5359  0.3741 -0.0857
27338SOL    HW185416   8.854   3.657   5.522 -0.8327  0.9297 -0.0435
27338SOL    HW285417   8.774   3.685   5.647  0.9540  0.2071  1.3114
27339SOL     OW85418   1.612   9.092   3.626 -0.0008 -0.0540  0.0014
27339SOL    HW185419   1.696   9.115   3.666 -0.2327  0.2772  0.3051
27339SOL    HW285420   1.628   9.009   3.581  0.3583 -0.2341  0.4647
27340SOL     OW85421   8.747   3.006  10.696  0.4006  0.1481 -0.4474
27340SOL    HW185422   8.834   2.979  10.727  0.3386  1.7220  1.2592
27340SOL    HW285423   8.698   2.924  10.689  1.3418 -0.5643  0.8333
27341SOL     OW85424   9.577   5.853   8.860  0.5508 -0.3098  0.6235
27341SOL    HW185425   9.547   5.763   8.854  0.1272 -0.1346 -0.0015
27341SOL    HW285426   9.553   5.892   8.776  0.4944  0.4544  0.9875
27342SOL     OW85427   7.894  10.526  10.606 -0.3936  0.0174 -0.8174
27342SOL    HW185428   7.817  10.565  10.649  0.9259  1.2352  0.5702
27342SOL    HW285429   7.968  10.574  10.642  1.4162 -3.6189  0.8455
27343SOL     OW85430   3.084   4.180   3.300  0.7613 -0.3126 -0.1321
27343SOL    HW185431   3.045   4.180   3.388  0.4795  0.3910 -0.2501
27343SOL    HW285432   3.158   4.240   3.307 -0.2295  1.0426 -0.7726
27344SOL     OW85433   5.738   7.644   4.276  0.4292  0.2745 -0.0591
27344SOL    HW185434   5.649   7.638   4.310  0.7530  0.4560  0.8414
27344SOL    HW285435   5.754   7.737   4.267  1.0890  0.3312  1.3594
27345SOL     OW85436   6.468   7.493   0.253 -0.0436  0.0212 -0.0226
27345SOL    HW185437   6.380   7.494   0.290 -0.0382 -2.6219  0.2779
27345SOL    HW285438   6.465   7.558   0.182 -1.6167  1.3670  1.1922
27346SOL     OW85439   5.625   4.365   2.662  0.1427 -0.3359  0.0536
27346SOL    HW185440   5.593   4.374   2.752 -0.3730 -0.4361 -0.1139
27346SOL    HW285441   5.599   4.447   2.620  0.7269 -0.1248  0.0946
27347SOL     OW85442   7.513   7.589   8.448  0.2089  0.3300 -0.0645
27347SOL    HW185443   7.575   7.577   8.377  1.5113 -0.6656  1.1795
27347SOL    HW285444   7.445   7.646   8.412  1.0449  0.1885 -1.9419
27348SOL     OW85445   3.494   7.444   0.843 -0.2159 -0.1678  0.1220
27348SOL    HW185446   3.538   7.527   0.825 -1.0920 -0.1047 -1.9553
27348SOL    HW285447   3.563   7.378   0.834  0.0697  0.1669 -0.1811
27349SOL     OW85448   0.376   0.655   9.032  0.7234  0.5434 -0.2269
27349SOL    HW185449   0.312   0.618   8.971 -0.3332 -1.7174  2.0674
27349SOL    HW285450   0.338   0.739   9.058 -0.3475  0.1251 -0.3865
27350SOL     OW85451   8.453  10.517   9.413  0.6570 -0.0065 -1.1033
27350SOL    HW185452   8.417  10.563   9.337 -1.1621  0.0100 -0.2657
27350SOL    HW285453   8.430  10.572   9.488 -0.1201 -1.4263 -0.2530
27351SOL     OW85454   5.049   5.246   7.363  0.1179 -0.2329 -0.1236
27351SOL    HW185455   5.020   5.303   7.434 -1.7839 -1.3480  0.0690
27351SOL    HW285456   5.040   5.299   7.284  0.6952  0.4832  0.2747
27352SOL     OW85457   4.841   2.767   7.992 -0.0648  0.7674 -0.2208
27352SOL    HW185458   4.799   2.814   7.920  1.1370  1.0120 -0.7865
27352SOL    HW285459   4.866   2.682   7.954  0.3874  0.8164 -0.0360
27353SOL     OW85460   0.276   4.256  10.030  0.1691 -1.1483 -0.2953
27353SOL    HW185461   0.184   4.232  10.036  0.3319 -1.5947  0.8408
27353SOL    HW285462   0.292   4.309  10.108  0.3881  0.7306 -1.5600
27354SOL     OW85463   7.386   9.838   4.846 -0.2568 -0.5283 -0.3378
27354SOL    HW185464   7.402   9.931   4.828  0.8072 -0.5938  0.1579
27354SOL    HW285465   7.293   9.833   4.865  0.1207  0.9768  2.5536
27355SOL     OW85466   2.141   9.819   1.768 -0.1681 -0.1852  0.0718
27355SOL    HW185467   2.175   9.809   1.679 -1.6646 -0.4857 -0.5127
27355SOL    HW285468   2.100   9.734   1.788 -0.8826  0.2602  0.5634
27356SOL     OW85469   2.040   0.834   9.569  0.4451 -0.5145  0.1022
27356SOL    HW185470   2.002   0.917   9.599  1.1798  0.1404 -0.7193
27356SOL    HW285471   2.122   0.827   9.618  0.2442 -0.9087  0.3840
27357SOL     OW85472   1.066   9.217   2.116 -0.1848  0.6673  0.3820
27357SOL    HW185473   1.010   9.285   2.080 -0.9612 -0.1655 -0.0262
27357SOL    HW285474   1.074   9.153   2.045 -0.0494  0.0002  0.9870
27358SOL     OW85475   7.120   1.374   7.917  0.7654 -0.2593  0.4050
27358SOL    HW185476   7.094   1.464   7.936  1.6038  0.3078 -0.9621
27358SOL    HW285477   7.214   1.379   7.900  0.5266 -1.0350 -1.4550
27359SOL     OW85478  10.743   0.643   2.308 -0.0490 -0.2598  0.1606
27359SOL    HW185479  10.835   0.618   2.318 -0.0521  0.0598  1.0187
27359SOL    HW285480  10.743   0.738   2.312 -0.4984 -0.2845  0.8825
27360SOL     OW85481   9.084   3.004  10.007  0.2909  0.5893  0.0108
27360SOL    HW185482   9.179   3.004  10.018  0.2911  0.4748  0.0089
27360SOL    HW285483   9.070   2.975   9.917  0.2056 -0.7085  0.4178
27361SOL     OW85484   4.202   5.025   9.093 -0.3126  0.2572  0.9691
27361SOL    HW185485   4.296   5.020   9.108 -0.3175 -2.0684  0.7106
27361SOL    HW285486   4.164   5.044   9.179  0.2600 -2.0259  1.7889
27362SOL     OW85487  10.687   6.823   8.849  0.0134 -0.0869  0.0802
27362SOL    HW185488  10.680   6.900   8.906 -0.9154 -0.2696  0.2214
27362SOL    HW285489  10.673   6.858   8.761  1.2878  0.1680 -0.0414
27363SOL     OW85490   6.161   1.214   6.503  0.6346  0.3566 -0.1817
27363SOL    HW185491   6.181   1.159   6.428  0.1392 -0.8572  0.5533
27363SOL    HW285492   6.067   1.232   6.496  0.4857 -0.1613  0.3876
27364SOL     OW85493   9.048   4.790   0.965  0.1173 -0.6679 -0.1812
27364SOL    HW185494   8.959   4.758   0.983  0.4814 -1.6826 -0.1320
27364SOL    HW285495   9.106   4.724   1.003  0.9011  0.0925 -0.0287
27365SOL     OW85496  10.349  10.354  10.531  0.2018  1.0081 -0.3182
27365SOL    HW185497  10.358  10.259  10.517 -1.3364  0.8452 -0.3571
27365SOL    HW285498  10.331  10.363  10.624 -1.7568  1.0478 -0.6563
27366SOL     OW85499   1.399   5.842   1.388 -0.1283 -0.6029  0.0569
27366SOL    HW185500   1.364   5.893   1.461 -1.0807 -2.3821  0.8874
27366SOL    HW285501   1.487   5.816   1.417 -0.2273 -0.6966  0.2760
27367SOL     OW85502   1.199   4.982   5.126 -0.1601  0.3758  0.7217
27367SOL    HW185503   1.271   4.922   5.106 -0.1099  0.0333  1.8699
27367SOL    HW285504   1.197   4.986   5.222 -0.5211  1.7751  0.6774
27368SOL     OW85505   0.383   8.820   3.499  0.2426  0.0755  0.1069
27368SOL    HW185506   0.418   8.732   3.516  1.2475  0.3605 -0.4216
27368SOL    HW285507   0.435   8.853   3.426 -3.1000 -0.5998 -2.8390
27369SOL     OW85508  10.363   5.170   9.273 -0.4213 -0.5273  0.3704
27369SOL    HW185509  10.391   5.106   9.208 -0.2776 -1.4787  1.3372
27369SOL    HW285510  10.273   5.147   9.294 -1.1126  0.9292 -0.8253
27370SOL     OW85511   7.690   0.422   9.103 -0.3070  0.5121  0.0183
27370SOL    HW185512   7.648   0.342   9.135  0.8426  0.2662  0.9810
27370SOL    HW285513   7.713   0.471   9.183 -1.2237  1.9513 -0.5470
27371SOL     OW85514   0.959   8.785   4.830  0.3355  0.4865 -0.0804
27371SOL    HW185515   1.050   8.777   4.859  0.9213  0.0212 -1.9275
27371SOL    HW285516   0.965   8.794   4.735 -1.6336 -2.4199 -0.5983
27372SOL     OW85517   9.348   8.977   7.849 -0.3539 -0.1790 -0.2935
27372SOL    HW185518   9.382   8.916   7.783  0.5291 -0.4065  0.3457
27372SOL    HW285519   9.263   8.940   7.874 -0.9304  0.1838 -1.6416
27373SOL     OW85520   7.554   2.208   3.951  0.2003  0.6059  0.1284
27373SOL    HW185521   7.566   2.295   3.913  0.6046  0.7483  0.5703
27373SOL    HW285522   7.613   2.152   3.902 -1.6292  0.0992 -1.6636
27374SOL     OW85523   1.431   5.125   2.101  0.4777 -0.3596 -0.2452
27374SOL    HW185524   1.453   5.161   2.015  0.6635  1.2879  0.4491
27374SOL    HW285525   1.336   5.139   2.108  0.3678 -1.0027 -0.3944
27375SOL     OW85526  10.163   9.213   7.078 -0.0124  0.1620 -0.2497
27375SOL    HW185527  10.098   9.182   7.015 -0.5264 -0.3336  0.5082
27375SOL    HW285528  10.199   9.292   7.039  1.5951 -1.5482 -2.4368
27376SOL     OW85529   5.196   6.941   6.552  0.0367 -0.0861  0.3393
27376SOL    HW185530   5.212   6.955   6.645  1.0741 -0.2133  0.1916
27376SOL    HW285531   5.119   6.995   6.532 -0.0361  0.1411  1.2053
27377SOL     OW85532   0.464  10.687   9.739 -0.4070 -0.3514 -0.3795
27377SOL    HW185533   0.380  10.734   9.737 -0.7353 -0.8858  0.4047
27377SOL    HW285534   0.452  10.619   9.805  0.5216 -0.6807 -0.5342
27378SOL     OW85535   1.724   7.068   2.943  0.0037  0.7275 -0.1451
27378SOL    HW185536   1.692   7.137   2.885 -1.4763  2.0971  2.1415
27378SOL    HW285537   1.678   6.989   2.915 -2.3906  1.8136  0.4536
27379SOL     OW85538   5.849   3.221   7.225  0.1482 -0.2419 -0.0035
27379SOL    HW185539   5.877   3.186   7.310  0.3538  1.5335  0.7101
27379SOL    HW285540   5.757   3.195   7.217  0.1324 -0.4386  0.7504
27380SOL     OW85541   6.146   7.279   3.307  0.4070 -0.2654  0.4382
27380SOL    HW185542   6.069   7.237   3.344  0.8428 -2.5571 -1.0686
27380SOL    HW285543   6.173   7.342   3.373 -1.2254 -1.2515  2.1342
27381SOL     OW85544   1.272   4.237   1.266 -0.0945 -0.1398  0.3188
27381SOL    HW185545   1.330   4.313   1.256 -0.9652  0.5102  0.0692
27381SOL    HW285546   1.293   4.181   1.192  0.3872 -0.0253  0.3668
27382SOL     OW85547   3.018   3.914   4.012  0.3917 -0.0889 -0.1470
27382SOL    HW185548   3.040   3.993   3.962  0.1426  1.2015  1.6909
27382SOL    HW285549   2.922   3.911   4.011  0.2771  1.1396  1.9140
27383SOL     OW85550   6.977  10.247   4.844 -0.1400  0.4047 -0.0365
27383SOL    HW185551   7.036  10.300   4.897  1.1112  0.0109 -0.9930
27383SOL    HW285552   7.035  10.188   4.795 -1.4503 -1.6935  0.8126
27384SOL     OW85553   7.938   3.519   8.664  0.5187  0.0629  0.3061
27384SOL    HW185554   7.929   3.536   8.570  0.0242 -0.0886  0.3244
27384SOL    HW285555   7.872   3.575   8.704  0.2160 -0.4398  0.5112
27385SOL     OW85556   2.946   5.933   7.799  0.7202  0.3528  0.3391
27385SOL    HW185557   2.895   6.013   7.815 -1.9786 -0.7226 -1.8692
27385SOL    HW285558   2.998   5.953   7.722 -1.1045 -0.3472 -1.1645
27386SOL     OW85559  10.746   3.526   1.073  0.7121  0.2361  0.3381
27386SOL    HW185560  10.664   3.573   1.086 -0.0146 -0.7499 -0.4232
27386SOL    HW285561  10.809   3.593   1.049  0.1876  1.0401  1.1508
27387SOL     OW85562   7.167   9.162   9.754  0.5794  0.5067 -0.5574
27387SOL    HW185563   7.219   9.220   9.699  2.1331 -1.8339 -1.7056
27387SOL    HW285564   7.202   9.175   9.843  1.5571  0.6608 -0.9531
27388SOL     OW85565   8.981  10.715   0.209  0.1762 -0.3339 -0.0583
27388SOL    HW185566   9.001  10.765   0.287 -0.5193 -0.8879  0.4923
27388SOL    HW285567   8.932  10.776   0.153 -2.0421 -0.8063  1.2721
27389SOL     OW85568   5.993   4.866   2.359 -0.2033 -0.4505 -0.5194
27389SOL    HW185569   6.084   4.887   2.340 -0.1421  0.8619  0.9556
27389SOL    HW285570   5.979   4.900   2.448 -2.3226  0.0770 -0.9988
27390SOL     OW85571   9.691   6.162   1.916  0.3242  0.1209  0.0311
27390SOL    HW185572   9.657   6.251   1.912  1.4168  0.5090 -1.5072
27390SOL    HW285573   9.649   6.117   1.843  1.0155 -0.1553 -0.2085
27391SOL     OW85574   6.376   0.123   8.693 -0.0111 -0.3981 -0.4932
27391SOL    HW185575   6.460   0.115   8.647  0.3571  2.6393 -0.5821
27391SOL    HW285576   6.396   0.179   8.769 -1.4746 -1.8032  1.0147
27392SOL     OW85577   4.951   4.695   3.040 -0.1851  0.4003  0.2443
27392SOL    HW185578   4.872   4.704   2.986 -0.2799  1.1983  0.5025
27392SOL    HW285579   4.925   4.637   3.111 -0.0840 -0.5860 -0.5139
27393SOL     OW85580   1.537  10.866   2.491  0.8909 -0.6849  0.1216
27393SOL    HW185581   1.536  10.943   2.547 -0.0361 -0.6014  0.0195
27393SOL    HW285582   1.563  10.794   2.549 -0.5014 -0.6814  0.7988
27394SOL     OW85583   5.782   0.545   0.324  0.1080 -0.7360 -0.4567
27394SOL    HW185584   5.758   0.633   0.353  2.9442  0.5082 -1.5146
27394SOL    HW285585   5.763   0.544   0.230  0.1789 -1.2407 -0.4690
27395SOL     OW85586   6.327   7.205   8.791 -0.3728  0.3605  0.4207
27395SOL    HW185587   6.323   7.114   8.820  1.2707  0.8136  2.2779
27395SOL    HW285588   6.266   7.251   8.848 -1.1075  0.4761 -0.4344
27396SOL     OW85589   8.306   6.520   1.809  0.0717  0.0789  0.4385
27396SOL    HW185590   8.310   6.519   1.904 -2.0985  0.9594  0.5925
27396SOL    HW285591   8.216   6.495   1.788  0.7077 -0.8925 -1.4349
27397SOL     OW85592   8.298   2.792   5.962 -0.4337 -0.3118 -0.1607
27397SOL    HW185593   8.253   2.825   6.039  0.2727 -0.3818  0.2867
27397SOL    HW285594   8.228   2.758   5.906 -0.9927  0.1970  0.2201
27398SOL     OW85595   6.439  10.352   4.130  0.2583  0.0928 -0.1940
27398SOL    HW185596   6.367  10.368   4.070 -0.0560  1.2407  0.4525
27398SOL    HW285597   6.398  10.342   4.215  0.8754  1.3212  0.2762
27399SOL     OW85598   2.201   3.245   3.455  0.4612 -0.0904 -0.6784
27399SOL    HW185599   2.296   3.241   3.463  0.7444 -1.2455 -3.4056
27399SOL    HW285600   2.170   3.163   3.492  0.4422  0.4058  0.4679
27400SOL     OW85601   1.491   8.521   3.301  0.7481  0.1660 -0.5807
27400SOL    HW185602   1.576   8.479   3.288  2.0606  2.5616 -0.3520
27400SOL    HW285603   1.487   8.589   3.234 -1.2568 -0.1844 -0.9042
27401SOL     OW85604   5.862   9.894   4.516 -0.2775 -0.0407  0.6651
27401SOL    HW185605   5.771   9.874   4.494 -0.2589 -0.3316  0.8548
27401SOL    HW285606   5.859   9.927   4.606  0.0144 -1.7678  1.3420
27402SOL     OW85607   1.967   0.103   5.091 -0.1202 -0.8806  0.0924
27402SOL    HW185608   1.891   0.045   5.090 -1.0987  0.3669 -1.2050
27402SOL    HW285609   1.933   0.187   5.121  0.1487  0.3835 -2.8307
27403SOL     OW85610   4.411  10.174   4.358 -0.1700 -0.0411 -0.0447
27403SOL    HW185611   4.366  10.106   4.308 -0.0881  0.4015 -0.7337
27403SOL    HW285612   4.410  10.142   4.448 -2.4825  0.2626  0.0967
27404SOL     OW85613   0.699  10.313   9.314  0.4686 -0.2411  0.2971
27404SOL    HW185614   0.704  10.260   9.394  1.1941 -0.9594 -0.2059
27404SOL    HW285615   0.619  10.283   9.271 -0.0020  0.2517  0.8231
27405SOL     OW85616   3.895  10.792   7.209  0.2418 -1.3362 -0.6914
27405SOL    HW185617   3.890  10.750   7.123  0.6129 -1.2079 -0.7767
27405SOL    HW285618   3.980  10.765   7.243  0.7730 -0.1242 -1.0170
27406SOL     OW85619   6.052   9.000   3.469 -0.0406  0.1499  0.9472
27406SOL    HW185620   5.984   9.025   3.531 -0.7137  1.9888 -0.4633
27406SOL    HW285621   6.033   8.909   3.447 -2.5042  0.8105  0.0742
27407SOL     OW85622   7.872   5.404   5.043  0.3889 -0.0273  0.0504
27407SOL    HW185623   7.950   5.379   4.994  0.1774 -0.6020 -0.0035
27407SOL    HW285624   7.800   5.395   4.980  0.3394  1.0546 -0.0693
27408SOL     OW85625   1.343   0.325  10.214 -0.2119  0.0566  0.0350
27408SOL    HW185626   1.366   0.309  10.122 -0.7073  1.5555 -0.3725
27408SOL    HW285627   1.424   0.357  10.254 -0.0507 -0.3948  0.0735
27409SOL     OW85628   1.527   8.248   9.089 -0.4398  0.1635 -0.0260
27409SOL    HW185629   1.524   8.232   9.184  2.8874  0.9746  0.3231
27409SOL    HW285630   1.543   8.342   9.081  0.7978 -0.1268 -1.3041
27410SOL     OW85631  10.002   9.744   7.233  0.7948  0.2848  0.4277
27410SOL    HW185632   9.967   9.726   7.320  1.3415  0.4537  0.6838
27410SOL    HW285633   9.925   9.763   7.180  0.4505  0.0776  0.8482
27411SOL     OW85634   7.511   4.005   8.720  0.2816  0.1905 -0.5404
27411SOL    HW185635   7.538   3.913   8.725  0.6719  0.3652  1.7650
27411SOL    HW285636   7.566   4.043   8.652 -2.2146 -1.9291 -4.1307
27412SOL     OW85637   2.104   8.913   6.968  0.2698 -0.0459 -0.3177
27412SOL    HW185638   2.032   8.909   7.032 -1.0697  4.4900 -1.2098
27412SOL    HW285639   2.170   8.967   7.010  1.4727 -0.8895 -1.0628
27413SOL     OW85640   4.921   2.676   7.630 -0.6479  0.3938  0.4083
27413SOL    HW185641   4.930   2.633   7.715 -0.5854 -0.2780  0.0655
27413SOL    HW285642   4.907   2.769   7.652 -0.7612  0.2101  1.1513
27414SOL     OW85643   8.212   0.972   5.492  0.5251  0.2194  0.8205
27414SOL    HW185644   8.117   0.969   5.495  0.4286  0.7361 -0.8576
27414SOL    HW285645   8.238   0.885   5.460  0.5897  0.2477  0.7956
27415SOL     OW85646   6.981  10.780   4.963  0.2997  0.8169  0.0483
27415SOL    HW185647   6.963  10.795   4.870  2.4852  0.3622 -0.5092
27415SOL    HW285648   6.960  10.863   5.005 -1.8465  0.6654 -0.6309
27416SOL     OW85649   9.298   5.964  10.910 -0.5135  0.6292 -0.7723
27416SOL    HW185650   9.237   5.892  10.896 -1.7625  1.7598 -1.3435
27416SOL    HW285651   9.351   5.936  10.985 -2.2290 -0.0523  0.2329
27417SOL     OW85652   5.038  10.108   7.562  0.0742  0.6985  0.4341
27417SOL    HW185653   4.970  10.069   7.616  1.8448 -0.2955  2.0252
27417SOL    HW285654   5.091  10.160   7.622  1.7214  0.0967 -0.4377
27418SOL     OW85655   1.542   3.538   6.057  0.0120  0.4517 -0.3055
27418SOL    HW185656   1.530   3.450   6.020  2.4603 -0.1672  0.1904
27418SOL    HW285657   1.559   3.523   6.150  0.5682  1.4490 -0.2312
27419SOL     OW85658   3.029   5.126   6.520 -0.2508  0.0072 -0.4279
27419SOL    HW185659   2.945   5.170   6.514  0.3736  1.1589 -1.0169
27419SOL    HW285660   3.093   5.194   6.499  0.9815 -0.2469  2.1235
27420SOL     OW85661   3.231   2.792   6.151  0.3043 -0.1840 -0.3831
27420SOL    HW185662   3.198   2.745   6.074  0.9710  0.5566 -1.1503
27420SOL    HW285663   3.179   2.872   6.154 -0.8309 -0.9430  0.9208
27421SOL     OW85664   2.134   8.824   3.257 -0.0381  0.5108  0.4102
27421SOL    HW185665   2.173   8.895   3.307  1.8377  0.5194 -0.9377
27421SOL    HW285666   2.201   8.756   3.256 -1.2428 -0.7226  0.4680
27422SOL     OW85667   2.432   1.117   4.563  0.7772  0.1144  0.5417
27422SOL    HW185668   2.438   1.198   4.512 -0.0013  0.0540  0.3364
27422SOL    HW285669   2.499   1.060   4.526  0.7220  0.3438  0.0818
27423SOL     OW85670   4.402   8.881  10.413 -0.0912  0.3363  0.3131
27423SOL    HW185671   4.445   8.802  10.379 -0.1340 -0.2857  1.6428
27423SOL    HW285672   4.461   8.952  10.391 -0.3529  0.0340 -1.4796
27424SOL     OW85673   7.256   6.031   1.045 -0.0209 -0.1770  0.0712
27424SOL    HW185674   7.226   5.953   0.997  0.8334 -0.6372  0.2622
27424SOL    HW285675   7.194   6.099   1.021 -0.8364 -0.9383 -0.0408
27425SOL     OW85676   7.330   1.102   3.451  0.3234 -0.1323 -0.5015
27425SOL    HW185677   7.358   1.029   3.507  1.4904  1.1333  0.6362
27425SOL    HW285678   7.242   1.078   3.422 -0.9080 -0.2743  2.9664
27426SOL     OW85679   4.372   8.558   2.020  0.1683  0.4408  0.0841
27426SOL    HW185680   4.360   8.535   2.113 -1.2283 -1.0503 -0.4301
27426SOL    HW285681   4.315   8.498   1.973  0.7950  1.2376 -1.7636
27427SOL     OW85682   6.363   3.472   3.637 -0.8524  0.5122 -0.5627
27427SOL    HW185683   6.404   3.471   3.723 -0.4060  0.0320 -0.7819
27427SOL    HW285684   6.300   3.545   3.642 -0.5017  0.7827  0.0092
27428SOL     OW85685   3.111   1.299  10.878  0.2203 -0.2110  0.8432
27428SOL    HW185686   3.191   1.264  10.919 -0.0901  0.1893  1.8260
27428SOL    HW285687   3.054   1.223  10.871  0.4355 -0.3682  0.7636
27429SOL     OW85688   8.879   6.091   9.722  0.6663 -0.1123 -0.0749
27429SOL    HW185689   8.832   6.122   9.799 -0.6673  0.3047 -1.0122
27429SOL    HW285690   8.815   6.036   9.676  1.8358 -1.3615 -0.2741
27430SOL     OW85691   0.756   0.452   2.103 -0.0615 -0.5680 -0.8478
27430SOL    HW185692   0.714   0.521   2.154 -0.7693 -1.2374 -0.5099
27430SOL    HW285693   0.774   0.382   2.166  0.3235 -0.8458 -1.2543
27431SOL     OW85694   1.845   5.416   2.579  0.0281  0.1501 -0.8031
27431SOL    HW185695   1.770   5.368   2.614 -0.5463  2.4007  1.4377
27431SOL    HW285696   1.807   5.472   2.511 -0.5544  1.6613  0.6740
27432SOL     OW85697   3.955   1.497   7.999  0.7907  0.6116  0.0926
27432SOL    HW185698   3.898   1.551   7.944  0.1280 -0.0717  0.0896
27432SOL    HW285699   4.006   1.444   7.938 -0.5581 -0.7771  0.0926
27433SOL     OW85700  10.160   3.912   6.977  0.3541 -0.0509 -0.3569
27433SOL    HW185701  10.255   3.916   6.966  0.3436  1.6591 -0.1094
27433SOL    HW285702  10.146   3.862   7.057  1.0181 -0.5303 -0.5311
27434SOL     OW85703   5.095   0.655   9.621 -0.5082 -0.1256  0.0460
27434SOL    HW185704   5.105   0.626   9.712 -0.3885 -0.6824 -0.1425
27434SOL    HW285705   5.006   0.687   9.616 -0.3518  0.3910  0.4968
27435SOL     OW85706   2.364  10.715   1.529  0.0966  0.5407 -0.3809
27435SOL    HW185707   2.336  10.637   1.480  1.1124 -0.5750  0.7469
27435SOL    HW285708   2.283  10.760   1.552 -0.4617  0.3008 -1.7958
27436SOL     OW85709   7.786  10.306   4.349  0.2855  0.1141 -0.7694
27436SOL    HW185710   7.713  10.316   4.288  0.3734 -0.0740 -0.9079
27436SOL    HW285711   7.748  10.319   4.436  0.2074  0.6349 -0.8820
27437SOL     OW85712   3.101   8.785   5.939  0.0234  0.1005 -0.0333
27437SOL    HW185713   3.030   8.780   6.002  1.1621  1.0632  1.3849
27437SOL    HW285714   3.151   8.705   5.952  0.6288  0.5901  0.8023
27438SOL     OW85715  10.484   8.102   9.397  0.3832  0.2626 -0.5083
27438SOL    HW185716  10.397   8.139   9.380  0.1516  0.8919  1.7061
27438SOL    HW285717  10.543   8.153   9.341 -0.6496 -0.2493 -2.1286
27439SOL     OW85718   2.457   4.255   7.274  0.0757  0.7543  0.5920
27439SOL    HW185719   2.523   4.222   7.335 -1.3294  0.7089  2.1326
27439SOL    HW285720   2.444   4.346   7.299 -0.5950  0.7072  0.4253
27440SOL     OW85721   9.430   2.304   2.396 -0.0182 -0.3802 -0.2305
27440SOL    HW185722   9.344   2.291   2.356  0.6239 -3.3885 -0.9114
27440SOL    HW285723   9.418   2.379   2.454 -1.9148  2.0307 -3.4095
27441SOL     OW85724   7.636   5.606   7.258  0.7380  0.5099 -0.0060
27441SOL    HW185725   7.606   5.550   7.186 -0.7821 -1.4409  2.0112
27441SOL    HW285726   7.721   5.568   7.283  0.6495  0.3770  0.0891
27442SOL     OW85727   5.453   0.668   6.412  0.0288  0.0420 -0.0067
27442SOL    HW185728   5.424   0.653   6.502 -1.8764  1.1993 -0.3746
27442SOL    HW285729   5.414   0.597   6.362  1.3009 -0.7507  0.0748
27443SOL     OW85730   4.345   4.216   5.419 -0.5110  0.0960  0.5135
27443SOL    HW185731   4.265   4.164   5.430 -1.1329  0.5899 -1.3646
27443SOL    HW285732   4.314   4.302   5.390  0.6627  0.5758  0.6403
27444SOL     OW85733  10.069   2.200   8.840 -0.1772 -0.2080  0.1950
27444SOL    HW185734  10.071   2.180   8.746 -0.3691  1.2352 -0.1409
27444SOL    HW285735  10.130   2.273   8.850  0.8848 -1.2161  1.4437
27445SOL     OW85736   3.653   4.421   0.991  0.8513 -0.1200  0.1979
27445SOL    HW185737   3.645   4.422   0.895  0.7388 -1.4740  0.1694
27445SOL    HW285738   3.662   4.513   1.015 -0.2893  0.3492 -1.0187
27446SOL     OW85739   3.425  10.785   5.385  0.0485 -0.4058 -0.3118
27446SOL    HW185740   3.442  10.705   5.435 -2.8234 -0.0416  1.4912
27446SOL    HW285741   3.349  10.763   5.330 -0.4157  0.8689 -0.2115
27447SOL     OW85742   3.345   4.075   0.282  0.2542  0.7057  0.0145
27447SOL    HW185743   3.300   4.132   0.344 -0.1008  0.0761  0.3475
27447SOL    HW285744   3.281   4.059   0.213 -1.0076 -2.1033  1.6259
27448SOL     OW85745   0.496   4.464  10.147  0.8124  0.3776  0.5053
27448SOL    HW185746   0.588   4.448  10.130 -0.0329 -3.7409 -1.2508
27448SOL    HW285747   0.453   4.454  10.062 -1.3487  1.6448  1.3601
27449SOL     OW85748   6.882  10.765   4.693  0.0964 -0.0999 -0.1392
27449SOL    HW185749   6.835  10.777   4.610  0.7496 -1.4375 -0.7235
27449SOL    HW285750   6.949  10.834   4.692 -0.9465  0.9632  0.0876
27450SOL     OW85751   0.068   4.840   2.304 -0.2735  0.2415 -0.1785
27450SOL    HW185752   0.084   4.816   2.213  0.5102 -0.8732  0.2264
27450SOL    HW285753   0.088   4.760   2.353  0.3651  1.1444  1.0685
27451SOL     OW85754   1.760   3.365   2.545 -0.4482  0.2085 -0.4363
27451SOL    HW185755   1.829   3.432   2.551 -0.0841 -0.0416 -1.4924
27451SOL    HW285756   1.803   3.284   2.573 -0.9670  0.4376  1.1166
27452SOL     OW85757   3.060   3.802   7.718  0.3798  0.8217 -0.2252
27452SOL    HW185758   3.068   3.883   7.768  0.8908  0.5376  0.1654
27452SOL    HW285759   3.102   3.736   7.773  0.9007  0.4918 -0.9990
27453SOL     OW85760   9.995   0.373   1.375  0.0630  0.0339  0.1860
27453SOL    HW185761   9.981   0.465   1.398 -0.2564 -0.3019  1.4459
27453SOL    HW285762   9.925   0.352   1.314  0.2417  0.6750 -0.2430
27454SOL     OW85763   9.305   5.888   2.922  0.1018 -0.3006  0.3271
27454SOL    HW185764   9.213   5.876   2.943 -0.4870  1.9784 -0.5914
27454SOL    HW285765   9.330   5.969   2.966  1.9040 -1.2581  1.1682
27455SOL     OW85766   1.945   8.555  10.033  0.2491 -0.0846  0.0515
27455SOL    HW185767   1.974   8.562   9.942 -0.1185 -1.1027 -0.1550
27455SOL    HW285768   2.025   8.538  10.083  0.6176  1.5573  0.0887
27456SOL     OW85769   5.743  10.418   4.641  0.4338  0.4887  0.2224
27456SOL    HW185770   5.773  10.414   4.550  0.1248 -1.1430  0.1539
27456SOL    HW285771   5.822  10.401   4.693  0.4133  0.3626  0.2127
27457SOL     OW85772   1.700  10.904   8.906  0.3395 -0.0133 -0.5220
27457SOL    HW185773   1.781  10.865   8.871  0.7215 -0.0528  0.3823
27457SOL    HW285774   1.710  10.998   8.891  2.3496  0.4959  2.9819
27458SOL     OW85775   4.699  10.210   1.573  0.1640 -0.1741 -0.1120
27458SOL    HW185776   4.719  10.136   1.630  2.6798 -1.2737 -2.2299
27458SOL    HW285777   4.604  10.206   1.562 -0.1940 -0.9589  2.4867
27459SOL     OW85778   7.441   3.745   8.476 -0.0851 -0.7516 -0.3106
27459SOL    HW185779   7.352   3.710   8.471 -0.2952 -0.2314 -0.3104
27459SOL    HW285780   7.496   3.675   8.444 -0.5275 -0.9703 -0.6056
27460SOL     OW85781   0.229   3.560   7.093 -0.0915 -0.1224 -0.3818
27460SOL    HW185782   0.193   3.599   7.173  1.7614  1.1880 -0.1410
27460SOL    HW285783   0.164   3.495   7.068 -0.5374 -0.9072  2.4391
27461SOL     OW85784   3.970   8.170   0.025  0.6862 -0.3148  0.1317
27461SOL    HW185785   4.013   8.179  -0.060  0.8088 -1.3702  0.0672
27461SOL    HW285786   3.984   8.254   0.068  0.1300  0.4265 -1.1074
27462SOL     OW85787   2.076   4.467   3.383  0.1024 -0.3014 -0.1704
27462SOL    HW185788   2.162   4.468   3.426 -0.4653  0.0400  1.0277
27462SOL    HW285789   2.014   4.477   3.456 -0.9771 -1.1570 -0.9471
27463SOL     OW85790   8.728   3.810   5.098  0.2935 -0.5319 -0.4561
27463SOL    HW185791   8.790   3.773   5.036  0.1189  0.5638 -1.3122
27463SOL    HW285792   8.653   3.838   5.045  0.7243  1.6985 -0.0225
27464SOL     OW85793   6.986   7.921   6.090  1.1210  0.4194 -0.5191
27464SOL    HW185794   6.931   7.999   6.084  0.9532  0.2819 -0.7744
27464SOL    HW285795   6.938   7.853   6.042  0.7595 -0.1432  0.6214
27465SOL     OW85796   9.015  10.166   4.789  0.2101  0.2040 -0.2512
27465SOL    HW185797   8.968  10.103   4.734  0.4135 -0.4273  0.2881
27465SOL    HW285798   9.098  10.179   4.744  0.0395  0.3363 -0.5324
27466SOL     OW85799   4.180   4.673   2.937  0.1839 -0.1990 -0.1801
27466SOL    HW185800   4.148   4.585   2.956 -0.7829  0.2044  0.0979
27466SOL    HW285801   4.136   4.729   3.000  0.2191  0.5841 -0.8335
27467SOL     OW85802   2.202   5.819   1.734  0.4726 -0.2274  0.3776
27467SOL    HW185803   2.181   5.869   1.656  0.1738 -0.0294  0.5814
27467SOL    HW285804   2.122   5.823   1.787  0.1857 -1.5571  0.0630
27468SOL     OW85805   1.314   7.494   9.080 -0.5444 -0.4811 -0.5583
27468SOL    HW185806   1.321   7.399   9.094 -0.5447 -0.3477  0.4223
27468SOL    HW285807   1.320   7.505   8.986  0.4422 -1.3837 -0.6167
27469SOL     OW85808   7.767   0.379  10.471  0.5655  0.5940 -0.3638
27469SOL    HW185809   7.805   0.356  10.387  0.7193  0.9202 -0.3863
27469SOL    HW285810   7.678   0.409  10.450  0.1367 -0.5610 -0.2690
27470SOL     OW85811   8.852   1.396   6.516 -0.2982  0.1472  0.1457
27470SOL    HW185812   8.940   1.434   6.519  0.1474 -0.8654  0.4002
27470SOL    HW285813   8.834   1.372   6.607 -1.6491  2.0780  0.4501
27471SOL     OW85814   9.448   5.087   8.560  0.4118  0.3387  0.3451
27471SOL    HW185815   9.502   5.107   8.637  3.0397  0.4667 -1.3923
27471SOL    HW285816   9.476   4.999   8.534 -3.8440 -1.8599  2.1032
27472SOL     OW85817   3.985   5.596   2.390 -0.5446 -0.0505 -0.5550
27472SOL    HW185818   3.940   5.624   2.469 -0.3383 -2.0769  0.3186
27472SOL    HW285819   4.075   5.581   2.417 -0.0442  0.9249 -1.5884
27473SOL     OW85820   5.997   8.013   6.503  0.9049  0.5657 -0.5192
27473SOL    HW185821   5.951   7.938   6.542  0.1925  1.1163 -0.2783
27473SOL    HW285822   6.084   7.979   6.483  0.8026 -0.1583  0.1740
27474SOL     OW85823   7.216   4.165   8.759  0.1004  0.3542 -0.0347
27474SOL    HW185824   7.245   4.229   8.695 -0.5546 -0.6832 -1.4183
27474SOL    HW285825   7.246   4.080   8.725 -3.0169 -0.6165 -0.7786
27475SOL     OW85826   0.930   3.399   6.329 -0.0606 -0.0592  0.2359
27475SOL    HW185827   0.945   3.468   6.394 -1.1624 -1.3909  1.9861
27475SOL    HW285828   1.000   3.336   6.346 -2.2711 -2.0803  2.5752
27476SOL     OW85829   4.643   9.657   0.883 -1.0618  0.4877  0.2773
27476SOL    HW185830   4.569   9.602   0.911 -1.7908  1.7684  1.0159
27476SOL    HW285831   4.614   9.746   0.902  0.2436  1.1054 -0.4985
27477SOL     OW85832   0.135  10.569   9.478  0.0870  0.2688  0.0997
27477SOL    HW185833   0.090  10.606   9.403 -0.0267 -0.8637 -0.4111
27477SOL    HW285834   0.221  10.543   9.444  0.2450  0.2682  0.4953
27478SOL     OW85835   1.369   7.204   0.777  0.0300 -0.7723 -0.6103
27478SOL    HW185836   1.351   7.265   0.848 -0.5392 -0.0421 -1.3591
27478SOL    HW285837   1.464   7.208   0.766 -0.0232  0.2016 -0.8313
27479SOL     OW85838   3.472   9.650   6.815 -0.4456 -0.6008 -0.2566
27479SOL    HW185839   3.537   9.660   6.745  1.5109 -1.5306  1.3297
27479SOL    HW285840   3.439   9.561   6.805 -1.2924 -0.2272 -0.8826
27480SOL     OW85841   5.345   3.934  10.839  0.3404 -0.3176 -0.1933
27480SOL    HW185842   5.368   3.919  10.747  0.4876 -1.2468 -0.0212
27480SOL    HW285843   5.328   4.028  10.845  2.6619  0.2134 -0.6589
27481SOL     OW85844   1.024   4.227   7.893 -0.1898  0.1419 -0.0082
27481SOL    HW185845   0.952   4.173   7.859  1.2902 -1.2146 -1.1304
27481SOL    HW285846   1.018   4.308   7.843  0.2510 -0.7526 -1.5739
27482SOL     OW85847   9.726   2.043   7.331  0.2095  0.4347 -0.4081
27482SOL    HW185848   9.729   1.993   7.413 -0.1674  0.0545 -0.6256
27482SOL    HW285849   9.650   2.100   7.341  0.1456  0.3665 -0.5088
27483SOL     OW85850   3.293   1.608   7.212  0.4557 -0.3515  0.0509
27483SOL    HW185851   3.198   1.601   7.201  0.2870  1.6743 -0.0586
27483SOL    HW285852   3.328   1.579   7.128  0.0010 -1.8950  0.3656
27484SOL     OW85853   5.014   8.667   9.712 -0.0964  0.0859  0.3230
27484SOL    HW185854   4.970   8.665   9.797  0.4924  0.2726  0.6373
27484SOL    HW285855   4.963   8.728   9.660 -0.0318  0.5403  0.7870
27485SOL     OW85856   4.515   4.701  10.333  0.3313 -0.2912  0.6006
27485SOL    HW185857   4.606   4.732  10.333 -0.6829  3.0869 -0.4627
27485SOL    HW285858   4.502   4.667  10.422  2.1935  0.5477  1.2592
27486SOL     OW85859   3.802   1.268   0.848  0.2882  0.6131 -0.0582
27486SOL    HW185860   3.843   1.354   0.858 -0.3657  0.7649  1.5637
27486SOL    HW285861   3.872   1.206   0.867  1.5156  0.6027 -3.8017
27487SOL     OW85862   8.548   5.042   6.726  0.5907  0.5425 -0.2331
27487SOL    HW185863   8.566   4.962   6.675  0.9728  0.4970 -0.0334
27487SOL    HW285864   8.501   5.099   6.665 -0.8778 -0.3382  0.0189
27488SOL     OW85865   6.019   2.667   9.626 -0.3132  0.3496  0.0904
27488SOL    HW185866   6.081   2.709   9.567 -1.4587  1.0052 -0.6940
27488SOL    HW285867   6.071   2.642   9.702  0.6234  2.1776  0.0942
27489SOL     OW85868   0.822   8.315   5.942 -0.2196 -0.1392  0.4612
27489SOL    HW185869   0.755   8.269   5.891 -1.7891  2.6184 -0.2134
27489SOL    HW285870   0.780   8.333   6.026 -0.3313  1.4564  0.1018
27490SOL     OW85871   6.880   6.859  10.674  0.5528  0.5939  0.1136
27490SOL    HW185872   6.916   6.795  10.735  1.2193 -0.1326 -1.0040
27490SOL    HW285873   6.948   6.870  10.608 -0.7406  0.1730 -1.3389
27491SOL     OW85874   4.574   6.070   9.555  0.5218  0.3728 -0.0492
27491SOL    HW185875   4.625   6.146   9.582  0.7007  0.8055 -1.5159
27491SOL    HW285876   4.491   6.107   9.523  1.3211  0.1939 -2.5616
27492SOL     OW85877   6.556   2.364   1.654 -0.1173 -0.0395 -0.2772
27492SOL    HW185878   6.508   2.438   1.692 -0.3643  0.2172 -1.0594
27492SOL    HW285879   6.504   2.287   1.678  1.0665 -0.1903  2.0490
27493SOL     OW85880   7.096   9.518   7.439 -0.4691 -0.5619  0.0121
27493SOL    HW185881   7.051   9.449   7.391 -1.1758 -0.2031  0.1426
27493SOL    HW285882   7.085   9.495   7.531 -0.4548 -0.4313  0.0475
27494SOL     OW85883   3.864   4.425   3.871 -0.1948 -0.4796  0.0641
27494SOL    HW185884   3.787   4.374   3.845 -0.5244  0.1187 -0.1459
27494SOL    HW285885   3.903   4.374   3.942  0.7539 -2.1922 -1.5712
27495SOL     OW85886   7.217   9.815   2.503  0.1783  0.2184 -0.3755
27495SOL    HW185887   7.258   9.764   2.433  3.6506  0.3192  1.3506
27495SOL    HW285888   7.186   9.894   2.460 -0.4382 -0.9393 -2.2049
27496SOL     OW85889   4.977   5.405   7.597 -0.4003 -0.4510  0.4153
27496SOL    HW185890   5.031   5.467   7.549 -0.1006  1.0411  2.5437
27496SOL    HW285891   5.032   5.377   7.670 -0.4810 -3.4048 -0.5461
27497SOL     OW85892  10.069   5.368   2.865  0.3730 -0.0337  0.0135
27497SOL    HW185893  10.104   5.359   2.777 -1.3866 -2.6818 -0.5508
27497SOL    HW285894   9.974   5.356   2.854  0.0881 -0.1851  2.2175
27498SOL     OW85895   9.690   1.564  10.895  0.4211 -0.6910  0.1930
27498SOL    HW185896   9.600   1.534  10.908  0.2762  0.0430  0.9414
27498SOL    HW285897   9.709   1.543  10.803 -0.7016 -0.3415 -0.1345
27499SOL     OW85898   3.386   9.640   0.672 -0.2584 -0.4406  0.2971
27499SOL    HW185899   3.344   9.722   0.698 -0.0720  0.2050 -1.3324
27499SOL    HW285900   3.313   9.579   0.658 -0.5019 -0.0614 -0.0976
27500SOL     OW85901  10.148   7.375   8.972  0.5199 -0.0747  0.5060
27500SOL    HW185902  10.078   7.431   8.937  0.2826 -0.4747  0.3296
27500SOL    HW285903  10.113   7.286   8.965  1.9505 -0.5448 -1.8267
27501SOL     OW85904   2.077   0.178   4.062  0.2734  0.2137 -0.4116
27501SOL    HW185905   2.146   0.115   4.083  0.5398  0.4816 -0.4666
27501SOL    HW285906   2.022   0.134   3.998  1.0335  0.4009 -1.2118
27502SOL     OW85907   1.168   3.407   7.990 -0.2022  0.3636 -0.3171
27502SOL    HW185908   1.263   3.394   7.996 -0.3248 -0.1262  0.8030
27502SOL    HW285909   1.131   3.333   8.038 -1.1184  1.4529  0.6993
27503SOL     OW85910   3.166   1.601   1.070 -0.5742 -0.4549  0.3321
27503SOL    HW185911   3.197   1.688   1.095  0.3168 -0.6991  0.1357
27503SOL    HW285912   3.246   1.547   1.068 -1.3139 -1.7258  2.2649
27504SOL     OW85913   4.152   6.591   0.705 -0.4368 -0.4043 -0.0668
27504SOL    HW185914   4.059   6.604   0.687 -0.3332  1.3797  0.4723
27504SOL    HW285915   4.181   6.674   0.745  1.8397 -0.1047 -2.0852
27505SOL     OW85916   4.960   3.178   4.691 -0.4273  0.1345 -0.2376
27505SOL    HW185917   4.900   3.245   4.660  0.2532  0.1727 -1.5251
27505SOL    HW285918   4.916   3.095   4.671  0.0444  0.1573 -1.4222
27506SOL     OW85919   8.632   3.638   2.298 -0.0421  0.5703 -0.6129
27506SOL    HW185920   8.539   3.630   2.274  0.0613  0.2717 -0.9084
27506SOL    HW285921   8.630   3.663   2.391 -0.4054 -0.0145 -0.4598
27507SOL     OW85922  10.051   3.858   0.687  0.6333 -0.2345  0.7580
27507SOL    HW185923   9.974   3.831   0.737 -1.2076 -0.5375 -2.0115
27507SOL    HW285924  10.092   3.775   0.659 -0.9299 -0.2530 -1.7985
27508SOL     OW85925   7.592  10.001  10.874  0.0122 -0.3149 -0.5429
27508SOL    HW185926   7.667   9.985  10.817 -1.1726  0.2104 -2.3434
27508SOL    HW285927   7.583  10.096  10.875  1.7278 -0.0577  2.9586
27509SOL     OW85928   3.121   8.730   1.141 -0.3681  0.7249 -0.1159
27509SOL    HW185929   3.044   8.706   1.089 -0.1457  1.6096 -0.8687
27509SOL    HW285930   3.195   8.700   1.090 -0.1825  0.5286  0.2636
27510SOL     OW85931   2.276   6.072   6.616 -0.3899 -0.2833  0.2046
27510SOL    HW185932   2.206   6.009   6.596  0.3963 -0.9898 -0.4108
27510SOL    HW285933   2.348   6.046   6.559 -0.5507  2.1556 -1.2814
27511SOL     OW85934   1.259   2.220   1.163 -0.1841 -0.2353  0.3002
27511SOL    HW185935   1.307   2.293   1.202  3.3280 -2.0425 -0.2782
27511SOL    HW285936   1.306   2.142   1.192 -1.6609 -2.0774 -1.9196
27512SOL     OW85937   5.582   8.037   3.693  0.2750 -0.0991  0.1435
27512SOL    HW185938   5.624   8.050   3.609 -1.7412 -1.9011 -1.2590
27512SOL    HW285939   5.495   8.075   3.683  0.1300  0.0129  1.5628
27513SOL     OW85940   2.881   5.706   0.160  0.1883 -0.3345 -0.1745
27513SOL    HW185941   2.869   5.769   0.231  1.6236  1.9372 -1.8316
27513SOL    HW285942   2.793   5.692   0.125 -0.3280 -0.3611  1.0930
27514SOL     OW85943   9.766   7.533   7.169  0.4534 -0.3261 -0.1491
27514SOL    HW185944   9.705   7.499   7.234 -0.0293 -0.4258 -0.6501
27514SOL    HW285945   9.810   7.455   7.134 -1.0709 -0.5486 -1.7198
27515SOL     OW85946   7.729   5.241  10.107 -0.4219  0.4727  0.0215
27515SOL    HW185947   7.691   5.251  10.020  0.1678  0.5694 -0.2266
27515SOL    HW285948   7.823   5.255  10.094 -0.4072  1.1541  0.7799
27516SOL     OW85949   3.804   2.795   5.300  0.5604  0.1029  0.5377
27516SOL    HW185950   3.821   2.758   5.386  0.9424 -0.8760  0.0491
27516SOL    HW285951   3.829   2.726   5.238 -0.4825  0.4871 -0.3368
27517SOL     OW85952   9.218   9.502   8.027 -0.2995  0.3740  0.2278
27517SOL    HW185953   9.268   9.511   7.946 -0.8309  0.3407 -0.1075
27517SOL    HW285954   9.281   9.523   8.097  0.3319 -0.2205 -0.1515
27518SOL     OW85955   5.603   0.045   7.106 -0.3271  0.0459 -0.2202
27518SOL    HW185956   5.589  -0.046   7.132 -1.2628  0.4522  0.7916
27518SOL    HW285957   5.519   0.087   7.121  0.3786  1.3099  0.3591
27519SOL     OW85958   8.403   5.509   8.819  0.7868 -0.2168 -0.1822
27519SOL    HW185959   8.487   5.518   8.864  0.4828  1.0872  0.1790
27519SOL    HW285960   8.392   5.415   8.806  2.1298 -0.4270  0.0876
27520SOL     OW85961   5.172   3.657   2.044 -0.0188  0.1292 -0.2646
27520SOL    HW185962   5.105   3.723   2.056  0.1683  0.2856 -0.0690
27520SOL    HW285963   5.211   3.677   1.959 -1.6591 -1.2611 -1.4049
27521SOL     OW85964   5.162   6.759   5.363  0.9291 -0.2185 -1.3437
27521SOL    HW185965   5.255   6.783   5.355  1.1783 -1.1242 -1.2738
27521SOL    HW285966   5.135   6.739   5.273  0.5376  0.9360 -1.4997
27522SOL     OW85967   9.074   2.071   2.597 -0.3006  0.3386  0.2981
27522SOL    HW185968   9.048   2.135   2.663  0.4668 -0.4683  1.4220
27522SOL    HW285969   8.991   2.040   2.560 -0.6810  1.8365 -0.1438
27523SOL     OW85970   9.822   4.799   4.912  0.1128  0.3579  0.0625
27523SOL    HW185971   9.796   4.891   4.904  0.1027  0.2906 -0.7724
27523SOL    HW285972   9.911   4.802   4.948  0.3845  0.7319 -0.6185
27524SOL     OW85973   0.870   7.442   9.391 -0.1025  0.0288 -0.0742
27524SOL    HW185974   0.930   7.387   9.442 -0.7960 -0.4478  0.2576
27524SOL    HW285975   0.890   7.531   9.419  0.0060 -0.1744  0.5319
27525SOL     OW85976   3.007   4.784   9.305 -0.2846  0.6490 -0.3537
27525SOL    HW185977   3.037   4.834   9.230  2.9082  0.5281  0.6907
27525SOL    HW285978   2.960   4.847   9.360  1.8869  2.0640 -0.0352
27526SOL     OW85979   8.566   0.391   8.351 -0.0288  0.0887 -0.2685
27526SOL    HW185980   8.487   0.371   8.401  0.1413  1.6213  0.6724
27526SOL    HW285981   8.549   0.476   8.311  0.6166 -0.2085 -1.2140
27527SOL     OW85982   2.093   5.790   5.623  0.2954  0.2246  0.1852
27527SOL    HW185983   2.179   5.768   5.659  0.4380  1.3422  0.5597
27527SOL    HW285984   2.094   5.753   5.534  0.5489 -1.1334  0.7297
27528SOL     OW85985   7.314   5.062   4.277 -0.2794 -0.1341 -0.2647
27528SOL    HW185986   7.259   4.994   4.318 -0.0322 -1.0318 -1.3831
27528SOL    HW285987   7.280   5.070   4.188  0.9852 -0.2418 -0.7747
27529SOL     OW85988   9.781   2.177   1.835  0.0391 -0.0162 -0.1544
27529SOL    HW185989   9.712   2.111   1.830  2.0874 -2.3454  0.2455
27529SOL    HW285990   9.813   2.185   1.746  0.7689 -0.7553  0.0214
27530SOL     OW85991   9.766   0.621   6.544 -0.0334  0.1089  0.3910
27530SOL    HW185992   9.729   0.641   6.630  3.0571 -0.1138  1.8944
27530SOL    HW285993   9.689   0.610   6.488 -2.1699  1.2586  2.8443
27531SOL     OW85994   5.074   0.247   7.582 -0.3183 -0.1073  0.3769
27531SOL    HW185995   5.141   0.265   7.648  1.4280  0.8230 -1.5431
27531SOL    HW285996   5.117   0.186   7.522 -0.7827  1.2972 -1.4463
27532SOL     OW85997   9.500  10.411   8.110 -0.4152  0.3411 -0.0410
27532SOL    HW185998   9.557  10.371   8.044  0.0285  2.1645 -0.8320
27532SOL    HW285999   9.554  10.480   8.149 -1.2817  0.4782  0.9556
27533SOL     OW86000  10.655   8.805   9.346  0.5535  0.3490 -0.6736
27533SOL    HW186001  10.618   8.826   9.260 -0.4775  1.5690  0.0354
27533SOL    HW286002  10.624   8.875   9.403  2.4927  0.4137  0.3777
27534SOL     OW86003   9.443   5.512   7.053 -0.2940  0.8908 -0.6441
27534SOL    HW186004   9.408   5.583   6.999 -0.1841 -0.6967 -2.9274
27534SOL    HW286005   9.512   5.473   7.000 -0.5754 -1.1303  0.3955
27535SOL     OW86006   9.169   1.797   2.907 -0.3213  0.3871 -0.3462
27535SOL    HW186007   9.157   1.881   2.951  2.1451  0.3935  0.5120
27535SOL    HW286008   9.131   1.810   2.820 -1.4999  1.8013  0.3282
27536SOL     OW86009   7.715   4.019   3.621  0.4692  0.0885  0.0276
27536SOL    HW186010   7.767   3.940   3.635  1.9802  0.8972 -0.8116
27536SOL    HW286011   7.685   4.043   3.709 -0.3734 -1.6194  0.2437
27537SOL     OW86012   8.927  10.873   5.744 -0.2686  0.9565 -0.4114
27537SOL    HW186013   8.912  10.856   5.837 -1.1262 -1.5442 -0.9400
27537SOL    HW286014   9.021  10.858   5.732 -0.5353 -1.0108 -0.3242
27538SOL     OW86015   4.632   7.090   5.024 -0.2235  0.1475 -0.3818
27538SOL    HW186016   4.652   6.998   5.003 -0.6910 -0.2373  0.8021
27538SOL    HW286017   4.548   7.087   5.068 -0.1246  1.1338 -0.1085
27539SOL     OW86018   8.945   3.359   8.037 -0.3557  0.1984  0.0854
27539SOL    HW186019   8.860   3.349   7.993 -0.8989  3.1740  0.2694
27539SOL    HW286020   8.931   3.321   8.124 -1.6644  1.0172  0.2592
27540SOL     OW86021   6.282   6.051  10.525  0.1541 -0.1082  0.2788
27540SOL    HW186022   6.194   6.074  10.557  0.2475  0.8548 -0.1089
27540SOL    HW286023   6.274   6.057  10.430  1.4798  3.6212  0.2161
27541SOL     OW86024   5.140   9.572  10.318 -0.0177 -0.1710  0.1392
27541SOL    HW186025   5.149   9.476  10.321  0.8264 -0.3095 -2.9400
27541SOL    HW286026   5.221   9.605  10.357  1.1494 -0.8649 -1.5480
27542SOL     OW86027   6.384   9.475   1.204  0.7054  0.4677  0.3294
27542SOL    HW186028   6.442   9.409   1.165  1.0208  0.4154  0.8772
27542SOL    HW286029   6.319   9.493   1.136 -0.6026 -1.8830  0.8297
27543SOL     OW86030   3.906  10.733   6.310 -0.6365  0.5631  0.4693
27543SOL    HW186031   3.905  10.814   6.360  2.0168  2.0940 -1.7001
27543SOL    HW286032   3.842  10.746   6.240 -1.6657 -0.1049  1.2435
27544SOL     OW86033   5.474   7.656   4.302 -0.0316 -0.0135 -0.3012
27544SOL    HW186034   5.409   7.669   4.372  1.0328  0.8097  0.5771
27544SOL    HW286035   5.431   7.691   4.223 -1.0256 -0.3999  0.0528
27545SOL     OW86036   2.389   1.646   7.910 -0.1479 -0.0852 -0.6795
27545SOL    HW186037   2.413   1.694   7.831  1.7878  0.1437 -0.0196
27545SOL    HW286038   2.461   1.583   7.921  0.3846  0.8496  1.6448
27546SOL     OW86039   9.215   3.513   9.452  0.1325  0.0663 -0.4621
27546SOL    HW186040   9.227   3.584   9.515  0.1206 -0.3441  0.0172
27546SOL    HW286041   9.125   3.523   9.420  0.7634  1.4419 -1.9014
27547SOL     OW86042  10.114   2.925   7.137 -0.2354  0.4986  0.5390
27547SOL    HW186043  10.026   2.888   7.135 -0.8225  1.8444  0.4359
27547SOL    HW286044  10.100   3.020   7.147  1.2099  0.6624  1.3069
27548SOL     OW86045   2.862   1.237   8.273  0.1283 -0.6412  0.5862
27548SOL    HW186046   2.825   1.243   8.185  1.2065  1.4600  0.2132
27548SOL    HW286047   2.946   1.194   8.260  0.0481 -0.8188  0.6628
27549SOL     OW86048   2.755   5.239   6.766 -0.0139  0.0302  0.3802
27549SOL    HW186049   2.708   5.182   6.828 -0.1153  1.7130  1.9318
27549SOL    HW286050   2.831   5.270   6.815  1.9511 -1.3789 -1.5725
27550SOL     OW86051   8.883  10.288   3.589 -0.7517 -0.2053  0.5943
27550SOL    HW186052   8.812  10.278   3.653 -1.7777  2.5068  0.0397
27550SOL    HW286053   8.861  10.226   3.519  0.7502 -3.7322  2.9354
27551SOL     OW86054   8.874   8.638   2.643  0.4667 -0.1583 -0.3038
27551SOL    HW186055   8.780   8.618   2.642  0.2626  0.1488  2.7352
27551SOL    HW286056   8.916   8.556   2.615 -0.6623 -0.9461  0.2192
27552SOL     OW86057   8.631   3.156   8.389 -0.0295  0.1437  0.7542
27552SOL    HW186058   8.612   3.165   8.295 -0.0466  1.3150  0.8519
27552SOL    HW286059   8.544   3.148   8.430  0.0199 -2.7964  0.5038
27553SOL     OW86060   0.890   5.277   0.827 -0.3834  0.7076  0.4408
27553SOL    HW186061   0.926   5.250   0.743  0.3169  0.5103  0.8001
27553SOL    HW286062   0.797   5.253   0.822 -0.3709  0.7789 -0.3023
27554SOL     OW86063   9.919   6.887   9.578  0.8138 -0.0661  1.1263
27554SOL    HW186064  10.008   6.889   9.613  1.0638 -1.9505  0.6824
27554SOL    HW286065   9.925   6.835   9.498  0.0048  2.9889 -1.1073
27555SOL     OW86066   4.394   3.630   8.551 -0.6046  0.6437 -0.3473
27555SOL    HW186067   4.387   3.724   8.536 -1.4860  0.5332 -0.6726
27555SOL    HW286068   4.323   3.592   8.500 -2.0523  0.0280  1.9784
27556SOL     OW86069   0.999   5.057   9.323 -0.2723 -0.2260  0.1232
27556SOL    HW186070   0.928   5.096   9.374  0.5514  0.2386  0.9327
27556SOL    HW286071   1.064   5.127   9.315 -0.8656  0.1293 -2.6160
27557SOL     OW86072   1.000   0.373   3.766 -0.7760  0.3101  0.3704
27557SOL    HW186073   0.911   0.340   3.780 -0.2420 -0.3331  2.6525
27557SOL    HW286074   1.013   0.437   3.836  0.8122 -0.1711  0.5529
27558SOL     OW86075   3.399   3.737   3.355  0.1470 -0.0623  0.0213
27558SOL    HW186076   3.403   3.797   3.430 -2.4507 -0.1077  0.2930
27558SOL    HW286077   3.324   3.768   3.304  1.8955 -0.0101 -2.6526
27559SOL     OW86078   3.999   7.024   9.611 -0.0557  0.1474  0.0983
27559SOL    HW186079   4.009   7.101   9.667 -3.1793  1.1841 -0.5255
27559SOL    HW286080   4.004   6.949   9.670 -1.9380  1.1477  1.6169
27560SOL     OW86081   5.555   1.523   1.897  0.2987  1.3311  0.1480
27560SOL    HW186082   5.506   1.562   1.970  0.4050  0.9723  0.4112
27560SOL    HW286083   5.629   1.480   1.938 -0.4435 -0.1518 -0.0198
27561SOL     OW86084   2.082   7.716   6.210 -0.1790  0.3783 -0.3201
27561SOL    HW186085   2.047   7.691   6.125 -0.2469 -0.0960 -0.1512
27561SOL    HW286086   2.119   7.803   6.195 -1.2892  0.8362 -0.5410
27562SOL     OW86087   4.676   7.437   3.851 -0.6333  0.2632 -0.2811
27562SOL    HW186088   4.697   7.371   3.918 -0.8102 -1.2531 -1.6676
27562SOL    HW286089   4.732   7.414   3.777  0.4404  2.6304 -0.2970
27563SOL     OW86090  10.885   0.994   9.889  0.3830 -0.0660 -0.6300
27563SOL    HW186091  10.956   0.948   9.844 -0.1310  1.1719 -2.8827
27563SOL    HW286092  10.828   1.024   9.818 -1.3744  0.6243  0.9996
27564SOL     OW86093   6.653   3.805   2.979  0.4601 -0.2302 -0.2357
27564SOL    HW186094   6.563   3.832   2.993  0.6704  0.7161 -0.6416
27564SOL    HW286095   6.650   3.750   2.901 -0.1090 -2.2142  1.1102
27565SOL     OW86096   9.867   0.997   0.013 -0.1363 -0.4836 -0.3499
27565SOL    HW186097   9.948   0.985  -0.037 -0.5825  0.5496 -1.3648
27565SOL    HW286098   9.823   0.912   0.009  1.1641 -1.2351  0.7319
27566SOL     OW86099   3.771   1.238   9.904  0.4126  0.0042 -0.1287
27566SOL    HW186100   3.713   1.167   9.875  0.2882 -0.2156  0.6268
27566SOL    HW286101   3.737   1.316   9.861 -0.7547 -0.0376  0.6890
27567SOL     OW86102  10.326   8.577   2.886  0.4425 -0.0485 -0.0244
27567SOL    HW186103  10.336   8.665   2.922 -2.0480  0.4574 -0.3863
27567SOL    HW286104  10.256   8.538   2.939 -0.8297 -0.5600 -1.9877
27568SOL     OW86105  10.274   4.302   2.637 -0.1736 -0.0568  0.1863
27568SOL    HW186106  10.270   4.215   2.597  0.6788  0.1805 -0.4441
27568SOL    HW286107  10.288   4.361   2.563 -2.3399  0.8131  0.4032
27569SOL     OW86108   8.346   0.392   2.897  0.6839 -0.0186 -0.0751
27569SOL    HW186109   8.268   0.386   2.842  1.1583 -1.2135 -0.6416
27569SOL    HW286110   8.418   0.365   2.840  1.4793  0.7181  0.5502
27570SOL     OW86111   8.025   5.915   6.334 -0.0514 -0.0835  0.2797
27570SOL    HW186112   7.985   5.992   6.295 -0.5198  0.1723  1.2427
27570SOL    HW286113   8.109   5.906   6.289 -0.6197  0.1208 -0.8623
27571SOL     OW86114   2.686   4.460   0.731 -0.5138 -0.0099  0.2665
27571SOL    HW186115   2.625   4.527   0.700 -1.5336  0.5561  3.1550
27571SOL    HW286116   2.727   4.498   0.808  0.7196 -1.8185  0.5739
27572SOL     OW86117   8.875   6.011   1.806  0.0019 -0.1974  0.2014
27572SOL    HW186118   8.849   5.922   1.828 -0.9189 -0.1828 -0.7369
27572SOL    HW286119   8.837   6.065   1.874 -1.0190 -0.3541 -0.2296
27573SOL     OW86120  10.758   2.432   4.850  0.5929  0.0051  0.7909
27573SOL    HW186121  10.842   2.386   4.840  1.1215  0.6045  2.1545
27573SOL    HW286122  10.781   2.513   4.896 -0.7691  0.0195  1.4974
27574SOL     OW86123  10.446   7.990   1.227 -0.0129  0.2910  0.4238
27574SOL    HW186124  10.525   8.039   1.203 -0.3821  1.3246  1.2423
27574SOL    HW286125  10.479   7.915   1.277  0.5661 -0.3964 -0.9271
27575SOL     OW86126   6.806   5.557   0.115  0.6425 -0.2196  0.4003
27575SOL    HW186127   6.783   5.542   0.207  0.1991  0.4868  0.4115
27575SOL    HW286128   6.763   5.639   0.092 -1.6094 -1.7315 -1.2363
27576SOL     OW86129   2.457   2.705   6.262 -0.0015 -0.4183  0.1428
27576SOL    HW186130   2.532   2.743   6.309 -0.1743 -1.3962  1.2720
27576SOL    HW286131   2.453   2.753   6.179  0.9439  0.6787  0.7065
27577SOL     OW86132   7.423   3.332   7.330  0.2946  0.0977 -0.3888
27577SOL    HW186133   7.496   3.281   7.294  1.2677  0.3121  1.2066
27577SOL    HW286134   7.461   3.418   7.350 -0.3745  0.1946  0.5363
27578SOL     OW86135   0.599   3.977   6.285 -0.1160 -0.0052 -0.2708
27578SOL    HW186136   0.590   4.021   6.200  0.1077 -0.4933 -0.5497
27578SOL    HW286137   0.570   3.887   6.268 -1.1697  0.1792  0.4411
27579SOL     OW86138  10.455   0.839   0.609 -0.0253  0.1362 -0.1556
27579SOL    HW186139  10.403   0.770   0.650 -2.0125 -0.2250 -2.9447
27579SOL    HW286140  10.526   0.792   0.565 -0.1588  0.0976 -0.3299
27580SOL     OW86141   8.469   2.521   4.209  0.3031  0.1365 -0.0995
27580SOL    HW186142   8.391   2.491   4.163  1.1329 -0.9546 -0.8642
27580SOL    HW286143   8.469   2.616   4.197 -1.5849  0.3439  1.0680
27581SOL     OW86144   4.409   5.826   8.628 -0.0488  0.1012 -0.4639
27581SOL    HW186145   4.341   5.889   8.652  1.4279  1.2116  1.0339
27581SOL    HW286146   4.393   5.808   8.535 -2.0004  0.7771 -0.3015
27582SOL     OW86147   1.993   1.535  10.741  0.1805  0.2531  0.3129
27582SOL    HW186148   1.979   1.459  10.797  1.0077  0.1136  0.3300
27582SOL    HW286149   2.024   1.603  10.800 -0.4413  0.5796  0.2763
27583SOL     OW86150   6.397   4.006   0.920 -0.3459  0.5013  0.5167
27583SOL    HW186151   6.332   4.066   0.955  1.1838  0.2305  4.3526
27583SOL    HW286152   6.479   4.055   0.924  0.1769 -0.0754 -1.6193
27584SOL     OW86153   6.309   6.395   0.164 -0.4755 -0.0800 -0.2659
27584SOL    HW186154   6.361   6.476   0.160  0.2692 -0.6089 -1.8799
27584SOL    HW286155   6.224   6.424   0.198  0.3059  1.0787  0.8505
27585SOL     OW86156   3.148   0.050   4.112  0.1217  0.1805  0.0848
27585SOL    HW186157   3.182   0.128   4.156  2.3853 -1.1687  0.8576
27585SOL    HW286158   3.167  -0.022   4.172 -1.0928 -1.1161 -1.0117
27586SOL     OW86159   6.929   8.826   3.879 -0.3494 -0.0392  0.1955
27586SOL    HW186160   6.836   8.824   3.901 -0.0777 -2.7444  1.6102
27586SOL    HW286161   6.941   8.749   3.823  1.2302 -0.5619  1.1968
27587SOL     OW86162   9.368   0.657   4.364 -0.3681 -0.1315 -0.1556
27587SOL    HW186163   9.426   0.682   4.292 -0.2582  0.5092  0.1536
27587SOL    HW286164   9.418   0.592   4.414 -0.7493 -1.1762 -1.0948
27588SOL     OW86165   3.749   4.041   3.157 -0.4117 -0.1610  0.3833
27588SOL    HW186166   3.717   3.956   3.188  0.3874 -0.7809 -0.4360
27588SOL    HW286167   3.676   4.078   3.108  0.1212 -1.6938 -1.7429
27589SOL     OW86168   5.840   1.172   7.006 -0.0156  0.2801 -0.3045
27589SOL    HW186169   5.806   1.194   6.920 -0.2833 -1.8789 -0.8141
27589SOL    HW286170   5.935   1.178   6.997 -0.0121 -0.5290 -0.9588
27590SOL     OW86171   2.246   4.554   6.243  0.3221  0.3643 -0.1250
27590SOL    HW186172   2.283   4.469   6.266  0.8203  0.4215 -0.6824
27590SOL    HW286173   2.182   4.573   6.312  0.5104 -0.2669  0.2237
27591SOL     OW86174   0.083   6.061  10.233  1.0989  0.0098 -0.1757
27591SOL    HW186175   0.049   6.094  10.317  1.1091  0.4047 -0.3239
27591SOL    HW286176   0.027   6.103  10.167  0.3817 -1.1451 -0.3316
27592SOL     OW86177   1.413   8.090   8.910 -0.6423  0.3265 -0.4280
27592SOL    HW186178   1.456   8.149   8.972 -1.3964  1.4727 -0.9708
27592SOL    HW286179   1.471   8.088   8.835  0.3065 -1.1171  0.2975
27593SOL     OW86180   3.484  10.002   7.347 -0.0390  0.1253  0.5419
27593SOL    HW186181   3.547  10.051   7.295 -0.7115  0.5002  0.0630
27593SOL    HW286182   3.484   9.914   7.309  1.8017 -0.5529  1.9409
27594SOL     OW86183   0.771   1.300   7.999  0.2577  0.6463  0.1601
27594SOL    HW186184   0.827   1.237   8.044  0.6103  0.7919 -0.0728
27594SOL    HW286185   0.804   1.385   8.026  0.2055  0.7332 -0.0453
27595SOL     OW86186   1.075   0.806   9.243 -0.5479 -0.4592  0.3574
27595SOL    HW186187   1.083   0.793   9.338 -1.4257 -0.4896  0.4357
27595SOL    HW286188   0.991   0.849   9.232 -0.5048 -0.5648 -0.4252
27596SOL     OW86189   5.665   6.966   2.468  0.0527  0.5886  0.1008
27596SOL    HW186190   5.632   6.969   2.558 -0.3187  0.3464 -0.0248
27596SOL    HW286191   5.735   6.902   2.469 -0.8343 -0.4050 -0.0627
27597SOL     OW86192   2.067   1.761   7.888  0.0610  0.4559 -0.5899
27597SOL    HW186193   2.154   1.747   7.924  1.0066  2.4831 -1.9281
27597SOL    HW286194   2.062   1.702   7.813 -0.2709 -0.5928  0.2154
27598SOL     OW86195   6.818   1.238   2.115  0.0436  0.2318 -0.3809
27598SOL    HW186196   6.774   1.320   2.134 -0.5488 -0.1044 -0.2615
27598SOL    HW286197   6.786   1.213   2.028 -0.3952 -0.2634 -0.0829
27599SOL     OW86198   6.944   3.160   2.005 -0.0628  0.3327 -0.5514
27599SOL    HW186199   6.919   3.150   1.913  0.5485 -1.3950 -0.5555
27599SOL    HW286200   6.927   3.075   2.044  0.0113  0.9447  0.8764
27600SOL     OW86201   4.935   3.139   7.793 -0.0830 -0.1045 -0.4370
27600SOL    HW186202   5.000   3.208   7.802  1.2243 -1.1484 -1.3807
27600SOL    HW286203   4.854   3.178   7.824  0.6752  1.7243 -0.6114
27601SOL     OW86204  10.306   7.528   5.764  0.5940  0.4335 -0.3575
27601SOL    HW186205  10.226   7.578   5.781 -0.5848 -1.8803  1.3571
27601SOL    HW286206  10.329   7.489   5.848  2.4835 -0.4912 -1.2421
27602SOL     OW86207  10.395   9.709   2.494 -0.2147  0.6808  0.5301
27602SOL    HW186208  10.448   9.662   2.430  1.9440  0.1818  2.5603
27602SOL    HW286209  10.305   9.686   2.472  0.5768 -1.4719 -0.7830
27603SOL     OW86210   4.569   7.308   2.566  0.6374  0.2068 -0.2523
27603SOL    HW186211   4.664   7.317   2.561  0.6693 -0.1084 -0.2052
27603SOL    HW286212   4.549   7.233   2.509  0.2071  1.5729 -2.0007
27604SOL     OW86213   8.817   8.699   8.618 -0.1598 -0.0421  0.2404
27604SOL    HW186214   8.821   8.678   8.525  0.3213 -0.6583  0.3868
27604SOL    HW286215   8.739   8.753   8.628 -1.3378 -1.5811 -0.2190
27605SOL     OW86216   9.343   7.161   9.243  0.0357 -0.0171  0.1456
27605SOL    HW186217   9.323   7.097   9.174  1.8622 -1.6216  0.9922
27605SOL    HW286218   9.264   7.215   9.249 -0.4200 -0.1529 -2.7728
27606SOL     OW86219   5.005   2.256   4.999 -0.2919 -0.2691  0.1458
27606SOL    HW186220   4.987   2.183   4.940 -0.4542 -1.4508  1.5912
27606SOL    HW286221   4.987   2.221   5.086 -0.0253  1.4040  0.9088
27607SOL     OW86222   4.795   8.468   4.607 -0.0961  0.5044  0.2339
27607SOL    HW186223   4.805   8.560   4.628  1.1610  0.1869  1.1141
27607SOL    HW286224   4.884   8.436   4.593 -0.5901 -0.3026 -1.3094
27608SOL     OW86225   4.097   1.424   8.353  0.0406 -0.7000  0.4175
27608SOL    HW186226   4.072   1.376   8.432 -0.8408 -0.4457  0.3104
27608SOL    HW286227   4.045   1.384   8.284 -0.8636  0.5072  0.3618
27609SOL     OW86228  10.446   7.826   5.755 -0.4502  0.2645  0.1972
27609SOL    HW186229  10.480   7.888   5.820  0.8010 -1.4073  1.2041
27609SOL    HW286230  10.486   7.742   5.778  0.5765 -0.2886 -3.1362
27610SOL     OW86231   8.397   2.003   1.736  0.2040 -0.3418 -0.1112
27610SOL    HW186232   8.344   1.923   1.734  0.2850 -0.5934  2.7806
27610SOL    HW286233   8.484   1.975   1.709  0.0742 -1.1025  0.2338
27611SOL     OW86234   3.073   9.241   0.659  0.3659 -0.2045  0.0142
27611SOL    HW186235   3.066   9.250   0.564 -2.4745  2.9795  0.3441
27611SOL    HW286236   3.011   9.171   0.681  2.1656 -2.0479 -0.4840
27612SOL     OW86237   3.224   8.044   7.362  0.0818 -0.2951  0.3738
27612SOL    HW186238   3.217   8.091   7.446  0.0852 -0.4678  0.4726
27612SOL    HW286239   3.318   8.031   7.350  0.1320  0.4782 -0.0786
27613SOL     OW86240   0.833   1.653   3.386 -0.5794 -0.0532  0.1676
27613SOL    HW186241   0.900   1.691   3.442  0.9325 -0.6765 -1.1542
27613SOL    HW286242   0.840   1.559   3.399 -1.2221 -0.1259  0.0368
27614SOL     OW86243   1.362   1.303   7.812 -0.6994  0.0771  0.3324
27614SOL    HW186244   1.335   1.368   7.877 -1.4235 -0.2424  0.3551
27614SOL    HW286245   1.288   1.297   7.751 -0.8796 -1.1368  0.6475
27615SOL     OW86246   5.142   7.655   5.766  0.2466 -0.2648 -0.1685
27615SOL    HW186247   5.149   7.561   5.750  0.8180 -0.0345 -1.3529
27615SOL    HW286248   5.112   7.692   5.683  0.6785  0.6761  0.0807
27616SOL     OW86249   8.413  10.417   8.528 -0.0072 -0.3110 -0.5821
27616SOL    HW186250   8.366  10.485   8.577  1.8221 -0.0437  0.9263
27616SOL    HW286251   8.371  10.335   8.555  0.0548 -0.0447  0.3593
27617SOL     OW86252   3.662   4.396   8.972 -0.4340 -0.1242  0.7492
27617SOL    HW186253   3.627   4.466   9.027 -0.1978  0.8530 -0.2990
27617SOL    HW286254   3.589   4.373   8.913  0.1194  0.7179 -0.2956
27618SOL     OW86255  10.587   0.127  10.767  0.1770  0.0193 -0.2961
27618SOL    HW186256  10.575   0.221  10.780  0.1178 -0.1851  1.3200
27618SOL    HW286257  10.575   0.114  10.673 -1.1197  1.4252 -0.3554
27619SOL     OW86258   9.059   7.927   6.430 -0.0097 -0.3257 -0.5732
27619SOL    HW186259   9.153   7.936   6.444 -0.3794  1.5452  1.1208
27619SOL    HW286260   9.039   7.990   6.361 -0.1859  0.1969 -0.0545
27620SOL     OW86261   9.824   9.030   0.012 -0.0189 -0.2626 -0.2781
27620SOL    HW186262   9.874   8.948   0.014  1.5849  0.6307 -1.3169
27620SOL    HW286263   9.817   9.052  -0.080  1.5119  1.8566  0.0444
27621SOL     OW86264   6.186   8.447   4.078 -0.2971  0.2493 -0.4198
27621SOL    HW186265   6.100   8.439   4.117 -0.2979 -1.8158 -0.7212
27621SOL    HW286266   6.169   8.464   3.986 -0.3136  2.8041  0.0006
27622SOL     OW86267   1.257   4.101   1.879 -0.4249 -0.1916 -0.0291
27622SOL    HW186268   1.330   4.039   1.875 -0.3928 -0.1381 -0.3097
27622SOL    HW286269   1.241   4.113   1.972 -0.9771 -1.2648  0.0326
27623SOL     OW86270   8.721   0.454   1.174 -0.0071  0.0148  0.5252
27623SOL    HW186271   8.631   0.429   1.196  0.2101 -1.3739 -0.0556
27623SOL    HW286272   8.773   0.426   1.249 -0.3366  3.4782  2.2523
27624SOL     OW86273  10.819   4.402  10.613  0.3891  0.0955  0.0073
27624SOL    HW186274  10.894   4.436  10.661  0.7364  0.6890 -0.9346
27624SOL    HW286275  10.765   4.479  10.595  0.4668 -0.0586 -0.9073
27625SOL     OW86276   7.269  10.091  10.331  0.1324  0.1317 -0.3597
27625SOL    HW186277   7.253  10.092  10.425  0.1887 -1.5423 -0.3032
27625SOL    HW286278   7.270  10.184  10.306  0.1337  0.6078  1.2741
27626SOL     OW86279   8.970   0.388   9.790  0.3184  0.1334 -0.4564
27626SOL    HW186280   8.902   0.455   9.784 -0.1411 -0.1679  0.8749
27626SOL    HW286281   8.993   0.368   9.700 -0.1149  1.4992 -0.8863
27627SOL     OW86282   2.275   3.131   6.316 -0.3323 -0.0616  0.5088
27627SOL    HW186283   2.359   3.092   6.293 -0.8224 -1.6829  1.2936
27627SOL    HW286284   2.224   3.127   6.235  0.6247  1.8308 -0.2409
27628SOL     OW86285   8.318   5.503   7.518  0.1104  0.1292 -0.5565
27628SOL    HW186286   8.267   5.584   7.511 -0.3904 -0.1654 -0.3525
27628SOL    HW286287   8.407   5.533   7.535  0.1302  0.6694 -1.5190
27629SOL     OW86288   1.543   7.271   2.802 -0.0706  0.2085 -0.1269
27629SOL    HW186289   1.466   7.219   2.779 -0.5229  1.2237 -1.0082
27629SOL    HW286290   1.538   7.348   2.744  1.2522  0.6085  0.2592
27630SOL     OW86291   8.886   1.525   4.383  0.8778 -0.1708 -0.3689
27630SOL    HW186292   8.955   1.508   4.319  2.5454  1.3671  0.8950
27630SOL    HW286293   8.873   1.620   4.380  1.3138  0.0210  1.7953
27631SOL     OW86294   4.656   6.810   4.691  0.4384 -0.0509 -0.1891
27631SOL    HW186295   4.663   6.800   4.786  2.2280 -0.6526 -0.3324
27631SOL    HW286296   4.613   6.894   4.678 -2.9368 -1.4169  1.1224
27632SOL     OW86297   5.121   2.067   8.110  0.1488  0.8578  0.2739
27632SOL    HW186298   5.146   1.976   8.129 -0.4109  0.7395  0.4846
27632SOL    HW286299   5.086   2.064   8.021 -2.0375  0.3935  1.0920
27633SOL     OW86300   3.277  10.416   8.214 -0.2515 -0.3849 -0.2022
27633SOL    HW186301   3.224  10.368   8.278 -1.1824 -3.1835 -2.8229
27633SOL    HW286302   3.360  10.368   8.211  0.0268  0.1202 -0.6475
27634SOL     OW86303   4.195   1.673   2.741  0.5344 -0.2590 -0.0637
27634SOL    HW186304   4.191   1.706   2.831  1.2383 -0.3132 -0.0135
27634SOL    HW286305   4.160   1.584   2.747 -1.1030  0.3258 -0.1513
27635SOL     OW86306   7.982   9.326   6.280 -0.7270  0.2422  0.0110
27635SOL    HW186307   7.998   9.320   6.186 -1.5141  2.2533 -0.3018
27635SOL    HW286308   7.934   9.408   6.291  0.0892  0.4948  2.2567
27636SOL     OW86309   5.275   3.614   7.399 -0.3160 -0.4148  0.4084
27636SOL    HW186310   5.253   3.705   7.418  1.1828 -0.4722  2.8481
27636SOL    HW286311   5.362   3.619   7.358  0.7565 -0.7595  2.4827
27637SOL     OW86312   9.852   7.987   1.406 -0.8133  0.6561 -0.1222
27637SOL    HW186313   9.799   7.912   1.378 -0.8990  0.6690  0.0059
27637SOL    HW286314   9.843   8.051   1.335 -1.6585  0.9995  0.2865
27638SOL     OW86315   0.429   9.953   2.973  0.3969  0.0518  0.1359
27638SOL    HW186316   0.410  10.047   2.976 -0.6814 -0.0170 -2.2400
27638SOL    HW286317   0.390   9.918   3.053 -0.3768  1.4347  0.3969
27639SOL     OW86318  10.032   3.203   0.920 -0.1222  0.5454  0.5470
27639SOL    HW186319  10.061   3.140   0.854 -0.2782  0.5676  0.4559
27639SOL    HW286320  10.112   3.228   0.967  0.0414  0.7871  0.1419
27640SOL     OW86321   9.208   6.222   2.598  0.0527  0.1646  0.3454
27640SOL    HW186322   9.114   6.210   2.609  0.1696  0.8792  2.9063
27640SOL    HW286323   9.222   6.315   2.618  1.1941  0.3419 -1.1363
27641SOL     OW86324  10.454  10.559   5.239  0.2190  0.0601 -0.3459
27641SOL    HW186325  10.460  10.580   5.146 -2.3078  1.5149 -0.2645
27641SOL    HW286326  10.379  10.501   5.246 -0.1084  0.5904  0.8474
27642SOL     OW86327  10.267   0.913   3.529  0.1293  0.0703  0.1164
27642SOL    HW186328  10.234   0.967   3.457 -1.7039  1.5054  1.8954
27642SOL    HW286329  10.359   0.938   3.538 -0.1532  1.3744 -0.4593
27643SOL     OW86330   0.910   9.307  10.471 -0.2592 -0.3752 -0.1866
27643SOL    HW186331   0.877   9.396  10.460  1.2655  0.4324  1.4076
27643SOL    HW286332   1.005   9.315  10.463 -0.1093 -1.9205 -0.3311
27644SOL     OW86333   1.932   0.768   2.982  0.4418 -0.5731  0.1597
27644SOL    HW186334   1.988   0.691   2.992  0.1501 -0.8486 -0.2638
27644SOL    HW286335   1.964   0.830   3.047 -1.0878 -2.0745  2.4618
27645SOL     OW86336   9.567   4.519   3.913  0.5618 -0.3597 -0.5208
27645SOL    HW186337   9.519   4.552   3.838  0.1278  1.5514  0.5333
27645SOL    HW286338   9.629   4.588   3.934 -0.2095 -0.2453  1.6376
27646SOL     OW86339   2.471   3.453   1.799  0.2634 -0.1920 -0.2815
27646SOL    HW186340   2.408   3.520   1.775  1.8165  1.5067  0.1628
27646SOL    HW286341   2.442   3.375   1.752 -2.1036  0.5001 -0.1220
27647SOL     OW86342   0.455   9.661   1.409 -0.1891 -0.2062  0.0765
27647SOL    HW186343   0.381   9.701   1.363 -0.8140 -0.9830  0.3655
27647SOL    HW286344   0.496   9.733   1.456 -0.1734  0.4107 -0.8595
27648SOL     OW86345   1.466   8.298  10.767  0.1577  0.7155 -0.2775
27648SOL    HW186346   1.391   8.316  10.711 -0.2151  1.5104  0.4623
27648SOL    HW286347   1.431   8.299  10.856  0.7679 -0.3760  0.0014
27649SOL     OW86348   5.550   6.940   5.950  0.0488 -0.0072  0.3107
27649SOL    HW186349   5.561   6.948   6.045 -0.2677  1.2155  0.2613
27649SOL    HW286350   5.474   6.882   5.940 -0.8824  1.0786  0.8508
27650SOL     OW86351   4.677   1.871   6.417  0.7275  0.6056  0.3922
27650SOL    HW186352   4.662   1.800   6.480  0.5022  0.6268  0.3635
27650SOL    HW286353   4.593   1.918   6.414 -0.6978 -1.7842 -2.9106
27651SOL     OW86354   2.093   8.007  10.215  0.3495 -0.3174 -0.8275
27651SOL    HW186355   2.101   7.930  10.272  0.9341 -0.5753 -1.2445
27651SOL    HW286356   2.054   8.074  10.271 -2.4656 -1.5946 -1.0862
27652SOL     OW86357   8.039   4.044   1.417 -0.1237 -0.5332  0.3969
27652SOL    HW186358   8.068   4.032   1.508 -0.8545  0.4680  0.7871
27652SOL    HW286359   8.109   4.006   1.364  0.9564  0.0597  1.3514
27653SOL     OW86360   6.233   4.686   4.057  0.2442  0.6732  0.1941
27653SOL    HW186361   6.248   4.603   4.102  1.2903  0.2344 -0.8951
27653SOL    HW286362   6.321   4.723   4.046 -0.1693  1.6890  0.2284
27654SOL     OW86363   5.967   5.508   5.591 -0.2039  0.0722 -0.2333
27654SOL    HW186364   5.889   5.542   5.548  0.3812 -0.6310 -1.9555
27654SOL    HW286365   5.971   5.554   5.675 -4.2781 -2.2619  1.5038
27655SOL     OW86366   5.136   8.532  10.338 -0.0157  0.1474  0.0189
27655SOL    HW186367   5.211   8.579  10.373 -0.8142  0.0392  2.0166
27655SOL    HW286368   5.173   8.452  10.299  0.8775 -0.2129  1.5256
27656SOL     OW86369   8.714   7.645   6.264  0.3354 -0.1052 -0.5404
27656SOL    HW186370   8.723   7.683   6.177  0.5418  0.6643 -0.1927
27656SOL    HW286371   8.657   7.706   6.311  0.1748 -0.5457 -0.1557
27657SOL     OW86372   3.698   8.512   6.660  0.3727  0.1578 -0.3929
27657SOL    HW186373   3.646   8.486   6.736  1.3323  1.5842  0.8053
27657SOL    HW286374   3.734   8.430   6.627  0.7034 -0.4116  1.2734
27658SOL     OW86375   1.110   7.106   5.040 -0.0240  0.3165 -0.8226
27658SOL    HW186376   1.109   7.031   5.099  0.0061 -0.1804 -1.4447
27658SOL    HW286377   1.019   7.121   5.017 -0.0066  0.3014 -0.9044
27659SOL     OW86378   3.307   5.242  10.745  0.2411  0.9435  0.1247
27659SOL    HW186379   3.275   5.215  10.831 -0.9958  0.7231 -0.3870
27659SOL    HW286380   3.278   5.333  10.736  0.9235  1.1768  0.1871
27660SOL     OW86381   4.773   4.105   0.972  0.2929 -0.0522  0.2380
27660SOL    HW186382   4.805   4.182   0.925  0.8628  0.0977  0.8467
27660SOL    HW286383   4.767   4.133   1.063 -0.3203 -0.4814  0.3424
27661SOL     OW86384   3.493   9.781   3.843  0.3940 -0.0179 -0.2769
27661SOL    HW186385   3.476   9.783   3.937  0.8900 -0.4345 -0.1755
27661SOL    HW286386   3.419   9.733   3.806 -0.5449  1.3830 -0.2753
27662SOL     OW86387   2.913  10.155   8.782 -0.5505 -0.7694  0.0058
27662SOL    HW186388   2.895  10.183   8.872  0.1785  0.8496 -0.3174
27662SOL    HW286389   2.981  10.088   8.791  0.0693 -0.0683  0.6202
27663SOL     OW86390   3.584   1.650   7.641  0.4362  0.0661 -0.4248
27663SOL    HW186391   3.631   1.654   7.724 -0.0184  1.2925 -0.2061
27663SOL    HW286392   3.650   1.673   7.575  0.4801  0.4408 -0.2560
27664SOL     OW86393   8.048   0.542   4.772  0.0688 -0.4249  0.3520
27664SOL    HW186394   8.008   0.624   4.741  0.2188 -0.8894 -1.1824
27664SOL    HW286395   8.131   0.569   4.810  1.1355  0.0110 -2.0639
27665SOL     OW86396   4.327  10.584   7.887 -0.2766 -0.3108  0.0633
27665SOL    HW186397   4.331  10.491   7.865 -0.2812 -0.6168  1.3153
27665SOL    HW286398   4.319  10.586   7.982  3.0073  1.0131  0.4589
27666SOL     OW86399   6.389   2.628   6.970 -0.8571 -0.2800 -0.6887
27666SOL    HW186400   6.352   2.622   7.057  0.2642 -1.2516 -0.2573
27666SOL    HW286401   6.338   2.567   6.917 -0.8704 -0.4561 -0.4701
27667SOL     OW86402  10.685   8.782  10.349  0.5534  0.7990  0.3661
27667SOL    HW186403  10.617   8.845  10.324 -0.4300 -0.7622 -1.1699
27667SOL    HW286404  10.640   8.718  10.405  1.5602  1.4583  1.9980
27668SOL     OW86405   3.759   8.268   6.548  0.3570 -0.3220  0.0139
27668SOL    HW186406   3.840   8.248   6.501  1.0023  2.3913 -0.2052
27668SOL    HW286407   3.693   8.214   6.506  1.4779 -0.2263 -1.9827
27669SOL     OW86408   4.851   6.470   8.764  0.8195 -0.5171 -1.2831
27669SOL    HW186409   4.928   6.474   8.821  1.0546  2.0118 -1.6390
27669SOL    HW286410   4.779   6.451   8.824  0.9988  2.4420  0.0651
27670SOL     OW86411   9.797   3.672   8.713 -0.0954 -0.3442  0.3984
27670SOL    HW186412   9.705   3.675   8.740 -0.7397  1.5867 -1.6761
27670SOL    HW286413   9.807   3.585   8.675 -1.8283  0.2064 -1.5120
27671SOL     OW86414   7.138   3.480   9.078 -0.1547 -0.4028 -0.2378
27671SOL    HW186415   7.152   3.470   9.172  2.1592  1.7164 -0.2395
27671SOL    HW286416   7.136   3.574   9.063  1.5646 -0.6094 -2.4909
27672SOL     OW86417   7.548   2.626   5.820  0.4775 -0.0636  0.2070
27672SOL    HW186418   7.603   2.561   5.779  0.1995 -0.2364  0.1028
27672SOL    HW286419   7.462   2.584   5.828  0.7561 -0.3916  1.8532
27673SOL     OW86420   4.456  10.735   2.700  0.3562  0.0605 -0.0981
27673SOL    HW186421   4.434  10.804   2.637  1.5195  0.6116  0.0695
27673SOL    HW286422   4.452  10.654   2.649 -1.7931  0.1294 -0.1122
27674SOL     OW86423   0.690   3.929   3.655  0.4750 -0.1528  0.3186
27674SOL    HW186424   0.743   3.939   3.576  2.5410 -1.9691  1.3565
27674SOL    HW286425   0.666   4.019   3.680  1.0406  0.5459 -1.5069
27675SOL     OW86426  10.912   7.645   7.766 -0.3396 -0.1746  0.5294
27675SOL    HW186427  10.862   7.606   7.838 -0.4925 -1.5983 -0.3276
27675SOL    HW286428  10.845   7.679   7.706 -0.2224  0.2637  0.6403
27676SOL     OW86429   0.407  10.026   8.783 -0.1504 -0.0478  0.0767
27676SOL    HW186430   0.413  10.089   8.855  0.9961  0.4602 -0.4554
27676SOL    HW286431   0.439   9.944   8.820 -0.4982 -0.0314  0.4211
27677SOL     OW86432   2.969   4.464   7.549 -0.1771 -0.0461 -0.0821
27677SOL    HW186433   3.028   4.536   7.574 -0.8358  0.2470  0.6877
27677SOL    HW286434   2.887   4.483   7.595 -1.0690 -0.1545 -1.5468
27678SOL     OW86435  10.019   0.591   0.986  0.4068 -0.4784  0.2473
27678SOL    HW186436  10.013   0.497   0.971  0.4153 -0.3181 -0.8410
27678SOL    HW286437  10.112   0.610   0.983  0.4770 -0.5676  1.4191
27679SOL     OW86438   2.076   5.789   9.396  0.3151 -0.2628 -0.2228
27679SOL    HW186439   2.036   5.756   9.476 -0.8551 -0.2555 -0.7846
27679SOL    HW286440   2.169   5.796   9.417 -0.0425  0.3393  1.3467
27680SOL     OW86441   9.414   0.676   1.905  0.0110 -0.0607  0.4352
27680SOL    HW186442   9.389   0.592   1.866  1.6760 -0.6945  0.6086
27680SOL    HW286443   9.393   0.741   1.838 -1.1163 -0.6344  0.2123
27681SOL     OW86444  10.895   9.942  10.701  0.0403 -0.9487 -0.3062
27681SOL    HW186445  10.821   9.980  10.748  1.4210  1.8571 -0.1825
27681SOL    HW286446  10.908  10.000  10.625  1.8720 -1.5368 -0.4983
27682SOL     OW86447   2.158   2.412   0.627  0.3602 -0.3383  0.4184
27682SOL    HW186448   2.093   2.480   0.607  1.3382  0.9031  1.3519
27682SOL    HW286449   2.155   2.354   0.551 -1.9999 -0.4639  0.5285
27683SOL     OW86450   9.311   4.033   1.464  0.3947  0.0623  0.2090
27683SOL    HW186451   9.228   4.080   1.475  0.2744 -0.0402 -0.2490
27683SOL    HW286452   9.372   4.099   1.433  0.4481  0.1026  0.3954
27684SOL     OW86453   8.299   0.517   8.993  0.1245 -0.7693  0.5021
27684SOL    HW186454   8.215   0.533   8.950 -1.0354 -1.3632  2.4186
27684SOL    HW286455   8.357   0.586   8.960 -0.1205 -2.1115 -3.2057
27685SOL     OW86456   9.705   0.901   1.677  0.3177 -0.4296 -0.0311
27685SOL    HW186457   9.667   0.969   1.622 -2.6746 -0.2541  2.0398
27685SOL    HW286458   9.642   0.829   1.673 -0.2931 -0.2534  3.3775
27686SOL     OW86459   6.243   7.690   4.516 -0.2609 -0.2530  0.0935
27686SOL    HW186460   6.213   7.628   4.450 -1.3947  0.2768  0.0846
27686SOL    HW286461   6.255   7.772   4.468 -0.4205 -0.0368  0.4236
27687SOL     OW86462   7.628   5.105   2.682 -0.8532 -0.5679 -0.3671
27687SOL    HW186463   7.643   5.068   2.769 -0.9242 -1.1227 -0.5847
27687SOL    HW286464   7.703   5.076   2.631  0.6553  2.0563  0.1881
27688SOL     OW86465   1.346   2.371   3.185 -0.8224 -0.5711 -0.0607
27688SOL    HW186466   1.411   2.353   3.116 -2.0410 -0.4160 -1.3008
27688SOL    HW286467   1.286   2.435   3.145 -0.1674  1.4901  2.0316
27689SOL     OW86468   9.160   9.633   2.703  0.3525  0.1276  0.6048
27689SOL    HW186469   9.158   9.631   2.799 -0.0136 -1.8611  0.5867
27689SOL    HW286470   9.253   9.645   2.682  0.9642 -2.6938  1.2651
27690SOL     OW86471   3.129   3.128   5.861  0.5039  0.0378 -0.8759
27690SOL    HW186472   3.119   3.199   5.925  0.7480  0.8024 -1.6708
27690SOL    HW286473   3.054   3.138   5.802 -0.4620 -1.4777  0.0272
27691SOL     OW86474   3.131   8.393   9.152 -0.3270  0.3322  0.2032
27691SOL    HW186475   3.058   8.447   9.181 -1.0372 -1.2089  1.4448
27691SOL    HW286476   3.204   8.454   9.143 -0.7672  1.3353  2.7079
27692SOL     OW86477   3.157  10.209   9.779  0.4088  0.2684 -0.4815
27692SOL    HW186478   3.234  10.162   9.813 -0.3728 -1.0952 -0.5206
27692SOL    HW286479   3.152  10.182   9.687  0.3952  1.0632 -0.7159
27693SOL     OW86480   8.313   6.952   8.203 -0.1951  0.3537  0.1535
27693SOL    HW186481   8.251   7.002   8.257 -0.1650  0.1442  0.3804
27693SOL    HW286482   8.319   6.867   8.246  0.3844  0.4326  0.2313
27694SOL     OW86483   2.392  10.775   0.435 -0.2566 -0.0109 -0.8304
27694SOL    HW186484   2.457  10.720   0.480 -0.2882  1.2159  0.8109
27694SOL    HW286485   2.347  10.714   0.376  2.6726 -0.8030 -2.4699
27695SOL     OW86486   5.232   9.797   2.863  0.5654 -0.6791  0.1710
27695SOL    HW186487   5.266   9.802   2.774 -0.7441 -3.0655 -0.5367
27695SOL    HW286488   5.310   9.796   2.918  1.4126  0.1678 -0.9556
27696SOL     OW86489   4.204   0.651   9.408  0.2289  0.6446  0.0905
27696SOL    HW186490   4.229   0.566   9.373 -0.7925 -0.9306  2.8675
27696SOL    HW286491   4.109   0.649   9.411  0.1617  2.1247 -0.2770
27697SOL     OW86492   2.522   9.658   6.872 -0.3152 -0.1403 -0.1693
27697SOL    HW186493   2.574   9.600   6.928 -1.5251 -1.1502 -0.0332
27697SOL    HW286494   2.513   9.739   6.922 -0.0249 -0.4460  0.3845
27698SOL     OW86495   2.735   5.851   8.360  0.3836 -0.0397 -0.4441
27698SOL    HW186496   2.759   5.931   8.407 -2.9744  0.2158  1.1318
27698SOL    HW286497   2.778   5.780   8.409 -1.2106  0.4259  1.8072
27699SOL     OW86498   9.322   5.868   0.439 -0.1639  0.1942  0.3794
27699SOL    HW186499   9.418   5.873   0.436 -0.2245  1.6693  0.1402
27699SOL    HW286500   9.299   5.904   0.525 -0.5451  0.6554  0.0854
27700SOL     OW86501   1.228  10.650   2.548 -0.1312 -0.3751 -0.0617
27700SOL    HW186502   1.212  10.740   2.517  0.9151 -0.4655 -0.9218
27700SOL    HW286503   1.270  10.662   2.633  1.1127 -0.0075 -0.7100
27701SOL     OW86504   4.870   5.436   1.873 -0.2851 -0.0219  0.1946
27701SOL    HW186505   4.849   5.518   1.917 -0.7016 -1.3571  2.6620
27701SOL    HW286506   4.786   5.391   1.863 -0.4763  0.8141 -3.5367
27702SOL     OW86507   3.396   4.021  10.444 -0.2602 -0.0047 -0.2662
27702SOL    HW186508   3.453   4.098  10.452 -1.2305  0.7057 -0.0343
27702SOL    HW286509   3.320   4.053  10.395 -0.7143 -0.7924 -0.0825
27703SOL     OW86510   1.862   4.465   4.062 -0.3203 -0.5941  0.1651
27703SOL    HW186511   1.906   4.550   4.063  0.3594 -0.7816 -2.7937
27703SOL    HW286512   1.790   4.474   4.124  0.3900  1.7565  0.7411
27704SOL     OW86513   1.494   2.742  10.751  0.1225  0.7589 -0.1271
27704SOL    HW186514   1.401   2.727  10.733  0.4117 -0.4736 -0.6741
27704SOL    HW286515   1.520   2.670  10.808  0.4242  1.8928  1.2254
27705SOL     OW86516   8.290   5.248   6.105 -0.6734  0.3493  0.5937
27705SOL    HW186517   8.370   5.205   6.074  0.1649  0.6575  2.1739
27705SOL    HW286518   8.231   5.247   6.030  0.2652 -1.2272 -0.1717
27706SOL     OW86519   7.483   1.977   5.611 -0.5091  0.5018 -0.1119
27706SOL    HW186520   7.446   2.060   5.581  0.2970  0.7294 -0.5201
27706SOL    HW286521   7.578   1.988   5.599 -0.4496 -0.8171 -1.0808
27707SOL     OW86522   2.777   8.574   3.553  0.6019  0.1902 -0.4702
27707SOL    HW186523   2.850   8.621   3.514 -0.8031  2.4087 -0.6114
27707SOL    HW286524   2.789   8.583   3.647  2.2899 -2.4607 -0.3184
27708SOL     OW86525   0.593   7.263   5.476  0.0338  0.6123 -0.0883
27708SOL    HW186526   0.556   7.296   5.394  0.0516  0.1254 -0.2941
27708SOL    HW286527   0.518   7.233   5.526  0.1382 -0.4405 -0.5347
27709SOL     OW86528   8.552   9.528   1.811  0.2197  0.5765 -0.4982
27709SOL    HW186529   8.604   9.608   1.817 -0.8903  1.3139 -0.3649
27709SOL    HW286530   8.481   9.550   1.750  0.1249 -0.4301 -0.7613
27710SOL     OW86531   9.150   5.622   3.062 -0.1508 -0.3094  0.1347
27710SOL    HW186532   9.158   5.609   2.968 -0.6616 -0.8688  0.1647
27710SOL    HW286533   9.075   5.568   3.088  0.0969 -0.3067  0.8869
27711SOL     OW86534   0.322   9.017   9.402  0.2299 -0.2238  0.2474
27711SOL    HW186535   0.388   9.018   9.333 -0.1587 -1.5805 -0.1792
27711SOL    HW286536   0.351   8.948   9.462 -1.5004 -1.9084 -0.7250
27712SOL     OW86537   9.184   5.451   5.200  0.2285 -0.6296  0.8213
27712SOL    HW186538   9.171   5.528   5.144 -3.4628 -2.7379 -1.6635
27712SOL    HW286539   9.136   5.472   5.280  0.2994  0.1155  0.6761
27713SOL     OW86540   3.781   3.821   5.254  0.2583  0.2282 -0.1016
27713SOL    HW186541   3.703   3.851   5.206 -0.0027  0.8870  0.7228
27713SOL    HW286542   3.845   3.890   5.240  0.0608  0.6051  0.7849
27714SOL     OW86543   5.987   5.098  10.912  0.1962  0.0439 -0.3773
27714SOL    HW186544   6.018   5.168  10.855  1.9155 -0.8275 -0.5739
27714SOL    HW286545   6.062   5.078  10.968 -0.7735 -0.5797  0.7517
27715SOL     OW86546   4.366   2.640   0.775  0.0464  0.3433  0.6080
27715SOL    HW186547   4.324   2.634   0.689  0.7342  0.3531  0.2692
27715SOL    HW286548   4.437   2.703   0.763  1.0607 -0.7272  0.8017
27716SOL     OW86549   9.550   7.592   1.708 -0.1098 -0.1658 -0.4000
27716SOL    HW186550   9.538   7.545   1.790  0.1086  0.2964 -0.1007
27716SOL    HW286551   9.644   7.585   1.690 -0.3908 -1.6970 -1.4794
27717SOL     OW86552   5.287   7.848   6.858 -0.3565  0.1706 -0.2724
27717SOL    HW186553   5.318   7.861   6.948  1.9301  0.8572 -1.0870
27717SOL    HW286554   5.254   7.758   6.857  1.2852 -0.5033  0.8305
27718SOL     OW86555   3.980   7.382  10.574  0.4338 -0.0523  0.0535
27718SOL    HW186556   3.917   7.320  10.538  0.8327  0.9156 -2.5052
27718SOL    HW286557   3.931   7.431  10.639 -1.2241  0.0581 -1.2077
27719SOL     OW86558   1.685   8.567   2.249  0.2704  0.4169 -0.1937
27719SOL    HW186559   1.620   8.632   2.224 -0.1973 -0.2673 -0.8201
27719SOL    HW286560   1.634   8.488   2.267  0.9140 -0.1015 -0.6020
27720SOL     OW86561   6.206   4.319   1.909  0.1360  0.6677  0.4386
27720SOL    HW186562   6.221   4.268   1.829 -1.1553 -0.2369  0.7377
27720SOL    HW286563   6.155   4.394   1.879  0.6701  0.9591  0.2419
27721SOL     OW86564   3.694  10.819   0.112  0.2724 -0.4954  0.2744
27721SOL    HW186565   3.701  10.904   0.069 -1.7272 -0.4364 -0.0440
27721SOL    HW286566   3.770  10.815   0.170  1.8921  0.3198 -1.6661
27722SOL     OW86567  10.478   8.344   7.307 -0.3592 -0.3167  0.6716
27722SOL    HW186568  10.552   8.339   7.368 -0.0592  1.3570  0.4906
27722SOL    HW286569  10.517   8.366   7.223 -1.0403  0.5740  0.5716
27723SOL     OW86570   8.696   8.492   0.120 -0.1892 -0.1267 -0.1388
27723SOL    HW186571   8.707   8.471   0.212  0.7298 -0.7303 -0.3681
27723SOL    HW286572   8.702   8.588   0.116  1.7121 -0.1933  0.2134
27724SOL     OW86573  10.206   6.848   8.313 -0.0929 -0.3041 -0.8800
27724SOL    HW186574  10.262   6.861   8.390 -0.9800 -0.5713 -0.1685
27724SOL    HW286575  10.209   6.932   8.267 -1.4083  0.6806  0.7222
27725SOL     OW86576   2.555   1.352   5.500 -0.0589  0.2963 -0.0551
27725SOL    HW186577   2.574   1.329   5.591  0.0391  1.1524  0.1521
27725SOL    HW286578   2.506   1.434   5.506 -0.6944 -0.0285 -0.7479
27726SOL     OW86579   1.328   7.158   7.541  0.2489  0.6971 -0.1740
27726SOL    HW186580   1.352   7.075   7.501 -0.1894  0.5719 -0.1793
27726SOL    HW286581   1.245   7.183   7.499 -1.0748 -0.2216  1.7239
27727SOL     OW86582   4.823   8.203   0.544 -0.5258  0.4555  0.3067
27727SOL    HW186583   4.798   8.169   0.459 -0.6808 -0.3029  0.6464
27727SOL    HW286584   4.799   8.134   0.606 -1.4371  1.4340  1.0883
27728SOL     OW86585   3.002   0.612   4.374  0.1084 -0.2083 -0.0676
27728SOL    HW186586   3.090   0.648   4.368  0.2893 -0.4033  1.0460
27728SOL    HW286587   2.983   0.578   4.287  1.0541  0.0263 -0.3731
27729SOL     OW86588   4.100   2.319   9.095 -0.5008 -0.1370 -0.5313
27729SOL    HW186589   4.142   2.236   9.071 -0.8750 -0.6087  0.4010
27729SOL    HW286590   4.145   2.384   9.041 -0.0759 -0.9141 -1.1527
27730SOL     OW86591   2.072   6.223  10.563 -0.0637  0.0014  0.2702
27730SOL    HW186592   2.139   6.280  10.526  1.8766 -0.0874  3.2801
27730SOL    HW286593   2.117   6.139  10.578 -1.9625 -1.3526 -1.0829
27731SOL     OW86594   8.149   0.925   8.226  0.6213 -0.2941 -0.4683
27731SOL    HW186595   8.162   0.934   8.320 -2.4927  0.7641 -0.0292
27731SOL    HW286596   8.124   1.013   8.197  0.5032 -0.8384 -2.0948
27732SOL     OW86597   4.851   0.441   8.291  0.2840 -0.0695 -0.3131
27732SOL    HW186598   4.805   0.516   8.255  0.4646  0.2631  0.1488
27732SOL    HW286599   4.826   0.439   8.383 -1.2000 -1.6691 -0.6918
27733SOL     OW86600   6.625   9.368   9.172 -0.1342 -0.1876  0.2555
27733SOL    HW186601   6.717   9.343   9.165 -0.7207 -2.7247  0.7043
27733SOL    HW286602   6.590   9.355   9.084 -0.6744 -2.2181  0.7079
27734SOL     OW86603   0.628   1.113   5.884  0.5682 -0.1102  0.0394
27734SOL    HW186604   0.583   1.032   5.861  1.6055 -0.7498  0.2104
27734SOL    HW286605   0.573   1.153   5.952  0.0362 -0.6476 -0.0713
27735SOL     OW86606   7.966   5.209  10.736 -0.4334  0.9132 -0.3644
27735SOL    HW186607   8.001   5.145  10.675 -1.9564  2.4064 -2.9888
27735SOL    HW286608   7.982   5.171  10.823 -1.1447 -2.9192 -1.7184
27736SOL     OW86609   9.002   2.300   3.724  0.0970  0.3458 -0.0060
27736SOL    HW186610   9.044   2.246   3.658 -0.8466 -0.7278  0.2390
27736SOL    HW286611   8.911   2.310   3.694 -1.0256 -2.1074  2.1551
27737SOL     OW86612   3.572   2.992   5.302  0.7210  0.3063 -0.2292
27737SOL    HW186613   3.615   2.906   5.300  1.9567  0.8842  0.3150
27737SOL    HW286614   3.496   2.982   5.244  1.0063 -1.0619 -0.4077
27738SOL     OW86615   4.180   1.775   9.262 -0.1162 -0.9230 -0.0552
27738SOL    HW186616   4.196   1.750   9.353  0.4115 -1.3227 -0.2497
27738SOL    HW286617   4.101   1.829   9.265  1.3786  1.3472  1.0099
27739SOL     OW86618   7.873   4.426   8.212 -0.0042 -0.0348 -0.0224
27739SOL    HW186619   7.873   4.463   8.124  1.4792  2.9545  1.1052
27739SOL    HW286620   7.963   4.398   8.226 -0.6534 -2.3726 -0.0776
27740SOL     OW86621   5.681   5.261   3.259  0.0980  0.9108  0.1373
27740SOL    HW186622   5.680   5.341   3.206 -2.2185  1.0002  0.2510
27740SOL    HW286623   5.661   5.290   3.348 -1.4036  0.1645  0.0697
27741SOL     OW86624   6.883   2.083  10.653 -0.2599 -0.2336  0.5172
27741SOL    HW186625   6.906   2.002  10.699 -0.0440  0.2959  1.3636
27741SOL    HW286626   6.829   2.131  10.715 -0.1641  0.3873  0.1240
27742SOL     OW86627   5.209   5.091   2.225  0.5180  0.2874 -0.2268
27742SOL    HW186628   5.266   5.154   2.181  0.5584  0.6636  0.3619
27742SOL    HW286629   5.225   5.009   2.179  2.5438  0.0761  0.7803
27743SOL     OW86630   5.568  10.155   1.932 -0.2914  0.1814 -1.0391
27743SOL    HW186631   5.658  10.154   1.899 -0.1604 -0.0987 -0.6798
27743SOL    HW286632   5.536  10.243   1.912  0.0975  0.3143 -1.0836
27744SOL     OW86633   4.289   8.701   3.537 -0.1445  0.5650  0.0134
27744SOL    HW186634   4.202   8.678   3.568 -0.3739  0.4719 -0.7021
27744SOL    HW286635   4.275   8.746   3.454  0.5797 -0.9965 -0.9988
27745SOL     OW86636   2.898   2.105   2.441  0.4967  0.0631 -0.1556
27745SOL    HW186637   2.848   2.024   2.429  0.6839  0.0624 -1.0048
27745SOL    HW286638   2.956   2.086   2.515 -0.2984 -0.1530  0.4325
27746SOL     OW86639   4.292   5.368   5.630  0.1933  0.0261 -0.3366
27746SOL    HW186640   4.297   5.433   5.700 -1.3109  0.4768 -0.6006
27746SOL    HW286641   4.228   5.304   5.662  0.7323 -0.6549 -0.6061
27747SOL     OW86642   6.715   0.043   5.452 -0.3943 -0.1388 -0.0457
27747SOL    HW186643   6.673   0.099   5.387  0.0182  1.8508  1.3118
27747SOL    HW286644   6.740  -0.036   5.404 -0.1341  1.2332 -2.2960
27748SOL     OW86645   5.390   9.323   4.524 -0.6070 -0.4225  0.0012
27748SOL    HW186646   5.477   9.288   4.545  0.1928  0.7929 -1.1506
27748SOL    HW286647   5.332   9.285   4.590  1.0406 -0.1457  1.6802
27749SOL     OW86648   3.370  10.634  10.262  0.1904  0.5196 -0.4899
27749SOL    HW186649   3.450  10.620  10.210 -0.4542 -0.4521 -1.2627
27749SOL    HW286650   3.318  10.555  10.246 -0.9140  1.1299  0.0288
27750SOL     OW86651  10.060   7.762   2.468  0.7962 -0.0924  0.2526
27750SOL    HW186652  10.090   7.766   2.377  0.2618 -1.9177 -0.0547
27750SOL    HW286653  10.073   7.670   2.493 -2.2833 -0.4560  0.8536
27751SOL     OW86654   3.104   7.352   5.610  0.2906  0.0840  0.2147
27751SOL    HW186655   3.059   7.272   5.638 -0.0244 -0.5295 -1.8573
27751SOL    HW286656   3.035   7.416   5.597  0.3635  0.1625  0.2110
27752SOL     OW86657   2.292   4.985   1.075  0.2638 -0.3074 -0.4677
27752SOL    HW186658   2.249   5.006   0.992 -0.7423  0.7167  0.2733
27752SOL    HW286659   2.353   5.057   1.090  1.3582 -1.1173 -0.8957
27753SOL     OW86660   7.590   6.470   4.890  0.1396 -0.6406 -0.5152
27753SOL    HW186661   7.646   6.507   4.821  0.3126  1.4010  0.6464
27753SOL    HW286662   7.632   6.497   4.972 -1.8022 -0.1773  0.3823
27754SOL     OW86663  10.682   7.011   1.690  0.1837  0.3929  0.4948
27754SOL    HW186664  10.720   6.962   1.616 -2.3188 -0.9148 -0.0429
27754SOL    HW286665  10.599   7.045   1.656 -0.3918  0.9301  2.3164
27755SOL     OW86666   0.329   4.795   3.823 -0.4387  0.1220  0.7224
27755SOL    HW186667   0.275   4.717   3.805  0.9731 -0.8066  0.3081
27755SOL    HW286668   0.274   4.869   3.796 -0.5804 -0.9008 -2.1638
27756SOL     OW86669   3.790   8.038   5.438 -0.5547  0.0535  0.3958
27756SOL    HW186670   3.807   8.082   5.521 -0.3849  1.9174 -0.5794
27756SOL    HW286671   3.871   7.992   5.417 -0.2709  0.3717  0.7878
27757SOL     OW86672   4.349   6.485   7.157  0.4784  0.2084 -0.4871
27757SOL    HW186673   4.313   6.560   7.203  2.4133  1.2833 -0.5950
27757SOL    HW286674   4.291   6.472   7.082 -0.2499  1.1842 -0.1053
27758SOL     OW86675   7.628   7.528   2.704 -0.3923 -0.9358  0.3848
27758SOL    HW186676   7.719   7.559   2.712  0.1297 -2.2256 -0.1620
27758SOL    HW286677   7.633   7.435   2.726 -1.6173 -1.0033  0.4399
27759SOL     OW86678   8.640   0.339   6.760 -0.1635  0.0347  0.1535
27759SOL    HW186679   8.632   0.309   6.850  0.3515  0.7360  0.4429
27759SOL    HW286680   8.621   0.433   6.765  1.1014  0.3200 -0.2666
27760SOL     OW86681   3.661   7.682   6.242 -0.6576 -0.3346 -0.5006
27760SOL    HW186682   3.691   7.662   6.153 -0.2323  0.9398 -0.6592
27760SOL    HW286683   3.725   7.638   6.299  0.2561  0.5155 -0.8382
27761SOL     OW86684   3.482   4.538   2.779 -0.1243  0.3411 -0.3004
27761SOL    HW186685   3.466   4.601   2.709  1.4371  1.5403  0.3805
27761SOL    HW286686   3.574   4.549   2.802 -0.4501 -0.4052  1.5763
27762SOL     OW86687   5.451   8.426   3.568  0.5859 -0.0429  0.1263
27762SOL    HW186688   5.546   8.443   3.569  0.6294 -0.2954  0.3522
27762SOL    HW286689   5.443   8.342   3.522  0.6818 -1.2702  2.2504
27763SOL     OW86690   1.129   0.419   6.141  0.1001 -0.2496 -0.2500
27763SOL    HW186691   1.051   0.402   6.193 -0.4817  0.9617 -0.6903
27763SOL    HW286692   1.190   0.349   6.165 -0.7756 -0.6803  0.7765
27764SOL     OW86693   6.504   3.709   2.291 -0.1043  0.0335  0.0663
27764SOL    HW186694   6.514   3.737   2.200 -1.9812  0.2765 -0.0899
27764SOL    HW286695   6.539   3.619   2.292  0.0272  0.0604 -0.8674
27765SOL     OW86696   3.162   9.382   2.543  0.2272 -0.1712  0.3531
27765SOL    HW186697   3.114   9.461   2.569 -1.5973 -0.9451 -0.5013
27765SOL    HW286698   3.224   9.368   2.614  1.5156  2.7066 -0.0371
27766SOL     OW86699   3.535   4.518   7.713 -0.2316  0.0178 -0.1079
27766SOL    HW186700   3.572   4.607   7.706 -0.2666  0.0633  0.2724
27766SOL    HW286701   3.527   4.503   7.807  0.6361 -0.7528 -0.1476
27767SOL     OW86702  10.711   9.580   1.091  0.4513  0.2209 -0.4559
27767SOL    HW186703  10.633   9.558   1.040  0.9205 -1.1934 -0.6024
27767SOL    HW286704  10.699   9.533   1.173  0.3015  1.4707  0.2586
27768SOL     OW86705   9.146  10.305   6.219 -0.6389 -0.3232 -0.0375
27768SOL    HW186706   9.103  10.264   6.294 -1.6937  2.1124  0.7695
27768SOL    HW286707   9.074  10.324   6.158  0.0432 -1.0614 -1.1092
27769SOL     OW86708  10.480   5.489   4.915  0.2889 -0.2124 -0.2893
27769SOL    HW186709  10.529   5.407   4.925  0.1236 -0.2919 -0.1231
27769SOL    HW286710  10.514   5.527   4.834  1.5163  0.3519  0.4712
27770SOL     OW86711   0.147   1.838   6.953 -0.3542  0.1948  0.1173
27770SOL    HW186712   0.061   1.815   6.990  0.6050 -0.9407  1.7892
27770SOL    HW286713   0.194   1.877   7.026  1.2560 -1.1086 -0.1595
27771SOL     OW86714   4.149   1.525   9.150  0.3275  0.3799  0.2145
27771SOL    HW186715   4.146   1.602   9.207 -1.0579 -0.7166  1.7011
27771SOL    HW286716   4.058   1.498   9.141  0.8321 -1.4227  0.1907
27772SOL     OW86717   9.558   5.371   0.036  0.0836 -0.4709 -0.0519
27772SOL    HW186718   9.475   5.405   0.004  0.3253  0.3260  0.1501
27772SOL    HW286719   9.534   5.307   0.103 -0.3822 -1.0098 -0.7145
27773SOL     OW86720   9.440   6.032   9.123  0.2761 -1.1347 -0.8317
27773SOL    HW186721   9.458   6.043   9.216 -0.8606 -0.1789 -0.6954
27773SOL    HW286722   9.448   6.120   9.086  2.4894 -1.7564 -2.0172
27774SOL     OW86723   9.466   2.694   3.997  0.3344  0.1546 -0.0179
27774SOL    HW186724   9.486   2.745   3.919  0.3220  0.4197  0.1478
27774SOL    HW286725   9.388   2.735   4.033 -1.2865 -1.6307 -1.3201
27775SOL     OW86726   7.926   5.143   6.915 -0.2041  0.0613  0.0155
27775SOL    HW186727   7.920   5.095   6.832 -1.2728  0.7763 -0.3539
27775SOL    HW286728   7.960   5.229   6.890 -0.3882  0.2277  0.3349
27776SOL     OW86729   8.844   6.346   7.079 -0.4586  0.1126 -0.1778
27776SOL    HW186730   8.931   6.379   7.101 -0.1555 -0.5890 -0.3076
27776SOL    HW286731   8.804   6.416   7.027  1.4954 -1.0384 -3.5301
27777SOL     OW86732   5.559   4.302   1.993  0.3743  0.1309  0.4200
27777SOL    HW186733   5.570   4.389   2.032  0.2661  0.4746 -0.3005
27777SOL    HW286734   5.627   4.249   2.033 -0.7663  0.0101  2.3548
27778SOL     OW86735  10.067   6.724   4.278  0.0137  0.4446  0.3993
27778SOL    HW186736  10.050   6.682   4.362  1.1062 -0.2907  0.2744
27778SOL    HW286737   9.986   6.770   4.258 -0.3855  0.3605  1.6908
27779SOL     OW86738   6.903   5.035   1.691 -0.7713 -0.0647 -0.4042
27779SOL    HW186739   6.961   5.105   1.720  0.6031 -0.3261 -2.3569
27779SOL    HW286740   6.960   4.959   1.680 -1.9573 -1.0701  0.0725
27780SOL     OW86741   2.774   8.682   5.244  0.1399 -0.1662  0.0687
27780SOL    HW186742   2.766   8.602   5.296 -0.6621  1.1288  2.0932
27780SOL    HW286743   2.868   8.697   5.237  0.2718 -0.5505  0.9181
27781SOL     OW86744  10.754  10.918   6.067 -0.1340  0.2948 -0.4155
27781SOL    HW186745  10.831  10.868   6.093  0.2186  0.4068 -1.2316
27781SOL    HW286746  10.685  10.888   6.126 -0.2898 -2.1492 -1.7130
27782SOL     OW86747   2.708   7.125   2.397  0.0869 -0.6753  0.1311
27782SOL    HW186748   2.711   7.073   2.478  1.8425  0.1747  0.6759
27782SOL    HW286749   2.754   7.206   2.420 -1.8386  0.7958 -0.9330
27783SOL     OW86750   2.044   4.241   1.711 -0.0127  0.2495  0.4120
27783SOL    HW186751   2.090   4.305   1.766  2.1258 -1.3824  0.6728
27783SOL    HW286752   2.098   4.233   1.633 -0.2983 -1.1038  0.3205
27784SOL     OW86753   9.421   1.896   3.630 -0.3323 -0.2578 -0.0735
27784SOL    HW186754   9.449   1.889   3.721 -0.6196 -0.8388 -0.0312
27784SOL    HW286755   9.498   1.872   3.579 -0.3110 -0.3847  0.0201
27785SOL     OW86756   1.681   3.148   4.477 -0.3844  0.2924  0.4615
27785SOL    HW186757   1.601   3.107   4.510 -0.7444  1.2406  0.8214
27785SOL    HW286758   1.702   3.101   4.397 -1.9219  0.7250 -0.2215
27786SOL     OW86759   8.527   3.974   2.676  0.0255  0.2455  0.3859
27786SOL    HW186760   8.480   3.909   2.728 -1.8867  0.8664 -0.4381
27786SOL    HW286761   8.599   4.003   2.731  0.7806 -2.3462  0.8693
27787SOL     OW86762   3.358   9.071   9.353  0.5309 -0.6711  0.0944
27787SOL    HW186763   3.339   9.010   9.282  0.4751  0.5321 -0.9708
27787SOL    HW286764   3.278   9.072   9.406 -0.7973  0.9535 -1.7878
27788SOL     OW86765   3.984   1.539   7.015  0.2365  0.0913  0.0163
27788SOL    HW186766   3.927   1.510   6.944 -0.7905  1.6054  0.1883
27788SOL    HW286767   4.072   1.513   6.987 -0.4463 -1.9583 -0.4121
27789SOL     OW86768   0.305   0.143   6.518 -0.0577  0.4532 -0.7486
27789SOL    HW186769   0.360   0.081   6.470  0.1927  1.0038 -1.1833
27789SOL    HW286770   0.232   0.090   6.550  0.9338 -0.3990  0.2338
27790SOL     OW86771   5.666   6.064  10.177 -0.1822 -0.0932 -0.0846
27790SOL    HW186772   5.578   6.046  10.210 -0.4279 -1.0803 -1.2069
27790SOL    HW286773   5.652   6.096  10.088  0.5547  0.6790  0.0688
27791SOL     OW86774   2.513   9.745   7.530 -0.0727  0.7009  0.1803
27791SOL    HW186775   2.507   9.700   7.614 -1.2210  1.0449  0.2997
27791SOL    HW286776   2.549   9.831   7.550  1.5211  0.1027  0.0358
27792SOL     OW86777   7.447   3.445   3.187 -0.1523  0.0111  0.3847
27792SOL    HW186778   7.442   3.367   3.243 -0.9168  0.0064  0.3292
27792SOL    HW286779   7.537   3.447   3.155  0.1704 -0.2329  1.2652
27793SOL     OW86780   0.108  10.570   5.239 -0.5849  0.1547 -0.5360
27793SOL    HW186781   0.076  10.485   5.209 -0.6012  0.9155 -2.8868
27793SOL    HW286782   0.043  10.598   5.304 -0.8995 -1.3365 -0.1630
27794SOL     OW86783   4.698   7.539   4.915  0.2366  0.8236  0.4073
27794SOL    HW186784   4.631   7.474   4.894 -1.1255  1.6507  1.9545
27794SOL    HW286785   4.765   7.490   4.963 -0.7092  0.4903  1.4402
27795SOL     OW86786   1.803   3.688   3.458 -0.3700 -0.5813 -0.3903
27795SOL    HW186787   1.742   3.614   3.447 -1.0518 -0.0258 -0.3965
27795SOL    HW286788   1.749   3.766   3.445  0.0711 -0.0372  0.8699
27796SOL     OW86789   2.607   5.926   7.778 -0.1385 -0.0680 -0.3396
27796SOL    HW186790   2.679   5.865   7.763  0.1891 -0.3632  2.0328
27796SOL    HW286791   2.573   5.945   7.691  2.6614 -0.0634 -1.5104
27797SOL     OW86792   2.474   8.720   7.330 -0.1162 -0.0515  0.0447
27797SOL    HW186793   2.505   8.791   7.386 -0.5098 -1.1912  1.8197
27797SOL    HW286794   2.552   8.686   7.288 -0.0231  1.8993 -1.4724
27798SOL     OW86795   9.350   3.942   2.394 -0.1444 -0.1213 -0.2431
27798SOL    HW186796   9.372   3.928   2.302  1.0523 -2.5233  0.3163
27798SOL    HW286797   9.377   4.032   2.413 -0.3799  0.3898 -2.2096
27799SOL     OW86798   1.572   0.882   1.740 -0.2166  0.4316 -0.3031
27799SOL    HW186799   1.650   0.935   1.721 -0.1280  0.1118 -0.8552
27799SOL    HW286800   1.606   0.800   1.774 -0.3482  0.6333  0.3301
27800SOL     OW86801   8.670   6.661   6.374 -0.3186 -0.3385  0.2875
27800SOL    HW186802   8.706   6.655   6.286 -1.5037 -0.2047 -0.2285
27800SOL    HW286803   8.746   6.676   6.430  0.2756  1.7996 -0.9558
27801SOL     OW86804   7.471   2.291   6.739 -0.0121 -0.2610 -0.4341
27801SOL    HW186805   7.442   2.279   6.649 -0.9792  0.4731 -0.2374
27801SOL    HW286806   7.545   2.352   6.733 -1.1325  1.1502 -0.6220
27802SOL     OW86807   2.404   8.480   2.303  0.0785 -0.8269 -0.0882
27802SOL    HW186808   2.371   8.553   2.355  0.8823 -1.9602  2.1134
27802SOL    HW286809   2.469   8.520   2.244 -1.0708  0.5269 -0.4829
27803SOL     OW86810   0.905   6.793  10.119  0.6620  0.0767 -0.1056
27803SOL    HW186811   0.884   6.737  10.194  2.6281 -1.0290 -0.3094
27803SOL    HW286812   0.863   6.751  10.044  0.2977  0.1149  0.0744
27804SOL     OW86813   3.146   0.797   9.256  0.2929  0.2955 -0.6259
27804SOL    HW186814   3.090   0.747   9.316 -0.9463  1.7098 -0.5334
27804SOL    HW286815   3.084   0.838   9.194  1.4212  0.1229 -1.9052
27805SOL     OW86816   9.725   7.265   2.680  0.3638 -0.1330 -0.4446
27805SOL    HW186817   9.780   7.188   2.665  0.0649 -0.3072 -0.6498
27805SOL    HW286818   9.722   7.274   2.776 -0.1301 -0.7652 -0.3899
27806SOL     OW86819   6.223   5.269   9.459  0.4283 -0.7366  0.0622
27806SOL    HW186820   6.166   5.304   9.390 -0.7032 -1.4718  0.5992
27806SOL    HW286821   6.307   5.256   9.416  0.0575 -0.1020 -0.8855
27807SOL     OW86822   0.148   5.449   1.312 -0.3797 -0.5472  0.1349
27807SOL    HW186823   0.235   5.443   1.352 -1.0763  0.7854  2.0100
27807SOL    HW286824   0.091   5.404   1.374 -1.4633  1.3467  0.5795
27808SOL     OW86825   3.358   5.382   2.311 -0.4640  0.0616 -0.5092
27808SOL    HW186826   3.428   5.371   2.246 -1.2820  0.3113 -1.4513
27808SOL    HW286827   3.301   5.449   2.275  0.0064  1.5601  1.3320
27809SOL     OW86828   1.679   3.921   2.898  0.0149  0.4996 -0.1390
27809SOL    HW186829   1.760   3.958   2.933 -0.0723 -0.0522  0.6555
27809SOL    HW286830   1.702   3.897   2.808  1.1716 -0.9377  0.4910
27810SOL     OW86831  10.622   2.714   8.536  0.4393  0.2999  0.0006
27810SOL    HW186832  10.692   2.661   8.499  1.4852  0.5759  1.4746
27810SOL    HW286833  10.549   2.704   8.475  1.4649 -0.7078 -1.1152
27811SOL     OW86834   2.730   9.075   7.261 -0.3765 -0.4899 -0.4698
27811SOL    HW186835   2.794   9.146   7.263 -2.0233  1.0645  0.8607
27811SOL    HW286836   2.733   9.043   7.171  1.9115 -0.1992 -0.5685
27812SOL     OW86837   5.896   6.083   0.993 -0.2871  0.4942  0.2413
27812SOL    HW186838   5.843   6.004   1.006 -0.2633  0.1366 -1.5780
27812SOL    HW286839   5.979   6.064   1.038 -0.8564  0.1505  1.1757
27813SOL     OW86840   4.013   2.917   8.804  0.0969 -0.2318 -0.2790
27813SOL    HW186841   3.958   2.994   8.797 -0.5036 -0.7705 -1.8903
27813SOL    HW286842   4.101   2.948   8.785  0.0349  0.2445  0.1923
27814SOL     OW86843   2.397   6.318   7.111  0.5407  0.4328  0.0949
27814SOL    HW186844   2.410   6.390   7.049  0.8893  0.3135  0.0277
27814SOL    HW286845   2.354   6.250   7.059 -1.1054  1.1162  0.5110
27815SOL     OW86846   3.326   3.253   6.821  0.4804 -0.2250 -0.1602
27815SOL    HW186847   3.313   3.244   6.915  0.0341  1.2407 -0.0493
27815SOL    HW286848   3.419   3.274   6.812  0.5706 -0.5769 -0.0727
27816SOL     OW86849  10.623   1.881   6.634  0.5465 -0.2967 -0.6095
27816SOL    HW186850  10.682   1.805   6.631  1.4060  0.1033  2.5291
27816SOL    HW286851  10.535   1.844   6.631  0.9621 -1.3503 -0.2641
27817SOL     OW86852   2.562   8.537  10.330  0.2451 -0.5008  0.4861
27817SOL    HW186853   2.500   8.489  10.385  0.7967 -2.0880 -0.2427
27817SOL    HW286854   2.621   8.580  10.393  0.1911 -1.3800  1.1554
27818SOL     OW86855   4.798   4.482   0.613  0.5702  0.1320 -0.5135
27818SOL    HW186856   4.747   4.547   0.661 -1.8722 -1.6580 -0.4887
27818SOL    HW286857   4.741   4.455   0.542  0.9586 -2.8287  0.1762
27819SOL     OW86858   9.231   9.044   3.996 -0.0257  0.0084  0.2705
27819SOL    HW186859   9.172   9.047   3.920  1.2931  0.6500 -0.7678
27819SOL    HW286860   9.177   9.007   4.066 -1.2100 -0.8808 -1.0420
27820SOL     OW86861  10.095   5.589   1.571  0.2072  0.3530  0.4443
27820SOL    HW186862  10.166   5.582   1.507  1.2201 -1.2464  1.6672
27820SOL    HW286863  10.126   5.655   1.634  0.2268  0.2539  0.5377
27821SOL     OW86864   3.639  10.851   6.405  0.4277  0.1348  0.3766
27821SOL    HW186865   3.578  10.914   6.444  0.7380 -0.2619  1.5520
27821SOL    HW286866   3.721  10.899   6.396 -0.0457  0.6901 -1.2697
27822SOL     OW86867   3.972   9.153   2.421 -0.3463 -0.0322  0.0559
27822SOL    HW186868   3.917   9.083   2.385 -0.3920 -0.1751  0.3998
27822SOL    HW286869   3.944   9.160   2.513  0.5948 -0.4762  0.3795
27823SOL     OW86870   6.072   8.454   0.967  0.0845  0.0160  0.0810
27823SOL    HW186871   6.098   8.402   0.891  2.1840 -0.5252  1.0863
27823SOL    HW286872   5.982   8.481   0.949  0.3459 -0.5379 -2.3291
27824SOL     OW86873   8.639   5.325   9.960 -0.1125 -0.3577  0.3007
27824SOL    HW186874   8.654   5.382  10.035 -0.9459 -1.1497  1.0840
27824SOL    HW286875   8.665   5.379   9.884  0.5509  0.5134  1.1192
27825SOL     OW86876   6.183   6.378   4.592 -0.0296  0.0144 -0.2227
27825SOL    HW186877   6.107   6.425   4.558 -0.5355  0.1307  1.0030
27825SOL    HW286878   6.178   6.292   4.552 -0.7616  0.0548 -0.2275
27826SOL     OW86879   1.735  10.031   3.796 -0.4568  0.2841  0.3763
27826SOL    HW186880   1.656  10.083   3.783 -0.3687  0.1013 -1.0533
27826SOL    HW286881   1.782  10.076   3.866 -1.7186  0.5035  1.1247
27827SOL     OW86882   4.313  10.753   4.184 -0.4578 -0.1920 -0.3885
27827SOL    HW186883   4.279  10.680   4.237 -0.8254 -0.7924 -1.4213
27827SOL    HW286884   4.269  10.744   4.100  0.7884  0.2024 -1.1050
27828SOL     OW86885   8.020   8.986   6.613  0.2955  0.2010 -0.2171
27828SOL    HW186886   7.967   8.906   6.616 -0.1167  0.4637  2.8362
27828SOL    HW286887   7.969   9.046   6.558  0.7673 -1.6273 -2.8427
27829SOL     OW86888   7.588   8.468   1.992  0.4711 -0.8962 -0.0409
27829SOL    HW186889   7.593   8.562   1.979  0.6093 -0.6444  1.6414
27829SOL    HW286890   7.620   8.431   1.910  0.1192  0.5024 -0.8420
27830SOL     OW86891   7.426   4.507   9.911 -0.3760  0.1105  0.0091
27830SOL    HW186892   7.383   4.564   9.974  0.5528  0.3614  0.4280
27830SOL    HW286893   7.488   4.564   9.865 -0.5105 -0.2322 -0.6053
27831SOL     OW86894   9.929   3.797   8.335  0.5795  0.5619  1.1121
27831SOL    HW186895   9.941   3.866   8.269  0.2158 -0.0905  0.3389
27831SOL    HW286896   9.880   3.838   8.405  0.3411  1.0885  0.6444
27832SOL     OW86897   3.186  10.827   4.859 -0.0944  0.1787  0.1312
27832SOL    HW186898   3.093  10.816   4.880  0.0713  1.0870  1.4782
27832SOL    HW286899   3.190  10.909   4.811 -0.0679 -0.2232 -0.5591
27833SOL     OW86900   7.279   3.073   8.631  0.4656 -0.1399  0.5849
27833SOL    HW186901   7.293   3.018   8.708  2.0238 -0.7082 -0.0569
27833SOL    HW286902   7.354   3.054   8.575  1.0460  2.6406  0.3077
27834SOL     OW86903   4.948   8.441   0.570 -0.4756  0.1945 -0.1451
27834SOL    HW186904   4.921   8.480   0.653  1.4365 -1.3044  1.2845
27834SOL    HW286905   4.894   8.361   0.562 -2.4830  1.5873 -1.7314
27835SOL     OW86906   1.655   4.992   8.135  0.5840  0.1111 -0.0601
27835SOL    HW186907   1.570   5.033   8.151  1.0238  1.1885 -0.3736
27835SOL    HW286908   1.683   5.027   8.050  0.0337 -2.5167 -1.4440
27836SOL     OW86909   1.480   9.405   2.072  0.1505 -0.2433 -0.1525
27836SOL    HW186910   1.564   9.362   2.084  0.4787  0.0464 -1.2823
27836SOL    HW286911   1.497   9.473   2.007 -1.0755 -0.5681 -0.8515
27837SOL     OW86912   9.536   8.306   7.203 -0.2753 -0.3328  0.0893
27837SOL    HW186913   9.580   8.337   7.282 -2.6678  0.7641  1.0960
27837SOL    HW286914   9.494   8.224   7.229  1.1892 -1.4486 -0.9023
27838SOL     OW86915   7.854   1.088   9.176 -0.4917  0.0912 -0.7031
27838SOL    HW186916   7.813   1.122   9.255  0.7402  3.7667 -1.4542
27838SOL    HW286917   7.908   1.160   9.143  0.9015 -2.0500 -3.6456
27839SOL     OW86918  10.847   4.441   5.480  0.7244 -0.8514  0.3788
27839SOL    HW186919  10.794   4.447   5.560 -0.6267 -0.8922 -0.4725
27839SOL    HW286920  10.902   4.518   5.481 -0.4578  0.0190  0.5603
27840SOL     OW86921   8.650   7.408   1.664 -0.8663 -0.2726 -0.0545
27840SOL    HW186922   8.642   7.343   1.595 -1.5580  2.0449 -2.3202
27840SOL    HW286923   8.562   7.416   1.700 -1.0176  0.1009 -0.4933
27841SOL     OW86924   9.033   6.116   0.574 -0.2159 -0.7536  0.0283
27841SOL    HW186925   8.951   6.160   0.553  0.0404 -0.0419  0.4672
27841SOL    HW286926   9.064   6.080   0.490 -0.0776  0.5292 -0.4943
27842SOL     OW86927   3.659   2.537   3.394 -0.4658  0.5659 -0.2455
27842SOL    HW186928   3.587   2.487   3.432 -0.2661  0.2002 -0.3414
27842SOL    HW286929   3.734   2.478   3.399 -0.1842  0.9216 -0.1990
27843SOL     OW86930   2.564   2.605   4.709 -0.2217  0.3591 -0.0563
27843SOL    HW186931   2.543   2.524   4.756 -0.3755  0.4320  0.0027
27843SOL    HW286932   2.609   2.577   4.630  1.9966  0.2957  1.1206
27844SOL     OW86933   1.246   8.486   4.692  0.4473  0.3370  0.8173
27844SOL    HW186934   1.234   8.406   4.641 -2.1161  0.6064  0.8668
27844SOL    HW286935   1.266   8.456   4.780  1.5117 -0.1840  0.4123
27845SOL     OW86936   8.206  10.308   5.627  0.2872  0.0237  0.5304
27845SOL    HW186937   8.199  10.298   5.533 -1.4138  0.1918  0.6159
27845SOL    HW286938   8.233  10.399   5.640  0.5522 -0.0102  0.2113
27846SOL     OW86939   9.554   1.531   3.371  0.2066 -0.3054  0.0857
27846SOL    HW186940   9.504   1.588   3.313  1.9214 -0.5015 -1.6821
27846SOL    HW286941   9.518   1.443   3.354  0.3280 -0.2866 -0.2834
27847SOL     OW86942   2.162   0.896  10.273  0.3146  0.1100 -0.5123
27847SOL    HW186943   2.110   0.975  10.257 -1.1125 -0.3545  1.4443
27847SOL    HW286944   2.217   0.919  10.348 -0.3772 -0.8258  0.3106
27848SOL     OW86945   0.595   7.226   9.783  0.1067  0.6762 -0.0871
27848SOL    HW186946   0.559   7.307   9.746 -0.9535  0.3466  0.1942
27848SOL    HW286947   0.656   7.195   9.715 -1.0752  0.5946 -1.1430
27849SOL     OW86948   9.931   2.359   6.727 -0.1035 -0.1291  0.6387
27849SOL    HW186949   9.909   2.365   6.634  0.7527  2.2975  0.5126
27849SOL    HW286950  10.021   2.327   6.728  0.1355  0.5282  0.5776
27850SOL     OW86951   0.734   8.200   6.607  0.1031  0.2756 -0.0450
27850SOL    HW186952   0.658   8.151   6.576  1.6224 -0.7790 -2.4937
27850SOL    HW286953   0.782   8.222   6.526  1.0579  3.2197  1.1882
27851SOL     OW86954   6.306   6.812   4.158 -0.1251  0.0933 -0.1107
27851SOL    HW186955   6.363   6.803   4.081  0.1815 -0.4516  0.1786
27851SOL    HW286956   6.244   6.881   4.133 -1.7907 -1.9157 -1.9331
27852SOL     OW86957   9.171  10.017   2.530 -0.2866 -0.2627  1.0031
27852SOL    HW186958   9.085  10.058   2.524  0.1277  0.5790  0.6477
27852SOL    HW286959   9.168   9.967   2.611 -1.2668 -0.6217  0.7601
27853SOL     OW86960   9.376   5.069   4.850 -0.1011 -0.0005 -0.6594
27853SOL    HW186961   9.318   5.046   4.923  0.6939  1.7372  0.5991
27853SOL    HW286962   9.334   5.143   4.808 -0.6118 -1.0632 -2.1136
27854SOL     OW86963   2.053   5.571   6.135 -0.3211  0.0266  0.0452
27854SOL    HW186964   2.073   5.537   6.048  2.7395 -0.6624  0.8865
27854SOL    HW286965   2.061   5.666   6.126  0.8518 -0.0887 -0.2755
27855SOL     OW86966   3.778   3.794   8.787  0.3717  0.1560 -0.2803
27855SOL    HW186967   3.866   3.760   8.804  0.5623  0.6585 -0.2236
27855SOL    HW286968   3.727   3.718   8.758  1.6531  0.3494 -3.5072
27856SOL     OW86969   8.599   2.272  10.753 -0.2581  0.3468  0.2601
27856SOL    HW186970   8.532   2.297  10.816  1.0168  0.2446  1.7065
27856SOL    HW286971   8.654   2.210  10.800  0.8419  0.4080 -0.9030
27857SOL     OW86972   3.748  10.657   9.668  0.0624 -0.2360 -0.7180
27857SOL    HW186973   3.656  10.656   9.692 -0.5572 -0.5902 -2.9210
27857SOL    HW286974   3.774  10.749   9.677 -0.3934 -0.1971  0.2699
27858SOL     OW86975   9.252   2.999   1.537 -0.0792  0.1800 -0.9931
27858SOL    HW186976   9.201   2.953   1.470 -1.1061  0.9185 -0.7439
27858SOL    HW286977   9.187   3.050   1.585  0.3210 -1.6739  1.7444
27859SOL     OW86978  10.823   0.311   0.286  0.1214  0.0530 -0.1102
27859SOL    HW186979  10.852   0.220   0.281 -1.7382 -0.5008 -2.3404
27859SOL    HW286980  10.812   0.338   0.194 -0.3893  2.1884  0.5212
27860SOL     OW86981   2.581   5.898   2.910 -0.1639 -0.2207  0.1092
27860SOL    HW186982   2.620   5.973   2.866  1.0783 -0.0268  1.4525
27860SOL    HW286983   2.491   5.925   2.929 -0.0165  0.5575 -0.2633
27861SOL     OW86984   1.093   1.047   3.977 -0.5669  0.0560 -0.4625
27861SOL    HW186985   1.119   0.962   3.940 -0.6793  0.8479 -2.4832
27861SOL    HW286986   1.071   1.027   4.068  0.1234 -1.9412 -0.6661
27862SOL     OW86987   2.660   4.209   7.448 -0.3458 -0.8701  0.4316
27862SOL    HW186988   2.731   4.199   7.385 -0.2166  3.3337 -0.4200
27862SOL    HW286989   2.705   4.225   7.531  0.0156  2.5884 -0.2423
27863SOL     OW86990   1.853   1.056   5.527 -0.6455  0.2406 -0.2887
27863SOL    HW186991   1.770   1.035   5.486 -0.7407 -1.4179  0.6362
27863SOL    HW286992   1.831   1.115   5.599 -1.0880 -0.3725  0.0927
27864SOL     OW86993  10.848   2.553   6.570  0.4324  0.1101 -0.2759
27864SOL    HW186994  10.755   2.569   6.556 -0.0817 -3.1836 -1.5627
27864SOL    HW286995  10.887   2.559   6.483  0.8708 -1.2440 -0.2011
27865SOL     OW86996   4.714   4.440   7.653 -0.8355 -0.1120 -0.6055
27865SOL    HW186997   4.623   4.464   7.666 -0.2971  2.5630 -1.1682
27865SOL    HW286998   4.751   4.433   7.741 -1.3859 -0.4241 -0.3971
27866SOL     OW86999   5.112   0.492   7.809 -0.2577  0.1967 -0.4200
27866SOL    HW187000   5.174   0.419   7.811 -1.6091 -0.9928 -0.4424
27866SOL    HW287001   5.088   0.507   7.900 -0.2954  0.3558 -0.4541
27867SOL     OW87002   6.037   3.423   9.129 -0.1362  0.2748 -0.4562
27867SOL    HW187003   5.996   3.354   9.182 -0.9722  0.2848 -1.0678
27867SOL    HW287004   6.129   3.395   9.121  0.0778  0.4023  1.1831
27868SOL     OW87005   0.227   6.867   4.920 -0.2131  0.1071  0.3023
27868SOL    HW187006   0.255   6.778   4.941 -1.6195 -0.2690  0.6868
27868SOL    HW287007   0.203   6.905   5.004 -0.5635  0.5132  0.0194
27869SOL     OW87008   1.347   3.066   9.534  0.3368 -0.5345  0.1564
27869SOL    HW187009   1.430   3.027   9.506  0.8002 -0.0784  0.8640
27869SOL    HW287010   1.372   3.151   9.572 -0.5468  0.0044 -0.4373
27870SOL     OW87011   0.584   4.908   4.568  0.7171 -0.2497 -0.4739
27870SOL    HW187012   0.495   4.875   4.556  1.0672 -1.0475 -0.9848
27870SOL    HW287013   0.595   4.973   4.498  0.4503  0.0401 -0.2482
27871SOL     OW87014   6.057   6.418   1.692 -0.1871 -0.2345  0.3311
27871SOL    HW187015   6.070   6.387   1.602  0.3610 -0.9875  0.6528
27871SOL    HW287016   6.029   6.340   1.740 -0.7052  0.2154  0.7673
27872SOL     OW87017   4.183   1.801   4.599 -0.1140 -0.1253  0.1876
27872SOL    HW187018   4.222   1.716   4.622 -0.8625 -0.8119 -0.9428
27872SOL    HW287019   4.182   1.801   4.503 -1.1637  0.6681  0.1866
27873SOL     OW87020   6.171   7.457   0.286  0.5343 -0.2144  0.1432
27873SOL    HW187021   6.181   7.391   0.355  2.4240 -0.3056 -0.1614
27873SOL    HW287022   6.147   7.406   0.208 -0.1326 -0.2833  0.3898
27874SOL     OW87023   1.962   4.013   2.501  0.2660  0.2567 -0.3112
27874SOL    HW187024   2.056   4.030   2.494  0.1031  1.0371 -0.6614
27874SOL    HW287025   1.932   4.072   2.571  0.0856 -0.2103  0.0112
27875SOL     OW87026   7.411   3.573   9.377  0.6295 -0.5405 -0.0414
27875SOL    HW187027   7.368   3.635   9.318  1.1131  1.1769  1.3014
27875SOL    HW287028   7.502   3.573   9.348  1.0368  0.9076  1.0955
27876SOL     OW87029   0.815   7.832   2.638 -0.8298  0.0808 -0.3758
27876SOL    HW187030   0.749   7.895   2.611 -0.4818  1.6715  2.1283
27876SOL    HW287031   0.814   7.836   2.734  1.3735 -1.4631 -0.2097
27877SOL     OW87032   6.994   7.590   1.883 -0.2174  0.6964  0.0638
27877SOL    HW187033   6.905   7.554   1.889 -0.2125  0.5370 -0.7047
27877SOL    HW287034   6.982   7.676   1.843 -0.1232  1.1408  0.9542
27878SOL     OW87035   7.540   5.131   5.120 -0.3441  0.2766 -0.2667
27878SOL    HW187036   7.479   5.066   5.157  1.3631 -0.4859  1.3952
27878SOL    HW287037   7.610   5.079   5.082 -0.0278  1.1406 -0.8777
27879SOL     OW87038   3.092   3.574   2.894 -0.7026 -0.0578 -0.5138
27879SOL    HW187039   3.172   3.596   2.943 -0.5269 -1.0038 -0.3466
27879SOL    HW287040   3.021   3.605   2.950 -0.4771 -0.3303 -0.0652
27880SOL     OW87041   1.998   0.481   3.845 -0.0527  0.4445  0.1037
27880SOL    HW187042   2.028   0.416   3.782  1.3400  1.7425 -0.6493
27880SOL    HW287043   2.067   0.483   3.911  0.1704  1.4665 -0.1407
27881SOL     OW87044   5.214   5.040   7.370 -0.9517  0.4585  0.4471
27881SOL    HW187045   5.298   5.083   7.387 -0.6515  0.4751 -0.9431
27881SOL    HW287046   5.152   5.113   7.358 -1.2303  0.4444  1.7099
27882SOL     OW87047   1.552   6.926   9.897 -0.1274  0.1641  0.4604
27882SOL    HW187048   1.510   6.861   9.840  0.1358 -0.1295  0.6019
27882SOL    HW287049   1.584   6.993   9.836  0.5125 -0.3483  0.2235
27883SOL     OW87050  10.526   9.584   2.273 -0.0585 -0.0982 -0.4643
27883SOL    HW187051  10.574   9.516   2.227  0.3051 -0.0218 -0.2080
27883SOL    HW287052  10.485   9.636   2.205 -1.8271 -1.6211 -0.6328
27884SOL     OW87053   8.414   8.827  10.261  0.1913  0.4005 -0.3444
27884SOL    HW187054   8.339   8.885  10.276  1.3136  1.7665  0.2012
27884SOL    HW287055   8.489   8.876  10.294  0.9777 -2.1319  2.0046
27885SOL     OW87056   5.653   3.969   7.803  0.7627 -0.0968 -0.3661
27885SOL    HW187057   5.688   3.884   7.828  2.1063  0.5119 -0.1205
27885SOL    HW287058   5.580   3.948   7.744 -1.1886 -1.5077  2.3270
27886SOL     OW87059   8.055   3.285   9.899  0.4164 -0.1960  0.4405
27886SOL    HW187060   8.019   3.289   9.988 -0.3625  0.9878  0.1036
27886SOL    HW287061   8.066   3.192   9.882 -1.7338 -0.5843  0.8974
27887SOL     OW87062   4.444   0.933   0.526  0.3712  0.1044  0.0867
27887SOL    HW187063   4.388   0.869   0.569 -0.5788  0.0817 -1.1464
27887SOL    HW287064   4.414   0.935   0.435  1.8658  0.6589 -0.4296
27888SOL     OW87065   2.479   1.738   3.738  0.6660 -0.5065  0.2406
27888SOL    HW187066   2.404   1.796   3.754  2.1691  1.5455  0.2017
27888SOL    HW287067   2.470   1.713   3.646  0.1119 -0.1732  0.1964
27889SOL     OW87068   0.691   2.496   5.783  0.1892 -0.3306  0.0166
27889SOL    HW187069   0.772   2.450   5.759  0.7845  0.7094 -0.0115
27889SOL    HW287070   0.710   2.588   5.767 -0.2155  0.1810  2.1242
27890SOL     OW87071   7.247   3.248   9.892  0.5688 -0.1744 -0.1100
27890SOL    HW187072   7.202   3.165   9.879 -0.3931  0.7097 -3.5054
27890SOL    HW287073   7.193   3.296   9.955  0.4410 -1.5535  0.8769
27891SOL     OW87074   8.334   1.718   1.869  0.0274  0.3366  1.1077
27891SOL    HW187075   8.307   1.634   1.832 -2.4414  1.2268  0.6584
27891SOL    HW287076   8.390   1.695   1.943 -0.6537 -1.7009  1.0488
27892SOL     OW87077   7.636   4.095   4.687 -0.0962  0.0588  0.5173
27892SOL    HW187078   7.591   4.019   4.726 -0.0610  0.3115  1.0639
27892SOL    HW287079   7.727   4.067   4.678  0.2485  0.5376  2.1436
27893SOL     OW87080   8.063   5.301   3.714 -0.1789 -0.0733 -0.1174
27893SOL    HW187081   8.025   5.382   3.748 -0.0478  0.8396 -2.0199
27893SOL    HW287082   7.987   5.246   3.693 -0.3191  0.1615 -0.2306
27894SOL     OW87083   4.079   2.090   5.743  0.1775  0.0854  0.5623
27894SOL    HW187084   4.050   2.103   5.652 -1.6488 -2.0827  0.7482
27894SOL    HW287085   4.128   2.170   5.764 -0.1704  1.0670 -2.0034
27895SOL     OW87086   8.271   9.822   8.744 -0.5257 -0.1407  0.3034
27895SOL    HW187087   8.178   9.825   8.765 -0.2835  0.0839  1.4025
27895SOL    HW287088   8.314   9.861   8.820  0.5922 -2.0118  0.6842
27896SOL     OW87089   1.677   9.725   7.579  0.5228 -0.1918 -0.0507
27896SOL    HW187090   1.597   9.744   7.629  2.2850  0.7885  2.6221
27896SOL    HW287091   1.685   9.798   7.518  0.8955  1.4336  1.8089
27897SOL     OW87092   4.618   3.602   3.591  0.6159 -0.0788  0.5888
27897SOL    HW187093   4.598   3.649   3.672 -1.8631  0.4064 -0.2298
27897SOL    HW287094   4.714   3.598   3.590  0.7408 -0.6585  3.8077
27898SOL     OW87095   1.364   7.370   6.375  0.2466  0.4893  0.3706
27898SOL    HW187096   1.349   7.327   6.291  0.3236 -0.3906  0.8027
27898SOL    HW287097   1.352   7.301   6.440 -0.4887  1.3019  1.1344
27899SOL     OW87098   2.692   3.183   2.848 -0.0641  0.0523 -0.1235
27899SOL    HW187099   2.761   3.126   2.882  0.1584  0.1450 -0.4160
27899SOL    HW287100   2.726   3.271   2.860  0.0538  0.0824 -0.6612
27900SOL     OW87101   6.838   1.326   3.100 -0.0016 -0.2230 -0.1283
27900SOL    HW187102   6.742   1.323   3.103 -0.1139  1.9309  0.1422
27900SOL    HW287103   6.858   1.369   3.017  0.7600 -0.9855 -0.3525
27901SOL     OW87104  10.832   9.143   5.098  0.5492  0.0547  0.1371
27901SOL    HW187105  10.750   9.191   5.113  0.2199 -0.1821 -0.8947
27901SOL    HW287106  10.849   9.098   5.181  0.2728  1.0582  0.7510
27902SOL     OW87107   6.247   4.908   2.305 -0.3327 -0.1373  0.3365
27902SOL    HW187108   6.282   4.862   2.229 -1.0602 -0.1264 -0.0073
27902SOL    HW287109   6.324   4.924   2.360  0.0773 -0.8746 -0.0054
27903SOL     OW87110   7.549   2.159   8.816  0.0551 -0.3128 -0.4062
27903SOL    HW187111   7.552   2.225   8.886 -1.0477  0.4887 -1.1023
27903SOL    HW287112   7.612   2.190   8.751  0.1032 -0.3569 -0.3801
27904SOL     OW87113   5.107   8.387   1.783 -0.0606  0.0849 -0.4226
27904SOL    HW187114   5.190   8.421   1.816  0.8588 -1.6602 -0.8168
27904SOL    HW287115   5.110   8.405   1.689 -0.5641  0.8281 -0.3077
27905SOL     OW87116   7.390   4.343   7.405 -0.5354  0.8253  0.3705
27905SOL    HW187117   7.312   4.311   7.360 -0.4690 -1.2520  1.6114
27905SOL    HW287118   7.463   4.315   7.350 -0.5654  0.6566  0.4166
27906SOL     OW87119   7.588   8.272   3.940  0.5811 -0.3156  0.5810
27906SOL    HW187120   7.682   8.258   3.927  1.0831  0.9026  2.3548
27906SOL    HW287121   7.569   8.226   4.022  0.0259  0.8034  1.0956
27907SOL     OW87122  10.466   3.887   0.183  0.7077  0.3347 -0.6511
27907SOL    HW187123  10.402   3.953   0.157 -2.1133 -2.2050 -0.7566
27907SOL    HW287124  10.548   3.935   0.193 -1.1030  3.7572 -0.8379
27908SOL     OW87125   6.338   9.842   6.363  0.4684 -0.3467  0.5895
27908SOL    HW187126   6.421   9.823   6.320  2.0397  0.3661  3.0609
27908SOL    HW287127   6.334   9.780   6.436 -1.0261 -0.1520  0.7104
27909SOL     OW87128   8.200   2.348   5.998 -0.2997 -0.2628  0.1997
27909SOL    HW187129   8.266   2.414   5.975 -1.4496  1.3210  1.1620
27909SOL    HW287130   8.243   2.292   6.062  0.1031  0.8554  0.9373
27910SOL     OW87131   0.641   6.794   0.796  0.7107  0.1999  0.0896
27910SOL    HW187132   0.681   6.750   0.721  0.5449  0.7079 -0.3001
27910SOL    HW287133   0.648   6.887   0.776  1.1540  0.3633  0.9612
27911SOL     OW87134   1.704   3.101   1.457  0.3893 -0.0147 -0.2203
27911SOL    HW187135   1.635   3.100   1.391 -0.3967 -1.8979  0.5608
27911SOL    HW287136   1.659   3.085   1.540  1.2755  2.8488  0.9372
27912SOL     OW87137   3.217   9.208   7.365  0.1495  0.5348  0.0543
27912SOL    HW187138   3.154   9.143   7.395  0.3099  0.4072  0.1167
27912SOL    HW287139   3.264   9.234   7.444  0.8235 -0.0743 -0.1343
27913SOL     OW87140   5.013   0.205  10.514 -0.2732 -0.0987  0.5410
27913SOL    HW187141   4.924   0.235  10.495 -0.0753 -1.2721 -3.1803
27913SOL    HW287142   5.068   0.282  10.502 -0.5654  0.0140 -0.1172
27914SOL     OW87143   5.320   1.009  10.248  0.2989  0.5840  0.0932
27914SOL    HW187144   5.388   0.949  10.277 -2.0993 -2.1187  0.5367
27914SOL    HW287145   5.277   1.038  10.329 -1.1225 -0.3719 -0.2836
27915SOL     OW87146   4.383   5.120   6.910  0.5282 -0.0662  0.3624
27915SOL    HW187147   4.344   5.044   6.954 -0.4999  1.0393  1.4245
27915SOL    HW287148   4.477   5.103   6.913  0.2634 -2.6487 -1.9819
27916SOL     OW87149   7.190   5.680   4.316  0.1554  0.0247  0.0612
27916SOL    HW187150   7.258   5.626   4.357  1.5237  0.3382 -1.6441
27916SOL    HW287151   7.182   5.645   4.227 -0.7924  1.0084 -0.2657
27917SOL     OW87152   7.163  10.916   9.578 -0.1416  0.0978 -0.5705
27917SOL    HW187153   7.203  10.998   9.607 -0.9615 -0.1415  1.4113
27917SOL    HW287154   7.235  10.869   9.535  0.6598  1.3264 -0.6444
27918SOL     OW87155   6.023   1.435   9.286  0.4019  0.5601  0.2517
27918SOL    HW187156   5.937   1.394   9.288  1.6414 -2.1948  2.5210
27918SOL    HW287157   6.067   1.395   9.211  1.3447 -1.9007  2.0194
27919SOL     OW87158   9.835   1.849   9.532 -0.1417 -0.6717 -0.0881
27919SOL    HW187159   9.870   1.937   9.547  0.4608 -1.3228  2.7765
27919SOL    HW287160   9.759   1.863   9.475 -0.5903  1.8198  1.0088
27920SOL     OW87161   9.662   8.519  10.147 -0.4828 -0.3016  0.3829
27920SOL    HW187162   9.647   8.447  10.208  0.7846 -1.6375 -0.8219
27920SOL    HW287163   9.575   8.539  10.112 -0.8580 -1.1638  0.7992
27921SOL     OW87164   0.998   0.120   4.252 -0.3955 -0.3767 -0.0344
27921SOL    HW187165   1.067   0.180   4.280 -0.2493 -0.2986 -0.5543
27921SOL    HW287166   0.955   0.093   4.334 -1.0772  1.1573  0.1369
27922SOL     OW87167   4.686   3.847   2.148  0.6345 -0.3269 -0.2603
27922SOL    HW187168   4.680   3.940   2.166 -0.2682  0.2443 -3.0590
27922SOL    HW287169   4.635   3.834   2.068  1.8472 -2.9941 -0.7277
27923SOL     OW87170   3.016   3.039   4.362 -0.1196 -0.0280  0.9226
27923SOL    HW187171   3.084   2.971   4.363  0.4744  0.5601  1.4175
27923SOL    HW287172   2.960   3.017   4.436 -1.1326 -1.1522 -0.1427
27924SOL     OW87173   0.566   4.100   8.111  0.2868  0.9025  0.4044
27924SOL    HW187174   0.655   4.133   8.107  0.5686  0.1795  0.5038
27924SOL    HW287175   0.519   4.163   8.165  0.9673  0.8016  1.1274
27925SOL     OW87176   8.366   6.037   8.503 -0.2309 -0.1759 -0.3335
27925SOL    HW187177   8.444   6.018   8.450  0.3067  0.2289  0.3034
27925SOL    HW287178   8.388   6.007   8.591 -1.2173 -1.0692 -0.3769
27926SOL     OW87179   3.497   9.810   4.303  0.1188 -0.2172 -0.5302
27926SOL    HW187180   3.543   9.861   4.237  1.9333  0.5619  1.2301
27926SOL    HW287181   3.407   9.802   4.270  0.6636  1.1478 -2.4767
27927SOL     OW87182   8.041   0.916   6.381 -0.4092  0.2251 -0.1951
27927SOL    HW187183   8.115   0.859   6.359  0.4918  1.5216 -0.6587
27927SOL    HW287184   8.081   0.991   6.424 -1.6547  0.1696  1.1464
27928SOL     OW87185   9.106  10.067   1.587  0.3931 -0.1129 -0.2227
27928SOL    HW187186   9.102  10.162   1.587  0.2329 -0.0891 -1.9192
27928SOL    HW287187   9.030  10.039   1.638 -1.2978  0.6621 -2.1820
27929SOL     OW87188   6.266   2.958   8.073 -0.2700  0.2275 -0.7043
27929SOL    HW187189   6.251   2.904   8.150  0.0822  1.5328  0.3188
27929SOL    HW287190   6.355   2.991   8.083 -0.0099 -0.0249 -1.9672
27930SOL     OW87191   5.824   5.800  10.150  0.5993  0.0751  0.5702
27930SOL    HW187192   5.762   5.871  10.161 -3.8581 -3.5128  1.9545
27930SOL    HW287193   5.834   5.763  10.238  1.5211 -1.8574 -0.2662
27931SOL     OW87194   6.917   9.589   7.812 -0.3552 -0.6689 -0.2276
27931SOL    HW187195   7.002   9.635   7.815 -0.8707  0.6541 -2.6414
27931SOL    HW287196   6.928   9.523   7.743 -1.4561  0.0283 -1.1170
27932SOL     OW87197   5.031   5.087   5.933 -0.0037  0.2388 -0.2783
27932SOL    HW187198   5.120   5.072   5.903  0.7440  0.9818  1.4255
27932SOL    HW287199   5.000   5.162   5.881  0.1581 -0.3548 -1.2448
27933SOL     OW87200   1.711  10.766   7.620 -0.3776 -0.8395  0.1925
27933SOL    HW187201   1.681  10.691   7.568 -1.6203 -1.3896  1.6344
27933SOL    HW287202   1.642  10.832   7.608  0.8081  0.2034 -1.2341
27934SOL     OW87203   9.483  10.663   4.309 -0.1451  0.1270  0.0799
27934SOL    HW187204   9.398  10.651   4.352  0.6115  1.0608  1.9674
27934SOL    HW287205   9.529  10.580   4.324 -0.7455 -0.4392 -1.0828
27935SOL     OW87206  10.800   4.374   8.802 -0.2491 -0.1312  0.1500
27935SOL    HW187207  10.819   4.318   8.878  0.4315  1.6534  1.3627
27935SOL    HW287208  10.847   4.455   8.820  1.4896 -0.2618 -3.0875
27936SOL     OW87209   3.025   6.815   8.329 -0.4723 -0.1488  0.3095
27936SOL    HW187210   3.035   6.836   8.236 -1.3580  0.6749  0.3814
27936SOL    HW287211   3.010   6.721   8.332 -0.1962 -0.2167 -0.3573
27937SOL     OW87212   8.848  10.911   1.352  0.3868  0.1080  0.2966
27937SOL    HW187213   8.759  10.912   1.318  0.1343  1.7761  0.9245
27937SOL    HW287214   8.874  10.818   1.349 -1.9131 -0.6394  1.5906
27938SOL     OW87215   5.237   2.210   9.569  0.1202  0.4212 -0.2232
27938SOL    HW187216   5.307   2.148   9.583 -0.9425 -0.5345  1.1673
27938SOL    HW287217   5.163   2.175   9.620 -0.8691  2.1958 -0.3419
27939SOL     OW87218   2.202   0.445   4.323 -0.1585 -0.2903  0.7216
27939SOL    HW187219   2.295   0.467   4.329 -0.1328 -0.6710  2.2397
27939SOL    HW287220   2.160   0.505   4.385 -0.5532 -1.8692  2.0605
27940SOL     OW87221   3.308   5.723   3.917  0.0168 -0.3914  0.3453
27940SOL    HW187222   3.214   5.729   3.898  0.5111  0.4070 -2.2252
27940SOL    HW287223   3.345   5.802   3.878  1.7073 -0.3669  1.8893
27941SOL     OW87224   2.995   0.428   9.894 -0.4611  0.5033  0.3137
27941SOL    HW187225   3.088   0.436   9.913 -0.5480 -0.5952  1.3195
27941SOL    HW287226   2.987   0.349   9.841 -0.8677  0.2981  0.6739
27942SOL     OW87227   4.874   4.202   6.241 -0.4500 -0.2551 -0.0572
27942SOL    HW187228   4.840   4.113   6.248  0.7265 -0.7517 -0.4878
27942SOL    HW287229   4.827   4.239   6.166 -0.3459 -0.7892 -0.3909
27943SOL     OW87230   2.591   1.376   7.244 -0.1664  0.2859 -0.0246
27943SOL    HW187231   2.554   1.385   7.157 -0.5787 -0.9146 -0.0075
27943SOL    HW287232   2.612   1.282   7.251 -0.6247  0.2590  1.3316
27944SOL     OW87233   7.948   6.620   8.321 -0.4525  0.1781 -0.3497
27944SOL    HW187234   7.929   6.599   8.413  0.9779 -0.5762 -0.1991
27944SOL    HW287235   7.888   6.691   8.300 -0.1116  1.0811  1.4932
27945SOL     OW87236  10.089   2.641   7.914  0.1747 -0.0266  0.1676
27945SOL    HW187237  10.036   2.582   7.861 -0.4562 -1.2405  2.0759
27945SOL    HW287238  10.156   2.673   7.854 -1.5214  0.0348 -1.7987
27946SOL     OW87239   3.506   6.476   9.405 -0.0633  0.3263 -0.3022
27946SOL    HW187240   3.576   6.461   9.341 -0.4134  0.6722 -0.7762
27946SOL    HW287241   3.454   6.548   9.367  0.3478  1.2810  0.8797
27947SOL     OW87242   0.905   8.295   7.888  0.0830 -0.1668 -0.4074
27947SOL    HW187243   0.859   8.274   7.807 -0.3342  0.0965 -0.2453
27947SOL    HW287244   0.952   8.376   7.870  0.6123 -0.5217 -0.6220
27948SOL     OW87245   9.792   1.815   1.188  0.5102  0.0323 -0.0005
27948SOL    HW187246   9.836   1.832   1.105 -0.0433 -0.7189 -0.4710
27948SOL    HW287247   9.828   1.731   1.218 -1.1909 -1.0759 -0.8614
27949SOL     OW87248   0.427   8.886   9.171  0.1299  0.4001  0.0127
27949SOL    HW187249   0.357   8.856   9.229 -0.0202 -0.5465 -0.6364
27949SOL    HW287250   0.397   8.864   9.083  1.3771 -0.3255 -0.2643
27950SOL     OW87251  10.856   0.892   2.958  0.1440  0.7821  0.1318
27950SOL    HW187252  10.900   0.859   2.880  1.7028 -0.4981  1.4784
27950SOL    HW287253  10.899   0.976   2.976  0.1027  0.8583 -0.1259
27951SOL     OW87254   6.881  10.080   5.269  0.0151  0.5601 -0.3477
27951SOL    HW187255   6.854  10.101   5.179 -2.3761 -0.9303 -0.0805
27951SOL    HW287256   6.839  10.147   5.323 -1.6130 -0.6048 -0.0968
27952SOL     OW87257   8.275  10.503  10.795 -0.1692 -0.1632  0.0683
27952SOL    HW187258   8.206  10.483  10.732 -1.6181  0.8072  1.2883
27952SOL    HW287259   8.347  10.536  10.742 -0.1158 -2.3671 -1.3509
27953SOL     OW87260   4.031   4.963   3.603  0.8018 -0.2208 -0.0620
27953SOL    HW187261   4.074   5.047   3.623 -0.9063  0.6182  0.3245
27953SOL    HW287262   4.011   4.926   3.689  0.9720 -0.7171 -0.2359
27954SOL     OW87263   2.775  10.167   3.382  0.2306  0.0485  0.2213
27954SOL    HW187264   2.855  10.144   3.335 -0.6355 -1.8036 -0.4384
27954SOL    HW287265   2.744  10.246   3.339  0.0045 -1.0376 -1.7139
27955SOL     OW87266   7.741  10.562   5.024  0.0412 -0.1253  0.2642
27955SOL    HW187267   7.651  10.537   5.003  0.0067  0.8487 -0.8682
27955SOL    HW287268   7.771  10.496   5.087 -1.0416 -1.1881 -0.3012
27956SOL     OW87269   0.140   2.002   9.340  0.1346  0.0958 -0.2990
27956SOL    HW187270   0.054   1.966   9.317  0.4131 -1.3065  0.7184
27956SOL    HW287271   0.202   1.931   9.323  1.3431  1.5179 -2.3395
27957SOL     OW87272   3.174   2.326   1.776 -0.3565 -0.0850 -0.2331
27957SOL    HW187273   3.264   2.333   1.808 -0.2641 -0.1985 -0.4652
27957SOL    HW287274   3.127   2.282   1.846 -0.2010 -0.1414 -0.1649
27958SOL     OW87275   0.329   8.001  10.692 -0.6010 -0.2011  0.3426
27958SOL    HW187276   0.362   7.930  10.747  0.7082 -0.8147 -1.1622
27958SOL    HW287277   0.407   8.034  10.647 -1.1533  2.3043  1.0926
27959SOL     OW87278   4.526   6.676   7.554  0.0079 -0.2572  0.3177
27959SOL    HW187279   4.557   6.629   7.632  0.0936 -0.6417  0.0552
27959SOL    HW287280   4.433   6.694   7.572 -0.1808 -1.0519  0.1753
27960SOL     OW87281  10.393   6.452   8.125  0.1224  0.3183  0.0526
27960SOL    HW187282  10.448   6.524   8.096 -1.8054  1.8537 -0.0376
27960SOL    HW287283  10.445   6.373   8.107  0.8106  1.3821 -3.5998
27961SOL     OW87284  10.859   6.775   8.162  0.1268 -0.2430  0.2818
27961SOL    HW187285  10.884   6.867   8.167  0.3445 -0.3213  0.6356
27961SOL    HW287286  10.872   6.751   8.070 -2.3037  0.7582 -0.4112
27962SOL     OW87287   8.731   3.719   1.592  0.2953  0.2292  0.3066
27962SOL    HW187288   8.707   3.791   1.650 -2.1068 -0.7345  0.6231
27962SOL    HW287289   8.796   3.757   1.533 -0.6676  2.5944  0.6415
27963SOL     OW87290   7.068   3.108   7.694 -0.4364  0.3316  0.3377
27963SOL    HW187291   6.979   3.141   7.710 -0.7328 -0.4418  0.3326
27963SOL    HW287292   7.120   3.186   7.676 -1.1035  0.7986  0.4069
27964SOL     OW87293   1.124   4.745   8.664  0.4780 -0.0092 -0.2927
27964SOL    HW187294   1.151   4.772   8.751  1.5272  1.8352 -1.1403
27964SOL    HW287295   1.203   4.708   8.624  0.0765 -0.5788 -0.5862
27965SOL     OW87296   3.284   2.416  10.191  0.0248  0.0866 -0.1052
27965SOL    HW187297   3.248   2.336  10.154  1.4970 -1.4208  1.5563
27965SOL    HW287298   3.208   2.475  10.198 -1.2682 -1.4428 -0.5329
27966SOL     OW87299   4.216   9.067   3.819 -0.2953 -0.5503 -0.6615
27966SOL    HW187300   4.164   9.140   3.852  0.4060 -0.6512  0.7323
27966SOL    HW287301   4.195   8.994   3.876  1.4874 -0.5411  0.0731
27967SOL     OW87302   3.658   9.353   3.468 -0.2264 -0.0108  0.2795
27967SOL    HW187303   3.634   9.265   3.439 -1.3156  0.0049  1.0722
27967SOL    HW287304   3.594   9.374   3.537  0.5304  1.0653  0.6827
27968SOL     OW87305   8.883   3.367   2.982  0.4776 -0.4240  0.0952
27968SOL    HW187306   8.866   3.290   2.928 -0.5201 -0.0925 -0.0802
27968SOL    HW287307   8.889   3.333   3.071 -2.1033 -0.4930  0.3208
27969SOL     OW87308   9.517   1.049   0.046  0.5249 -1.1432 -0.3725
27969SOL    HW187309   9.612   1.050   0.040  0.5600 -2.4271 -0.4071
27969SOL    HW287310   9.490   0.976  -0.009 -0.5625 -0.1785 -1.1652
27970SOL     OW87311   2.702   9.106  10.894  0.1049  0.6834 -0.3964
27970SOL    HW187312   2.608   9.106  10.914  0.6010 -0.2361  2.4574
27970SOL    HW287313   2.709   9.158  10.814 -2.8396  0.5382 -0.8920
27971SOL     OW87314   4.913   3.003   5.235 -0.1486 -0.2383 -0.0547
27971SOL    HW187315   4.831   3.041   5.268 -0.2398 -0.9837  0.5940
27971SOL    HW287316   4.924   3.043   5.148 -1.1052  0.0025 -0.0813
27972SOL     OW87317   0.354   8.086   1.909  0.2313 -0.0780 -0.1929
27972SOL    HW187318   0.415   8.159   1.905  0.9510 -0.6587 -0.1124
27972SOL    HW287319   0.378   8.031   1.834  0.0933 -0.5268  0.0856
27973SOL     OW87320   4.891   1.382   1.538  1.2216  0.2276 -0.2192
27973SOL    HW187321   4.956   1.315   1.553 -0.2979 -1.3370 -0.2902
27973SOL    HW287322   4.923   1.459   1.586  2.5095 -0.8451  0.6991
27974SOL     OW87323   5.261   4.532   7.775  0.0255  0.1541  0.0434
27974SOL    HW187324   5.253   4.596   7.847  1.4553 -1.0926  1.3774
27974SOL    HW287325   5.171   4.510   7.753 -0.4916  2.0519  0.0568
27975SOL     OW87326   2.665   9.374   6.531  0.3596  0.1382 -0.6231
27975SOL    HW187327   2.583   9.415   6.506 -0.5188 -1.1723  0.0152
27975SOL    HW287328   2.639   9.296   6.581  1.9804  0.4857  0.8609
27976SOL     OW87329   1.568   8.481   6.479  0.0856 -0.0298  0.6832
27976SOL    HW187330   1.596   8.539   6.408  0.6294 -0.2873  0.6870
27976SOL    HW287331   1.614   8.399   6.463 -2.6211 -1.3664 -0.8109
27977SOL     OW87332   1.195   0.626   7.525 -0.3437  0.3598  0.2103
27977SOL    HW187333   1.243   0.673   7.457  0.0116  0.5893  0.6125
27977SOL    HW287334   1.189   0.689   7.597 -0.8715  0.1836  0.3237
27978SOL     OW87335   9.066   1.348   1.823  0.0460 -0.8483 -0.2495
27978SOL    HW187336   8.974   1.371   1.836 -0.0713 -0.6302 -1.4110
27978SOL    HW287337   9.114   1.403   1.885 -0.6137 -1.1488  0.5451
27979SOL     OW87338   3.049   0.100   7.505  0.1608 -0.4809  0.4846
27979SOL    HW187339   3.026   0.180   7.457 -2.3395 -0.4572  1.6007
27979SOL    HW287340   3.131   0.122   7.549  0.9992  0.4686 -1.4084
27980SOL     OW87341   0.074   2.670   0.531  0.9997  0.1797  0.3235
27980SOL    HW187342   0.003   2.712   0.578  1.9820  3.6675 -1.0493
27980SOL    HW287343   0.039   2.651   0.444  1.3703  0.7210  0.0536
27981SOL     OW87344   2.547   7.142   8.616 -0.5103 -0.2356 -0.3321
27981SOL    HW187345   2.611   7.212   8.606  1.7994 -2.0806  0.5844
27981SOL    HW287346   2.553   7.092   8.535 -0.5960 -0.5533 -0.1460
27982SOL     OW87347   4.576   2.180   4.405  0.1443  0.2554 -0.1198
27982SOL    HW187348   4.550   2.267   4.436 -0.7345  0.0082 -0.1203
27982SOL    HW287349   4.652   2.157   4.457 -1.3606 -0.1994  2.0092
27983SOL     OW87350   0.973   5.088   8.972  0.0349  0.5087 -0.5243
27983SOL    HW187351   0.881   5.087   8.999 -0.3755 -0.4325 -1.8242
27983SOL    HW287352   1.012   5.013   9.016  0.0012  0.5107 -0.4917
27984SOL     OW87353   1.229   0.236   4.846  0.4423 -0.3235  0.8237
27984SOL    HW187354   1.303   0.287   4.812 -1.4741  1.4125 -1.0197
27984SOL    HW287355   1.196   0.189   4.770  0.9244 -2.9032  2.0927
27985SOL     OW87356   0.687  10.618   1.987  0.4353 -0.2872  0.6022
27985SOL    HW187357   0.627  10.610   2.060  0.7651  0.8735  1.0244
27985SOL    HW287358   0.767  10.574   2.016 -0.2853 -2.1125 -0.0830
27986SOL     OW87359   6.935   2.469   0.624  0.1231 -0.5727 -0.2440
27986SOL    HW187360   7.019   2.512   0.641 -0.1962 -0.5120  1.3989
27986SOL    HW287361   6.878   2.503   0.693 -1.5498  0.1213 -1.8959
27987SOL     OW87362   7.795   6.684   6.944  0.4537 -0.3688 -0.0048
27987SOL    HW187363   7.849   6.715   7.016 -0.5964 -1.3043  1.2310
27987SOL    HW287364   7.799   6.754   6.879  0.1890  1.1927  1.6007
27988SOL     OW87365   7.278   7.945   0.982 -0.0413  0.4534 -0.2673
27988SOL    HW187366   7.241   7.876   1.038 -0.1576 -0.4463 -1.4103
27988SOL    HW287367   7.240   7.928   0.896 -2.2837  3.6111 -0.0698
27989SOL     OW87368   2.432  10.462   4.743  0.4489  0.4050 -0.3380
27989SOL    HW187369   2.518  10.424   4.724  1.2693  1.3257  1.2949
27989SOL    HW287370   2.371  10.389   4.734  1.2948 -0.1246 -2.1436
27990SOL     OW87371   3.809   0.468   6.385 -0.4183  0.1433  0.1138
27990SOL    HW187372   3.868   0.533   6.422 -0.4272  0.2746 -0.1019
27990SOL    HW287373   3.749   0.446   6.456 -0.3492  0.2923  0.2175
27991SOL     OW87374   2.305   3.756   5.523  0.0376  0.1737 -0.1934
27991SOL    HW187375   2.258   3.829   5.484  0.0373 -0.1978 -0.9047
27991SOL    HW287376   2.254   3.733   5.601  0.6777  1.6718  0.7137
27992SOL     OW87377  10.559   9.419   7.757  0.2927 -0.0657 -0.1192
27992SOL    HW187378  10.635   9.374   7.719 -1.8649 -1.3674 -3.4222
27992SOL    HW287379  10.501   9.348   7.784  0.0687  0.8964  2.0957
27993SOL     OW87380  10.342   6.241   4.957  0.0683  0.0310 -0.1582
27993SOL    HW187381  10.339   6.214   4.865 -0.2702  0.1661 -0.1863
27993SOL    HW287382  10.380   6.329   4.955  0.2083 -0.0287 -0.1541
27994SOL     OW87383   9.112   5.122   4.078 -0.2388  0.0227  0.0771
27994SOL    HW187384   9.187   5.130   4.018 -0.2862 -0.1525 -0.0077
27994SOL    HW287385   9.077   5.034   4.060 -1.5878  0.7680 -1.2008
27995SOL     OW87386   1.236  10.080   7.640  0.4209  0.0423 -0.2166
27995SOL    HW187387   1.156  10.040   7.674  0.8618 -3.4952 -2.7281
27995SOL    HW287388   1.292  10.089   7.717 -1.0320 -1.0621  1.0378
27996SOL     OW87389  10.738   7.887  10.133  0.2797 -0.2541 -0.4731
27996SOL    HW187390  10.687   7.935  10.198 -0.6746 -0.4743 -1.0410
27996SOL    HW287391  10.688   7.895  10.052  2.4341  1.7618 -1.7479
27997SOL     OW87392   1.347   5.074   1.591 -0.8788  0.0957 -0.0886
27997SOL    HW187393   1.298   5.015   1.534 -0.3293 -0.4721  0.0226
27997SOL    HW287394   1.336   5.036   1.679 -0.3594  0.0440 -0.0451
27998SOL     OW87395   7.615   9.931   3.072  0.5892 -0.0252 -0.5519
27998SOL    HW187396   7.571   9.885   3.144 -0.3736  0.7132 -0.6497
27998SOL    HW287397   7.564   9.910   2.994  2.0588 -1.4274 -1.1952
27999SOL     OW87398   0.453  10.840   6.408  0.3806  0.1411  0.8239
27999SOL    HW187399   0.394  10.865   6.337  0.8321  1.0754  0.7555
27999SOL    HW287400   0.421  10.755   6.438 -0.4260  0.2082  0.1757
28000SOL     OW87401  10.166   9.760   2.783 -0.4954  0.3748 -0.1708
28000SOL    HW187402  10.107   9.782   2.854 -0.4661 -0.8995  0.2719
28000SOL    HW287403  10.144   9.670   2.759  0.1893  0.4230 -1.0766
28001SOL     OW87404   3.696   9.693   0.287  0.4729 -0.9921  0.2052
28001SOL    HW187405   3.674   9.644   0.366  2.0334  1.3727  2.2720
28001SOL    HW287406   3.641   9.771   0.291 -0.4461 -1.4387 -1.8958
28002SOL     OW87407   8.934   7.751   3.165 -0.0943  0.0485 -0.0823
28002SOL    HW187408   9.002   7.746   3.098  1.1029 -0.0847  1.0979
28002SOL    HW287409   8.852   7.756   3.116  0.8171  1.3608 -1.5668
28003SOL     OW87410   1.473   4.018   2.038 -0.0919  0.0567 -0.1101
28003SOL    HW187411   1.473   4.113   2.046  1.0964  0.0288  0.4275
28003SOL    HW287412   1.515   3.987   2.118 -1.9111 -1.0177  0.4909
28004SOL     OW87413   8.181   3.466  10.760 -0.7582  0.2773 -0.7833
28004SOL    HW187414   8.266   3.422  10.773 -0.9227  0.3977  0.8700
28004SOL    HW287415   8.175   3.477  10.665 -0.9762 -3.8386 -1.4299
28005SOL     OW87416   7.719   0.485   1.063 -0.0220  0.0201  0.3872
28005SOL    HW187417   7.668   0.488   1.144  0.6555  1.1826  0.7920
28005SOL    HW287418   7.681   0.554   1.009 -0.1410 -0.4176 -0.0943
28006SOL     OW87419   2.122  10.021   7.461  0.5727  0.7704 -0.0879
28006SOL    HW187420   2.104   9.933   7.428 -0.7303  0.2804  1.7247
28006SOL    HW287421   2.177  10.006   7.538 -1.5121  1.2665  1.6013
28007SOL     OW87422   1.577   4.134   1.396 -0.2930 -0.1767  0.5533
28007SOL    HW187423   1.535   4.210   1.357 -1.2826  0.1125  2.1402
28007SOL    HW287424   1.661   4.167   1.429  0.1982 -0.2554 -0.5377
28008SOL     OW87425   2.904   4.440   3.701 -0.6052  0.3722 -0.3987
28008SOL    HW187426   2.850   4.456   3.624  0.2354  3.7333 -0.4293
28008SOL    HW287427   2.993   4.462   3.673  0.1283 -0.7876  0.8683
28009SOL     OW87428   3.298   9.756   9.761  0.3607 -0.1854 -0.0375
28009SOL    HW187429   3.367   9.760   9.694  1.5435  1.0008  1.1984
28009SOL    HW287430   3.220   9.729   9.713  1.4349 -0.5187 -1.6826
28010SOL     OW87431   4.321   8.154   6.623  0.2146  0.3007  0.7117
28010SOL    HW187432   4.357   8.107   6.548 -1.0389 -0.6460  0.6708
28010SOL    HW287433   4.234   8.117   6.635 -0.7078  2.4079  0.8962
28011SOL     OW87434   2.297   6.572   2.096 -0.2359 -0.8087 -0.6685
28011SOL    HW187435   2.307   6.477   2.101  1.7224 -0.8399 -3.2312
28011SOL    HW287436   2.376   6.607   2.136  0.0470 -0.3304 -1.6266
28012SOL     OW87437   0.641   7.849  10.827 -0.0554 -0.2813 -0.3102
28012SOL    HW187438   0.711   7.860  10.891 -0.3466 -0.7445  0.0987
28012SOL    HW287439   0.560   7.854  10.879 -0.2922 -0.7514 -0.6252
28013SOL     OW87440   1.899   0.701   5.791  0.6769 -0.0714 -0.0010
28013SOL    HW187441   1.809   0.730   5.805  0.7678 -0.1905  0.9268
28013SOL    HW287442   1.920   0.649   5.869  1.3618 -0.5151 -0.4651
28014SOL     OW87443   0.951   0.944   6.017 -0.6479 -0.0916  0.6337
28014SOL    HW187444   0.906   0.883   5.958 -0.9816 -0.3747  1.1729
28014SOL    HW287445   1.039   0.908   6.026  0.8608  2.1237 -2.9451
28015SOL     OW87446   5.194   7.019   8.492  0.4111 -0.3832  0.2282
28015SOL    HW187447   5.118   7.046   8.542  0.3842 -1.6833  0.9478
28015SOL    HW287448   5.160   7.000   8.405  0.1634  0.3186  0.1671
28016SOL     OW87449   4.075   6.332  10.875 -0.4597  0.0725 -0.2452
28016SOL    HW187450   4.087   6.416  10.918 -0.5839  0.8951 -1.7554
28016SOL    HW287451   4.157   6.285  10.890 -0.0546  0.8073 -0.1249
28017SOL     OW87452   0.264   8.636   2.858 -0.1930  0.2693  0.2885
28017SOL    HW187453   0.233   8.700   2.922 -1.5111  1.1103 -1.1199
28017SOL    HW287454   0.359   8.648   2.856 -0.2299  0.8425  1.4151
28018SOL     OW87455   2.114   1.257  10.053 -0.2333  0.0370  0.1999
28018SOL    HW187456   2.098   1.195  10.125  1.1493  1.1383  1.5343
28018SOL    HW287457   2.048   1.325  10.066 -0.1246  0.1243  0.2957
28019SOL     OW87458   6.417   1.400   6.099  0.0524  0.1511 -0.0625
28019SOL    HW187459   6.452   1.338   6.035 -1.1917 -0.7322  0.0697
28019SOL    HW287460   6.477   1.392   6.174  0.6675  0.1015 -0.5459
28020SOL     OW87461   2.170   9.685   3.849 -0.5093  0.5482  0.9596
28020SOL    HW187462   2.256   9.726   3.849 -0.8553  1.3947 -0.6723
28020SOL    HW287463   2.110   9.755   3.874 -0.8743  0.4489  0.3978
28021SOL     OW87464   7.306   9.215   3.631  0.0647  0.2834  0.0513
28021SOL    HW187465   7.271   9.212   3.542  1.7337  0.2838 -0.6437
28021SOL    HW287466   7.366   9.290   3.631 -0.6865  0.9471  1.5143
28022SOL     OW87467   4.140   7.199  10.007 -0.0383  0.0567 -0.0844
28022SOL    HW187468   4.141   7.183  10.101 -0.5895 -1.6716 -0.3335
28022SOL    HW287469   4.056   7.242   9.991 -0.6492 -1.0621  0.0336
28023SOL     OW87470   9.679   1.832   0.799  0.0590  0.0446  0.0612
28023SOL    HW187471   9.685   1.737   0.810  0.1210  0.1711  1.2011
28023SOL    HW287472   9.624   1.862   0.871 -0.0657  0.8680 -0.3565
28024SOL     OW87473   0.119   1.760   2.767 -0.2590  0.2974  0.0123
28024SOL    HW187474   0.099   1.851   2.790 -0.5862  0.5408 -1.1899
28024SOL    HW287475   0.169   1.727   2.842 -0.7229  1.2534  0.7630
28025SOL     OW87476   5.698   0.442   4.657  0.3999 -0.0509 -0.0431
28025SOL    HW187477   5.706   0.509   4.725  0.1007  1.3283 -1.3090
28025SOL    HW287478   5.760   0.374   4.682  2.1657  1.6056  0.2728
28026SOL     OW87479   4.635   8.159   3.434 -0.2543 -0.4244  0.0671
28026SOL    HW187480   4.722   8.154   3.394 -1.3994 -0.3077 -2.6568
28026SOL    HW287481   4.646   8.219   3.507  1.7332  0.4317 -0.8512
28027SOL     OW87482   4.489   3.014  10.488 -0.4362  0.0835 -0.5153
28027SOL    HW187483   4.512   3.025  10.396  0.5197  0.0989 -0.2868
28027SOL    HW287484   4.568   3.040  10.535  0.1408 -2.6493  0.2178
28028SOL     OW87485   9.947   9.461   1.830 -0.1876  0.0761 -1.1176
28028SOL    HW187486   9.918   9.469   1.921 -0.4496 -0.0553 -1.1877
28028SOL    HW287487   9.996   9.379   1.826  0.2286  0.3205 -0.9885
28029SOL     OW87488   0.789   3.215   2.199  0.0307 -0.2260 -0.4291
28029SOL    HW187489   0.841   3.163   2.138  0.9254  0.3499 -0.1810
28029SOL    HW287490   0.853   3.251   2.261 -0.2445  2.6804 -1.6386
28030SOL     OW87491   0.379  10.040   4.429  0.5382 -0.5543 -0.4220
28030SOL    HW187492   0.325  10.060   4.352 -0.1221 -2.1462 -0.4068
28030SOL    HW287493   0.461  10.006   4.393  1.0010  0.5323 -0.4264
28031SOL     OW87494   1.751   7.741   6.011  0.6963  0.1541  1.0343
28031SOL    HW187495   1.777   7.669   6.069  2.7404 -0.5096 -0.6004
28031SOL    HW287496   1.771   7.710   5.923  0.5332  2.2737  0.1919
28032SOL     OW87497   0.419   2.374   8.019 -0.3466  0.2391 -0.3121
28032SOL    HW187498   0.436   2.396   7.927 -1.0753  0.0460 -0.5052
28032SOL    HW287499   0.331   2.408   8.036  0.0499  0.8741  0.5209
28033SOL     OW87500   1.914   9.918   8.993  0.0677  0.3395  0.2564
28033SOL    HW187501   1.928   9.890   9.083 -1.9586  0.2937  0.6172
28033SOL    HW287502   1.998   9.955   8.966  1.3760 -1.6085  1.3955
28034SOL     OW87503   5.804   4.790   7.926  0.3672 -0.2383  1.0891
28034SOL    HW187504   5.731   4.733   7.950 -1.0402  0.3974 -1.3356
28034SOL    HW287505   5.766   4.877   7.915  0.9899 -0.2240 -2.0001
28035SOL     OW87506   5.099   1.944   6.860  0.6002  0.3380  0.1481
28035SOL    HW187507   5.183   1.905   6.885  0.3289  0.1373  0.7719
28035SOL    HW287508   5.095   1.936   6.765  0.4053 -1.4683  0.2832
28036SOL     OW87509   2.704   7.900   9.712 -0.1694  0.1163  0.4429
28036SOL    HW187510   2.670   7.858   9.792  0.2500 -1.2848 -0.0772
28036SOL    HW287511   2.739   7.827   9.661 -0.7185  0.9537 -1.1808
28037SOL     OW87512   4.409   8.144   0.808 -0.1860  0.1146  0.3133
28037SOL    HW187513   4.397   8.051   0.829 -1.3554 -0.1241 -1.2846
28037SOL    HW287514   4.326   8.185   0.830  0.0455  0.6324  0.2303
28038SOL     OW87515   3.489   1.134   4.469 -1.0944  0.2338 -0.7167
28038SOL    HW187516   3.409   1.091   4.499 -0.8233  0.9318  1.1816
28038SOL    HW287517   3.560   1.091   4.517 -0.3896  0.1179 -1.8180
28039SOL     OW87518  10.491   6.488   9.562  0.1705  0.0255 -0.2387
28039SOL    HW187519  10.553   6.536   9.508 -0.1069 -1.0983 -1.6072
28039SOL    HW287520  10.437   6.557   9.602  2.8728  1.1126  1.8663
28040SOL     OW87521   5.436   4.143   6.052  0.3291  0.2947 -0.1840
28040SOL    HW187522   5.494   4.164   6.125 -0.2742  0.2266  0.3192
28040SOL    HW287523   5.356   4.111   6.093  0.2075 -0.3299 -0.8863
28041SOL     OW87524   1.928   8.378   5.040 -0.0235  0.8679 -0.1155
28041SOL    HW187525   1.857   8.427   5.082  0.2936  2.3295 -1.2332
28041SOL    HW287526   1.953   8.312   5.105 -2.0588  0.6328  0.5009
28042SOL     OW87527   8.838  10.547   6.988 -0.0816 -0.1181  0.0347
28042SOL    HW187528   8.764  10.547   7.049  0.0722 -0.6910  0.2213
28042SOL    HW287529   8.818  10.477   6.926  0.7365 -0.8752  0.6105
28043SOL     OW87530   1.194  10.904   3.476  0.5382 -0.4289 -0.0321
28043SOL    HW187531   1.177  10.874   3.565  0.3486 -1.9828 -0.5780
28043SOL    HW287532   1.181  10.999   3.480  1.8891 -0.2728  1.9073
28044SOL     OW87533   7.095   7.164   2.281 -0.1116 -0.1547 -0.6121
28044SOL    HW187534   7.024   7.129   2.334  0.6419 -3.1794 -1.4207
28044SOL    HW287535   7.085   7.122   2.195  1.6263  0.6934 -1.2853
28045SOL     OW87536   8.615   5.547   6.657 -0.0319  0.2985 -0.0366
28045SOL    HW187537   8.539   5.567   6.602  0.3555  0.3893 -0.5471
28045SOL    HW287538   8.659   5.631   6.666  1.0584 -0.0959 -1.3557
28046SOL     OW87539   1.092   9.020   9.182  0.7280 -0.9146 -0.1462
28046SOL    HW187540   1.150   9.082   9.227 -1.5367  1.3309 -0.1189
28046SOL    HW287541   1.062   9.068   9.104 -2.4571 -1.2174  0.7762
28047SOL     OW87542   0.258   1.774   5.965  0.5584 -0.3552  0.7663
28047SOL    HW187543   0.239   1.805   5.876 -0.1992 -1.5205  0.5090
28047SOL    HW287544   0.338   1.723   5.956  1.7640  1.3453  1.1791
28048SOL     OW87545  10.225   7.348   2.232  0.2954 -0.3457  0.3746
28048SOL    HW187546  10.265   7.399   2.302  0.0819  0.2656  0.0525
28048SOL    HW287547  10.288   7.353   2.160 -0.9964  1.8952 -0.6814
28049SOL     OW87548   2.829   4.842   4.496 -0.4725  0.9484  0.4070
28049SOL    HW187549   2.884   4.769   4.467  0.0304  1.8019 -0.8936
28049SOL    HW287550   2.756   4.843   4.434 -1.5162  0.3969  1.5741
28050SOL     OW87551   1.807   2.433   2.523 -0.2784  0.0962  0.5017
28050SOL    HW187552   1.809   2.345   2.560 -0.3413  0.1833  0.7121
28050SOL    HW287553   1.832   2.491   2.595  2.1169  0.0623 -0.2216
28051SOL     OW87554   5.168   3.687   9.023 -0.1149 -0.3760 -0.4275
28051SOL    HW187555   5.120   3.657   8.945  0.6505 -0.9223 -0.7055
28051SOL    HW287556   5.227   3.614   9.044  1.2966  0.6435 -0.6921
28052SOL     OW87557   4.845   0.052   3.148 -0.2914  0.5955  0.1117
28052SOL    HW187558   4.788  -0.009   3.195 -1.3414  1.1521 -0.4066
28052SOL    HW287559   4.787   0.095   3.085  0.8660  0.6429 -0.9427
28053SOL     OW87560   0.149   2.702   3.425  0.0318  0.2560  0.3314
28053SOL    HW187561   0.146   2.629   3.363  1.6092  1.4572 -1.2491
28053SOL    HW287562   0.109   2.775   3.377  2.2127  1.4795  0.2408
28054SOL     OW87563   3.388   0.039  10.090  0.0631  0.0254  0.1415
28054SOL    HW187564   3.469  -0.013  10.094 -0.2017 -0.4323 -0.3222
28054SOL    HW287565   3.359   0.045  10.181  0.5875  0.1471  0.3072
28055SOL     OW87566   2.372   0.867   0.154 -0.1434  0.1382 -0.3122
28055SOL    HW187567   2.461   0.836   0.170  0.1540  1.2253  0.1955
28055SOL    HW287568   2.337   0.887   0.241  0.1546  2.4478 -0.6527
28056SOL     OW87569   9.226   0.753   1.216  0.4504 -0.1461 -0.5131
28056SOL    HW187570   9.180   0.784   1.294 -0.9606 -0.3145 -1.2341
28056SOL    HW287571   9.253   0.664   1.239  1.2052  0.2665  0.2366
28057SOL     OW87572   8.743   8.349   7.399  0.5625 -0.2085 -0.4816
28057SOL    HW187573   8.658   8.393   7.396  1.1575  1.0486  0.2443
28057SOL    HW287574   8.806   8.418   7.378  1.5088 -0.7791  0.4087
28058SOL     OW87575   9.216  10.288  10.037 -0.2105  0.6564 -0.4133
28058SOL    HW187576   9.152  10.257   9.972 -0.7779  1.2730 -0.1530
28058SOL    HW287577   9.197  10.381  10.046 -2.1488  0.0865  2.8396
28059SOL     OW87578   4.741   3.588   5.332  0.2991 -0.4962  0.4692
28059SOL    HW187579   4.821   3.639   5.346  0.5737 -1.0672  1.0472
28059SOL    HW287580   4.772   3.499   5.316 -0.1548 -0.3906 -1.1175
28060SOL     OW87581  10.057   0.412   5.079  0.3841  0.0142  0.2449
28060SOL    HW187582  10.118   0.467   5.030  0.1382  0.2615  0.2135
28060SOL    HW287583   9.992   0.474   5.114 -0.7193 -0.3970 -0.9858
28061SOL     OW87584   6.858   2.954   1.185  0.3041  0.1768  0.2624
28061SOL    HW187585   6.769   2.920   1.195  0.0949  0.1202 -1.4102
28061SOL    HW287586   6.849   3.025   1.121  1.0882  1.9158  1.9915
28062SOL     OW87587   9.483   1.138   8.794  0.0228 -0.4901  1.0512
28062SOL    HW187588   9.405   1.182   8.827 -1.1852 -1.2707 -0.6364
28062SOL    HW287589   9.457   1.104   8.708  2.4727 -0.0324  0.0429
28063SOL     OW87590   1.948   0.733   4.188  0.1589 -0.2043 -0.0171
28063SOL    HW187591   2.013   0.673   4.224 -0.8649 -1.2803  0.1008
28063SOL    HW287592   1.878   0.735   4.253 -0.0612  0.7161 -0.2646
28064SOL     OW87593   8.486   3.900   6.441  0.4659  0.4699  0.3864
28064SOL    HW187594   8.526   3.892   6.527  1.1248 -1.4014 -0.0379
28064SOL    HW287595   8.394   3.877   6.454  0.3255  1.2061  0.7449
28065SOL     OW87596   7.222   9.765  10.598  0.2832  0.2576 -0.0652
28065SOL    HW187597   7.143   9.729  10.559 -0.0108 -0.2914  1.0119
28065SOL    HW287598   7.228   9.854  10.562 -0.7935  0.2924 -0.1802
28066SOL     OW87599   1.484   8.672   3.061 -0.4297 -0.6676 -0.4611
28066SOL    HW187600   1.388   8.669   3.068 -0.3674 -1.3566  0.1787
28066SOL    HW287601   1.510   8.747   3.113 -0.5216 -1.4023  0.6777
28067SOL     OW87602   5.162   0.754   5.521 -0.4640 -0.2777  0.6656
28067SOL    HW187603   5.160   0.750   5.616 -0.1033  0.0162  0.6860
28067SOL    HW287604   5.167   0.662   5.494  0.3185 -0.3245  0.9541
28068SOL     OW87605   7.236   2.369   8.226 -0.1597  0.0423 -0.1696
28068SOL    HW187606   7.163   2.405   8.276  0.2179  0.3931  0.1297
28068SOL    HW287607   7.211   2.381   8.135  0.3969  1.9986 -0.1089
28069SOL     OW87608   3.517   2.530   7.388  0.2880  0.3347 -0.6988
28069SOL    HW187609   3.460   2.607   7.399 -0.1777  0.0623 -1.1444
28069SOL    HW287610   3.513   2.511   7.294 -0.0932 -0.6025 -0.5029
28070SOL     OW87611   8.394   3.651   8.741 -0.0400  0.2634  0.3053
28070SOL    HW187612   8.300   3.642   8.723  0.0910  1.2859 -1.0448
28070SOL    HW287613   8.436   3.628   8.658  0.8098  1.3919  0.4043
28071SOL     OW87614   4.176   5.879   6.408 -0.1868 -0.1328  0.1789
28071SOL    HW187615   4.122   5.958   6.399  2.1863  1.4606 -2.0751
28071SOL    HW287616   4.232   5.897   6.484  1.2546  1.1072 -1.0876
28072SOL     OW87617   2.286   3.079   9.365  0.3837  0.0990 -0.1788
28072SOL    HW187618   2.336   3.050   9.441  0.7270  0.7437 -0.1502
28072SOL    HW287619   2.195   3.058   9.386  0.5740 -0.5345  0.0286
28073SOL     OW87620   4.575   9.234   7.563 -0.0640  0.1008 -0.2621
28073SOL    HW187621   4.643   9.211   7.500 -0.6465 -0.7754 -0.5873
28073SOL    HW287622   4.550   9.150   7.603  0.4249  0.6535  1.2801
28074SOL     OW87623   0.791   0.150   9.072  0.6872 -0.0960  0.1251
28074SOL    HW187624   0.838   0.070   9.098  0.0735 -0.1557  1.0827
28074SOL    HW287625   0.748   0.180   9.152 -2.3224 -0.9932 -1.0241
28075SOL     OW87626   1.432   2.712   4.643 -0.3820 -0.0732 -0.7473
28075SOL    HW187627   1.428   2.806   4.663 -1.5290 -0.2160 -0.2723
28075SOL    HW287628   1.522   2.699   4.613 -0.1145  1.1224 -0.5408
28076SOL     OW87629   6.341   9.869   0.831 -0.1735 -0.0300 -0.0388
28076SOL    HW187630   6.348   9.916   0.914 -1.3396 -1.0710  0.6744
28076SOL    HW287631   6.336   9.939   0.765 -4.1468  1.0513  1.1422
28077SOL     OW87632   6.349   9.923   9.678 -0.2519 -0.2246 -0.1808
28077SOL    HW187633   6.316   9.935   9.589 -0.4887 -2.7382 -0.5077
28077SOL    HW287634   6.270   9.917   9.732 -0.1008  2.0544  0.3766
28078SOL     OW87635   0.954   9.765   1.682  0.2768  0.1204 -0.1026
28078SOL    HW187636   0.939   9.785   1.775 -0.6635  0.5024 -0.3314
28078SOL    HW287637   0.872   9.725   1.652  0.7604 -0.4959 -0.6455
28079SOL     OW87638   7.183   8.241   1.009 -0.1976 -0.1464 -0.0504
28079SOL    HW187639   7.087   8.236   1.008 -0.1798 -1.1106  1.0712
28079SOL    HW287640   7.212   8.150   1.018  0.7324  0.3305  2.4175
28080SOL     OW87641   9.664   2.011  10.333 -0.0762  0.0273 -0.6338
28080SOL    HW187642   9.687   1.919  10.348 -0.1339 -0.1518 -1.5962
28080SOL    HW287643   9.601   2.031  10.402 -1.7850 -1.3242 -1.7320
28081SOL     OW87644   5.238   8.113   9.514  0.0352  0.4865  0.2723
28081SOL    HW187645   5.227   8.197   9.559  0.8928  1.4122 -1.1714
28081SOL    HW287646   5.325   8.083   9.539 -0.4167 -0.1896  1.0880
28082SOL     OW87647   1.469   3.832   7.266  0.2907 -0.5675 -0.0917
28082SOL    HW187648   1.542   3.888   7.240  0.6279 -1.0444 -0.1986
28082SOL    HW287649   1.411   3.889   7.315 -0.8926  0.6595 -2.7298
28083SOL     OW87650   4.917   9.889   8.470  0.1867  0.0532 -0.3615
28083SOL    HW187651   5.007   9.918   8.483  0.5232 -1.4419  0.9057
28083SOL    HW287652   4.879   9.888   8.558 -0.6483 -0.6313 -0.7159
28084SOL     OW87653   0.189   4.887   9.140  0.1202 -0.4053  0.3050
28084SOL    HW187654   0.207   4.931   9.224  1.7115 -0.6217  0.1086
28084SOL    HW287655   0.245   4.933   9.077  1.0848 -2.0461 -0.0810
28085SOL     OW87656   2.059   1.770   1.253 -0.3186 -0.0122 -0.3889
28085SOL    HW187657   1.981   1.801   1.298 -1.5654  0.7204 -2.8965
28085SOL    HW287658   2.052   1.674   1.256 -1.6329  0.0417 -1.0601
28086SOL     OW87659   3.766   9.249   0.614  0.3317 -0.1487  0.2279
28086SOL    HW187660   3.804   9.187   0.552 -0.2992  0.2768 -0.6179
28086SOL    HW287661   3.813   9.331   0.598 -0.9773  0.4149 -0.9198
28087SOL     OW87662   4.235   0.543   3.239  0.0339  0.4634  0.3896
28087SOL    HW187663   4.259   0.521   3.330 -2.2069 -0.1453  0.8929
28087SOL    HW287664   4.277   0.627   3.223  1.5890 -0.0527  1.5130
28088SOL     OW87665   4.144   7.114  10.674 -0.5740 -0.2700 -0.0207
28088SOL    HW187666   4.124   7.026  10.643 -1.8655 -0.1246  0.3455
28088SOL    HW287667   4.080   7.131  10.743  0.3213  0.5645  0.6401
28089SOL     OW87668   5.014   1.015   0.635  0.2947  0.0844  0.3272
28089SOL    HW187669   4.999   1.084   0.700 -1.0473 -0.0023  0.1409
28089SOL    HW287670   5.023   1.062   0.552 -2.7566  0.0294 -0.1639
28090SOL     OW87671   1.071   9.263   9.746  0.3151 -0.0159 -0.8353
28090SOL    HW187672   1.076   9.270   9.841 -0.3322  0.1669 -0.8104
28090SOL    HW287673   1.074   9.353   9.715 -0.2424 -0.0320 -0.9433
28091SOL     OW87674   6.810   4.657   0.005  0.2869 -0.7836 -0.1898
28091SOL    HW187675   6.876   4.700   0.060  0.0746 -1.8207  0.9180
28091SOL    HW287676   6.814   4.704  -0.078  1.4562  0.0634  0.3149
28092SOL     OW87677   2.863  10.592   9.322  0.0815  0.6045  0.0466
28092SOL    HW187678   2.912  10.534   9.381  1.1612  2.3968  0.9967
28092SOL    HW287679   2.921  10.606   9.248 -0.9737 -1.0265 -1.1690
28093SOL     OW87680   2.514   6.305   2.153  0.1162  0.1970  0.4333
28093SOL    HW187681   2.419   6.296   2.152  0.1345 -0.0004  0.5328
28093SOL    HW287682   2.543   6.263   2.072  0.2271 -0.9540  1.0456
28094SOL     OW87683   4.746   1.011   1.398 -0.1345  0.0852 -0.1845
28094SOL    HW187684   4.825   1.028   1.451 -1.1742 -1.0833  1.8783
28094SOL    HW287685   4.754   1.071   1.324  2.7213 -0.0274 -0.0998
28095SOL     OW87686   9.707   0.446   9.960  0.3760 -0.5581  0.2969
28095SOL    HW187687   9.751   0.496  10.030 -0.8450  1.0667 -0.0405
28095SOL    HW287688   9.616   0.440   9.988 -0.5197  1.5223 -1.7913
28096SOL     OW87689   2.318  10.580   2.530  0.2651  0.0309  0.3623
28096SOL    HW187690   2.394  10.532   2.561 -0.4103 -0.6093  1.0634
28096SOL    HW287691   2.249  10.514   2.522 -1.1081  1.0648  2.7508
28097SOL     OW87692   7.845   8.071   3.509  0.4033 -0.4911 -0.5658
28097SOL    HW187693   7.788   8.096   3.582  3.0960  2.8610  0.6601
28097SOL    HW287694   7.895   7.996   3.542 -0.3036 -0.7438 -0.0422
28098SOL     OW87695   8.558   1.368   5.208 -0.1444 -0.0513  0.4737
28098SOL    HW187696   8.614   1.300   5.244 -0.5034 -0.6843 -0.1522
28098SOL    HW287697   8.608   1.449   5.221  1.1496 -0.6523 -0.5276
28099SOL     OW87698   8.909   5.882   7.360 -0.0575  0.0350 -0.8219
28099SOL    HW187699   8.995   5.851   7.386 -0.4925 -1.1611 -0.7269
28099SOL    HW287700   8.921   5.917   7.271  0.7157  0.8465 -0.4070
28100SOL     OW87701   8.381   8.679   1.552  0.3401 -0.0890  0.0600
28100SOL    HW187702   8.354   8.747   1.614 -1.0214 -1.3115  0.8875
28100SOL    HW287703   8.433   8.618   1.605 -1.8471 -1.7954  0.4284
28101SOL     OW87704   6.657   5.612   8.402  0.0188 -0.0331  0.3675
28101SOL    HW187705   6.592   5.541   8.398  0.4770 -0.4032 -1.3159
28101SOL    HW287706   6.707   5.593   8.481  0.1613 -1.6554 -0.0635
28102SOL     OW87707   2.134   0.689   4.488 -0.7874 -0.2709 -0.5116
28102SOL    HW187708   2.140   0.722   4.578  0.4845 -0.0631 -0.6579
28102SOL    HW287709   2.144   0.766   4.433  1.2270 -0.7152 -0.8447
28103SOL     OW87710   8.346   0.413   5.399 -0.6701 -0.1281  0.4674
28103SOL    HW187711   8.321   0.375   5.483 -0.8698  0.4359  0.6712
28103SOL    HW287712   8.437   0.439   5.411 -0.7322  0.0543  0.5473
28104SOL     OW87713   1.170   2.502   3.014  0.0245  0.5881  0.3522
28104SOL    HW187714   1.083   2.536   2.991 -0.3175  0.2273  1.0685
28104SOL    HW287715   1.207   2.473   2.931 -0.9653 -0.2080  0.1660
28105SOL     OW87716   1.421   0.472   4.926  0.3082 -0.1289  0.3409
28105SOL    HW187717   1.350   0.514   4.973 -0.2350  0.2421 -0.7884
28105SOL    HW287718   1.484   0.448   4.994 -0.6640 -0.0247  1.2980
28106SOL     OW87719   7.197  10.785   2.940  0.4291 -0.4374 -0.1993
28106SOL    HW187720   7.225  10.861   2.990 -1.9182  0.6342 -0.3818
28106SOL    HW287721   7.185  10.716   3.005 -2.5484  0.9277  0.8467
28107SOL     OW87722   4.405   8.725   1.456 -0.3110 -0.3628  0.2885
28107SOL    HW187723   4.427   8.800   1.512  0.7492 -0.7832  0.4582
28107SOL    HW287724   4.392   8.652   1.516 -0.7860 -0.4505  0.0859
28108SOL     OW87725   3.393   3.918   3.540 -0.7220  0.2462 -0.1479
28108SOL    HW187726   3.402   4.013   3.551  0.2138  0.1007  0.4116
28108SOL    HW287727   3.482   3.884   3.549 -1.1500 -0.7689  0.3824
28109SOL     OW87728   6.401   6.044  10.764  0.4932  0.0651  0.2038
28109SOL    HW187729   6.353   6.048  10.682 -1.1796 -1.1369  1.0553
28109SOL    HW287730   6.490   6.018  10.739 -0.3821 -1.8875 -1.1372
28110SOL     OW87731   9.733  10.252   1.631  0.1389  0.2881  0.4339
28110SOL    HW187732   9.750  10.338   1.668  0.6902  0.0960  0.6430
28110SOL    HW287733   9.782  10.192   1.687 -2.7468 -0.5223  2.2719
28111SOL     OW87734   6.909   0.636   1.261 -0.1349 -0.3599 -0.2407
28111SOL    HW187735   6.934   0.604   1.347 -0.7465 -1.1576 -0.3512
28111SOL    HW287736   6.833   0.584   1.236 -0.3674  0.3043 -0.9867
28112SOL     OW87737   0.577   6.807   1.114 -0.2599  0.5775 -0.7796
28112SOL    HW187738   0.543   6.732   1.066 -0.0895 -0.5517  0.8017
28112SOL    HW287739   0.527   6.881   1.080 -1.0846 -0.3762 -1.7122
28113SOL     OW87740   8.194   8.472   9.633 -0.0940  0.1457  0.1002
28113SOL    HW187741   8.270   8.441   9.682 -0.0629  1.1740  0.7222
28113SOL    HW287742   8.218   8.560   9.604 -1.3341  0.7966  0.9816
28114SOL     OW87743   9.670   7.288   7.876  0.3557 -0.4751  0.1674
28114SOL    HW187744   9.724   7.330   7.809 -0.2534  2.1231  1.1736
28114SOL    HW287745   9.589   7.264   7.831  0.4230  0.1372 -0.2878
28115SOL     OW87746   5.482   0.597  10.232  0.5637  0.0204 -0.0814
28115SOL    HW187747   5.533   0.551  10.299 -0.0272 -0.1023  0.2973
28115SOL    HW287748   5.451   0.528  10.174  0.9769  0.1146 -0.4152
28116SOL     OW87749   6.629   0.891   8.501  0.4850 -0.2445 -0.8527
28116SOL    HW187750   6.670   0.823   8.446  2.1759 -0.9523  1.1634
28116SOL    HW287751   6.565   0.843   8.554  1.7288 -0.3259  0.6243
28117SOL     OW87752  10.911   8.116   3.511  1.0109  0.2599  0.0626
28117SOL    HW187753  10.905   8.171   3.432 -0.2654  2.7436  1.7505
28117SOL    HW287754  11.000   8.130   3.543  1.7906 -1.3477 -1.2465
28118SOL     OW87755   3.192   6.541   3.024 -0.0243  0.1882 -0.2400
28118SOL    HW187756   3.162   6.616   3.075 -4.1006 -1.2427 -0.1670
28118SOL    HW287757   3.196   6.469   3.087  0.2546 -0.4379 -0.9567
28119SOL     OW87758   5.070   6.525   6.112  0.3007 -0.3986 -0.1225
28119SOL    HW187759   5.083   6.455   6.048 -0.2740 -0.4523 -0.1899
28119SOL    HW287760   4.984   6.560   6.091  0.5633  0.2963 -0.0484
28120SOL     OW87761   5.064   1.222   7.243  0.3534  0.2753  0.7350
28120SOL    HW187762   5.126   1.208   7.172 -1.6760 -1.3602 -0.8622
28120SOL    HW287763   5.006   1.291   7.212  1.0024  1.4098  1.9658
28121SOL     OW87764  10.824   3.239   5.515 -0.3448  0.1694 -0.2119
28121SOL    HW187765  10.760   3.178   5.478 -1.1968 -0.0337  1.5236
28121SOL    HW287766  10.787   3.265   5.599  1.1990  1.1488  0.2015
28122SOL     OW87767   8.349   6.292   8.407 -0.3693 -0.1165  0.0802
28122SOL    HW187768   8.265   6.320   8.445 -0.7238 -1.5219  0.3742
28122SOL    HW287769   8.362   6.204   8.441  1.6716  0.3836  0.7573
28123SOL     OW87770   2.455   0.171  10.348  0.1303  0.4771  0.1099
28123SOL    HW187771   2.391   0.200  10.413 -0.3601  1.6989 -0.8666
28123SOL    HW287772   2.482   0.084  10.377 -2.9763 -0.6926 -0.1483
28124SOL     OW87773   5.879   7.848   9.418  0.0086  0.2023  0.0408
28124SOL    HW187774   5.849   7.778   9.475  0.6249  0.2392  0.4202
28124SOL    HW287775   5.911   7.916   9.477 -3.7870  2.4024 -0.1455
28125SOL     OW87776   1.298   8.851   7.435 -0.1145 -0.2319 -0.2236
28125SOL    HW187777   1.293   8.768   7.389 -1.7022 -1.1238  1.4330
28125SOL    HW287778   1.228   8.847   7.500  1.6557  1.1561  1.9284
28126SOL     OW87779   8.665   0.398   5.959 -0.1945  0.1519 -0.3121
28126SOL    HW187780   8.674   0.303   5.952 -2.2756 -0.2022  1.0579
28126SOL    HW287781   8.596   0.411   6.024  0.4963  2.6264  0.0251
28127SOL     OW87782   4.731   3.639   0.170  0.1619  0.2711  0.9039
28127SOL    HW187783   4.753   3.548   0.193 -0.0619 -0.0309 -0.0462
28127SOL    HW287784   4.800   3.667   0.111 -1.1489 -0.1919 -0.9236
28128SOL     OW87785  10.732   0.392   5.525 -0.0300 -0.8279 -0.2888
28128SOL    HW187786  10.680   0.315   5.502 -1.6933  0.8278 -2.3960
28128SOL    HW287787  10.738   0.443   5.445  0.1928  1.7335  1.2489
28129SOL     OW87788   7.016   9.494   8.614  0.2779 -0.7311  0.4202
28129SOL    HW187789   7.013   9.584   8.580  1.2487 -0.5302  0.8452
28129SOL    HW287790   7.047   9.504   8.704 -1.2475 -1.3517  1.0393
28130SOL     OW87791  10.399   1.755   5.979 -0.1428  0.6510  0.1694
28130SOL    HW187792  10.405   1.701   5.901 -1.4742  0.7388 -0.0199
28130SOL    HW287793  10.425   1.697   6.051 -1.3837 -0.2124 -0.0490
28131SOL     OW87794   1.811   5.901   2.649 -0.1627 -0.2852  0.5895
28131SOL    HW187795   1.721   5.872   2.635 -0.3860  0.7780 -0.3399
28131SOL    HW287796   1.862   5.853   2.583 -0.4581  0.9837 -0.6138
28132SOL     OW87797   4.577   7.455   2.883 -0.6101  0.5382  0.0596
28132SOL    HW187798   4.575   7.359   2.879  0.1753  0.5581 -1.7518
28132SOL    HW287799   4.488   7.481   2.860 -0.8325  0.2529  0.5726
28133SOL     OW87800   9.183   3.360   4.177  0.3105  0.0861  0.1228
28133SOL    HW187801   9.092   3.342   4.204 -0.4290  0.9579 -1.6068
28133SOL    HW287802   9.236   3.305   4.234 -1.4329 -2.2680 -0.3464
28134SOL     OW87803   7.916   4.572   8.784 -0.0961  0.0277 -0.3325
28134SOL    HW187804   7.981   4.505   8.764  0.3385  0.4338 -0.3189
28134SOL    HW287805   7.917   4.579   8.879 -0.1507  0.0376 -0.3327
28135SOL     OW87806  10.506   5.398   9.390  0.1205 -0.5152  0.2148
28135SOL    HW187807  10.471   5.316   9.356 -1.6226  0.9854 -1.9861
28135SOL    HW287808  10.562   5.431   9.319  2.7696 -0.8544  2.0158
28136SOL     OW87809   8.116   9.880   9.845  0.1309 -0.2188  0.1066
28136SOL    HW187810   8.200   9.911   9.812 -0.4467  1.4455  0.1209
28136SOL    HW287811   8.112   9.912   9.935  0.8810 -3.1188  1.2672
28137SOL     OW87812  10.166   4.115   4.666  0.2540  0.4189 -0.0374
28137SOL    HW187813  10.195   4.078   4.583  1.3879 -1.9799  1.3421
28137SOL    HW287814  10.076   4.145   4.649  0.7851  0.8790 -2.3325
28138SOL     OW87815   5.358   0.197   7.685 -0.2663 -0.2344 -0.0322
28138SOL    HW187816   5.335   0.107   7.707 -1.8163 -0.1216 -1.0339
28138SOL    HW287817   5.356   0.200   7.590 -0.3121  0.8780 -0.0109
28139SOL     OW87818   1.592   8.448   4.591 -0.1965 -0.1068 -0.7301
28139SOL    HW187819   1.519   8.387   4.593  1.7770 -2.6656 -0.3428
28139SOL    HW287820   1.642   8.423   4.513  1.0731  0.5252 -0.1500
28140SOL     OW87821  10.010   4.457   0.112 -0.7282 -0.1628 -0.8479
28140SOL    HW187822  10.037   4.375   0.072 -0.0385  0.4745 -1.7515
28140SOL    HW287823  10.090   4.493   0.150 -0.7430  0.6607 -1.5436
28141SOL     OW87824   2.777   4.812   6.211 -0.6485  0.7976 -0.1394
28141SOL    HW187825   2.733   4.765   6.283  1.1002  0.6910  0.9134
28141SOL    HW287826   2.800   4.897   6.249  0.7187  0.5635 -0.3918
28142SOL     OW87827   5.108   8.595   4.983  0.0549  0.2742 -0.0891
28142SOL    HW187828   5.182   8.561   4.933 -0.7791 -0.3741 -0.9234
28142SOL    HW287829   5.139   8.598   5.074  1.1970  0.3246 -0.4670
28143SOL     OW87830   4.882   1.705   7.064 -0.1708 -0.1201  0.6614
28143SOL    HW187831   4.912   1.795   7.050  1.0742 -0.5778  0.2109
28143SOL    HW287832   4.936   1.653   7.005 -1.5959 -1.0710  0.1382
28144SOL     OW87833   0.297   2.680   0.697 -0.3665  0.0188 -0.5551
28144SOL    HW187834   0.245   2.673   0.616  0.2822 -0.7053 -0.9188
28144SOL    HW287835   0.236   2.655   0.767 -1.6776  3.0015 -0.4969
28145SOL     OW87836   0.494   3.425   9.842 -0.4014 -0.2917 -0.3800
28145SOL    HW187837   0.581   3.462   9.856  0.4203 -2.3527  0.3699
28145SOL    HW287838   0.484   3.361   9.913 -2.4052 -0.3328 -0.6471
28146SOL     OW87839   4.299   2.779   9.908 -0.3056  0.2527 -0.4821
28146SOL    HW187840   4.337   2.856   9.951  0.2078  0.2033 -0.8424
28146SOL    HW287841   4.369   2.714   9.909 -1.5146 -1.2113  2.2766
28147SOL     OW87842   2.293   8.685   0.299  0.4585 -0.0133 -1.3403
28147SOL    HW187843   2.351   8.663   0.372 -0.9398  1.9027  0.4688
28147SOL    HW287844   2.353   8.704   0.227  1.9541 -0.7798 -0.3629
28148SOL     OW87845   2.230   6.873   8.060 -0.0635  0.3543  0.3475
28148SOL    HW187846   2.155   6.869   8.119 -1.3256  0.8236 -1.1325
28148SOL    HW287847   2.263   6.783   8.056 -1.0839 -0.0317  0.3797
28149SOL     OW87848   0.656   5.989   6.340  0.2855 -0.5894 -0.1787
28149SOL    HW187849   0.634   5.937   6.263  1.4956 -1.5337  0.0754
28149SOL    HW287850   0.750   5.975   6.352  0.4671  0.9630  0.4373
28150SOL     OW87851   6.119   7.503   1.313 -0.1720  0.1854 -0.7412
28150SOL    HW187852   6.053   7.573   1.317  0.0934  0.4285  2.5185
28150SOL    HW287853   6.068   7.422   1.308 -0.8016  0.4135  0.9696
28151SOL     OW87854   6.253  10.028   0.530  0.2945  0.2571  0.8693
28151SOL    HW187855   6.223   9.940   0.553  0.0211  0.2981  0.6653
28151SOL    HW287856   6.229  10.038   0.438  2.6591 -0.4558  0.1087
28152SOL     OW87857   5.268   3.573   5.553 -0.3075 -0.0231  0.4834
28152SOL    HW187858   5.262   3.669   5.553  0.0893  0.0051 -0.1026
28152SOL    HW287859   5.299   3.551   5.465 -0.1190 -0.6747  0.7116
28153SOL     OW87860   5.460  10.387   3.976 -0.7046 -0.2368  0.5221
28153SOL    HW187861   5.440  10.306   3.929 -0.2826 -0.1102  0.1172
28153SOL    HW287862   5.523  10.360   4.043  1.1791  0.1113 -1.0229
28154SOL     OW87863   7.979   3.110   4.965 -0.3621 -0.2470 -0.9044
28154SOL    HW187864   8.054   3.159   4.931  0.7219 -1.4221 -0.2965
28154SOL    HW287865   7.924   3.176   5.005 -0.2475  0.7946 -2.3828
28155SOL     OW87866   8.582   1.472   8.934  0.3467 -0.4736  0.0849
28155SOL    HW187867   8.521   1.480   8.861 -1.0892  0.3101  1.3050
28155SOL    HW287868   8.663   1.442   8.894 -0.9785 -2.1607 -1.5347
28156SOL     OW87869   4.230   0.863   8.143 -0.3537 -0.3920 -0.5884
28156SOL    HW187870   4.293   0.850   8.214 -1.8881 -0.5276  0.7911
28156SOL    HW287871   4.253   0.796   8.078 -0.3231 -1.7754  0.7924
28157SOL     OW87872   7.892   7.986   4.409  0.4842 -0.7957 -0.2904
28157SOL    HW187873   7.922   7.981   4.318  0.9919  1.0621 -0.2696
28157SOL    HW287874   7.964   8.027   4.456  0.0653 -1.3644  0.8957
28158SOL     OW87875   8.651   7.048   1.699  0.3962 -0.2580 -0.3926
28158SOL    HW187876   8.564   7.059   1.736 -0.0868 -0.7818 -1.3214
28158SOL    HW287877   8.692   6.982   1.754 -0.1905 -0.7855 -0.5699
28159SOL     OW87878   1.439   2.483   5.495  0.0802  0.0206 -0.5955
28159SOL    HW187879   1.495   2.559   5.510 -0.4663  0.1534  1.0049
28159SOL    HW287880   1.480   2.414   5.547 -1.1964  0.1199  0.5924
28160SOL     OW87881   6.179   6.294   4.316 -0.0320 -0.1100 -0.0468
28160SOL    HW187882   6.143   6.232   4.378  1.6896 -0.0727  1.0336
28160SOL    HW287883   6.260   6.254   4.285  0.4026  0.9864 -0.3829
28161SOL     OW87884   9.444   4.272   9.554 -0.4090 -0.3654  0.2801
28161SOL    HW187885   9.430   4.343   9.492 -2.0934 -0.8107  0.1096
28161SOL    HW287886   9.425   4.192   9.505 -1.9751 -0.7177  1.3588
28162SOL     OW87887   8.276   7.467   9.880  0.1933  0.3299  0.4409
28162SOL    HW187888   8.295   7.558   9.858  1.0997 -0.0761 -0.5658
28162SOL    HW287889   8.251   7.427   9.797  1.8165 -0.8049  0.4476
28163SOL     OW87890   8.766   9.329   4.469 -0.4299 -0.1149 -0.1582
28163SOL    HW187891   8.792   9.383   4.543 -0.9787  0.2565 -0.2364
28163SOL    HW287892   8.783   9.239   4.499 -0.6136  0.0324  0.4032
28164SOL     OW87893   4.425   4.684  10.605  0.8337 -0.4933 -0.2216
28164SOL    HW187894   4.370   4.653  10.678  0.4543 -2.4449 -1.2637
28164SOL    HW287895   4.514   4.673  10.636  0.6734  0.0810  0.4719
28165SOL     OW87896   1.214  10.889   2.361  0.0141  0.5165  0.0472
28165SOL    HW187897   1.233  10.838   2.282  0.5526  0.5763  0.1366
28165SOL    HW287898   1.287  10.871   2.420 -0.6690  0.0049  0.7716
28166SOL     OW87899   6.441   0.288   2.826 -0.7552  0.2462  0.2815
28166SOL    HW187900   6.497   0.346   2.776 -0.5429 -0.3421 -0.1765
28166SOL    HW287901   6.482   0.202   2.819 -1.2659 -0.0377  0.6299
28167SOL     OW87902   3.497   1.846   6.660  0.2103 -0.1257 -0.1240
28167SOL    HW187903   3.470   1.808   6.576 -0.2424 -0.3596  0.1199
28167SOL    HW287904   3.424   1.827   6.718  0.6993 -0.3221  0.4291
28168SOL     OW87905   6.971   3.738   4.456 -0.4743 -0.1823  0.4725
28168SOL    HW187906   7.040   3.680   4.489 -0.2067  0.2933  0.7635
28168SOL    HW287907   6.944   3.788   4.532  1.8485  2.6845 -0.4027
28169SOL     OW87908   1.125   3.118   6.101 -0.1402  0.5525  0.2991
28169SOL    HW187909   1.036   3.130   6.068 -1.1945 -1.0523  2.3830
28169SOL    HW287910   1.165   3.058   6.038 -2.3151 -2.9515  1.9380
28170SOL     OW87911   4.427   7.373   8.773  0.4244 -0.1288  0.4230
28170SOL    HW187912   4.344   7.384   8.726  0.4174  0.5000  0.5753
28170SOL    HW287913   4.418   7.288   8.817  0.0368 -0.2659  0.0859
28171SOL     OW87914   3.179   7.332   9.455 -0.5022  0.1116  0.3425
28171SOL    HW187915   3.097   7.284   9.473  0.2670 -1.7381 -0.7606
28171SOL    HW287916   3.170   7.362   9.365  0.4003 -1.0207 -0.1594
28172SOL     OW87917   1.746   2.789   5.917  0.6670  0.0887  0.0498
28172SOL    HW187918   1.744   2.781   6.013  0.9852 -0.4239  0.0179
28172SOL    HW287919   1.699   2.711   5.886  0.4593  0.3166 -0.2127
28173SOL     OW87920   5.599   8.688   0.654 -0.1680 -0.0741 -0.6640
28173SOL    HW187921   5.689   8.694   0.623  0.3468 -0.2100  0.7088
28173SOL    HW287922   5.583   8.594   0.665  0.0875  0.0033  0.5678
28174SOL     OW87923   9.697   6.054   4.467 -0.3420 -0.3575  0.5044
28174SOL    HW187924   9.762   6.107   4.513  0.6258 -1.3903  0.3504
28174SOL    HW287925   9.707   5.966   4.503  0.6206 -1.2716 -1.7865
28175SOL     OW87926   7.910   5.621   3.679 -0.1914 -0.2389  0.2659
28175SOL    HW187927   7.855   5.699   3.679 -1.0297 -0.8044  0.5616
28175SOL    HW287928   8.000   5.653   3.672 -0.2838  0.9179  3.3133
28176SOL     OW87929   7.918  10.680   9.430 -0.6115 -0.1911  0.3588
28176SOL    HW187930   7.851  10.632   9.479  2.1018 -3.9314  0.8835
28176SOL    HW287931   7.927  10.631   9.348  2.1287 -0.5010  0.7746
28177SOL     OW87932   5.997   8.340   2.254 -0.0515  0.5788 -0.1403
28177SOL    HW187933   5.984   8.407   2.187  0.8324  0.4819 -0.4264
28177SOL    HW287934   6.045   8.270   2.209 -1.7341 -0.6674 -0.0871
28178SOL     OW87935   6.094   5.306   2.886 -0.2352 -0.3507 -0.2324
28178SOL    HW187936   6.036   5.254   2.830  0.7459 -3.2290  1.1940
28178SOL    HW287937   6.058   5.296   2.974  1.0781 -0.2752  0.3424
28179SOL     OW87938   2.008   9.340   6.230  0.1754  0.1201  0.6436
28179SOL    HW187939   1.966   9.265   6.271 -1.9365  0.7567 -0.2066
28179SOL    HW287940   2.072   9.369   6.294 -0.3158 -1.2320  1.8134
28180SOL     OW87941   4.441  10.374   4.177  0.5180 -0.1349  0.6500
28180SOL    HW187942   4.431  10.311   4.248  1.1644  0.9455  1.7363
28180SOL    HW287943   4.386  10.448   4.203  0.3164  0.0540 -0.2629
28181SOL     OW87944  10.821   7.230   6.643  0.5248  0.3321 -0.0721
28181SOL    HW187945  10.771   7.313   6.640 -1.2210 -0.6849 -1.3737
28181SOL    HW287946  10.779   7.180   6.712 -0.7465 -0.7547 -1.5496
28182SOL     OW87947   7.745   6.482   3.733  0.9887  0.0663  0.2850
28182SOL    HW187948   7.770   6.561   3.683 -1.0337  0.5856  0.0005
28182SOL    HW287949   7.737   6.414   3.666  0.6247  0.1673  0.2226
28183SOL     OW87950   3.039   6.113   1.298  0.1679 -0.7386 -0.4295
28183SOL    HW187951   2.962   6.168   1.309  0.4706 -0.6100  1.2880
28183SOL    HW287952   3.007   6.036   1.252 -0.4217  0.4914 -2.1732
28184SOL     OW87953   5.167   6.600   8.387  0.0101 -0.0599 -0.3538
28184SOL    HW187954   5.233   6.656   8.427  0.1168  0.5680 -1.3532
28184SOL    HW287955   5.084   6.630   8.423  0.1262  0.3257 -0.4045
28185SOL     OW87956   5.827   7.737   5.680 -0.0837  0.0058  0.5876
28185SOL    HW187957   5.866   7.731   5.593  0.7392 -0.8611  0.9980
28185SOL    HW287958   5.807   7.830   5.691 -2.4072 -0.1507 -1.4427
28186SOL     OW87959   2.136   6.540   8.148  0.1387 -0.0238  0.3342
28186SOL    HW187960   2.170   6.557   8.060 -0.1310  1.2116  0.4379
28186SOL    HW287961   2.211   6.504   8.196  0.3676 -0.4414 -0.3272
28187SOL     OW87962   4.425   2.903   6.132 -0.2335  0.2140 -0.5149
28187SOL    HW187963   4.461   2.815   6.138  1.8011  1.0344  0.3754
28187SOL    HW287964   4.490   2.958   6.176 -2.9877  1.7724  1.8936
28188SOL     OW87965   1.250  10.802   8.746  0.0361  0.0560 -0.2642
28188SOL    HW187966   1.322  10.751   8.782  1.6311  2.0525 -0.4564
28188SOL    HW287967   1.241  10.770   8.656 -0.7529 -1.5998  0.3459
28189SOL     OW87968   6.159  10.158   5.672 -0.3468  0.4032 -0.5943
28189SOL    HW187969   6.225  10.091   5.654 -0.8065  0.2783 -1.8985
28189SOL    HW287970   6.091  10.111   5.721 -0.8125 -0.1967 -1.7605
28190SOL     OW87971   3.825   1.558  10.694  0.0234 -0.5443 -0.3232
28190SOL    HW187972   3.750   1.499  10.690 -0.0388 -0.4318 -1.0291
28190SOL    HW287973   3.845   1.577  10.602  1.9803 -1.9034 -0.2417
28191SOL     OW87974   6.663   7.694   4.822 -0.0293  0.6345 -0.0843
28191SOL    HW187975   6.692   7.782   4.847  1.3207 -0.1599  1.3930
28191SOL    HW287976   6.734   7.659   4.769  0.5707 -0.3678  1.3036
28192SOL     OW87977   6.764   7.591   3.694  0.7923 -0.2964 -0.0930
28192SOL    HW187978   6.811   7.652   3.750 -0.3324  0.7567 -0.2590
28192SOL    HW287979   6.698   7.552   3.752  1.8242 -1.7803  0.1472
28193SOL     OW87980   7.492   3.179   3.262  0.1442  0.3781  0.0231
28193SOL    HW187981   7.500   3.102   3.206 -0.6458 -0.5778  1.1771
28193SOL    HW287982   7.561   3.169   3.327 -1.2225 -0.4790  1.4201
28194SOL     OW87983   0.692   3.372   1.703  0.1151 -0.1290  0.2348
28194SOL    HW187984   0.736   3.377   1.788 -1.7746  0.5263  1.2454
28194SOL    HW287985   0.753   3.325   1.646  2.0337  0.6814  1.5500
28195SOL     OW87986  10.227   4.625   7.674  0.4206 -0.2427  0.1836
28195SOL    HW187987  10.166   4.626   7.600  0.8250 -1.0317 -0.1705
28195SOL    HW287988  10.176   4.661   7.747 -0.4617 -0.8459 -0.1127
28196SOL     OW87989   4.093   3.293   0.288 -0.1688 -0.3168  0.4729
28196SOL    HW187990   4.017   3.348   0.270  0.0111  0.3134  1.5285
28196SOL    HW287991   4.102   3.295   0.384  1.0316 -0.5544  0.3871
28197SOL     OW87992   4.710   4.726   4.536 -0.1594 -0.6798  0.2991
28197SOL    HW187993   4.618   4.739   4.513 -0.1097  0.9592  0.8526
28197SOL    HW287994   4.740   4.656   4.479 -1.5014 -0.5863 -0.5645
28198SOL     OW87995   8.390   0.713   2.415  0.6118  0.6253 -0.1656
28198SOL    HW187996   8.443   0.642   2.381 -0.3599 -1.1552  1.7725
28198SOL    HW287997   8.452   0.769   2.462  1.1882  0.1795 -0.3851
28199SOL     OW87998   4.454  10.284   6.559  0.2004  0.1492 -0.1869
28199SOL    HW187999   4.476  10.191   6.563 -0.9120 -0.1045  0.5873
28199SOL    HW288000   4.486  10.313   6.474 -0.2993 -1.1763 -0.8585
28200SOL     OW88001   8.384   6.676   5.207  0.1149  0.4076 -0.2882
28200SOL    HW188002   8.392   6.748   5.144 -1.8819  0.2428 -0.8216
28200SOL    HW288003   8.317   6.618   5.168  0.4203 -0.8355  0.9551
28201SOL     OW88004   4.343   4.825   3.601  0.2245  0.0239  0.0005
28201SOL    HW188005   4.387   4.750   3.559  0.8532 -0.0996  0.8668
28201SOL    HW288006   4.251   4.814   3.577  0.5705 -0.0061 -1.4006
28202SOL     OW88007   0.616   1.203   1.772  0.1857  0.7597 -0.2281
28202SOL    HW188008   0.620   1.113   1.803  0.5150  0.3098 -1.5102
28202SOL    HW288009   0.705   1.236   1.782  0.7370  0.0371 -2.2416
28203SOL     OW88010   4.114   8.748   8.625  0.1618 -0.2455 -0.1364
28203SOL    HW188011   4.103   8.839   8.655 -2.4076 -0.4658 -0.1952
28203SOL    HW288012   4.068   8.745   8.541 -0.4671 -1.7852  0.2309
28204SOL     OW88013   3.604   8.878   0.889  0.4344  0.1094 -0.4313
28204SOL    HW188014   3.521   8.905   0.930 -0.0646 -0.5590 -0.9695
28204SOL    HW288015   3.649   8.960   0.871 -0.5373  0.5517 -0.9770
28205SOL     OW88016   8.256   0.391   5.149 -0.0054 -0.2224 -0.6189
28205SOL    HW188017   8.292   0.414   5.235  1.2508 -0.2939 -1.1148
28205SOL    HW288018   8.170   0.353   5.169 -0.0225  0.3917  0.5530
28206SOL     OW88019   5.322   3.697   2.638 -0.4499 -0.1676  0.3752
28206SOL    HW188020   5.237   3.712   2.595  0.1822 -0.0544 -0.8831
28206SOL    HW288021   5.383   3.755   2.591  0.8110 -2.0624 -0.4477
28207SOL     OW88022   6.846   0.354   3.625  0.3582 -0.0032  0.0222
28207SOL    HW188023   6.756   0.325   3.615  0.4735 -0.4362  0.2138
28207SOL    HW288024   6.898   0.273   3.624  0.5884  0.0738  1.7712
28208SOL     OW88025   2.516   7.430   5.909  0.2840  0.0661 -0.8331
28208SOL    HW188026   2.492   7.518   5.880  0.7037 -0.0818 -1.6580
28208SOL    HW288027   2.509   7.434   6.005  2.3766  1.6319 -0.6660
28209SOL     OW88028   5.735   6.305   1.135 -0.2648  0.7642 -0.0786
28209SOL    HW188029   5.810   6.257   1.168 -0.3282  1.5287  1.2220
28209SOL    HW288030   5.714   6.262   1.051  1.1545  0.0965 -0.1111
28210SOL     OW88031   7.372   0.720   4.507  0.2844 -0.2637  0.3853
28210SOL    HW188032   7.309   0.776   4.552  0.6842 -0.3353  1.0499
28210SOL    HW288033   7.383   0.759   4.421  2.1497  1.9423  1.5147
28211SOL     OW88034   3.657   3.698   7.704  0.9310 -0.3294  0.5648
28211SOL    HW188035   3.645   3.603   7.702 -2.4732 -0.0495  1.2914
28211SOL    HW288036   3.631   3.727   7.617 -1.4383  0.1065  1.3369
28212SOL     OW88037   9.666   3.412   7.128  0.0832 -0.2697  0.4172
28212SOL    HW188038   9.700   3.371   7.048  0.4612 -0.1242  0.5001
28212SOL    HW288039   9.742   3.457   7.165  0.0164 -0.6979  1.0888
28213SOL     OW88040   8.607   6.203   9.778  0.1865  0.5562  0.2800
28213SOL    HW188041   8.520   6.241   9.768 -0.0770 -0.0804  0.0769
28213SOL    HW288042   8.593   6.128   9.837  0.5856  0.4228  0.2070
28214SOL     OW88043   6.217   4.469   0.949 -0.2418 -0.2938  0.0627
28214SOL    HW188044   6.305   4.432   0.955 -0.3671 -0.5843  0.1400
28214SOL    HW288045   6.230   4.563   0.940  0.1247 -0.4359 -1.1322
28215SOL     OW88046   4.539   2.223   8.032  0.3702 -0.3078 -0.4525
28215SOL    HW188047   4.558   2.130   8.048 -0.9972 -0.3206  1.3274
28215SOL    HW288048   4.608   2.270   8.079  2.2885 -0.3247 -2.9911
28216SOL     OW88049   7.108   3.985   2.952 -0.1198  0.0923 -0.2670
28216SOL    HW188050   7.153   3.976   2.867  0.3527  2.6751 -0.3715
28216SOL    HW288051   7.015   3.987   2.929  0.0097  0.9094 -0.7667
28217SOL     OW88052   0.073   3.922   3.473 -0.1877 -0.4439  0.2449
28217SOL    HW188053   0.109   3.848   3.425  1.5001  2.0943 -2.7522
28217SOL    HW288054   0.085   3.998   3.415 -2.6029  2.1017  2.7076
28218SOL     OW88055   8.835  10.677   9.764  0.1520 -0.6424  0.0181
28218SOL    HW188056   8.740  10.670   9.755 -0.1707  1.3116  1.2923
28218SOL    HW288057   8.850  10.766   9.796  2.4268 -0.8915 -0.1780
28219SOL     OW88058   9.229   5.146   5.701  0.3531  1.0105  0.1289
28219SOL    HW188059   9.228   5.054   5.672  0.7801  1.4357 -1.3536
28219SOL    HW288060   9.307   5.153   5.755 -0.8523  0.0137  2.0955
28220SOL     OW88061   8.078   9.465   0.209 -0.1469 -0.1136 -0.0080
28220SOL    HW188062   8.123   9.524   0.149 -1.2086  1.5279  0.7347
28220SOL    HW288063   8.138   9.457   0.283  0.4395 -0.8125 -0.5402
28221SOL     OW88064   7.599   9.841   1.026  0.0254  0.1430 -0.2260
28221SOL    HW188065   7.669   9.852   1.090  1.3671 -4.1651 -0.6331
28221SOL    HW288066   7.546   9.769   1.060 -1.0695 -0.2096 -2.4427
28222SOL     OW88067   9.195   3.037   9.428  0.3916 -0.0386 -0.1939
28222SOL    HW188068   9.195   3.120   9.380 -0.4017  1.8798  2.8528
28222SOL    HW288069   9.280   3.035   9.473 -0.6238  0.6043  1.9080
28223SOL     OW88070   8.274   1.398  10.740  0.3475  0.0242 -0.6231
28223SOL    HW188071   8.226   1.380  10.821  1.5970 -0.5817 -0.0036
28223SOL    HW288072   8.298   1.312  10.707 -1.5396  0.1401 -2.5564
28224SOL     OW88073   9.902   5.255  10.334 -0.1782 -0.2692 -0.7170
28224SOL    HW188074   9.895   5.169  10.375 -0.7600  0.9895  2.0712
28224SOL    HW288075   9.811   5.285  10.325 -0.0041  1.6306  2.2813
28225SOL     OW88076   6.255   6.207  10.050 -0.3864  0.2754 -0.2996
28225SOL    HW188077   6.184   6.169  10.102  0.3706  1.6262  1.8545
28225SOL    HW288078   6.335   6.186  10.099  0.8893 -1.7913 -3.0003
28226SOL     OW88079   6.401  10.684   1.535 -0.4670  0.1787  0.1159
28226SOL    HW188080   6.429  10.593   1.548 -1.7407 -0.5977 -1.9856
28226SOL    HW288081   6.353  10.706   1.614 -1.2315 -1.4740  0.1479
28227SOL     OW88082   6.395   4.049  10.808  0.4048  0.1698  0.3886
28227SOL    HW188083   6.474   4.026  10.857  0.5981 -0.4314 -0.1788
28227SOL    HW288084   6.363   4.129  10.849  1.7906  0.9096  0.0742
28228SOL     OW88085   5.996   4.675   9.186  0.8067  0.2201  0.2340
28228SOL    HW188086   5.966   4.662   9.276  1.1734  0.9995  0.4762
28228SOL    HW288087   5.926   4.637   9.132  1.5609 -2.2286  0.8524
28229SOL     OW88088   6.332   3.826   4.254  0.2619  0.1585 -0.3600
28229SOL    HW188089   6.389   3.902   4.240  1.6290 -0.3435  1.9396
28229SOL    HW288090   6.392   3.752   4.262 -0.6701 -0.4782  1.6229
28230SOL     OW88091   2.746   5.796   6.038 -0.2486  0.6376  0.2459
28230SOL    HW188092   2.815   5.737   6.070  0.6763  1.1594 -0.7232
28230SOL    HW288093   2.667   5.768   6.084  0.8261  0.7899  2.3219
28231SOL     OW88094   7.211   1.003   6.914 -0.3607 -0.2225  0.3142
28231SOL    HW188095   7.171   0.997   7.000  0.1619 -1.5617  0.4928
28231SOL    HW288096   7.164   0.938   6.861  1.2190 -1.4920  0.4064
28232SOL     OW88097   6.124   5.328   5.484 -0.0883 -0.3356 -0.0782
28232SOL    HW188098   6.112   5.238   5.514 -0.8617 -0.8305 -1.7292
28232SOL    HW288099   6.064   5.380   5.537 -0.4193 -0.9704  0.1754
28233SOL     OW88100   1.672   0.409   2.439  0.2941 -0.1699  0.0772
28233SOL    HW188101   1.659   0.415   2.534  2.3468  0.0423  0.4009
28233SOL    HW288102   1.767   0.411   2.429  0.1687 -1.6968 -1.9004
28234SOL     OW88103   9.589   6.959   1.708 -0.1166  0.1934 -0.1293
28234SOL    HW188104   9.562   6.963   1.800 -1.2425  1.3189 -0.4760
28234SOL    HW288105   9.636   7.041   1.694 -0.0901  0.1003 -0.5984
28235SOL     OW88106   0.310   9.715   8.971 -0.2336  0.0051  0.2840
28235SOL    HW188107   0.320   9.722   8.876 -0.8590 -0.5721  0.1629
28235SOL    HW288108   0.361   9.637   8.994 -2.4470 -1.6600 -0.0337
28236SOL     OW88109  10.507  10.220   0.222  0.2188 -0.0788 -0.1922
28236SOL    HW188110  10.512  10.305   0.265 -2.8403 -0.2326  0.6823
28236SOL    HW288111  10.440  10.231   0.155  0.0524 -1.6866 -0.3320
28237SOL     OW88112   1.467   5.026   7.117  0.1421 -0.2402  0.1807
28237SOL    HW188113   1.438   4.935   7.120  0.8724 -0.5217 -0.7894
28237SOL    HW288114   1.430   5.061   7.036 -0.8886  0.6087  0.9929
28238SOL     OW88115  10.727  10.849   5.282  0.4717  0.7485  0.1420
28238SOL    HW188116  10.814  10.837   5.244 -0.4197  0.7531 -2.0665
28238SOL    HW288117  10.714  10.774   5.339  1.2981 -0.1169 -0.7824
28239SOL     OW88118   8.265   6.259   9.764 -0.0195 -0.2097 -0.0834
28239SOL    HW188119   8.175   6.251   9.797  0.0411 -0.4636  0.0248
28239SOL    HW288120   8.289   6.169   9.741 -0.2271  0.0258 -1.2564
28240SOL     OW88121   0.228   7.648   6.800  0.0946 -0.8259 -0.0014
28240SOL    HW188122   0.165   7.688   6.860  0.4476 -0.2667  0.0044
28240SOL    HW288123   0.195   7.559   6.785 -1.0041 -0.3527 -0.4529
28241SOL     OW88124   7.220   5.965   7.621  0.3884 -0.2966 -0.5962
28241SOL    HW188125   7.234   5.900   7.552 -2.5334 -0.1718 -1.4386
28241SOL    HW288126   7.186   6.042   7.575 -3.2448 -0.7550  0.9760
28242SOL     OW88127   9.775   5.127   9.724  0.4358  0.3060 -0.0039
28242SOL    HW188128   9.763   5.167   9.638 -2.5117  1.7252  0.9275
28242SOL    HW288129   9.830   5.190   9.772  0.7828  0.2792 -0.3622
28243SOL     OW88130   8.142   0.529   4.482 -0.1073 -0.0669  0.2761
28243SOL    HW188131   8.209   0.587   4.518 -0.2226 -1.0279  2.2177
28243SOL    HW288132   8.177   0.499   4.398  2.2296 -1.0084  1.4894
28244SOL     OW88133   3.770   5.562   9.064  0.8473  0.1528  0.6150
28244SOL    HW188134   3.807   5.522   8.985 -0.0909  2.7851 -1.2582
28244SOL    HW288135   3.835   5.626   9.091  0.1440  0.8837  0.5982
28245SOL     OW88136   4.634   8.391   9.206  0.0306  0.2771  0.3241
28245SOL    HW188137   4.572   8.438   9.262  0.9928  0.4658  1.2785
28245SOL    HW288138   4.580   8.351   9.138 -1.1158  0.5299  1.0537
28246SOL     OW88139   9.904   3.513   4.970  0.0148  0.4272 -0.2862
28246SOL    HW188140   9.863   3.590   4.930 -1.3226 -0.9783 -1.7647
28246SOL    HW288141   9.938   3.462   4.896 -0.4576 -1.1261  0.5215
28247SOL     OW88142   2.028   9.987   3.443 -0.0582  0.3456 -0.1119
28247SOL    HW188143   2.056  10.069   3.484 -0.6093  0.7974 -0.6160
28247SOL    HW288144   1.946   9.965   3.487  1.2438 -1.2321  1.7015
28248SOL     OW88145   3.616   3.698   3.612  0.3945  0.3517  0.2160
28248SOL    HW188146   3.660   3.740   3.686 -0.5765  2.0530 -0.1267
28248SOL    HW288147   3.666   3.727   3.535  0.5305 -0.2473  0.0727
28249SOL     OW88148   6.380   6.090   9.240 -0.7314  0.1535 -0.0181
28249SOL    HW188149   6.332   6.021   9.285 -0.4670  0.0109  0.0453
28249SOL    HW288150   6.408   6.050   9.157  1.8655 -0.7669  1.1817
28250SOL     OW88151  10.125   1.262   3.493 -0.1534 -0.5763 -0.5310
28250SOL    HW188152  10.099   1.250   3.402 -0.2906  1.4680 -0.8007
28250SOL    HW288153  10.048   1.300   3.535  1.0175  1.8451 -0.4345
28251SOL     OW88154   1.807   3.182   9.992  0.2636 -0.0553  0.3625
28251SOL    HW188155   1.778   3.176   9.901  0.1271 -0.5963  0.4389
28251SOL    HW288156   1.733   3.223  10.038 -0.8143 -2.2773  0.7321
28252SOL     OW88157   3.460   4.101   3.145  0.0849 -0.0408 -0.1300
28252SOL    HW188158   3.454   4.193   3.118  0.6772 -0.0103 -0.1749
28252SOL    HW288159   3.428   4.052   3.070 -2.1102  0.1820  0.5927
28253SOL     OW88160   6.690   1.172   1.031 -0.3825  0.0970 -0.0851
28253SOL    HW188161   6.693   1.239   1.099  0.8803  2.1780 -2.0589
28253SOL    HW288162   6.741   1.099   1.067 -1.5452  0.2234  1.9932
28254SOL     OW88163   4.372   8.283   5.232  0.1910 -0.0995 -0.5983
28254SOL    HW188164   4.350   8.348   5.299  1.4359  0.7053 -0.9260
28254SOL    HW288165   4.441   8.230   5.272  0.8783  0.3303 -1.1842
28255SOL     OW88166   8.145   8.203   8.433  0.3051  0.0795  0.2998
28255SOL    HW188167   8.195   8.273   8.391  3.7770 -0.9303  2.3136
28255SOL    HW288168   8.095   8.246   8.502  0.0286  0.8719 -0.3738
28256SOL     OW88169   0.012   4.873   4.826 -0.5339  0.2627  0.4621
28256SOL    HW188170   0.098   4.912   4.815  0.0471 -0.9094  0.7276
28256SOL    HW288171  -0.029   4.922   4.897  1.4384 -1.6078  3.0952
28257SOL     OW88172   6.466   6.303   2.689 -0.1964  0.1822 -0.3685
28257SOL    HW188173   6.549   6.256   2.700 -0.1215 -0.1269 -2.0286
28257SOL    HW288174   6.457   6.354   2.770  1.3307 -0.2075  0.0853
28258SOL     OW88175   1.650   7.897   0.003  0.3416  0.2821 -0.8485
28258SOL    HW188176   1.699   7.883   0.083  2.1033 -1.9367 -2.1932
28258SOL    HW288177   1.600   7.816  -0.009 -1.6816  1.4653 -0.8811
28259SOL     OW88178   5.650   1.533   6.359  0.3977 -0.2077  0.1457
28259SOL    HW188179   5.554   1.531   6.362  0.4006 -1.0874 -0.1244
28259SOL    HW288180   5.671   1.537   6.265  0.6226  1.4719  0.2314
28260SOL     OW88181   2.123   1.947   4.187  0.5554 -0.5684 -0.2171
28260SOL    HW188182   2.105   1.853   4.177  0.5704 -0.5475 -0.4564
28260SOL    HW288183   2.095   1.985   4.104 -0.0011 -0.2752  0.1008
28261SOL     OW88184   7.694   0.526   2.312 -0.4977  0.2807  0.1983
28261SOL    HW188185   7.622   0.588   2.303 -0.2472  0.3342 -1.8386
28261SOL    HW288186   7.759   0.573   2.365 -1.6152  0.4947  1.4309
28262SOL     OW88187   6.705   4.184   6.952 -0.1807  0.3757  0.2817
28262SOL    HW188188   6.753   4.121   6.897  0.4856 -0.8259  2.1275
28262SOL    HW288189   6.624   4.139   6.976 -0.9039  1.2557 -0.4267
28263SOL     OW88190   4.443   0.799   9.536 -0.4645  0.2117  0.3089
28263SOL    HW188191   4.360   0.763   9.505 -1.2770  1.1594  1.3107
28263SOL    HW288192   4.486   0.832   9.457  0.6265 -3.3975 -0.7915
28264SOL     OW88193   8.262   1.766   9.080  0.2191  0.0905 -0.3325
28264SOL    HW188194   8.212   1.840   9.048 -1.2920 -1.4252 -1.6214
28264SOL    HW288195   8.266   1.779   9.175  2.8391  3.4711 -0.6740
28265SOL     OW88196   4.150   7.140   2.745 -0.3886 -0.4361 -0.0853
28265SOL    HW188197   4.224   7.078   2.747  0.1246  0.1925  0.9980
28265SOL    HW288198   4.187   7.219   2.706 -0.4295 -0.0443  0.6678
28266SOL     OW88199   6.443   6.250   7.916 -0.1456 -0.3167 -0.2868
28266SOL    HW188200   6.369   6.192   7.896  0.6726 -1.7008  0.5588
28266SOL    HW288201   6.517   6.191   7.930  0.9908  1.0083 -0.4927
28267SOL     OW88202   9.208   0.224   9.095  0.9408  0.0383  0.6510
28267SOL    HW188203   9.250   0.250   9.013  1.8671 -1.8116  0.4845
28267SOL    HW288204   9.186   0.307   9.138  0.9890  1.0426 -1.1675
28268SOL     OW88205   0.705   8.092   0.224 -0.2286 -0.4215 -0.0946
28268SOL    HW188206   0.614   8.088   0.195  0.1087 -1.3068 -1.1226
28268SOL    HW288207   0.752   8.128   0.149  0.3866 -0.8115  0.0957
28269SOL     OW88208   8.283   1.550   9.310 -0.0057 -0.8407  0.2908
28269SOL    HW188209   8.357   1.581   9.257 -0.6016 -0.7771 -0.5157
28269SOL    HW288210   8.263   1.623   9.369 -0.0660 -0.4806 -0.1718
28270SOL     OW88211   4.909  10.347   7.443  0.3433 -0.0533  0.2356
28270SOL    HW188212   4.820  10.358   7.476  0.1527 -0.8270 -0.0030
28270SOL    HW288213   4.935  10.260   7.473  0.3661 -0.5617 -1.1588
28271SOL     OW88214   3.336   3.843   4.343 -0.4815 -0.0280  0.0061
28271SOL    HW188215   3.347   3.765   4.287  0.8937  0.7316 -0.8393
28271SOL    HW288216   3.243   3.866   4.333 -0.3146  0.0102 -1.9121
28272SOL     OW88217   6.024   3.399   2.822 -0.2108  0.2384 -0.1360
28272SOL    HW188218   5.960   3.468   2.807  0.3316  0.3037 -2.6838
28272SOL    HW288219   5.972   3.320   2.838 -0.9815  0.2711 -2.2481
28273SOL     OW88220  10.586   3.715   8.479 -0.4144 -0.2383 -0.2041
28273SOL    HW188221  10.661   3.696   8.535 -2.2439 -0.0492  2.4973
28273SOL    HW288222  10.551   3.629   8.455 -0.2631 -0.3218 -0.1252
28274SOL     OW88223   4.561   5.519   6.886 -0.0493  0.0626  0.5476
28274SOL    HW188224   4.486   5.506   6.944 -0.4286 -1.8142 -0.3076
28274SOL    HW288225   4.532   5.586   6.824 -0.6429  0.0629  0.8218
28275SOL     OW88226   2.897   0.843   9.069 -0.0585  0.0377  0.7239
28275SOL    HW188227   2.843   0.782   9.119 -1.6230  0.3765 -0.4524
28275SOL    HW288228   2.915   0.796   8.987  0.3135  0.4331  0.5784
28276SOL     OW88229   1.903   0.608   6.991 -0.5311  0.3904  0.6563
28276SOL    HW188230   1.856   0.634   7.070 -1.0834 -1.1074  0.8408
28276SOL    HW288231   1.902   0.513   6.992  1.3225  0.3263 -0.0692
28277SOL     OW88232   2.919   6.935   7.152  0.5713  0.1835  0.1221
28277SOL    HW188233   2.865   6.879   7.096 -0.7673 -0.8532  2.3168
28277SOL    HW288234   2.885   7.023   7.137 -1.7892 -0.4249  1.3545
28278SOL     OW88235   7.669   2.168   4.209 -0.2773 -0.4008 -0.1445
28278SOL    HW188236   7.629   2.196   4.126 -0.0512 -1.6167 -0.6798
28278SOL    HW288237   7.665   2.246   4.265 -0.2323  0.5009 -1.3668
28279SOL     OW88238   7.169   7.419   4.765  0.0388  0.1815  0.1498
28279SOL    HW188239   7.137   7.508   4.780 -1.9264 -0.6423  1.3755
28279SOL    HW288240   7.089   7.365   4.764  1.1839 -1.5991 -0.3494
28280SOL     OW88241   3.931  10.731   8.088  0.2008  0.8689  0.2350
28280SOL    HW188242   3.886  10.815   8.089  0.4290  1.0080 -0.8267
28280SOL    HW288243   3.861  10.666   8.094 -0.1090  1.0973 -0.8024
28281SOL     OW88244   0.074   4.046   0.893 -0.5099  0.0230  0.1910
28281SOL    HW188245   0.102   4.094   0.815  0.5538 -3.0317 -1.4794
28281SOL    HW288246  -0.022   4.053   0.892 -0.4195  1.6859 -0.1748
28282SOL     OW88247   8.889   8.593   8.885  0.1310 -0.4108 -0.0995
28282SOL    HW188248   8.848   8.656   8.826 -0.5084 -0.6908  0.0353
28282SOL    HW288249   8.963   8.559   8.836  0.4357  0.3815 -0.2057
28283SOL     OW88250   0.527   3.200   1.469  0.2652  0.6436 -0.0845
28283SOL    HW188251   0.612   3.199   1.513  0.5228 -0.3328 -0.5661
28283SOL    HW288252   0.517   3.110   1.436 -0.3430  1.0967 -1.1841
28284SOL     OW88253   1.276   7.882   3.740 -0.3036  0.0850  0.1595
28284SOL    HW188254   1.221   7.828   3.796 -1.3280  0.2903 -0.6148
28284SOL    HW288255   1.221   7.901   3.663  0.3127  1.5402  0.0368
28285SOL     OW88256   8.115   5.382   7.745  0.4850 -0.8510  0.0373
28285SOL    HW188257   8.098   5.288   7.746 -0.3998 -0.7074 -0.7061
28285SOL    HW288258   8.178   5.394   7.673 -0.5606 -0.7003 -0.8723
28286SOL     OW88259   1.794   4.083   8.897  0.4639  0.0391 -0.3178
28286SOL    HW188260   1.698   4.078   8.903  0.4047  0.9652 -0.3603
28286SOL    HW288261   1.824   4.036   8.975  0.0118 -1.2380 -0.8906
28287SOL     OW88262   3.350   5.100   8.120 -0.2305 -0.0052  0.2123
28287SOL    HW188263   3.298   5.145   8.053  0.8674  1.1375  0.0834
28287SOL    HW288264   3.437   5.092   8.081  0.5090  0.9309  1.5865
28288SOL     OW88265   4.440   2.735   8.115  0.2809 -0.1707  0.6095
28288SOL    HW188266   4.420   2.695   8.030 -0.0575  0.6974  0.2671
28288SOL    HW288267   4.511   2.682   8.151  1.2522  0.1630 -0.7500
28289SOL     OW88268   1.585   8.401   3.026 -0.0002 -0.4453 -0.0979
28289SOL    HW188269   1.507   8.404   2.971 -0.6565  0.8298  0.8381
28289SOL    HW288270   1.635   8.479   3.000  0.6622 -0.9067 -0.2450
28290SOL     OW88271   9.478   3.035   3.172  0.2955 -0.6581  0.2936
28290SOL    HW188272   9.568   3.056   3.196  0.1260  1.0343 -0.4109
28290SOL    HW288273   9.442   2.992   3.249  0.9185  1.1126  1.6443
28291SOL     OW88274   2.721   7.327   7.780 -0.1882 -0.8679  0.2661
28291SOL    HW188275   2.743   7.236   7.761 -0.8478 -0.7416 -1.2583
28291SOL    HW288276   2.660   7.322   7.853  0.6112 -1.5698  0.9048
28292SOL     OW88277   4.929   5.040   0.357 -0.6282 -0.3812 -0.2960
28292SOL    HW188278   4.869   4.984   0.405 -0.5669 -0.8877 -0.8001
28292SOL    HW288279   4.876   5.076   0.285 -0.7972  0.5956  0.2929
28293SOL     OW88280   5.610   9.727   1.916  0.2516  0.3909  0.1975
28293SOL    HW188281   5.570   9.805   1.878  0.4615 -0.0660 -1.0143
28293SOL    HW288282   5.634   9.673   1.841  0.8597 -0.4763  0.9834
28294SOL     OW88283   9.481   4.759   2.879  0.1654  0.6615  0.0679
28294SOL    HW188284   9.443   4.738   2.794  0.3637  1.9656 -0.3586
28294SOL    HW288285   9.407   4.788   2.933  0.0113 -0.3372  0.4118
28295SOL     OW88286   3.162   7.725   5.881 -0.6300  0.6828  0.3031
28295SOL    HW188287   3.221   7.661   5.920 -1.9525 -0.4694  0.4705
28295SOL    HW288288   3.141   7.785   5.953 -0.2733  0.6539  0.4352
28296SOL     OW88289   5.024   3.627   0.851 -0.4542  0.9173  0.2622
28296SOL    HW188290   5.049   3.652   0.940 -0.7336  1.7017  0.1289
28296SOL    HW288291   5.006   3.710   0.807  0.1780  0.5672 -0.6833
28297SOL     OW88292   2.253   1.194   9.805  0.2347  0.6479  0.2058
28297SOL    HW188293   2.198   1.215   9.882 -0.0493 -0.9901  0.4833
28297SOL    HW288294   2.224   1.107   9.778  2.0428  0.1470 -0.2506
28298SOL     OW88295   0.410   5.106   4.203 -0.3435 -0.1484  0.3895
28298SOL    HW188296   0.472   5.128   4.133 -1.5644  2.7275  0.0476
28298SOL    HW288297   0.373   5.022   4.177  0.0108  0.3320 -1.9151
28299SOL     OW88298   5.378   5.310  10.617  0.2021  0.5992  0.0023
28299SOL    HW188299   5.306   5.279  10.672  2.5701 -4.2293  0.8625
28299SOL    HW288300   5.434   5.359  10.677  0.5913 -0.8943  0.9127
28300SOL     OW88301   1.795   5.415   5.937  0.3511  0.0973  0.1120
28300SOL    HW188302   1.842   5.333   5.950 -0.8219 -0.8763 -1.5823
28300SOL    HW288303   1.853   5.468   5.882  0.3477 -0.2821 -0.2545
28301SOL     OW88304  10.424   8.186   3.073 -0.4277  0.2939 -0.1815
28301SOL    HW188305  10.491   8.253   3.062  1.4908 -1.4301  0.2396
28301SOL    HW288306  10.352   8.213   3.016  0.5999  2.2339 -0.6438
28302SOL     OW88307   4.614  10.694   7.674 -0.1901  0.3629 -0.1767
28302SOL    HW188308   4.627  10.626   7.740  1.3650  2.2743  1.5840
28302SOL    HW288309   4.565  10.763   7.719 -0.2267  1.1776 -1.4061
28303SOL     OW88310   9.893   7.000   2.392 -0.1973 -0.0645  0.7288
28303SOL    HW188311   9.871   6.907   2.381 -2.8904  0.0885  3.4356
28303SOL    HW288312   9.845   7.044   2.322  0.2845 -0.5917  0.0438
28304SOL     OW88313   9.859   5.484   9.713  0.1551  0.4389 -0.1960
28304SOL    HW188314   9.872   5.430   9.790 -1.0744  0.9722  0.4118
28304SOL    HW288315   9.923   5.452   9.650  2.2123  0.9641  1.5338
28305SOL     OW88316   5.596   5.830   5.350  0.4873  0.4967 -0.5126
28305SOL    HW188317   5.640   5.880   5.282 -2.3754  1.1739 -2.0281
28305SOL    HW288318   5.565   5.895   5.412  2.6478 -0.0795  1.3081
28306SOL     OW88319   5.965   5.942   2.030  0.2335  0.0425  0.1150
28306SOL    HW188320   6.039   5.899   1.987 -0.9227 -2.5679  0.5638
28306SOL    HW288321   6.006   5.997   2.097  1.8223  0.0759 -0.8281
28307SOL     OW88322   9.701   3.324   4.904 -0.3764  0.8651 -0.0629
28307SOL    HW188323   9.746   3.404   4.931 -0.4910  0.2043  2.2845
28307SOL    HW288324   9.613   3.332   4.940 -0.6242  0.0164 -0.4584
28308SOL     OW88325   7.536   2.402   1.225  0.5007  0.2707  0.3217
28308SOL    HW188326   7.529   2.483   1.174  0.4580 -0.5893 -1.0862
28308SOL    HW288327   7.449   2.363   1.221  1.1433 -1.1112 -1.2434
28309SOL     OW88328   3.057   7.126   2.540  0.2830  0.3580  0.1240
28309SOL    HW188329   3.130   7.152   2.596 -0.0607  0.9323  0.3090
28309SOL    HW288330   3.068   7.177   2.460 -0.2367  0.8961  0.3818
28310SOL     OW88331   1.321   8.451   9.325 -0.2383  0.1682  0.2337
28310SOL    HW188332   1.400   8.450   9.379 -0.8250 -1.1360  1.1047
28310SOL    HW288333   1.249   8.464   9.387 -0.8797 -0.8397 -0.2653
28311SOL     OW88334   1.175   5.356   1.992 -0.2775 -0.0328 -0.0504
28311SOL    HW188335   1.168   5.266   2.022  0.1825 -0.5558 -1.4123
28311SOL    HW288336   1.100   5.368   1.934 -1.0846  0.9099  1.1343
28312SOL     OW88337  10.731   6.244   2.786  0.3366 -0.4031  0.2226
28312SOL    HW188338  10.749   6.311   2.851 -0.0371  0.5206 -0.5958
28312SOL    HW288339  10.759   6.162   2.827  2.8817  0.4857  0.4271
28313SOL     OW88340   2.855   8.499   7.594  0.0547  0.8215 -0.5256
28313SOL    HW188341   2.901   8.475   7.674 -0.6362 -0.8130 -0.5624
28313SOL    HW288342   2.822   8.415   7.560 -0.6738  1.6231 -1.8803
28314SOL     OW88343   0.336   4.900   9.716  0.2673 -0.3090 -0.1273
28314SOL    HW188344   0.424   4.886   9.682  0.2157 -1.4316  0.1447
28314SOL    HW288345   0.324   4.830   9.781 -1.1500 -0.7806 -0.8442
28315SOL     OW88346   8.016   1.261   8.753  0.2243 -1.0575 -0.1805
28315SOL    HW188347   7.954   1.287   8.822 -1.9780 -1.1296 -2.0268
28315SOL    HW288348   8.043   1.343   8.713 -0.1836 -1.1344 -0.6147
28316SOL     OW88349   7.721   4.957   4.985  0.2533  0.2213  0.3386
28316SOL    HW188350   7.778   4.991   4.916 -1.1010  2.7389  0.3407
28316SOL    HW288351   7.774   4.960   5.065  1.3010 -1.1727 -0.2588
28317SOL     OW88352   3.057   0.765   4.803 -0.1564 -0.1262  0.0746
28317SOL    HW188353   3.037   0.760   4.709 -0.5262 -1.3860  0.2055
28317SOL    HW288354   3.067   0.859   4.820 -2.0111  0.2952 -0.8420
28318SOL     OW88355   9.176   1.096   3.072 -0.0950 -0.2731 -0.0300
28318SOL    HW188356   9.150   1.188   3.078  3.5199  0.8607  1.0407
28318SOL    HW288357   9.149   1.059   3.156 -1.1719 -0.0982 -0.2859
28319SOL     OW88358   1.019   8.149   7.638 -0.1833 -0.4116 -0.1630
28319SOL    HW188359   0.929   8.183   7.630 -0.4778 -1.0572  0.2889
28319SOL    HW288360   1.051   8.144   7.549 -0.6348 -0.2666 -0.3385
28320SOL     OW88361   0.164   9.862   3.653 -0.3121  0.0535 -0.3492
28320SOL    HW188362   0.247   9.911   3.648 -1.0032  1.1726 -1.7412
28320SOL    HW288363   0.182   9.781   3.606 -0.7258  1.5097 -3.2482
28321SOL     OW88364   5.013   8.566   2.398  0.1083  0.8092 -0.8350
28321SOL    HW188365   4.982   8.510   2.327  0.5047  0.9960 -1.1606
28321SOL    HW288366   4.949   8.555   2.467 -0.4647  0.8807 -1.3490
28322SOL     OW88367   6.489  10.831   7.874 -0.1204  0.1447  0.3150
28322SOL    HW188368   6.476  10.787   7.789 -0.0145  0.2030  0.2691
28322SOL    HW288369   6.580  10.813   7.897  0.3970  1.6283 -0.4397
28323SOL     OW88370   5.163   7.463   9.560  0.0582  0.3529 -0.1035
28323SOL    HW188371   5.098   7.482   9.628  0.4514  0.1183  0.3450
28323SOL    HW288372   5.227   7.408   9.604  2.0645  2.8009  0.2740
28324SOL     OW88373  10.215   9.003   6.545  0.0758 -0.4133 -0.4837
28324SOL    HW188374  10.143   9.065   6.560  0.4545  0.1495 -0.9775
28324SOL    HW288375  10.293   9.057   6.542  0.6745 -1.1234  1.0390
28325SOL     OW88376   9.832  10.700   2.077  1.0081  0.0593  0.5304
28325SOL    HW188377   9.894  10.630   2.059  0.3662 -0.5271  0.5834
28325SOL    HW288378   9.858  10.771   2.017  2.1816  0.1096  1.0725
28326SOL     OW88379   6.602   2.909   3.569 -0.6535  0.1874 -0.6061
28326SOL    HW188380   6.554   2.880   3.646 -0.6456 -3.0200 -1.6702
28326SOL    HW288381   6.692   2.921   3.600 -1.0890  1.1722  0.3173
28327SOL     OW88382   1.369   0.878   1.557 -0.0088 -0.0103 -0.5244
28327SOL    HW188383   1.408   0.921   1.481 -0.9626  3.0224  0.5526
28327SOL    HW288384   1.441   0.869   1.619  0.0064  0.9464 -0.4006
28328SOL     OW88385   6.491  10.306   9.050 -0.5519  0.0473 -0.3350
28328SOL    HW188386   6.484  10.401   9.050  0.7938  0.1751  0.8756
28328SOL    HW288387   6.476  10.281   9.141 -0.7617 -0.8914 -0.6163
28329SOL     OW88388   3.808   3.354   9.394  0.3571  0.6695  0.1205
28329SOL    HW188389   3.764   3.393   9.318 -0.0068 -1.4716 -0.8336
28329SOL    HW288390   3.737   3.338   9.457  0.1178 -0.4808 -0.4120
28330SOL     OW88391   8.590   4.208  10.420  0.1475 -0.1117 -0.2384
28330SOL    HW188392   8.657   4.141  10.407  0.4127 -0.1318  1.1087
28330SOL    HW288393   8.523   4.165  10.473 -0.0216  0.4737  0.0315
28331SOL     OW88394   2.452   0.792   1.128 -0.7359 -0.3179  0.1951
28331SOL    HW188395   2.432   0.803   1.035  0.2945  0.8981  0.0886
28331SOL    HW288396   2.509   0.866   1.150 -1.8593  0.0759  2.0737
28332SOL     OW88397   4.235   1.106   8.438 -0.0115  0.3861 -0.0317
28332SOL    HW188398   4.159   1.076   8.388 -0.4476  2.1927 -0.5329
28332SOL    HW288399   4.198   1.155   8.511  0.6348 -1.8043  1.8643
28333SOL     OW88400   4.051   0.433  10.868  0.4040  0.7418 -0.1514
28333SOL    HW188401   4.046   0.386  10.784  0.4199 -0.8060  0.6762
28333SOL    HW288402   3.974   0.403  10.916  2.3921 -1.5354  1.8911
28334SOL     OW88403   9.973   2.589   7.482 -0.2435 -0.1661 -0.2887
28334SOL    HW188404  10.061   2.617   7.505 -0.5392  0.4485  0.1334
28334SOL    HW288405   9.979   2.495   7.470  0.0391 -0.4527  1.7957
28335SOL     OW88406   2.781   6.958   3.423 -0.2903  0.1688  0.1938
28335SOL    HW188407   2.793   7.028   3.359  2.7304 -1.0305 -0.7140
28335SOL    HW288408   2.780   7.003   3.508 -1.1626  1.4823 -0.4730
28336SOL     OW88409   3.905   6.217   2.738  0.0157 -0.1671 -0.1901
28336SOL    HW188410   3.983   6.211   2.683  0.7578  2.2447  0.5043
28336SOL    HW288411   3.867   6.302   2.718 -0.6090  0.0847  1.7862
28337SOL     OW88412  10.112   8.053   3.857 -0.4510  0.0030  0.1543
28337SOL    HW188413  10.110   8.090   3.769  0.9036  0.1544  0.1655
28337SOL    HW288414  10.088   8.126   3.914 -1.8228 -0.2186 -0.0980
28338SOL     OW88415   9.533   0.751   2.489 -0.3199  0.6198  0.5273
28338SOL    HW188416   9.550   0.662   2.456  1.2805  0.9693  0.3099
28338SOL    HW288417   9.609   0.801   2.460 -0.6865  1.8202  1.5745
28339SOL     OW88418   7.352   2.887   7.921  0.2372 -0.2700 -0.0396
28339SOL    HW188419   7.351   2.865   7.828  0.6843  3.5345 -1.1170
28339SOL    HW288420   7.428   2.841   7.956  0.2655 -1.4872 -1.6125
28340SOL     OW88421   4.809   7.446   8.337 -0.2734  0.3392  0.2586
28340SOL    HW188422   4.876   7.460   8.404 -0.1950  3.6251 -0.3566
28340SOL    HW288423   4.748   7.519   8.348 -1.3511 -0.1310 -1.9780
28341SOL     OW88424   2.897   7.354   6.356 -0.4289  0.5169 -0.1847
28341SOL    HW188425   2.808   7.383   6.337 -0.8773  0.1652  1.2275
28341SOL    HW288426   2.892   7.320   6.445  0.5290 -2.0093 -1.0042
28342SOL     OW88427   2.030   9.470   7.660  0.1187  0.4423  0.5081
28342SOL    HW188428   1.972   9.542   7.686  2.5254  2.3894  0.7851
28342SOL    HW288429   2.047   9.422   7.741 -1.6841 -0.6945  0.2806
28343SOL     OW88430   5.962   6.720  10.627 -0.2806  0.1165  0.0344
28343SOL    HW188431   5.873   6.741  10.655  0.1220 -0.7429  2.1143
28343SOL    HW288432   5.996   6.664  10.696  1.7109  0.0036 -0.9836
28344SOL     OW88433   0.320   8.384   9.622 -0.7560 -0.5005 -0.1025
28344SOL    HW188434   0.414   8.369   9.624 -0.6530 -0.0074 -0.8983
28344SOL    HW288435   0.287   8.324   9.555 -0.6393  1.1394 -1.6990
28345SOL     OW88436   1.940   1.121   7.518 -0.0279 -0.2827  0.2194
28345SOL    HW188437   1.869   1.064   7.544 -0.2959 -0.4428 -0.8365
28345SOL    HW288438   2.018   1.066   7.522 -0.2081 -0.5738 -0.2735
28346SOL     OW88439   8.742   4.485   8.988 -0.1461  0.0051 -0.0796
28346SOL    HW188440   8.660   4.446   9.018  0.1981 -0.5584  0.1516
28346SOL    HW288441   8.749   4.567   9.037 -0.3270 -0.1837  0.2671
28347SOL     OW88442   0.204   0.997   9.663 -0.5801  0.2466 -0.1296
28347SOL    HW188443   0.164   0.918   9.628  1.5554 -2.1136  2.3596
28347SOL    HW288444   0.278   1.015   9.604 -1.1327  0.5148 -0.7590
28348SOL     OW88445   9.984   2.310   3.895 -0.6005  0.1698  0.3129
28348SOL    HW188446   9.915   2.321   3.960 -0.6171 -0.7132  0.4539
28348SOL    HW288447   9.988   2.216   3.880  0.2476  0.2590 -0.0528
28349SOL     OW88448   0.482   9.704   5.690  0.4260 -0.2263 -0.2774
28349SOL    HW188449   0.429   9.758   5.749  0.1953  2.1209 -2.4437
28349SOL    HW288450   0.448   9.616   5.701 -0.8816  0.4643  1.6758
28350SOL     OW88451   7.605   7.263   5.082  0.0429 -0.0958  0.1606
28350SOL    HW188452   7.694   7.280   5.050  0.7523 -2.0518  0.8932
28350SOL    HW288453   7.559   7.225   5.008  0.7184 -1.6912  0.5195
28351SOL     OW88454   5.825   5.884   3.689 -0.0184  0.5911  0.1764
28351SOL    HW188455   5.872   5.865   3.770 -0.7295 -1.3323  0.1950
28351SOL    HW288456   5.863   5.966   3.658  3.1286 -0.6860  0.3150
28352SOL     OW88457   4.214   3.109   2.871 -0.3719 -0.4667 -0.8504
28352SOL    HW188458   4.229   3.035   2.930 -0.3474 -0.2979 -0.6428
28352SOL    HW288459   4.130   3.144   2.899 -0.1873 -0.1616 -0.6775
28353SOL     OW88460   7.531   8.771   1.882  0.1670  0.0457 -0.1691
28353SOL    HW188461   7.513   8.864   1.872  1.8865  0.3494 -0.8311
28353SOL    HW288462   7.585   8.749   1.806 -0.4076 -1.5572 -0.1549
28354SOL     OW88463   7.829   4.414   0.395  0.5327 -0.0506 -0.1351
28354SOL    HW188464   7.800   4.386   0.482  2.6279 -2.3826 -0.0958
28354SOL    HW288465   7.778   4.362   0.334  1.4227 -0.8685 -0.1905
28355SOL     OW88466   3.521   9.455   4.361 -0.0291 -0.7802 -0.7240
28355SOL    HW188467   3.609   9.491   4.371  0.3299 -1.6586 -0.6355
28355SOL    HW288468   3.485   9.499   4.284  0.5099 -0.4666 -0.7952
28356SOL     OW88469   6.358  10.193   0.716 -0.0606 -0.6416 -0.3559
28356SOL    HW188470   6.288  10.251   0.745 -0.3846 -0.1947 -1.9322
28356SOL    HW288471   6.326  10.156   0.634  1.0857 -1.3025 -0.5244
28357SOL     OW88472   3.513   6.010   0.536 -0.0414 -0.2808 -0.1542
28357SOL    HW188473   3.461   5.990   0.614 -1.7419  0.4717 -1.0319
28357SOL    HW288474   3.451   6.050   0.476  1.8363  1.7961 -0.8326
28358SOL     OW88475  10.159   9.173   1.432 -0.6707  0.9835  0.5184
28358SOL    HW188476  10.243   9.212   1.410  0.1972 -0.1048  1.7295
28358SOL    HW288477  10.177   9.119   1.509 -1.9740 -1.0649 -0.5241
28359SOL     OW88478   3.135   6.323   5.861  0.0143 -0.2731  0.3362
28359SOL    HW188479   3.159   6.233   5.837 -2.7198 -0.9776 -0.0438
28359SOL    HW288480   3.097   6.360   5.781 -1.4401  0.2377  1.2208
28360SOL     OW88481   0.767   2.020   2.013 -0.4460 -0.2307  0.7503
28360SOL    HW188482   0.751   1.985   1.925 -0.9818  0.0254  0.7397
28360SOL    HW288483   0.756   1.944   2.071  1.3622 -0.7332  0.4930
28361SOL     OW88484   8.950   1.968   1.627 -0.5729 -0.7344  0.7078
28361SOL    HW188485   9.039   1.972   1.593 -1.4965  0.2099 -1.8316
28361SOL    HW288486   8.946   2.039   1.692  0.9903 -1.9911  2.2738
28362SOL     OW88487   5.052   2.001   3.814  0.3250 -0.0224  0.2385
28362SOL    HW188488   5.094   2.041   3.737 -0.2448  0.0190 -0.0639
28362SOL    HW288489   5.021   2.076   3.865 -0.1089 -0.0632  0.0377
28363SOL     OW88490   0.128   7.160   9.318 -0.3675  0.1543  0.1858
28363SOL    HW188491   0.124   7.256   9.311  0.2890  0.0662 -1.8432
28363SOL    HW288492   0.214   7.143   9.356  0.1647  0.3370 -0.9004
28364SOL     OW88493  10.447   9.090   7.129 -0.5533  0.0464 -0.1926
28364SOL    HW188494  10.356   9.121   7.132 -1.0940 -1.3851 -0.9710
28364SOL    HW288495  10.468   9.085   7.036  0.1954 -0.0226 -0.0245
28365SOL     OW88496   9.067  10.158  10.224 -0.5628  0.2115  0.2754
28365SOL    HW188497   9.022  10.235  10.189 -2.0782 -0.7109  0.1095
28365SOL    HW288498   9.154  10.161  10.183 -0.4838  1.9618  0.4960
28366SOL     OW88499   9.894   1.153   0.431 -0.4972  0.3067  0.0403
28366SOL    HW188500   9.941   1.214   0.488 -1.9684  3.3089 -1.6815
28366SOL    HW288501   9.803   1.159   0.460 -0.5147 -2.1871  0.6629
28367SOL     OW88502   2.383   4.832   0.341  0.1713 -0.1186  0.0310
28367SOL    HW188503   2.462   4.882   0.364  0.2697 -0.3048  0.1011
28367SOL    HW288504   2.314   4.897   0.338  0.6351  0.3465 -1.7162
28368SOL     OW88505   4.739  10.343   6.983 -0.2473  0.0939 -0.0572
28368SOL    HW188506   4.735  10.262   6.932 -1.0620  0.7531 -1.0968
28368SOL    HW288507   4.647  10.362   7.004 -0.2238  1.4978 -1.0958
28369SOL     OW88508   0.323   3.314   6.433  0.2440  0.0798 -0.5862
28369SOL    HW188509   0.376   3.376   6.383 -0.7140  0.0070 -1.7277
28369SOL    HW288510   0.234   3.350   6.429  0.0656 -0.1614  0.7168
28370SOL     OW88511   7.841   3.578   6.196  0.4560  0.1494  0.1845
28370SOL    HW188512   7.770   3.539   6.144 -0.3235  0.9011  0.6561
28370SOL    HW288513   7.916   3.579   6.136 -0.1297  0.0095 -0.5791
28371SOL     OW88514  10.230   5.428   9.473 -0.5581  0.5982 -0.2881
28371SOL    HW188515  10.225   5.360   9.539 -1.8490  0.0512 -0.9217
28371SOL    HW288516  10.323   5.433   9.451 -0.3836 -0.6053  0.1271
28372SOL     OW88517   0.442   4.890   2.121  0.7571  0.0705  0.2875
28372SOL    HW188518   0.433   4.978   2.158  0.7643 -0.2129  0.9738
28372SOL    HW288519   0.535   4.870   2.130  0.5359 -0.5373  1.3859
28373SOL     OW88520  10.163   1.207   2.779 -0.2984 -0.0133  0.1986
28373SOL    HW188521  10.093   1.167   2.727  0.4045  0.7614 -1.4405
28373SOL    HW288522  10.184   1.142   2.846 -1.9420 -0.6343  0.1492
28374SOL     OW88523   4.390   8.195   2.190  0.0232 -0.0290 -0.3594
28374SOL    HW188524   4.323   8.259   2.166 -0.9208 -0.9821 -0.3660
28374SOL    HW288525   4.381   8.184   2.285  0.1463 -0.1860 -0.3645
28375SOL     OW88526   0.623   1.264   5.096 -0.1144  0.2531  0.0401
28375SOL    HW188527   0.659   1.330   5.036  1.3957 -0.2896  0.3020
28375SOL    HW288528   0.668   1.280   5.178 -1.6092  0.4927  0.8483
28376SOL     OW88529   1.486   5.354   1.323 -0.4705 -0.1074  0.3985
28376SOL    HW188530   1.531   5.397   1.395 -0.4155  0.4634  0.0274
28376SOL    HW288531   1.490   5.417   1.251  0.6386 -1.1744 -0.5301
28377SOL     OW88532   8.649   3.325   5.468 -0.7694 -0.8950 -0.3235
28377SOL    HW188533   8.704   3.271   5.412  0.5632  0.1967 -0.1368
28377SOL    HW288534   8.579   3.356   5.411 -0.0040 -0.6197 -1.1238
28378SOL     OW88535   6.285   3.561   6.495 -0.1699 -0.1570  0.5088
28378SOL    HW188536   6.360   3.590   6.546 -0.4431  0.5894  0.4901
28378SOL    HW288537   6.267   3.472   6.527 -1.3934  0.8679  2.9525
28379SOL     OW88538   3.774   8.360   2.303 -0.0342  0.1028 -0.2730
28379SOL    HW188539   3.803   8.369   2.213  2.2758 -1.9829  0.1655
28379SOL    HW288540   3.852   8.377   2.356 -0.8602 -0.5768  1.2343
28380SOL     OW88541   7.152   1.908   2.396  0.3774 -0.4492  0.4450
28380SOL    HW188542   7.241   1.910   2.431  0.5827  1.7349 -0.0463
28380SOL    HW288543   7.112   1.988   2.430  0.3883  1.4972 -3.6381
28381SOL     OW88544   7.013   9.942   1.540  0.0948  0.1093  0.0068
28381SOL    HW188545   7.085   9.998   1.509  0.6845  1.0199  2.6811
28381SOL    HW288546   7.026   9.938   1.635 -2.2099 -1.4529  0.3355
28382SOL     OW88547   5.588  10.215   8.309 -0.0274 -0.1186  0.9090
28382SOL    HW188548   5.549  10.197   8.394 -2.2600 -1.1373 -0.2565
28382SOL    HW288549   5.580  10.133   8.261  1.2639  0.4097 -0.2668
28383SOL     OW88550   4.894   5.987   0.068 -0.4383 -0.4457 -0.9222
28383SOL    HW188551   4.828   6.030   0.122 -0.0164  0.2235 -0.9319
28383SOL    HW288552   4.877   6.018  -0.021  0.8807  1.0200 -0.7009
28384SOL     OW88553   1.211   3.058   8.379  0.0623  0.0108 -0.3417
28384SOL    HW188554   1.164   3.095   8.305 -1.3447  1.7536  1.3054
28384SOL    HW288555   1.290   3.112   8.386 -0.5484  0.8636  0.2804
28385SOL     OW88556   4.626   6.127   5.143 -0.4025  0.0514  0.3692
28385SOL    HW188557   4.587   6.214   5.137  1.1871  0.9638  2.0719
28385SOL    HW288558   4.672   6.115   5.060 -0.1550  1.0986  0.3459
28386SOL     OW88559  10.379   3.190   7.332  0.0822  0.2973  0.8706
28386SOL    HW188560  10.288   3.199   7.361  0.0979  1.4770  0.6231
28386SOL    HW288561  10.379   3.228   7.244 -0.0811 -3.6263 -1.0216
28387SOL     OW88562   4.275   0.033   3.451 -0.0469  0.2573 -0.1684
28387SOL    HW188563   4.257   0.072   3.366 -0.7863  1.9819  0.7369
28387SOL    HW288564   4.355  -0.017   3.437 -1.5882 -1.8129 -2.5376
28388SOL     OW88565   4.918   1.843   0.513 -1.2585  0.4308  0.0028
28388SOL    HW188566   4.938   1.752   0.489 -1.2213  0.3875  0.1926
28388SOL    HW288567   4.876   1.836   0.598  0.7552  0.7390  1.0856
28389SOL     OW88568   8.035   1.426   9.453  0.2549 -0.0957 -0.1491
28389SOL    HW188569   8.032   1.480   9.532  1.7555 -0.5767  0.2923
28389SOL    HW288570   8.122   1.442   9.417  0.1352 -1.0123 -0.8766
28390SOL     OW88571   3.071   7.129   4.093 -0.2121  0.6827 -0.1150
28390SOL    HW188572   3.075   7.163   4.183 -0.4452 -0.9242  0.5431
28390SOL    HW288573   3.029   7.043   4.102  2.8240 -1.0718 -1.2749
28391SOL     OW88574   1.630   2.981   0.795 -0.2574  0.3178  0.3889
28391SOL    HW188575   1.685   3.008   0.721  0.3408 -0.3310  0.5834
28391SOL    HW288576   1.692   2.955   0.863 -0.8071  0.8085  1.0884
28392SOL     OW88577   6.344   8.192   4.781  0.4269  0.1424 -0.2488
28392SOL    HW188578   6.354   8.115   4.838 -0.7291  1.8682  2.5219
28392SOL    HW288579   6.434   8.217   4.759  0.9623 -0.4602  1.0858
28393SOL     OW88580   8.852   1.576   7.180 -0.1453  0.2226 -0.0205
28393SOL    HW188581   8.930   1.608   7.134  0.7547 -0.9988  0.5973
28393SOL    HW288582   8.846   1.484   7.156 -1.6778  0.4030 -0.3964
28394SOL     OW88583   0.198   7.183   8.024 -0.2195  0.1519  0.2437
28394SOL    HW188584   0.284   7.186   8.065  0.2253 -0.6892 -0.5918
28394SOL    HW288585   0.189   7.093   7.993 -0.1961  0.9107 -2.1647
28395SOL     OW88586   1.672   2.712   3.067  0.0617  0.2935  0.1795
28395SOL    HW188587   1.687   2.712   3.162  0.8186 -1.1339  0.0891
28395SOL    HW288588   1.603   2.648   3.054  0.1794  0.2561 -0.2641
28396SOL     OW88589   4.661   6.831   4.305 -1.0146 -0.2466  0.2739
28396SOL    HW188590   4.661   6.745   4.346 -0.5542 -0.4778 -0.1981
28396SOL    HW288591   4.726   6.824   4.235  1.0909  1.3052  1.9510
28397SOL     OW88592   6.433   2.045   8.838 -0.5495 -0.8733 -0.3830
28397SOL    HW188593   6.471   2.080   8.757 -0.2267  1.2450  0.6299
28397SOL    HW288594   6.342   2.075   8.837  0.1673  1.6564  1.3050
28398SOL     OW88595   6.391   1.888   2.153  0.4110 -0.4671 -0.2208
28398SOL    HW188596   6.430   1.802   2.139 -0.6613 -1.0128  0.0649
28398SOL    HW288597   6.412   1.908   2.245  0.7554 -0.3611 -0.3185
28399SOL     OW88598   8.555  10.361  10.259 -0.2413 -0.1999  0.1257
28399SOL    HW188599   8.541  10.266  10.268 -0.5469 -0.1443  0.2255
28399SOL    HW288600   8.543  10.378  10.166  2.2427 -0.6599 -0.3541
28400SOL     OW88601   2.248   8.073  10.602  0.1044  0.2680 -0.1494
28400SOL    HW188602   2.303   8.003  10.638 -0.3635  0.3753  0.8082
28400SOL    HW288603   2.258   8.064  10.507  1.4125  0.0066 -0.0150
28401SOL     OW88604   8.394   4.862   0.510  0.4206 -0.0157 -0.1420
28401SOL    HW188605   8.382   4.954   0.536  0.1718  0.0808 -0.5782
28401SOL    HW288606   8.478   4.861   0.464 -1.1951  0.7734 -3.4257
28402SOL     OW88607   9.967  10.024  10.599  0.3327 -0.1739  0.1241
28402SOL    HW188608   9.888   9.973  10.582 -0.6703  1.7044 -1.2983
28402SOL    HW288609  10.036   9.979  10.551  0.0105 -1.4619  0.8268
28403SOL     OW88610   3.615   9.494   0.813  0.0742 -0.0605  0.0761
28403SOL    HW188611   3.649   9.416   0.769 -2.7842 -1.4486  0.1365
28403SOL    HW288612   3.528   9.470   0.842 -1.1667  3.3439 -0.3492
28404SOL     OW88613   9.506   7.228   2.205  0.3576 -0.5797 -0.3273
28404SOL    HW188614   9.429   7.222   2.261 -0.5118 -0.9687 -1.5294
28404SOL    HW288615   9.545   7.313   2.226 -1.8964  0.8411 -1.5492
28405SOL     OW88616   6.307   4.766   7.642  0.1542 -0.4040  0.0031
28405SOL    HW188617   6.350   4.748   7.558 -0.1655  1.2386 -0.5498
28405SOL    HW288618   6.215   4.744   7.626 -0.0347  0.5796 -0.3186
28406SOL     OW88619   6.580   2.517   6.566 -0.1855 -0.4278 -0.1077
28406SOL    HW188620   6.562   2.434   6.609  2.4078 -1.6348 -1.1375
28406SOL    HW288621   6.673   2.513   6.545  0.6360  3.7437  1.8337
28407SOL     OW88622   4.880   0.929   0.387  0.0783  0.4030  0.3537
28407SOL    HW188623   4.857   0.855   0.444  0.6930  0.3747  0.5667
28407SOL    HW288624   4.863   1.006   0.441  0.4175  0.3834  0.4924
28408SOL     OW88625   5.419   0.609   6.658 -0.0205  0.1846 -0.1551
28408SOL    HW188626   5.446   0.700   6.652 -1.8960  0.8381  0.5887
28408SOL    HW288627   5.426   0.587   6.751 -0.9184  0.0322 -0.1116
28409SOL     OW88628   8.573   5.809   7.788  0.4075 -0.0945 -0.3614
28409SOL    HW188629   8.528   5.872   7.732  1.0359  0.3156 -0.4173
28409SOL    HW288630   8.663   5.840   7.792  0.0511  0.8486  2.2236
28410SOL     OW88631   5.942   9.660   6.521 -0.2197  0.2445  0.5500
28410SOL    HW188632   5.860   9.649   6.568 -0.5469  1.1478  0.2031
28410SOL    HW288633   5.980   9.572   6.519 -0.8353 -0.0542  1.3180
28411SOL     OW88634   5.770   2.904   1.273  0.2058  0.8191 -0.3104
28411SOL    HW188635   5.814   2.903   1.188 -1.7857 -0.8346 -1.3954
28411SOL    HW288636   5.728   2.990   1.277 -1.5094  0.1307 -2.0631
28412SOL     OW88637   2.014   7.255   7.288 -0.1622  0.0311 -0.2727
28412SOL    HW188638   2.046   7.178   7.240  2.0261  1.6769 -1.6876
28412SOL    HW288639   1.978   7.312   7.220 -1.2979  0.5012  0.6857
28413SOL     OW88640   3.351   0.678   5.531 -0.1351 -0.3641 -0.6695
28413SOL    HW188641   3.352   0.721   5.445 -1.4822  2.0918  0.4221
28413SOL    HW288642   3.436   0.700   5.569 -0.2398  0.1168 -0.6987
28414SOL     OW88643   1.699   7.573   1.995  0.2754 -0.8390  0.5552
28414SOL    HW188644   1.613   7.555   1.956 -0.0227 -0.2595  0.9233
28414SOL    HW288645   1.720   7.493   2.044 -0.2076 -0.8595  0.7356
28415SOL     OW88646  10.235   6.168   0.849 -0.3507  0.6667  0.2718
28415SOL    HW188647  10.184   6.098   0.806 -0.9333  1.6668 -0.7132
28415SOL    HW288648  10.171   6.215   0.902 -0.1101  0.8865  0.3662
28416SOL     OW88649   3.029   4.773   4.157  0.2602 -0.3075 -0.3309
28416SOL    HW188650   3.025   4.703   4.222 -1.3350  1.0188  1.0941
28416SOL    HW288651   3.070   4.846   4.204 -0.1026  0.4057 -1.1028
28417SOL     OW88652   3.446   1.875   9.475 -0.3811 -0.4082  0.1191
28417SOL    HW188653   3.445   1.807   9.408  1.1886  1.5097 -2.0282
28417SOL    HW288654   3.368   1.928   9.458  0.5217  0.6492 -0.9162
28418SOL     OW88655   4.747   6.026   6.074 -0.0819 -0.2022  0.7618
28418SOL    HW188656   4.767   5.973   5.996 -2.1200 -0.0446  0.0728
28418SOL    HW288657   4.742   5.963   6.145 -1.4792 -0.8487  0.1304
28419SOL     OW88658   0.551  10.708   9.345 -0.4564  0.8021  0.0819
28419SOL    HW188659   0.551  10.737   9.254 -0.8927 -0.3488 -0.2984
28419SOL    HW288660   0.586  10.783   9.394 -1.8105  2.0666 -0.8134
28420SOL     OW88661   4.802   3.909   6.228 -0.3257  0.1619  0.1131
28420SOL    HW188662   4.850   3.826   6.228  1.6376  1.2373 -0.4128
28420SOL    HW288663   4.748   3.905   6.149 -1.3285 -1.1413  0.8075
28421SOL     OW88664   8.211   2.062   5.300  0.6087  0.1386  0.3577
28421SOL    HW188665   8.207   1.969   5.278 -0.3845  0.7139 -2.2710
28421SOL    HW288666   8.127   2.097   5.270  0.2606  1.6301  2.8305
28422SOL     OW88667   1.496   1.430   4.461 -0.1103 -0.0567  0.2050
28422SOL    HW188668   1.426   1.367   4.450 -2.0893  1.9745  0.4966
28422SOL    HW288669   1.529   1.414   4.549 -0.7283 -0.5460  0.3522
28423SOL     OW88670   6.699   5.931   2.364  0.6017 -0.2611  0.0125
28423SOL    HW188671   6.776   5.956   2.415  0.0216 -0.2938  0.9333
28423SOL    HW288672   6.701   5.836   2.361  0.2849 -0.2875  0.5454
28424SOL     OW88673   6.808   3.607   9.798  0.0011 -0.3486  0.5254
28424SOL    HW188674   6.768   3.677   9.747 -0.8523 -1.4159 -0.3265
28424SOL    HW288675   6.897   3.637   9.814  0.7691 -0.4990 -2.7642
28425SOL     OW88676  10.576   2.439   6.907 -0.3795 -0.0141  0.3806
28425SOL    HW188677  10.490   2.478   6.920  0.2082  0.6106  2.7110
28425SOL    HW288678  10.636   2.513   6.903  0.1626 -0.4768 -0.4356
28426SOL     OW88679   1.001   6.083   7.014 -0.6520 -0.0071  0.1566
28426SOL    HW188680   1.088   6.075   6.974 -0.3226 -1.1099  1.0265
28426SOL    HW288681   0.940   6.064   6.943 -0.0981 -1.2569 -0.0194
28427SOL     OW88682   1.758   4.203   2.894  0.0408 -0.8452 -0.3373
28427SOL    HW188683   1.799   4.245   2.970 -2.0506  1.9380 -0.6066
28427SOL    HW288684   1.831   4.188   2.834  1.4024 -0.9594  1.2486
28428SOL     OW88685   7.453   4.012   7.965  0.0755  0.5562  0.1674
28428SOL    HW188686   7.526   3.955   7.989 -0.9277 -1.1690 -0.7550
28428SOL    HW288687   7.479   4.048   7.879 -0.7923 -1.2898 -0.9161
28429SOL     OW88688   1.910   3.945   6.418  0.2476 -0.4978 -0.0455
28429SOL    HW188689   1.884   4.037   6.419  0.8622 -0.2854 -1.2991
28429SOL    HW288690   1.972   3.936   6.491  1.7203  0.5830 -1.1117
28430SOL     OW88691   8.246   5.715   9.765 -0.0282  0.2471  0.0084
28430SOL    HW188692   8.196   5.679   9.692  2.7694  0.0774 -1.9461
28430SOL    HW288693   8.288   5.638   9.805  0.2040  0.5787  0.4047
28431SOL     OW88694   1.648   6.221   0.356 -0.6235 -0.0439 -0.6395
28431SOL    HW188695   1.724   6.192   0.306 -0.7546  0.4163 -1.1160
28431SOL    HW288696   1.573   6.200   0.300 -0.7401  0.9085 -0.8598
28432SOL     OW88697   3.128  10.567   5.989  0.0212 -0.2187 -0.3029
28432SOL    HW188698   3.176  10.570   6.072  0.1525  0.1510 -0.3887
28432SOL    HW288699   3.038  10.549   6.014  0.0750 -0.1849 -0.0813
28433SOL     OW88700   0.810   6.540   4.109 -0.5109 -0.2066 -0.1525
28433SOL    HW188701   0.855   6.620   4.136 -0.5206  0.0275 -0.8166
28433SOL    HW288702   0.751   6.520   4.182  1.0934 -0.8624  1.0155
28434SOL     OW88703   8.158   0.268  10.294  0.1308 -0.1019 -0.1477
28434SOL    HW188704   8.202   0.226  10.368  0.6203  0.7146  0.0364
28434SOL    HW288705   8.229   0.298  10.238 -0.2354 -0.3977 -0.7733
28435SOL     OW88706   3.996   2.473   6.201  0.7892  0.3866  0.2031
28435SOL    HW188707   3.955   2.454   6.286  0.7039  0.0029  0.0744
28435SOL    HW288708   4.003   2.388   6.158  1.7373  0.4458  0.2280
28436SOL     OW88709   7.240   0.523   1.735  0.0382 -0.2613 -0.2809
28436SOL    HW188710   7.207   0.511   1.824 -0.5486 -0.4305 -0.5234
28436SOL    HW288711   7.260   0.617   1.730  0.5732 -0.3376  0.1944
28437SOL     OW88712   9.194   2.589   5.674  0.2544  0.0711  0.0903
28437SOL    HW188713   9.229   2.500   5.662 -0.7289 -0.7895  2.8062
28437SOL    HW288714   9.100   2.580   5.658  0.0257  0.4050  1.1485
28438SOL     OW88715   7.759   2.605   4.888 -0.3600 -0.3633 -0.3182
28438SOL    HW188716   7.664   2.616   4.883 -0.2325  0.3094 -2.4142
28438SOL    HW288717   7.793   2.695   4.887  0.3141 -0.6083  0.0437
28439SOL     OW88718   1.295   4.222  10.838 -0.4853 -0.1861 -0.3721
28439SOL    HW188719   1.252   4.217  10.752 -0.3919 -0.5632 -0.3966
28439SOL    HW288720   1.272   4.141  10.881 -1.9380  0.7163  0.6312
28440SOL     OW88721   0.243   1.215   7.066 -0.3206 -0.1697  0.2338
28440SOL    HW188722   0.168   1.231   7.123 -0.2447 -0.6840  0.4848
28440SOL    HW288723   0.296   1.150   7.113 -0.1867 -0.5005 -0.3563
28441SOL     OW88724   7.262   8.467   3.632 -0.4295 -0.5733 -0.1918
28441SOL    HW188725   7.269   8.413   3.710  1.3720  1.3828  1.1161
28441SOL    HW288726   7.321   8.426   3.569  0.4328 -0.5078  0.5596
28442SOL     OW88727   4.378   1.533   5.874  0.2749  0.2889  0.0923
28442SOL    HW188728   4.424   1.476   5.813  0.4029 -1.7413  1.9303
28442SOL    HW288729   4.448   1.582   5.919  0.3657  0.0684  0.1949
28443SOL     OW88730   1.753   9.711   9.423  0.4221 -0.5116 -0.0607
28443SOL    HW188731   1.729   9.798   9.390  0.3054 -0.1491  0.9478
28443SOL    HW288732   1.727   9.651   9.354  1.3855  0.3305 -1.2139
28444SOL     OW88733   5.564   1.079   5.945 -0.7320  0.0414  0.2705
28444SOL    HW188734   5.477   1.101   5.912 -0.8758 -1.0833 -0.1563
28444SOL    HW288735   5.601   1.022   5.877  0.1531  0.1278  0.6679
28445SOL     OW88736   6.266   3.646   4.792 -0.6918  0.8293 -0.1914
28445SOL    HW188737   6.229   3.657   4.705 -0.1630  0.6321 -0.4405
28445SOL    HW288738   6.243   3.556   4.817 -0.1695  0.6279 -0.4432
28446SOL     OW88739   1.160  10.776  10.283 -0.4348 -0.6124  0.2329
28446SOL    HW188740   1.077  10.824  10.290 -0.9133 -1.5101  0.9230
28446SOL    HW288741   1.227  10.843  10.293 -1.0965 -0.0904  1.4244
28447SOL     OW88742  10.706   2.881   5.855  0.3741  0.5325  0.2724
28447SOL    HW188743  10.799   2.861   5.859  0.3492  0.3237 -0.1052
28447SOL    HW288744  10.665   2.800   5.825  0.1067  0.7095  0.1543
28448SOL     OW88745   2.456   9.960   4.626 -0.5343 -0.4205 -0.2850
28448SOL    HW188746   2.504   9.939   4.706 -0.1412  0.5792 -0.2526
28448SOL    HW288747   2.364   9.958   4.652 -0.4526 -0.9485 -0.0179
28449SOL     OW88748   9.627   0.797   3.199 -0.0290 -0.2041 -0.9573
28449SOL    HW188749   9.602   0.733   3.132  1.8576 -1.5652 -0.4272
28449SOL    HW288750   9.709   0.764   3.234 -0.3259  1.1656  1.1676
28450SOL     OW88751   7.484   4.415   3.530  0.2055 -0.2552 -0.0968
28450SOL    HW188752   7.515   4.454   3.448  0.5915 -0.6815 -0.1564
28450SOL    HW288753   7.515   4.474   3.598 -1.4723  0.9780 -0.3344
28451SOL     OW88754  10.222   7.437  10.550  0.2002 -0.0188  0.6353
28451SOL    HW188755  10.222   7.343  10.570 -0.7491 -1.2580 -3.8888
28451SOL    HW288756  10.312   7.455  10.523  0.2323  0.2162  0.8972
28452SOL     OW88757   0.906   5.976   2.802  0.0095  0.0661  0.1489
28452SOL    HW188758   0.929   6.067   2.785  1.1504 -0.2302  0.0027
28452SOL    HW288759   0.865   5.946   2.720 -0.1510  0.3757  0.1157
28453SOL     OW88760   8.805   0.201   5.742  0.2845 -0.4883 -0.7061
28453SOL    HW188761   8.832   0.109   5.740 -0.4219 -0.8273  1.6078
28453SOL    HW288762   8.876   0.245   5.790  1.6208  0.6360 -3.5278
28454SOL     OW88763   7.480   6.197   1.732 -0.4661 -0.4195  0.3251
28454SOL    HW188764   7.477   6.164   1.642 -1.7756  1.4055 -0.3521
28454SOL    HW288765   7.556   6.255   1.734 -1.2647  0.6787 -0.0677
28455SOL     OW88766   7.711   0.804   6.557  0.0156 -0.0050  0.6525
28455SOL    HW188767   7.777   0.862   6.520  1.3224 -2.0367 -0.3803
28455SOL    HW288768   7.627   0.847   6.538  0.7544  0.2507 -2.6425
28456SOL     OW88769   6.790   9.804   7.893 -0.4995  0.4509 -0.4165
28456SOL    HW188770   6.831   9.725   7.858  2.5101  2.3981 -1.6880
28456SOL    HW288771   6.761   9.853   7.815  0.3672  1.8949  0.1222
28457SOL     OW88772   8.241   4.895   5.399  0.1669  0.1177  0.1732
28457SOL    HW188773   8.297   4.820   5.379  0.8355  0.6089  0.1588
28457SOL    HW288774   8.274   4.927   5.484  1.1126  1.4892 -0.6675
28458SOL     OW88775   8.344   9.348   3.279 -0.0932 -0.3525 -0.2988
28458SOL    HW188776   8.425   9.387   3.245 -0.3853 -0.0251 -0.6340
28458SOL    HW288777   8.275   9.409   3.252 -0.2310  0.5625  1.9572
28459SOL     OW88778   2.324   5.470   5.411  0.4668 -0.6968 -0.3167
28459SOL    HW188779   2.341   5.432   5.497  0.1662 -1.0182 -0.3995
28459SOL    HW288780   2.378   5.549   5.409 -0.5595  0.0621  0.6927
28460SOL     OW88781   0.063   8.798   9.898 -0.1853 -0.0571  0.4304
28460SOL    HW188782   0.143   8.850   9.893 -0.7026  0.9155  1.7916
28460SOL    HW288783   0.039   8.800   9.991 -3.1330  1.7589 -0.2543
28461SOL     OW88784   2.781   1.026  10.389 -0.1180  0.9060  0.1673
28461SOL    HW188785   2.863   1.060  10.426 -1.5892  1.6306  2.9808
28461SOL    HW288786   2.779   0.934  10.414  0.2023  0.6624 -0.6604
28462SOL     OW88787   2.245   3.624   4.557  0.5519  0.2025 -0.0716
28462SOL    HW188788   2.322   3.605   4.610 -0.7819 -0.8099  1.6158
28462SOL    HW288789   2.181   3.658   4.619 -0.6983  0.0810 -1.2482
28463SOL     OW88790   7.947   1.071   0.263  0.3812  0.1970  0.2761
28463SOL    HW188791   7.962   1.162   0.238  0.5279  0.6197  1.7821
28463SOL    HW288792   8.006   1.057   0.337 -0.0064 -0.9694  0.3812
28464SOL     OW88793   6.584  10.806  10.770  0.3029  0.2008  0.0760
28464SOL    HW188794   6.593  10.741  10.700  1.0769 -1.4658  1.6597
28464SOL    HW288795   6.532  10.876  10.730  0.3561 -0.8690 -2.0293
28465SOL     OW88796   4.789   8.422   8.349  0.2685  0.3866 -0.2170
28465SOL    HW188797   4.848   8.488   8.386 -0.5216  1.3993 -0.6913
28465SOL    HW288798   4.763   8.460   8.265  1.2884 -1.4187 -1.4109
28466SOL     OW88799   8.446  10.094   3.277 -0.5059  0.0643  0.7256
28466SOL    HW188800   8.374  10.032   3.263 -0.7927  0.6669 -0.5849
28466SOL    HW288801   8.476  10.075   3.366 -1.8204 -0.6784  1.0474
28467SOL     OW88802   3.063   1.964   0.923  0.0427 -0.1354 -0.0434
28467SOL    HW188803   3.128   1.983   0.990  2.6322 -1.4188 -2.0298
28467SOL    HW288804   3.002   1.903   0.965  0.2036  0.8994  1.7920
28468SOL     OW88805   5.574   0.754   0.032  0.0936  0.2914 -0.1289
28468SOL    HW188806   5.655   0.774   0.081  1.6431  0.2962 -2.5250
28468SOL    HW288807   5.569   0.658   0.032  0.2592  0.2822 -0.2078
28469SOL     OW88808   9.670   6.922   6.814 -0.1744 -0.3156  0.4721
28469SOL    HW188809   9.611   6.981   6.766  0.2933 -0.1886  0.0462
28469SOL    HW288810   9.741   6.978   6.844 -0.7832 -0.2614  1.9034
28470SOL     OW88811   6.266   7.236   3.576 -0.7456 -0.3481 -0.1574
28470SOL    HW188812   6.306   7.298   3.515  1.2692 -0.6672  0.7539
28470SOL    HW288813   6.254   7.156   3.525 -0.8084 -0.0486 -0.6172
28471SOL     OW88814   5.377   2.097   0.856 -0.4029 -0.5445 -0.6304
28471SOL    HW188815   5.467   2.120   0.878 -0.2387 -0.1924 -1.5890
28471SOL    HW288816   5.377   2.002   0.853  0.0329 -0.5395 -0.9558
28472SOL     OW88817   0.148   0.834   2.628 -0.1158  0.0434 -0.4292
28472SOL    HW188818   0.231   0.811   2.586 -0.1724  0.5711 -0.8508
28472SOL    HW288819   0.089   0.763   2.604 -0.1487  0.3385 -1.2679
28473SOL     OW88820   6.554   9.294   1.072  0.5892 -0.1756  0.1645
28473SOL    HW188821   6.630   9.331   1.028  0.2523 -2.4603 -2.6225
28473SOL    HW288822   6.498   9.262   1.001 -1.9933 -0.4794  2.1751
28474SOL     OW88823   8.703   0.167   2.476 -0.7263 -0.3364  0.1253
28474SOL    HW188824   8.702   0.198   2.386 -1.1044 -0.6610  0.0124
28474SOL    HW288825   8.639   0.095   2.478 -2.2598  0.9804  1.0995
28475SOL     OW88826   4.262  10.165   0.352  0.2559  0.2758  0.4328
28475SOL    HW188827   4.221  10.092   0.305  1.0116  0.1774 -0.0932
28475SOL    HW288828   4.336  10.126   0.398 -0.7341  0.2853  2.1135
28476SOL     OW88829  10.253   4.867   7.083 -0.4545  0.2286 -0.6588
28476SOL    HW188830  10.174   4.850   7.031  1.2077 -1.0568 -2.9456
28476SOL    HW288831  10.252   4.799   7.150 -0.4255 -0.9669 -1.8143
28477SOL     OW88832   5.343   6.386   0.096  0.2769  0.0222 -0.0515
28477SOL    HW188833   5.264   6.341   0.066 -0.0123  0.9339 -0.7121
28477SOL    HW288834   5.409   6.365   0.030  0.9960 -1.8358  1.1978
28478SOL     OW88835   7.384   2.423   8.923 -0.3971 -0.3672  0.1817
28478SOL    HW188836   7.332   2.462   8.852 -0.8840  0.3455  0.9093
28478SOL    HW288837   7.322   2.372   8.974 -0.2886  0.0528  0.7483
28479SOL     OW88838   3.865   4.404   9.559 -0.0044  0.1183  0.5631
28479SOL    HW188839   3.957   4.422   9.539 -0.1477  0.8095  0.4751
28479SOL    HW288840   3.859   4.309   9.564  0.6311  0.0540  0.1787
28480SOL     OW88841   8.330   9.883   1.071  0.1004  0.1022  0.4073
28480SOL    HW188842   8.386   9.953   1.036  1.4737 -0.6623  1.0262
28480SOL    HW288843   8.328   9.899   1.165  0.7801 -0.9360  0.6045
28481SOL     OW88844   2.959   1.258   3.917 -0.1614 -0.2477  0.2860
28481SOL    HW188845   2.982   1.351   3.917 -0.3352 -0.1532 -1.5995
28481SOL    HW288846   2.942   1.239   3.825  2.0003 -2.6737  0.2776
28482SOL     OW88847   4.264   3.705   1.085 -0.1314 -0.6269 -0.0436
28482SOL    HW188848   4.188   3.744   1.042  0.3821 -1.0967 -1.4174
28482SOL    HW288849   4.244   3.611   1.088  0.3483 -0.7422 -0.3365
28483SOL     OW88850   6.962   7.584   4.377 -0.0523 -0.0180  0.3277
28483SOL    HW188851   6.934   7.509   4.325 -0.6652 -0.2174  0.9375
28483SOL    HW288852   7.057   7.590   4.362 -0.1959 -0.1790 -0.6588
28484SOL     OW88853   5.376   9.813   7.436 -0.6818  0.6691  0.6821
28484SOL    HW188854   5.289   9.838   7.405 -0.9865 -0.9948  0.0713
28484SOL    HW288855   5.436   9.872   7.391 -1.5382  3.1091  2.5078
28485SOL     OW88856   4.178  10.159   6.199 -0.1535 -0.0664  0.1238
28485SOL    HW188857   4.131  10.195   6.124 -0.4493 -0.2785  0.2017
28485SOL    HW288858   4.228  10.232   6.234 -0.0317  0.0391 -0.2667
28486SOL     OW88859   0.973  10.861   9.147 -0.2201  0.0751 -0.2472
28486SOL    HW188860   1.061  10.898   9.138  0.5077 -1.2071  1.0589
28486SOL    HW288861   0.970  10.828   9.237 -2.4746  1.1102  0.1278
28487SOL     OW88862   2.267   4.171   7.717  0.5414 -0.0095 -0.0266
28487SOL    HW188863   2.230   4.259   7.710 -1.2165 -0.7982 -2.0303
28487SOL    HW288864   2.201   4.115   7.675  2.0281 -2.1528  0.3636
28488SOL     OW88865   0.158   5.756   4.664 -0.5835  0.0978  0.0393
28488SOL    HW188866   0.235   5.755   4.606 -0.4784 -0.1511  0.1792
28488SOL    HW288867   0.131   5.847   4.666 -0.7019  0.0814 -0.5539
28489SOL     OW88868   0.250   9.877   5.469 -0.5113  0.0461  0.3479
28489SOL    HW188869   0.231   9.783   5.466  1.5765 -0.3922 -0.7689
28489SOL    HW288870   0.163   9.918   5.467 -1.4533 -1.8376 -0.8729
28490SOL     OW88871   2.927   9.605   4.361  0.4348 -0.2693  0.1484
28490SOL    HW188872   2.979   9.610   4.441  0.7331 -1.7740  0.0684
28490SOL    HW288873   2.836   9.620   4.390  0.6355  0.0451  0.6248
28491SOL     OW88874   7.361   3.563   7.672 -0.7225 -0.2634 -0.3153
28491SOL    HW188875   7.348   3.478   7.713  1.9924 -0.5780  0.1188
28491SOL    HW288876   7.457   3.573   7.667 -0.9312  2.6885 -0.4922
28492SOL     OW88877   7.447   2.258   6.056  0.8526  0.6247  0.3545
28492SOL    HW188878   7.498   2.253   6.137  2.4438  0.7478 -0.5935
28492SOL    HW288879   7.513   2.274   5.988 -0.4545  0.5851 -0.9519
28493SOL     OW88880   5.125   9.922   6.066 -0.5807 -0.1368  0.1779
28493SOL    HW188881   5.031   9.941   6.070 -0.8532 -1.5661  1.2351
28493SOL    HW288882   5.131   9.828   6.079  0.9709 -0.1749 -0.6202
28494SOL     OW88883   4.514   1.077   1.772 -0.2376  0.1886 -0.6942
28494SOL    HW188884   4.475   1.164   1.763 -1.8701 -0.2462  1.1628
28494SOL    HW288885   4.473   1.042   1.852  1.5528 -1.6700 -0.5241
28495SOL     OW88886   3.012   4.043  10.631  0.2297 -0.0937  0.4794
28495SOL    HW188887   3.025   4.027  10.538 -1.1996 -2.2719  0.5805
28495SOL    HW288888   3.046   3.964  10.674  1.0197  0.9365  1.8404
28496SOL     OW88889   3.490   7.530   3.413 -0.1172 -0.2857  0.2648
28496SOL    HW188890   3.399   7.550   3.388  0.1794 -0.5810 -1.1206
28496SOL    HW288891   3.487   7.524   3.509 -1.2836  1.0460  0.3513
28497SOL     OW88892   9.827   5.659   8.639  0.2336 -0.1550 -0.0316
28497SOL    HW188893   9.781   5.604   8.703  0.3127 -1.0943 -0.7518
28497SOL    HW288894   9.772   5.655   8.561  0.5142  0.3741 -0.2594
28498SOL     OW88895   9.532   7.978  10.510 -0.5567  0.2745  0.2496
28498SOL    HW188896   9.548   7.987  10.604 -1.4694 -1.4996  0.6294
28498SOL    HW288897   9.618   7.963  10.472 -0.1994  0.8151  0.8203
28499SOL     OW88898   4.496   4.285   5.656 -0.0583  0.4228 -0.1137
28499SOL    HW188899   4.461   4.267   5.568 -0.3755  2.8749 -0.5743
28499SOL    HW288900   4.422   4.270   5.714 -0.5215  0.9332 -0.5494
28500SOL     OW88901   8.671   0.670   3.728  0.6585 -0.3891  0.2254
28500SOL    HW188902   8.581   0.701   3.715  0.3848 -0.6659  1.3183
28500SOL    HW288903   8.663   0.575   3.731  1.1730 -0.4761 -0.8581
28501SOL     OW88904   7.924   6.757   3.307 -0.3885 -0.4196  0.0106
28501SOL    HW188905   7.983   6.700   3.357  0.3597  0.9263  0.7229
28501SOL    HW288906   7.883   6.813   3.373 -0.6651  0.2607 -0.7220
28502SOL     OW88907   4.543   2.733   9.487 -0.7178  0.2756  0.1736
28502SOL    HW188908   4.552   2.639   9.477  0.6994  0.3932  0.0647
28502SOL    HW288909   4.590   2.754   9.567  0.5080  1.0783 -0.7135
28503SOL     OW88910  10.532   0.663   0.230 -0.2695  0.1975  0.3580
28503SOL    HW188911  10.508   0.748   0.192 -1.1143 -1.2182 -2.5622
28503SOL    HW288912  10.449   0.624   0.255 -0.3173 -1.1745 -1.7011
28504SOL     OW88913   5.985   4.157   1.292  0.8360  0.0632  0.3620
28504SOL    HW188914   6.030   4.240   1.309 -1.0892  1.5596 -1.3723
28504SOL    HW288915   5.936   4.140   1.372  0.3255  1.2726  0.3348
28505SOL     OW88916   6.734   2.151   1.503 -0.0453 -0.6304  0.1129
28505SOL    HW188917   6.818   2.156   1.457  1.7139  0.2787  3.0980
28505SOL    HW288918   6.756   2.170   1.594 -3.3731 -1.5131  1.2439
28506SOL     OW88919   1.250   3.422   5.826  0.1076 -0.7346  0.2231
28506SOL    HW188920   1.326   3.371   5.853  0.0527 -0.6683  0.5010
28506SOL    HW288921   1.234   3.395   5.735  1.6236  0.6325 -0.4843
28507SOL     OW88922   0.059   9.205  10.056  0.2607 -0.0973 -0.4029
28507SOL    HW188923   0.093   9.227   9.969 -0.2027  1.0269 -0.3112
28507SOL    HW288924   0.088   9.115  10.071 -1.1617 -0.9496 -2.4555
28508SOL     OW88925   8.064   1.359  10.568 -0.5215  0.0824  0.4810
28508SOL    HW188926   8.107   1.374  10.484  0.6616  1.7032  1.3292
28508SOL    HW288927   8.131   1.379  10.634 -1.4102 -1.1675  1.8402
28509SOL     OW88928   2.235   3.061   6.909  0.5133 -0.3783  0.0765
28509SOL    HW188929   2.162   3.110   6.946  0.7424 -0.9380  1.3202
28509SOL    HW288930   2.202   2.972   6.898  0.8015 -0.4792  0.0212
28510SOL     OW88931   6.405   7.771   4.754 -0.1131  0.3148 -0.2530
28510SOL    HW188932   6.494   7.737   4.742 -0.2907 -1.0305  1.8469
28510SOL    HW288933   6.348   7.695   4.742 -0.8291  0.7170  0.5327
28511SOL     OW88934   0.728   7.018   4.737  0.1067 -0.0584 -0.5317
28511SOL    HW188935   0.654   6.959   4.746 -0.3005  0.4012 -0.8263
28511SOL    HW288936   0.705   7.075   4.664  0.3149  0.7232 -0.0022
28512SOL     OW88937  10.119   5.434   0.874 -0.4899 -0.1545  0.4670
28512SOL    HW188938  10.055   5.504   0.875 -0.6201 -0.2834  1.4166
28512SOL    HW288939  10.080   5.367   0.818  0.2093  1.0311 -1.5506
28513SOL     OW88940   7.167   2.744   9.599  0.0811 -0.2824  0.2059
28513SOL    HW188941   7.130   2.710   9.681  1.2476 -0.8052  0.5326
28513SOL    HW288942   7.227   2.676   9.569  0.4714  0.3631 -0.5223
28514SOL     OW88943   3.897   6.479   4.284  0.3826 -0.3358  0.0234
28514SOL    HW188944   3.931   6.430   4.359  0.6342  3.1576  2.4758
28514SOL    HW288945   3.811   6.509   4.313 -0.3766 -0.4836 -1.9323
28515SOL     OW88946   5.797   9.917   3.777  0.0796 -0.4510 -0.2710
28515SOL    HW188947   5.760   9.985   3.833 -0.2222 -0.5759 -0.3154
28515SOL    HW288948   5.867   9.961   3.729  1.0270 -0.5924  0.9519
28516SOL     OW88949   2.499   5.202   0.419 -0.6592 -0.1396  0.7439
28516SOL    HW188950   2.433   5.239   0.478  0.4190  1.3244  1.0957
28516SOL    HW288951   2.485   5.246   0.336  1.2977  2.0257  1.4405
28517SOL     OW88952   8.744   4.649   4.601  0.0377  0.1590 -0.2456
28517SOL    HW188953   8.806   4.578   4.612  1.2523  1.2240  0.0420
28517SOL    HW288954   8.729   4.681   4.690  0.4267  1.0078 -0.4761
28518SOL     OW88955   6.074   9.292   9.879 -0.3776 -0.7773  0.2056
28518SOL    HW188956   6.132   9.368   9.887 -1.7095  0.2381  0.7545
28518SOL    HW288957   5.993   9.329   9.842 -1.5157 -1.6809  1.7031
28519SOL     OW88958   1.414   8.763   0.821  0.0613  0.3437  0.1241
28519SOL    HW188959   1.410   8.711   0.901 -1.5943 -0.5983 -0.5186
28519SOL    HW288960   1.327   8.804   0.815  0.0189  0.0694 -1.3860
28520SOL     OW88961   2.990   8.274   8.639  0.5286  0.6959 -0.4261
28520SOL    HW188962   3.063   8.225   8.602 -0.5763 -1.4071  0.0500
28520SOL    HW288963   3.012   8.284   8.732 -0.2312 -0.8717 -0.0544
28521SOL     OW88964   5.390   7.669   0.872 -0.4490  0.4707  0.3322
28521SOL    HW188965   5.334   7.591   0.872  0.3718 -0.1767  1.9831
28521SOL    HW288966   5.360   7.720   0.797  0.2187 -2.2868 -1.9681
28522SOL     OW88967   8.129   9.295   9.134  0.6380  0.5169  0.2150
28522SOL    HW188968   8.087   9.380   9.144  0.9953  0.8108 -0.6732
28522SOL    HW288969   8.221   9.310   9.155  1.1273  0.8434 -1.9028
28523SOL     OW88970   0.689   7.882   0.397 -0.2070 -0.4266  0.1904
28523SOL    HW188971   0.688   7.962   0.344  1.7083  0.5055  1.4122
28523SOL    HW288972   0.676   7.811   0.335 -1.2848  0.7915 -1.0272
28524SOL     OW88973   2.583  10.698   1.719  0.4542 -0.0896 -0.0514
28524SOL    HW188974   2.522  10.685   1.646  0.3685  2.2048 -0.4548
28524SOL    HW288975   2.527  10.715   1.794  0.5731  0.2712 -0.0434
28525SOL     OW88976   7.721   9.330   2.955  0.0506  0.2159 -0.2219
28525SOL    HW188977   7.652   9.299   3.013 -0.8604  0.2532 -1.2528
28525SOL    HW288978   7.694   9.419   2.931  0.5112  0.2715 -0.5479
28526SOL     OW88979   9.163   0.116   7.107  0.0925  0.0337  0.5970
28526SOL    HW188980   9.158   0.029   7.146  0.4960 -0.3234 -0.1117
28526SOL    HW288981   9.209   0.169   7.171  1.2999 -0.6934  0.3802
28527SOL     OW88982   2.221   1.828   0.865 -0.8254  0.2704 -0.6604
28527SOL    HW188983   2.237   1.879   0.944  0.3355 -1.6819  0.4688
28527SOL    HW288984   2.222   1.892   0.794 -0.4918  1.9124  0.7494
28528SOL     OW88985   1.991  10.753   7.473 -0.0933 -0.0733  0.7722
28528SOL    HW188986   2.046  10.785   7.402 -0.7845  0.3127  0.3998
28528SOL    HW288987   1.915  10.811   7.472 -0.1872 -0.1729  1.7178
28529SOL     OW88988   5.775   0.031   2.366  0.0898  0.1915  0.2256
28529SOL    HW188989   5.695  -0.009   2.332 -0.6176  0.8306  1.0711
28529SOL    HW288990   5.789  -0.011   2.451  0.1916  0.6494  0.4384
28530SOL     OW88991  10.646   3.372  10.643  0.0730 -0.3708 -0.4269
28530SOL    HW188992  10.712   3.313  10.607  0.4702 -0.0967 -0.1713
28530SOL    HW288993  10.681   3.396  10.730  1.3458  2.4177 -1.5744
28531SOL     OW88994   3.558   9.646   5.766 -0.1680  0.3077  0.1648
28531SOL    HW188995   3.649   9.672   5.781 -0.3121  0.1168  1.5672
28531SOL    HW288996   3.506   9.720   5.800 -0.5376 -0.0760  0.4510
28532SOL     OW88997   0.545   1.257   6.393 -0.2011  0.5195  0.1459
28532SOL    HW188998   0.451   1.270   6.378  0.0472  0.0134 -2.2736
28532SOL    HW288999   0.553   1.251   6.488 -3.0613 -2.4932  0.3745
28533SOL     OW89000   2.363   7.035   7.739  0.0917  0.0703 -0.2546
28533SOL    HW189001   2.448   7.022   7.782 -0.7113 -1.6547  0.9288
28533SOL    HW289002   2.381   7.097   7.668  2.8478 -2.1104 -1.6256
28534SOL     OW89003   8.594   4.491   5.973  0.0899  0.4764  0.3242
28534SOL    HW189004   8.646   4.411   5.980  1.1760  1.3005  2.7673
28534SOL    HW289005   8.514   4.472   6.021 -0.9443 -0.0406 -1.5272
28535SOL     OW89006   1.856   4.162   6.671  0.4257  0.1593 -0.0043
28535SOL    HW189007   1.906   4.194   6.745  0.5096  0.1118 -0.0403
28535SOL    HW289008   1.824   4.076   6.698  2.6589 -1.0581 -0.9844
28536SOL     OW89009  10.500  10.725   2.275 -0.0550  0.1274 -0.1206
28536SOL    HW189010  10.551  10.802   2.249  0.8709 -0.6031 -0.5260
28536SOL    HW289011  10.415  10.736   2.232 -0.0780  1.1186  0.1667
28537SOL     OW89012   0.840   7.326   5.532 -0.6953  0.1880 -0.0838
28537SOL    HW189013   0.756   7.297   5.494 -0.6556  0.0164 -0.0448
28537SOL    HW289014   0.876   7.246   5.571  0.3977 -0.1865 -1.7796
28538SOL     OW89015   3.127   6.066   8.818  0.2637  0.1627 -0.4067
28538SOL    HW189016   3.094   5.979   8.795  1.1420  0.3328 -2.5879
28538SOL    HW289017   3.179   6.052   8.897 -1.4835 -0.8431  0.6149
28539SOL     OW89018   9.824   6.035   0.560  0.3467 -0.0899 -0.4770
28539SOL    HW189019   9.855   6.015   0.471 -0.8153  2.7894 -1.6416
28539SOL    HW289020   9.809   6.130   0.559  2.0748  0.3808  3.4099
28540SOL     OW89021   3.282   6.493   2.331 -0.2305 -0.0379 -0.4792
28540SOL    HW189022   3.303   6.452   2.415  0.2255  0.7125 -0.2152
28540SOL    HW289023   3.228   6.428   2.286  0.4749 -0.9279 -0.0868
28541SOL     OW89024   7.950   5.053   2.999  0.0739 -0.2037 -0.2182
28541SOL    HW189025   8.005   5.079   3.073  0.4435 -1.5000 -0.0066
28541SOL    HW289026   8.009   5.005   2.941 -0.7944 -1.5229 -0.0478
28542SOL     OW89027   1.598   9.235   8.533 -0.1680  0.1692  0.0050
28542SOL    HW189028   1.663   9.203   8.470  0.0920 -0.2205  0.4636
28542SOL    HW289029   1.526   9.173   8.526  0.4578 -0.7252  1.1037
28543SOL     OW89030   0.867   3.256   9.155  0.2199  0.2342  0.3298
28543SOL    HW189031   0.885   3.163   9.168 -0.6529  0.0388  0.2206
28543SOL    HW289032   0.795   3.258   9.092  1.6506  1.0455 -1.3679
28544SOL     OW89033   5.221   1.391   0.052 -0.1921 -0.3164 -0.2897
28544SOL    HW189034   5.230   1.296   0.055  0.7987 -0.2223  0.3286
28544SOL    HW289035   5.132   1.406   0.021  0.1239 -1.4324 -1.8380
28545SOL     OW89036   4.528   7.900   1.438 -0.3701 -0.6216  0.1738
28545SOL    HW189037   4.468   7.938   1.503  0.2468  0.3849  0.1730
28545SOL    HW289038   4.615   7.918   1.473 -0.0343 -0.2421 -0.8354
28546SOL     OW89039   4.484   3.597   5.398  0.7436  0.2206  0.2247
28546SOL    HW189040   4.473   3.529   5.465  1.6624  1.0026  1.1793
28546SOL    HW289041   4.571   3.582   5.362  0.4147  0.0594 -0.5279
28547SOL     OW89042  10.132   3.380   4.805 -0.7043 -0.6311  0.0008
28547SOL    HW189043  10.208   3.438   4.801  1.4071 -3.2633 -1.3671
28547SOL    HW289044  10.110   3.363   4.713 -1.7393 -1.4111  0.3717
28548SOL     OW89045   2.902   1.469   0.083 -0.0690  0.5585 -0.4232
28548SOL    HW189046   2.936   1.416   0.010 -3.5366 -1.5212 -0.7719
28548SOL    HW289047   2.871   1.549   0.042 -1.2138 -0.2276 -1.1421
28549SOL     OW89048   4.219   0.176   1.959  0.1831 -0.4379 -1.2005
28549SOL    HW189049   4.302   0.223   1.969  0.6020 -1.2405 -0.7883
28549SOL    HW289050   4.166   0.232   1.904  0.0398  1.3564  0.6435
28550SOL     OW89051   1.033   0.375   9.844  0.1409  0.3640  1.1854
28550SOL    HW189052   1.018   0.439   9.775 -2.6230 -1.3557  0.0194
28550SOL    HW289053   0.987   0.296   9.814  1.7115 -1.5544  3.4433
28551SOL     OW89054   3.220  10.358   1.299  0.0825  0.5138  0.7179
28551SOL    HW189055   3.207  10.427   1.364  2.2647  2.9058 -1.1462
28551SOL    HW289056   3.178  10.391   1.220  0.7147 -0.5464 -0.0866
28552SOL     OW89057  10.627   5.491   1.259 -0.1562  0.6013  0.2492
28552SOL    HW189058  10.619   5.395   1.253  0.5697  0.5308  0.2792
28552SOL    HW289059  10.543   5.520   1.295 -0.2772 -0.0556  0.5182
28553SOL     OW89060   4.273   5.231   3.905 -0.2031  0.3387  0.1603
28553SOL    HW189061   4.291   5.147   3.946 -2.0432  0.5965  1.6317
28553SOL    HW289062   4.342   5.289   3.939  0.3587 -0.2811  0.0943
28554SOL     OW89063   4.934   2.251   6.240 -0.1382 -0.1940 -0.9229
28554SOL    HW189064   4.876   2.324   6.264 -0.9394 -1.1435  0.2005
28554SOL    HW289065   4.879   2.174   6.250  1.7415 -1.3274  1.9565
28555SOL     OW89066   6.109  10.799   2.517  0.2403 -0.2791  0.0501
28555SOL    HW189067   6.123  10.866   2.450  2.8531 -0.6228  0.1465
28555SOL    HW289068   6.089  10.720   2.467 -0.0050 -0.0462 -0.2235
28556SOL     OW89069   8.171   2.316   8.941 -0.1292 -0.1539 -0.3470
28556SOL    HW189070   8.104   2.250   8.961  0.2313 -0.2646  0.5295
28556SOL    HW289071   8.131   2.399   8.964  0.2373 -0.2701  0.7468
28557SOL     OW89072   5.932  10.676   9.025 -0.0392 -1.3201  0.4249
28557SOL    HW189073   5.972  10.590   9.016  1.9122 -0.3183 -1.6044
28557SOL    HW289074   5.851  10.660   9.074  0.9882 -4.0336  1.4267
28558SOL     OW89075   1.216   2.629  10.622  1.3096  0.0191  0.4652
28558SOL    HW189076   1.232   2.537  10.600  0.6979  0.1245 -0.4503
28558SOL    HW289077   1.121   2.635  10.636  1.0950  0.8300 -1.1116
28559SOL     OW89078   0.646   4.603   7.241 -0.0347  0.1064 -0.0717
28559SOL    HW189079   0.630   4.694   7.263  1.4218  0.1263  1.0003
28559SOL    HW289080   0.580   4.583   7.174 -1.0522  1.6182  0.4329
28560SOL     OW89081   4.892   9.654   0.247 -0.0556  0.4284  0.2642
28560SOL    HW189082   4.899   9.617   0.335 -0.1961 -0.7853 -0.2080
28560SOL    HW289083   4.982   9.659   0.215 -0.1496 -2.2573 -0.7112
28561SOL     OW89084   8.582   3.136  10.501  0.6245  0.4480 -0.1888
28561SOL    HW189085   8.602   3.106  10.412 -0.7763  1.3889 -0.8447
28561SOL    HW289086   8.653   3.100  10.554  0.7736 -1.2580 -1.4557
28562SOL     OW89087   4.737   0.684   9.821  0.4006 -0.0126  0.2027
28562SOL    HW189088   4.741   0.776   9.848  2.1778 -0.0143  0.0951
28562SOL    HW289089   4.786   0.681   9.739 -0.1220 -0.9697 -0.0874
28563SOL     OW89090   7.136   2.513   8.469  0.0673  0.4407  0.0927
28563SOL    HW189091   7.227   2.486   8.459  0.0873 -0.9762  2.9034
28563SOL    HW289092   7.133   2.602   8.434  3.0150  1.2250  1.4996
28564SOL     OW89093   1.882   6.859   6.628  0.1870  0.0352 -0.6277
28564SOL    HW189094   1.855   6.768   6.617  1.2618 -0.6118  1.4447
28564SOL    HW289095   1.834   6.889   6.705  0.5599  0.9070 -0.7227
28565SOL     OW89096   2.978   1.145   0.686 -0.7316 -0.3609 -0.1654
28565SOL    HW189097   3.047   1.088   0.721  0.4897  0.2146 -1.5160
28565SOL    HW289098   2.919   1.158   0.759  0.1817 -1.5019  0.8335
28566SOL     OW89099   2.585   8.011   9.492  0.2953  0.3682  0.9904
28566SOL    HW189100   2.622   7.952   9.557  0.2746  0.0736  0.7361
28566SOL    HW289101   2.611   8.098   9.521  0.7738  0.1986  1.0798
28567SOL     OW89102   2.299   4.462   4.743 -0.0425  0.9014  0.4929
28567SOL    HW189103   2.365   4.519   4.703 -1.0385  1.0088 -1.1011
28567SOL    HW289104   2.319   4.463   4.836  1.9815  1.1949  0.0928
28568SOL     OW89105   8.622   6.489   5.610  0.0563  0.4540 -0.3061
28568SOL    HW189106   8.530   6.471   5.594 -0.3491  0.7681  1.4337
28568SOL    HW289107   8.668   6.410   5.580 -0.7920  0.2469 -1.0688
28569SOL     OW89108   9.455   5.274   7.427  0.6710  0.0709 -0.3125
28569SOL    HW189109   9.498   5.224   7.357 -0.7112 -0.4659 -0.8046
28569SOL    HW289110   9.479   5.365   7.409  1.7034 -0.2228 -0.4867
28570SOL     OW89111   1.044   5.031  10.773  0.0837 -0.3370 -0.4281
28570SOL    HW189112   1.097   4.984  10.838  0.2565 -0.0015 -0.3271
28570SOL    HW289113   1.078   5.002  10.689 -0.0147 -0.6274 -0.3714
28571SOL     OW89114   3.556   5.164   6.497  0.2811  0.2807 -0.2304
28571SOL    HW189115   3.500   5.221   6.445  0.0073  0.9730  0.8117
28571SOL    HW289116   3.592   5.221   6.565  1.9149 -0.2388 -0.6130
28572SOL     OW89117   3.741   3.603  10.119 -0.5355 -0.3673  0.2535
28572SOL    HW189118   3.718   3.520  10.161 -0.2917 -0.6558 -0.1675
28572SOL    HW289119   3.762   3.579  10.029  1.4645 -0.1630  0.6009
28573SOL     OW89120   4.623   4.119   9.058 -0.3982 -0.2210  0.0055
28573SOL    HW189121   4.551   4.060   9.081 -0.3771 -0.4767 -0.5588
28573SOL    HW289122   4.685   4.063   9.011  0.1971 -0.0123  0.5423
28574SOL     OW89123   8.202   3.565  10.498 -0.1523 -0.2113 -0.6080
28574SOL    HW189124   8.111   3.551  10.472  0.2904 -1.8628 -1.4016
28574SOL    HW289125   8.229   3.643  10.451 -0.8214 -0.3819 -1.2858
28575SOL     OW89126   2.907   8.102   7.065 -0.2025  0.8017 -0.3505
28575SOL    HW189127   2.886   8.118   7.157  0.9833 -1.0776  0.3104
28575SOL    HW289128   2.871   8.177   7.019 -0.9353  1.7419  1.6285
28576SOL     OW89129   0.529  10.529  10.188  0.6945 -1.1386 -0.3266
28576SOL    HW189130   0.571  10.509  10.104 -1.9788 -1.3758 -1.7374
28576SOL    HW289131   0.478  10.609  10.171  0.4486 -0.9444  1.1972
28577SOL     OW89132   8.110   5.957   8.484 -0.5672  0.3637 -0.7524
28577SOL    HW189133   8.119   5.889   8.551  0.1896  0.0890 -1.1262
28577SOL    HW289134   8.184   6.015   8.498 -1.5463  1.4932 -0.0390
28578SOL     OW89135   8.100   5.288   4.928 -0.4784  0.4545  0.2600
28578SOL    HW189136   8.167   5.323   4.986 -0.8948  2.1056 -0.2064
28578SOL    HW289137   8.093   5.353   4.857 -2.3943  0.2193  0.1775
28579SOL     OW89138   6.583   4.328   9.882 -0.1794 -0.0941  0.3889
28579SOL    HW189139   6.581   4.244   9.927 -1.6356 -0.9579 -1.1928
28579SOL    HW289140   6.492   4.346   9.860  0.1928  1.5539  0.0383
28580SOL     OW89141   9.852   0.787   3.347  0.0249  0.1108  0.3376
28580SOL    HW189142   9.928   0.825   3.303  0.0807  0.0246  0.3596
28580SOL    HW289143   9.826   0.853   3.411  0.3646 -0.0494  0.6485
28581SOL     OW89144   2.334   9.915   8.766  0.4143  0.0370  0.2433
28581SOL    HW189145   2.322   9.970   8.843  0.9065  0.9388 -0.2968
28581SOL    HW289146   2.276   9.952   8.700  0.2604 -0.5027  0.0706
28582SOL     OW89147   9.613  10.438   1.291  0.6286 -0.1207  0.0848
28582SOL    HW189148   9.633  10.496   1.364  1.7686  0.7697 -0.8745
28582SOL    HW289149   9.656  10.356   1.313  5.7138  1.6381 -1.7790
28583SOL     OW89150   4.668   1.007   5.736  0.8615 -0.2623  0.1255
28583SOL    HW189151   4.724   0.961   5.672  0.4381  0.5183 -0.8319
28583SOL    HW289152   4.685   0.962   5.819  1.8385 -0.9561 -0.4242
28584SOL     OW89153   5.072  10.361   2.066  0.1142  0.1765  0.2527
28584SOL    HW189154   5.006  10.430   2.072  0.7586  0.9708 -1.3167
28584SOL    HW289155   5.021  10.280   2.055 -0.6084  0.7782 -1.0018
28585SOL     OW89156   5.226   4.331   4.866  0.3629  0.8261  0.0382
28585SOL    HW189157   5.183   4.334   4.951 -0.8181  1.2370 -0.5543
28585SOL    HW289158   5.158   4.357   4.803  0.9498 -0.3521 -1.1319
28586SOL     OW89159   4.050   2.627   7.771 -0.0314 -0.3388  0.3209
28586SOL    HW189160   4.045   2.698   7.707  1.5274  0.1547  0.6957
28586SOL    HW289161   3.977   2.570   7.749 -0.1530  0.3557 -1.2421
28587SOL     OW89162   9.714   5.406   0.939  0.0385  0.4531 -0.1339
28587SOL    HW189163   9.628   5.401   0.981  0.2127 -0.1807  0.1615
28587SOL    HW289164   9.769   5.346   0.990  0.1637 -0.6314 -1.4797
28588SOL     OW89165   1.792   1.154   3.670 -0.1469 -0.1389 -0.2744
28588SOL    HW189166   1.829   1.147   3.758 -1.6289  0.3309  0.4096
28588SOL    HW289167   1.740   1.074   3.660 -0.2509 -0.0317 -0.5906
28589SOL     OW89168   7.929   4.383   9.287 -0.3835 -0.7031 -0.5682
28589SOL    HW189169   7.975   4.360   9.368 -2.3089  0.0245  0.8195
28589SOL    HW289170   7.842   4.347   9.298 -1.4383  1.4640 -1.2228
28590SOL     OW89171   8.088   6.329   9.307 -0.0277  0.1444  0.0169
28590SOL    HW189172   8.121   6.309   9.219 -1.2006 -0.8253 -0.2331
28590SOL    HW289173   8.100   6.423   9.316  1.7891 -0.0016 -0.4610
28591SOL     OW89174   0.960   4.836   9.097 -0.3034 -0.1049  0.1194
28591SOL    HW189175   0.925   4.829   9.186 -1.1476 -1.1405 -0.2623
28591SOL    HW289176   1.042   4.788   9.100  0.0679  0.5540  0.5308
28592SOL     OW89177   8.142   2.447   8.262 -0.7560  0.5131  0.0997
28592SOL    HW189178   8.109   2.496   8.338 -0.5397 -1.0056  1.2196
28592SOL    HW289179   8.064   2.428   8.210 -0.7038  3.1777 -1.1295
28593SOL     OW89180   1.066   4.535   4.485  0.3066 -0.3753  0.3836
28593SOL    HW189181   1.116   4.606   4.446  0.0918 -1.4737 -2.0122
28593SOL    HW289182   0.975   4.567   4.485  0.2013 -0.6534 -0.7478
28594SOL     OW89183   7.597  10.059   0.387 -0.2478 -0.0718  0.0099
28594SOL    HW189184   7.586  10.021   0.474  0.1823 -0.4004 -0.0761
28594SOL    HW289185   7.690  10.080   0.382 -0.3353  0.2554 -0.2459
28595SOL     OW89186   1.152   6.593   7.980  0.0113 -0.1809  0.1017
28595SOL    HW189187   1.105   6.515   8.011 -0.4900  0.1026  0.0500
28595SOL    HW289188   1.244   6.573   7.997 -0.2624  0.1489  2.2143
28596SOL     OW89189   8.028   0.640   6.120  0.0562  0.0987  0.4735
28596SOL    HW189190   7.947   0.670   6.161 -1.0188 -2.4659  0.3567
28596SOL    HW289191   8.097   0.678   6.175 -1.2867 -1.4117  3.4713
28597SOL     OW89192   3.602   0.700   4.558  0.3877 -0.2662  0.1385
28597SOL    HW189193   3.529   0.654   4.600 -0.1750  1.2167  0.8516
28597SOL    HW289194   3.562   0.749   4.486  0.4534  1.3862  1.1730
28598SOL     OW89195   2.049   8.464   6.981 -0.5152  0.1001 -0.1739
28598SOL    HW189196   1.995   8.522   6.927  0.6631  1.0891 -0.3197
28598SOL    HW289197   2.012   8.471   7.069 -3.4679 -2.7215 -1.0043
28599SOL     OW89198   2.639   0.373   1.176 -0.0507 -0.7655 -0.2302
28599SOL    HW189199   2.627   0.466   1.193  0.0516 -0.2463 -2.6295
28599SOL    HW289200   2.567   0.330   1.223 -1.8458  0.8139 -1.4103
28600SOL     OW89201   4.448   6.273   2.064  0.4234  0.1185 -0.6348
28600SOL    HW189202   4.364   6.317   2.079  0.8165  0.8115 -0.4071
28600SOL    HW289203   4.479   6.249   2.151  0.7064  0.3308 -0.6761
28601SOL     OW89204   5.721   0.625   1.144  0.0783 -0.0259 -0.2674
28601SOL    HW189205   5.695   0.708   1.104  0.1975 -0.4722 -1.3096
28601SOL    HW289206   5.644   0.596   1.193 -0.8491 -0.5016 -1.9218
28602SOL     OW89207  10.551   1.692   5.063  0.5790 -0.4651  0.0069
28602SOL    HW189208  10.540   1.597   5.058 -1.3756 -0.3356  0.8968
28602SOL    HW289209  10.462   1.725   5.075  1.2441  1.4760 -0.1707
28603SOL     OW89210   2.454   2.822   2.314  0.7411 -0.1435 -0.5828
28603SOL    HW189211   2.370   2.782   2.291  0.7418  0.1959 -1.2112
28603SOL    HW289212   2.487   2.857   2.231  1.8323 -0.8713 -0.4836
28604SOL     OW89213   9.376   8.811   8.168  0.3554  0.9636 -0.5061
28604SOL    HW189214   9.362   8.722   8.136 -0.0068  0.7935  0.1062
28604SOL    HW289215   9.289   8.840   8.195  0.7285  0.9239  0.7753
28605SOL     OW89216   9.234  10.313   4.475  0.0736  0.5100  0.0121
28605SOL    HW189217   9.187  10.287   4.396 -1.7261  0.4787  1.0342
28605SOL    HW289218   9.299  10.377   4.444 -1.0908  1.0729 -1.3939
28606SOL     OW89219   8.508   7.197   7.745  0.2671  0.3401 -0.8054
28606SOL    HW189220   8.483   7.196   7.837  0.9100 -0.2236 -0.6243
28606SOL    HW289221   8.594   7.155   7.743 -0.2911 -0.8282 -1.8228
28607SOL     OW89222   8.169   6.777   7.585 -0.6245  0.0634  0.1916
28607SOL    HW189223   8.257   6.816   7.589 -0.9020  0.9239 -1.4497
28607SOL    HW289224   8.155   6.741   7.673  1.4286 -0.2426  0.4396
28608SOL     OW89225   3.603   7.662   3.901  0.1954  0.8396  0.1379
28608SOL    HW189226   3.601   7.567   3.892  0.8457  0.8125  0.2016
28608SOL    HW289227   3.560   7.695   3.822 -0.4396  0.4892  0.3303
28609SOL     OW89228  10.642   1.817   3.560 -0.2585  0.2644  0.0424
28609SOL    HW189229  10.728   1.835   3.521  1.1583 -0.2839  2.7325
28609SOL    HW289230  10.581   1.861   3.501  1.5521 -1.3864 -3.3838
28610SOL     OW89231   3.889   8.646   9.594 -0.0069  0.2513  0.0881
28610SOL    HW189232   3.913   8.555   9.578 -1.2272 -0.9429  3.8089
28610SOL    HW289233   3.799   8.653   9.561 -0.3641 -0.3472  0.8766
28611SOL     OW89234   6.531   1.011   0.314  0.0388  0.5321  0.0731
28611SOL    HW189235   6.627   1.017   0.313  0.1430 -0.8878 -1.2067
28611SOL    HW289236   6.511   0.959   0.392  0.4331 -0.6252 -0.5807
28612SOL     OW89237   1.907   6.581   1.345  0.3563 -0.5788  0.1908
28612SOL    HW189238   1.962   6.617   1.415 -0.8275  1.0476  0.3459
28612SOL    HW289239   1.898   6.653   1.283 -0.0167 -1.4510 -0.7891
28613SOL     OW89240   1.305   8.413   2.267 -0.1130 -0.2804  0.1919
28613SOL    HW189241   1.267   8.500   2.284 -0.2289  0.1259 -1.9509
28613SOL    HW289242   1.230   8.359   2.244  0.3582  0.2017 -2.7866
28614SOL     OW89243   0.377   9.611   2.697  0.2259 -0.0379  0.0069
28614SOL    HW189244   0.472   9.596   2.699  0.2228  0.0331  0.9914
28614SOL    HW289245   0.339   9.536   2.742 -0.2908 -0.6683 -1.4016
28615SOL     OW89246   1.631   9.109   1.809 -0.6023  0.6329 -0.3847
28615SOL    HW189247   1.555   9.102   1.750 -0.0003  0.1599 -1.1285
28615SOL    HW289248   1.620   9.036   1.870 -1.0931  0.9706 -0.0573
28616SOL     OW89249   1.994   2.723   7.536 -0.1054 -0.1185  0.4535
28616SOL    HW189250   1.901   2.704   7.529 -0.4692  1.7744 -0.2777
28616SOL    HW289251   2.037   2.638   7.522 -1.6505 -0.6716 -1.2411
28617SOL     OW89252   5.865  10.816   1.277  0.0598 -0.2912  0.1984
28617SOL    HW189253   5.929  10.789   1.211  1.9989 -0.0415  1.8496
28617SOL    HW289254   5.813  10.737   1.294  0.0795 -0.5820 -1.0013
28618SOL     OW89255   9.346   8.306   4.177 -0.2721  0.2109  0.0304
28618SOL    HW189256   9.322   8.322   4.086  0.7671 -1.3418 -0.5750
28618SOL    HW289257   9.313   8.382   4.225 -2.3714  0.2505 -1.3514
28619SOL     OW89258   8.830   7.710   1.097  0.3669 -0.2004  0.6130
28619SOL    HW189259   8.866   7.750   1.018  0.6047 -1.7448 -0.0902
28619SOL    HW289260   8.871   7.624   1.102  0.5711 -0.0451  2.5928
28620SOL     OW89261   3.747   9.310   9.435 -0.3045  0.2384  0.2986
28620SOL    HW189262   3.672   9.338   9.486 -0.3465 -1.1157  1.0326
28620SOL    HW289263   3.710   9.278   9.353 -0.4944  0.0822  0.4420
28621SOL     OW89264   3.931   0.725   3.240  0.0352 -0.0739  0.1111
28621SOL    HW189265   3.962   0.735   3.330  0.5494  1.3628 -0.1932
28621SOL    HW289266   3.895   0.811   3.217  0.6298 -0.1579 -1.2974
28622SOL     OW89267   3.009   4.685   0.300  0.1504  1.0144 -0.2835
28622SOL    HW189268   2.931   4.667   0.353  0.4060 -0.6575 -0.4019
28622SOL    HW289269   3.076   4.626   0.335  1.1665  1.9331 -0.6315
28623SOL     OW89270   9.928   4.616   2.598 -0.3089  0.4311 -0.5362
28623SOL    HW189271  10.011   4.662   2.592 -0.0470  0.0733  0.2707
28623SOL    HW289272   9.898   4.631   2.688 -1.1056  0.5295 -0.8025
28624SOL     OW89273   6.684   8.540  10.730  0.2325 -0.3136 -0.0374
28624SOL    HW189274   6.676   8.461  10.677 -0.7345  0.4319 -1.0485
28624SOL    HW289275   6.779   8.557  10.734  0.3595 -0.7492 -0.9953
28625SOL     OW89276   0.683   8.318   5.418 -0.3098 -0.2473  0.2328
28625SOL    HW189277   0.746   8.378   5.378  0.0340 -0.7099  0.0793
28625SOL    HW289278   0.658   8.361   5.500 -0.5353  0.4012 -0.1633
28626SOL     OW89279   9.574   5.453   3.102  0.0371 -0.9091 -0.0362
28626SOL    HW189280   9.510   5.407   3.156 -0.1938  1.4476  1.8792
28626SOL    HW289281   9.524   5.523   3.059  1.1292  0.5343  0.9416
28627SOL     OW89282   0.441   0.220   7.191 -0.6151 -0.3744 -0.8839
28627SOL    HW189283   0.366   0.263   7.151 -0.1042  1.7092  0.2808
28627SOL    HW289284   0.409   0.192   7.276  0.3512  2.3081  0.4706
28628SOL     OW89285   2.982   4.762   8.578 -0.4942  0.6980 -0.1104
28628SOL    HW189286   2.902   4.794   8.538  0.0286  0.2819 -1.5628
28628SOL    HW289287   3.053   4.798   8.524  0.1430 -2.3652 -1.5845
28629SOL     OW89288   1.809   0.951   7.022 -0.1107 -0.4446  0.3551
28629SOL    HW189289   1.783   0.880   7.080  1.7448 -0.3922  1.3367
28629SOL    HW289290   1.766   1.029   7.058  0.3926 -0.5501  1.2022
28630SOL     OW89291   4.202   9.056   9.898 -0.0926  0.4905  0.4389
28630SOL    HW189292   4.168   8.969   9.878 -0.9416  1.2316 -1.6650
28630SOL    HW289293   4.129   9.115   9.879  1.1479  1.8249 -0.3914
28631SOL     OW89294   8.733   5.157   1.636 -0.2723 -0.3166  0.1651
28631SOL    HW189295   8.706   5.098   1.706  0.3818 -1.4109 -0.4845
28631SOL    HW289296   8.827   5.145   1.629 -0.4255 -0.8064 -1.4101
28632SOL     OW89297   5.347   0.193   8.439  0.0734 -0.0110  0.0965
28632SOL    HW189298   5.399   0.272   8.430 -1.3649  0.8174 -1.4961
28632SOL    HW289299   5.260   0.224   8.466 -0.1854 -1.1603  0.6833
28633SOL     OW89300   3.757   0.211   9.955 -0.1383 -0.0548 -0.1717
28633SOL    HW189301   3.718   0.277  10.012 -1.4831  0.0125 -1.1215
28633SOL    HW289302   3.767   0.134  10.010  0.9716  0.7633  0.8152
28634SOL     OW89303   1.401   7.428   3.885  0.1772  0.0763 -0.3524
28634SOL    HW189304   1.348   7.347   3.887  1.8897 -1.1377 -1.6423
28634SOL    HW289305   1.378   7.472   3.967  0.7706 -2.7990  1.5191
28635SOL     OW89306   9.463   6.808   5.365 -0.3207 -0.0281 -0.0275
28635SOL    HW189307   9.398   6.847   5.424 -0.5023  0.2113 -0.3776
28635SOL    HW289308   9.436   6.716   5.358 -0.7035  0.0979 -0.2711
28636SOL     OW89309   5.595   9.914   4.052  0.3202  0.0650  0.5499
28636SOL    HW189310   5.655   9.915   4.127 -1.0751  0.7006  1.7144
28636SOL    HW289311   5.568   9.823   4.044  0.3952  0.0110  0.8907
28637SOL     OW89312   8.927   7.506   4.669  0.1279  0.3035  0.0053
28637SOL    HW189313   8.846   7.546   4.638  0.9750  1.0031 -1.4413
28637SOL    HW289314   8.901   7.420   4.702 -1.2423  0.6691 -0.0752
28638SOL     OW89315   7.297   7.883   8.854  0.4033 -0.3087  0.0254
28638SOL    HW189316   7.279   7.894   8.947 -0.2048 -3.1696  0.3342
28638SOL    HW289317   7.387   7.851   8.850 -0.1771 -2.0103 -0.1667
28639SOL     OW89318   2.119   1.281   5.012 -0.5028 -0.0683 -0.2956
28639SOL    HW189319   2.077   1.366   5.001 -0.7586 -0.2766 -0.9823
28639SOL    HW289320   2.104   1.258   5.103  0.6737  1.1977  0.2510
28640SOL     OW89321   9.610   6.314   8.612 -0.6150  0.2265  0.1074
28640SOL    HW189322   9.667   6.337   8.685  1.1158  0.6327 -1.3082
28640SOL    HW289323   9.548   6.386   8.606  0.5891  1.2638 -0.1519
28641SOL     OW89324   4.293   1.856   8.406  0.0232 -0.0391  0.2682
28641SOL    HW189325   4.282   1.807   8.324  2.4527 -0.7980  0.2875
28641SOL    HW289326   4.346   1.797   8.460 -2.5773 -0.1038  2.9364
28642SOL     OW89327   6.924  10.740   0.721 -0.2172  0.3815  0.2884
28642SOL    HW189328   6.880  10.806   0.775  1.6556  1.4596  0.5689
28642SOL    HW289329   6.853  10.682   0.694 -2.1370  2.9668 -0.6981
28643SOL     OW89330   6.163   0.878   8.778  0.5788 -0.4308 -0.1925
28643SOL    HW189331   6.116   0.881   8.862  3.5609 -2.9014  1.7857
28643SOL    HW289332   6.121   0.807   8.729 -1.2400  1.0855 -0.9533
28644SOL     OW89333   4.356   8.904   3.304  0.1749 -0.4471  0.2093
28644SOL    HW189334   4.319   8.977   3.354  0.0564  1.2642 -2.1911
28644SOL    HW289335   4.450   8.923   3.300 -0.0577  0.5753 -1.7888
28645SOL     OW89336   3.444   9.634   7.464  0.0173 -0.2140 -0.2081
28645SOL    HW189337   3.365   9.689   7.465  1.2051  1.5972 -0.3722
28645SOL    HW289338   3.493   9.665   7.388  0.7220 -1.5765 -0.3295
28646SOL     OW89339   8.376   0.392   4.892  0.0366 -0.2396  0.6142
28646SOL    HW189340   8.325   0.349   4.823  1.4335 -1.8127  0.5008
28646SOL    HW289341   8.323   0.381   4.971 -0.5852 -0.3341  0.1942
28647SOL     OW89342   2.180   8.216   6.945 -0.0051 -0.2533  0.2609
28647SOL    HW189343   2.146   8.304   6.962  0.6267 -0.2658  1.7444
28647SOL    HW289344   2.106   8.158   6.959  0.2382 -0.1672  2.1265
28648SOL     OW89345   1.435   3.433   0.253 -0.4560  0.0328  0.0257
28648SOL    HW189346   1.343   3.427   0.279 -0.7177 -0.2632 -0.9206
28648SOL    HW289347   1.453   3.527   0.251 -1.5996  0.2972 -2.4969
28649SOL     OW89348   3.869  10.437   2.811  0.3620  0.1730  0.3920
28649SOL    HW189349   3.851  10.453   2.719 -1.4720  1.1024  0.8754
28649SOL    HW289350   3.915  10.516   2.841  0.8259 -0.0644  0.3059
28650SOL     OW89351   0.636  10.720   0.447  0.5350 -0.0123  0.3508
28650SOL    HW189352   0.620  10.631   0.479 -0.1176  0.4018  1.2536
28650SOL    HW289353   0.565  10.771   0.485  0.9198  0.8991 -0.1333
28651SOL     OW89354   5.842   2.755   0.830  0.1907  0.2242  0.0048
28651SOL    HW189355   5.901   2.692   0.788 -0.8389 -0.4014 -0.5553
28651SOL    HW289356   5.755   2.714   0.824 -0.5007  1.6715 -0.3282
28652SOL     OW89357   7.396   4.337   3.123  0.9776 -0.6238 -0.2485
28652SOL    HW189358   7.490   4.317   3.120  1.1056 -0.0171 -0.3791
28652SOL    HW289359   7.370   4.318   3.213  1.0069 -1.7412 -0.4587
28653SOL     OW89360   6.803   0.188   1.134 -0.5633 -0.3841  0.4224
28653SOL    HW189361   6.779   0.188   1.226 -0.3953 -3.6030  0.5813
28653SOL    HW289362   6.720   0.202   1.088 -1.4087 -2.6987  1.0901
28654SOL     OW89363  10.736   6.806  10.144  0.5742  0.4997 -0.3458
28654SOL    HW189364  10.743   6.839  10.234  0.3950  2.3544 -0.9683
28654SOL    HW289365  10.826   6.801  10.112  0.6696 -0.5454  0.0318
28655SOL     OW89366  10.079   0.899   5.858  0.2329 -0.6256 -0.5043
28655SOL    HW189367  10.148   0.958   5.887 -3.2849  2.9927  1.5373
28655SOL    HW289368  10.058   0.847   5.936 -0.8060 -0.0702 -0.4026
28656SOL     OW89369   0.773   4.027   3.330 -0.1543 -0.2117 -0.3121
28656SOL    HW189370   0.838   3.957   3.321 -0.6782 -0.8167  0.4365
28656SOL    HW289371   0.702   4.001   3.272 -0.3233 -0.2754 -0.0786
28657SOL     OW89372   8.327   0.995   5.846 -0.3261  0.1339 -0.0009
28657SOL    HW189373   8.405   1.004   5.792  0.8575 -1.2142  1.3867
28657SOL    HW289374   8.354   1.027   5.933 -1.0963 -0.8856  0.6432
28658SOL     OW89375   8.718   1.771   9.178 -0.0651 -0.2973 -0.0717
28658SOL    HW189376   8.707   1.791   9.085  0.8937  1.6883  0.1769
28658SOL    HW289377   8.802   1.724   9.183 -1.4928 -3.1000 -0.4621
28659SOL     OW89378   0.778   2.117  10.828 -0.0388  0.5080 -0.1062
28659SOL    HW189379   0.699   2.095  10.778  0.3460  0.5078 -0.7330
28659SOL    HW289380   0.833   2.166  10.766  0.4234  0.5629  0.3383
28660SOL     OW89381   1.318  10.132  10.021  0.6032  0.5373 -0.4052
28660SOL    HW189382   1.315  10.198   9.952  0.8465  1.4686  0.4349
28660SOL    HW289383   1.245  10.155  10.079 -0.4435 -1.0513 -1.0502
28661SOL     OW89384   0.455   9.127   4.944  0.2265  0.5679  0.3925
28661SOL    HW189385   0.436   9.133   4.850 -3.1170 -0.0702  0.8972
28661SOL    HW289386   0.450   9.217   4.975  1.1970  0.7633  0.0207
28662SOL     OW89387   5.949  10.720   9.839 -0.0986 -0.2104  0.0051
28662SOL    HW189388   5.997  10.799   9.814 -1.0213  0.3018 -0.1998
28662SOL    HW289389   5.987  10.650   9.787  0.8782  0.0529  0.3468
28663SOL     OW89390   1.413   3.982   6.947 -0.3242 -0.5381  0.2589
28663SOL    HW189391   1.401   4.016   7.036  0.4321  0.1946  0.0837
28663SOL    HW289392   1.349   4.030   6.894 -1.6744 -1.8634  0.5893
28664SOL     OW89393   4.544   6.589   9.060  0.6873  0.1877 -0.1705
28664SOL    HW189394   4.634   6.610   9.037 -0.0520  0.9700 -2.6207
28664SOL    HW289395   4.517   6.525   8.995 -0.8994  0.9180 -0.2767
28665SOL     OW89396   6.045   6.931  10.033  0.0516 -0.5938  0.0419
28665SOL    HW189397   6.013   6.994  10.098 -2.0570 -2.4132  0.8940
28665SOL    HW289398   6.114   6.883  10.078  0.1117 -0.4012  0.1588
28666SOL     OW89399   5.549   2.426   2.860  0.3711 -0.0343  0.2112
28666SOL    HW189400   5.609   2.439   2.787  1.8335  0.1138  1.4056
28666SOL    HW289401   5.538   2.331   2.866 -1.4519 -0.0056 -1.4784
28667SOL     OW89402   4.891   1.368   3.111 -0.4739  0.1290  0.4167
28667SOL    HW189403   4.806   1.337   3.080  1.1784 -2.8456 -1.6785
28667SOL    HW289404   4.919   1.301   3.174  0.0117  1.5016  1.7101
28668SOL     OW89405   4.497  10.697   0.673  0.0198  0.2073 -0.4839
28668SOL    HW189406   4.578  10.697   0.622 -0.4411 -0.4796 -1.2498
28668SOL    HW289407   4.476  10.604   0.683 -0.0412  0.3352  0.7584
28669SOL     OW89408   9.200   2.124  10.026  0.6094 -0.1443  0.6709
28669SOL    HW189409   9.252   2.095   9.950  0.2291 -0.0850  0.3822
28669SOL    HW289410   9.264   2.162  10.086  0.8769  0.1032  0.2349
28670SOL     OW89411   7.029   6.124   0.121 -0.5785  0.6878  0.1443
28670SOL    HW189412   6.995   6.058   0.182 -2.0049  1.5108  0.2965
28670SOL    HW289413   7.077   6.074   0.055 -0.8654 -0.4121  0.7448
28671SOL     OW89414   8.371   8.422   4.651 -1.0254  0.1121 -0.7462
28671SOL    HW189415   8.293   8.368   4.638 -0.2397 -0.9262 -1.2234
28671SOL    HW289416   8.415   8.384   4.727 -0.3513 -0.0735 -1.2183
28672SOL     OW89417   2.882   3.176   9.919  0.4988  0.0288  0.4211
28672SOL    HW189418   2.931   3.097   9.942 -0.4679 -0.9684 -0.8727
28672SOL    HW289419   2.816   3.184   9.988  0.0993 -0.7398  0.1303
28673SOL     OW89420  10.759   4.970   8.715  0.5744  0.2744 -0.9314
28673SOL    HW189421  10.808   4.906   8.662  0.8104  0.9448 -1.5443
28673SOL    HW289422  10.711   5.022   8.651  1.9612  2.0243 -0.6312
28674SOL     OW89423   2.998   7.245   7.962  0.3426  0.1537  0.2915
28674SOL    HW189424   3.018   7.333   7.929 -1.4569  0.2577 -0.6498
28674SOL    HW289425   3.015   7.187   7.888 -0.8446  0.0266  0.0981
28675SOL     OW89426   4.754   1.932   8.770 -0.3487  0.0595 -0.1405
28675SOL    HW189427   4.812   1.899   8.701  0.9413  0.0715  0.8791
28675SOL    HW289428   4.764   2.027   8.767  1.8393 -0.0026  1.6967
28676SOL     OW89429   3.192   8.707   0.417 -0.0862 -0.4619 -0.0691
28676SOL    HW189430   3.219   8.637   0.477  0.0580 -0.7784 -0.4995
28676SOL    HW289431   3.190   8.665   0.331 -0.4031 -0.0369 -0.2688
28677SOL     OW89432   8.443   1.193   6.288  0.1783  0.1850 -0.1227
28677SOL    HW189433   8.363   1.245   6.273  0.8682  0.8769 -1.6370
28677SOL    HW289434   8.494   1.246   6.349 -0.3406 -0.0847  0.5633
28678SOL     OW89435   5.829   7.562   6.764  0.3614  0.2531 -0.6732
28678SOL    HW189436   5.847   7.656   6.757 -0.1711  0.2709 -2.0181
28678SOL    HW289437   5.733   7.555   6.763  0.3662 -0.2547  0.4180
28679SOL     OW89438   6.077   1.301   9.018  0.4845  0.0614  0.2140
28679SOL    HW189439   6.116   1.237   8.958 -0.6012 -0.4923  0.0803
28679SOL    HW289440   6.007   1.253   9.062 -1.0992  1.4336 -0.6990
28680SOL     OW89441   0.018   5.125   8.886  0.0325 -0.0247  0.1601
28680SOL    HW189442  -0.033   5.044   8.882 -0.0798  0.1004 -1.2631
28680SOL    HW289443   0.106   5.099   8.861  0.4573 -0.0344  1.5584
28681SOL     OW89444   2.867   6.279   7.595 -0.0945  0.2549  0.1109
28681SOL    HW189445   2.914   6.248   7.517 -0.7012  1.0294 -0.5817
28681SOL    HW289446   2.916   6.358   7.621  0.3329 -0.2123  0.7538
28682SOL     OW89447   1.162   1.327   9.862 -1.0059 -0.1691  0.1278
28682SOL    HW189448   1.252   1.295   9.868 -0.2270  1.8579  0.0327
28682SOL    HW289449   1.129   1.322   9.951 -0.6811 -0.5776  0.2300
28683SOL     OW89450   2.655   2.873   6.408  0.0427  0.7427 -0.5511
28683SOL    HW189451   2.658   2.857   6.502  1.5101 -0.2340 -0.7201
28683SOL    HW289452   2.747   2.870   6.381 -0.4979 -2.5879 -2.5578
28684SOL     OW89453   7.070   4.829   2.140 -0.3646  0.0492 -0.3185
28684SOL    HW189454   7.037   4.905   2.092 -1.0389 -0.4827 -0.7239
28684SOL    HW289455   7.121   4.780   2.075  1.1142  0.7786  0.2626
28685SOL     OW89456   5.896   8.118   4.334  0.1873 -0.2182 -0.0192
28685SOL    HW189457   5.818   8.081   4.293 -0.5836  1.3625 -0.0577
28685SOL    HW289458   5.877   8.117   4.428 -1.2189  2.8191 -0.1503
28686SOL     OW89459   0.911   9.997   4.856  0.0248 -0.2526 -0.5116
28686SOL    HW189460   0.988   9.974   4.907 -0.2981 -0.7162 -0.2226
28686SOL    HW289461   0.840  10.002   4.920  0.0535  1.4455 -0.5786
28687SOL     OW89462   1.136   5.758   0.049  0.3968  0.2545  0.2913
28687SOL    HW189463   1.109   5.811  -0.026  1.3979  2.1028  1.1600
28687SOL    HW289464   1.064   5.764   0.111  0.8022  1.2514  0.6843
28688SOL     OW89465  10.283  10.447   5.983 -0.1285  0.1094  0.1667
28688SOL    HW189466  10.371  10.480   6.002 -0.2993  0.0930  1.0178
28688SOL    HW289467  10.226  10.496   6.043 -0.8757  1.0537 -1.2377
28689SOL     OW89468   3.981   4.466   7.046  0.2350 -0.4169 -0.3748
28689SOL    HW189469   4.019   4.416   7.119  1.4063 -1.0150 -1.3595
28689SOL    HW289470   3.940   4.542   7.087  0.6900 -0.8536  0.9211
28690SOL     OW89471   3.691   5.619   0.564  0.1883 -0.0041  0.1886
28690SOL    HW189472   3.786   5.618   0.566  0.2023  0.3173 -0.1620
28690SOL    HW289473   3.669   5.686   0.500 -0.2756  0.1410  0.4914
28691SOL     OW89474   1.788   2.161   8.762 -0.6298  0.0059 -0.1111
28691SOL    HW189475   1.794   2.189   8.671 -0.8719  0.2963 -0.0403
28691SOL    HW289476   1.760   2.239   8.809 -1.2727 -0.3405  0.0967
28692SOL     OW89477   8.972   7.785   3.561  0.2143  0.1376  0.3401
28692SOL    HW189478   8.902   7.747   3.508  0.8204 -0.9169  0.2656
28692SOL    HW289479   9.040   7.809   3.497  0.3103  0.2881  0.4975
28693SOL     OW89480   6.731   5.054  10.117  0.2140 -0.0392  0.2876
28693SOL    HW189481   6.722   4.979  10.176 -1.3691 -1.2749 -1.4197
28693SOL    HW289482   6.647   5.100  10.125  0.0249 -0.1494 -0.8471
28694SOL     OW89483   7.710   6.781   3.548 -0.1511  0.1862 -0.4182
28694SOL    HW189484   7.688   6.855   3.491  1.4062  0.9176 -0.1147
28694SOL    HW289485   7.740   6.821   3.629  1.0763 -0.7497 -0.3754
28695SOL     OW89486   5.056   9.811   4.575 -0.0399  0.1229  0.1483
28695SOL    HW189487   5.139   9.772   4.602  1.0356  1.4911 -0.9587
28695SOL    HW289488   5.056   9.897   4.617 -0.9426  0.0994  0.2067
28696SOL     OW89489   7.354   0.347  10.241  0.5506 -0.1051 -0.2997
28696SOL    HW189490   7.299   0.422  10.263 -0.4112 -0.5663 -1.1089
28696SOL    HW289491   7.398   0.325  10.324 -0.8016 -0.0038  0.4722
28697SOL     OW89492   0.805   4.763   7.044  0.0741 -0.1172 -0.3996
28697SOL    HW189493   0.759   4.847   7.048 -0.8080 -0.6038  0.1226
28697SOL    HW289494   0.771   4.713   7.119 -1.0690 -1.7373 -1.8980
28698SOL     OW89495   4.647   8.918   0.605  0.1560 -0.0263 -0.0321
28698SOL    HW189496   4.581   8.900   0.538 -0.0742  1.7888 -0.3435
28698SOL    HW289497   4.730   8.894   0.563 -0.1031 -0.0808 -0.5238
28699SOL     OW89498   9.808   4.047   7.044  0.4515  0.6016  0.1665
28699SOL    HW189499   9.769   3.989   6.980  1.4485 -1.6137  1.4484
28699SOL    HW289500   9.885   4.084   7.000  0.5193 -0.0410 -0.2571
28700SOL     OW89501   4.834   8.838   2.419  0.0134 -0.0184 -0.3478
28700SOL    HW189502   4.807   8.914   2.368  2.1529 -0.3195 -2.1169
28700SOL    HW289503   4.928   8.850   2.431 -0.1365 -0.8600  2.1033
28701SOL     OW89504   2.873   6.189   9.362 -0.1993 -0.1519 -0.2100
28701SOL    HW189505   2.812   6.128   9.321 -1.2285  1.5718 -1.4364
28701SOL    HW289506   2.877   6.263   9.300  1.1774  0.8992  1.0554
28702SOL     OW89507   8.695   9.335   7.129  0.0074 -0.4502 -0.2057
28702SOL    HW189508   8.679   9.349   7.036 -0.7985 -1.3775 -0.2128
28702SOL    HW289509   8.656   9.412   7.172  1.4438  0.5935 -0.6896
28703SOL     OW89510   7.063   3.734   3.879 -0.6999  0.0228 -0.0137
28703SOL    HW189511   7.141   3.706   3.927 -2.1319 -3.5065  0.5823
28703SOL    HW289512   7.074   3.698   3.792 -1.5972 -0.4454  0.0535
28704SOL     OW89513   3.810   2.112   4.303  0.3627  0.3746 -0.0222
28704SOL    HW189514   3.800   2.017   4.299 -1.3455  0.5615 -1.3067
28704SOL    HW289515   3.773   2.144   4.221  0.1944  2.2108  0.7101
28705SOL     OW89516   2.895   3.575   3.191 -0.4202  0.5440 -0.7172
28705SOL    HW189517   2.844   3.503   3.153 -0.2750  0.1258 -0.1245
28705SOL    HW289518   2.978   3.535   3.215 -0.3661  0.8924 -0.3187
28706SOL     OW89519   1.008  10.111   2.621  0.1897 -0.0129 -0.0778
28706SOL    HW189520   0.933  10.160   2.588  1.7415  1.9382 -0.8629
28706SOL    HW289521   1.049  10.168   2.686  0.7595 -1.2385  0.6950
28707SOL     OW89522   5.114   6.167   0.543 -0.2617  0.0298  0.0622
28707SOL    HW189523   5.070   6.083   0.550 -0.3079  0.0728  0.3149
28707SOL    HW289524   5.120   6.184   0.449 -1.5638  0.4250  0.0319
28708SOL     OW89525   8.375   7.642   9.094 -0.4412 -0.6042 -0.3470
28708SOL    HW189526   8.446   7.689   9.137 -1.6114 -0.4299  1.4977
28708SOL    HW289527   8.407   7.552   9.085  1.5975  0.2686 -3.4186
28709SOL     OW89528   1.341  10.122   3.201  0.1788  0.2960  0.2145
28709SOL    HW189529   1.258  10.087   3.170  2.0848 -2.0496 -2.8462
28709SOL    HW289530   1.372  10.057   3.264  1.3242 -0.9417 -1.5326
28710SOL     OW89531   6.476   3.598   4.226  0.3080  0.1262 -0.2128
28710SOL    HW189532   6.518   3.517   4.257  0.0743  0.1633  0.2056
28710SOL    HW289533   6.455   3.580   4.135  0.0205 -0.3839 -0.0497
28711SOL     OW89534   0.308   6.334   4.610  0.1898 -0.6347  0.2978
28711SOL    HW189535   0.215   6.322   4.625 -0.3956  0.8148 -1.7224
28711SOL    HW289536   0.322   6.428   4.620  0.7667 -0.3585 -2.3957
28712SOL     OW89537   6.092   9.821   2.223  0.0061  0.1180  0.3703
28712SOL    HW189538   6.062   9.890   2.163  0.0791  0.4384  0.6998
28712SOL    HW289539   6.091   9.862   2.309  1.5721  0.2166  0.3821
28713SOL     OW89540   0.441   0.020   0.529 -0.8188 -0.1244 -0.4999
28713SOL    HW189541   0.356   0.059   0.509 -1.7165 -1.2779  0.8998
28713SOL    HW289542   0.446   0.021   0.624 -0.0595 -1.7069 -0.4971
28714SOL     OW89543   7.279   2.584   2.564 -0.1490  0.0604 -0.2761
28714SOL    HW189544   7.372   2.577   2.545 -0.4400  1.6063 -2.7312
28714SOL    HW289545   7.240   2.505   2.527  0.0342  0.0723 -0.4951
28715SOL     OW89546   1.181   1.573   5.114  0.2281 -0.4068 -0.1817
28715SOL    HW189547   1.272   1.569   5.144 -0.1854  2.9359  2.0487
28715SOL    HW289548   1.129   1.570   5.194 -1.5697 -0.5502 -1.2903
28716SOL     OW89549   7.637   7.654   0.499 -0.1114  0.0461 -0.3550
28716SOL    HW189550   7.613   7.613   0.582 -0.3918 -1.1526 -0.9931
28716SOL    HW289551   7.619   7.586   0.433  3.6075 -0.5036 -1.0518
28717SOL     OW89552   4.888   2.580  10.196  0.6591  0.4848  0.7466
28717SOL    HW189553   4.867   2.513  10.131  2.0352  1.9236 -1.3020
28717SOL    HW289554   4.813   2.580  10.255 -0.8063 -0.7055 -0.9835
28718SOL     OW89555   6.587   7.479   9.272  0.0471  0.3032 -0.6306
28718SOL    HW189556   6.533   7.439   9.340 -1.7330  1.3662 -1.3584
28718SOL    HW289557   6.599   7.570   9.302  2.4148 -0.1826  0.0641
28719SOL     OW89558   0.614   1.998   2.793  0.6856  0.4026  0.4883
28719SOL    HW189559   0.591   1.908   2.817  1.3233  0.2875  0.6834
28719SOL    HW289560   0.531   2.038   2.768  0.5644 -0.6216 -0.8702
28720SOL     OW89561   5.175   2.583   8.139  1.0398 -0.1449 -0.0340
28720SOL    HW189562   5.207   2.673   8.147 -1.3254  0.8086 -0.4684
28720SOL    HW289563   5.170   2.568   8.044 -0.5690  0.0672 -0.0032
28721SOL     OW89564   6.567   2.566   4.039 -0.1063 -0.2543 -0.2758
28721SOL    HW189565   6.611   2.649   4.055  0.3997 -0.7903  1.2788
28721SOL    HW289566   6.624   2.500   4.078 -0.6481 -1.3080 -1.2113
28722SOL     OW89567   8.537   7.732   5.468  0.0330  0.2317  0.5411
28722SOL    HW189568   8.552   7.784   5.389  0.6859  0.4279  0.7864
28722SOL    HW289569   8.444   7.743   5.487 -0.3384 -0.5389 -0.7027
28723SOL     OW89570  10.298   0.601   1.330 -0.2615  0.3927  0.3247
28723SOL    HW189571  10.353   0.524   1.313 -1.0263 -0.0492 -0.2466
28723SOL    HW289572  10.273   0.632   1.242 -1.8939 -0.1453  0.5594
28724SOL     OW89573   9.604   2.444   8.875  0.3186  0.1679 -0.1956
28724SOL    HW189574   9.516   2.481   8.868  0.9172  1.8995  0.8320
28724SOL    HW289575   9.656   2.492   8.810  0.5749 -0.7183 -0.6711
28725SOL     OW89576   1.107   4.917   9.688 -0.1688 -0.2608 -0.2283
28725SOL    HW189577   1.148   4.992   9.645  0.1764 -0.2383  0.1303
28725SOL    HW289578   1.175   4.849   9.687  0.2110  0.0668  1.1559
28726SOL     OW89579   7.671   9.198   3.574 -0.4234  0.1150  0.3080
28726SOL    HW189580   7.730   9.226   3.644 -0.4185  0.8599  0.0123
28726SOL    HW289581   7.642   9.279   3.533 -0.2669 -0.3181 -0.6865
28727SOL     OW89582   1.843   3.080   6.922  0.2674 -0.1453 -0.0719
28727SOL    HW189583   1.835   3.175   6.913  1.5570 -0.1455 -1.6411
28727SOL    HW289584   1.918   3.067   6.980  0.5026 -0.1838 -0.3769
28728SOL     OW89585   5.172   9.114   1.215  0.3347 -0.2851  0.0829
28728SOL    HW189586   5.157   9.199   1.256  0.0798 -0.3880  0.2095
28728SOL    HW289587   5.087   9.092   1.175  0.6400 -0.0910 -0.6784
28729SOL     OW89588   0.736   9.289   9.480 -0.6443 -0.3732  0.0311
28729SOL    HW189589   0.767   9.202   9.455  0.9570 -0.2597  1.4123
28729SOL    HW289590   0.798   9.349   9.438  0.1671 -0.0648  1.5898
28730SOL     OW89591   8.380   3.321   8.032 -0.7659  0.1964 -0.1946
28730SOL    HW189592   8.324   3.355   7.962 -1.8478 -3.0796 -1.0597
28730SOL    HW289593   8.319   3.284   8.096  0.3087 -1.4968 -0.0888
28731SOL     OW89594   9.695   4.708   8.340 -0.0374  0.0444 -0.7160
28731SOL    HW189595   9.632   4.736   8.405  1.7248  0.6588  0.8276
28731SOL    HW289596   9.654   4.727   8.256 -2.5762 -1.1770  0.1381
28732SOL     OW89597   1.161   2.356   7.147 -0.2489  0.3680  0.1186
28732SOL    HW189598   1.236   2.378   7.203 -0.5898 -0.9085  1.1298
28732SOL    HW289599   1.145   2.436   7.097  3.1466  0.0631 -1.7862
28733SOL     OW89600   8.770   0.352   0.846  0.4506  0.2608 -0.4142
28733SOL    HW189601   8.755   0.410   0.771 -2.0235  2.5317  1.6346
28733SOL    HW289602   8.716   0.275   0.828  2.2010 -0.6268 -2.2375
28734SOL     OW89603   0.187   9.595   4.914 -0.1312  0.3355 -0.1030
28734SOL    HW189604   0.202   9.621   5.006 -0.5066  0.6652 -0.1334
28734SOL    HW289605   0.139   9.513   4.920 -2.9639  1.8931  0.0413
28735SOL     OW89606   8.453   4.610   8.359  0.1075 -0.0056 -0.2325
28735SOL    HW189607   8.437   4.704   8.374  0.4069  0.2017 -1.1706
28735SOL    HW289608   8.491   4.579   8.441  1.4816  1.0462 -0.4327
28736SOL     OW89609   7.138   6.608   5.841  0.6166 -0.4646 -0.0735
28736SOL    HW189610   7.160   6.581   5.752  4.9268 -0.0156  0.6259
28736SOL    HW289611   7.144   6.528   5.893  0.5148 -0.3085  0.1805
28737SOL     OW89612   6.393   2.935   2.637 -0.4820  0.1046 -1.2418
28737SOL    HW189613   6.317   2.966   2.687 -0.1013  0.3256 -0.7918
28737SOL    HW289614   6.372   2.955   2.546 -1.0787 -0.0740 -1.1517
28738SOL     OW89615   8.545   8.485   8.227  0.5454 -0.0980 -0.4760
28738SOL    HW189616   8.466   8.451   8.183  0.2926 -0.3986  0.2048
28738SOL    HW289617   8.540   8.580   8.214 -0.5993  0.0207  0.6272
28739SOL     OW89618   2.457  10.741  10.647  0.4755 -0.4653  0.5568
28739SOL    HW189619   2.382  10.709  10.697 -2.3288  2.8340 -1.0959
28739SOL    HW289620   2.471  10.831  10.679  0.8758  0.4958 -2.0588
28740SOL     OW89621   2.613   1.720   0.141  0.0643  0.2478 -0.7600
28740SOL    HW189622   2.546   1.788   0.151  1.6583  1.7241  0.5463
28740SOL    HW289623   2.569   1.650   0.094 -1.7629  2.0445 -1.8940
28741SOL     OW89624   4.312   3.803   8.038 -0.1065  0.6459 -0.3348
28741SOL    HW189625   4.293   3.733   8.101  0.3768  0.5518 -0.2905
28741SOL    HW289626   4.229   3.849   8.029 -0.6320 -0.3878 -0.9397
28742SOL     OW89627   0.639   8.041   2.251 -0.0465 -0.5127  0.6850
28742SOL    HW189628   0.668   7.980   2.319 -1.1393 -1.6558  0.1746
28742SOL    HW289629   0.603   7.984   2.183  1.6906  0.5312 -1.2245
28743SOL     OW89630   4.579   5.346   8.419 -0.1099 -0.0553 -0.0867
28743SOL    HW189631   4.511   5.408   8.446  1.9511  1.3613  2.3114
28743SOL    HW289632   4.634   5.396   8.358  1.0233  0.2617  1.1365
28744SOL     OW89633  10.015   8.356   8.434 -0.1645  0.0443 -0.4369
28744SOL    HW189634  10.012   8.442   8.391 -2.7533 -0.1820 -0.8573
28744SOL    HW289635  10.085   8.365   8.498 -0.0810  2.3456 -0.7397
28745SOL     OW89636   2.224   0.600   9.673 -0.1865  0.4718  0.4140
28745SOL    HW189637   2.159   0.614   9.742 -0.6139  0.4583  0.0163
28745SOL    HW289638   2.284   0.534   9.709 -1.0911 -0.4273  0.3159
28746SOL     OW89639   3.043   6.704   5.978  0.1851  0.2313 -0.3217
28746SOL    HW189640   3.019   6.653   6.055  0.4417  1.0335  0.3007
28746SOL    HW289641   3.132   6.734   5.996  0.0134  0.9607 -0.6494
28747SOL     OW89642   3.854   5.425   7.837  0.0597 -0.3814 -0.3624
28747SOL    HW189643   3.900   5.499   7.874 -1.4797 -0.5595  2.1553
28747SOL    HW289644   3.797   5.463   7.770  1.9196  0.1422 -1.7315
28748SOL     OW89645   9.796   3.615   5.879  0.0770  0.2142 -0.1718
28748SOL    HW189646   9.840   3.688   5.835 -0.1978  0.3042 -0.2985
28748SOL    HW289647   9.748   3.571   5.809  0.1702 -0.0367 -0.0793
28749SOL     OW89648   1.876   4.213   5.981  0.8030  0.2506 -0.1007
28749SOL    HW189649   1.862   4.222   5.887 -1.3471  0.8363  0.2081
28749SOL    HW289650   1.901   4.301   6.010  1.5384  0.0533 -0.1257
28750SOL     OW89651   7.405   2.092   8.544  0.0438  0.5262  0.2036
28750SOL    HW189652   7.455   2.145   8.482  0.0926  2.2846  1.6454
28750SOL    HW289653   7.455   2.098   8.626 -1.8041  1.2446  1.3442
28751SOL     OW89654   6.318   3.751   3.970 -0.0342 -0.0330 -0.0215
28751SOL    HW189655   6.305   3.753   4.065  0.7533  0.4460  0.0833
28751SOL    HW289656   6.241   3.796   3.935 -0.5301 -0.5652  0.3627
28752SOL     OW89657   8.503   0.404   7.438  0.0408  0.1497  0.2429
28752SOL    HW189658   8.505   0.481   7.495  0.5497  0.7113 -0.5217
28752SOL    HW289659   8.459   0.434   7.359  2.2627  0.3194 -0.9843
28753SOL     OW89660   7.879   1.876  10.758 -0.4958  0.1805 -0.3997
28753SOL    HW189661   7.871   1.782  10.740 -1.1310  0.2771 -0.6417
28753SOL    HW289662   7.863   1.918  10.673 -1.4111  0.5528 -0.0523
28754SOL     OW89663   9.089  10.431   8.798  0.0380  0.9342  0.1699
28754SOL    HW189664   9.028  10.462   8.732 -0.2627 -0.1351 -0.0787
28754SOL    HW289665   9.120  10.510   8.842  1.4167  1.8402 -2.2382
28755SOL     OW89666   0.471   1.872   2.449 -0.1821  0.9020  0.0233
28755SOL    HW189667   0.545   1.811   2.457 -0.9025 -0.0010 -0.0573
28755SOL    HW289668   0.394   1.818   2.465 -0.7820  2.0563  1.2084
28756SOL     OW89669  10.201   7.839   5.600 -0.5686 -0.0993 -0.5020
28756SOL    HW189670  10.275   7.817   5.657 -0.0988 -0.3374 -1.1942
28756SOL    HW289671  10.152   7.906   5.648  0.4920  0.5733 -0.3453
28757SOL     OW89672   9.982   6.660   9.712 -0.1963 -0.0480  0.5887
28757SOL    HW189673   9.910   6.719   9.691  0.3922  0.4529 -0.0867
28757SOL    HW289674   9.966   6.633   9.802 -2.2823 -1.5006 -0.1453
28758SOL     OW89675   3.368   5.763   9.890 -0.2365  0.0367  0.0806
28758SOL    HW189676   3.379   5.670   9.911 -0.3622  0.1588  0.6878
28758SOL    HW289677   3.419   5.809   9.956  0.3386  0.3895 -0.5880
28759SOL     OW89678   7.500   3.480   4.618 -0.3610  0.4132 -0.6047
28759SOL    HW189679   7.582   3.446   4.583 -0.6907  0.8639 -1.8635
28759SOL    HW289680   7.433   3.420   4.585 -0.6256  0.5377 -0.2982
28760SOL     OW89681   5.763   1.770   5.930 -0.0289 -0.5535 -0.5642
28760SOL    HW189682   5.761   1.747   5.837  0.0537  0.9494 -0.9630
28760SOL    HW289683   5.855   1.785   5.950 -0.2484  1.6012 -0.9250
28761SOL     OW89684   4.986   9.485   3.719 -0.2244 -0.2879 -0.6005
28761SOL    HW189685   4.945   9.489   3.633  0.6328  0.9252 -0.9748
28761SOL    HW289686   4.915   9.459   3.778 -1.1843  0.3081 -1.4495
28762SOL     OW89687   3.170   3.515   0.657  0.4816 -0.4667  0.2010
28762SOL    HW189688   3.180   3.604   0.692 -0.2561  0.2179 -1.2493
28762SOL    HW289689   3.238   3.507   0.590  0.2821 -0.8511  0.0383
28763SOL     OW89690   5.566   6.392   1.620 -0.0856  0.0313 -0.1047
28763SOL    HW189691   5.584   6.304   1.652  3.7196  0.3473 -0.8680
28763SOL    HW289692   5.571   6.385   1.525 -0.7440  0.9020 -0.2159
28764SOL     OW89693   3.819   8.265   9.002  0.4986 -0.2422 -0.2425
28764SOL    HW189694   3.792   8.180   9.037 -0.0508 -0.9477 -2.2736
28764SOL    HW289695   3.877   8.301   9.070  0.0954 -1.8499  1.0240
28765SOL     OW89696   0.998   0.632   2.956  0.1353  0.3308 -0.1523
28765SOL    HW189697   0.987   0.598   3.044  3.3399 -2.7562 -0.6987
28765SOL    HW289698   0.949   0.570   2.900  1.1537  0.0236 -0.7407
28766SOL     OW89699   4.499   5.818   2.597 -0.1706  0.1253 -0.5166
28766SOL    HW189700   4.425   5.758   2.584 -1.0478  0.7433  1.2195
28766SOL    HW289701   4.568   5.764   2.636 -0.2644 -0.1405 -0.7156
28767SOL     OW89702   8.325   9.245   0.018  0.3736 -0.2359  0.3491
28767SOL    HW189703   8.265   9.314  -0.010  1.0924 -0.2289 -1.3460
28767SOL    HW289704   8.284   9.164  -0.011 -0.1424 -0.4896  1.7261
28768SOL     OW89705   3.792   5.649   4.429  0.4715 -0.2795  0.3066
28768SOL    HW189706   3.747   5.608   4.354 -2.0833 -0.2252  1.6805
28768SOL    HW289707   3.820   5.576   4.483 -0.3084 -0.3018  0.6952
28769SOL     OW89708   9.855   3.728   4.394  0.0262 -0.0701  0.0775
28769SOL    HW189709   9.775   3.703   4.441  0.2332  0.7155  0.8830
28769SOL    HW289710   9.896   3.793   4.451  0.9423 -0.0336 -0.6102
28770SOL     OW89711   3.412  10.320   3.530 -0.1440  0.0895  0.4149
28770SOL    HW189712   3.371  10.284   3.610  0.9120  0.0853  0.9684
28770SOL    HW289713   3.434  10.243   3.478  1.7100 -0.0873  1.3992
28771SOL     OW89714   4.594  10.253   5.689 -0.2852  0.4546 -0.2660
28771SOL    HW189715   4.674  10.281   5.734  0.4114  0.9775 -1.7801
28771SOL    HW289716   4.540  10.332   5.686 -0.9845  0.0505  0.9441
28772SOL     OW89717   1.824   2.323   1.061 -0.2536  0.5765  0.5643
28772SOL    HW189718   1.746   2.269   1.048  0.4497 -1.1567  2.9077
28772SOL    HW289719   1.898   2.265   1.042  0.5055  1.4097  0.8932
28773SOL     OW89720   1.008   6.131  10.651 -0.3500 -0.3792 -0.0984
28773SOL    HW189721   0.966   6.152  10.567  0.0649 -1.5766 -0.6312
28773SOL    HW289722   0.943   6.154  10.717 -0.3229  1.5176 -0.6720
28774SOL     OW89723   7.749   0.527   0.435 -0.0921  0.1063  0.8465
28774SOL    HW189724   7.800   0.463   0.385 -0.2414  1.1952 -0.7681
28774SOL    HW289725   7.813   0.571   0.490  0.6281  0.9241 -0.5951
28775SOL     OW89726   9.222   0.346   6.231 -0.5927 -0.0586  0.0637
28775SOL    HW189727   9.259   0.425   6.272 -2.3952  0.5850  0.5635
28775SOL    HW289728   9.271   0.336   6.149  2.6855 -1.0192  1.9780
28776SOL     OW89729   2.405   7.409   0.251 -0.0675 -0.1220  0.3233
28776SOL    HW189730   2.313   7.434   0.260  0.0090  0.2361  0.1341
28776SOL    HW289731   2.412   7.327   0.300 -1.1151 -1.7038 -1.9594
28777SOL     OW89732   2.478   2.230   4.026 -0.4829  0.2807 -0.7794
28777SOL    HW189733   2.519   2.179   4.096 -0.6111  0.7174 -0.3789
28777SOL    HW289734   2.528   2.312   4.023 -0.8959  0.5371 -0.7459
28778SOL     OW89735  10.242   1.427   7.004 -0.2630 -0.3461  0.6502
28778SOL    HW189736  10.210   1.511   7.038 -1.0483 -0.2766 -0.2407
28778SOL    HW289737  10.212   1.363   7.069  0.0354  0.0078  1.1518
28779SOL     OW89738   8.648   9.742   6.595 -0.0512  0.1645  0.1347
28779SOL    HW189739   8.646   9.770   6.503  0.5455 -1.0090 -0.2586
28779SOL    HW289740   8.576   9.679   6.602  0.5449 -0.5216  0.1925
28780SOL     OW89741   5.120   0.353   4.072 -0.1896 -0.2121 -0.2303
28780SOL    HW189742   5.026   0.349   4.084 -0.3683 -2.9605 -1.7323
28780SOL    HW289743   5.149   0.424   4.130 -3.0432  0.2065  0.8295
28781SOL     OW89744   2.587   2.238   1.595 -0.0822  0.3033  0.0478
28781SOL    HW189745   2.551   2.306   1.653  1.2903  1.1375 -0.0448
28781SOL    HW289746   2.611   2.167   1.654  0.5364  0.8096  0.4115
28782SOL     OW89747   3.304   7.724   3.058 -0.1583 -0.0555 -0.2999
28782SOL    HW189748   3.304   7.795   2.994 -0.2463  0.9076  0.7482
28782SOL    HW289749   3.214   7.691   3.057  0.2162 -1.1428 -1.8284
28783SOL     OW89750   8.196   9.135   6.782 -0.0008  0.3198  0.1227
28783SOL    HW189751   8.202   9.070   6.852 -1.1329  0.8740  0.7559
28783SOL    HW289752   8.142   9.094   6.714 -0.5006  0.4960  0.4106
28784SOL     OW89753   7.989   1.817   5.139 -0.2031  0.4495  0.2379
28784SOL    HW189754   7.951   1.730   5.147 -0.6375  0.6193  0.0556
28784SOL    HW289755   8.006   1.844   5.229 -1.5826  0.8315  0.3986
28785SOL     OW89756   4.349   3.678   9.486  0.0217 -0.7181  0.2222
28785SOL    HW189757   4.254   3.689   9.481  0.0693 -0.8176 -2.3913
28785SOL    HW289758   4.381   3.758   9.527 -1.1593 -0.5637  0.8740
28786SOL     OW89759   9.906   6.107   9.406  0.2692 -0.1519 -0.5064
28786SOL    HW189760   9.966   6.116   9.480  1.6357  2.0251 -1.7575
28786SOL    HW289761   9.964   6.095   9.330 -0.7891  2.2015 -1.7903
28787SOL     OW89762   5.848   4.715   1.511 -0.0906  0.2954 -0.5354
28787SOL    HW189763   5.802   4.728   1.428 -0.4159 -0.4719 -0.4860
28787SOL    HW289764   5.788   4.750   1.577 -0.6371 -0.7138 -0.4704
28788SOL     OW89765   6.257   2.054   2.377 -0.4625  0.2476 -0.3813
28788SOL    HW189766   6.221   2.132   2.335 -1.2387  0.1921  0.1622
28788SOL    HW289767   6.255   2.073   2.470  2.0637  0.7168 -0.3543
28789SOL     OW89768   4.892   6.086   8.556  0.0264 -0.6606 -0.9096
28789SOL    HW189769   4.875   6.078   8.650  1.1406 -0.2793 -0.6715
28789SOL    HW289770   4.808   6.064   8.516 -0.7064  0.0194  0.1964
28790SOL     OW89771  10.617   2.965   2.423 -0.3905 -0.3247 -0.1813
28790SOL    HW189772  10.553   3.021   2.380 -1.4856 -0.6551  0.9551
28790SOL    HW289773  10.654   2.911   2.353  0.1951  1.3206 -1.1829
28791SOL     OW89774   3.480   2.088   4.408 -0.9863  0.3326  0.1256
28791SOL    HW189775   3.494   2.074   4.502 -2.7848 -3.3022  0.0261
28791SOL    HW289776   3.556   2.047   4.367  0.0734  2.3970 -0.0918
28792SOL     OW89777   9.403   8.184   7.640 -0.3704 -0.2147  0.1501
28792SOL    HW189778   9.388   8.265   7.591 -0.5962 -0.2955  0.0856
28792SOL    HW289779   9.490   8.155   7.611 -0.8039 -0.6495 -0.7573
28793SOL     OW89780   9.582   3.817   7.058  0.0988  0.2295  0.2232
28793SOL    HW189781   9.668   3.785   7.033 -0.1061 -0.9923  0.9732
28793SOL    HW289782   9.553   3.757   7.126 -0.2385  2.1917  1.9052
28794SOL     OW89783   7.636   4.688   9.848  0.0798  0.0809 -0.2454
28794SOL    HW189784   7.630   4.720   9.758 -0.0404  1.9097  0.3702
28794SOL    HW289785   7.727   4.659   9.857 -0.3635 -1.8796 -1.4625
28795SOL     OW89786   9.663   5.094   3.308  0.2738  0.1179 -0.2147
28795SOL    HW189787   9.755   5.119   3.312 -0.3784  2.7037  0.4269
28795SOL    HW289788   9.618   5.157   3.363 -1.9871 -0.6730 -1.0168
28796SOL     OW89789   8.562   4.406   3.758  0.0146  0.2883  0.0883
28796SOL    HW189790   8.563   4.346   3.683 -1.2314 -0.9036  0.9723
28796SOL    HW289791   8.654   4.428   3.772  0.2668  0.7248 -1.8994
28797SOL     OW89792   7.845   2.556   8.815  0.0748 -0.3120  0.1638
28797SOL    HW189793   7.896   2.500   8.757  0.0896  1.1872 -1.3473
28797SOL    HW289794   7.777   2.593   8.759  0.6533  1.9086  0.8372
28798SOL     OW89795   1.527  10.102   0.548 -0.2602 -0.5422  0.1388
28798SOL    HW189796   1.520  10.007   0.534 -0.1048 -0.0479 -5.0437
28798SOL    HW289797   1.436  10.132   0.548 -0.2414 -0.4572 -1.0471
28799SOL     OW89798   9.032   1.261   2.272 -0.1172  0.0958 -0.2339
28799SOL    HW189799   9.102   1.198   2.256  0.5229  0.4900  0.9606
28799SOL    HW289800   8.969   1.213   2.325  0.3538  0.4384  0.6456
28800SOL     OW89801   2.345  10.771   0.832  0.1485  0.4346  0.0579
28800SOL    HW189802   2.321  10.797   0.921 -0.8291  0.1607 -0.1108
28800SOL    HW289803   2.419  10.712   0.843 -3.1852 -4.0646  1.2337
28801SOL     OW89804   6.301   2.864   9.184 -0.8075 -0.4175  0.3216
28801SOL    HW189805   6.300   2.950   9.141  0.6073  0.2671  1.5754
28801SOL    HW289806   6.301   2.801   9.111  0.5951  0.6811 -0.6795
28802SOL     OW89807  10.128   0.197   4.901 -0.6837  0.2078 -0.5450
28802SOL    HW189808  10.123   0.262   4.971 -0.8181  0.1150 -0.4677
28802SOL    HW289809  10.155   0.116   4.945  1.0106  0.5523 -0.8562
28803SOL     OW89810   5.061   5.421   4.716  0.1999 -0.4207 -0.0809
28803SOL    HW189811   5.066   5.513   4.742 -0.2040 -0.9573  2.1237
28803SOL    HW289812   5.145   5.384   4.743  0.5154 -0.6425 -1.3134
28804SOL     OW89813   0.287   5.459   0.516 -0.9100 -0.7305 -0.4529
28804SOL    HW189814   0.290   5.364   0.505  0.2114 -0.8405  0.5898
28804SOL    HW289815   0.312   5.473   0.607 -0.4288  0.5988 -0.7717
28805SOL     OW89816   3.594   5.091   2.554 -0.1671  0.2279 -0.3211
28805SOL    HW189817   3.509   5.133   2.554 -0.0443  0.7633  3.1874
28805SOL    HW289818   3.657   5.163   2.550  0.0865  0.0583  0.4987
28806SOL     OW89819   7.977   2.889   7.337 -0.3658 -0.3307  0.7897
28806SOL    HW189820   7.946   2.859   7.252 -0.0721  1.0595  0.1686
28806SOL    HW289821   7.898   2.902   7.389 -0.6963  0.8146  0.0316
28807SOL     OW89822   2.637   8.354   3.480 -0.1856  0.8878 -0.4974
28807SOL    HW189823   2.714   8.353   3.423  0.9669  1.1438  1.0072
28807SOL    HW289824   2.644   8.435   3.529 -0.0691 -0.2338  1.4243
28808SOL     OW89825   6.692   2.813   4.019 -0.1624  0.0018  0.4291
28808SOL    HW189826   6.694   2.873   3.945 -0.0784  1.0418  1.2401
28808SOL    HW289827   6.766   2.841   4.074  0.4589 -1.4568  0.3703
28809SOL     OW89828   9.650   1.312   0.546  0.2285  0.6875 -0.1819
28809SOL    HW189829   9.630   1.219   0.550  1.1203  0.4897 -0.2870
28809SOL    HW289830   9.636   1.336   0.454  1.4695  0.3192 -0.4763
28810SOL     OW89831   6.489   2.320   9.282  0.4421 -0.1266 -0.2009
28810SOL    HW189832   6.405   2.347   9.318  0.9578  0.0682  0.8797
28810SOL    HW289833   6.474   2.231   9.250 -0.1948 -0.0614 -0.0973
28811SOL     OW89834   8.651  10.820   5.650  0.1987  0.4609 -0.0974
28811SOL    HW189835   8.729  10.791   5.698 -0.4106  0.5134  0.9521
28811SOL    HW289836   8.686  10.859   5.569  1.4267  2.5264  1.3288
28812SOL     OW89837  10.136   0.085   3.932 -0.5622 -0.5421  0.7057
28812SOL    HW189838  10.068   0.037   3.886 -0.6243  0.3945 -0.2303
28812SOL    HW289839  10.210   0.086   3.872 -0.0888 -0.6213  1.2709
28813SOL     OW89840   2.547  10.848   3.649 -0.4778  0.4146  0.0670
28813SOL    HW189841   2.471  10.904   3.634 -0.8138  0.0399  0.3790
28813SOL    HW289842   2.599  10.857   3.569 -0.7247  0.8646 -0.0473
28814SOL     OW89843   6.491   1.412   8.589 -0.1772 -0.1618 -0.0708
28814SOL    HW189844   6.417   1.361   8.621 -0.2651 -0.6164 -0.9873
28814SOL    HW289845   6.558   1.404   8.658 -0.5480 -0.6998  0.2284
28815SOL     OW89846   8.070  10.794   3.062  0.0246  0.4259 -0.0343
28815SOL    HW189847   8.157  10.818   3.033  0.7518 -1.1027  0.7665
28815SOL    HW289848   8.083  10.717   3.117 -1.6805  1.0036  1.2716
28816SOL     OW89849   4.984   9.466   4.665 -0.2490  0.4868 -0.6121
28816SOL    HW189850   4.944   9.407   4.601 -0.2863 -1.9761  1.4966
28816SOL    HW289851   4.911   9.498   4.718  0.1128 -1.8029  1.4765
28817SOL     OW89852   2.447   0.822   3.229 -0.2412 -0.0220 -0.2744
28817SOL    HW189853   2.489   0.902   3.258  1.6564 -0.1253 -2.4303
28817SOL    HW289854   2.362   0.850   3.194 -0.0374  0.8706 -0.0507
28818SOL     OW89855   4.211   1.503   9.912 -0.0847  0.2919  0.2394
28818SOL    HW189856   4.220   1.554   9.992 -1.3803 -1.7821  1.8121
28818SOL    HW289857   4.280   1.437   9.917 -0.5660 -0.2424  0.0026
28819SOL     OW89858  10.787   8.191   5.149  0.5735 -0.3508  0.2170
28819SOL    HW189859  10.760   8.260   5.088 -0.2477 -0.9498 -0.1091
28819SOL    HW289860  10.753   8.220   5.234 -1.3629 -1.2020 -0.2227
28820SOL     OW89861   9.229   8.018   1.678 -0.3238 -0.2605 -0.4113
28820SOL    HW189862   9.218   8.074   1.601 -0.8664  1.3144  0.7614
28820SOL    HW289863   9.165   7.948   1.666 -0.3516 -0.0816 -1.4231
28821SOL     OW89864   4.505   3.455   3.850  0.0395 -0.1630  0.1500
28821SOL    HW189865   4.540   3.541   3.875  0.8765 -0.6317  0.6644
28821SOL    HW289866   4.581   3.408   3.814 -0.7162 -0.2088 -1.4433
28822SOL     OW89867   8.851   9.970   0.849 -0.1603 -0.6736  0.1292
28822SOL    HW189868   8.808   9.972   0.934  0.3594  0.2781  0.3913
28822SOL    HW289869   8.781   9.986   0.786 -0.4564 -0.8095  0.4246
28823SOL     OW89870   3.234   1.185   3.830  0.0920  0.0257  0.1933
28823SOL    HW189871   3.178   1.205   3.905  0.3509 -0.6057  0.5675
28823SOL    HW289872   3.303   1.251   3.834  0.2671 -0.1790  0.6931
28824SOL     OW89873  10.266   2.560  10.622 -0.4368  0.2581 -0.3198
28824SOL    HW189874  10.299   2.562  10.532 -2.0557  0.4035 -0.9446
28824SOL    HW289875  10.342   2.533  10.674  0.7131  0.7927 -1.6298
28825SOL     OW89876   0.192  10.833   0.267 -0.5018 -0.1552  0.2483
28825SOL    HW189877   0.252  10.803   0.334  0.1336 -0.1410 -0.3021
28825SOL    HW289878   0.245  10.836   0.187 -0.3422  2.9917  0.3538
28826SOL     OW89879   5.799   3.004   4.679 -0.4092  0.5372 -0.4196
28826SOL    HW189880   5.767   3.086   4.717 -0.5856  0.8062 -1.1359
28826SOL    HW289881   5.869   2.976   4.739 -1.8225  0.0378  1.0639
28827SOL     OW89882   3.007   0.292   7.081  0.4591 -0.2020 -0.2976
28827SOL    HW189883   3.000   0.377   7.039 -1.6035  0.1165  0.5621
28827SOL    HW289884   2.954   0.234   7.027  0.5987 -0.5845 -0.0307
28828SOL     OW89885  10.574   1.699   4.383  0.1322 -0.2825 -0.4927
28828SOL    HW189886  10.518   1.684   4.307 -0.4659 -0.6799  0.0219
28828SOL    HW289887  10.650   1.745   4.347 -1.4428  2.2473 -0.9076
28829SOL     OW89888   1.326   9.659   4.137 -0.5419 -0.3973  0.2766
28829SOL    HW189889   1.331   9.689   4.046 -0.0823 -1.6966 -0.1405
28829SOL    HW289890   1.394   9.708   4.182 -0.5782  0.0451 -0.1354
28830SOL     OW89891   2.266   9.815   0.732  0.8902  0.2036  0.6165
28830SOL    HW189892   2.289   9.835   0.641  1.2874  1.5380  0.9810
28830SOL    HW289893   2.340   9.764   0.765  0.2676 -1.2132 -0.0884
28831SOL     OW89894   3.133   9.944   2.373 -0.1114 -0.2088  0.5031
28831SOL    HW189895   3.177   9.918   2.292 -0.8235 -0.8696  0.3131
28831SOL    HW289896   3.040   9.939   2.352 -0.2980  1.4465  0.8056
28832SOL     OW89897   6.020   4.524   8.378 -0.1959  0.1703  0.4918
28832SOL    HW189898   6.005   4.500   8.286 -0.5362 -0.2576  0.6576
28832SOL    HW289899   6.056   4.445   8.418  1.8939  0.9533  0.2769
28833SOL     OW89900   8.622   0.508   7.904  0.2376  0.0562  0.5667
28833SOL    HW189901   8.591   0.426   7.865 -0.0769  0.9175 -1.0617
28833SOL    HW289902   8.567   0.520   7.981 -0.6400 -0.5766  0.0588
28834SOL     OW89903   4.417   7.888   2.967  0.1326 -0.1787 -0.0287
28834SOL    HW189904   4.443   7.882   2.875  1.5654  2.1549  0.1649
28834SOL    HW289905   4.336   7.836   2.972  1.0245 -1.9319 -2.1631
28835SOL     OW89906   3.944   4.853   9.184  0.0946  0.2087  0.4777
28835SOL    HW189907   4.004   4.874   9.113  0.3874 -0.5012  0.5030
28835SOL    HW289908   3.857   4.875   9.150  0.1858 -0.5494 -0.2661
28836SOL     OW89909   3.967   0.704   6.755  0.1380 -0.4078  0.3480
28836SOL    HW189910   3.902   0.682   6.822  1.0795  0.2442  1.5326
28836SOL    HW289911   4.024   0.768   6.798  0.8783 -0.0943 -1.0418
28837SOL     OW89912   5.971   4.449  10.121  0.4372 -0.3266  0.2200
28837SOL    HW189913   5.879   4.436  10.095  0.0923  0.3436  1.0387
28837SOL    HW289914   6.004   4.361  10.138 -0.0417 -0.5791 -0.1204
28838SOL     OW89915   7.509   9.207   7.868  0.7441  0.0502  0.0461
28838SOL    HW189916   7.453   9.188   7.792  1.6492 -0.8535 -0.4190
28838SOL    HW289917   7.465   9.280   7.912 -0.4982 -0.2641 -0.6087
28839SOL     OW89918   1.406   0.253   9.266  0.1788  0.3775 -0.7775
28839SOL    HW189919   1.417   0.304   9.186 -0.6760 -1.9144 -2.4935
28839SOL    HW289920   1.494   0.226   9.290  0.5199  1.6824 -0.4684
28840SOL     OW89921   8.262   3.713   1.281  0.4791 -0.2233  0.2684
28840SOL    HW189922   8.293   3.803   1.291  0.8436 -0.2312 -0.6881
28840SOL    HW289923   8.261   3.679   1.370 -1.2588  1.2322  0.8666
28841SOL     OW89924   1.701   1.847   2.663  0.8501 -0.5159 -0.0739
28841SOL    HW189925   1.744   1.796   2.594  0.5959  1.7036 -2.0129
28841SOL    HW289926   1.611   1.815   2.664  1.0697 -1.1509 -0.1733
28842SOL     OW89927   2.930  10.745   6.924 -0.3696 -0.9121 -0.0533
28842SOL    HW189928   2.915  10.693   6.845  0.0605 -1.0522 -0.0477
28842SOL    HW289929   2.916  10.684   6.997  0.8790 -1.2445 -0.0593
28843SOL     OW89930   2.995   4.673   7.260 -0.1889 -0.1388  0.2254
28843SOL    HW189931   3.012   4.763   7.286  0.0949  0.3398 -1.5164
28843SOL    HW289932   3.075   4.625   7.283 -0.2588  0.0908  0.9557
28844SOL     OW89933   4.108   6.466   6.997 -0.0842  0.1033 -0.6616
28844SOL    HW189934   4.085   6.379   7.030 -1.2825  0.3596 -0.7784
28844SOL    HW289935   4.060   6.474   6.914 -1.3414  1.4922  0.1432
28845SOL     OW89936   3.758   2.998   2.757  0.6078 -0.1744 -0.4077
28845SOL    HW189937   3.800   2.955   2.831 -2.9477 -0.2851  1.7778
28845SOL    HW289938   3.686   2.940   2.733 -2.0019  2.5772  0.1243
28846SOL     OW89939   1.763   8.421   9.645 -0.4610 -0.0887  0.0865
28846SOL    HW189940   1.853   8.390   9.650 -0.5078 -0.5750 -1.3837
28846SOL    HW289941   1.717   8.375   9.715  0.2353 -0.5619  0.2392
28847SOL     OW89942   4.828   4.533   5.930 -0.3565 -0.0319  0.5572
28847SOL    HW189943   4.794   4.530   5.841  1.1953 -2.8837 -0.0539
28847SOL    HW289944   4.862   4.623   5.940 -1.5056  0.6567 -1.3060
28848SOL     OW89945   6.313   0.527   5.340 -0.0947  0.4400  0.0605
28848SOL    HW189946   6.320   0.467   5.414  0.6433  0.0943 -0.2729
28848SOL    HW289947   6.335   0.613   5.376  1.4943  0.0843  0.0054
28849SOL     OW89948   7.618   1.638   0.682 -0.2305 -0.0800 -0.2681
28849SOL    HW189949   7.688   1.637   0.616 -0.4614  0.2939 -0.5295
28849SOL    HW289950   7.663   1.654   0.765  0.0425 -0.3342 -0.3644
28850SOL     OW89951   9.257   4.303   4.404  0.4117  0.0890  0.2159
28850SOL    HW189952   9.332   4.362   4.411  0.4138  0.1699 -0.4125
28850SOL    HW289953   9.294   4.222   4.368  0.6418 -0.7615  2.2475
28851SOL     OW89954   1.161   8.012   2.803 -0.6707 -0.0790  0.2263
28851SOL    HW189955   1.150   7.998   2.709  0.7524 -0.4952  0.0994
28851SOL    HW289956   1.194   7.929   2.836  0.9287  0.6937  0.6978
28852SOL     OW89957   1.548   1.211   7.401  0.0130 -0.1502 -0.4500
28852SOL    HW189958   1.641   1.209   7.375  0.4498  1.4003  0.8146
28852SOL    HW289959   1.547   1.169   7.487 -1.0568 -3.2499 -1.8572
28853SOL     OW89960   4.494   1.040   8.348  0.4897  0.1612 -0.1883
28853SOL    HW189961   4.520   1.112   8.290 -0.7122  0.4254 -0.4317
28853SOL    HW289962   4.413   1.071   8.389  0.5226 -0.6364  0.5041
28854SOL     OW89963   2.956   5.534   2.881 -0.3385 -0.3288 -0.3732
28854SOL    HW189964   2.883   5.591   2.907 -0.4550 -0.3634 -0.6200
28854SOL    HW289965   3.029   5.594   2.868 -0.2604 -0.3203  0.1092
28855SOL     OW89966   8.591   8.095   1.507 -0.4487 -0.3973  0.2745
28855SOL    HW189967   8.660   8.029   1.513  1.3884  1.4556  0.8329
28855SOL    HW289968   8.547   8.076   1.424  0.0229 -2.2946  0.4201
28856SOL     OW89969   5.272   9.057   4.577 -0.0650 -0.5001  0.1553
28856SOL    HW189970   5.177   9.047   4.576 -0.2193  0.5674  1.7260
28856SOL    HW289971   5.305   8.972   4.547 -1.5019 -0.7857 -0.6953
28857SOL     OW89972   8.838   0.654   8.744  0.0917  0.2028  0.7577
28857SOL    HW189973   8.896   0.587   8.708  0.6322  1.4168 -0.6954
28857SOL    HW289974   8.869   0.666   8.834  1.7923  0.4947  0.1551
28858SOL     OW89975   6.625  10.252   8.678 -0.4905  0.4509  0.4010
28858SOL    HW189976   6.654  10.203   8.600  0.4635 -0.0973  1.0777
28858SOL    HW289977   6.548  10.204   8.708 -0.1991 -0.0023  0.4351
28859SOL     OW89978   4.052   3.624   6.311  0.0844  0.6038  0.2834
28859SOL    HW189979   4.094   3.557   6.257 -0.2837 -0.5341  1.3592
28859SOL    HW289980   4.015   3.686   6.248  1.4041  0.4242 -0.7184
28860SOL     OW89981   8.473   5.960   4.239  0.2224 -0.3341 -0.1316
28860SOL    HW189982   8.548   6.015   4.217 -0.2189  0.2191 -0.2706
28860SOL    HW289983   8.398   6.007   4.204 -0.0556 -1.6283 -1.3909
28861SOL     OW89984   8.395  10.890   8.590  0.8762  0.1525 -0.9794
28861SOL    HW189985   8.390  10.910   8.683  2.1858  0.5857 -0.9819
28861SOL    HW289986   8.328  10.945   8.550 -0.5044 -0.9025 -0.1812
28862SOL     OW89987   3.880   2.018   5.317 -0.1708 -0.2967  0.3981
28862SOL    HW189988   3.912   1.980   5.235  1.6170  0.4532  0.6952
28862SOL    HW289989   3.958   2.053   5.359 -1.1694  0.0587  2.0589
28863SOL     OW89990  10.297   4.293   0.765  0.1381  0.3655 -0.0779
28863SOL    HW189991  10.303   4.200   0.744  0.0005  0.7375 -1.9093
28863SOL    HW289992  10.384   4.327   0.746  0.4062  0.5173  1.2817
28864SOL     OW89993   7.830   0.687   9.583  0.1124 -0.0581  0.2073
28864SOL    HW189994   7.801   0.766   9.537 -0.4149 -1.4948 -2.1193
28864SOL    HW289995   7.757   0.665   9.641 -0.3409  0.3770 -0.1859
28865SOL     OW89996   5.450   1.786   7.451 -0.2674  0.1284 -0.1251
28865SOL    HW189997   5.438   1.870   7.407 -1.5657 -0.1473 -0.3455
28865SOL    HW289998   5.534   1.754   7.419  0.2177  1.3046 -0.0900
28866SOL     OW89999   1.694   2.316   4.665  0.1760  1.2053  0.4697
28866SOL    HW190000   1.686   2.339   4.757  1.9270 -0.4547  1.0821
28866SOL    HW290001   1.782   2.346   4.640  0.3454  0.2154 -0.1971
28867SOL     OW90002   6.638   4.841   3.254 -0.7501 -0.0378  0.0587
28867SOL    HW190003   6.689   4.788   3.315  0.0540 -0.9943 -1.4053
28867SOL    HW290004   6.690   4.842   3.174 -1.2504  2.1238 -0.2866
28868SOL     OW90005   1.642   6.158   1.330  0.1841  0.0072  0.2901
28868SOL    HW190006   1.640   6.226   1.263  0.7227 -0.1077  0.1544
28868SOL    HW290007   1.686   6.198   1.404 -0.5614  0.1888  0.6447
28869SOL     OW90008   4.256   9.460   0.792  0.0693  0.4659  0.4583
28869SOL    HW190009   4.348   9.462   0.821  0.1369 -0.9948  0.3758
28869SOL    HW290010   4.261   9.447   0.697 -0.2292  0.4244  0.4490
28870SOL     OW90011   6.413  10.737   0.422 -0.2631  0.4790 -0.1156
28870SOL    HW190012   6.336  10.791   0.441 -0.0616  0.0875  2.1283
28870SOL    HW290013   6.486  10.798   0.421 -0.2120  0.4546  1.0388
28871SOL     OW90014   1.973   8.731   3.028  0.1635 -0.1043 -0.3845
28871SOL    HW190015   1.947   8.798   2.964  1.3259 -1.4512 -2.3709
28871SOL    HW290016   2.048   8.770   3.073  2.5899 -0.9586 -3.3983
28872SOL     OW90017   6.479   9.687   4.668 -0.4912  0.0958  0.2571
28872SOL    HW190018   6.384   9.697   4.661 -0.5928 -0.5371  0.6739
28872SOL    HW290019   6.491   9.618   4.732  0.3080  1.3961  1.5544
28873SOL     OW90020   7.029   3.259   8.739  0.4327 -0.0997  0.0262
28873SOL    HW190021   7.060   3.199   8.807  2.5840  0.7602 -0.1429
28873SOL    HW290022   6.985   3.201   8.676  2.7273 -1.6263 -0.3024
28874SOL     OW90023   3.681   6.422   9.814  0.4040  0.0949  0.5873
28874SOL    HW190024   3.598   6.400   9.856  0.7000  0.0638  1.1720
28874SOL    HW290025   3.748   6.391   9.876  0.8427  0.6342  0.3874
28875SOL     OW90026   7.351   9.308   2.333  0.1798  0.8179 -0.1044
28875SOL    HW190027   7.326   9.367   2.261 -2.0491 -0.0493 -0.1159
28875SOL    HW290028   7.291   9.331   2.404 -0.3513 -1.0107  0.0848
28876SOL     OW90029   5.462   4.796   1.462 -0.1598 -0.1598 -0.1060
28876SOL    HW190030   5.462   4.793   1.367 -1.9443  2.3554 -0.2631
28876SOL    HW290031   5.429   4.710   1.489  0.1021 -0.7958 -1.7226
28877SOL     OW90032   1.972   8.454   3.121 -0.0535 -0.2288 -0.4476
28877SOL    HW190033   1.988   8.398   3.045 -0.4903  0.1962 -0.8567
28877SOL    HW290034   1.992   8.543   3.090 -1.6588  0.1406 -0.5330
28878SOL     OW90035   5.444   2.343   1.094 -0.3332  0.1881 -1.3140
28878SOL    HW190036   5.507   2.329   1.023  1.4962  0.0479  0.2484
28878SOL    HW290037   5.438   2.258   1.138 -0.9754  0.4290 -0.9209
28879SOL     OW90038   1.614   9.667   2.604 -0.3288 -0.0743 -0.1058
28879SOL    HW190039   1.557   9.736   2.570  1.2544  1.8564  0.8781
28879SOL    HW290040   1.610   9.678   2.699  2.1012  0.5938 -0.0031
28880SOL     OW90041   2.988   5.059  10.658  0.6080 -0.0547  0.2154
28880SOL    HW190042   3.052   5.057  10.588  0.9459  2.5191  0.3716
28880SOL    HW290043   3.034   5.021  10.733  1.8846  1.4194  0.2311
28881SOL     OW90044   7.923   6.605   9.971  0.3865  0.1875 -0.4537
28881SOL    HW190045   7.849   6.613   9.911  0.4725 -1.1742 -0.7766
28881SOL    HW290046   8.000   6.623   9.917  0.3330  1.0814 -0.2405
28882SOL     OW90047   0.422   7.809   6.038 -0.1771 -0.1690  0.0267
28882SOL    HW190048   0.389   7.790   6.126  0.0434 -1.7289 -0.2039
28882SOL    HW290049   0.345   7.837   5.989 -0.4847 -0.2446  0.4584
28883SOL     OW90050   9.513   6.774   6.209  0.1903 -0.4271  0.4000
28883SOL    HW190051   9.439   6.826   6.178  0.3519  1.0234  2.2601
28883SOL    HW290052   9.478   6.722   6.281  0.9026  0.0342  1.0881
28884SOL     OW90053   6.029   6.892   4.873 -0.2033 -0.1186  0.0326
28884SOL    HW190054   6.120   6.869   4.887 -0.1804  0.4368  0.9009
28884SOL    HW290055   6.003   6.936   4.954 -1.2636 -0.3495 -0.1658
28885SOL     OW90056   3.361   1.465   7.865  0.2919 -0.4898  0.6002
28885SOL    HW190057   3.274   1.441   7.834 -0.0376  0.3409  0.8443
28885SOL    HW290058   3.417   1.391   7.841 -0.1529 -0.3415 -1.0013
28886SOL     OW90059   7.879   3.280   5.334 -0.8763  0.4980  0.3050
28886SOL    HW190060   7.972   3.261   5.335 -1.0422 -0.3822  1.5663
28886SOL    HW290061   7.872   3.364   5.289  0.5012  0.5185  0.0888
28887SOL     OW90062   1.656   2.662   5.479 -0.2040 -0.3608  0.3371
28887SOL    HW190063   1.733   2.618   5.515 -0.4040 -0.2476  0.9063
28887SOL    HW290064   1.679   2.755   5.481 -0.2453 -0.3489  0.2425
28888SOL     OW90065  10.844   1.276   8.420 -0.1548  0.4283  0.6987
28888SOL    HW190066  10.817   1.200   8.369 -0.0441  0.5172  0.5072
28888SOL    HW290067  10.920   1.246   8.470  0.6852  0.7744 -0.3442
28889SOL     OW90068   7.514  10.426   9.556 -0.0269 -0.7244 -0.4484
28889SOL    HW190069   7.561  10.342   9.565 -0.0323 -0.8300 -1.2968
28889SOL    HW290070   7.425  10.401   9.532 -0.3590 -0.5041  0.5564
28890SOL     OW90071   4.611   4.290   8.691  0.7031 -0.3502  0.3140
28890SOL    HW190072   4.672   4.289   8.764 -0.4387 -0.2025  1.2893
28890SOL    HW290073   4.610   4.381   8.662 -0.2550 -0.0036  1.3575
28891SOL     OW90074   1.482  10.418   7.289  0.2673  0.5013 -0.3320
28891SOL    HW190075   1.484  10.336   7.239 -0.8122 -0.7025  1.4926
28891SOL    HW290076   1.413  10.469   7.247 -2.1376 -1.3642  1.0364
28892SOL     OW90077   4.133   8.129   2.656  0.1251  0.2203 -0.6949
28892SOL    HW190078   4.086   8.046   2.651  0.8029 -0.0838 -3.1895
28892SOL    HW290079   4.080   8.182   2.716 -1.1024 -1.4862 -0.1741
28893SOL     OW90080   0.223   0.805  10.584 -0.1746 -0.2101 -0.5416
28893SOL    HW190081   0.217   0.789  10.489  0.0685  0.5085 -0.6832
28893SOL    HW290082   0.316   0.809  10.601 -0.2183 -0.5593 -0.2325
28894SOL     OW90083   6.550   4.582   8.756 -0.1865 -0.2682  0.5362
28894SOL    HW190084   6.630   4.536   8.728 -0.0983 -0.6731  1.4309
28894SOL    HW290085   6.537   4.554   8.846 -1.8706 -0.9552  0.1128
28895SOL     OW90086   4.438   6.745   0.432 -0.4766 -0.3752  0.2353
28895SOL    HW190087   4.531   6.766   0.430 -0.5018 -0.2062 -2.9230
28895SOL    HW290088   4.424   6.706   0.519  2.0092  1.6837  1.6749
28896SOL     OW90089  10.832   3.407   6.774 -0.2407  0.4880  0.4024
28896SOL    HW190090  10.812   3.428   6.684  0.6965 -1.6501 -0.3891
28896SOL    HW290091  10.835   3.311   6.776 -0.0202  0.4842  2.6505
28897SOL     OW90092   6.700   8.034   2.631 -0.4172  0.0692 -0.4063
28897SOL    HW190093   6.754   7.975   2.580 -2.2335 -2.1586  0.0640
28897SOL    HW290094   6.640   7.976   2.679  0.3535  2.0533  3.3125
28898SOL     OW90095   7.973   3.475   6.987  0.2361  0.0095  0.6003
28898SOL    HW190096   7.995   3.566   6.969 -3.5059  1.9709  4.2517
28898SOL    HW290097   7.892   3.459   6.938  0.8516 -1.3891 -0.0111
28899SOL     OW90098   9.127   1.962   6.006  0.1629 -0.0777 -0.2331
28899SOL    HW190099   9.139   1.950   6.100  3.0915 -1.6344 -0.6915
28899SOL    HW290100   9.096   1.876   5.975 -0.3024  0.2749 -0.7616
28900SOL     OW90101   1.240   5.328   8.630 -0.0251  0.1525  0.3888
28900SOL    HW190102   1.211   5.242   8.659 -2.6076  0.4992 -0.9126
28900SOL    HW290103   1.190   5.390   8.682  0.5711  0.8541  0.1563
28901SOL     OW90104   2.320   5.322   3.300 -0.3915  0.0847 -0.0087
28901SOL    HW190105   2.319   5.329   3.204 -0.3904  0.1607 -0.0035
28901SOL    HW290106   2.403   5.279   3.320  0.5783  1.8849  0.0695
28902SOL     OW90107   7.457  10.564  10.796 -0.6259  0.0521  0.4417
28902SOL    HW190108   7.468  10.635  10.733  1.4504  0.8521  1.6392
28902SOL    HW290109   7.507  10.591  10.873  0.4737 -2.7872  0.8477
28903SOL     OW90110   4.133   2.509   9.296  0.0194  0.3119 -0.0843
28903SOL    HW190111   4.125   2.433   9.238  0.2368  0.4952 -0.3607
28903SOL    HW290112   4.212   2.493   9.346  1.5401  1.5282 -1.9407
28904SOL     OW90113   0.796   1.044   5.272  0.6430 -0.1480 -0.1337
28904SOL    HW190114   0.759   1.048   5.360 -3.5628 -0.1363 -1.6826
28904SOL    HW290115   0.828   0.954   5.263  0.6461 -0.3026  1.1680
28905SOL     OW90116   7.871   2.243   0.444  0.2220  0.2617 -0.0099
28905SOL    HW190117   7.866   2.280   0.355  1.7274 -0.1885 -0.3224
28905SOL    HW290118   7.961   2.262   0.472  0.0025 -0.2969  1.1106
28906SOL     OW90119   5.025   8.854   0.845 -0.0076  0.0766 -0.4540
28906SOL    HW190120   5.014   8.911   0.922 -0.7247  1.4074 -1.4837
28906SOL    HW290121   4.978   8.900   0.775  2.5049  0.0519 -2.2610
28907SOL     OW90122   9.906   9.614   6.543  0.0869 -0.0652  0.3982
28907SOL    HW190123   9.850   9.603   6.466  0.7645  1.1434 -0.2916
28907SOL    HW290124   9.995   9.606   6.509  0.3851 -0.0553  1.1625
28908SOL     OW90125   0.366   0.885   4.151  0.3857 -0.4230  0.0256
28908SOL    HW190126   0.425   0.929   4.090  0.2350 -1.9791 -1.3255
28908SOL    HW290127   0.336   0.808   4.103  0.5690 -1.9440  2.2360
28909SOL     OW90128   4.999   2.681   0.816 -0.2162  0.1593  0.2260
28909SOL    HW190129   4.989   2.760   0.869 -0.9205 -1.2257  2.2799
28909SOL    HW290130   5.092   2.659   0.824 -0.5074 -0.6625  1.9541
28910SOL     OW90131   1.563   8.555   1.932  0.7227  0.1255 -0.4550
28910SOL    HW190132   1.558   8.480   1.991 -0.3134 -0.9280 -1.8030
28910SOL    HW290133   1.502   8.619   1.969 -1.2210 -1.1940 -1.2116
28911SOL     OW90134   8.838   5.135   9.222 -0.7028 -0.8638 -0.5129
28911SOL    HW190135   8.830   5.209   9.161 -0.0414 -1.6688 -1.6043
28911SOL    HW290136   8.918   5.153   9.271 -0.4625 -0.9287 -0.8803
28912SOL     OW90137   8.975   9.174   9.656 -0.2522  0.6704 -0.5355
28912SOL    HW190138   8.980   9.262   9.620 -0.3437  1.5734  1.5007
28912SOL    HW290139   9.033   9.176   9.732 -0.6382 -0.8746 -0.1560
28913SOL     OW90140   2.643   7.177   6.576 -0.0085 -0.1266  0.2672
28913SOL    HW190141   2.683   7.186   6.489 -0.5048  1.5815  0.1717
28913SOL    HW290142   2.575   7.111   6.565 -0.0925  0.1040 -0.6478
28914SOL     OW90143   3.707   4.335   2.800 -0.9931 -0.0356 -0.3803
28914SOL    HW190144   3.800   4.326   2.780 -0.1856  2.0821  1.9347
28914SOL    HW290145   3.662   4.288   2.729  1.7591  0.1224 -2.3790
28915SOL     OW90146   6.867  10.614   1.004  0.8125 -0.2659  0.3250
28915SOL    HW190147   6.866  10.545   0.938 -0.3753 -0.2228  0.2850
28915SOL    HW290148   6.814  10.685   0.967  1.9203  0.6373  0.4133
28916SOL     OW90149   3.004   1.592   0.283 -0.3781 -0.4066 -0.0963
28916SOL    HW190150   2.974   1.669   0.236  1.2640  0.0867 -0.4182
28916SOL    HW290151   2.939   1.525   0.265 -2.2828  1.0918  0.8461
28917SOL     OW90152   3.255   1.800   3.574 -0.8964 -0.7001 -0.7321
28917SOL    HW190153   3.238   1.816   3.667 -0.4644  2.1972 -1.0400
28917SOL    HW290154   3.351   1.802   3.567 -0.9356 -0.6296 -1.2576
28918SOL     OW90155   8.219   4.952   1.907 -0.3682  0.5624  0.4139
28918SOL    HW190156   8.143   5.007   1.888 -0.2835  0.3659 -0.5615
28918SOL    HW290157   8.190   4.896   1.979 -1.5265 -0.2091 -0.6047
28919SOL     OW90158   6.015   4.334   4.843  0.0954 -0.0079 -0.0680
28919SOL    HW190159   6.020   4.300   4.754 -0.5321  1.1464 -0.5634
28919SOL    HW290160   6.088   4.397   4.849  0.4022 -0.3931  0.3855
28920SOL     OW90161   4.098   3.761   7.338  0.1640  0.0225 -0.5429
28920SOL    HW190162   4.191   3.740   7.345 -0.0340 -0.8361 -0.3739
28920SOL    HW290163   4.091   3.814   7.258  1.1108  1.9980  0.5965
28921SOL     OW90164   7.056   5.804   3.691 -0.2132  0.3450 -0.5835
28921SOL    HW190165   7.112   5.777   3.763  1.1203  3.7036 -0.1542
28921SOL    HW290166   6.981   5.847   3.732 -1.4971 -1.1751 -1.2186
28922SOL     OW90167   9.991   8.154   8.794  0.0891 -0.3835 -0.4858
28922SOL    HW190168   9.920   8.116   8.844 -1.4149  0.1470 -2.1126
28922SOL    HW290169   9.963   8.244   8.777  2.7976  1.0575  1.8793
28923SOL     OW90170   8.101   6.673   7.856 -0.5638  0.2264  0.0436
28923SOL    HW190171   8.082   6.747   7.913 -1.1391  1.0777 -1.1907
28923SOL    HW290172   8.027   6.613   7.868  0.1632 -0.4309  1.4376
28924SOL     OW90173   1.910   9.776   8.433 -0.3378  0.6244  0.6365
28924SOL    HW190174   1.883   9.694   8.474  2.5848 -0.7526  0.0487
28924SOL    HW290175   1.845   9.792   8.364 -0.2061 -1.9640 -0.1611
28925SOL     OW90176   9.991   8.399  10.264  0.1523  0.4923 -0.6812
28925SOL    HW190177   9.995   8.485  10.307 -2.1303  1.2947 -1.9318
28925SOL    HW290178   9.915   8.356  10.302  0.2838 -0.3065 -1.2960
28926SOL     OW90179   2.323   5.277   6.793 -0.9926 -0.0219  0.6278
28926SOL    HW190180   2.402   5.329   6.775 -0.8867 -0.1592  0.6947
28926SOL    HW290181   2.351   5.212   6.857 -1.2063  0.0449  0.7906
28927SOL     OW90182   1.362   7.709   3.136  0.3295 -0.1621  0.1109
28927SOL    HW190183   1.336   7.786   3.087  0.8187  0.7905  1.2899
28927SOL    HW290184   1.313   7.637   3.096 -1.9528  1.1032  0.4629
28928SOL     OW90185   8.499   8.239   4.470  0.6352  0.1338  0.0918
28928SOL    HW190186   8.594   8.252   4.467  0.8577 -1.2539  0.2949
28928SOL    HW290187   8.468   8.303   4.534  1.1078  2.1511 -1.6234
28929SOL     OW90188  10.114   9.633   2.465  0.0362 -0.0443  0.1784
28929SOL    HW190189  10.135   9.553   2.512  1.9248  0.5916  0.5166
28929SOL    HW290190  10.066   9.604   2.388 -1.8854 -1.2196  1.7270
28930SOL     OW90191   2.874   8.541   8.493 -0.0120 -0.0853 -0.1658
28930SOL    HW190192   2.909   8.471   8.548  0.6054 -0.0929 -0.5599
28930SOL    HW290193   2.779   8.529   8.496  0.1081 -1.1550 -0.5178
28931SOL     OW90194   4.285   1.107  10.677 -0.2735 -0.2870 -0.1293
28931SOL    HW190195   4.275   1.089  10.771  1.5211 -0.6130  0.0394
28931SOL    HW290196   4.305   1.022  10.638  2.1952  0.2844 -0.2689
28932SOL     OW90197   5.751   7.610   9.573 -0.0923  0.3884 -0.3684
28932SOL    HW190198   5.663   7.623   9.538  0.3216  0.5464 -1.3886
28932SOL    HW290199   5.752   7.520   9.605 -0.2253 -0.0701 -1.6079
28933SOL     OW90200   0.978   2.479   4.092 -0.2930 -0.0219 -0.1690
28933SOL    HW190201   1.001   2.568   4.063 -1.2058 -0.2862 -1.7683
28933SOL    HW290202   0.936   2.492   4.177  0.6158  0.9535  0.1628
28934SOL     OW90203   6.918   5.060  10.695 -0.1197 -0.2186 -0.0043
28934SOL    HW190204   6.900   5.148  10.663  0.0579  0.0160  0.5237
28934SOL    HW290205   6.999   5.035  10.651 -0.0254 -0.0069  0.0448
28935SOL     OW90206   3.415   2.446   2.663 -0.9893  0.2587  0.6046
28935SOL    HW190207   3.453   2.374   2.614  0.7854  0.4255  1.6388
28935SOL    HW290208   3.459   2.443   2.748 -1.5756  1.9692  1.0133
28936SOL     OW90209   0.723   0.405   7.772  0.1384 -0.0166 -0.3577
28936SOL    HW190210   0.697   0.386   7.681  0.2502  0.3126 -0.4607
28936SOL    HW290211   0.806   0.359   7.783  0.0685 -0.1510 -0.3851
28937SOL     OW90212   3.776   9.181   0.177  0.0862 -0.3186 -0.2510
28937SOL    HW190213   3.708   9.122   0.210  0.1522  0.0238  0.5211
28937SOL    HW290214   3.844   9.180   0.244 -0.1833  1.0978  0.0663
28938SOL     OW90215   1.332   7.291   9.784 -0.0953 -0.1888  0.1918
28938SOL    HW190216   1.316   7.318   9.694 -1.0453 -0.7691  0.1776
28938SOL    HW290217   1.264   7.226   9.802 -1.5557  1.7587  2.1771
28939SOL     OW90218   2.048   0.730   5.241 -0.4104 -0.2650  0.6240
28939SOL    HW190219   1.973   0.767   5.194  0.9041  1.0350 -0.5629
28939SOL    HW290220   2.010   0.689   5.319 -2.2497  1.1678  0.5571
28940SOL     OW90221   5.941   5.173   0.828  0.0925  0.2991 -0.6285
28940SOL    HW190222   5.876   5.229   0.869  3.0218  2.0556  2.1191
28940SOL    HW290223   5.999   5.234   0.781  1.7189 -0.6908 -0.0132
28941SOL     OW90224   2.040   7.177   5.548 -0.0432 -0.1531 -0.0866
28941SOL    HW190225   2.028   7.247   5.484 -1.1348  2.6193  2.8781
28941SOL    HW290226   2.134   7.167   5.555  0.1398  1.0552 -0.5614
28942SOL     OW90227   2.073   4.897   4.861 -0.0913  0.3715 -0.3132
28942SOL    HW190228   2.039   4.919   4.948  1.2007  0.9518  0.0697
28942SOL    HW290229   2.166   4.880   4.875 -0.3661 -2.1739 -1.1634
28943SOL     OW90230   6.179   9.326   1.945 -0.5911  0.0159 -0.0527
28943SOL    HW190231   6.103   9.315   2.001  0.4691  0.3931  1.5285
28943SOL    HW290232   6.143   9.335   1.856 -2.3072 -0.6192  0.5447
28944SOL     OW90233   4.961   3.666   1.448 -0.2136  0.0933 -0.0863
28944SOL    HW190234   5.005   3.748   1.467  0.6032 -0.4988  0.6805
28944SOL    HW290235   4.901   3.652   1.522 -0.6889  0.2277 -0.4447
28945SOL     OW90236   2.446   8.745   5.954  0.0139  0.2654 -0.5607
28945SOL    HW190237   2.461   8.695   6.034  0.5179 -2.4685 -2.2240
28945SOL    HW290238   2.525   8.733   5.902 -0.3700  1.8087 -1.5923
28946SOL     OW90239   1.401   1.602   5.719  0.1741 -0.2094  0.1051
28946SOL    HW190240   1.320   1.621   5.766  0.2295 -1.8992  0.9739
28946SOL    HW290241   1.372   1.562   5.637  0.1202  0.6661 -0.3142
28947SOL     OW90242   4.433   7.684  10.635  0.3164  0.2565 -0.0851
28947SOL    HW190243   4.519   7.723  10.616 -0.2405  2.2647  1.2078
28947SOL    HW290244   4.451   7.618  10.702  0.9131  0.5475  0.0510
28948SOL     OW90245   9.103   1.724  10.593  0.0280 -0.2367  0.0987
28948SOL    HW190246   9.059   1.723  10.678 -1.5840 -0.3889 -0.6949
28948SOL    HW290247   9.083   1.810  10.557 -1.7976 -1.1969 -1.3281
28949SOL     OW90248   7.125   8.913   6.754  0.0681  0.4012  0.4625
28949SOL    HW190249   7.151   8.892   6.844  0.2369  0.1452  0.3563
28949SOL    HW290250   7.122   8.828   6.710 -0.2247  0.5046  0.2800
28950SOL     OW90251   6.314   2.993   8.506 -0.5408 -0.7903  0.2243
28950SOL    HW190252   6.297   3.082   8.474 -2.0521 -0.2235  2.3657
28950SOL    HW290253   6.273   2.936   8.441  0.2346  0.0584 -1.0493
28951SOL     OW90254   9.603   8.745   5.113 -0.0533  0.5434 -0.3211
28951SOL    HW190255   9.611   8.807   5.040 -1.2882  0.9431 -0.1374
28951SOL    HW290256   9.569   8.666   5.073 -1.2087  0.9213 -0.1299
28952SOL     OW90257   2.592   1.039   1.153  0.5690  0.1164 -0.6515
28952SOL    HW190258   2.579   1.019   1.246  0.6229  0.7003 -0.5122
28952SOL    HW290259   2.547   1.123   1.141  1.5103  0.5936 -0.9013
28953SOL     OW90260   3.363   3.058   3.539 -0.0962 -0.0074 -0.9236
28953SOL    HW190261   3.380   3.146   3.573  0.5324 -0.4900  0.0740
28953SOL    HW290262   3.448   3.013   3.546 -0.9933 -1.5290  1.1834
28954SOL     OW90263   3.334   6.994   8.787  0.2243 -0.2250 -0.4033
28954SOL    HW190264   3.272   7.066   8.778  0.1586 -0.3843 -1.3351
28954SOL    HW290265   3.410   7.021   8.736  0.8024 -0.1780  0.4613
28955SOL     OW90266   9.769   7.148   7.021 -0.1202 -0.8489  0.1012
28955SOL    HW190267   9.814   7.231   7.034 -0.6564 -0.2208 -1.7417
28955SOL    HW290268   9.838   7.081   7.026  0.5410 -0.1623  0.2111
28956SOL     OW90269   9.306   0.456   1.818 -0.1095  0.6478  0.0505
28956SOL    HW190270   9.253   0.459   1.739 -1.0886 -1.8524  0.5218
28956SOL    HW290271   9.382   0.403   1.794  0.1433  0.8075  0.4802
28957SOL     OW90272   9.331   4.109   8.546 -0.1926 -0.2456 -0.6529
28957SOL    HW190273   9.332   4.016   8.566 -0.4855  0.0827  1.0306
28957SOL    HW290274   9.257   4.144   8.595  0.9902  1.1515  0.2291
28958SOL     OW90275   9.823   3.398   9.899 -0.1835  0.4583  0.0752
28958SOL    HW190276   9.768   3.449   9.839  1.1262  2.4647  0.4844
28958SOL    HW290277   9.777   3.402   9.983 -2.2027 -2.6509 -0.7172
28959SOL     OW90278   5.271   3.447  10.080 -0.2349 -0.2492 -0.5214
28959SOL    HW190279   5.234   3.414   9.998  0.3163  1.0039 -1.3079
28959SOL    HW290280   5.362   3.419  10.078 -0.3768 -0.7441 -0.0384
28960SOL     OW90281   1.809   5.938   8.751  0.4638 -0.0399  0.1286
28960SOL    HW190282   1.888   5.967   8.704  0.0832  0.0419 -0.4742
28960SOL    HW290283   1.744   5.924   8.682 -0.0786 -0.0176  0.6271
28961SOL     OW90284   6.017   8.063   9.587  0.0413  0.1289 -0.0831
28961SOL    HW190285   6.076   8.127   9.546  0.0651  1.0776  1.3554
28961SOL    HW290286   6.017   8.086   9.680 -1.4355 -0.7958  0.1859
28962SOL     OW90287   9.996   5.090   1.182 -0.7432 -0.0161 -0.1584
28962SOL    HW190288  10.002   5.162   1.120  1.2878 -0.0578 -0.0642
28962SOL    HW290289   9.948   5.127   1.257 -0.3899  1.0011 -0.4216
28963SOL     OW90290   1.522  10.083   1.477 -0.1581 -0.1709 -0.1242
28963SOL    HW190291   1.562  10.076   1.390 -1.4332  0.0992 -0.7613
28963SOL    HW290292   1.472  10.003   1.487  0.2851 -0.3777  0.5478
28964SOL     OW90293   6.922   0.662  10.204 -0.2480  0.2271  0.2757
28964SOL    HW190294   6.919   0.742  10.257  1.0004  0.6338 -0.2218
28964SOL    HW290295   6.936   0.592  10.267 -3.2912  0.0891  0.9463
28965SOL     OW90296   0.793   2.711   9.359  0.3821 -0.0165 -0.7771
28965SOL    HW190297   0.779   2.790   9.412  0.4712 -0.4126 -0.1479
28965SOL    HW290298   0.842   2.742   9.283 -2.8198  1.2225 -2.5311
28966SOL     OW90299   4.582   9.542   2.059  0.0960 -0.1366 -0.2535
28966SOL    HW190300   4.678   9.543   2.058  0.1236  1.5813 -1.5553
28966SOL    HW290301   4.558   9.541   1.966 -1.1628 -0.6759  0.0634
28967SOL     OW90302   3.363   2.853   2.296  0.1866  0.0253  0.4694
28967SOL    HW190303   3.335   2.912   2.225 -0.6343  0.9404  1.5290
28967SOL    HW290304   3.283   2.836   2.346  0.2664 -2.5300 -0.1564
28968SOL     OW90305  10.427   2.384   2.569 -0.0099 -0.0512  0.1417
28968SOL    HW190306  10.388   2.366   2.654  2.1780 -0.0767  1.2073
28968SOL    HW290307  10.484   2.309   2.553  0.1412  0.2941 -1.0261
28969SOL     OW90308   5.469   0.288   4.151  0.6156 -0.2207  0.1524
28969SOL    HW190309   5.557   0.264   4.121  0.3688  0.3391 -1.0820
28969SOL    HW290310   5.474   0.383   4.163  0.3448 -0.2724  0.7150
28970SOL     OW90311   2.004   6.432   0.791  0.3109 -0.0750  0.5947
28970SOL    HW190312   1.939   6.483   0.743 -1.1135 -2.0795  0.2590
28970SOL    HW290313   2.068   6.408   0.724  0.6194  0.6517  0.6153
28971SOL     OW90314   6.126   1.436   5.314  0.1265 -0.3881  0.5721
28971SOL    HW190315   6.146   1.343   5.304 -0.8035 -0.5148 -0.2457
28971SOL    HW290316   6.211   1.477   5.326  0.8000 -1.0754 -1.3717
28972SOL     OW90317   1.004   9.213   5.117  0.0503 -0.3667  0.0315
28972SOL    HW190318   0.910   9.231   5.127  0.0683 -0.0798 -0.2788
28972SOL    HW290319   1.010   9.163   5.035  0.3119  0.9174 -0.7589
28973SOL     OW90320  10.062   8.971   7.605  0.2947 -0.4140 -0.0897
28973SOL    HW190321  10.099   8.998   7.521 -0.9970 -0.6366 -0.7495
28973SOL    HW290322   9.968   8.971   7.592  0.0787 -0.8510  1.2463
28974SOL     OW90323   6.391   4.895   4.964 -0.7608  0.3833 -0.4945
28974SOL    HW190324   6.358   4.893   4.874 -2.6453  1.5280  0.1354
28974SOL    HW290325   6.482   4.925   4.955 -0.8107  0.1304 -2.0446
28975SOL     OW90326   4.219   3.502   6.073 -0.2127  0.7143 -0.0717
28975SOL    HW190327   4.270   3.549   6.007 -0.1491 -1.2523 -1.5286
28975SOL    HW290328   4.275   3.502   6.150  0.4412  1.6557 -0.5278
28976SOL     OW90329  10.113   3.625   8.430  0.1125 -0.3744  1.1041
28976SOL    HW190330  10.089   3.539   8.395  0.7779 -0.4799  0.8841
28976SOL    HW290331  10.041   3.682   8.404 -1.2710 -1.2314  2.8770
28977SOL     OW90332   1.055   7.159   6.624  0.1125  0.1381  0.1550
28977SOL    HW190333   1.024   7.131   6.710  1.5442 -0.3655  0.5291
28977SOL    HW290334   0.984   7.214   6.590 -0.4993  0.3186  1.6383
28978SOL     OW90335  10.356   9.160   2.068  0.2009  0.3346 -0.1315
28978SOL    HW190336  10.425   9.186   2.128 -0.4765  1.8909  0.0140
28978SOL    HW290337  10.402   9.136   1.987  0.9925 -0.0899  0.4332
28979SOL     OW90338   3.737   6.147   0.650  0.6865 -0.1069  0.6215
28979SOL    HW190339   3.717   6.103   0.733  0.5718 -1.6431 -0.1723
28979SOL    HW290340   3.687   6.098   0.584  1.5193  0.4532 -0.4737
28980SOL     OW90341  10.720   8.574   4.309 -0.2630  0.3817 -1.0084
28980SOL    HW190342  10.643   8.567   4.365  1.5182 -0.7681  1.4811
28980SOL    HW290343  10.692   8.536   4.225 -2.1320 -0.8173  0.0840
28981SOL     OW90344   4.726   1.519  10.618  0.5536 -0.5319  0.1288
28981SOL    HW190345   4.708   1.466  10.696  1.7536  0.4131  1.0985
28981SOL    HW290346   4.805   1.479  10.581  0.7863 -0.1379  0.1989
28982SOL     OW90347   8.369   0.471   4.223  0.2065  0.3577 -0.0296
28982SOL    HW190348   8.401   0.535   4.160  1.9652  0.2679  0.7393
28982SOL    HW290349   8.391   0.508   4.308  0.3551 -0.8027  0.4499
28983SOL     OW90350   4.813   0.990   5.032  0.1371  0.0490 -0.3596
28983SOL    HW190351   4.785   0.963   5.119 -0.1164 -1.6608 -0.9257
28983SOL    HW290352   4.853   0.912   4.994  0.5041  0.8325 -1.6715
28984SOL     OW90353   9.121   1.414  10.279 -0.1978  0.6436 -0.0949
28984SOL    HW190354   9.072   1.442  10.356  1.6490  1.0935  0.9742
28984SOL    HW290355   9.103   1.480  10.212  0.1481  1.6395  0.7835
28985SOL     OW90356   8.196   9.198   8.374 -0.1829  0.4047  0.0061
28985SOL    HW190357   8.271   9.176   8.319 -1.1417 -1.0458 -0.8025
28985SOL    HW290358   8.162   9.280   8.336  1.5389  1.6359  1.0172
28986SOL     OW90359   2.166   3.076   6.070  0.3805  0.1282 -0.2048
28986SOL    HW190360   2.161   3.028   5.988  0.2525  2.7457 -1.8452
28986SOL    HW290361   2.085   3.126   6.073  0.7614  0.7147  1.1214
28987SOL     OW90362   7.342   3.543   0.760 -0.7485 -0.3811  0.1133
28987SOL    HW190363   7.295   3.512   0.837  0.4237 -0.3617  0.8567
28987SOL    HW290364   7.424   3.493   0.760 -0.4733  0.0449 -0.7834
28988SOL     OW90365   8.820   3.629   6.282 -0.1425  0.3019  0.0096
28988SOL    HW190366   8.878   3.645   6.207 -0.6357  2.9123  0.0576
28988SOL    HW290367   8.736   3.606   6.243  0.5590 -2.3935 -0.0804
28989SOL     OW90368   6.370   0.588   4.794  0.0330  0.2735 -0.0796
28989SOL    HW190369   6.426   0.604   4.718 -1.7421  0.1359 -1.4646
28989SOL    HW290370   6.283   0.615   4.766 -0.4624  1.5151  2.3788
28990SOL     OW90371   8.472   0.744   1.308 -0.5624  0.1256  0.5272
28990SOL    HW190372   8.492   0.720   1.217 -1.0606  0.2897  0.3742
28990SOL    HW290373   8.553   0.725   1.355  0.6620  2.6030 -0.4240
28991SOL     OW90374   4.491   1.316  10.444  0.4138 -0.3153  0.0697
28991SOL    HW190375   4.526   1.252  10.381 -0.7603 -1.8621  0.9169
28991SOL    HW290376   4.538   1.297  10.525 -0.2580 -0.4166  0.4407
28992SOL     OW90377   9.210   5.058   9.155  0.0388  0.0018  0.0323
28992SOL    HW190378   9.156   5.101   9.221 -0.9273  0.1680 -0.8455
28992SOL    HW290379   9.180   4.967   9.154  2.5716 -1.0036  2.4081
28993SOL     OW90380  10.531   3.703   1.125  0.1170 -0.0581 -0.1270
28993SOL    HW190381  10.474   3.640   1.081 -1.2882  1.1813 -0.1779
28993SOL    HW290382  10.525   3.782   1.072  2.6552 -0.1299 -0.6452
28994SOL     OW90383   9.833   3.934   0.072  0.0644 -0.0863  0.2398
28994SOL    HW190384   9.927   3.916   0.062 -0.2222 -1.7476  0.3436
28994SOL    HW290385   9.817   4.008   0.014  2.0302  2.3020  2.4480
28995SOL     OW90386   8.805   3.270   3.508  0.2417  0.3997 -0.1199
28995SOL    HW190387   8.840   3.295   3.422  3.3633 -1.0779  0.5695
28995SOL    HW290388   8.787   3.177   3.501 -0.9586  0.5688  0.4281
28996SOL     OW90389   2.894   0.903   5.189 -0.0134 -0.3633  0.7458
28996SOL    HW190390   2.983   0.872   5.169 -0.1698  0.9709 -2.6858
28996SOL    HW290391   2.905   0.995   5.211 -0.5059 -0.2575  0.5613
28997SOL     OW90392   7.911   2.873   3.751 -0.3781  0.7596  0.2146
28997SOL    HW190393   7.823   2.906   3.770 -0.6056  0.5595 -0.4356
28997SOL    HW290394   7.939   2.923   3.674  0.1845  1.0077  0.5807
28998SOL     OW90395   0.998   7.472   3.801 -0.1676 -0.3035 -0.6452
28998SOL    HW190396   1.040   7.405   3.855 -0.8780 -0.4567 -0.2761
28998SOL    HW290397   0.966   7.425   3.725  3.1163  0.2839 -2.5977
28999SOL     OW90398   9.453   3.447   3.883  0.7952  0.0944  0.2204
28999SOL    HW190399   9.469   3.463   3.790  0.4582  0.2267  0.1811
28999SOL    HW290400   9.357   3.445   3.890  0.8162 -1.0829  0.3676
29000SOL     OW90401   4.780   2.355   2.625 -0.4490  0.5262 -0.1006
29000SOL    HW190402   4.751   2.418   2.691 -1.3932  0.6402 -0.6024
29000SOL    HW290403   4.755   2.270   2.660 -0.2528  0.5215  0.0320
29001SOL     OW90404   0.720   5.775  10.824  0.2492 -0.2957  0.1126
29001SOL    HW190405   0.794   5.836  10.837 -1.4258  2.0600 -0.6764
29001SOL    HW290406   0.731   5.710  10.893  1.7285  1.3985  1.6036
29002SOL     OW90407   2.088   2.781   7.274  0.1803  0.2198 -0.7641
29002SOL    HW190408   2.044   2.751   7.354  0.0554  0.4664 -0.7408
29002SOL    HW290409   2.180   2.764   7.290  0.1558  0.2710 -0.5652
29003SOL     OW90410   9.751   5.863   6.159  0.4553 -0.1692 -0.2478
29003SOL    HW190411   9.762   5.768   6.156  0.6693 -0.2597  2.1331
29003SOL    HW290412   9.681   5.881   6.096  1.0211 -1.7621 -1.4104
29004SOL     OW90413   8.035   2.270   9.565  0.4009  0.1759 -0.2016
29004SOL    HW190414   7.976   2.211   9.519 -0.1486 -0.3706  1.1589
29004SOL    HW290415   8.020   2.252   9.657  0.8022  1.8814  0.2361
29005SOL     OW90416   1.660   0.959   3.231  0.4366 -0.1761 -0.0020
29005SOL    HW190417   1.585   0.999   3.276 -0.1804 -1.8804  0.6084
29005SOL    HW290418   1.633   0.952   3.140  0.4600  0.5567 -0.0682
29006SOL     OW90419   1.247   2.140   4.146  0.7398 -0.2941 -0.1586
29006SOL    HW190420   1.230   2.177   4.232 -2.3941 -1.5095 -0.1402
29006SOL    HW290421   1.256   2.046   4.161  0.0485 -0.5323 -1.1451
29007SOL     OW90422   0.448   3.402   6.706  0.3897  1.3282 -0.3955
29007SOL    HW190423   0.415   3.489   6.726  0.2515  1.5996 -1.7242
29007SOL    HW290424   0.402   3.376   6.626 -0.7813 -0.6548  0.8440
29008SOL     OW90425   7.172   2.788   8.143  0.0560  0.2038  0.4866
29008SOL    HW190426   7.230   2.726   8.186  2.0634  2.1175  0.6964
29008SOL    HW290427   7.221   2.819   8.067  0.0169  2.9588  1.4790
29009SOL     OW90428   5.995   7.313  10.363  0.3737 -0.2148 -0.3954
29009SOL    HW190429   5.906   7.314  10.326  1.2269  2.1902 -2.6209
29009SOL    HW290430   5.981   7.323  10.457 -1.7321 -1.6442 -0.4682
29010SOL     OW90431  10.318   8.855   2.374  0.2570 -0.2795  0.1701
29010SOL    HW190432  10.368   8.936   2.377 -1.0989  0.6002 -0.1608
29010SOL    HW290433  10.373   8.791   2.420  1.3888  0.7821  0.3455
29011SOL     OW90434   6.132   1.973   2.070 -0.0358 -0.1951  0.1961
29011SOL    HW190435   6.212   1.965   2.120  0.5637  0.2437 -0.6632
29011SOL    HW290436   6.133   2.063   2.037 -1.6213  0.3092  1.3785
29012SOL     OW90437   7.509  10.334   0.997  0.2443 -0.1137  0.3099
29012SOL    HW190438   7.471  10.248   0.977  0.6121 -0.0278 -0.8998
29012SOL    HW290439   7.461  10.395   0.941  1.4291  0.1344 -0.5057
29013SOL     OW90440   7.654   6.853   2.299  0.0843  0.0889 -0.0330
29013SOL    HW190441   7.717   6.924   2.312  0.0742  0.4948 -1.8913
29013SOL    HW290442   7.571   6.897   2.281 -0.2559 -0.4146  0.3032
29014SOL     OW90443   9.444   4.256   6.192  0.2753  0.0843 -0.7542
29014SOL    HW190444   9.362   4.299   6.216 -0.3414 -1.6755  0.5781
29014SOL    HW290445   9.505   4.281   6.261  0.2550 -0.1889 -0.6323
29015SOL     OW90446   8.521   8.265   4.173 -0.5076 -0.2979  0.1712
29015SOL    HW190447   8.473   8.347   4.188  0.2300  0.4711 -1.4770
29015SOL    HW290448   8.522   8.222   4.259 -1.2997  1.2054  0.9685
29016SOL     OW90449   9.934   0.971   8.113 -0.4818 -0.0961  0.0971
29016SOL    HW190450   9.969   0.986   8.025 -0.1040 -3.0843 -0.3912
29016SOL    HW290451  10.009   0.983   8.171 -0.4298  0.6540 -0.1159
29017SOL     OW90452   3.716   3.457   8.005 -0.4147 -0.1386  0.2362
29017SOL    HW190453   3.669   3.397   7.946 -1.6778  1.3107 -0.2866
29017SOL    HW290454   3.654   3.474   8.076 -1.2274  2.7028 -1.0360
29018SOL     OW90455   2.073   8.364   2.273  0.2330  0.0900 -0.2278
29018SOL    HW190456   2.021   8.445   2.276 -1.0289 -0.5396 -2.7730
29018SOL    HW290457   2.038   8.311   2.346  0.2407  1.3102  0.6976
29019SOL     OW90458   6.285   9.609   2.346 -0.2114 -0.3607 -0.1931
29019SOL    HW190459   6.265   9.668   2.273  0.0682 -1.3306 -1.0730
29019SOL    HW290460   6.377   9.627   2.366 -0.4876  0.4317  0.4342
29020SOL     OW90461  10.885   3.821   1.104  0.1831  0.1226 -0.3185
29020SOL    HW190462  10.933   3.755   1.153 -1.4026 -1.3751 -0.6879
29020SOL    HW290463  10.883   3.897   1.162 -0.4168 -1.1248  1.3838
29021SOL     OW90464   7.170   7.453  10.153 -0.8420  0.2774  0.5817
29021SOL    HW190465   7.235   7.473  10.221 -1.3202  1.4833  0.7151
29021SOL    HW290466   7.215   7.473  10.071  0.2974 -2.6868  0.3441
29022SOL     OW90467  10.139   7.020   9.632 -0.2308  0.4603 -0.3819
29022SOL    HW190468  10.221   7.026   9.681  0.1037 -0.1503 -0.8490
29022SOL    HW290469  10.112   7.110   9.619  0.4951  0.6754 -0.4263
29023SOL     OW90470   2.053  10.050   1.165  0.1231 -0.4796  0.6349
29023SOL    HW190471   2.139  10.008   1.156  0.0731 -0.4919  0.1659
29023SOL    HW290472   2.026  10.067   1.075 -0.2079 -0.1493  0.7946
29024SOL     OW90473   4.531   0.140   9.533  0.6239 -0.4083 -0.0967
29024SOL    HW190474   4.608   0.104   9.579  1.1923  1.2603  0.3067
29024SOL    HW290475   4.523   0.230   9.565 -2.2315 -0.8607  0.7714
29025SOL     OW90476   4.652   5.507  10.606  0.3126 -0.0497  0.4725
29025SOL    HW190477   4.580   5.564  10.632 -0.1481  0.1334 -1.0900
29025SOL    HW290478   4.730   5.548  10.643 -0.3196  0.0506  1.7174
29026SOL     OW90479   4.705   2.851   7.776 -0.3087  0.0048  0.3689
29026SOL    HW190480   4.660   2.931   7.804 -0.8625 -0.7650  1.7960
29026SOL    HW290481   4.660   2.826   7.695  0.4294  1.5701 -0.5745
29027SOL     OW90482   9.419   6.391  10.259  0.0382 -0.6716 -0.4481
29027SOL    HW190483   9.490   6.334  10.229 -0.5998 -1.0906 -1.1836
29027SOL    HW290484   9.437   6.475  10.216  0.9465 -0.3081  0.5926
29028SOL     OW90485  10.237   4.336   7.831  0.6010 -0.8691 -0.4115
29028SOL    HW190486  10.154   4.385   7.827  1.4961  0.8419  0.8935
29028SOL    HW290487  10.210   4.245   7.846 -1.0554 -0.2069  1.0110
29029SOL     OW90488   5.200   7.949   5.406  0.1654  0.4119  0.4512
29029SOL    HW190489   5.272   7.929   5.465  0.0196 -0.4825  0.3291
29029SOL    HW290490   5.148   7.869   5.403 -0.8947  1.0774  0.6146
29030SOL     OW90491   3.440   5.246   9.667 -0.3594  0.1968 -0.5559
29030SOL    HW190492   3.401   5.163   9.691  1.8945 -1.5767 -2.4561
29030SOL    HW290493   3.532   5.225   9.651  0.6581  3.3949  0.3449
29031SOL     OW90494   9.012   1.572   0.675 -0.2462 -0.3370 -0.1742
29031SOL    HW190495   8.991   1.665   0.678  0.2137 -0.2449  1.0545
29031SOL    HW290496   9.033   1.554   0.584 -0.0149  0.8385 -0.3608
29032SOL     OW90497   4.738   4.444   8.904 -0.4602 -0.2985 -0.5411
29032SOL    HW190498   4.769   4.497   8.977  2.3349 -1.8428 -0.4721
29032SOL    HW290499   4.657   4.487   8.876  1.5415  3.9904 -0.5566
29033SOL     OW90500   1.928   7.031  10.732 -0.1705 -0.4557  0.5239
29033SOL    HW190501   1.920   6.956  10.791 -2.9619  0.1279  0.9833
29033SOL    HW290502   1.855   7.023  10.672  0.5796  0.8977 -0.6317
29034SOL     OW90503  10.541   3.034  10.259 -0.2038 -0.1843 -0.2929
29034SOL    HW190504  10.621   3.022  10.310  0.3038  2.8867 -0.1667
29034SOL    HW290505  10.470   3.014  10.320  0.4257 -0.8278  0.2459
29035SOL     OW90506   2.001   7.235  10.875  0.6730 -0.2365 -0.1439
29035SOL    HW190507   2.004   7.157  10.819 -1.3903  0.2503 -1.0338
29035SOL    HW290508   2.092   7.248  10.903  1.5916 -1.2145 -2.4056
29036SOL     OW90509   9.079   5.339   2.200 -0.0022  0.1292 -0.3493
29036SOL    HW190510   9.152   5.355   2.260 -1.8450  1.9089  1.5609
29036SOL    HW290511   9.046   5.252   2.225 -1.0937  1.0679  1.7271
29037SOL     OW90512   4.041   2.612   5.101 -0.4513 -0.6674  0.0836
29037SOL    HW190513   3.962   2.621   5.048 -0.6438  0.0540  0.4782
29037SOL    HW290514   4.107   2.577   5.040 -0.6157  0.3077 -0.6893
29038SOL     OW90515   7.982   9.137   2.048  0.4135 -0.4745  0.7942
29038SOL    HW190516   8.060   9.099   2.088  0.1586  0.6419  2.4512
29038SOL    HW290517   7.909   9.104   2.101  0.0718  1.0791  1.3494
29039SOL     OW90518   8.213  10.458   1.342 -0.0411  0.9956 -0.6847
29039SOL    HW190519   8.229  10.379   1.394  0.7134  0.9909 -0.9265
29039SOL    HW290520   8.124  10.485   1.368 -0.5012 -0.1989 -0.9550
29040SOL     OW90521  10.813   6.226   9.147 -0.0277 -0.3404  0.0841
29040SOL    HW190522  10.781   6.214   9.237 -0.2473 -0.8261 -0.0556
29040SOL    HW290523  10.847   6.141   9.122  3.3319  0.6209  0.9476
29041SOL     OW90524   7.567   6.785   6.066  0.3663 -0.2284 -0.1423
29041SOL    HW190525   7.588   6.694   6.045 -0.9945 -1.1066  1.9633
29041SOL    HW290526   7.501   6.810   6.001  0.3427 -0.9281 -0.3986
29042SOL     OW90527   3.796  10.197   5.068  0.3867  0.1143 -0.0610
29042SOL    HW190528   3.763  10.282   5.099  0.8529  0.2796 -0.0069
29042SOL    HW290529   3.783  10.138   5.143  1.3862  0.4826  0.4267
29043SOL     OW90530   8.345   7.699   8.719  0.2419  0.2641 -0.7414
29043SOL    HW190531   8.313   7.671   8.805 -0.3329 -0.2700 -1.1221
29043SOL    HW290532   8.282   7.664   8.657  1.8585 -1.3431 -1.5788
29044SOL     OW90533   2.820   2.797   1.065 -0.0871  0.1884 -0.0009
29044SOL    HW190534   2.733   2.757   1.056  0.5719 -1.7809  1.6952
29044SOL    HW290535   2.834   2.803   1.159  1.3786  1.0531 -0.2433
29045SOL     OW90536   6.969   8.696   0.452  0.2714  0.0756 -0.1299
29045SOL    HW190537   6.929   8.725   0.534  1.5774  0.4876  0.3823
29045SOL    HW290538   6.920   8.741   0.384  0.1243  0.8822  0.4979
29046SOL     OW90539   0.427   7.600   4.416 -0.9132 -0.1039 -0.1170
29046SOL    HW190540   0.409   7.506   4.409 -0.1914 -0.1944 -0.8850
29046SOL    HW290541   0.374   7.640   4.348  1.2247 -0.3216 -2.0427
29047SOL     OW90542  10.687   9.120  10.047  0.2496  0.8705 -0.2660
29047SOL    HW190543  10.778   9.091  10.048  0.1772  0.6167 -0.8283
29047SOL    HW290544  10.692   9.214  10.033  0.3823  0.6022 -2.2659
29048SOL     OW90545   8.147   5.905   1.999  0.3780 -0.2455 -0.2901
29048SOL    HW190546   8.219   5.848   2.025 -0.8961 -1.0735  1.6740
29048SOL    HW290547   8.070   5.870   2.044 -0.7995  2.0366 -0.3361
29049SOL     OW90548   3.150   1.244   9.678  0.4266 -0.4177  0.8145
29049SOL    HW190549   3.170   1.152   9.661  1.7381 -0.3243  1.7034
29049SOL    HW290550   3.102   1.273   9.600  0.0851 -1.8178  0.4822
29050SOL     OW90551   3.301   4.262   6.544 -0.3052 -0.6537 -0.2068
29050SOL    HW190552   3.237   4.211   6.594  0.5053 -0.6765  0.8412
29050SOL    HW290553   3.254   4.342   6.519 -1.0293 -1.0944 -0.2912
29051SOL     OW90554   2.498  10.180   8.541 -0.3294 -0.3553  0.2679
29051SOL    HW190555   2.416  10.172   8.492 -0.7918  0.8486  0.8235
29051SOL    HW290556   2.521  10.089   8.563 -2.5277 -0.6338  1.7476
29052SOL     OW90557   1.815   3.185   7.202 -0.1952 -0.0987 -0.0311
29052SOL    HW190558   1.727   3.206   7.169 -0.1388 -0.1729 -0.2312
29052SOL    HW290559   1.804   3.100   7.246 -0.7971  1.1081  2.2988
29053SOL     OW90560   4.883   6.794   8.855 -0.1636  0.1268 -0.0342
29053SOL    HW190561   4.978   6.805   8.858 -0.1292  0.4264 -1.3076
29053SOL    HW290562   4.848   6.881   8.873 -0.2054 -0.0108  0.5610
29054SOL     OW90563   6.979   6.353   0.368 -0.4566 -0.7417 -0.1932
29054SOL    HW190564   6.976   6.382   0.277  3.5256  0.0233 -0.2388
29054SOL    HW290565   6.942   6.426   0.418 -0.9221 -0.3745 -1.0592
29055SOL     OW90566   3.621   0.232   9.452  0.0043 -0.0315  0.2205
29055SOL    HW190567   3.657   0.170   9.515 -1.4255 -0.9589  0.1788
29055SOL    HW290568   3.670   0.313   9.467  0.8625 -0.7291  1.3375
29056SOL     OW90569   2.753   3.826  10.817  0.3086 -0.0710 -0.8095
29056SOL    HW190570   2.784   3.903  10.864 -2.4764  1.1468 -0.7300
29056SOL    HW290571   2.742   3.856  10.726 -1.4441 -0.0753 -0.6463
29057SOL     OW90572   3.498   2.994   5.684 -0.0289 -0.5028  0.5623
29057SOL    HW190573   3.557   3.015   5.612 -1.6413 -0.4924 -0.8139
29057SOL    HW290574   3.547   2.933   5.739  1.2619 -0.4590 -0.5056
29058SOL     OW90575  10.573   6.396   3.543 -0.5150 -0.0406  0.3347
29058SOL    HW190576  10.511   6.329   3.513  0.6205  0.2272 -3.0225
29058SOL    HW290577  10.655   6.348   3.556 -0.7766 -0.0039  2.5933
29059SOL     OW90578   0.540   3.731   6.207  0.3803  0.2479 -0.0246
29059SOL    HW190579   0.482   3.703   6.137  0.3491  1.2738 -0.4381
29059SOL    HW290580   0.621   3.682   6.192  0.1750  0.0228 -0.4243
29060SOL     OW90581   5.846   2.405   4.032 -0.1829  0.0729 -0.6036
29060SOL    HW190582   5.870   2.323   4.076  1.7324 -0.7753 -3.0206
29060SOL    HW290583   5.915   2.467   4.059  0.5448 -0.2293 -1.7036
29061SOL     OW90584   7.037   5.430   4.612  0.1697 -0.0812  0.2713
29061SOL    HW190585   7.063   5.422   4.704  0.6157  0.0191  0.1548
29061SOL    HW290586   6.949   5.467   4.616  0.2491  0.0753  0.6513
29062SOL     OW90587   8.975   7.496   7.051  0.4910  0.0747 -0.6589
29062SOL    HW190588   8.938   7.409   7.063  0.5068  0.0945 -0.4633
29062SOL    HW290589   8.900   7.556   7.060  0.9051  0.3029  2.2146
29063SOL     OW90590   6.919   1.026  10.623  0.6048  0.0237  0.3938
29063SOL    HW190591   6.855   0.966  10.661  0.5538  0.5596  1.1665
29063SOL    HW290592   6.866   1.092  10.578  0.6038  0.4738  1.0434
29064SOL     OW90593   8.566   2.086   0.882  0.3957 -0.7076 -0.2065
29064SOL    HW190594   8.505   2.159   0.873  1.3580  0.1017 -0.3289
29064SOL    HW290595   8.542   2.044   0.965  1.1949  1.0855  1.0010
29065SOL     OW90596   0.315   3.252   2.060 -0.6039 -0.2467 -0.3946
29065SOL    HW190597   0.235   3.257   2.008 -1.4092 -1.1911  0.7012
29065SOL    HW290598   0.329   3.159   2.075  0.1034 -0.0419  0.3169
29066SOL     OW90599   0.469   0.186   0.064 -0.6324  0.0998 -0.1441
29066SOL    HW190600   0.405   0.248   0.099 -0.6966 -0.8032  1.4303
29066SOL    HW290601   0.474   0.117   0.130 -1.5792 -2.3158 -2.4215
29067SOL     OW90602   2.350   3.106   8.259 -0.7165 -0.0631  0.4504
29067SOL    HW190603   2.318   3.189   8.224  1.0768  1.0843  1.3525
29067SOL    HW290604   2.430   3.130   8.305  1.1176 -2.6129 -1.1532
29068SOL     OW90605   8.183   7.040   1.692 -0.2459 -0.5989  0.3951
29068SOL    HW190606   8.188   6.975   1.762 -2.7634 -0.9239  0.3460
29068SOL    HW290607   8.227   6.998   1.618  1.1969 -0.8115  1.3264
29069SOL     OW90608  10.063   2.122   6.408 -0.2226  0.1878  0.5028
29069SOL    HW190609   9.994   2.085   6.464 -0.5881  1.4981  0.9685
29069SOL    HW290610  10.039   2.214   6.399  1.6389  0.7704  0.9562
29070SOL     OW90611  10.682   9.767   1.318 -0.0809 -0.1943  0.0381
29070SOL    HW190612  10.703   9.727   1.234 -1.5857 -2.0991  0.4827
29070SOL    HW290613  10.767   9.783   1.359  0.6739  0.6801 -1.7672
29071SOL     OW90614   9.640   2.356   5.161  0.2846 -0.4876  0.1100
29071SOL    HW190615   9.600   2.416   5.224  2.4887 -0.4188  1.5745
29071SOL    HW290616   9.725   2.396   5.142  1.5581 -2.7722  0.6299
29072SOL     OW90617  10.533   2.219   7.055  0.2493  0.0784  0.6118
29072SOL    HW190618  10.544   2.299   7.004  1.6476  0.5491  1.6022
29072SOL    HW290619  10.570   2.150   7.000 -2.7048 -0.3071 -1.1114
29073SOL     OW90620   4.717  10.443   1.384 -0.1500 -0.3146  0.1078
29073SOL    HW190621   4.798  10.426   1.337 -1.2609 -0.9298 -1.6731
29073SOL    HW290622   4.678  10.356   1.397 -2.4820  0.1589 -2.7979
29074SOL     OW90623   7.420   6.106   1.988  0.3098  0.3643  0.1204
29074SOL    HW190624   7.477   6.033   2.015  0.2254  1.1418  2.6730
29074SOL    HW290625   7.451   6.129   1.900  1.6575 -1.4454  0.0572
29075SOL     OW90626   5.936   2.025   0.785 -0.2378  0.0471  0.3204
29075SOL    HW190627   5.995   2.100   0.777  0.7084 -0.8807 -2.9698
29075SOL    HW290628   5.981   1.965   0.845  1.4487  0.0584 -0.8581
29076SOL     OW90629   9.073   0.666   1.747  0.0233 -0.5304  0.0374
29076SOL    HW190630   9.118   0.664   1.663 -0.4706  1.4128 -0.3324
29076SOL    HW290631   9.126   0.724   1.801 -1.4678  1.0317 -0.1017
29077SOL     OW90632   7.206   9.908   3.249 -0.1100  0.1866 -0.3154
29077SOL    HW190633   7.161   9.842   3.301  3.0594 -1.5876  0.4445
29077SOL    HW290634   7.235   9.862   3.170  0.4307  1.1879 -0.7283
29078SOL     OW90635   0.919   2.530   0.365  0.1774  0.0636 -0.4773
29078SOL    HW190636   0.978   2.579   0.423 -0.3887  0.5397 -0.3008
29078SOL    HW290637   0.972   2.513   0.287  0.1360  1.6956 -0.9032
29079SOL     OW90638   8.831   2.765   1.348 -0.0057 -0.1607  0.0648
29079SOL    HW190639   8.890   2.815   1.404  0.9500 -0.9304 -0.2278
29079SOL    HW290640   8.787   2.704   1.408 -1.4897  1.2609  0.4929
29080SOL     OW90641   8.749   7.704   0.786 -0.2359  0.0057 -0.0896
29080SOL    HW190642   8.683   7.663   0.841  1.0458 -1.1854  0.6192
29080SOL    HW290643   8.705   7.720   0.702 -1.3015 -1.0955  0.2535
29081SOL     OW90644   2.194  10.328   0.913 -0.2356  0.2561  0.1632
29081SOL    HW190645   2.159  10.239   0.909 -2.1627  0.9559  0.4954
29081SOL    HW290646   2.175  10.365   0.827 -0.0449  0.5655  0.2532
29082SOL     OW90647   5.364   7.901   3.180  0.1123  0.3744  0.5562
29082SOL    HW190648   5.288   7.868   3.133  1.0433 -0.4878 -0.3926
29082SOL    HW290649   5.329   7.929   3.265 -1.8324  3.0786 -0.9582
29083SOL     OW90650  10.614   6.089   4.902 -0.1125 -0.2349 -0.4503
29083SOL    HW190651  10.580   6.173   4.871 -0.7062 -0.4070 -0.2898
29083SOL    HW290652  10.659   6.052   4.827  1.5389  0.9199 -0.0902
29084SOL     OW90653   0.508   2.939   9.344  0.1606 -0.4371 -0.0129
29084SOL    HW190654   0.571   2.926   9.415  0.3406 -2.7353 -0.5120
29084SOL    HW290655   0.562   2.943   9.265 -0.1811 -0.1505 -0.2335
29085SOL     OW90656   5.502   8.389   0.366 -0.1624 -0.4948  0.2273
29085SOL    HW190657   5.454   8.347   0.437 -1.1486  0.4407  0.1419
29085SOL    HW290658   5.436   8.441   0.320  0.3952 -1.2883 -1.5459
29086SOL     OW90659   1.803  10.041   8.768  0.3072  0.5234 -0.6403
29086SOL    HW190660   1.844   9.978   8.827  0.3413  0.0747 -1.1451
29086SOL    HW290661   1.849  10.123   8.787  0.9425  0.1851 -0.6782
29087SOL     OW90662  10.669   7.561   2.100 -0.3074 -0.4031  0.3168
29087SOL    HW190663  10.684   7.579   2.007 -0.7786  0.2485  0.3551
29087SOL    HW290664  10.584   7.602   2.119  0.1079  0.0990  1.1921
29088SOL     OW90665   8.925   4.582   1.826  0.2535 -0.4150  0.5183
29088SOL    HW190666   8.918   4.586   1.730  0.8952  1.1345  0.4965
29088SOL    HW290667   8.929   4.489   1.846  1.9389 -0.7720 -1.1333
29089SOL     OW90668   7.197   5.766   3.926  0.5527 -0.4442 -0.4682
29089SOL    HW190669   7.231   5.848   3.962 -0.0806 -1.0833  1.7383
29089SOL    HW290670   7.246   5.698   3.972  0.7482 -1.3324 -1.9372
29090SOL     OW90671   8.967   5.712   9.740  0.8097  0.6357 -0.3686
29090SOL    HW190672   9.036   5.649   9.721  0.2574 -1.0838  2.7398
29090SOL    HW290673   8.886   5.663   9.724  0.3733  0.7781  1.2424
29091SOL     OW90674   9.622   8.129   8.635 -0.1410  0.1558  0.2586
29091SOL    HW190675   9.567   8.081   8.697 -2.2660  2.1394  0.0384
29091SOL    HW290676   9.606   8.087   8.550 -1.4907  0.7824  0.1759
29092SOL     OW90677   3.154   1.179   5.504 -0.4574  0.3958  0.1396
29092SOL    HW190678   3.227   1.218   5.553 -0.6624  0.1652  0.6339
29092SOL    HW290679   3.083   1.172   5.567 -0.2223 -1.4166  0.2674
29093SOL     OW90680   4.707   9.410   0.518  0.0337 -0.3237 -0.3354
29093SOL    HW190681   4.736   9.414   0.609  1.5304  0.6201 -0.8109
29093SOL    HW290682   4.679   9.499   0.498 -0.6383 -0.6134 -0.7000
29094SOL     OW90683   2.608   4.792   8.961  0.2558  0.0458  0.1485
29094SOL    HW190684   2.566   4.775   9.046 -0.0127  0.8404  0.1868
29094SOL    HW290685   2.698   4.763   8.973  0.2256  0.1663  0.7186
29095SOL     OW90686   6.914   4.000   5.776 -0.2929 -0.1060  0.0356
29095SOL    HW190687   6.833   3.964   5.810 -0.2350 -0.7730 -0.5269
29095SOL    HW290688   6.945   3.936   5.712  0.9753 -0.1475  0.6565
29096SOL     OW90689   4.474   4.142   6.279 -0.1934 -0.7135 -0.0042
29096SOL    HW190690   4.534   4.167   6.209 -0.4214 -1.1513 -0.3623
29096SOL    HW290691   4.491   4.205   6.349  0.5610 -0.7299 -0.1625
29097SOL     OW90692   9.437   2.755   4.387  0.3589 -0.4170  0.1951
29097SOL    HW190693   9.342   2.750   4.382  0.4524 -2.6487 -0.1396
29097SOL    HW290694   9.459   2.835   4.339 -1.2816 -0.3320 -0.4879
29098SOL     OW90695   6.941  10.166   0.043  0.0249  0.0946 -0.3947
29098SOL    HW190696   6.902  10.150  -0.043 -1.3580  1.0666  0.0152
29098SOL    HW290697   6.866  10.162   0.103  1.1089 -1.6746  0.9263
29099SOL     OW90698  10.298   5.425   1.205 -0.0403 -0.1889  0.5907
29099SOL    HW190699  10.313   5.331   1.207  1.9694  0.0179 -0.9047
29099SOL    HW290700  10.210   5.435   1.170 -0.8222 -1.5021  2.0829
29100SOL     OW90701   4.685   4.875   8.829 -0.2127 -0.4520 -0.6899
29100SOL    HW190702   4.779   4.860   8.833 -0.1417  0.1849  0.5518
29100SOL    HW290703   4.652   4.841   8.912 -0.9583  0.0981 -0.7499
29101SOL     OW90704   5.098   8.959   1.469  0.2368  0.6559 -0.3710
29101SOL    HW190705   5.120   8.914   1.551 -0.1201  0.4075 -0.4120
29101SOL    HW290706   5.156   9.035   1.468  1.1098 -0.0022 -0.4868
29102SOL     OW90707   6.802   8.998   4.712  0.3909  0.0874 -0.4049
29102SOL    HW190708   6.863   9.049   4.765 -1.1462  1.0141  0.5790
29102SOL    HW290709   6.853   8.923   4.681  2.2007  1.2232 -0.2926
29103SOL     OW90710   7.043   5.074   9.511 -0.0554  0.8016  0.0514
29103SOL    HW190711   7.130   5.039   9.493 -0.2862  0.3413 -0.2007
29103SOL    HW290712   7.055   5.133   9.585 -0.0490 -1.7615  2.2465
29104SOL     OW90713   1.615   2.697   7.006 -0.1138 -0.0422 -0.0614
29104SOL    HW190714   1.611   2.786   7.041 -0.0693 -0.1587  0.2451
29104SOL    HW290715   1.707   2.686   6.979  0.4888 -0.7859  2.0469
29105SOL     OW90716   9.439   4.706   5.818 -0.7426 -0.6178  0.6106
29105SOL    HW190717   9.378   4.648   5.772 -1.0577  0.0509  0.1723
29105SOL    HW290718   9.384   4.778   5.849 -0.3268 -0.4655  1.0000
29106SOL     OW90719  10.159   0.633   8.190  0.1046  0.3599 -0.0640
29106SOL    HW190720  10.163   0.621   8.095 -1.6807  0.0033 -0.1318
29106SOL    HW290721  10.206   0.558   8.225 -0.5220 -0.3326 -0.6622
29107SOL     OW90722  10.468   6.293   2.637  0.2218 -0.4987 -0.0235
29107SOL    HW190723  10.439   6.215   2.685  0.1631  0.3687  1.4064
29107SOL    HW290724  10.563   6.282   2.630  0.0393 -1.4967 -1.3471
29108SOL     OW90725   1.853   8.269   7.088  0.2179 -0.2951  0.5487
29108SOL    HW190726   1.858   8.358   7.124  2.0105 -0.3828  0.6466
29108SOL    HW290727   1.927   8.223   7.129  0.7373 -1.1538 -1.2518
29109SOL     OW90728   9.713   3.223   0.079  0.4166 -0.6389  0.0517
29109SOL    HW190729   9.803   3.237   0.051  0.4171  1.3157  0.8814
29109SOL    HW290730   9.661   3.276   0.019  0.1384  0.8944  1.5740
29110SOL     OW90731   6.856   2.436   6.470 -0.3776  0.5488 -0.1780
29110SOL    HW190732   6.906   2.357   6.492  0.4209  0.6737 -1.4261
29110SOL    HW290733   6.893   2.504   6.526 -0.2954  0.2746  0.1043
29111SOL     OW90734   7.297   2.588  10.314  0.2551 -0.5350  0.1686
29111SOL    HW190735   7.271   2.591  10.406 -1.3214  0.1079 -0.2479
29111SOL    HW290736   7.227   2.635  10.268  1.7778  0.4986 -1.2035
29112SOL     OW90737  10.913  10.042   8.612  0.3425  0.0647  0.2582
29112SOL    HW190738  10.866  10.012   8.690  2.4331  1.6368  2.2385
29112SOL    HW290739  10.991  10.085   8.646  0.8385  1.7437 -2.6904
29113SOL     OW90740   5.394   3.181   1.726  0.4125 -0.2015  0.2997
29113SOL    HW190741   5.311   3.152   1.688  0.3707  1.3015 -0.8685
29113SOL    HW290742   5.460   3.125   1.686  0.0088 -1.2997  1.1163
29114SOL     OW90743   0.751   0.411   8.294 -0.0745  0.1650  0.9411
29114SOL    HW190744   0.699   0.466   8.352  0.8665  1.1725  0.8521
29114SOL    HW290745   0.749   0.324   8.335 -1.9606  0.1045  0.8384
29115SOL     OW90746   6.129  10.836   6.440 -0.1894  0.8465 -0.0501
29115SOL    HW190747   6.113  10.833   6.346 -0.4130 -0.2134  0.0068
29115SOL    HW290748   6.073  10.766   6.476  0.1419  1.0177  0.8246
29116SOL     OW90749   9.901  10.614   6.537  0.1846 -0.0306 -0.4532
29116SOL    HW190750   9.828  10.573   6.582 -0.3698  1.6200  0.2463
29116SOL    HW290751   9.900  10.577   6.449 -1.6229  0.1161 -0.5184
29117SOL     OW90752   3.583  10.073  10.551  0.6034  0.3574  0.1459
29117SOL    HW190753   3.507  10.108  10.597 -1.0960 -2.0819 -0.6173
29117SOL    HW290754   3.626  10.016  10.614  1.3662  1.0984  0.3161
29118SOL     OW90755   5.462   4.652   3.073 -0.3592 -0.0734  0.4407
29118SOL    HW190756   5.416   4.651   2.989  1.3478 -0.4060 -0.5356
29118SOL    HW290757   5.461   4.744   3.100 -1.0533  0.0141  0.1394
29119SOL     OW90758   6.174   5.717   3.183 -0.0400 -0.2958  0.2028
29119SOL    HW190759   6.102   5.740   3.243  1.0390  0.5715  1.2212
29119SOL    HW290760   6.240   5.678   3.240  0.3551 -0.9717 -0.7030
29120SOL     OW90761   4.789   8.336   6.420  0.1487 -0.0151 -0.3639
29120SOL    HW190762   4.760   8.342   6.511  0.2645  2.7260 -0.4467
29120SOL    HW290763   4.750   8.254   6.389 -1.6962  0.0509  1.5130
29121SOL     OW90764   1.544   2.522   8.228  0.0985  0.6178  0.5770
29121SOL    HW190765   1.620   2.579   8.215  0.5945 -0.0967  0.2913
29121SOL    HW290766   1.581   2.441   8.265 -0.3980 -0.0793 -0.3986
29122SOL     OW90767  10.832   9.592   8.585 -0.5897  0.0254  0.0235
29122SOL    HW190768  10.887   9.585   8.663 -0.1416  1.8870 -0.0894
29122SOL    HW290769  10.787   9.507   8.580  1.9617 -1.4535  0.3096
29123SOL     OW90770   7.947  10.417   0.012 -0.2025  0.0779 -0.2766
29123SOL    HW190771   7.889  10.486  -0.021 -1.3005  0.3520  1.9990
29123SOL    HW290772   8.026  10.462   0.040 -0.8788  0.4752  1.1128
29124SOL     OW90773   4.995   5.617   9.882  0.3156 -0.1897  0.2828
29124SOL    HW190774   5.018   5.574   9.800  0.9509  0.4239  0.1320
29124SOL    HW290775   5.072   5.604   9.939  0.2977  0.2782  0.4185
29125SOL     OW90776   7.917   4.515   2.807 -0.4271  0.3060 -0.1198
29125SOL    HW190777   7.890   4.436   2.854  0.7302  0.5295  0.9773
29125SOL    HW290778   7.874   4.508   2.722  0.3492 -1.9819 -0.4095
29126SOL     OW90779   0.642   2.462  10.710 -0.2338  0.1932 -0.9836
29126SOL    HW190780   0.608   2.544  10.674  1.1212  0.9029 -0.7350
29126SOL    HW290781   0.669   2.411  10.633  1.1612  1.0307 -1.0913
29127SOL     OW90782   7.661   6.582   0.733  0.0429 -0.4297 -0.2650
29127SOL    HW190783   7.662   6.676   0.751 -1.0488 -0.8279  2.5578
29127SOL    HW290784   7.718   6.545   0.800  0.3977 -1.7983 -1.2945
29128SOL     OW90785   0.190   8.260   7.004  0.3544 -0.2496 -0.0582
29128SOL    HW190786   0.277   8.291   7.030  0.5739 -1.6255  0.9722
29128SOL    HW290787   0.132   8.289   7.075 -0.0566  0.6811 -0.7526
29129SOL     OW90788   5.721   1.540   3.113 -0.3655  0.4036 -0.6862
29129SOL    HW190789   5.675   1.542   3.197  0.1497  2.9154 -0.3931
29129SOL    HW290790   5.657   1.574   3.050 -0.1581  0.2595 -0.9742
29130SOL     OW90791  10.327   0.406   9.052  0.0510 -0.0726 -0.5388
29130SOL    HW190792  10.338   0.331   9.111 -0.1637 -0.8698 -1.4738
29130SOL    HW290793  10.233   0.422   9.052 -0.3408 -1.8551 -2.7090
29131SOL     OW90794   7.739   1.735   0.898  0.2418 -0.2687  0.2232
29131SOL    HW190795   7.821   1.751   0.852  0.1310  0.3963  0.2460
29131SOL    HW290796   7.758   1.662   0.957  0.8471 -0.0501  0.3040
29132SOL     OW90797   2.595  10.652   6.568  0.3734 -0.2068  0.1260
29132SOL    HW190798   2.577  10.746   6.568  1.0074 -0.0553  1.5936
29132SOL    HW290799   2.685  10.645   6.534 -0.2053 -0.4440 -1.4448
29133SOL     OW90800   4.680   2.670   2.115  0.3002  0.0980 -0.1608
29133SOL    HW190801   4.709   2.746   2.064  1.6266  0.3740  0.9249
29133SOL    HW290802   4.698   2.695   2.206  0.2005 -1.2942  0.2594
29134SOL     OW90803   4.816   9.319   1.070  0.1981  0.5086  0.2535
29134SOL    HW190804   4.860   9.239   1.097  1.8251  1.1721 -0.3092
29134SOL    HW290805   4.768   9.347   1.149  0.1098 -0.6576  0.6387
29135SOL     OW90806   4.085   7.785   4.768  0.0443 -0.0161  0.5414
29135SOL    HW190807   4.021   7.856   4.768 -1.2536 -1.1397  0.3774
29135SOL    HW290808   4.170   7.829   4.771 -0.6278  1.6127 -1.9194
29136SOL     OW90809   1.009   7.966   3.562 -0.2725 -0.1447  0.5538
29136SOL    HW190810   1.035   7.876   3.581  0.3612  0.0514  0.6359
29136SOL    HW290811   0.915   7.968   3.581 -0.7570 -1.3273 -1.4142
29137SOL     OW90812   4.035  10.888   8.350 -0.2514 -0.3091 -0.0711
29137SOL    HW190813   3.948  10.887   8.311  0.1153 -0.9507 -0.9065
29137SOL    HW290814   4.094  10.866   8.278  0.5311 -0.5665  0.6294
29138SOL     OW90815   1.129   3.806   3.650  0.2831  0.5035 -0.4888
29138SOL    HW190816   1.095   3.727   3.609  1.6458 -0.6515  0.5130
29138SOL    HW290817   1.133   3.785   3.743  0.6682  1.7583 -0.1984
29139SOL     OW90818   0.204   4.898   1.860 -0.2934 -0.0706 -0.4006
29139SOL    HW190819   0.192   4.821   1.916  2.6655 -0.0709  0.4248
29139SOL    HW290820   0.234   4.861   1.777 -0.3254  0.1295 -0.5002
29140SOL     OW90821   5.711   9.325   5.782 -0.2346 -0.6033 -0.4628
29140SOL    HW190822   5.745   9.247   5.826 -0.5297 -0.4511  0.0378
29140SOL    HW290823   5.622   9.301   5.756 -0.5948 -0.1979  0.3414
29141SOL     OW90824   7.876   2.371   0.178 -0.1652 -0.0802 -0.3299
29141SOL    HW190825   7.846   2.332   0.096  0.2172 -1.4665  0.1486
29141SOL    HW290826   7.908   2.458   0.154 -2.1168  0.4293 -1.2669
29142SOL     OW90827   5.875   4.661   9.876 -0.1991  0.8783  0.6197
29142SOL    HW190828   5.874   4.568   9.900  0.1654  0.1917 -1.7904
29142SOL    HW290829   5.816   4.702   9.939  0.5154 -0.7610  2.4726
29143SOL     OW90830   4.075   8.738   7.344  0.1024 -0.2909  0.2908
29143SOL    HW190831   4.151   8.781   7.304  1.2401 -1.7927  0.7477
29143SOL    HW290832   4.108   8.706   7.428 -1.0107 -1.1072  0.4331
29144SOL     OW90833   8.358  10.049   9.774 -0.0148  0.3935 -0.8718
29144SOL    HW190834   8.382  10.114   9.709  2.1371 -0.7644 -1.3203
29144SOL    HW290835   8.431   9.987   9.775 -1.8940 -1.9957 -0.4208
29145SOL     OW90836   4.778   0.116   4.209  0.0114 -0.4544 -0.1472
29145SOL    HW190837   4.751   0.182   4.273 -0.3900 -1.9431  1.2823
29145SOL    HW290838   4.697   0.072   4.184  0.1272  0.2475 -1.9058
29146SOL     OW90839   2.386   6.529   2.903  0.7388  0.0843  0.1711
29146SOL    HW190840   2.433   6.612   2.900  0.2696  0.3302 -0.3840
29146SOL    HW290841   2.295   6.551   2.887  0.8469 -0.7253 -1.7746
29147SOL     OW90842   1.636   4.808   9.050 -0.2124  0.3717  0.0949
29147SOL    HW190843   1.674   4.720   9.050 -0.8560  0.0432  2.2776
29147SOL    HW290844   1.710   4.867   9.062  0.3675  0.2862 -2.4150
29148SOL     OW90845   8.036   7.552  10.401  0.2337 -0.4537  0.2826
29148SOL    HW190846   8.043   7.456  10.403  0.3249 -0.4427  2.1009
29148SOL    HW290847   8.030   7.577  10.493  2.3406  1.4437 -0.0183
29149SOL     OW90848   4.548   8.963   6.190 -0.5986  0.4057 -0.1033
29149SOL    HW190849   4.480   8.922   6.243 -1.1377  2.8850  1.2709
29149SOL    HW290850   4.616   8.987   6.252  0.4527  0.1051 -1.1111
29150SOL     OW90851   1.192   3.598   3.853 -0.2430  0.4714  0.2258
29150SOL    HW190852   1.273   3.548   3.866  1.0002  2.0444 -0.9848
29150SOL    HW290853   1.143   3.587   3.934  0.2158 -2.1936  0.2309
29151SOL     OW90854   5.751   1.355   9.273 -0.2068  0.0934 -0.4298
29151SOL    HW190855   5.662   1.340   9.239 -0.4926 -3.1695  1.3466
29151SOL    HW290856   5.739   1.370   9.366  1.1090 -1.5252  0.0507
29152SOL     OW90857   0.193   9.527   9.607  0.2002 -0.2246 -0.3895
29152SOL    HW190858   0.276   9.508   9.651 -0.7381 -0.4739  1.3748
29152SOL    HW290859   0.193   9.469   9.530  0.1638 -2.8952  1.4771
29153SOL     OW90860   1.769   8.251   0.534  0.0562  0.0652 -0.1788
29153SOL    HW190861   1.748   8.260   0.441 -0.6469  3.4544  0.1693
29153SOL    HW290862   1.815   8.332   0.557  1.3317 -1.1999  2.1961
29154SOL     OW90863   6.656   0.998   6.718 -0.8742 -0.1963 -0.5185
29154SOL    HW190864   6.643   1.093   6.723 -2.6605 -0.4764  1.5289
29154SOL    HW290865   6.697   0.974   6.801 -0.2506 -1.2238 -1.0940
29155SOL     OW90866   0.425   3.163   7.338 -0.4151  0.0931  0.4106
29155SOL    HW190867   0.421   3.241   7.393 -2.3625 -0.6916  1.5016
29155SOL    HW290868   0.450   3.092   7.397  0.5303 -0.2605 -0.3897
29156SOL     OW90869  10.268   6.728   3.396  0.2913  0.0708  0.0007
29156SOL    HW190870  10.354   6.698   3.367  1.0660  0.7054  1.5220
29156SOL    HW290871  10.284   6.768   3.481 -0.8253  3.8194 -1.3363
29157SOL     OW90872   5.942   1.738   0.968 -0.3162  0.1327  0.1995
29157SOL    HW190873   5.910   1.702   0.885  0.4031 -0.7995  0.3044
29157SOL    HW290874   5.868   1.729   1.028  0.0243 -1.8792  0.4056
29158SOL     OW90875   2.619  10.674   9.175  0.5546  0.3617  0.2630
29158SOL    HW190876   2.672  10.603   9.211 -0.1840 -0.3416  0.0167
29158SOL    HW290877   2.677  10.750   9.174  2.1145 -0.7508 -1.5423
29159SOL     OW90878   2.533   3.810   5.667  0.1861  0.0759  0.2785
29159SOL    HW190879   2.560   3.729   5.709 -1.1646  0.5582  2.2049
29159SOL    HW290880   2.451   3.787   5.622 -0.1280  0.3228  0.7157
29160SOL     OW90881   6.643   3.560   6.352 -0.0119 -0.2218  0.0382
29160SOL    HW190882   6.642   3.466   6.332  1.6185 -0.3312  0.3467
29160SOL    HW290883   6.682   3.566   6.438 -0.4469  0.7391  0.1807
29161SOL     OW90884   1.766   5.124  10.883 -0.2420  0.1639 -0.2651
29161SOL    HW190885   1.830   5.160  10.944  0.5052  0.6230 -1.3052
29161SOL    HW290886   1.753   5.034  10.912  1.6504 -0.2653 -0.6292
29162SOL     OW90887   2.605   4.450   1.947  0.3846  0.1922 -0.5884
29162SOL    HW190888   2.551   4.372   1.934 -0.0113  0.0030  1.7664
29162SOL    HW290889   2.576   4.511   1.879 -1.8228 -0.4057 -0.2511
29163SOL     OW90890   1.070   2.191   4.403 -0.3176 -0.7584  0.0363
29163SOL    HW190891   0.982   2.228   4.402 -0.0047 -0.0218 -0.8449
29163SOL    HW290892   1.056   2.097   4.416 -1.1542 -0.4760  1.4157
29164SOL     OW90893   8.907   6.092   5.020  0.9603 -0.0536 -0.2671
29164SOL    HW190894   8.995   6.117   5.049  1.2849  0.1299 -1.3788
29164SOL    HW290895   8.868   6.174   4.989  0.4498 -0.1635  0.0776
29165SOL     OW90896   4.398   4.503   9.556 -0.3802  0.0248  0.8288
29165SOL    HW190897   4.367   4.594   9.563  0.7399  0.9328 -3.2925
29165SOL    HW290898   4.493   4.511   9.563 -0.2895 -0.8336  0.6039
29166SOL     OW90899   8.338   2.497   2.721 -0.2454  0.6038 -0.3107
29166SOL    HW190900   8.271   2.430   2.733 -0.3380  0.7333 -0.0945
29166SOL    HW290901   8.364   2.522   2.810 -0.1094  0.7535 -0.3893
29167SOL     OW90902   3.991   5.647  10.764 -0.0129 -0.3395  0.4311
29167SOL    HW190903   3.906   5.684  10.742  0.3357 -0.1657 -0.7055
29167SOL    HW290904   3.996   5.565  10.714  0.3050 -0.5774  0.8399
29168SOL     OW90905   9.393   1.309   1.990 -0.1446  0.1446 -0.2974
29168SOL    HW190906   9.477   1.266   1.976 -0.6739 -0.6536 -1.2086
29168SOL    HW290907   9.411   1.380   2.051  1.1518 -0.1183 -0.3587
29169SOL     OW90908   9.157  10.566   9.999 -0.1721  0.5197 -0.2359
29169SOL    HW190909   9.133  10.579   9.907 -0.8924  0.0127 -0.1330
29169SOL    HW290910   9.089  10.612  10.048  1.6155  3.0435  0.0666
29170SOL     OW90911   5.839  10.402  10.684 -0.0696  0.1044  0.3837
29170SOL    HW190912   5.873  10.477  10.634  0.4514  0.4273  1.1989
29170SOL    HW290913   5.847  10.429  10.775 -2.2899  0.0776  0.6486
29171SOL     OW90914   5.634   4.571   1.045 -0.3340 -0.5292  0.0827
29171SOL    HW190915   5.628   4.610   0.958  0.9460  0.0553  0.2419
29171SOL    HW290916   5.691   4.629   1.094 -1.4939 -0.5426  1.5136
29172SOL     OW90917   7.457   9.056   8.639 -0.4219 -0.1904 -0.1753
29172SOL    HW190918   7.409   8.981   8.673 -1.5027 -0.2817 -1.8146
29172SOL    HW290919   7.546   9.045   8.674 -0.8447 -1.6105  0.5174
29173SOL     OW90920   5.262   4.198  10.833 -0.2164  0.4670  0.0780
29173SOL    HW190921   5.233   4.230  10.918 -0.5375  0.9272 -0.2004
29173SOL    HW290922   5.213   4.250  10.770  0.2107  0.3115 -0.3907
29174SOL     OW90923   4.576  10.587   9.039 -0.2552 -0.0119 -0.3801
29174SOL    HW190924   4.671  10.586   9.043 -0.2297  0.7406 -0.6287
29174SOL    HW290925   4.554  10.531   8.964  0.0962  1.4258 -1.6032
29175SOL     OW90926   7.285   0.090   1.633 -0.1062  0.0547 -0.4638
29175SOL    HW190927   7.215   0.026   1.622 -0.1203  0.1899 -1.1685
29175SOL    HW290928   7.241   0.166   1.671 -0.4867  0.4007 -1.5660
29176SOL     OW90929   3.415   7.201   9.596  0.3745 -0.2246  0.3901
29176SOL    HW190930   3.353   7.238   9.533 -1.1283  0.3634  2.1203
29176SOL    HW290931   3.392   7.108   9.601  0.5188 -0.2795  0.0560
29177SOL     OW90932   1.665   8.216   2.729  0.0091 -0.0101  0.4492
29177SOL    HW190933   1.673   8.199   2.635 -0.5947  1.3125  0.1418
29177SOL    HW290934   1.689   8.133   2.771  3.3211  0.2059 -0.7471
29178SOL     OW90935   5.836   7.084   6.221 -0.0668  0.0975 -0.0192
29178SOL    HW190936   5.804   7.158   6.170  0.8055 -0.4039 -1.3458
29178SOL    HW290937   5.756   7.034   6.242 -0.6546  1.3423  0.8675
29179SOL     OW90938   4.085   6.378   2.982 -0.2382 -0.0039  0.0460
29179SOL    HW190939   4.086   6.403   3.074 -1.6761 -1.0426  0.3741
29179SOL    HW290940   3.997   6.399   2.952  0.5009  1.2241 -1.3891
29180SOL     OW90941   7.638   4.762   6.889 -0.0268 -0.0946 -0.4615
29180SOL    HW190942   7.731   4.755   6.911 -0.0923 -0.4050 -0.2738
29180SOL    HW290943   7.596   4.693   6.940 -0.3663  0.0674 -0.5184
29181SOL     OW90944   6.519   1.338  10.433 -0.1424  0.4181 -0.5278
29181SOL    HW190945   6.458   1.286  10.486  0.0495  1.5540  0.8308
29181SOL    HW290946   6.462   1.393  10.379 -0.3457  1.5811  0.8415
29182SOL     OW90947   4.493  10.409   0.343  0.7395 -0.0375  0.2540
29182SOL    HW190948   4.448  10.468   0.283 -1.1030  0.6492  2.2061
29182SOL    HW290949   4.459  10.322   0.322 -1.1544  0.4049  1.3322
29183SOL     OW90950   9.547  10.052   3.658  0.2583 -0.0744 -0.1002
29183SOL    HW190951   9.632  10.008   3.657  0.2138 -0.2081  0.7287
29183SOL    HW290952   9.543  10.099   3.575 -0.9162 -3.9595 -2.5014
29184SOL     OW90953   8.966   2.349   0.356  0.1297 -0.2599 -0.5399
29184SOL    HW190954   9.017   2.334   0.276  0.5119  0.7443 -0.4982
29184SOL    HW290955   8.875   2.334   0.331  0.2757 -0.2089 -1.1011
29185SOL     OW90956   5.009   1.205   6.420 -0.3637 -0.4933 -1.0236
29185SOL    HW190957   5.099   1.233   6.399 -0.8729  0.8756 -1.5148
29185SOL    HW290958   5.020   1.140   6.489  0.9546  0.7028 -0.0189
29186SOL     OW90959   9.679   3.631   6.715 -0.4230  0.5101  0.2500
29186SOL    HW190960   9.596   3.675   6.694 -1.3917 -1.8580 -1.4262
29186SOL    HW290961   9.735   3.650   6.640 -0.5069 -0.2342 -0.0120
29187SOL     OW90962  10.876   4.122   5.245  0.5949  0.1681  0.0247
29187SOL    HW190963  10.784   4.106   5.222  0.3972  0.6888  0.4349
29187SOL    HW290964  10.909   4.174   5.172  0.7258 -0.4849 -0.3953
29188SOL     OW90965   7.196   2.621   9.214  0.0556  0.6198  0.8658
29188SOL    HW190966   7.251   2.545   9.230 -0.0395  0.7131  1.6881
29188SOL    HW290967   7.113   2.601   9.258 -1.3484 -0.3829 -1.9814
29189SOL     OW90968   0.121   6.308   6.059  0.0616  0.0462 -0.2953
29189SOL    HW190969   0.074   6.389   6.073  0.6279  1.1442 -3.7406
29189SOL    HW290970   0.065   6.240   6.098 -0.5296  1.9616  2.4462
29190SOL     OW90971   4.256   3.355   1.167 -0.1242 -0.0654 -0.2665
29190SOL    HW190972   4.272   3.261   1.166 -1.1537 -0.2527 -2.1426
29190SOL    HW290973   4.307   3.387   1.242 -0.4116 -2.2014  0.9168
29191SOL     OW90974   0.799   7.721   7.775 -0.0840  0.4492  0.4022
29191SOL    HW190975   0.721   7.776   7.770  1.4418  2.6919 -0.1178
29191SOL    HW290976   0.869   7.781   7.802  1.0398 -1.9479  3.4473
29192SOL     OW90977   3.506   0.804   3.922  0.1239  0.7237 -0.0748
29192SOL    HW190978   3.562   0.860   3.975 -1.1937  1.9509  0.0664
29192SOL    HW290979   3.499   0.849   3.838 -1.8633  1.3913  0.4148
29193SOL     OW90980   7.634   0.183  10.133  0.1865  0.0255  0.2205
29193SOL    HW190981   7.727   0.205  10.137  0.0329  0.9149 -0.6743
29193SOL    HW290982   7.622   0.117  10.201  1.7356 -1.0972 -0.5257
29194SOL     OW90983   2.849   5.749   5.289  0.1460  0.1386  0.1218
29194SOL    HW190984   2.771   5.774   5.238 -0.8022 -2.4645  0.1518
29194SOL    HW290985   2.840   5.799   5.370 -2.2571 -0.9794  0.6586
29195SOL     OW90986   2.846   8.099   4.293 -0.7607 -0.3309  0.3967
29195SOL    HW190987   2.774   8.054   4.248 -0.4048 -0.4575 -0.0498
29195SOL    HW290988   2.909   8.119   4.224 -1.0390  1.1368  0.5310
29196SOL     OW90989   1.994   7.564   4.663  0.6578  0.7972  0.2256
29196SOL    HW190990   1.945   7.633   4.616  2.3453  1.2487 -0.9658
29196SOL    HW290991   2.050   7.525   4.596  0.2631 -1.2888  1.0502
29197SOL     OW90992   0.083   2.597  10.417 -1.2852  0.6417 -0.5578
29197SOL    HW190993   0.026   2.522  10.432  1.5431 -2.6517 -4.2829
29197SOL    HW290994   0.044   2.642  10.342 -0.1497 -0.4515 -1.8435
29198SOL     OW90995   5.853   3.280   0.399  0.1088  0.1102 -0.4131
29198SOL    HW190996   5.893   3.367   0.390  0.1975  0.0291 -0.8174
29198SOL    HW290997   5.867   3.238   0.314 -0.2052 -0.1871 -0.3202
29199SOL     OW90998   2.024   0.144   4.594  0.1538 -0.6747  0.5064
29199SOL    HW190999   2.111   0.185   4.592  0.2153 -0.8129  0.2564
29199SOL    HW291000   2.027   0.079   4.524  0.3782 -1.7606  1.5034
29200SOL     OW91001   4.481   9.043   5.552 -0.5749 -0.1209 -0.3878
29200SOL    HW191002   4.437   9.125   5.530 -1.7011 -0.2251  1.2617
29200SOL    HW291003   4.437   8.977   5.499 -1.0497  0.0707 -0.2403
29201SOL     OW91004   6.974   8.079   1.382  0.0026 -0.0076 -0.3498
29201SOL    HW191005   6.972   8.156   1.326  1.5346  0.4135  0.1421
29201SOL    HW291006   6.883   8.051   1.387 -0.7142  2.2185  0.0999
29202SOL     OW91007   7.195   2.205   8.651  0.3005  0.0780 -0.3914
29202SOL    HW191008   7.279   2.188   8.609 -0.1685 -0.3308 -1.1820
29202SOL    HW291009   7.157   2.118   8.666 -1.1042  0.2810 -2.3888
29203SOL     OW91010   3.620   3.119   0.978  0.1595 -0.3553  0.2317
29203SOL    HW191011   3.692   3.062   1.005 -0.3906 -1.0973  0.1789
29203SOL    HW291012   3.614   3.184   1.047 -0.4871 -1.5553  1.3424
29204SOL     OW91013   9.174   6.219   2.301 -0.3907  0.0892  0.5778
29204SOL    HW191014   9.164   6.185   2.390  0.6086 -0.4152  0.5048
29204SOL    HW291015   9.268   6.213   2.283 -0.4273  1.2427 -0.0955
29205SOL     OW91016  10.563   1.040   7.831 -0.1251 -0.3679 -0.1601
29205SOL    HW191017  10.575   0.967   7.771 -1.6955 -0.3434 -0.5529
29205SOL    HW291018  10.494   1.011   7.891  1.3407 -0.3637  1.6412
29206SOL     OW91019  10.047   5.673   8.457 -0.0849 -0.2507 -0.1736
29206SOL    HW191020   9.986   5.654   8.528 -0.4164 -1.5404 -0.7764
29206SOL    HW291021  10.009   5.750   8.414 -0.7214 -0.4010  0.1032
29207SOL     OW91022   7.163   8.034   3.756  0.1212  0.0645  0.3248
29207SOL    HW191023   7.244   8.084   3.739 -0.1734 -0.1939 -2.1474
29207SOL    HW291024   7.194   7.951   3.793  1.0616 -0.2572 -1.1105
29208SOL     OW91025   0.610   3.851   6.598  0.0664  0.3254  0.0992
29208SOL    HW191026   0.648   3.929   6.640 -1.7984  1.7778 -0.7388
29208SOL    HW291027   0.676   3.824   6.535  0.8673  1.0624  0.5822
29209SOL     OW91028  10.433   1.279   3.426 -0.6210  0.1987  0.0050
29209SOL    HW191029  10.479   1.339   3.485 -1.1259  0.3166  0.2810
29209SOL    HW291030  10.342   1.310   3.425 -0.7271 -0.1139 -0.4325
29210SOL     OW91031   9.729   1.202   5.499  0.5357  0.2099  0.3769
29210SOL    HW191032   9.691   1.287   5.524  0.3589  0.3688 -0.4082
29210SOL    HW291033   9.818   1.222   5.473  0.1920  0.3184 -0.7640
29211SOL     OW91034   4.259   6.767   4.222  0.0595  0.4275 -0.9681
29211SOL    HW191035   4.165   6.753   4.224  0.0105  0.8465 -0.0321
29211SOL    HW291036   4.294   6.689   4.178 -0.4894 -1.0121  1.0194
29212SOL     OW91037   3.121   4.266   7.392 -0.8389 -0.4869  0.0993
29212SOL    HW191038   3.053   4.323   7.427 -0.6682 -0.6994  0.7880
29212SOL    HW291039   3.181   4.253   7.465  0.9380  1.1487 -0.9508
29213SOL     OW91040   6.740  10.353   9.340  0.3902 -0.2561  0.4485
29213SOL    HW191041   6.728  10.258   9.335 -1.4696 -0.1012  1.2535
29213SOL    HW291042   6.799  10.373   9.267 -0.4837 -1.8361 -0.7665
29214SOL     OW91043   9.071   4.390   7.306  0.3000  0.2234 -0.5934
29214SOL    HW191044   9.125   4.318   7.274 -1.7865 -0.7473 -2.1437
29214SOL    HW291045   9.131   4.444   7.357  3.3181  0.4490 -3.9839
29215SOL     OW91046   1.164   8.046   4.964 -0.2237  0.0689  0.8384
29215SOL    HW191047   1.143   7.999   5.045  0.0591  0.7127  1.2984
29215SOL    HW291048   1.104   8.009   4.899  0.7859 -1.7447  0.8844
29216SOL     OW91049   5.927   9.149  10.543  0.6310 -0.2347  0.6708
29216SOL    HW191050   5.997   9.088  10.517  1.3068 -0.1145  2.0915
29216SOL    HW291051   5.848   9.113  10.503  1.4966 -0.3585 -1.0087
29217SOL     OW91052   0.894   2.554   5.283  0.8400  0.6094  0.1140
29217SOL    HW191053   0.946   2.477   5.308  0.4467 -0.2006 -1.4842
29217SOL    HW291054   0.918   2.620   5.348  3.1987 -0.0216 -0.0066
29218SOL     OW91055   2.984   4.328   0.237 -0.8762 -0.2703 -0.3570
29218SOL    HW191056   2.897   4.366   0.225 -0.2898  0.9956 -0.7726
29218SOL    HW291057   3.042   4.383   0.185  0.8550  1.6007  3.1411
29219SOL     OW91058  10.617  10.269   2.149  0.2851  0.4615 -0.0367
29219SOL    HW191059  10.618  10.273   2.053  0.8847  0.6586 -0.0278
29219SOL    HW291060  10.649  10.181   2.169 -1.2223 -0.1088 -0.0331
29220SOL     OW91061   6.837   8.865   3.071  0.0120 -0.2782 -0.0437
29220SOL    HW191062   6.882   8.877   2.988  1.2295 -0.6272  0.5394
29220SOL    HW291063   6.823   8.954   3.104  0.4735 -0.1721 -0.1335
29221SOL     OW91064   1.942   3.005   7.498 -0.2125 -0.0110  0.1686
29221SOL    HW191065   1.876   2.965   7.442  0.2290 -1.3825  0.5771
29221SOL    HW291066   2.018   2.948   7.490  0.5239  0.8818  0.6233
29222SOL     OW91067   6.028   3.192   5.056 -0.4966 -0.5658  0.0842
29222SOL    HW191068   6.068   3.174   5.141  1.1784 -0.5371 -0.6462
29222SOL    HW291069   5.995   3.107   5.026 -0.5768 -0.6861  0.5125
29223SOL     OW91070   4.160   7.639  10.624  0.1849  0.3822  0.9284
29223SOL    HW191071   4.180   7.546  10.614  1.9460  0.7710  0.4905
29223SOL    HW291072   4.245   7.682  10.625 -0.5536  1.9321  1.9693
29224SOL     OW91073   2.399   1.933   4.709  0.4959 -0.3309  0.3928
29224SOL    HW191074   2.481   1.886   4.717  0.3325 -0.6021  0.4889
29224SOL    HW291075   2.386   1.943   4.614  0.6077 -0.3453  0.3765
29225SOL     OW91076   3.933   8.772   9.029 -0.0043 -0.3545 -0.6240
29225SOL    HW191077   3.877   8.811   8.963 -0.8306 -0.9600 -0.2972
29225SOL    HW291078   3.919   8.827   9.107 -2.1038 -1.9276  0.2007
29226SOL     OW91079   3.413   1.367   3.897  0.1969  0.6321  0.3100
29226SOL    HW191080   3.501   1.349   3.930  0.2233  1.6418  0.8261
29226SOL    HW291081   3.428   1.411   3.813  0.1516 -0.1757 -0.1396
29227SOL     OW91082  10.437  10.555   5.692 -0.1072 -0.3619  0.4104
29227SOL    HW191083  10.462  10.626   5.750 -0.3640 -0.0996  0.2086
29227SOL    HW291084  10.443  10.593   5.604 -0.9956 -0.3455  0.3458
29228SOL     OW91085   6.159   9.530   1.039  0.4914 -0.0788  0.4000
29228SOL    HW191086   6.151   9.511   0.945 -0.3406 -0.6169  0.5704
29228SOL    HW291087   6.072   9.511   1.075  0.7765  0.2120  1.2668
29229SOL     OW91088   4.264   3.514   5.610 -0.4852  0.0729  0.4007
29229SOL    HW191089   4.335   3.453   5.593  0.9046  0.8074  3.0249
29229SOL    HW291090   4.186   3.470   5.575  0.5301 -2.9595  1.6147
29230SOL     OW91091   4.410   8.539   6.703 -0.4572  0.7929 -0.3060
29230SOL    HW191092   4.495   8.578   6.722 -0.0053  0.6210 -1.8223
29230SOL    HW291093   4.355   8.563   6.778  0.8588  1.0597  0.6151
29231SOL     OW91094   0.042   1.676   3.205 -0.3172  0.0267 -0.1576
29231SOL    HW191095  -0.022   1.738   3.239  0.3423  0.4713  0.3082
29231SOL    HW291096   0.104   1.664   3.277  0.7046  0.4212 -0.9537
29232SOL     OW91097   0.721   9.196   6.214  0.3333  0.3539 -0.2568
29232SOL    HW191098   0.779   9.242   6.275  1.2946 -1.4264  0.2577
29232SOL    HW291099   0.681   9.127   6.267  0.3085 -0.5112 -1.3751
29233SOL     OW91100   0.434   5.882   3.883 -0.0588 -0.0558 -0.2495
29233SOL    HW191101   0.512   5.839   3.917 -0.6430 -0.1012  1.1166
29233SOL    HW291102   0.455   5.975   3.884 -0.4504  0.0514  1.4017
29234SOL     OW91103   1.957   9.380   3.025 -0.3001 -0.9948 -0.8743
29234SOL    HW191104   1.976   9.371   2.931  0.1100 -0.9518 -0.7966
29234SOL    HW291105   1.973   9.292   3.061 -0.0070 -0.9024 -0.7700
29235SOL     OW91106  10.547   9.141   9.102 -0.1220 -0.9357 -0.1357
29235SOL    HW191107  10.523   9.053   9.132 -0.9189 -1.3528 -1.8442
29235SOL    HW291108  10.640   9.135   9.082 -0.3675 -1.7168 -1.1572
29236SOL     OW91109   1.248   9.457   6.098  0.4691  0.4847  0.6456
29236SOL    HW191110   1.275   9.373   6.060  0.5069 -0.1474  2.0068
29236SOL    HW291111   1.161   9.473   6.062  0.8942  0.3978 -0.4434
29237SOL     OW91112  10.481   6.820   1.139 -0.3667  0.2913  0.2525
29237SOL    HW191113  10.436   6.900   1.110  1.4453  1.6569  0.9920
29237SOL    HW291114  10.449   6.806   1.228  0.6228  1.2731  0.7870
29238SOL     OW91115   1.015   4.315  10.775 -0.1092 -0.0721 -0.0854
29238SOL    HW191116   1.020   4.236  10.721  0.2766 -0.0896 -0.0241
29238SOL    HW291117   0.977   4.381  10.716  0.2275 -0.1145 -0.3565
29239SOL     OW91118   7.251   7.454   0.998 -0.0583 -0.2441  0.0680
29239SOL    HW191119   7.303   7.448   1.078  0.3912 -1.8183 -0.3048
29239SOL    HW291120   7.299   7.517   0.944  0.2827 -0.0591  0.5726
29240SOL     OW91121   8.370   2.048   5.885 -0.0086  0.7933  0.2468
29240SOL    HW191122   8.332   1.999   5.812 -0.3581  2.3787 -0.6875
29240SOL    HW291123   8.459   2.068   5.856  0.6411 -0.4713  1.2393
29241SOL     OW91124   4.838   6.010   4.319  0.3441  0.2176 -0.1327
29241SOL    HW191125   4.911   5.965   4.362  0.7975 -0.1603 -1.2428
29241SOL    HW291126   4.880   6.067   4.255 -0.3183 -0.9245 -1.6698
29242SOL     OW91127   8.323   8.442   4.102 -0.0395  0.4477 -0.4137
29242SOL    HW191128   8.270   8.447   4.022  0.3131  0.5474 -0.6423
29242SOL    HW291129   8.351   8.532   4.118  0.8424  0.2570 -0.8292
29243SOL     OW91130   0.796   8.152  10.266 -0.3122 -0.2420  0.3397
29243SOL    HW191131   0.705   8.155  10.237 -0.0672 -0.5135 -0.5093
29243SOL    HW291132   0.826   8.243  10.261 -0.7028 -0.0556  1.2160
29244SOL     OW91133   2.066   6.819   6.172 -0.2907 -0.3392 -0.1611
29244SOL    HW191134   2.082   6.847   6.262  2.1492 -1.7374 -0.0757
29244SOL    HW291135   2.020   6.735   6.181 -0.3367 -0.3184 -0.2079
29245SOL     OW91136   0.146   3.721   1.315 -0.5400 -0.1102  0.3478
29245SOL    HW191137   0.211   3.727   1.245 -0.8330 -0.4825  0.0405
29245SOL    HW291138   0.174   3.646   1.367 -0.9496 -0.5254 -0.0235
29246SOL     OW91139   3.795   4.660  10.420 -0.1602  0.1442 -0.3387
29246SOL    HW191140   3.814   4.715  10.344  1.6872  1.3638  0.9018
29246SOL    HW291141   3.700   4.665  10.430 -0.4147  0.1704 -2.3627
29247SOL     OW91142   3.518   9.041   1.263 -0.7660 -0.0778 -0.1108
29247SOL    HW191143   3.488   9.124   1.299 -2.7465 -0.3791 -0.9245
29247SOL    HW291144   3.448   9.014   1.203 -0.2781 -2.4207  0.2729
29248SOL     OW91145   0.999   8.565   5.780 -0.0730  0.6606 -0.4975
29248SOL    HW191146   0.967   8.637   5.835 -0.6990  0.1679 -0.1978
29248SOL    HW291147   0.932   8.557   5.712 -0.6072 -0.3826  0.1324
29249SOL     OW91148   1.221   7.887   8.459  0.0003 -0.1401  0.6009
29249SOL    HW191149   1.175   7.873   8.376 -1.2104  1.2795  0.9944
29249SOL    HW291150   1.172   7.835   8.522 -0.9902  1.2008  0.9787
29250SOL     OW91151   9.752   6.248   8.361  0.7820  0.0851 -0.3139
29250SOL    HW191152   9.709   6.245   8.447  0.6405  1.4442 -0.3130
29250SOL    HW291153   9.831   6.195   8.372  1.0625  0.6985  0.8509
29251SOL     OW91154   3.814   3.974   7.461  0.7560 -0.0556 -0.0451
29251SOL    HW191155   3.874   4.038   7.423  0.8677  0.6750  1.3184
29251SOL    HW291156   3.864   3.933   7.532 -0.6400  1.2971  1.8062
29252SOL     OW91157   1.531  10.853   8.228  0.4233 -0.0632  0.6568
29252SOL    HW191158   1.608  10.906   8.246 -0.1217  0.4287  1.6583
29252SOL    HW291159   1.477  10.862   8.307 -2.0506  2.0417 -1.1117
29253SOL     OW91160   5.469   0.884   8.108 -0.6032 -0.1153 -0.0410
29253SOL    HW191161   5.471   0.890   8.203 -0.7100  0.7798 -0.0867
29253SOL    HW291162   5.554   0.846   8.084 -1.8517 -3.7115  0.5845
29254SOL     OW91163   5.462   1.373   7.003  0.3073 -0.3690 -0.0130
29254SOL    HW191164   5.407   1.417   6.938  1.1051 -2.2894 -2.1155
29254SOL    HW291165   5.455   1.280   6.982 -0.1790 -1.2199  3.3496
29255SOL     OW91166   4.934  10.313   4.081 -0.9812 -0.3755  0.3860
29255SOL    HW191167   4.841  10.321   4.058 -0.9824  1.3666  0.8602
29255SOL    HW291168   4.956  10.396   4.123  0.7550 -0.8366  0.4845
29256SOL     OW91169   7.015   1.555   1.732 -0.1728 -0.1108 -0.5578
29256SOL    HW191170   6.925   1.587   1.738  0.2199  0.9365 -0.1076
29256SOL    HW291171   7.057   1.588   1.811  0.5483 -0.8052 -0.6456
29257SOL     OW91172   7.892   0.045  10.879  0.4538  0.0596  0.2636
29257SOL    HW191173   7.953   0.010  10.945  0.9529  1.0539  0.3440
29257SOL    HW291174   7.836   0.105  10.928 -0.3034 -0.4901  0.0947
29258SOL     OW91175   6.599   2.986   0.529  0.1682 -0.3288  0.1388
29258SOL    HW191176   6.569   3.038   0.454  0.6623  1.5719  1.2027
29258SOL    HW291177   6.687   2.957   0.504  0.6211  0.9026  0.2463
29259SOL     OW91178   5.972   4.536   3.056 -0.6542 -0.0953 -0.3879
29259SOL    HW191179   5.889   4.566   3.092 -1.0904 -2.1758  0.4862
29259SOL    HW291180   5.958   4.535   2.962 -1.6316 -0.4189 -0.2542
29260SOL     OW91181   8.360  10.536   2.198  0.3172 -0.6548 -0.1959
29260SOL    HW191182   8.316  10.609   2.241 -3.1116 -2.1928 -0.7170
29260SOL    HW291183   8.371  10.470   2.266  2.9593  0.0539  0.1649
29261SOL     OW91184   0.556   2.318   9.878  0.1830 -0.4053 -0.1160
29261SOL    HW191185   0.528   2.399   9.921  1.3664 -0.4514  0.8183
29261SOL    HW291186   0.477   2.282   9.840 -0.4084  1.0760 -0.3420
29262SOL     OW91187   4.440   5.679   0.040 -0.3114 -0.2251  0.0434
29262SOL    HW191188   4.456   5.696   0.133  1.1642  1.0982 -0.4014
29262SOL    HW291189   4.476   5.592   0.026 -0.8636 -0.5849  0.7784
29263SOL     OW91190   9.943  10.347   8.509 -0.5593 -0.0367  0.0952
29263SOL    HW191191   9.856  10.322   8.478  0.3374 -0.4225 -2.3993
29263SOL    HW291192   9.928  10.418   8.571 -2.6057  0.2419 -0.6575
29264SOL     OW91193   7.239   0.185   4.897 -0.0498 -0.2951 -0.3300
29264SOL    HW191194   7.249   0.219   4.985 -1.5064  1.2957 -0.7175
29264SOL    HW291195   7.319   0.211   4.851  0.4439 -0.6042  0.3494
29265SOL     OW91196   2.198   6.352   3.470 -0.0499 -0.6302 -0.4847
29265SOL    HW191197   2.276   6.370   3.416  1.0650 -1.2691  0.8593
29265SOL    HW291198   2.127   6.346   3.406  1.1394 -0.9077 -1.8588
29266SOL     OW91199   9.677   9.303  10.139  0.3257 -0.4851 -0.3830
29266SOL    HW191200   9.708   9.245  10.208  1.8639  0.5843 -0.1387
29266SOL    HW291201   9.695   9.391  10.170 -0.9552  0.1186 -1.2265
29267SOL     OW91202   2.766   8.538   2.192  0.0521 -0.3568 -0.3921
29267SOL    HW191203   2.694   8.598   2.211 -0.5854 -1.4208  0.6398
29267SOL    HW291204   2.783   8.551   2.098 -1.0701  0.3356 -0.5219
29268SOL     OW91205   4.513   9.333   1.140 -0.1571  0.1266  0.4648
29268SOL    HW191206   4.521   9.373   1.053  0.8861 -0.8954  0.0501
29268SOL    HW291207   4.570   9.385   1.196 -1.5906  1.3861  0.7784
29269SOL     OW91208   8.412   2.327   0.864  0.4051  0.7105 -0.6247
29269SOL    HW191209   8.443   2.396   0.923 -0.9132  1.4313 -0.7397
29269SOL    HW291210   8.440   2.356   0.777 -0.1979  1.1419 -0.6799
29270SOL     OW91211   5.789   9.568   2.737 -0.3130 -0.1855 -0.2618
29270SOL    HW191212   5.726   9.640   2.749 -0.1599 -0.1005  0.0542
29270SOL    HW291213   5.799   9.531   2.825  1.9269  1.3536  0.2161
29271SOL     OW91214   3.007   0.349   7.350 -0.8683  0.1569 -0.2577
29271SOL    HW191215   2.933   0.410   7.353  1.7711  3.7098  0.1064
29271SOL    HW291216   3.015   0.326   7.258 -3.0371 -1.2685 -0.1501
29272SOL     OW91217   4.126   2.750   8.324  0.1751 -0.3789 -0.0669
29272SOL    HW191218   4.218   2.726   8.329  0.5384  1.1479  1.5375
29272SOL    HW291219   4.090   2.729   8.411 -0.8231 -0.3250 -0.4464
29273SOL     OW91220   0.976   7.404   0.666  0.2658 -0.7704  0.0363
29273SOL    HW191221   1.027   7.323   0.670 -0.0787 -0.9727  0.3468
29273SOL    HW291222   0.885   7.376   0.680  0.0648 -0.4120 -0.5040
29274SOL     OW91223   0.019   5.152  10.559 -0.3434 -0.1026 -0.1045
29274SOL    HW191224  -0.074   5.166  10.578  0.0477 -0.2262  2.1015
29274SOL    HW291225   0.056   5.118  10.640  2.0731  1.9882 -0.1702
29275SOL     OW91226   4.026   7.194   4.690 -0.2434 -0.5929 -0.1951
29275SOL    HW191227   3.990   7.158   4.771 -0.6876 -3.3557 -1.5055
29275SOL    HW291228   3.959   7.255   4.659  0.0669  0.7433  1.5941
29276SOL     OW91229   9.994   5.898   1.706 -0.0056 -0.1954 -0.3855
29276SOL    HW191230  10.084   5.864   1.705  0.2327  0.4181 -1.7263
29276SOL    HW291231   9.992   5.962   1.636 -0.9443  1.2775  0.9246
29277SOL     OW91232   0.867   7.068  10.252  0.7419  0.8973  0.1323
29277SOL    HW191233   0.943   7.120  10.226 -0.3333  1.9653 -0.9665
29277SOL    HW291234   0.850   7.011  10.177  1.8138 -1.0279  1.2563
29278SOL     OW91235   3.203   4.816   8.127  0.5319  0.2633  0.3228
29278SOL    HW191236   3.189   4.895   8.074  0.6613 -0.4279 -0.7848
29278SOL    HW291237   3.293   4.790   8.108  0.9483  0.5836  1.7286
29279SOL     OW91238   4.540   6.789   1.086  0.0065 -0.5303 -0.3506
29279SOL    HW191239   4.581   6.873   1.067  1.5885 -0.8187  1.4354
29279SOL    HW291240   4.469   6.810   1.147  0.4990 -0.5001  0.2145
29280SOL     OW91241   9.978   1.130   4.835 -0.5189 -0.3190  0.2842
29280SOL    HW191242   9.972   1.168   4.747  0.6943 -0.9937 -0.1109
29280SOL    HW291243  10.072   1.123   4.851 -0.6799  1.0915  2.2259
29281SOL     OW91244   6.954  10.302  10.404 -0.1209  0.4066  0.1464
29281SOL    HW191245   6.871  10.341  10.375 -1.6387 -1.4679  1.6487
29281SOL    HW291246   6.972  10.233  10.340  0.3416  0.8536 -0.2149
29282SOL     OW91247   8.713   4.203   1.099  0.6475 -0.2615  0.3341
29282SOL    HW191248   8.660   4.135   1.057 -0.2273  0.9160 -0.5145
29282SOL    HW291249   8.673   4.215   1.185  0.1054 -0.0111  0.0436
29283SOL     OW91250   0.375   1.393   0.304  0.1864  0.0604  0.3311
29283SOL    HW191251   0.299   1.355   0.260  0.1472  1.8585 -1.2799
29283SOL    HW291252   0.363   1.370   0.396 -0.5173 -2.5722 -0.3469
29284SOL     OW91253  10.626   0.634   2.581  0.7811  0.1737 -0.0737
29284SOL    HW191254  10.640   0.539   2.583  0.0173 -0.0886 -3.0011
29284SOL    HW291255  10.664   0.662   2.497  0.7351  2.4363  0.5925
29285SOL     OW91256   2.869  10.495   6.121 -0.5237 -0.0953 -0.1865
29285SOL    HW191257   2.935  10.520   6.186 -0.5740 -0.2537 -0.0733
29285SOL    HW291258   2.807  10.568   6.120 -0.5259 -0.0953 -0.0507
29286SOL     OW91259  10.042   5.790   0.353  0.4461 -0.6394 -0.8390
29286SOL    HW191260  10.024   5.733   0.427  0.9096 -0.4555 -0.5807
29286SOL    HW291261  10.012   5.741   0.276 -0.2692 -0.7234 -0.5102
29287SOL     OW91262   2.304   1.711   9.540 -0.1915  0.0218 -0.0428
29287SOL    HW191263   2.323   1.805   9.532 -2.2103  0.7725  2.5245
29287SOL    HW291264   2.209   1.705   9.526 -0.5602 -1.1689  2.4407
29288SOL     OW91265   8.034   1.377   4.495  0.9385 -0.2889 -0.9654
29288SOL    HW191266   8.030   1.461   4.541 -0.9703 -0.5901 -0.5167
29288SOL    HW291267   8.087   1.322   4.553 -0.7712 -0.4295  0.5485
29289SOL     OW91268   0.182   7.908   2.030  0.1890 -0.5628 -0.2712
29289SOL    HW191269   0.158   7.881   1.941 -0.5081  0.4717 -0.4119
29289SOL    HW291270   0.245   7.980   2.017  0.8088 -1.0312  0.0844
29290SOL     OW91271   0.002   6.153   5.022 -0.2726 -0.5315 -0.3948
29290SOL    HW191272   0.041   6.066   5.009  0.2096 -0.0782 -2.3541
29290SOL    HW291273   0.020   6.199   4.940 -1.7353  0.9565  0.0765
29291SOL     OW91274   8.415   5.178  10.230  0.0986  0.0481 -0.0588
29291SOL    HW191275   8.369   5.128  10.298 -0.4217 -1.6897 -1.6071
29291SOL    HW291276   8.382   5.267  10.239 -1.0303 -0.4580  1.0560
29292SOL     OW91277   0.139   2.063   4.218  0.0524  0.0242 -0.5867
29292SOL    HW191278   0.172   1.986   4.264 -1.7140 -0.2587  0.2731
29292SOL    HW291279   0.079   2.105   4.280  0.0778  1.4359 -1.4726
29293SOL     OW91280   0.690   6.268   6.375  0.2176  0.3392  0.1954
29293SOL    HW191281   0.617   6.207   6.370  0.6484 -0.1727  0.1619
29293SOL    HW291282   0.763   6.216   6.408  0.6011  0.8216  0.1155
29294SOL     OW91283   1.916   9.398  10.657 -0.1610  0.6789 -0.0042
29294SOL    HW191284   1.947   9.487  10.640 -1.0819  1.0814  0.3524
29294SOL    HW291285   1.868   9.405  10.740  1.4816 -0.5735  1.1128
29295SOL     OW91286   7.689   0.960   5.820  0.2920  0.3376  0.7910
29295SOL    HW191287   7.777   0.923   5.822  1.6268  3.1134 -0.6498
29295SOL    HW291288   7.637   0.899   5.768  1.9295 -0.3467 -0.0886
29296SOL     OW91289   1.183   7.569   2.417 -0.2571  0.1876  0.2763
29296SOL    HW191290   1.088   7.571   2.406 -0.1503  1.9268 -0.8494
29296SOL    HW291291   1.200   7.632   2.487  0.1362  0.9584 -0.4938
29297SOL     OW91292   5.106   6.313   5.638  0.1844 -0.6983  0.3264
29297SOL    HW191293   5.079   6.254   5.568 -0.1558  0.7107 -0.7809
29297SOL    HW291294   5.198   6.332   5.618 -0.1649  0.4270 -0.3148
29298SOL     OW91295   2.894   0.191   9.815 -0.0905  0.3328 -0.0346
29298SOL    HW191296   2.906   0.156   9.727 -1.6054 -0.3332 -0.0057
29298SOL    HW291297   2.806   0.229   9.814 -0.7953 -1.0947  1.6010
29299SOL     OW91298   0.732   4.258   7.023  0.4937  0.2297  0.2353
29299SOL    HW191299   0.713   4.288   7.112  0.4482  2.9408 -0.5945
29299SOL    HW291300   0.758   4.167   7.033  0.2845  0.3976  2.9928
29300SOL     OW91301   5.704   4.313   6.248 -0.7906  0.1850 -0.5252
29300SOL    HW191302   5.764   4.263   6.193  0.5542  1.2721 -0.1104
29300SOL    HW291303   5.689   4.257   6.324  0.8112  0.4203  0.0026
29301SOL     OW91304   4.548  10.918   4.182  0.3419 -0.2908 -0.1543
29301SOL    HW191305   4.521  10.956   4.099  1.6168  0.4475 -0.2473
29301SOL    HW291306   4.477  10.857   4.204 -1.6746  1.9289 -0.1020
29302SOL     OW91307   2.026   6.942   9.505 -0.5378  0.2223 -1.0781
29302SOL    HW191308   2.042   6.904   9.592 -0.2667 -0.7898 -1.5610
29302SOL    HW291309   2.087   6.897   9.447 -2.7092 -1.3128 -2.3499
29303SOL     OW91310   8.560   3.683   9.865  0.4859  0.4489  0.0853
29303SOL    HW191311   8.563   3.622   9.939  0.1378 -0.5304 -0.6857
29303SOL    HW291312   8.467   3.696   9.848  0.5639  0.8357 -0.0565
29304SOL     OW91313   3.348   6.740   0.755  0.2636  0.4743  0.1762
29304SOL    HW191314   3.288   6.800   0.711 -0.5031  0.1512  0.7476
29304SOL    HW291315   3.301   6.714   0.835  0.4198 -1.1553 -0.2261
29305SOL     OW91316   8.503   5.325   5.058  0.3798  0.0130 -0.3494
29305SOL    HW191317   8.432   5.264   5.041  0.3714  0.0797 -0.5600
29305SOL    HW291318   8.460   5.410   5.064  0.5269  0.1659 -1.2700
29306SOL     OW91319   4.810   0.415   0.696 -0.7758  0.0424  0.3271
29306SOL    HW191320   4.872   0.351   0.731 -0.5521  1.0635  1.9006
29306SOL    HW291321   4.732   0.364   0.675 -0.5426 -0.7857  1.3970
29307SOL     OW91322   7.222   8.938   3.136 -0.3723 -0.4367  0.4325
29307SOL    HW191323   7.208   8.844   3.125  2.7269 -0.8786 -0.6116
29307SOL    HW291324   7.231   8.950   3.231 -1.6982 -0.9817  0.6507
29308SOL     OW91325   9.219   4.375   6.242 -0.1215  0.3319  0.3498
29308SOL    HW191326   9.175   4.399   6.324 -1.1222 -0.5801  0.0918
29308SOL    HW291327   9.150   4.339   6.187  0.1341  2.6429 -1.6559
29309SOL     OW91328   9.043   4.312   4.762  0.2721 -0.2963  0.2490
29309SOL    HW191329   9.118   4.326   4.820 -0.3990  0.4115  0.9741
29309SOL    HW291330   9.008   4.227   4.789  0.6151 -0.4743  0.1352
29310SOL     OW91331   4.933   9.537   6.715  0.1020  0.1830 -0.2079
29310SOL    HW191332   5.013   9.545   6.662 -0.0411 -0.4612 -0.5331
29310SOL    HW291333   4.864   9.572   6.659  0.0749  0.2503 -0.1322
29311SOL     OW91334  10.374   9.215  10.778 -0.0924 -0.0068 -0.4823
29311SOL    HW191335  10.433   9.179  10.845  1.4236  0.0571 -1.7125
29311SOL    HW291336  10.384   9.154  10.704 -0.6321  0.7044 -1.1459
29312SOL     OW91337  10.167   6.570   7.143  0.3055  0.4786 -0.1363
29312SOL    HW191338  10.188   6.478   7.157 -0.5786  0.4456  1.1367
29312SOL    HW291339  10.074   6.570   7.120  0.3975  1.0281 -0.5328
29313SOL     OW91340   5.419   9.944   3.522  0.5844 -0.2646 -0.2988
29313SOL    HW191341   5.427   9.873   3.585  0.5078  0.3931  0.4674
29313SOL    HW291342   5.325   9.960   3.515  0.6468  0.3900  0.2612
29314SOL     OW91343   9.008  10.277   3.844 -0.0729  0.3080 -0.0226
29314SOL    HW191344   9.010  10.181   3.844  0.8366  0.3206 -1.0931
29314SOL    HW291345   8.925  10.298   3.888 -0.9184 -0.9787 -0.9254
29315SOL     OW91346   8.263   7.137   3.129 -0.0363 -0.3883  0.3335
29315SOL    HW191347   8.354   7.114   3.111  0.4129  0.3500  1.5606
29315SOL    HW291348   8.230   7.064   3.182 -0.9555 -1.8892 -2.1015
29316SOL     OW91349   8.853   7.030   0.266 -0.1026  0.5645 -0.9061
29316SOL    HW191350   8.884   7.120   0.259  0.6549  0.4198  0.1420
29316SOL    HW291351   8.886   7.001   0.352 -1.6704 -0.2004 -0.5248
29317SOL     OW91352   1.217   9.574   9.052 -0.0500 -0.6944  0.0707
29317SOL    HW191353   1.283   9.534   9.108  0.5290 -1.1307 -0.8998
29317SOL    HW291354   1.134   9.535   9.082  0.1889 -0.5962  0.8949
29318SOL     OW91355  10.596   9.739   0.762 -0.2894  0.0601 -0.1198
29318SOL    HW191356  10.512   9.764   0.725 -0.2427  0.0657 -0.2212
29318SOL    HW291357  10.589   9.761   0.855 -1.2380 -2.0574  0.3557
29319SOL     OW91358   5.727   0.266   4.049 -0.7130 -0.0170 -0.3302
29319SOL    HW191359   5.769   0.332   3.994  1.4169 -1.3450 -0.4252
29319SOL    HW291360   5.697   0.200   3.987  1.9175 -1.6454 -0.0561
29320SOL     OW91361   7.795   4.367   3.718  0.4047  0.1673 -0.2097
29320SOL    HW191362   7.730   4.435   3.701 -1.2777 -1.8757 -2.6196
29320SOL    HW291363   7.874   4.397   3.673  0.6212  1.7668  1.1310
29321SOL     OW91364   0.380   0.999   6.124 -0.4258  0.3487 -0.4251
29321SOL    HW191365   0.452   0.945   6.093 -2.2675 -0.7524 -3.1853
29321SOL    HW291366   0.408   1.089   6.109  1.2288  0.0579  0.7307
29322SOL     OW91367   7.280   7.531   9.924 -0.0607  0.2727 -0.3428
29322SOL    HW191368   7.217   7.603   9.918  0.1174  0.3940 -0.8154
29322SOL    HW291369   7.341   7.547   9.851 -0.1007 -0.4321 -0.5372
29323SOL     OW91370   0.705   3.726   9.615  0.1598  0.0578 -0.4053
29323SOL    HW191371   0.787   3.774   9.619 -0.5548  1.5877 -2.3910
29323SOL    HW291372   0.638   3.793   9.601 -1.1097 -1.3365 -1.3769
29324SOL     OW91373   9.582   6.688   1.652  0.5160 -0.0597  0.0051
29324SOL    HW191374   9.675   6.663   1.656  0.6347  0.5164  1.7027
29324SOL    HW291375   9.582   6.781   1.672 -0.1617  0.9033 -3.6532
29325SOL     OW91376   9.384  10.102   1.597 -0.1603 -0.8461  0.1620
29325SOL    HW191377   9.290  10.083   1.605 -0.0961 -1.5581 -0.6577
29325SOL    HW291378   9.392  10.148   1.513  0.2895 -1.2837 -0.0391
29326SOL     OW91379   7.745   9.485   9.071  0.0501  0.4560  0.4016
29326SOL    HW191380   7.794   9.425   9.015 -2.8144  0.4059 -2.3404
29326SOL    HW291381   7.735   9.564   9.017 -0.6590  1.4329  1.8989
29327SOL     OW91382   9.827   4.075   8.806 -0.3728  0.3020  0.2505
29327SOL    HW191383   9.889   4.051   8.875 -1.7139  0.2106  1.4867
29327SOL    HW291384   9.856   4.161   8.775  0.1362  0.4394  1.0978
29328SOL     OW91385   5.299   0.415   5.906  1.0410 -0.3969 -1.0221
29328SOL    HW191386   5.222   0.460   5.940  1.2143  0.1862 -1.3992
29328SOL    HW291387   5.265   0.355   5.839  1.0077  0.5918 -1.9163
29329SOL     OW91388   3.685   3.919   4.985 -0.2081 -0.0960 -0.8684
29329SOL    HW191389   3.685   3.984   4.914 -2.6850 -3.2057 -4.1334
29329SOL    HW291390   3.619   3.952   5.046  0.7108  1.8313 -0.8273
29330SOL     OW91391   8.511  10.022   3.545  0.0077  0.0390  0.2659
29330SOL    HW191392   8.472   9.939   3.573 -1.3554  0.8096  0.7101
29330SOL    HW291393   8.580  10.040   3.609  0.1083 -0.5923  0.3376
29331SOL     OW91394   3.018   6.909   8.095 -0.2536  0.3455 -0.9029
29331SOL    HW191395   3.059   6.882   8.012  0.1522  0.0629 -0.6096
29331SOL    HW291396   2.983   6.996   8.076  0.5820  0.6448 -1.1205
29332SOL     OW91397   7.975   9.624   5.944  0.1562 -0.3385 -0.3142
29332SOL    HW191398   7.927   9.622   6.027  1.3296 -1.5246  0.3583
29332SOL    HW291399   7.977   9.717   5.921  0.2437  0.0760  1.2481
29333SOL     OW91400   7.529   9.773   6.028  0.6443  0.5422  0.3197
29333SOL    HW191401   7.463   9.812   6.086 -0.8747  1.6782 -2.0109
29333SOL    HW291402   7.596   9.840   6.019  0.5041  0.6687  0.2032
29334SOL     OW91403   0.051   6.923   4.343 -0.1658 -0.0595 -0.0880
29334SOL    HW191404   0.135   6.888   4.313 -0.6261  0.5723 -2.2248
29334SOL    HW291405  -0.014   6.887   4.283 -1.4085 -0.1654  1.2411
29335SOL     OW91406   1.733   0.978   5.993  0.0972 -0.3605 -0.9415
29335SOL    HW191407   1.805   0.926   6.027  0.4970 -0.5738 -2.0923
29335SOL    HW291408   1.759   1.069   6.009 -0.6453 -0.4500  1.1570
29336SOL     OW91409   2.225   3.136   2.951  0.0361  0.2820  0.2563
29336SOL    HW191410   2.235   3.218   2.903  0.0519 -1.2116 -2.5096
29336SOL    HW291411   2.314   3.105   2.964 -0.0151 -0.0667 -0.1930
29337SOL     OW91412   9.939   7.885   3.095 -0.0098  0.2341 -0.1118
29337SOL    HW191413   9.979   7.896   3.181 -1.7867  0.8054  0.6756
29337SOL    HW291414   9.989   7.814   3.054  1.0728  0.1774  1.2393
29338SOL     OW91415   9.302   6.658   4.228 -0.4263  0.0560  0.2926
29338SOL    HW191416   9.305   6.592   4.158 -1.3521 -0.8263  1.0505
29338SOL    HW291417   9.348   6.617   4.301 -0.5688  0.4581  0.6076
29339SOL     OW91418   8.670   3.797   3.567  0.2597  0.0208 -0.4318
29339SOL    HW191419   8.644   3.855   3.495 -0.3709 -0.0581 -0.2759
29339SOL    HW291420   8.631   3.837   3.645  0.1668 -0.3893 -0.2647
29340SOL     OW91421   3.762   6.919  10.493 -0.2599 -0.3415 -0.0969
29340SOL    HW191422   3.762   6.843  10.434  0.1791 -0.7416  0.4065
29340SOL    HW291423   3.682   6.910  10.544 -0.6527  0.0173 -0.6313
29341SOL     OW91424   9.860   1.417   3.130  0.5392  0.0198 -0.1485
29341SOL    HW191425   9.787   1.480   3.133 -1.0886 -1.7500 -0.5661
29341SOL    HW291426   9.907   1.439   3.050  1.7612  2.4683  1.1148
29342SOL     OW91427  10.536   8.056   8.198 -0.3678  0.2280 -0.3661
29342SOL    HW191428  10.554   8.106   8.277  1.3326 -0.2113 -0.4238
29342SOL    HW291429  10.476   8.110   8.147 -1.0306  0.7649  0.9528
29343SOL     OW91430   5.197   7.199   1.524  0.2231 -0.9320  0.3701
29343SOL    HW191431   5.210   7.128   1.588  0.2161  0.4909  2.0122
29343SOL    HW291432   5.219   7.278   1.572 -1.6907  0.3879 -0.8017
29344SOL     OW91433   2.127  10.392   9.842  0.1025  0.1380 -0.3060
29344SOL    HW191434   2.211  10.363   9.877 -1.0843 -1.0315  1.7532
29344SOL    HW291435   2.124  10.486   9.859  0.9436  0.1699 -0.3223
29345SOL     OW91436   0.339   8.973   2.018 -0.4062 -0.2798  0.0256
29345SOL    HW191437   0.388   9.055   2.011 -0.7880 -0.0290  0.2354
29345SOL    HW291438   0.270   8.992   2.082 -1.3746 -0.3334 -0.9873
29346SOL     OW91439   2.114   5.198  10.007 -0.2403 -0.3360  0.0251
29346SOL    HW191440   2.191   5.255  10.010 -0.6845  0.4077 -1.5398
29346SOL    HW291441   2.145   5.120   9.961  0.1077 -0.9626  1.2850
29347SOL     OW91442  10.426   6.516   0.254  0.0142  0.0438 -0.1658
29347SOL    HW191443  10.444   6.486   0.343 -0.1713 -0.7955 -0.4008
29347SOL    HW291444  10.348   6.467   0.227  0.7924 -0.6465 -1.2358
29348SOL     OW91445   1.255   9.996   8.432 -0.1404  0.5147  0.2222
29348SOL    HW191446   1.186  10.023   8.371 -0.1122  0.9671  0.3868
29348SOL    HW291447   1.325  10.060   8.419  0.2837  0.0102 -0.0031
29349SOL     OW91448   6.448   0.556   0.527  0.4070 -0.5159 -0.3096
29349SOL    HW191449   6.430   0.463   0.508 -1.1798  0.1145 -2.2775
29349SOL    HW291450   6.508   0.554   0.601  2.6066 -3.1777 -1.9823
29350SOL     OW91451  10.753   6.829   7.897 -0.0152  0.1200  0.5380
29350SOL    HW191452  10.739   6.743   7.857  1.4288  0.3430 -0.5048
29350SOL    HW291453  10.694   6.830   7.973  0.3577 -2.0049  0.9029
29351SOL     OW91454   1.222   9.288   7.309  0.2492 -0.2778 -0.0213
29351SOL    HW191455   1.148   9.228   7.305  0.1421 -0.1269 -0.3146
29351SOL    HW291456   1.298   9.233   7.289  0.1842 -0.3697 -0.0152
29352SOL     OW91457  10.829   9.612   9.420  0.4094  0.1597 -0.1111
29352SOL    HW191458  10.741   9.627   9.386  0.1123  0.0951  0.6192
29352SOL    HW291459  10.821   9.624   9.514  1.1042 -0.2198  0.0025
29353SOL     OW91460  10.888  10.419   6.910  0.0577  0.3723 -0.2804
29353SOL    HW191461  10.929  10.488   6.963  0.6623 -1.3245  1.5934
29353SOL    HW291462  10.888  10.342   6.967 -3.6498 -0.3715 -1.0427
29354SOL     OW91463   3.250   4.154   2.436 -0.0822 -0.4358 -0.6723
29354SOL    HW191464   3.171   4.179   2.485 -0.0691 -1.7674  0.0718
29354SOL    HW291465   3.317   4.215   2.465 -0.6032  0.1010 -0.5864
29355SOL     OW91466   5.393  10.468   9.192  0.1921  0.2228 -0.5877
29355SOL    HW191467   5.481  10.439   9.215  0.2200 -0.1131 -1.1213
29355SOL    HW291468   5.366  10.522   9.266  1.3947  1.4948 -1.0440
29356SOL     OW91469   9.386   1.449   0.571 -0.6598 -0.0639  0.4212
29356SOL    HW191470   9.386   1.542   0.548 -2.4306  0.0420  0.7286
29356SOL    HW291471   9.373   1.404   0.488  0.0718 -0.0522  0.2899
29357SOL     OW91472   8.128   3.586   8.855  0.1206  0.5577  0.8009
29357SOL    HW191473   8.089   3.550   8.775 -0.7795 -0.2016  1.5588
29357SOL    HW291474   8.097   3.677   8.858 -2.4787 -0.2638  1.8596
29358SOL     OW91475   0.223   8.697   9.363  0.3415  0.2870  0.1483
29358SOL    HW191476   0.220   8.664   9.273 -0.4271 -0.2040  0.3454
29358SOL    HW291477   0.161   8.642   9.411  0.4002  0.8438  0.8842
29359SOL     OW91478   4.099   6.073   4.946 -0.1930 -0.2845 -0.2613
29359SOL    HW191479   4.183   6.041   4.913 -0.2202  0.0690 -0.6884
29359SOL    HW291480   4.037   6.056   4.876 -0.7104 -1.5123  0.4633
29360SOL     OW91481   1.900   3.409   8.413 -0.0612 -0.1373 -0.2243
29360SOL    HW191482   1.884   3.497   8.448 -0.3994  1.3530 -3.7258
29360SOL    HW291483   1.822   3.360   8.435 -1.9208  1.8338 -1.9621
29361SOL     OW91484   3.375   9.282   1.335  0.4432  0.5016  0.1732
29361SOL    HW191485   3.290   9.240   1.344  1.4726 -1.8844 -0.3386
29361SOL    HW291486   3.363   9.346   1.266 -0.9911  0.3550  0.2580
29362SOL     OW91487   0.677   3.696   9.318 -0.2858  0.3672  0.4031
29362SOL    HW191488   0.626   3.656   9.247  0.0295 -0.4499  0.6193
29362SOL    HW291489   0.652   3.646   9.396  0.0819  0.6267  0.6925
29363SOL     OW91490   6.229   4.112   8.229 -0.4582 -0.4897  0.3415
29363SOL    HW191491   6.245   4.043   8.293 -0.6780 -0.3930  0.5030
29363SOL    HW291492   6.227   4.193   8.281  1.1183 -0.1945 -0.0076
29364SOL     OW91493   2.388   0.190   1.636  0.3082 -0.6462  0.4624
29364SOL    HW191494   2.363   0.282   1.636  0.7793 -0.5121  0.9349
29364SOL    HW291495   2.329   0.148   1.699 -0.2362 -0.7686 -0.1174
29365SOL     OW91496   2.863   4.783   1.127 -0.5786  0.6512  0.5653
29365SOL    HW191497   2.935   4.819   1.179 -0.1407  0.3159  0.1938
29365SOL    HW291498   2.785   4.802   1.179 -0.1623  0.4716  1.2689
29366SOL     OW91499   1.271   9.272   8.919 -0.3789  0.2038  0.5168
29366SOL    HW191500   1.280   9.177   8.923  0.5553  0.3017  1.0649
29366SOL    HW291501   1.348   9.305   8.966 -0.0594  1.2498 -0.7007
29367SOL     OW91502   4.525   4.735   7.838  0.1815 -0.2241  0.2152
29367SOL    HW191503   4.508   4.776   7.923 -2.3596  2.2476 -1.2779
29367SOL    HW291504   4.611   4.768   7.812  0.0497  0.7249  0.9319
29368SOL     OW91505   2.220   0.786   6.083  0.3693 -0.5001  0.1932
29368SOL    HW191506   2.221   0.693   6.104  0.3825 -1.8534 -4.6465
29368SOL    HW291507   2.311   0.807   6.063  0.0746  0.0330 -0.6238
29369SOL     OW91508   3.404   8.033   2.206 -0.3901  0.0365 -0.2098
29369SOL    HW191509   3.449   8.085   2.273 -0.8564 -0.8008  0.7824
29369SOL    HW291510   3.318   8.075   2.196 -1.0547 -0.9557  1.1408
29370SOL     OW91511   6.210  10.067   0.266 -0.0651 -1.0464  0.5903
29370SOL    HW191512   6.272  10.121   0.216  0.1466 -0.6984  1.2166
29370SOL    HW291513   6.200   9.988   0.213 -0.4461 -0.3645 -0.3894
29371SOL     OW91514  10.863   0.220   8.890 -0.4421  0.2236 -0.9094
29371SOL    HW191515  10.936   0.253   8.942 -0.1574  0.3994 -1.4183
29371SOL    HW291516  10.787   0.270   8.920  0.2152  2.3990 -2.6506
29372SOL     OW91517   4.654   0.728   4.738  0.2508  0.4317  0.1388
29372SOL    HW191518   4.742   0.762   4.751 -0.0094  1.2794 -0.2061
29372SOL    HW291519   4.638   0.671   4.813 -0.2761  3.1673  2.2672
29373SOL     OW91520   8.617   5.515   9.126  0.2168 -0.3360 -0.6172
29373SOL    HW191521   8.678   5.576   9.168 -0.5491 -0.2786  0.4620
29373SOL    HW291522   8.673   5.446   9.090  0.8809 -0.8128  1.2053
29374SOL     OW91523   4.979   4.802   5.067 -0.2211  0.2401 -0.1284
29374SOL    HW191524   5.069   4.781   5.094  0.2267  0.4548 -1.3799
29374SOL    HW291525   4.987   4.825   4.974 -1.5266  0.5878 -0.1686
29375SOL     OW91526   6.782   0.901   1.929 -0.4975 -0.4981 -0.1512
29375SOL    HW191527   6.853   0.965   1.939 -1.6370  0.7288  0.4679
29375SOL    HW291528   6.822   0.828   1.881  1.2767 -0.0307  0.5249
29376SOL     OW91529   5.495   3.402   6.455 -0.5356  0.4366 -0.4307
29376SOL    HW191530   5.402   3.415   6.438 -0.4941 -0.3426 -1.3274
29376SOL    HW291531   5.497   3.344   6.532 -0.7993  0.2325 -0.5754
29377SOL     OW91532   0.425   3.440   7.750  0.3271  0.5976  0.1745
29377SOL    HW191533   0.448   3.532   7.742 -1.6232  1.0917 -0.2201
29377SOL    HW291534   0.329   3.438   7.743  0.2763 -1.3936  0.7606
29378SOL     OW91535   3.179   3.686   9.496 -0.2148  0.0957 -0.1825
29378SOL    HW191536   3.092   3.724   9.490 -0.5303 -0.4370  0.9067
29378SOL    HW291537   3.193   3.671   9.589  0.8945 -0.1794 -0.3724
29379SOL     OW91538   0.134   5.662   8.172  0.5020  0.2295  0.2616
29379SOL    HW191539   0.097   5.728   8.230  1.3732  0.4459  0.5752
29379SOL    HW291540   0.223   5.648   8.204  0.4533 -0.8258 -0.0240
29380SOL     OW91541   7.418   8.709   8.705  0.0774  1.0054 -0.3513
29380SOL    HW191542   7.387   8.637   8.760  2.1042 -0.5174 -1.1172
29380SOL    HW291543   7.362   8.706   8.627  1.4911 -1.1990 -1.3610
29381SOL     OW91544   7.012   1.982   2.894 -0.0925 -0.0423  0.1288
29381SOL    HW191545   6.979   2.070   2.874 -1.6853 -0.4798  0.6506
29381SOL    HW291546   7.027   1.983   2.988 -0.4980 -0.4506  0.1974
29382SOL     OW91547   6.446   6.091   4.549  0.0743  0.3173 -0.1735
29382SOL    HW191548   6.407   6.085   4.636 -1.4455  0.6306 -0.8099
29382SOL    HW291549   6.383   6.046   4.492  1.1196 -0.0101 -1.0984
29383SOL     OW91550   3.826   0.766   3.722  0.1081 -0.7008 -0.9010
29383SOL    HW191551   3.773   0.845   3.717  0.6365 -0.4498 -3.4681
29383SOL    HW291552   3.765   0.694   3.707 -0.0558 -0.6577 -0.4488
29384SOL     OW91553   8.268   5.223  10.646 -0.2774 -0.3399 -0.1582
29384SOL    HW191554   8.305   5.159  10.586  2.0335 -0.9366  1.7226
29384SOL    HW291555   8.175   5.203  10.650  0.1356 -2.6481 -0.7485
29385SOL     OW91556   2.171   8.757   5.699 -0.0747  0.4556  0.2334
29385SOL    HW191557   2.187   8.757   5.605  2.8378 -0.1099  0.6320
29385SOL    HW291558   2.159   8.665   5.721  1.5030  0.3120  0.6570
29386SOL     OW91559   7.625   9.489   4.096  0.1981 -0.2913 -0.2453
29386SOL    HW191560   7.557   9.479   4.029 -0.2998 -0.2108  0.2344
29386SOL    HW291561   7.708   9.482   4.048 -0.1482 -0.0875 -0.8880
29387SOL     OW91562   4.489   1.019   5.360  0.5192 -0.2886  0.1279
29387SOL    HW191563   4.460   1.079   5.291 -3.1285 -1.4123  0.4911
29387SOL    HW291564   4.499   0.935   5.316  3.1002 -0.0571  0.1236
29388SOL     OW91565   6.155   5.067   3.887 -0.5239  0.4630  0.4942
29388SOL    HW191566   6.106   4.986   3.872 -1.2999  0.9629  0.2632
29388SOL    HW291567   6.195   5.086   3.802  0.3435 -0.1057  0.7593
29389SOL     OW91568   8.687   2.791   6.109  0.1829  0.0196  0.2170
29389SOL    HW191569   8.653   2.721   6.054  0.1142 -0.1554  0.4822
29389SOL    HW291570   8.712   2.860   6.047  1.4740 -0.7473 -0.1614
29390SOL     OW91571  10.151   2.823  10.201  0.1374 -0.0855  0.0669
29390SOL    HW191572  10.205   2.760  10.153  2.7094  0.6917  1.7530
29390SOL    HW291573  10.079   2.842  10.141  0.6007 -2.7083 -1.5039
29391SOL     OW91574   9.423   5.681   6.800  0.3331 -0.0243 -0.2646
29391SOL    HW191575   9.460   5.615   6.741 -2.0398  0.8089 -2.9391
29391SOL    HW291576   9.494   5.743   6.816  1.1371 -0.3815 -2.2014
29392SOL     OW91577   4.356   3.660   4.133 -0.2158  0.1722 -0.0141
29392SOL    HW191578   4.276   3.614   4.107  1.6444 -3.5664  0.2432
29392SOL    HW291579   4.417   3.646   4.060  1.4093 -0.5319  1.3989
29393SOL     OW91580   3.032   3.004   6.146 -0.0328  0.1486 -0.0747
29393SOL    HW191581   3.053   3.071   6.211 -0.7183  0.4816 -0.1954
29393SOL    HW291582   3.022   3.051   6.064  0.0044 -0.1668 -0.2642
29394SOL     OW91583   1.286  10.628   9.372  0.5642 -0.1673  0.4061
29394SOL    HW191584   1.282  10.538   9.405  2.0748 -0.3807  0.0766
29394SOL    HW291585   1.281  10.682   9.451 -1.1200 -0.4918  0.5493
29395SOL     OW91586   2.263   6.186   7.532 -0.1307 -0.7567  0.4847
29395SOL    HW191587   2.328   6.196   7.463 -1.7159  1.7340 -0.8089
29395SOL    HW291588   2.182   6.165   7.485 -1.4110  1.7466  1.3818
29396SOL     OW91589   2.667   9.459   8.076  0.3276  0.7288 -0.1034
29396SOL    HW191590   2.631   9.486   7.991  2.0126  2.1918 -0.4228
29396SOL    HW291591   2.761   9.452   8.060  0.6749  1.0592  1.6475
29397SOL     OW91592   9.333   3.070   0.034 -0.0672  0.1055 -0.1178
29397SOL    HW191593   9.268   3.030  -0.024 -0.0398 -1.5666  0.9337
29397SOL    HW291594   9.334   3.014   0.111  0.8246  1.5495  0.9710
29398SOL     OW91595   8.511   3.408   4.779 -0.0085  0.2955 -0.5227
29398SOL    HW191596   8.461   3.475   4.826 -1.3176 -0.7446 -0.3518
29398SOL    HW291597   8.452   3.378   4.710  0.3022 -1.0937 -0.2197
29399SOL     OW91598   9.434   0.946   2.252 -0.5209  0.2807 -0.1364
29399SOL    HW191599   9.461   0.872   2.307  0.7787  2.1360  1.9306
29399SOL    HW291600   9.488   0.939   2.174 -2.7863 -2.7391 -1.6154
29400SOL     OW91601   3.218   7.218   3.880  0.4087  0.1915  0.3042
29400SOL    HW191602   3.161   7.186   3.950  1.3595 -0.1168  0.9708
29400SOL    HW291603   3.185   7.305   3.859  0.1556  0.3248  1.2040
29401SOL     OW91604   8.631   7.385   2.670 -0.1089  0.5952  0.5797
29401SOL    HW191605   8.723   7.408   2.656  0.3525 -1.4922 -0.3347
29401SOL    HW291606   8.582   7.438   2.607  0.7051  0.2405 -0.3736
29402SOL     OW91607   9.779   4.134   5.771 -0.5157  0.2057  0.3703
29402SOL    HW191608   9.859   4.135   5.824 -1.0653  0.2516  1.2291
29402SOL    HW291609   9.798   4.073   5.700  0.8053  1.3540 -0.3036
29403SOL     OW91610   1.299   6.533   5.786 -0.0576  0.1136  0.0097
29403SOL    HW191611   1.367   6.501   5.727  1.1975  2.0762  0.2736
29403SOL    HW291612   1.268   6.614   5.744 -0.2826  0.6832  1.2243
29404SOL     OW91613   2.267   6.661   3.214  0.4318  0.3906 -0.2984
29404SOL    HW191614   2.326   6.729   3.249  0.3161  0.2326  0.2139
29404SOL    HW291615   2.254   6.686   3.122 -0.1248  1.4388  0.0416
29405SOL     OW91616   1.133   4.643   0.681 -0.1410  0.6982 -0.0095
29405SOL    HW191617   1.133   4.693   0.762  0.2489  1.1934 -0.3062
29405SOL    HW291618   1.078   4.567   0.699  1.4968 -0.2389  1.3602
29406SOL     OW91619   0.505   4.432  10.838 -0.2888  0.4297  0.7225
29406SOL    HW191620   0.449   4.448  10.914 -0.4698 -3.1509  1.5016
29406SOL    HW291621   0.592   4.417  10.875 -0.3326 -1.1003  0.2660
29407SOL     OW91622   6.044   4.677   7.920  0.8942 -0.2990  0.2859
29407SOL    HW191623   6.075   4.764   7.943  1.1529 -0.3349  0.0753
29407SOL    HW291624   5.951   4.688   7.904  1.0376  0.0511 -0.3093
29408SOL     OW91625   0.762   3.983   2.666  0.0931 -0.4271 -0.0094
29408SOL    HW191626   0.672   3.992   2.636 -0.0314  1.1949  0.7225
29408SOL    HW291627   0.803   3.923   2.603 -1.5071 -1.3063 -0.2649
29409SOL     OW91628   6.443   0.814   8.753  0.0816 -0.4458 -0.1891
29409SOL    HW191629   6.427   0.721   8.772 -0.7177  0.2410  3.1625
29409SOL    HW291630   6.359   0.856   8.768  1.3521  1.3249  3.0375
29410SOL     OW91631   0.005   9.024   7.630 -0.7175 -0.3525 -0.0367
29410SOL    HW191632  -0.048   8.972   7.570  0.1681  0.1040 -1.2673
29410SOL    HW291633   0.091   9.029   7.588  0.0213 -0.2427  1.4156
29411SOL     OW91634   5.114   4.072   0.784 -0.2794  0.0193  0.2047
29411SOL    HW191635   5.204   4.042   0.794 -0.5973 -0.5747  1.5384
29411SOL    HW291636   5.063   3.993   0.768 -0.2978  0.5776 -3.3415
29412SOL     OW91637  10.091   3.057   9.268  0.0074 -0.6626  0.5858
29412SOL    HW191638  10.075   3.152   9.268  0.5538 -0.5519 -0.0813
29412SOL    HW291639  10.156   3.044   9.337  0.0340 -0.5278  0.5876
29413SOL     OW91640   8.616  10.720   5.139 -0.2263  0.1031 -0.1387
29413SOL    HW191641   8.615  10.723   5.044  3.2996 -2.0935 -0.4344
29413SOL    HW291642   8.646  10.807   5.166 -2.6434  1.2256 -0.8311
29414SOL     OW91643   0.383   7.701   0.810 -0.0679 -0.4930  0.4846
29414SOL    HW191644   0.418   7.613   0.799  2.6087  0.3802  1.2680
29414SOL    HW291645   0.440   7.757   0.758 -0.7140  0.9710  1.2761
29415SOL     OW91646   8.196  10.331   3.357  0.2151  0.5785  0.0091
29415SOL    HW191647   8.165  10.254   3.405 -1.4528  0.6659 -0.8616
29415SOL    HW291648   8.284  10.346   3.391 -0.2732 -0.3499  1.8395
29416SOL     OW91649   0.382   0.292   1.468  0.2904 -0.5308  0.1644
29416SOL    HW191650   0.383   0.382   1.499 -0.5517 -0.4710  0.0446
29416SOL    HW291651   0.469   0.278   1.431 -0.4369  1.1569 -2.4048
29417SOL     OW91652   0.848   0.248   4.063  0.4233  0.5285  0.4369
29417SOL    HW191653   0.817   0.173   4.012  0.5106  0.5158  0.4022
29417SOL    HW291654   0.922   0.214   4.113 -0.2295  0.3020  1.2741
29418SOL     OW91655   3.195   3.064   3.200  0.2445  0.0860  0.1515
29418SOL    HW191656   3.147   3.118   3.138 -0.0274 -0.0657  0.2272
29418SOL    HW291657   3.153   3.080   3.284  0.0808 -0.3289  0.1553
29419SOL     OW91658   9.322   5.124   9.452 -0.4020 -0.2598  0.1570
29419SOL    HW191659   9.348   5.178   9.526 -1.2644 -0.2726  0.4816
29419SOL    HW291660   9.405   5.094   9.413  0.0791  1.2179  0.0087
29420SOL     OW91661   7.835   5.859   7.939 -0.5181 -0.2199 -0.3290
29420SOL    HW191662   7.921   5.898   7.922 -0.4213  0.1730  0.8910
29420SOL    HW291663   7.796   5.917   8.004 -1.6815 -0.4453 -0.8070
29421SOL     OW91664   0.592   3.833   2.983 -0.1451  0.6145  0.1426
29421SOL    HW191665   0.607   3.917   3.027 -1.0566  0.2342  1.2266
29421SOL    HW291666   0.506   3.843   2.942 -0.1496  0.2988  0.0748
29422SOL     OW91667   6.429   9.771   3.341  0.0876 -0.4831 -0.3901
29422SOL    HW191668   6.379   9.776   3.422 -0.0810 -3.0186 -0.2440
29422SOL    HW291669   6.513   9.732   3.367 -0.8239 -3.5879 -1.6511
29423SOL     OW91670   9.420   5.167   5.878  0.0027  0.2517  0.0269
29423SOL    HW191671   9.514   5.174   5.894  0.0701 -0.5530  0.0231
29423SOL    HW291672   9.380   5.200   5.958  0.3287 -2.4933  1.4439
29424SOL     OW91673   3.225   6.889   6.206  0.0524 -0.2197  0.1791
29424SOL    HW191674   3.193   6.810   6.251  0.0484 -1.0047 -1.1348
29424SOL    HW291675   3.320   6.884   6.213  0.0558 -0.3992  0.0151
29425SOL     OW91676   3.409   0.186   1.647  0.3802 -0.2661 -0.1039
29425SOL    HW191677   3.479   0.139   1.692 -0.3368 -2.2376 -0.9479
29425SOL    HW291678   3.365   0.120   1.595 -1.1763  1.2233 -0.7854
29426SOL     OW91679   0.256   1.420   9.346  0.0440 -0.1091  0.1451
29426SOL    HW191680   0.257   1.471   9.427  0.6101  3.0665 -1.6896
29426SOL    HW291681   0.334   1.449   9.299 -1.1634 -0.5758 -2.2701
29427SOL     OW91682   9.511   6.527   3.177  0.4718  0.6501  0.4401
29427SOL    HW191683   9.431   6.509   3.127 -0.0099  3.8394 -0.1383
29427SOL    HW291684   9.570   6.456   3.152 -1.8088 -1.2784  0.1447
29428SOL     OW91685  10.258   8.973   9.298  0.0982 -0.3694  0.1728
29428SOL    HW191686  10.341   8.994   9.340 -0.4794  1.4014  0.5275
29428SOL    HW291687  10.196   8.965   9.370 -0.5354  0.8877 -0.2003
29429SOL     OW91688   4.824   6.665   3.263  0.0477 -0.2484 -0.3050
29429SOL    HW191689   4.917   6.654   3.283  0.2221  0.8375 -0.4577
29429SOL    HW291690   4.783   6.584   3.294  0.7266  0.1190  1.7089
29430SOL     OW91691   6.842   2.119   0.836 -0.3662 -0.0180  0.2783
29430SOL    HW191692   6.844   2.059   0.910 -0.9861 -1.2985 -0.7190
29430SOL    HW291693   6.774   2.084   0.778 -0.1208  1.1460 -0.7511
29431SOL     OW91694   2.671   9.901   4.218  0.3143 -0.2908 -0.2400
29431SOL    HW191695   2.749   9.926   4.168  0.7416 -1.7638 -0.3550
29431SOL    HW291696   2.625   9.839   4.162 -0.1461 -0.5870  0.4580
29432SOL     OW91697   0.568   1.068   2.569 -0.0643 -0.1381 -0.2214
29432SOL    HW191698   0.474   1.053   2.556 -0.4283  1.6474  0.0485
29432SOL    HW291699   0.578   1.075   2.664  0.7004 -2.1972 -0.1078
29433SOL     OW91700  10.101   1.066   1.049  0.0857  0.4713 -0.7588
29433SOL    HW191701  10.012   1.030   1.047  0.8167 -1.4525 -0.1909
29433SOL    HW291702  10.106   1.112   1.133 -0.3068  0.4092 -0.6975
29434SOL     OW91703   4.492   3.613   9.270 -0.3568 -0.1812  0.0305
29434SOL    HW191704   4.427   3.552   9.235 -1.1256  0.1279  0.8837
29434SOL    HW291705   4.452   3.648   9.349  0.8771 -0.0121  0.6039
29435SOL     OW91706   7.963   5.240   2.305  0.3030 -0.0314  0.4474
29435SOL    HW191707   7.953   5.189   2.225  0.3374 -0.7298  0.8770
29435SOL    HW291708   8.056   5.234   2.326  0.0019 -1.4088  1.5266
29436SOL     OW91709   8.148  10.418   1.651  0.6841  0.2679  0.1804
29436SOL    HW191710   8.069  10.398   1.601  0.4592  0.9310  0.2478
29436SOL    HW291711   8.186  10.333   1.671  0.1835 -0.0483 -0.1703
29437SOL     OW91712   4.875   6.876   9.295 -0.0428  0.0220 -0.3454
29437SOL    HW191713   4.937   6.890   9.224 -0.4303  0.3946 -0.6158
29437SOL    HW291714   4.865   6.962   9.337  2.3437 -0.7090  1.9892
29438SOL     OW91715   1.653   1.768   9.098 -0.4403  0.3261  0.7049
29438SOL    HW191716   1.733   1.814   9.123 -0.4657 -0.5375  2.4874
29438SOL    HW291717   1.615   1.823   9.029  1.9845  0.4084 -0.6817
29439SOL     OW91718   5.482   3.430   7.837 -0.7208  0.5021 -0.1314
29439SOL    HW191719   5.441   3.442   7.752 -1.0583  2.1041  0.2197
29439SOL    HW291720   5.419   3.466   7.899 -0.0972  0.1836  0.7065
29440SOL     OW91721   3.669   1.327   3.503  0.1884  0.1488  0.1756
29440SOL    HW191722   3.734   1.261   3.528  0.8672  0.4067 -0.8678
29440SOL    HW291723   3.720   1.402   3.474 -0.5208 -0.1559 -2.0420
29441SOL     OW91724   6.324  10.244   6.286 -0.3145  0.3281 -0.4222
29441SOL    HW191725   6.283  10.319   6.329 -0.1143 -0.2151  0.7463
29441SOL    HW291726   6.398  10.282   6.238  0.5727  0.7521  1.2040
29442SOL     OW91727   6.097   7.866   0.879 -0.7419 -0.5116 -0.2066
29442SOL    HW191728   6.172   7.926   0.876 -3.0745  2.7001  0.2221
29442SOL    HW291729   6.101   7.828   0.967  0.9854 -1.3472 -0.6029
29443SOL     OW91730   0.385   1.314   3.376  0.1108 -0.5435 -0.2102
29443SOL    HW191731   0.337   1.345   3.300  0.4738 -0.3096 -0.3475
29443SOL    HW291732   0.326   1.252   3.418 -0.8741  0.7716  0.4162
29444SOL     OW91733   1.027   9.812  10.306 -0.0103  0.7772  0.1339
29444SOL    HW191734   1.065   9.725  10.321 -0.0220  0.6471 -0.5310
29444SOL    HW291735   1.099   9.873  10.321  0.2929  0.5764 -0.4403
29445SOL     OW91736   3.922  10.036   9.514 -0.6721  0.1268  0.7238
29445SOL    HW191737   3.853  10.004   9.572 -2.4486 -2.5258 -2.4862
29445SOL    HW291738   3.974   9.959   9.494  0.4147  1.1216 -0.4698
29446SOL     OW91739   0.913  10.262   2.319  0.0669 -0.7214 -0.3841
29446SOL    HW191740   0.986  10.324   2.316 -0.2487 -0.3881 -1.3194
29446SOL    HW291741   0.951  10.180   2.290 -0.2180 -0.2432 -2.1895
29447SOL     OW91742   1.905   1.292   8.239  0.1633 -0.0289 -0.5395
29447SOL    HW191743   1.826   1.297   8.292  0.3445 -1.6167 -0.0807
29447SOL    HW291744   1.878   1.323   8.153 -0.5476  0.9469  0.0169
29448SOL     OW91745  10.327   5.362   5.731 -0.3329  0.4183  0.0351
29448SOL    HW191746  10.400   5.315   5.691  0.0579  0.3702  0.8074
29448SOL    HW291747  10.361   5.395   5.814 -0.8929  1.2424 -0.0496
29449SOL     OW91748   8.189   7.743   3.640 -0.1302  0.0889  0.5275
29449SOL    HW191749   8.247   7.691   3.695  0.4234  0.9093  0.7332
29449SOL    HW291750   8.242   7.766   3.563 -0.4250  0.1978  0.3547
29450SOL     OW91751   6.950   4.631   7.798 -0.2272 -0.1148 -0.0961
29450SOL    HW191752   6.909   4.577   7.866  2.3554 -1.3445  0.6547
29450SOL    HW291753   6.948   4.576   7.720 -0.6798  0.1444 -0.2695
29451SOL     OW91754   3.151   0.821   1.113 -0.5966  0.0059 -0.1578
29451SOL    HW191755   3.209   0.746   1.127  0.5835  0.7406 -0.9190
29451SOL    HW291756   3.136   0.856   1.200  2.0412  1.1696 -0.0759
29452SOL     OW91757   8.095   3.790   1.748  0.3056  0.4566 -0.3771
29452SOL    HW191758   8.161   3.828   1.691 -0.6891  2.2517 -0.4300
29452SOL    HW291759   8.132   3.797   1.836  0.7609  0.1369 -0.5439
29453SOL     OW91760  10.741   4.646   2.387 -0.6616 -0.0768  0.3375
29453SOL    HW191761  10.810   4.702   2.423 -0.2564  0.0942 -0.6575
29453SOL    HW291762  10.772   4.557   2.403 -0.7505 -0.0115  0.8911
29454SOL     OW91763   4.097  10.897   2.755  0.2559 -0.5132  0.1972
29454SOL    HW191764   4.166  10.954   2.790 -0.5346  0.2908  0.4726
29454SOL    HW291765   4.088  10.925   2.664 -0.2614 -0.0551  0.3829
29455SOL     OW91766   1.702  10.858   4.545 -0.1488  0.0301 -0.4601
29455SOL    HW191767   1.755  10.883   4.621 -1.2807  1.3315 -0.0402
29455SOL    HW291768   1.636  10.799   4.581  0.7086 -1.2196 -0.8928
29456SOL     OW91769   7.221   8.777  10.681 -0.0807 -0.6029 -0.2603
29456SOL    HW191770   7.285   8.758  10.612  0.5026 -0.3539  0.1940
29456SOL    HW291771   7.255   8.856  10.723 -1.1695  0.0484 -0.5685
29457SOL     OW91772   1.968   1.363   1.447 -0.6157 -0.6822  0.1560
29457SOL    HW191773   1.952   1.269   1.449  3.2917 -1.5611 -0.7557
29457SOL    HW291774   1.983   1.383   1.354  1.1222  0.2154  0.5755
29458SOL     OW91775   6.237   0.124   8.342 -0.1941  0.3049 -0.4060
29458SOL    HW191776   6.320   0.169   8.356  0.3988 -0.5834 -0.9481
29458SOL    HW291777   6.196   0.121   8.428  0.5970  0.2535 -0.0255
29459SOL     OW91778   6.523   4.514   4.602  0.3972  0.6706 -0.3710
29459SOL    HW191779   6.511   4.558   4.686 -1.6622  3.1875 -1.8403
29459SOL    HW291780   6.461   4.440   4.606  0.7134  0.4311  0.4912
29460SOL     OW91781   5.686   6.730   9.194  0.1906 -0.1266  0.4431
29460SOL    HW191782   5.681   6.642   9.229 -1.5513  0.0939  0.8099
29460SOL    HW291783   5.706   6.785   9.269 -0.1706 -0.0500  0.4859
29461SOL     OW91784   1.776   8.355   5.766 -0.5975 -0.2502 -0.3571
29461SOL    HW191785   1.684   8.350   5.741 -1.3842  1.9371  1.7603
29461SOL    HW291786   1.800   8.447   5.753  1.2004 -0.6997 -0.5148
29462SOL     OW91787   7.993   0.707   8.237 -0.3798  0.1155  0.2892
29462SOL    HW191788   8.056   0.779   8.225 -1.8237  1.7619  1.9889
29462SOL    HW291789   7.918   0.732   8.182 -1.4004  0.6188  1.8473
29463SOL     OW91790   7.922   0.040  10.591  0.1655 -0.2565  0.0574
29463SOL    HW191791   7.956   0.129  10.601 -1.6881  0.6826 -1.3693
29463SOL    HW291792   7.908   0.010  10.681  0.3828  1.0663  0.5616
29464SOL     OW91793   4.928   3.347   2.724  0.0140  0.0197 -0.3471
29464SOL    HW191794   4.894   3.346   2.635  0.3318 -0.3905 -0.4709
29464SOL    HW291795   4.852   3.329   2.779 -0.0059 -0.7645 -0.6122
29465SOL     OW91796   1.795   6.344   9.772 -0.0458 -0.1124  0.6333
29465SOL    HW191797   1.709   6.346   9.729  0.3233  0.0569 -0.1052
29465SOL    HW291798   1.828   6.433   9.763  1.3483 -0.7733 -1.4356
29466SOL     OW91799   9.073   0.229   0.765  0.4293  0.4060 -0.1692
29466SOL    HW191800   9.092   0.319   0.739  1.4713  0.1554 -0.3304
29466SOL    HW291801   8.994   0.236   0.819 -0.1751  1.2633 -1.1294
29467SOL     OW91802   5.572   0.742   1.549  0.3599  0.6757  0.7637
29467SOL    HW191803   5.512   0.706   1.614  0.7467 -1.2478  0.1231
29467SOL    HW291804   5.515   0.778   1.481 -0.0535  1.0845  1.3227
29468SOL     OW91805   4.883   5.899  10.494  0.4384  0.3116  0.4958
29468SOL    HW191806   4.853   5.941  10.413  0.6350  0.4546  0.4983
29468SOL    HW291807   4.860   5.807  10.483  0.7904  0.2685  0.1267
29469SOL     OW91808   1.493   2.200  10.586 -0.6446  0.0900 -0.6427
29469SOL    HW191809   1.478   2.271  10.649 -0.6051  0.7017 -1.3012
29469SOL    HW291810   1.406   2.182  10.549 -0.4114  1.0263 -1.7338
29470SOL     OW91811   7.523   2.813   4.628  0.0408 -0.1891 -0.3518
29470SOL    HW191812   7.612   2.803   4.595  0.0030 -0.3761 -0.4016
29470SOL    HW291813   7.521   2.761   4.708  0.3123  0.7806  0.2949
29471SOL     OW91814   7.640   6.321   1.472  0.2296 -0.1307  0.2816
29471SOL    HW191815   7.578   6.248   1.471 -0.5422  0.5241 -0.4946
29471SOL    HW291816   7.688   6.313   1.389  1.4227 -0.7968  0.9905
29472SOL     OW91817   4.484   9.314   8.872  0.3738 -0.3624  0.5963
29472SOL    HW191818   4.513   9.315   8.963  0.0684 -0.4734  0.6971
29472SOL    HW291819   4.559   9.344   8.822  1.8180 -3.6624  0.5057
29473SOL     OW91820   2.907   9.568   5.141  0.1603  0.5189 -0.0692
29473SOL    HW191821   2.841   9.637   5.138 -0.7476 -0.2805  0.7965
29473SOL    HW291822   2.894   9.525   5.226  0.9413 -0.4808 -0.4255
29474SOL     OW91823   6.058   6.837   8.755 -0.2119  0.2332 -0.2619
29474SOL    HW191824   5.996   6.861   8.686 -0.5037  0.7889  0.1903
29474SOL    HW291825   6.006   6.831   8.834 -0.3832 -3.0847 -0.5017
29475SOL     OW91826   7.380   4.223   0.165  0.6361 -0.2828  0.2570
29475SOL    HW191827   7.470   4.210   0.195  1.5967  1.1853 -1.7172
29475SOL    HW291828   7.384   4.303   0.113 -1.3620 -1.3215 -1.6402
29476SOL     OW91829   4.276   0.386   0.830 -0.2622  0.7979 -0.0925
29476SOL    HW191830   4.283   0.457   0.766  0.4642  1.3751  0.6009
29476SOL    HW291831   4.358   0.339   0.824  0.3830  1.6649  1.3063
29477SOL     OW91832  10.301   8.743   8.864  0.2986 -0.1829 -0.5206
29477SOL    HW191833  10.272   8.799   8.936 -0.9468  0.9381 -1.8046
29477SOL    HW291834  10.228   8.683   8.849  0.8039 -0.8224 -0.4492
29478SOL     OW91835   6.677  10.723   9.412  0.2297  0.0296  0.0913
29478SOL    HW191836   6.721  10.802   9.382 -0.5480 -0.1362 -1.6130
29478SOL    HW291837   6.746  10.670   9.453  1.2698  0.4773 -1.0383
29479SOL     OW91838   0.434   5.109   9.899 -0.5404 -0.2514 -0.8100
29479SOL    HW191839   0.525   5.133   9.920 -0.5132 -1.0823  0.0514
29479SOL    HW291840   0.441   5.068   9.813  0.1191 -1.5649 -0.1515
29480SOL     OW91841  10.294   9.684   6.886  0.0079  0.8252 -0.1238
29480SOL    HW191842  10.300   9.605   6.832  1.0416  0.7516  0.0657
29480SOL    HW291843  10.276   9.754   6.824  3.3282  1.1042 -0.9955
29481SOL     OW91844   9.203   9.828   8.108 -0.6475 -0.4605  0.5114
29481SOL    HW191845   9.124   9.881   8.097 -0.1179  0.3931  0.7045
29481SOL    HW291846   9.208   9.775   8.029 -1.2687 -0.3210  0.3744
29482SOL     OW91847   0.634   7.648  10.607 -0.2326 -0.0318  0.8547
29482SOL    HW191848   0.682   7.707  10.548 -2.9614  1.1419 -0.3653
29482SOL    HW291849   0.622   7.699  10.687  1.7681 -0.8979  1.7640
29483SOL     OW91850   7.541   6.453   9.729 -0.1892  0.1736  0.0875
29483SOL    HW191851   7.482   6.405   9.671  0.8556 -0.2937 -0.6161
29483SOL    HW291852   7.505   6.439   9.817  0.0274 -1.8486 -0.0931
29484SOL     OW91853   0.834   2.933   4.592 -0.0635  0.3353 -0.4360
29484SOL    HW191854   0.750   2.893   4.613 -0.4727  1.2319 -0.3378
29484SOL    HW291855   0.879   2.867   4.539 -0.8701 -0.1042 -0.5927
29485SOL     OW91856   0.741   8.038   5.460  0.2335 -0.4593  0.3579
29485SOL    HW191857   0.719   8.131   5.451  1.4532 -0.3066 -2.0733
29485SOL    HW291858   0.674   7.993   5.407  0.8198 -0.7491 -0.1511
29486SOL     OW91859   1.371   3.627   4.589 -0.1776  0.1979 -0.1112
29486SOL    HW191860   1.414   3.712   4.599 -0.8306  0.3571  1.9912
29486SOL    HW291861   1.440   3.563   4.609 -0.0503  0.3041 -0.2094
29487SOL     OW91862   8.582  10.712   4.880  0.0012  0.5624  0.2529
29487SOL    HW191863   8.507  10.653   4.870  1.1105 -0.9816  0.4992
29487SOL    HW291864   8.590  10.756   4.796 -0.4390 -0.1993 -0.1940
29488SOL     OW91865   1.230   3.605   6.946 -0.1128 -0.7280 -0.2798
29488SOL    HW191866   1.209   3.671   6.879  0.7521  0.1171  0.2438
29488SOL    HW291867   1.146   3.565   6.968 -0.5454 -0.3389 -1.1722
29489SOL     OW91868   2.294   6.506   1.217 -0.5312 -0.6651  0.4467
29489SOL    HW191869   2.264   6.577   1.160 -0.6002 -0.8252  0.2809
29489SOL    HW291870   2.389   6.514   1.217 -0.6087  0.8584  2.2741
29490SOL     OW91871   7.449   2.132   3.140  1.1590  0.2175  0.0091
29490SOL    HW191872   7.515   2.196   3.165 -0.8288  1.8674  1.2675
29490SOL    HW291873   7.446   2.070   3.213  1.4495  0.0005 -0.1587
29491SOL     OW91874   7.215   7.099  10.794  0.1994  0.6415 -0.0588
29491SOL    HW191875   7.229   7.038  10.722 -1.4165  0.7656 -0.5161
29491SOL    HW291876   7.294   7.152  10.797  1.8860 -1.7322  0.6657
29492SOL     OW91877   7.428   9.471   8.804  0.3747 -0.0697 -0.6305
29492SOL    HW191878   7.366   9.408   8.768  0.9079 -0.2959 -1.1687
29492SOL    HW291879   7.462   9.429   8.883  0.0365 -0.0536 -0.4741
29493SOL     OW91880   3.603   9.104  10.596  0.4869  0.4353  0.7014
29493SOL    HW191881   3.590   9.150  10.679 -0.9611 -0.8586  1.2213
29493SOL    HW291882   3.682   9.052  10.610 -0.4322 -0.7472  1.7593
29494SOL     OW91883   4.802   0.720   5.432  0.3533  0.2672 -0.2922
29494SOL    HW191884   4.858   0.732   5.508  1.2570  0.3943 -0.9565
29494SOL    HW291885   4.787   0.809   5.399  1.8087  0.0984 -1.5313
29495SOL     OW91886   8.624  10.126   7.004  0.1343 -0.1384 -0.1087
29495SOL    HW191887   8.679  10.137   6.926 -0.3354  1.8106 -0.2237
29495SOL    HW291888   8.687  10.111   7.075  0.7069  0.2268 -0.5258
29496SOL     OW91889   5.641   6.548   3.501  0.0507  0.2504 -0.1541
29496SOL    HW191890   5.598   6.499   3.431 -0.8994 -0.1258  0.6666
29496SOL    HW291891   5.646   6.486   3.574  0.0768  0.9479  0.4486
29497SOL     OW91892   9.842  10.509   0.282  0.1541  0.3096  0.1501
29497SOL    HW191893   9.838  10.414   0.277 -1.1909  0.3706 -0.6200
29497SOL    HW291894   9.870  10.528   0.371  0.7038 -0.8011  0.2278
29498SOL     OW91895   0.149   9.480   7.256 -0.3124  0.5040  0.0060
29498SOL    HW191896   0.094   9.402   7.263 -0.4780  0.4607 -1.4832
29498SOL    HW291897   0.087   9.552   7.240 -0.0210  0.5582 -0.9829
29499SOL     OW91898   7.021   5.664   2.216  0.5807  0.0506 -0.4862
29499SOL    HW191899   7.030   5.680   2.310  1.5103  1.1313 -0.7470
29499SOL    HW291900   6.928   5.641   2.205  0.6864 -1.1349  0.8225
29500SOL     OW91901  10.194   6.272   4.547 -0.4520 -0.1665  0.5819
29500SOL    HW191902  10.248   6.196   4.571 -1.6934 -0.7065  1.8097
29500SOL    HW291903  10.210   6.335   4.616 -0.4578  0.1700  0.2784
29501SOL     OW91904   7.562  10.304   4.205  0.2963  0.7903 -0.8820
29501SOL    HW191905   7.544  10.214   4.176 -0.6750  1.0681 -1.1731
29501SOL    HW291906   7.475  10.342   4.220  0.7028  0.7687  2.1296
29502SOL     OW91907   2.070   2.215   6.972 -0.2226  0.1014  0.6071
29502SOL    HW191908   2.028   2.131   6.990 -0.5984 -0.3663 -1.9710
29502SOL    HW291909   2.004   2.264   6.922  0.8308  0.9706  0.0234
29503SOL     OW91910   1.316   7.630   6.464 -0.1615  0.0928  0.3708
29503SOL    HW191911   1.322   7.690   6.390  1.6976 -0.0745  0.3416
29503SOL    HW291912   1.331   7.544   6.426  2.8067  0.1640  1.1011
29504SOL     OW91913  10.518   6.953   3.465 -0.8142 -0.3156  0.4398
29504SOL    HW191914  10.514   6.860   3.486 -0.2136 -0.9763 -2.0539
29504SOL    HW291915  10.572   6.991   3.534  2.4124 -2.5751 -0.6179
29505SOL     OW91916   9.013   1.441   5.277 -0.0106  0.0200 -0.3721
29505SOL    HW191917   8.986   1.479   5.361  1.4764 -2.1399  1.1737
29505SOL    HW291918   9.103   1.472   5.266  0.6484 -1.6387  0.1002
29506SOL     OW91919   6.545   6.663  10.407  0.3480 -0.0868  0.5300
29506SOL    HW191920   6.498   6.711  10.338  0.1991 -1.0976 -0.0926
29506SOL    HW291921   6.553   6.726  10.478  1.8800  1.5019 -0.9661
29507SOL     OW91922   9.579   7.335   9.057  0.8636 -0.7989  0.2197
29507SOL    HW191923   9.486   7.349   9.040  1.2338  2.7612  0.3719
29507SOL    HW291924   9.585   7.329   9.152  0.8524 -0.0101  0.2788
29508SOL     OW91925   9.037   1.257   9.611  0.3645 -0.4347 -0.0926
29508SOL    HW191926   9.066   1.327   9.670 -0.1214  0.2166 -0.6176
29508SOL    HW291927   9.018   1.301   9.529  3.1206 -1.6002 -1.4996
29509SOL     OW91928   8.744   6.020   8.651 -0.4763  0.0047 -0.0701
29509SOL    HW191929   8.786   6.092   8.698 -2.2070  0.5521  0.7136
29509SOL    HW291930   8.733   6.053   8.562 -0.1426  0.2291 -0.0310
29510SOL     OW91931  10.365   7.272   4.652  0.0340 -0.8353  0.7305
29510SOL    HW191932  10.411   7.343   4.698  0.2559 -1.1974  1.0698
29510SOL    HW291933  10.418   7.194   4.669  1.0560 -0.7134 -1.5071
29511SOL     OW91934   9.382   5.468  10.632 -0.0272 -0.1250 -0.0782
29511SOL    HW191935   9.316   5.399  10.629  1.5643 -1.7166 -0.9386
29511SOL    HW291936   9.417   5.471  10.543  0.3378  1.4194  0.0923
29512SOL     OW91937   3.473   6.507   4.212 -0.1980  0.3530  0.6691
29512SOL    HW191938   3.513   6.419   4.215 -0.8171  0.0430  0.1012
29512SOL    HW291939   3.508   6.546   4.132 -0.1305  0.5350  0.7852
29513SOL     OW91940   2.251   4.258   8.229  0.5583  0.6997  0.1098
29513SOL    HW191941   2.317   4.228   8.292  0.3021  0.1192  0.1093
29513SOL    HW291942   2.168   4.243   8.273  0.4382  2.7800  0.7044
29514SOL     OW91943  10.075   5.580   8.834 -0.1539  0.5134 -0.3948
29514SOL    HW191944  10.118   5.555   8.752  0.0363  0.4844 -0.2881
29514SOL    HW291945  10.019   5.506   8.856  0.0680  0.3665 -0.3137
29515SOL     OW91946   0.944   2.029   2.337 -0.2761  0.0431 -0.1743
29515SOL    HW191947   0.856   2.052   2.368 -0.2662 -1.0668  0.7230
29515SOL    HW291948   0.962   2.092   2.267 -1.5973  0.5718 -0.0587
29516SOL     OW91949   9.484   0.271   4.639 -0.5979 -0.6789 -0.1327
29516SOL    HW191950   9.403   0.292   4.594  0.3655 -0.3704 -1.8058
29516SOL    HW291951   9.461   0.269   4.732 -2.1343  1.1392 -0.4284
29517SOL     OW91952   1.454  10.849   8.498  0.3838  0.3095 -0.5357
29517SOL    HW191953   1.511  10.840   8.574  0.1936  1.4021 -0.2577
29517SOL    HW291954   1.398  10.771   8.500  1.3320 -0.3942 -0.3858
29518SOL     OW91955   2.504   4.800   8.166 -0.2897  0.2292 -0.5084
29518SOL    HW191956   2.486   4.810   8.259 -2.5070 -0.2990 -0.8232
29518SOL    HW291957   2.597   4.820   8.157 -0.7250  3.7551  1.3024
29519SOL     OW91958   1.688   0.243   3.268 -0.3758 -0.7091 -0.3145
29519SOL    HW191959   1.669   0.149   3.267  0.2601 -0.8422 -0.4160
29519SOL    HW291960   1.695   0.267   3.175 -1.2940 -0.3953 -0.3134
29520SOL     OW91961   6.792   5.577   4.670  1.0341  0.4861  0.1941
29520SOL    HW191962   6.718   5.525   4.701  0.7610  0.8731  0.2080
29520SOL    HW291963   6.839   5.601   4.750 -1.0562  3.5884  0.6915
29521SOL     OW91964   1.429  10.380   9.132 -0.0158  0.0979  0.4287
29521SOL    HW191965   1.405  10.385   9.224  1.3548  0.2836  0.8037
29521SOL    HW291966   1.500  10.444   9.122 -0.4371  0.3955 -0.8561
29522SOL     OW91967   2.695   5.634   4.395 -0.3503  0.1385 -0.5011
29522SOL    HW191968   2.651   5.678   4.469 -0.8356 -0.2467 -0.5508
29522SOL    HW291969   2.648   5.551   4.386  0.0111 -0.0193 -0.9476
29523SOL     OW91970   1.102   5.663   1.023  0.1432  0.8026  0.0640
29523SOL    HW191971   1.182   5.679   1.073  0.9684  1.4239 -1.3965
29523SOL    HW291972   1.088   5.568   1.030  1.4877  0.5479 -0.3214
29524SOL     OW91973   6.771  10.125   1.207 -0.8462 -0.2234 -0.2491
29524SOL    HW191974   6.707  10.097   1.272  1.0498  0.6683  2.1607
29524SOL    HW291975   6.844  10.159   1.258  0.3910  1.4353 -2.8835
29525SOL     OW91976   4.768   0.628   4.497  0.1515 -0.4820  0.5544
29525SOL    HW191977   4.778   0.712   4.453  1.8206 -1.0594 -0.2771
29525SOL    HW291978   4.738   0.651   4.585  1.5815  1.0967  0.6976
29526SOL     OW91979  10.629   2.727   3.115  0.2716 -0.1546  0.1289
29526SOL    HW191980  10.577   2.707   3.193  2.3591 -0.6845  1.4857
29526SOL    HW291981  10.595   2.811   3.084 -1.8262 -0.8085  0.4953
29527SOL     OW91982   2.352   7.742   9.732  0.0133 -0.0159  0.5125
29527SOL    HW191983   2.287   7.806   9.702 -0.0286  0.0628  0.7681
29527SOL    HW291984   2.383   7.777   9.816 -0.4209 -0.6116  0.9380
29528SOL     OW91985   0.479   2.403   2.891 -0.2037 -0.2494 -0.1810
29528SOL    HW191986   0.530   2.324   2.908  1.1839  0.2346 -1.8163
29528SOL    HW291987   0.393   2.384   2.928  0.0749 -2.5650 -0.5589
29529SOL     OW91988  10.898  10.864   9.536  0.0296  0.1935 -0.1403
29529SOL    HW191989  10.831  10.831   9.595 -0.4009 -0.7562 -1.1259
29529SOL    HW291990  10.849  10.913   9.470  0.2764 -0.5667 -0.9070
29530SOL     OW91991   9.975  10.286  10.276  0.1051 -0.8048 -0.0078
29530SOL    HW191992   9.993  10.193  10.263 -1.0075 -0.7364 -2.4553
29530SOL    HW291993  10.053  10.331  10.244 -0.0247 -0.8564 -0.4025
29531SOL     OW91994   1.622   9.089  10.554 -0.3743 -0.4213 -0.4552
29531SOL    HW191995   1.644   9.073  10.645 -0.2816 -1.2355 -0.6148
29531SOL    HW291996   1.673   9.025  10.504 -1.1170 -0.6012 -1.0078
29532SOL     OW91997  10.526   6.848   3.069 -0.4482  0.0163 -0.2517
29532SOL    HW191998  10.487   6.762   3.053 -2.1308  1.0302 -1.9924
29532SOL    HW291999  10.593   6.857   3.001  0.2732 -0.2259  0.4213
29533SOL     OW92000  10.667   7.730   7.662 -0.3577  0.2686 -0.3962
29533SOL    HW192001  10.621   7.768   7.737 -0.9688 -1.3475  0.1046
29533SOL    HW292002  10.619   7.761   7.585 -1.0354  0.2413  0.0119
29534SOL     OW92003   1.554   4.479   6.059  0.0205  0.4627 -0.2695
29534SOL    HW192004   1.482   4.528   6.098  0.9236  1.5650  0.0680
29534SOL    HW292005   1.633   4.517   6.097  0.7996 -0.6301 -0.7246
29535SOL     OW92006   8.405   0.952   6.414  0.1233 -0.0290 -0.5457
29535SOL    HW192007   8.432   1.039   6.385 -0.9142  0.4801 -0.0244
29535SOL    HW292008   8.455   0.892   6.359  1.7039  0.8665 -0.1807
29536SOL     OW92009   7.734   0.802   9.211 -0.4800 -0.0168  0.3199
29536SOL    HW192010   7.706   0.859   9.139 -0.0750  1.3332  1.1863
29536SOL    HW292011   7.830   0.800   9.203 -0.4982 -0.6362  0.2584
29537SOL     OW92012   8.751   8.756   0.799 -0.7768  0.1998  0.0704
29537SOL    HW192013   8.750   8.679   0.743 -1.3815  0.6526 -0.5463
29537SOL    HW292014   8.789   8.825   0.744  0.4845  0.1753  0.8605
29538SOL     OW92015   2.315   3.996   1.383 -0.2504 -0.1943 -0.7811
29538SOL    HW192016   2.303   3.972   1.291  1.2239  1.4491 -1.4621
29538SOL    HW292017   2.403   3.965   1.406  0.4219  1.6024 -0.7461
29539SOL     OW92018   0.665   2.972   8.846 -0.1772  0.4057  0.8709
29539SOL    HW192019   0.603   2.986   8.775 -0.1881 -0.4557  0.6972
29539SOL    HW292020   0.751   2.979   8.804 -0.1907 -1.2791  0.5139
29540SOL     OW92021   7.149   9.021   2.863  0.1900  0.6370  0.1473
29540SOL    HW192022   7.172   8.979   2.946  0.3440 -1.1036 -0.7330
29540SOL    HW292023   7.068   8.977   2.836 -0.4220  1.9039 -0.1458
29541SOL     OW92024   6.199   2.206   4.737 -0.6760  0.2728 -0.4759
29541SOL    HW192025   6.110   2.206   4.773 -0.2531 -1.6922  0.7326
29541SOL    HW292026   6.226   2.298   4.741 -1.0348  0.4177  3.5607
29542SOL     OW92027   4.254   2.856   3.744 -0.3694 -0.0781 -0.3226
29542SOL    HW192028   4.333   2.880   3.695 -0.1711  0.0614  0.0597
29542SOL    HW292029   4.287   2.824   3.828 -0.6233 -1.8199 -0.8567
29543SOL     OW92030   0.973   3.081   4.032 -0.1389 -0.9292  0.8778
29543SOL    HW192031   0.942   3.062   4.121 -1.1815 -0.5946  0.6081
29543SOL    HW292032   0.926   3.160   4.007  1.0399 -0.3441  0.4526
29544SOL     OW92033   6.129   3.963   1.489 -0.2576  0.0922 -0.1066
29544SOL    HW192034   6.037   3.938   1.492 -0.1436 -0.3110  0.0383
29544SOL    HW292035   6.174   3.898   1.543 -0.0929  1.2588  1.2169
29545SOL     OW92036   4.455   9.992   3.635  0.9522  0.2370  0.2385
29545SOL    HW192037   4.384  10.053   3.655  0.6557 -0.4330  1.3105
29545SOL    HW292038   4.519  10.005   3.706  2.3742  1.4815 -1.1832
29546SOL     OW92039  10.335   6.323   1.989  0.2347  0.1570  0.1907
29546SOL    HW192040  10.268   6.380   1.951 -2.3745 -2.2269  0.9093
29546SOL    HW292041  10.373   6.277   1.914 -2.3499 -1.8872  0.0004
29547SOL     OW92042   0.094   8.569   4.401  0.4598  0.3268 -0.1016
29547SOL    HW192043   0.100   8.511   4.326  1.1404  0.6620 -0.3149
29547SOL    HW292044   0.047   8.646   4.369  0.1672  0.1853 -0.0073
29548SOL     OW92045   7.112   3.935   1.338 -0.0653  0.1495  0.4765
29548SOL    HW192046   7.166   3.857   1.323 -0.2161  0.4005 -1.7181
29548SOL    HW292047   7.022   3.903   1.332 -0.1269  0.5241 -0.7379
29549SOL     OW92048   1.655   8.007   4.739 -0.0537  0.1824  0.4856
29549SOL    HW192049   1.677   8.092   4.700 -1.8957  0.9856  1.0962
29549SOL    HW292050   1.560   8.002   4.733 -0.2966 -0.3363  3.4648
29550SOL     OW92051   5.611   7.243   6.149 -0.6037 -0.1835  0.2097
29550SOL    HW192052   5.668   7.318   6.164 -0.6863  0.1724 -1.1194
29550SOL    HW292053   5.558   7.268   6.073 -1.3391 -1.1872  0.3723
29551SOL     OW92054   1.178   4.301   8.249  0.0124  0.2537 -0.0426
29551SOL    HW192055   1.098   4.298   8.196 -0.4050 -2.3871  0.5951
29551SOL    HW292056   1.149   4.278   8.337  1.2996  0.4988  0.4618
29552SOL     OW92057   0.857   7.451   1.359 -0.2826  0.5236  0.0821
29552SOL    HW192058   0.840   7.534   1.314  0.7591  1.0530  0.6238
29552SOL    HW292059   0.898   7.396   1.293 -0.2260  0.7320 -0.0583
29553SOL     OW92060   8.510   3.307   1.548 -0.5697 -0.5545  0.1977
29553SOL    HW192061   8.483   3.369   1.616  0.1360  2.7502 -2.2992
29553SOL    HW292062   8.431   3.293   1.496 -0.2550 -0.1957 -0.3793
29554SOL     OW92063   3.436   4.545   9.681  0.1524 -0.0016 -0.1318
29554SOL    HW192064   3.447   4.621   9.738 -0.5540 -0.9712  1.3618
29554SOL    HW292065   3.503   4.555   9.614  0.4844  1.5956  0.4002
29555SOL     OW92066   4.567   7.454   3.207  0.0970 -0.0520 -0.3697
29555SOL    HW192067   4.494   7.397   3.229  0.2884 -0.3148 -0.4203
29555SOL    HW292068   4.541   7.540   3.240 -0.8625  0.1788 -1.6608
29556SOL     OW92069   4.021   5.338  10.626 -0.2392 -0.2715 -0.1766
29556SOL    HW192070   4.044   5.257  10.580  1.0673 -0.7568  1.2531
29556SOL    HW292071   4.102   5.365  10.670 -1.2120  0.6051  1.1661
29557SOL     OW92072  10.501   2.608   9.675  0.0514  0.0731  0.0940
29557SOL    HW192073  10.585   2.641   9.644  0.0450  0.2139  0.2271
29557SOL    HW292074  10.503   2.624   9.770 -0.5333  0.9671 -0.0324
29558SOL     OW92075   3.415   8.073  10.462 -0.6503  0.4772  0.2606
29558SOL    HW192076   3.430   8.167  10.446 -3.0049  0.6990 -1.0385
29558SOL    HW292077   3.321   8.065  10.475 -0.2734 -1.4895  2.4713
29559SOL     OW92078   1.579   8.047   0.529  0.4726 -0.3439 -0.0015
29559SOL    HW192079   1.585   7.968   0.475  0.3253  0.4553 -1.2297
29559SOL    HW292080   1.669   8.078   0.535  0.2049  1.1616 -2.3210
29560SOL     OW92081   1.529   5.101   8.676  0.4490 -0.4189 -0.7650
29560SOL    HW192082   1.511   5.024   8.730  0.8695 -1.3136 -1.8633
29560SOL    HW292083   1.506   5.074   8.587  0.4754  0.7783 -1.1607
29561SOL     OW92084   4.004   9.304   4.531 -0.8455  0.1384  0.3528
29561SOL    HW192085   3.922   9.284   4.577 -0.8097 -0.7852  0.0330
29561SOL    HW292086   4.071   9.295   4.599 -0.8606 -0.5906  0.2833
29562SOL     OW92087   8.281  10.515   6.017 -0.4239 -0.2730  0.5185
29562SOL    HW192088   8.197  10.560   6.009 -0.1276  0.0801 -0.9100
29562SOL    HW292089   8.325  10.559   6.090  0.0039  2.0660 -1.0478
29563SOL     OW92090   9.895   5.917   8.694  0.5188 -0.2602  0.0035
29563SOL    HW192091   9.854   5.830   8.694 -0.4137  0.1544  0.6932
29563SOL    HW292092   9.947   5.919   8.774  0.1292 -0.0108  0.2551
29564SOL     OW92093   6.847   4.163   1.479 -0.6975  0.0669  0.4048
29564SOL    HW192094   6.856   4.250   1.518  1.5101  0.9302 -1.7467
29564SOL    HW292095   6.827   4.181   1.387  1.3445 -1.5944 -0.4379
29565SOL     OW92096   2.429   6.819  10.337 -0.5194 -0.3190 -0.2789
29565SOL    HW192097   2.372   6.765  10.392  0.1571 -1.4073 -0.6196
29565SOL    HW292098   2.517   6.801  10.369 -0.2695  0.5409 -0.4540
29566SOL     OW92099   0.188   3.832   6.497  0.0671  0.0695 -0.0127
29566SOL    HW192100   0.270   3.791   6.525 -0.2679 -1.0480 -0.5912
29566SOL    HW292101   0.196   3.923   6.525  0.1749 -0.7268  2.7825
29567SOL     OW92102   7.186   0.087   6.766  0.1815  0.3536 -0.5567
29567SOL    HW192103   7.226   0.173   6.752 -0.2080  0.5660 -0.3987
29567SOL    HW292104   7.101   0.093   6.723 -0.3864  0.4950  0.5482
29568SOL     OW92105   8.666   1.182  10.168  0.2195  0.2656  0.2397
29568SOL    HW192106   8.726   1.242  10.123  1.4971 -1.7561 -0.8950
29568SOL    HW292107   8.715   1.152  10.244  0.3633 -0.8007 -0.2630
29569SOL     OW92108   0.498   7.963   4.413  0.0861 -0.1342 -0.6103
29569SOL    HW192109   0.442   7.918   4.477  0.9641 -1.5221 -0.7737
29569SOL    HW292110   0.587   7.946   4.443  0.5141 -0.8965 -2.2408
29570SOL     OW92111   7.604  10.693   9.780  0.0931  0.2085  0.0104
29570SOL    HW192112   7.535  10.626   9.784  1.0367 -0.8054 -0.1369
29570SOL    HW292113   7.634  10.703   9.870  1.4783 -1.2423 -0.2535
29571SOL     OW92114   3.401   6.761   0.276 -0.1772  0.0538  0.2024
29571SOL    HW192115   3.495   6.782   0.278 -0.3817  0.9711  0.3803
29571SOL    HW292116   3.365   6.820   0.210 -0.3907 -1.3573 -0.9948
29572SOL     OW92117   6.771   4.844  10.707  0.6295  0.1074  0.0266
29572SOL    HW192118   6.795   4.811  10.620  0.3098  1.7459 -0.7231
29572SOL    HW292119   6.827   4.920  10.720 -0.5970  0.9607  0.4546
29573SOL     OW92120   0.920   4.834   1.559  0.7797 -0.6281  0.1865
29573SOL    HW192121   0.978   4.786   1.618 -0.2373  0.1140  1.8405
29573SOL    HW292122   0.866   4.888   1.616  0.3682  0.8273 -1.4829
29574SOL     OW92123   5.708  10.205   1.021  0.3080  0.5349  0.1325
29574SOL    HW192124   5.656  10.173   1.095 -1.6193 -0.0405 -1.3728
29574SOL    HW292125   5.678  10.153   0.946  4.2653 -1.0510 -0.6362
29575SOL     OW92126   7.174   3.692   2.952 -0.2557  0.2542  0.2821
29575SOL    HW192127   7.145   3.783   2.939  0.1757  0.6674  1.9717
29575SOL    HW292128   7.242   3.680   2.886 -0.9860  0.8285 -0.6013
29576SOL     OW92129   6.368   0.688   6.117 -0.2529 -0.1509  0.4739
29576SOL    HW192130   6.353   0.781   6.102 -0.4273 -0.2033  0.3229
29576SOL    HW292131   6.289   0.657   6.161  0.0693 -0.0939  1.1024
29577SOL     OW92132   2.229   2.109   7.939  0.3884 -0.0884 -0.0636
29577SOL    HW192133   2.260   2.198   7.919 -1.2938  0.3529 -0.8575
29577SOL    HW292134   2.254   2.057   7.862 -0.4427  0.1685 -0.5112
29578SOL     OW92135   1.401   6.024   3.694  0.0078  0.0269 -0.6307
29578SOL    HW192136   1.494   6.006   3.680  0.3619  0.4607  1.0229
29578SOL    HW292137   1.392   6.118   3.680 -0.6182 -0.2889 -2.8170
29579SOL     OW92138   5.840   3.606   5.528 -0.1233  0.5110 -0.7492
29579SOL    HW192139   5.851   3.685   5.582 -3.9764  0.0326  1.0658
29579SOL    HW292140   5.832   3.639   5.439 -1.7814  2.2772 -0.0178
29580SOL     OW92141   2.135   2.261   0.408  0.0710  0.3693 -0.4846
29580SOL    HW192142   2.077   2.273   0.333 -2.3772 -2.4845  0.7712
29580SOL    HW292143   2.183   2.181   0.388 -1.2042 -0.8977  1.2462
29581SOL     OW92144   2.502   5.733   9.790 -0.0405 -0.3101 -0.4429
29581SOL    HW192145   2.447   5.689   9.855  1.7897 -0.1206  1.3421
29581SOL    HW292146   2.440   5.781   9.735 -1.7181 -0.8605  0.8756
29582SOL     OW92147   8.272   6.329   5.333 -0.1795  0.1219 -0.1143
29582SOL    HW192148   8.239   6.362   5.249  2.1371  0.7958 -0.8570
29582SOL    HW292149   8.228   6.245   5.345 -1.4429  0.5547 -1.4215
29583SOL     OW92150   7.829   8.189   2.097  0.1361 -0.3718 -0.6968
29583SOL    HW192151   7.807   8.251   2.167  2.6410 -0.1593  0.0020
29583SOL    HW292152   7.868   8.114   2.142  0.5340 -0.8441 -1.7768
29584SOL     OW92153   5.427   1.219   3.086 -0.6383  0.6258 -0.4942
29584SOL    HW192154   5.424   1.283   3.015 -1.2217  1.7351  0.4893
29584SOL    HW292155   5.382   1.142   3.051  1.0002  0.3237 -2.0672
29585SOL     OW92156   3.765   9.484   9.152  0.2148  0.0763  0.3421
29585SOL    HW192157   3.795   9.549   9.089  0.0340  0.8810  1.0745
29585SOL    HW292158   3.758   9.531   9.235 -0.4594 -0.7369  0.7703
29586SOL     OW92159   4.224   3.236  10.629 -0.6236 -0.6433 -0.3646
29586SOL    HW192160   4.205   3.295  10.555  0.0006 -0.6077 -0.4996
29586SOL    HW292161   4.160   3.260  10.696 -0.1061  0.4731 -0.2598
29587SOL     OW92162   5.955   7.552   1.621  0.2920 -0.6814  0.1657
29587SOL    HW192163   5.938   7.599   1.540  0.5143 -0.6694  0.1234
29587SOL    HW292164   5.874   7.505   1.640  0.4501 -1.2243 -0.4260
29588SOL     OW92165   8.974   3.935   8.675 -0.2893  0.3537  0.3262
29588SOL    HW192166   9.059   3.906   8.709  0.0129  2.2864  1.3262
29588SOL    HW292167   8.910   3.886   8.727  0.1071 -2.1598 -1.3441
29589SOL     OW92168   0.067   0.991   5.812 -0.2703  0.0947  0.0070
29589SOL    HW192169   0.076   0.971   5.906  1.6464  2.6397  0.4636
29589SOL    HW292170   0.002   1.061   5.808  0.6128  0.9112 -0.3949
29590SOL     OW92171   9.584   0.920   1.335  0.4069  0.0669 -0.0122
29590SOL    HW192172   9.576   0.986   1.404 -0.9969 -0.1604  0.0693
29590SOL    HW292173   9.519   0.946   1.270  0.9767 -0.3297 -0.7540
29591SOL     OW92174  10.764   9.256   7.661  0.1077  0.0424  0.3000
29591SOL    HW192175  10.842   9.202   7.651 -0.0774 -0.1620 -0.0674
29591SOL    HW292176  10.786   9.338   7.617 -0.1287 -0.2682 -0.4067
29592SOL     OW92177   8.831   5.657   4.884  0.3555  0.5883 -0.3655
29592SOL    HW192178   8.749   5.647   4.835  1.6614 -0.0684 -2.5879
29592SOL    HW292179   8.828   5.588   4.950 -1.5323  1.5738  0.6411
29593SOL     OW92180   4.757   3.209   8.122 -0.0569  0.0272  0.5013
29593SOL    HW192181   4.682   3.184   8.176 -0.0930 -0.0181  0.4308
29593SOL    HW292182   4.796   3.283   8.168  0.6519 -0.7929  1.2544
29594SOL     OW92183   4.963   4.474  10.083 -0.2752 -0.1857 -0.0078
29594SOL    HW192184   4.876   4.461  10.120 -1.0592  0.5041 -1.4829
29594SOL    HW292185   5.018   4.501  10.156 -0.9004 -2.1910  1.2585
29595SOL     OW92186   6.355   7.462   3.711  0.4281  0.9756 -0.1616
29595SOL    HW192187   6.291   7.524   3.677 -0.7327  0.8369  1.6568
29595SOL    HW292188   6.348   7.386   3.653 -0.7353  1.1394 -0.2520
29596SOL     OW92189   7.918   6.844   5.645  0.5722 -0.1246  0.3077
29596SOL    HW192190   7.972   6.907   5.693 -1.8623  1.0605  1.6927
29596SOL    HW292191   7.893   6.889   5.565  3.0127 -1.3690 -1.2677
29597SOL     OW92192   0.411   5.124   2.471  0.2054 -0.4453  0.1543
29597SOL    HW192193   0.378   5.039   2.500  3.1157 -1.1586  1.7465
29597SOL    HW292194   0.455   5.106   2.388  2.3088 -0.9206  1.3217
29598SOL     OW92195   4.589  10.039  10.196  0.4366 -0.1190  0.1067
29598SOL    HW192196   4.612  10.128  10.169 -2.1005  1.1536  1.7719
29598SOL    HW292197   4.519  10.014  10.136  1.1852 -1.0584 -0.3976
29599SOL     OW92198   5.746   1.180   5.177 -0.0144 -0.3661 -0.0804
29599SOL    HW192199   5.654   1.207   5.180 -0.0314 -0.4531  0.2749
29599SOL    HW292200   5.775   1.202   5.089 -0.7310 -1.5353 -0.6253
29600SOL     OW92201   9.276   8.059  10.394  0.0525  0.0420 -0.2418
29600SOL    HW192202   9.364   8.092  10.382  1.0410 -0.9785  3.1523
29600SOL    HW292203   9.287   7.977  10.442 -2.6880 -1.1704 -1.4215
29601SOL     OW92204   2.472   0.011   7.829  0.5545 -0.5691 -0.4804
29601SOL    HW192205   2.413   0.061   7.884 -0.2904 -1.6827 -0.3424
29601SOL    HW292206   2.485  -0.071   7.876  1.3054 -0.7958 -1.0574
29602SOL     OW92207   8.600   0.478   8.738  0.0803  0.0130 -0.1244
29602SOL    HW192208   8.622   0.436   8.821  1.7965  0.8539 -0.0993
29602SOL    HW292209   8.654   0.558   8.737  0.1820 -0.0354 -2.0709
29603SOL     OW92210  10.449   1.700   2.307  0.4053  0.5346 -0.3496
29603SOL    HW192211  10.381   1.756   2.343  1.8636  1.8983  0.3798
29603SOL    HW292212  10.443   1.713   2.212 -1.9581 -1.3396 -0.5722
29604SOL     OW92213   0.825   6.759   5.766  0.3347  0.2366 -0.5356
29604SOL    HW192214   0.777   6.842   5.756 -2.0218 -1.0460 -0.4103
29604SOL    HW292215   0.810   6.713   5.683 -0.2967 -0.9940  0.2387
29605SOL     OW92216   2.513   2.009   3.036  0.2767 -0.6429  0.0393
29605SOL    HW192217   2.542   2.030   3.125 -1.9874 -0.8146  0.9058
29605SOL    HW292218   2.497   2.094   2.995 -1.6201 -0.5210  0.9200
29606SOL     OW92219   9.637   2.660   4.204 -0.2245  0.5680  0.0891
29606SOL    HW192220   9.575   2.689   4.271 -0.8885  0.6364 -0.5531
29606SOL    HW292221   9.587   2.657   4.123  0.2997 -0.5422 -0.2209
29607SOL     OW92222   0.861   0.748   4.717  0.0009 -0.3117  0.3541
29607SOL    HW192223   0.921   0.676   4.697 -0.6213 -1.1672  1.4861
29607SOL    HW292224   0.874   0.765   4.810 -1.5584 -0.5851  0.6444
29608SOL     OW92225   4.795   9.163   7.397  0.0005  0.5130  0.0850
29608SOL    HW192226   4.885   9.185   7.420  1.4617 -1.9121 -2.7047
29608SOL    HW292227   4.795   9.067   7.390 -3.5409  0.1374  2.5620
29609SOL     OW92228   9.131   6.348   7.688 -0.3918 -0.0464  0.2154
29609SOL    HW192229   9.041   6.369   7.711 -0.1844  1.7779 -0.4693
29609SOL    HW292230   9.182   6.422   7.721  1.3343 -2.3404  3.2532
29610SOL     OW92231   8.459   0.209   1.482  0.0908 -0.1148  0.2289
29610SOL    HW192232   8.443   0.115   1.486  3.1750 -0.7505  0.1848
29610SOL    HW292233   8.463   0.229   1.389  2.2123 -0.5731  0.1801
29611SOL     OW92234   9.095   9.665   0.314 -0.3010 -0.0939 -0.2509
29611SOL    HW192235   9.087   9.610   0.391  1.7217 -0.5890 -0.3374
29611SOL    HW292236   9.080   9.607   0.240  0.0172 -0.1178 -0.2963
29612SOL     OW92237   4.230   1.565   0.833 -0.6207  0.5041 -0.3688
29612SOL    HW192238   4.232   1.475   0.866 -1.3200  1.0815  1.3288
29612SOL    HW292239   4.321   1.594   0.837 -0.3448 -0.2058 -1.2114
29613SOL     OW92240   6.533   1.644   9.114  0.5887 -0.2098 -0.4004
29613SOL    HW192241   6.501   1.706   9.179  0.5799 -0.9107  0.2781
29613SOL    HW292242   6.618   1.679   9.087  0.4014  0.3059 -0.3248
29614SOL     OW92243   8.086   5.519   2.178  0.3678  0.0797  0.1406
29614SOL    HW192244   8.023   5.543   2.110 -0.1058 -1.1915  0.1145
29614SOL    HW292245   8.109   5.429   2.159  3.2416  0.8744 -0.6504
29615SOL     OW92246   8.881   8.760   0.491  0.1099 -0.0425  0.0272
29615SOL    HW192247   8.962   8.734   0.446 -0.0160 -1.9724  0.8320
29615SOL    HW292248   8.811   8.721   0.439 -0.1155 -1.0057  1.0157
29616SOL     OW92249   5.314   9.802   5.680 -0.5805  0.2509 -0.0669
29616SOL    HW192250   5.302   9.864   5.752  0.3148 -0.0820  0.3807
29616SOL    HW292251   5.408   9.804   5.662 -0.6078 -0.6330 -0.3522
29617SOL     OW92252   7.840   5.050   9.495  0.3010  0.3172  0.0178
29617SOL    HW192253   7.884   5.042   9.411  2.3605 -0.9136  1.1293
29617SOL    HW292254   7.820   4.960   9.520  0.2537  0.6170  1.1135
29618SOL     OW92255   8.189  10.266   5.362  0.3367  0.0093  0.5916
29618SOL    HW192256   8.267  10.233   5.318 -1.1403 -0.2523 -2.0436
29618SOL    HW292257   8.185  10.359   5.340 -0.9622 -0.3354 -0.8162
29619SOL     OW92258   4.840   4.894   7.939 -0.2430  0.4221 -0.3478
29619SOL    HW192259   4.844   4.896   8.034 -0.1575 -0.1945 -0.3354
29619SOL    HW292260   4.816   4.983   7.914 -0.5454  0.5166  0.2623
29620SOL     OW92261   6.920   5.511   8.959 -0.3976 -0.1234 -0.5458
29620SOL    HW192262   6.997   5.467   8.924  0.1616 -0.4264  0.9701
29620SOL    HW292263   6.900   5.464   9.040 -1.0126  1.1386  0.0685
29621SOL     OW92264   4.216   7.079   3.177  0.0844  0.2385 -0.3801
29621SOL    HW192265   4.207   7.004   3.118  1.1809 -1.4723  1.5140
29621SOL    HW292266   4.134   7.080   3.227  0.3393 -0.1189  0.0487
29622SOL     OW92267  10.289   5.380   8.390  0.0009  0.3614  1.2082
29622SOL    HW192268  10.227   5.309   8.370 -0.3162  1.1327 -0.8053
29622SOL    HW292269  10.374   5.346   8.362  0.0760  0.2657  1.5475
29623SOL     OW92270   3.485   6.961   6.203 -0.3738  0.3145 -0.2107
29623SOL    HW192271   3.423   7.033   6.218 -0.2010  0.4869 -0.3100
29623SOL    HW292272   3.525   6.982   6.118  1.0609  1.1145  0.6379
29624SOL     OW92273   5.854   0.841   0.157  0.8567 -0.2856 -0.0956
29624SOL    HW192274   5.932   0.785   0.163  1.1645  0.0401 -0.8484
29624SOL    HW292275   5.889   0.928   0.138  0.2697 -0.4468 -2.2901
29625SOL     OW92276   8.975   1.933   3.728  0.2750 -0.1722  0.2645
29625SOL    HW192277   8.898   1.987   3.743 -0.1811 -0.3694 -1.1835
29625SOL    HW292278   9.032   1.987   3.673  0.1734 -0.8526 -0.5191
29626SOL     OW92279   0.838   4.753   0.356  0.4687  0.1823  0.2986
29626SOL    HW192280   0.799   4.732   0.441 -0.5464  0.4508 -0.0808
29626SOL    HW292281   0.885   4.673   0.331  0.1407 -0.1663  0.7724
29627SOL     OW92282   5.859   5.584   2.390 -0.1811 -0.8622  0.2394
29627SOL    HW192283   5.862   5.627   2.305  0.5310  0.3993  0.8803
29627SOL    HW292284   5.948   5.552   2.403 -0.5646 -2.0703  0.0229
29628SOL     OW92285   4.723   0.055   5.692 -0.4742  0.3051 -0.2222
29628SOL    HW192286   4.764   0.141   5.702  1.0687 -0.4122 -0.0893
29628SOL    HW292287   4.780   0.009   5.631 -1.1705 -0.6932 -0.1347
29629SOL     OW92288   6.561   9.804   9.969 -0.2634 -0.3577 -0.0853
29629SOL    HW192289   6.571   9.743   9.896  1.4634  1.4420 -1.4925
29629SOL    HW292290   6.474   9.843   9.955  0.5170  0.8648 -2.0321
29630SOL     OW92291   8.695   0.823   3.311 -0.0796  0.2069 -0.0186
29630SOL    HW192292   8.748   0.855   3.238  0.8367 -0.2612  0.4164
29630SOL    HW292293   8.670   0.902   3.359 -1.8889  0.6511 -1.5893
29631SOL     OW92294   2.904  10.573   4.292 -0.4064  0.2403 -0.1616
29631SOL    HW192295   2.988  10.618   4.302  1.1595 -2.3392 -0.6627
29631SOL    HW292296   2.855  10.594   4.371  1.2686  0.7443  0.7747
29632SOL     OW92297   6.895   5.435   2.747 -0.3705 -0.3491  0.4987
29632SOL    HW192298   6.852   5.520   2.744 -1.0885 -0.7324 -0.8050
29632SOL    HW292299   6.884   5.406   2.838 -4.1144 -1.0140 -0.0046
29633SOL     OW92300   1.521   3.237   3.113  0.4174 -0.1164 -0.0159
29633SOL    HW192301   1.463   3.296   3.161  0.6379 -1.4179  2.0002
29633SOL    HW292302   1.462   3.177   3.067  0.1525 -0.3912  0.6648
29634SOL     OW92303   0.233   1.980   3.509  0.1914 -0.3067 -0.3573
29634SOL    HW192304   0.282   2.062   3.516  2.0853 -1.3806 -0.2990
29634SOL    HW292305   0.195   1.967   3.596  2.1062 -0.7824  0.4515
29635SOL     OW92306   0.004   7.288   2.779  0.3400  0.2485  0.7255
29635SOL    HW192307  -0.041   7.249   2.704  0.1246 -1.5520  1.7516
29635SOL    HW292308  -0.014   7.382   2.771  1.3557  0.3075 -2.1440
29636SOL     OW92309   0.585   4.647   1.591  0.3835  0.0018  0.1264
29636SOL    HW192310   0.552   4.558   1.580  2.3996 -0.9649  1.1412
29636SOL    HW292311   0.583   4.685   1.503 -2.9666 -0.0189  0.0627
29637SOL     OW92312   3.911   4.795   9.491  0.4395  0.5171 -0.1020
29637SOL    HW192313   3.985   4.738   9.467  0.3052  0.6138 -0.7711
29637SOL    HW292314   3.843   4.775   9.427 -0.9907 -1.2077  1.8347
29638SOL     OW92315  10.885   8.160   2.602  0.2375 -0.1723  0.5142
29638SOL    HW192316  10.938   8.099   2.550 -0.2416 -0.0860 -0.0918
29638SOL    HW292317  10.883   8.121   2.689  0.3312 -0.7808  0.2530
29639SOL     OW92318  10.169   6.576   8.980  0.1873  0.2101 -0.2072
29639SOL    HW192319  10.191   6.556   8.889 -0.6403  0.2729 -0.4328
29639SOL    HW292320  10.217   6.656   9.000  1.3910 -0.5008 -0.1651
29640SOL     OW92321   2.417  10.917  10.865 -0.0865 -0.3100 -0.4260
29640SOL    HW192322   2.403  10.866  10.945  1.0325  0.9788  0.6451
29640SOL    HW292323   2.499  10.964  10.881 -0.8712  1.5102 -1.5056
29641SOL     OW92324   9.187   3.183   1.133  0.0235 -0.5100  0.0882
29641SOL    HW192325   9.159   3.195   1.042  0.1508  0.8633  0.2124
29641SOL    HW292326   9.227   3.096   1.134 -0.7536 -0.8964 -0.9685
29642SOL     OW92327   3.000  10.276   2.379  0.0945  0.5891  0.2480
29642SOL    HW192328   3.015  10.343   2.446  0.0282  1.9645 -1.0429
29642SOL    HW292329   3.086  10.235   2.365 -0.0500 -0.2514  1.6844
29643SOL     OW92330   1.375   7.321   1.036  0.1280  0.1475  0.2035
29643SOL    HW192331   1.320   7.398   1.048 -1.9604 -0.9635 -1.5898
29643SOL    HW292332   1.364   7.271   1.117 -0.9071  0.3213  0.1844
29644SOL     OW92333   9.315   7.374   8.944  0.2524  0.3513 -0.7847
29644SOL    HW192334   9.322   7.284   8.913  2.0856  0.6010 -1.2577
29644SOL    HW292335   9.231   7.405   8.910 -0.6244 -1.2933 -0.2227
29645SOL     OW92336   9.559   3.434   5.103 -0.0392 -0.5584  0.5003
29645SOL    HW192337   9.622   3.489   5.148  0.2841 -0.4434 -0.0745
29645SOL    HW292338   9.545   3.360   5.161  0.9658 -0.8039  0.4450
29646SOL     OW92339   8.852   3.807   6.523 -0.3850 -0.1307 -0.5357
29646SOL    HW192340   8.769   3.826   6.566 -0.2290  0.7709 -0.6043
29646SOL    HW292341   8.831   3.742   6.455 -1.2063  0.7632 -1.1546
29647SOL     OW92342   1.180   8.585   1.683  0.0836  0.4063  0.0019
29647SOL    HW192343   1.266   8.624   1.666  0.7518 -0.9047  0.2810
29647SOL    HW292344   1.123   8.627   1.619  1.1636  0.4823 -0.9648
29648SOL     OW92345   8.804   1.299   3.340  0.0099  0.3302  0.0435
29648SOL    HW192346   8.712   1.287   3.364  0.4723 -0.3185  1.6621
29648SOL    HW292347   8.803   1.370   3.276 -1.5423  0.8136  0.5526
29649SOL     OW92348   0.358   1.511  10.906  0.0415  0.2542  0.8630
29649SOL    HW192349   0.426   1.549  10.850 -1.6766  0.6764 -1.0784
29649SOL    HW292350   0.343   1.424  10.869 -0.6913  0.3007  1.0420
29650SOL     OW92351   1.148   7.757   2.852  0.1113  0.2936  0.2771
29650SOL    HW192352   1.220   7.698   2.827 -0.3994 -1.0886  1.8778
29650SOL    HW292353   1.090   7.702   2.906 -0.0952  2.4019  2.3529
29651SOL     OW92354   9.391   4.423   5.582  0.6225 -0.2737  0.3599
29651SOL    HW192355   9.337   4.351   5.549  0.9200 -1.3350  2.0510
29651SOL    HW292356   9.476   4.410   5.541  0.6510 -0.8745  0.5911
29652SOL     OW92357   9.782  10.065   6.953 -0.2831 -0.7659 -0.8815
29652SOL    HW192358   9.876  10.051   6.950 -0.3169 -0.8434 -1.8695
29652SOL    HW292359   9.764  10.122   6.878 -0.9090 -0.0472 -0.2056
29653SOL     OW92360   0.163   1.492   1.748  0.7972  0.3572 -0.1713
29653SOL    HW192361   0.234   1.539   1.704  0.5855 -0.3591 -1.3018
29653SOL    HW292362   0.182   1.400   1.734 -0.2455  0.1506 -0.3186
29654SOL     OW92363   7.799  10.014   1.347 -0.3781  0.0978  0.3990
29654SOL    HW192364   7.772   9.989   1.435  0.1120  2.4497  1.3098
29654SOL    HW292365   7.752  10.096   1.330 -1.1928 -0.7631 -1.9522
29655SOL     OW92366   4.845  10.695   4.723 -0.4369  0.2152  0.5333
29655SOL    HW192367   4.806  10.619   4.680 -0.2755 -0.0109  0.7817
29655SOL    HW292368   4.939  10.688   4.703 -0.6892  1.6318 -1.4197
29656SOL     OW92369   9.827   5.994   9.002  0.4648  0.5772 -0.6093
29656SOL    HW192370   9.770   5.945   8.943 -0.7478  1.0156  0.1685
29656SOL    HW292371   9.781   5.994   9.086  1.4991  1.1538 -0.0290
29657SOL     OW92372   5.328  10.683   9.387 -0.3321 -0.2031 -1.2347
29657SOL    HW192373   5.415  10.721   9.379  1.6130 -4.2483 -1.7517
29657SOL    HW292374   5.268  10.757   9.375  2.9462  2.9012 -0.0922
29658SOL     OW92375  10.746   8.150   2.225  0.0690  0.1431 -0.1199
29658SOL    HW192376  10.791   8.208   2.162 -1.2847  0.2659 -1.0190
29658SOL    HW292377  10.789   8.065   2.213  0.9825  0.5703  0.0358
29659SOL     OW92378   2.402   0.528   1.921  0.2566  0.3351 -0.4127
29659SOL    HW192379   2.442   0.451   1.963  2.2203  1.8545  0.6472
29659SOL    HW292380   2.369   0.580   1.994  0.2923  1.2168 -1.0224
29660SOL     OW92381   1.174   9.230   9.338  0.4779  0.2363  0.6881
29660SOL    HW192382   1.116   9.293   9.296 -0.4654 -1.3046 -0.4275
29660SOL    HW292383   1.231   9.283   9.393  1.4864  2.3430 -2.1643
29661SOL     OW92384   1.946   2.547   3.399 -0.4403  0.3330  0.0015
29661SOL    HW192385   1.851   2.534   3.396 -0.4346  0.3189 -0.1143
29661SOL    HW292386   1.957   2.641   3.411 -0.4809  0.2392  0.8247
29662SOL     OW92387   2.296   1.084   2.506  0.2619 -0.6468 -0.5038
29662SOL    HW192388   2.217   1.138   2.510 -0.5837 -1.8257 -0.6562
29662SOL    HW292389   2.320   1.070   2.598 -0.8365 -1.8235 -0.3572
29663SOL     OW92390   7.867   9.783  10.300 -0.1422 -0.4459  0.0055
29663SOL    HW192391   7.815   9.736  10.365  1.9711 -1.0466  1.3716
29663SOL    HW292392   7.868   9.874  10.331 -1.2037 -0.1944 -0.6286
29664SOL     OW92393  10.551   9.226   0.117 -0.2796  0.6211  0.1245
29664SOL    HW192394  10.637   9.230   0.077  0.7371 -0.1969  2.0883
29664SOL    HW292395  10.530   9.317   0.138  1.1783  0.6390  1.6921
29665SOL     OW92396   8.067   3.614   9.503 -0.2514  0.1703  0.2305
29665SOL    HW192397   8.020   3.564   9.436  1.7679  0.4821 -1.4993
29665SOL    HW292398   8.071   3.555   9.578 -2.8329 -0.0784  0.2940
29666SOL     OW92399   1.737   7.398   0.591  0.2943  0.1901 -0.1102
29666SOL    HW192400   1.733   7.371   0.499  0.1503  0.7692 -0.2729
29666SOL    HW292401   1.819   7.446   0.598  1.4724 -1.8017  0.5966
29667SOL     OW92402   5.748  10.676   1.692  0.0930  0.0496  0.4032
29667SOL    HW192403   5.667  10.727   1.703  0.1540  0.1556  0.3644
29667SOL    HW292404   5.812  10.740   1.661 -0.3528 -0.4441 -1.6738
29668SOL     OW92405   0.288   3.418   1.169 -0.0119 -0.0964 -0.6193
29668SOL    HW192406   0.374   3.383   1.147  0.7235 -0.2575  2.0931
29668SOL    HW292407   0.288   3.507   1.136  1.3063 -0.0300 -0.4835
29669SOL     OW92408   6.429   6.913   1.892 -0.5654 -0.2117 -0.9665
29669SOL    HW192409   6.375   6.923   1.813 -1.2268  2.0888 -0.2804
29669SOL    HW292410   6.379   6.853   1.947 -0.6791 -0.8859 -1.7814
29670SOL     OW92411   7.993   3.728   4.677  0.1757  0.1311  0.1406
29670SOL    HW192412   7.910   3.764   4.708 -1.1764 -0.9834 -1.9814
29670SOL    HW292413   7.970   3.643   4.639  2.1895  0.0669 -1.0728
29671SOL     OW92414   5.539   5.789   3.794  1.0084  0.4801 -0.0509
29671SOL    HW192415   5.597   5.750   3.729  3.2380  0.3467  1.8704
29671SOL    HW292416   5.597   5.843   3.848 -0.9671  1.6343  1.0400
29672SOL     OW92417   7.104   9.138   1.656  0.4375 -0.5865 -0.0144
29672SOL    HW192418   7.139   9.174   1.575  0.5369 -1.4547 -0.3736
29672SOL    HW292419   7.104   9.043   1.642 -0.9817 -0.6744  0.4152
29673SOL     OW92420   5.145   8.774   4.644  0.4146 -0.4580 -0.2486
29673SOL    HW192421   5.168   8.700   4.587 -1.0758 -0.7447 -0.5342
29673SOL    HW292422   5.068   8.813   4.601 -1.8821 -1.7242  2.4007
29674SOL     OW92423   3.069   6.785  10.296 -0.2731  0.4987 -0.4066
29674SOL    HW192424   2.983   6.826  10.289  0.5678  2.0915 -2.7056
29674SOL    HW292425   3.120   6.844  10.351 -0.1902  0.4190 -0.3963
29675SOL     OW92426   6.852   2.129   5.506  0.9117 -0.0736 -0.3519
29675SOL    HW192427   6.931   2.093   5.546  1.1420 -0.9879 -1.5738
29675SOL    HW292428   6.885   2.187   5.437  0.5192 -0.6973 -1.0675
29676SOL     OW92429   2.864   3.670   8.593  0.1282  0.1145  0.1860
29676SOL    HW192430   2.892   3.638   8.508 -0.2474  1.3465 -0.4233
29676SOL    HW292431   2.880   3.597   8.653 -0.2727 -1.0144 -1.0520
29677SOL     OW92432   1.711  10.344   1.451 -0.0982  0.0457 -0.4010
29677SOL    HW192433   1.734  10.359   1.543  1.7427  0.2073 -0.8452
29677SOL    HW292434   1.725  10.250   1.438 -0.7089 -0.0415 -0.4303
29678SOL     OW92435   7.852   8.539   2.753  0.0937  0.5749 -0.0425
29678SOL    HW192436   7.798   8.504   2.824  1.8453 -0.6812  0.7185
29678SOL    HW292437   7.797   8.530   2.675 -0.5969 -1.2459  0.6004
29679SOL     OW92438   6.522   3.020   8.102  0.1728  0.1575 -0.0465
29679SOL    HW192439   6.556   2.992   8.017  0.5861  0.2021  0.1035
29679SOL    HW292440   6.549   3.112   8.109 -0.7169  0.4551 -0.3043
29680SOL     OW92441   9.876   6.633   8.001  0.5117 -0.2763  0.2383
29680SOL    HW192442   9.848   6.542   7.994 -0.3380  0.0574 -0.9626
29680SOL    HW292443   9.900   6.644   8.093 -1.2308 -1.1986  0.8319
29681SOL     OW92444  10.279   0.582   5.281  0.0238  0.6071 -0.1457
29681SOL    HW192445  10.225   0.560   5.357 -0.6400  0.5782 -0.6202
29681SOL    HW292446  10.243   0.529   5.210  2.3466 -1.4806  0.0984
29682SOL     OW92447   4.221   5.668   8.067 -0.3413  0.5045  0.2986
29682SOL    HW192448   4.285   5.697   8.002 -1.3219  0.2691 -0.8050
29682SOL    HW292449   4.273   5.623   8.133  0.7080  0.9280 -0.2188
29683SOL     OW92450   6.994   8.309   0.111  0.4055 -0.1906 -0.0989
29683SOL    HW192451   7.011   8.265   0.194  1.6711  0.9627  0.2914
29683SOL    HW292452   7.003   8.402   0.131  1.2706  0.0957 -1.6229
29684SOL     OW92453   2.415   3.284   5.151 -0.2720 -0.6375 -0.0415
29684SOL    HW192454   2.496   3.327   5.124  0.2669 -2.2331 -1.1356
29684SOL    HW292455   2.346   3.344   5.121  0.4452 -0.5121 -1.5668
29685SOL     OW92456   9.051   8.546   1.996  0.6374 -0.4204  0.1122
29685SOL    HW192457   9.088   8.589   2.073 -0.7048 -0.5221  0.8483
29685SOL    HW292458   9.002   8.615   1.951 -1.1682 -0.9988  1.0701
29686SOL     OW92459   0.887   6.173   3.743 -0.4795 -0.1000 -0.0732
29686SOL    HW192460   0.885   6.116   3.666 -0.3571 -0.2330  0.0216
29686SOL    HW292461   0.885   6.113   3.818  1.7794 -0.0976  0.0552
29687SOL     OW92462   1.886   3.273   1.078 -0.1134 -0.4219  0.2055
29687SOL    HW192463   1.827   3.338   1.115 -1.1280 -0.8243 -0.6645
29687SOL    HW292464   1.867   3.273   0.985  1.3960 -0.4381 -0.1352
29688SOL     OW92465   8.056  10.106   1.600  0.2488 -0.2467 -0.0754
29688SOL    HW192466   7.961  10.100   1.598  0.3261 -2.4173  0.5975
29688SOL    HW292467   8.085  10.058   1.523  0.8125  0.3970 -0.2748
29689SOL     OW92468   6.560   9.094   8.924  0.1550 -0.1076  0.1753
29689SOL    HW192469   6.536   9.186   8.915 -0.1912 -0.1710  0.4778
29689SOL    HW292470   6.592   9.070   8.837  1.9763  0.7874  0.5329
29690SOL     OW92471   4.876   1.015   7.736 -0.2760 -0.7360 -0.6643
29690SOL    HW192472   4.908   1.003   7.825 -0.7916  1.7929 -0.0479
29690SOL    HW292473   4.872   0.927   7.699 -0.1335 -1.8669  1.8286
29691SOL     OW92474   4.616   0.651  10.372 -0.5075 -0.1962 -1.0337
29691SOL    HW192475   4.606   0.564  10.334  0.8321 -0.1359 -1.5684
29691SOL    HW292476   4.580   0.642  10.461  0.0967 -1.4435 -0.8882
29692SOL     OW92477   0.542   3.346   6.972  0.0277 -0.3508  0.2086
29692SOL    HW192478   0.526   3.372   6.881 -0.8853 -1.1029  0.1380
29692SOL    HW292479   0.533   3.427   7.022  2.5424  0.4792 -0.5608
29693SOL     OW92480   0.610   5.809   4.079  0.5935  0.2939 -0.3385
29693SOL    HW192481   0.674   5.739   4.063 -0.7357 -0.7984 -1.0523
29693SOL    HW292482   0.553   5.773   4.147  0.4374  1.0697 -0.0548
29694SOL     OW92483   1.018   8.704  10.821  0.0857  0.2556  0.1058
29694SOL    HW192484   0.968   8.774  10.861  0.4203  0.4951  0.1045
29694SOL    HW292485   1.011   8.631  10.882  0.5225  0.5890  0.5624
29695SOL     OW92486   3.345   2.908   6.438  0.4416  0.6621  0.4524
29695SOL    HW192487   3.367   2.953   6.356 -2.1176  1.2162 -0.0020
29695SOL    HW292488   3.360   2.815   6.419  0.1699  0.8100 -0.5496
29696SOL     OW92489   9.786   2.659   9.677  0.1349  0.3832 -0.1645
29696SOL    HW192490   9.772   2.750   9.651 -0.9072  0.3342  0.1883
29696SOL    HW292491   9.744   2.652   9.762  1.3476 -0.1015  0.4089
29697SOL     OW92492   5.075   2.009   4.197 -0.3209 -0.1599  0.3030
29697SOL    HW192493   5.146   2.069   4.217 -0.2904 -0.0987  0.0117
29697SOL    HW292494   5.078   1.943   4.267  0.6950 -0.7708 -0.3018
29698SOL     OW92495   8.374   7.425   3.032 -0.4312 -0.2287  0.1702
29698SOL    HW192496   8.346   7.355   2.973 -0.2673 -0.6171  0.5465
29698SOL    HW292497   8.365   7.387   3.119  0.5763 -0.1147  0.3350
29699SOL     OW92498   0.076  10.128   4.043 -0.6315 -0.6046 -0.0899
29699SOL    HW192499   0.140  10.065   4.075 -1.4018 -1.0560  0.6419
29699SOL    HW292500   0.115  10.214   4.059  0.0663 -0.8862 -0.2940
29700SOL     OW92501   2.085   5.681   7.636 -0.4865  0.3336  0.5294
29700SOL    HW192502   2.049   5.606   7.588 -1.9987  1.2941  0.0670
29700SOL    HW292503   2.173   5.654   7.660 -0.1759 -0.7492 -1.5551
29701SOL     OW92504   5.268   3.566   0.576  0.6129 -0.9230 -0.1892
29701SOL    HW192505   5.290   3.656   0.598 -2.9886  0.5339 -1.8441
29701SOL    HW292506   5.254   3.524   0.661  0.7504  0.5212  0.5845
29702SOL     OW92507   1.575   0.706   9.619 -0.1823  0.0352 -0.0652
29702SOL    HW192508   1.538   0.681   9.703 -1.1590 -0.7402 -0.7016
29702SOL    HW292509   1.500   0.730   9.565  0.2490 -0.9625 -1.1894
29703SOL     OW92510   6.918   7.964  10.228 -0.4057 -0.0070 -0.1083
29703SOL    HW192511   6.980   7.890  10.232 -0.8512 -0.3992 -0.4083
29703SOL    HW292512   6.862   7.951  10.305 -0.2106  0.2666  0.0812
29704SOL     OW92513   6.046   2.683   4.873  0.0050  0.3966  0.4898
29704SOL    HW192514   5.984   2.647   4.936 -0.8293  1.4594  0.3017
29704SOL    HW292515   6.081   2.761   4.917  0.2774  0.4981  0.0952
29705SOL     OW92516   6.164   2.980   2.797  0.0284 -0.4463  0.3355
29705SOL    HW192517   6.136   2.895   2.831 -0.0456 -1.6516 -2.4863
29705SOL    HW292518   6.087   3.016   2.753 -0.0492  1.3359  1.7821
29706SOL     OW92519   4.522   3.365   0.958  0.8399  0.0598 -0.3362
29706SOL    HW192520   4.533   3.292   1.018  0.0239 -1.3122 -1.7733
29706SOL    HW292521   4.610   3.403   0.950  1.3976 -1.1052  0.0265
29707SOL     OW92522   8.976   0.295   5.344  0.4002  0.2423  0.0905
29707SOL    HW192523   9.048   0.254   5.296  1.1970  2.5314 -0.7998
29707SOL    HW292524   8.929   0.222   5.384  1.0150 -1.6131 -2.3614
29708SOL     OW92525   2.199  10.646   6.706 -0.0823 -0.2600  0.0507
29708SOL    HW192526   2.164  10.597   6.632  0.9786  0.2429 -0.8069
29708SOL    HW292527   2.123  10.661   6.763 -1.1524  0.3520 -1.4949
29709SOL     OW92528   2.384  10.239   2.072 -0.7218  0.3777  0.2116
29709SOL    HW192529   2.445  10.241   1.999  0.3335  0.2954  1.0544
29709SOL    HW292530   2.423  10.297   2.138 -0.5458 -1.1130  1.4972
29710SOL     OW92531   1.097   2.823   3.303 -0.5801  0.2582  0.2404
29710SOL    HW192532   1.181   2.869   3.298 -0.5354  0.2114  0.5634
29710SOL    HW292533   1.102   2.771   3.383 -1.5317  1.4695  1.1087
29711SOL     OW92534   6.090   2.949   3.864  0.0613 -0.0223  0.0260
29711SOL    HW192535   6.006   2.910   3.888  0.6708 -1.1066  0.4865
29711SOL    HW292536   6.099   3.023   3.923 -0.5379  0.0574  0.0265
29712SOL     OW92537   3.822   5.326   9.980  0.3498 -0.1304 -0.0892
29712SOL    HW192538   3.822   5.422   9.980  0.1378 -0.1292 -0.1372
29712SOL    HW292539   3.799   5.302  10.069 -1.0887 -0.1256 -0.4353
29713SOL     OW92540   5.199   9.552   3.321 -0.0048 -0.0411 -0.4724
29713SOL    HW192541   5.234   9.484   3.264 -0.2825 -0.4513 -0.1569
29713SOL    HW292542   5.105   9.553   3.303 -0.0074  0.2363 -0.4531
29714SOL     OW92543   5.563   4.639  10.898 -0.0801  0.1516  0.3199
29714SOL    HW192544   5.532   4.587  10.824  1.2641  0.6037 -0.6086
29714SOL    HW292545   5.644   4.679  10.866 -0.2796  1.5880  1.5264
29715SOL     OW92546   8.747   8.705   1.103  0.2058 -0.0529  0.4393
29715SOL    HW192547   8.834   8.746   1.103  0.3956 -0.3838 -1.0172
29715SOL    HW292548   8.725   8.697   1.010 -1.9167  1.1198  0.7848
29716SOL     OW92549   7.035   2.205   6.517 -0.1922 -0.5736 -0.0019
29716SOL    HW192550   7.112   2.167   6.475  0.7016  0.1651  0.9206
29716SOL    HW292551   7.039   2.174   6.608 -0.5307  0.1300  0.2640
29717SOL     OW92552   8.989   2.858   0.141 -0.5272 -0.1637  0.1498
29717SOL    HW192553   8.900   2.870   0.174 -0.7956 -0.1904 -0.5644
29717SOL    HW292554   9.010   2.767   0.163 -0.3936  0.0568  0.9777
29718SOL     OW92555   3.987   0.302   9.821  0.1479  0.2905 -0.2442
29718SOL    HW192556   3.959   0.380   9.870 -0.6923  0.4765 -0.9998
29718SOL    HW292557   3.924   0.234   9.845 -0.3403  0.4131 -1.1403
29719SOL     OW92558   3.161   0.864   1.811 -0.0950 -0.0273  0.9771
29719SOL    HW192559   3.239   0.810   1.827  0.0905 -0.7575 -1.8922
29719SOL    HW292560   3.093   0.802   1.785 -0.3286  0.9089 -0.8253
29720SOL     OW92561   1.526   8.703   7.896  0.2937  0.0313 -0.4806
29720SOL    HW192562   1.594   8.711   7.828  1.0915  0.0845  0.2979
29720SOL    HW292563   1.543   8.776   7.955 -1.4381  0.9671 -1.1054
29721SOL     OW92564   0.868   9.563  10.402  0.3225  0.1399 -0.1863
29721SOL    HW192565   0.886   9.619  10.478 -0.9326  0.6541 -0.2517
29721SOL    HW292566   0.795   9.606  10.357  0.7429 -0.4039 -1.4351
29722SOL     OW92567   6.393   8.252   5.631 -0.3903 -0.3634  0.4091
29722SOL    HW192568   6.466   8.313   5.620  0.3540 -0.7833  2.4479
29722SOL    HW292569   6.423   8.171   5.590 -1.4786  0.6160 -2.5183
29723SOL     OW92570   1.943   9.518   6.530  0.4640 -0.2954 -0.0210
29723SOL    HW192571   2.001   9.591   6.506 -1.6125  1.8022  0.9603
29723SOL    HW292572   1.890   9.552   6.601 -0.0985 -3.0921  1.0112
29724SOL     OW92573   3.021   1.108   6.814 -0.2074  0.1051 -0.6996
29724SOL    HW192574   3.037   1.141   6.903  0.1237  2.0485 -1.4466
29724SOL    HW292575   3.106   1.073   6.786 -0.2166 -0.1651 -0.3965
29725SOL     OW92576   6.380   0.739   9.894  1.5512  0.0507  0.3985
29725SOL    HW192577   6.462   0.739   9.844  1.2398  1.3053 -0.1656
29725SOL    HW292578   6.321   0.795   9.843  0.2078 -1.1394  0.5984
29726SOL     OW92579  10.704   4.347   4.226 -0.8260 -0.1281  0.2628
29726SOL    HW192580  10.775   4.348   4.162 -1.2621 -1.2439 -0.2682
29726SOL    HW292581  10.723   4.271   4.281 -1.1215  0.1120  0.7030
29727SOL     OW92582   7.426   5.924   8.714 -0.3835 -0.1613 -0.2322
29727SOL    HW192583   7.368   5.912   8.789 -0.0650 -0.9908 -0.1035
29727SOL    HW292584   7.406   5.851   8.656  1.1474 -1.0082  0.2384
29728SOL     OW92585   7.147  10.588   5.288  0.1404  0.4617 -0.1021
29728SOL    HW192586   7.189  10.674   5.299 -0.8548  1.0729 -0.9217
29728SOL    HW292587   7.217  10.532   5.254  0.3275  1.4530 -1.4034
29729SOL     OW92588   1.448   0.378   4.366  0.0428  0.1047  0.6760
29729SOL    HW192589   1.508   0.309   4.394 -0.5894 -0.1897  1.3443
29729SOL    HW292590   1.485   0.458   4.404  0.4174  0.0356  0.4592
29730SOL     OW92591   3.460   7.594   1.443 -0.2227 -0.3880  0.1980
29730SOL    HW192592   3.473   7.676   1.491 -1.4728 -1.4914  2.5763
29730SOL    HW292593   3.532   7.538   1.471  0.3600 -0.3204 -1.0652
29731SOL     OW92594   8.466   3.800  10.782 -0.4053 -0.4603  0.1349
29731SOL    HW192595   8.536   3.857  10.750 -1.6610  0.6656 -0.7161
29731SOL    HW292596   8.495   3.712  10.758  1.1152 -0.1114  0.5846
29732SOL     OW92597   8.314   1.765   8.679  0.2689  0.1500 -0.4725
29732SOL    HW192598   8.310   1.690   8.738 -1.1891  1.7690  1.6739
29732SOL    HW292599   8.398   1.806   8.699  0.2566  0.0979 -0.3125
29733SOL     OW92600  10.636   0.695   5.664  0.3927  0.1655 -0.5973
29733SOL    HW192601  10.698   0.674   5.734  1.2256  1.4039 -0.9371
29733SOL    HW292602  10.611   0.610   5.628  0.4884 -0.4484  0.7273
29734SOL     OW92603   7.098   1.701   4.513 -0.4019 -0.7575 -0.6587
29734SOL    HW192604   7.090   1.791   4.480  2.2023  0.3171  1.2996
29734SOL    HW292605   7.091   1.646   4.435  1.4981  1.3958 -2.4951
29735SOL     OW92606   0.670   3.758   0.195 -0.0254 -0.2505  0.6331
29735SOL    HW192607   0.676   3.663   0.200 -1.1845 -0.3596  0.2892
29735SOL    HW292608   0.576   3.776   0.186  0.2818  0.8424 -0.8800
29736SOL     OW92609   6.979   8.276   0.655 -0.0264  0.3068 -0.3965
29736SOL    HW192610   6.925   8.197   0.658  1.1982 -0.5820 -0.8579
29736SOL    HW292611   6.973   8.306   0.564 -1.6737  1.6379  0.1042
29737SOL     OW92612   0.713   3.236   9.822 -0.0135  0.2820  0.2398
29737SOL    HW192613   0.669   3.215   9.739 -0.8079 -1.6893  1.0975
29737SOL    HW292614   0.739   3.328   9.813 -0.6274  0.3006 -1.9349
29738SOL     OW92615   0.524   7.150   3.966  0.0875  0.1690  0.2484
29738SOL    HW192616   0.527   7.241   3.995  2.2282  0.0844  0.3871
29738SOL    HW292617   0.545   7.099   4.044  0.5180 -0.3503 -0.1974
29739SOL     OW92618   4.554   5.578   1.623  0.1512  0.1099 -0.1212
29739SOL    HW192619   4.475   5.628   1.646  0.6220  0.0988  1.7040
29739SOL    HW292620   4.523   5.511   1.562 -1.4789 -0.4879  1.2628
29740SOL     OW92621  10.556   6.830  10.534  0.0649  0.0981 -0.0377
29740SOL    HW192622  10.585   6.859  10.621 -0.4372  0.3010  0.0647
29740SOL    HW292623  10.577   6.737  10.532 -0.1821  0.0278  0.4126
29741SOL     OW92624   0.455   1.992   0.580 -0.0479  0.0557 -0.8314
29741SOL    HW192625   0.526   1.935   0.552  1.8989  0.9700  1.8368
29741SOL    HW292626   0.396   1.934   0.628  0.3041 -0.2277 -0.7357
29742SOL     OW92627   4.301  10.457   9.230 -0.0652 -0.3566 -0.1020
29742SOL    HW192628   4.297  10.552   9.215  2.0973 -0.0564  0.9069
29742SOL    HW292629   4.264  10.445   9.318 -1.5032 -0.6437 -0.7160
29743SOL     OW92630  10.093   2.633   1.458  0.3697  0.0778  0.0255
29743SOL    HW192631  10.121   2.724   1.468 -3.8486  1.5406  0.6340
29743SOL    HW292632  10.082   2.601   1.548 -1.6803  0.3482 -0.0700
29744SOL     OW92633   6.000   9.206   4.249 -0.4438 -0.2300  0.4403
29744SOL    HW192634   5.947   9.285   4.260 -0.0472  0.0551  0.3376
29744SOL    HW292635   6.089   9.235   4.266 -0.2400 -0.5574 -0.0440
29745SOL     OW92636   8.645   0.292   1.895  0.0707  0.0477  0.2375
29745SOL    HW192637   8.652   0.263   1.804  0.8734  0.6486  0.0991
29745SOL    HW292638   8.551   0.296   1.911 -0.0689 -0.9677 -0.2713
29746SOL     OW92639   7.898   6.066   1.971  0.5530  0.3720 -0.1619
29746SOL    HW192640   7.897   6.150   2.016  0.2412 -0.1897  0.9055
29746SOL    HW292641   7.976   6.070   1.915  0.5117  1.3755 -0.1651
29747SOL     OW92642   4.533   1.593   2.520 -0.6001  0.7630 -0.8370
29747SOL    HW192643   4.482   1.519   2.487  0.9130 -0.5396 -0.3876
29747SOL    HW292644   4.478   1.632   2.588 -1.4617  0.1112 -1.1423
29748SOL     OW92645   1.113   0.692   8.622 -0.5345 -0.1292  0.0149
29748SOL    HW192646   1.073   0.673   8.706  1.0986 -0.3856  0.7649
29748SOL    HW292647   1.206   0.707   8.642 -0.1194 -0.1511 -1.7233
29749SOL     OW92648   2.028   2.889   2.365 -0.1097 -0.5491  0.0436
29749SOL    HW192649   2.099   2.881   2.429  0.6935 -0.5367 -0.8322
29749SOL    HW292650   1.948   2.875   2.417  0.5856 -1.8899  0.8079
29750SOL     OW92651   3.639   5.151   1.897  0.7380 -0.1587 -0.6088
29750SOL    HW192652   3.690   5.232   1.897  0.4631  0.0150 -1.0493
29750SOL    HW292653   3.596   5.149   1.983  0.3680  0.4005 -0.7789
29751SOL     OW92654   8.130   1.900   8.825 -0.3256  0.0118 -0.8362
29751SOL    HW192655   8.163   1.988   8.812  0.3169  0.3422  2.3196
29751SOL    HW292656   8.198   1.843   8.790  1.0582  0.7703  0.5104
29752SOL     OW92657   1.459   8.925   9.103 -0.2764 -0.1773  0.1110
29752SOL    HW192658   1.401   8.889   9.170 -0.1130 -0.1948  0.2453
29752SOL    HW292659   1.542   8.940   9.149 -0.2573  0.0976 -0.0148
29753SOL     OW92660  10.003   2.457  10.425 -0.2592  0.0099 -0.0642
29753SOL    HW192661   9.978   2.432  10.514 -1.4859  2.0632  0.2433
29753SOL    HW292662  10.044   2.543  10.435  0.0899  0.0279 -1.4391
29754SOL     OW92663   2.518   0.767   4.888 -0.3652 -0.0332  0.3041
29754SOL    HW192664   2.609   0.786   4.866 -0.3598  0.1868  0.5131
29754SOL    HW292665   2.467   0.817   4.825 -0.3518  0.7406  0.8895
29755SOL     OW92666   8.630   7.536   8.378 -0.1577  0.3644  0.3519
29755SOL    HW192667   8.564   7.547   8.309 -0.7767  1.1055  1.0498
29755SOL    HW292668   8.706   7.584   8.346  0.0030 -0.3421 -0.3748
29756SOL     OW92669   3.813   4.731   1.714  0.6557  0.0524 -0.2424
29756SOL    HW192670   3.804   4.650   1.763 -0.3748 -0.1393 -0.7359
29756SOL    HW292671   3.781   4.711   1.627 -3.0351  1.8687  0.5143
29757SOL     OW92672   6.163   1.355   3.265 -0.1668 -0.2987 -0.0240
29757SOL    HW192673   6.240   1.342   3.321  1.2492 -0.0698 -1.8222
29757SOL    HW292674   6.109   1.417   3.314  0.0166 -1.6021  1.9662
29758SOL     OW92675   0.450   8.680   8.353 -0.1723 -0.1065  0.9393
29758SOL    HW192676   0.540   8.703   8.379 -0.6200  1.4896  1.2260
29758SOL    HW292677   0.457   8.661   8.260  0.1608  2.2006  0.4245
29759SOL     OW92678   8.880   8.169   7.250 -0.2256 -0.0428  0.0605
29759SOL    HW192679   8.902   8.225   7.176  0.0010 -0.4854 -0.2056
29759SOL    HW292680   8.806   8.213   7.292 -0.1882  0.3412 -0.2762
29760SOL     OW92681   0.901   1.292  10.107  0.0141 -0.1840  0.0809
29760SOL    HW192682   0.859   1.207  10.093 -0.0290 -0.6254  2.4452
29760SOL    HW292683   0.838   1.355  10.073 -1.1316 -0.9995  0.6112
29761SOL     OW92684   4.418   8.218  10.646 -0.8728  0.5084 -0.2242
29761SOL    HW192685   4.467   8.158  10.589  0.1658  1.6465 -0.5612
29761SOL    HW292686   4.448   8.305  10.621 -2.9522  1.2504 -0.3133
29762SOL     OW92687   6.336   0.333   9.444  0.0310 -0.1287  0.0315
29762SOL    HW192688   6.330   0.428   9.459 -1.0740 -0.4404  1.8187
29762SOL    HW292689   6.427   0.319   9.417  0.6648  1.2512  1.3334
29763SOL     OW92690  10.734   1.685   5.355  0.1107  0.2352 -0.1340
29763SOL    HW192691  10.726   1.639   5.271  2.3401 -0.3061 -0.1081
29763SOL    HW292692  10.725   1.615   5.421  0.6129  0.2807 -0.0104
29764SOL     OW92693   3.104   8.981   9.428 -0.1916  0.9104  0.2937
29764SOL    HW192694   3.083   8.897   9.470 -0.1145  1.2540  1.0334
29764SOL    HW292695   3.066   8.974   9.340 -1.9120  0.8416  1.0023
29765SOL     OW92696   5.578   6.495   4.538 -0.0002  0.1661  0.2440
29765SOL    HW192697   5.613   6.513   4.626  1.0049 -1.3319  0.1965
29765SOL    HW292698   5.484   6.483   4.552  0.3231 -1.3787  1.3845
29766SOL     OW92699   3.063   2.417   9.784  0.2246 -0.9415 -0.3408
29766SOL    HW192700   3.151   2.379   9.777  0.4118 -0.6116  0.1827
29766SOL    HW292701   3.017   2.385   9.707  0.7151 -1.3593 -0.4650
29767SOL     OW92702  10.400  10.098   0.922  0.5730  0.3169  0.2537
29767SOL    HW192703  10.433  10.187   0.911  0.1371  0.2884 -1.5487
29767SOL    HW292704  10.368  10.073   0.835  1.3661 -1.8833  0.5247
29768SOL     OW92705   6.369   1.046   7.605  0.4102  0.2823 -0.0382
29768SOL    HW192706   6.325   1.107   7.547 -0.9272 -0.9174 -0.3419
29768SOL    HW292707   6.440   1.009   7.552  0.4978  0.7172 -0.2231
29769SOL     OW92708   6.301   6.221   1.416 -0.9716  0.2370 -0.2818
29769SOL    HW192709   6.232   6.160   1.442 -0.8803  0.5154  0.6492
29769SOL    HW292710   6.376   6.166   1.395 -0.9663  0.0115  0.3112
29770SOL     OW92711  10.890   2.899   6.522 -0.1609  0.0747 -0.3951
29770SOL    HW192712  10.824   2.906   6.591  1.3879 -0.1868  1.1504
29770SOL    HW292713  10.892   2.806   6.500 -0.3818  0.1027 -0.5447
29771SOL     OW92714   8.440   9.383   9.846  0.1173 -0.4736  0.2235
29771SOL    HW192715   8.459   9.451   9.782 -3.9955 -0.4317 -1.2050
29771SOL    HW292716   8.445   9.301   9.796 -1.1073 -0.6205  0.3169
29772SOL     OW92717   5.279   6.992   1.688 -0.3171 -0.3721 -0.2372
29772SOL    HW192718   5.346   6.923   1.689  2.2678  1.9701 -0.1295
29772SOL    HW292719   5.293   7.039   1.770 -0.8325  1.2985 -1.0787
29773SOL     OW92720   5.452   3.056  10.518  0.5184  0.3071  0.0534
29773SOL    HW192721   5.464   2.990  10.586  1.1587 -0.4841 -0.7978
29773SOL    HW292722   5.433   3.005  10.439  2.2219  1.0395 -0.8862
29774SOL     OW92723   0.346   0.022   4.650  0.1271 -0.2833  0.8385
29774SOL    HW192724   0.267   0.074   4.665  0.1462  0.3238 -0.9553
29774SOL    HW292725   0.327  -0.063   4.690 -0.3745  0.6667  2.7539
29775SOL     OW92726   5.388   0.554   4.216  0.0407 -0.5529 -0.0802
29775SOL    HW192727   5.422   0.565   4.305 -0.5706  1.4577 -0.0413
29775SOL    HW292728   5.295   0.575   4.224  0.5765  3.1983 -1.7030
29776SOL     OW92729   8.990   1.062   6.771 -0.4655 -0.5340 -0.1503
29776SOL    HW192730   8.931   0.996   6.806  2.7755 -3.0433  1.1521
29776SOL    HW292731   9.043   1.089   6.845  1.2826  0.1313 -1.5559
29777SOL     OW92732   4.679   5.789   2.203 -0.0989  0.2547 -0.0338
29777SOL    HW192733   4.601   5.745   2.238 -0.1302 -0.5711 -1.0831
29777SOL    HW292734   4.645   5.855   2.142 -0.0084  0.7826  0.4795
29778SOL     OW92735   3.404   3.444   9.622 -0.4580  0.5922  0.1758
29778SOL    HW192736   3.454   3.363   9.631 -1.9098 -0.3603 -0.1204
29778SOL    HW292737   3.432   3.479   9.537  0.2140  0.4433  0.3276
29779SOL     OW92738   6.671   0.825   6.494 -0.5539  0.0516 -0.0971
29779SOL    HW192739   6.749   0.786   6.532 -1.7956 -2.4968  0.0660
29779SOL    HW292740   6.636   0.882   6.563  0.8291  0.8099  0.0058
29780SOL     OW92741   3.172   4.040   5.495 -0.1424 -0.1504  0.1839
29780SOL    HW192742   3.154   4.134   5.500  0.2563 -0.0044 -0.8476
29780SOL    HW292743   3.201   4.016   5.583  0.5307  0.8727  0.2608
29781SOL     OW92744  10.204   6.855   2.601 -0.1312 -0.0998 -0.4725
29781SOL    HW192745  10.244   6.905   2.530 -0.7708  1.6533  0.3555
29781SOL    HW292746  10.275   6.799   2.633  0.1135 -1.1277 -2.5998
29782SOL     OW92747   8.637   9.139   9.249  0.2279 -0.3577  0.3489
29782SOL    HW192748   8.588   9.103   9.175 -0.5855 -0.1701  0.7878
29782SOL    HW292749   8.636   9.071   9.316 -0.4157  0.0757  0.7861
29783SOL     OW92750   0.254   1.040   5.616 -0.1974  0.3763 -0.1535
29783SOL    HW192751   0.180   1.013   5.670 -0.3600  0.9760 -0.0771
29783SOL    HW292752   0.216   1.094   5.547  0.2805  1.5323  0.4642
29784SOL     OW92753  10.166   6.327   7.955  0.1224 -0.3429  0.4501
29784SOL    HW192754  10.238   6.350   8.013 -0.3809 -0.7773  1.2698
29784SOL    HW292755  10.185   6.373   7.874  2.5017 -2.1497 -0.1502
29785SOL     OW92756   1.469   7.586   1.172  0.2733  0.2079 -0.4726
29785SOL    HW192757   1.550   7.542   1.197 -0.0419 -0.8326 -1.2339
29785SOL    HW292758   1.479   7.605   1.079 -0.7796 -0.9287 -0.8456
29786SOL     OW92759   3.835   7.947   1.134 -0.0352 -0.2050  0.0409
29786SOL    HW192760   3.837   8.042   1.148 -1.2673 -0.4488  2.4533
29786SOL    HW292761   3.860   7.936   1.042  0.5278  2.4086 -0.2140
29787SOL     OW92762   5.321   0.825   0.194  0.1428  0.1083 -0.3976
29787SOL    HW192763   5.380   0.865   0.130  0.2750 -1.2859 -1.1962
29787SOL    HW292764   5.337   0.873   0.275  0.1205  1.7907 -1.3540
29788SOL     OW92765   8.049   4.256   1.719 -0.0113  0.3258 -0.1188
29788SOL    HW192766   8.008   4.334   1.682  0.1998 -0.5507 -2.2944
29788SOL    HW292767   8.141   4.263   1.694 -0.0398 -0.7336 -0.5742
29789SOL     OW92768   1.222   4.917  10.569  0.2113 -0.3417 -0.2926
29789SOL    HW192769   1.242   4.963  10.487  1.7875 -1.7774 -0.7577
29789SOL    HW292770   1.304   4.917  10.617 -0.3250 -0.7964  0.6463
29790SOL     OW92771   3.933  10.269   4.830 -0.1383 -0.7592 -0.0942
29790SOL    HW192772   3.867  10.261   4.899  1.6301  2.1644  2.1981
29790SOL    HW292773   3.902  10.342   4.776  1.2744  0.9886  1.3055
29791SOL     OW92774   2.002   7.024   3.017  0.1547 -0.0196 -0.0822
29791SOL    HW192775   1.908   7.040   3.007  0.1553  1.5197  1.7181
29791SOL    HW292776   2.008   6.930   3.033 -0.8238 -0.5367 -2.4129
29792SOL     OW92777   0.799   6.529   7.734 -0.6558 -0.0899 -0.0710
29792SOL    HW192778   0.809   6.439   7.767  1.8266  0.4602  0.8925
29792SOL    HW292779   0.884   6.549   7.694 -1.1758  1.8487 -0.3009
29793SOL     OW92780   5.917   1.848   9.464  0.2311 -0.1757 -0.0635
29793SOL    HW192781   5.986   1.892   9.512  0.2910  0.4503 -0.7108
29793SOL    HW292782   5.846   1.912   9.457 -0.4945 -0.8619  0.7383
29794SOL     OW92783   2.436  10.246   7.620 -0.4915 -0.1058  0.1652
29794SOL    HW192784   2.359  10.205   7.581  0.6586 -2.1492 -0.1326
29794SOL    HW292785   2.422  10.239   7.714 -0.7714 -0.2897  0.1101
29795SOL     OW92786   6.407   8.918   5.359  0.0858 -0.4410 -0.3560
29795SOL    HW192787   6.444   8.892   5.443  0.1441 -1.8454 -0.7860
29795SOL    HW292788   6.441   8.853   5.297  2.2446  2.0045 -2.0105
29796SOL     OW92789   6.128   7.663   5.664 -0.1520  0.0371  0.7243
29796SOL    HW192790   6.105   7.753   5.686  0.6161  0.9206 -1.6648
29796SOL    HW292791   6.061   7.635   5.602  1.8463  0.6248 -1.9068
29797SOL     OW92792   3.279  10.295   0.446 -0.0991  0.7356 -0.1898
29797SOL    HW192793   3.308  10.367   0.390 -0.5767  0.4053 -0.8902
29797SOL    HW292794   3.238  10.338   0.521  0.9241  1.1905  0.1276
29798SOL     OW92795   9.536   2.344   9.964 -0.1394  0.2809  0.3686
29798SOL    HW192796   9.493   2.362  10.048  0.9558  1.9896  0.6220
29798SOL    HW292797   9.590   2.266   9.980 -1.2090 -0.3929  0.7490
29799SOL     OW92798   7.417   6.881   5.642 -0.6220  0.2399  0.4654
29799SOL    HW192799   7.432   6.915   5.554 -2.2539 -0.2321 -0.0403
29799SOL    HW292800   7.385   6.955   5.692 -0.3312  0.3567  0.4795
29800SOL     OW92801   5.987   7.985   5.836  0.1386  0.2247 -0.0245
29800SOL    HW192802   5.990   7.947   5.924 -2.0394 -0.3928 -0.1741
29800SOL    HW292803   5.926   8.058   5.844  0.6343  0.7458 -0.8461
29801SOL     OW92804   6.442   2.524  10.519  0.3515  0.8118 -0.6302
29801SOL    HW192805   6.472   2.615  10.521 -0.7614  1.1935 -0.1141
29801SOL    HW292806   6.368   2.522  10.580 -1.4727  0.2372 -2.7568
29802SOL     OW92807   3.808   4.608   7.218  0.5506  0.2113  0.4586
29802SOL    HW192808   3.741   4.626   7.152  1.8867  0.2481 -0.9416
29802SOL    HW292809   3.824   4.693   7.260 -1.5332 -0.1229  2.1289
29803SOL     OW92810   9.607   5.895   0.495  0.6572  0.1522 -0.0482
29803SOL    HW192811   9.682   5.954   0.505  2.4102 -1.6206 -1.7979
29803SOL    HW292812   9.645   5.807   0.501 -1.2328 -0.8087 -1.3350
29804SOL     OW92813   3.378  10.199   4.395  0.1603 -0.0808  0.1375
29804SOL    HW192814   3.356  10.136   4.464 -0.7933 -0.2961 -0.3581
29804SOL    HW292815   3.402  10.278   4.443 -0.6723 -0.1727  0.7256
29805SOL     OW92816   6.082   4.034   9.741  0.2887 -0.2839 -0.0130
29805SOL    HW192817   6.056   4.043   9.650  1.3863 -3.0655 -0.6975
29805SOL    HW292818   6.174   4.009   9.738 -0.0138 -1.8968  1.7099
29806SOL     OW92819   6.716   6.899   2.514 -0.5717  0.0025  0.0664
29806SOL    HW192820   6.811   6.915   2.510 -0.6001 -0.0888 -1.8912
29806SOL    HW292821   6.678   6.985   2.532 -0.1145 -0.0315  1.2720
29807SOL     OW92822  10.434   9.617   9.568  0.4269  0.2768  0.0110
29807SOL    HW192823  10.482   9.555   9.513 -0.1684  1.1289 -1.5111
29807SOL    HW292824  10.491   9.694   9.574 -0.7930  1.4110 -2.0539
29808SOL     OW92825   6.320   3.565   8.516  0.2216 -0.0060  0.4838
29808SOL    HW192826   6.346   3.617   8.439  2.1580 -0.3352  0.8475
29808SOL    HW292827   6.276   3.627   8.573  0.7220  0.7668  0.0478
29809SOL     OW92828   3.205   0.961   6.442  0.1628 -0.3356  0.1147
29809SOL    HW192829   3.162   1.005   6.368  1.5660 -0.0561 -0.5743
29809SOL    HW292830   3.251   1.031   6.488  2.3988 -0.9723 -0.9771
29810SOL     OW92831   9.609   8.772   6.929  0.0419 -0.1323 -0.2392
29810SOL    HW192832   9.560   8.721   6.865  2.0819 -1.8948 -0.5252
29810SOL    HW292833   9.661   8.707   6.976 -0.2585  1.2725  2.2277
29811SOL     OW92834   7.728   6.675   9.798 -0.0121 -0.0156 -0.4723
29811SOL    HW192835   7.664   6.605   9.785  0.2244 -0.2809 -0.2372
29811SOL    HW292836   7.772   6.683   9.713  0.3707 -0.5740 -0.3399
29812SOL     OW92837   7.667   3.275   1.378 -0.2691  0.1609 -0.0339
29812SOL    HW192838   7.740   3.290   1.439  0.2292  1.3409 -0.8772
29812SOL    HW292839   7.701   3.214   1.314  0.7044  2.1675 -1.5352
29813SOL     OW92840   1.988   4.864   6.371 -0.0935 -0.9234 -0.3385
29813SOL    HW192841   1.964   4.940   6.319 -2.2097 -1.4371 -0.2129
29813SOL    HW292842   2.020   4.800   6.308 -0.3625 -0.6882 -0.7139
29814SOL     OW92843   0.275   7.459   7.248 -0.8496  0.3935 -0.5359
29814SOL    HW192844   0.252   7.405   7.172 -2.1877  0.9418 -0.5433
29814SOL    HW292845   0.324   7.532   7.212 -0.1035 -0.1511 -0.6670
29815SOL     OW92846  10.517   7.781   2.107 -0.6370 -0.8455 -0.2284
29815SOL    HW192847  10.422   7.775   2.096 -0.5972  1.1403 -2.4896
29815SOL    HW292848  10.534   7.875   2.115  1.2717 -0.9626 -2.0284
29816SOL     OW92849   6.902   7.797   0.405 -0.3403 -0.5099 -0.0756
29816SOL    HW192850   6.944   7.735   0.345  0.1155  0.3492 -0.6581
29816SOL    HW292851   6.879   7.743   0.481  0.7050 -1.2643 -0.2596
29817SOL     OW92852   2.515   6.658   8.359 -0.2923 -0.1948  0.5172
29817SOL    HW192853   2.493   6.658   8.266  2.5778 -0.7222 -0.2453
29817SOL    HW292854   2.575   6.732   8.369  0.1826 -0.7189  1.7326
29818SOL     OW92855   4.840   8.519   9.057 -0.6396 -0.3601  0.2183
29818SOL    HW192856   4.765   8.495   9.112 -0.3639 -0.0672  0.7236
29818SOL    HW292857   4.909   8.541   9.119 -0.9322  1.9500 -0.2065
29819SOL     OW92858   6.218   3.754   0.399 -0.2439 -0.4942  0.4979
29819SOL    HW192859   6.170   3.778   0.478 -0.9165 -0.2098  0.0119
29819SOL    HW292860   6.227   3.836   0.350  0.6872 -0.5572  0.5520
29820SOL     OW92861  10.540   0.469   5.282  0.2166  0.3137  0.5142
29820SOL    HW192862  10.472   0.537   5.286  1.2727  1.3516  1.4460
29820SOL    HW292863  10.617   0.510   5.320  1.4119 -0.8126 -0.5833
29821SOL     OW92864   6.603   7.572   0.972  0.7697 -0.0043 -0.3167
29821SOL    HW192865   6.564   7.515   1.039  1.0677 -1.7453 -1.5692
29821SOL    HW292866   6.538   7.642   0.960 -1.6600 -2.2724 -1.6275
29822SOL     OW92867   6.852   4.868   3.509 -0.3386 -0.7233 -0.1743
29822SOL    HW192868   6.821   4.881   3.598  1.6895  0.3187  0.4284
29822SOL    HW292869   6.872   4.774   3.504 -1.1131 -0.9182  0.2174
29823SOL     OW92870   7.857   5.584   7.549 -0.0402  0.3459  0.2359
29823SOL    HW192871   7.840   5.652   7.484 -0.0289 -0.7655 -0.9567
29823SOL    HW292872   7.944   5.603   7.583 -0.0115  0.8867 -0.1403
29824SOL     OW92873   6.631   6.083   0.540  0.0272  0.0553  0.1891
29824SOL    HW192874   6.625   6.125   0.454 -0.1606  0.3653  0.3508
29824SOL    HW292875   6.547   6.103   0.582  0.7104  1.2338  1.0393
29825SOL     OW92876   5.748   6.385   4.327  0.2747  0.1420 -0.0499
29825SOL    HW192877   5.748   6.289   4.325 -0.2172  0.1292 -2.1731
29825SOL    HW292878   5.671   6.409   4.378  0.5605 -0.5778  0.7338
29826SOL     OW92879   5.378   3.794   5.798 -0.3642  0.0538 -0.0672
29826SOL    HW192880   5.364   3.767   5.888  0.8508  0.7906  0.3775
29826SOL    HW292881   5.291   3.814   5.764 -0.8990 -0.9321  0.7066
29827SOL     OW92882   1.045   2.220   7.482 -0.1587 -0.7831 -0.0284
29827SOL    HW192883   1.024   2.215   7.389 -0.8187  1.9296 -0.1202
29827SOL    HW292884   1.112   2.289   7.487  1.1974 -2.1150  1.3641
29828SOL     OW92885   6.419   0.307   4.916 -0.0144 -0.0100  0.7744
29828SOL    HW192886   6.449   0.372   4.853 -2.6687  1.8955  1.2685
29828SOL    HW292887   6.430   0.350   5.001 -0.1286 -0.9577  1.2815
29829SOL     OW92888   6.605   1.870   1.576  0.3789 -0.4151 -0.4804
29829SOL    HW192889   6.654   1.946   1.543  1.1884 -0.9186 -0.4674
29829SOL    HW292890   6.570   1.828   1.498  2.7594 -1.9260 -0.8529
29830SOL     OW92891   2.728   2.753   1.347  0.2666  0.0193  0.2181
29830SOL    HW192892   2.687   2.838   1.363  1.7597  1.1902 -1.7402
29830SOL    HW292893   2.671   2.690   1.391 -1.5488  1.9021  0.7069
29831SOL     OW92894  10.018   1.712   7.514  0.2248  0.6598 -0.2087
29831SOL    HW192895   9.968   1.689   7.436 -0.4976 -0.8245  0.6426
29831SOL    HW292896  10.035   1.805   7.505 -0.0736  0.5798 -1.9932
29832SOL     OW92897   7.391   1.756   7.742 -0.4310 -0.7076 -0.2367
29832SOL    HW192898   7.449   1.724   7.812 -1.4903 -1.4302  0.3298
29832SOL    HW292899   7.347   1.678   7.710  0.3156 -0.4380 -2.0061
29833SOL     OW92900   2.191   4.533   8.778  0.6379  0.9544 -0.4678
29833SOL    HW192901   2.114   4.489   8.813  1.6619 -1.2788 -0.8091
29833SOL    HW292902   2.261   4.513   8.841  1.0182  2.8030 -0.2388
29834SOL     OW92903   7.425   5.000   8.833 -0.1460  0.4953 -0.8565
29834SOL    HW192904   7.383   4.953   8.905  1.2858  2.5497  1.5021
29834SOL    HW292905   7.397   5.091   8.845  0.6664  1.0015 -2.5320
29835SOL     OW92906  10.492   7.517   3.769 -0.4213 -0.4847  0.0783
29835SOL    HW192907  10.461   7.449   3.829 -0.2279 -0.0101  0.7231
29835SOL    HW292908  10.498   7.473   3.684  0.3213 -1.4434  0.6096
29836SOL     OW92909   1.931   0.850   4.830 -0.0665 -0.8217 -0.0884
29836SOL    HW192910   2.014   0.814   4.799  1.1662  0.6033  1.3937
29836SOL    HW292911   1.944   0.945   4.827 -1.9359 -0.5429 -0.5401
29837SOL     OW92912  10.723   3.092   1.789  0.6582 -0.4309  0.1920
29837SOL    HW192913  10.741   3.017   1.732  1.5241  0.7674 -1.1672
29837SOL    HW292914  10.653   3.139   1.745  0.3146 -0.2575  0.8972
29838SOL     OW92915  10.067   7.804   3.866  0.4420  0.3072 -0.3490
29838SOL    HW192916  10.095   7.760   3.785 -0.0804 -0.0297 -0.3469
29838SOL    HW292917  10.093   7.895   3.853 -1.1657  0.6298 -1.6327
29839SOL     OW92918   4.900   2.752   9.390  0.0486  0.3314  0.1302
29839SOL    HW192919   4.912   2.726   9.481  1.9997  0.8516  0.0581
29839SOL    HW292920   4.853   2.679   9.350 -0.6992  0.0323  1.4922
29840SOL     OW92921   0.217   8.418   3.570 -0.0922 -0.5238 -0.3332
29840SOL    HW192922   0.208   8.346   3.632  0.7205 -2.1007 -1.9385
29840SOL    HW292923   0.129   8.433   3.537 -0.5166  0.2803  1.1040
29841SOL     OW92924   5.156   3.113   1.653 -0.4695  0.4353  0.2492
29841SOL    HW192925   5.083   3.101   1.593  0.3650 -1.4113 -0.4828
29841SOL    HW292926   5.184   3.024   1.675  0.7343  1.0904  1.5186
29842SOL     OW92927   6.882  10.849   9.897  0.2749 -0.3255 -0.2344
29842SOL    HW192928   6.847  10.916   9.955  3.8691  0.5126  1.1927
29842SOL    HW292929   6.843  10.869   9.811  0.2976  2.8508  0.3844
29843SOL     OW92930  10.172   7.975   4.495 -0.2830 -0.4219 -0.2966
29843SOL    HW192931  10.149   7.897   4.443 -1.2090  0.3551 -1.0817
29843SOL    HW292932  10.254   8.006   4.456  0.0958 -0.9889  0.0234
29844SOL     OW92933   7.711   2.715   1.998  0.1969  0.3734  0.1523
29844SOL    HW192934   7.617   2.736   2.000 -0.2163 -1.0497 -1.2969
29844SOL    HW292935   7.726   2.665   2.078 -0.6941 -0.7993 -0.3778
29845SOL     OW92936   0.825   5.788   1.897 -0.4314 -0.4768  0.2339
29845SOL    HW192937   0.740   5.822   1.926  0.9700  2.6610  1.0539
29845SOL    HW292938   0.869   5.863   1.857  2.6729 -1.4182  1.5427
29846SOL     OW92939   5.913   7.689   1.343  0.1569  0.5292  0.5392
29846SOL    HW192940   5.882   7.719   1.257 -0.2564 -1.0509  0.0977
29846SOL    HW292941   5.836   7.696   1.399  0.1652  0.6430  0.5376
29847SOL     OW92942   9.660   6.747   4.423  0.3396  0.3143 -0.0413
29847SOL    HW192943   9.619   6.834   4.428 -0.5068 -0.1399  1.2733
29847SOL    HW292944   9.695   6.732   4.511 -1.2502 -1.4843  0.3426
29848SOL     OW92945   7.705   1.561   5.396 -0.1512  0.2148  0.4654
29848SOL    HW192946   7.715   1.503   5.471 -1.7965 -1.6326 -0.6517
29848SOL    HW292947   7.731   1.647   5.428  0.0889 -0.6855  2.8593
29849SOL     OW92948  10.776   9.834   3.452 -0.2888 -0.2380 -0.4252
29849SOL    HW192949  10.817   9.894   3.515 -2.1329  2.3179 -1.4808
29849SOL    HW292950  10.836   9.832   3.378 -0.1875  0.2928 -0.3609
29850SOL     OW92951   3.902   4.616   2.889 -0.9817 -0.1262  0.6154
29850SOL    HW192952   3.813   4.650   2.889 -1.9180 -2.3660  0.1766
29850SOL    HW292953   3.952   4.679   2.838 -3.1494 -0.5742 -2.3680
29851SOL     OW92954   0.321   2.894   6.394 -0.0214  0.5518 -0.0655
29851SOL    HW192955   0.397   2.944   6.363  0.7734  0.0386  0.9884
29851SOL    HW292956   0.263   2.961   6.431  0.0656  0.9123 -0.5679
29852SOL     OW92957   6.728   3.625   1.242 -0.3372 -0.1095 -0.1559
29852SOL    HW192958   6.688   3.664   1.164  1.4271  0.4422 -0.8304
29852SOL    HW292959   6.777   3.696   1.283 -1.0077 -0.4588  1.3368
29853SOL     OW92960   0.840   8.537   2.725  0.2313 -0.1517  0.2281
29853SOL    HW192961   0.749   8.559   2.745  0.2804 -0.5025  0.8448
29853SOL    HW292962   0.888   8.619   2.737  0.5066 -0.6275  3.0656
29854SOL     OW92963  10.739   8.746   7.944  0.1488  0.0143 -0.0021
29854SOL    HW192964  10.806   8.782   8.002  0.8920 -0.9306 -0.2501
29854SOL    HW292965  10.772   8.660   7.919 -2.6830 -2.0861  2.6090
29855SOL     OW92966   9.590   3.751   0.212  0.2646  0.2680 -0.2570
29855SOL    HW192967   9.676   3.752   0.172 -0.5674  0.2953 -2.1616
29855SOL    HW292968   9.588   3.828   0.269  2.4849 -1.3426  2.2193
29856SOL     OW92969   1.883   8.436   6.601 -0.3845  0.2193  0.0822
29856SOL    HW192970   1.875   8.504   6.535  1.4181  0.0392 -0.3963
29856SOL    HW292971   1.904   8.483   6.682  0.2900  0.2963 -0.1261
29857SOL     OW92972   9.699   4.612  10.777 -0.2099  0.2468  0.4824
29857SOL    HW192973   9.706   4.519  10.797 -1.4377  0.2964  1.2527
29857SOL    HW292974   9.754   4.655  10.842  0.0756  0.0844  0.3486
29858SOL     OW92975   0.142   1.675   6.591  0.1978 -0.0868 -0.1040
29858SOL    HW192976   0.166   1.612   6.523  0.6758 -0.1369  0.1038
29858SOL    HW292977   0.149   1.626   6.673  1.1354  0.3661  0.1122
29859SOL     OW92978   5.123   8.581   0.003  0.8766  0.7330  0.6698
29859SOL    HW192979   5.133   8.528  -0.077  0.1948 -0.7341  1.5111
29859SOL    HW292980   5.067   8.653  -0.023  1.0915  0.5683 -0.3051
29860SOL     OW92981   8.665   3.503   9.494 -0.4500 -0.3799 -0.6304
29860SOL    HW192982   8.719   3.425   9.481 -0.4516 -0.7018  0.9887
29860SOL    HW292983   8.576   3.475   9.473 -0.2875 -0.4827 -1.1772
29861SOL     OW92984   6.619   9.150   1.309  0.6941  0.4742  0.0414
29861SOL    HW192985   6.702   9.195   1.326 -0.0584  2.2396 -0.6222
29861SOL    HW292986   6.588   9.188   1.226 -0.1514 -1.1177 -0.4147
29862SOL     OW92987   2.002   4.168   9.716  0.0314 -0.0609 -0.2595
29862SOL    HW192988   2.073   4.184   9.778  1.5501  1.5729 -2.2960
29862SOL    HW292989   1.924   4.198   9.762  1.1145  1.2965  0.8149
29863SOL     OW92990   9.806   3.536   0.328 -0.2749  0.0236  0.1557
29863SOL    HW192991   9.869   3.599   0.365  0.4581 -0.3753 -0.3712
29863SOL    HW292992   9.820   3.542   0.233  1.9050 -2.9685  0.1434
29864SOL     OW92993   5.614   1.399   8.006  0.2413 -0.0434  0.2686
29864SOL    HW192994   5.649   1.434   8.088 -0.2015 -0.1305  0.5026
29864SOL    HW292995   5.656   1.314   7.995  0.5556  0.1184  0.2301
29865SOL     OW92996   4.308   8.475   1.152  0.1639  0.5211 -0.0693
29865SOL    HW192997   4.213   8.472   1.143  0.0711  1.1084  0.6745
29865SOL    HW292998   4.329   8.396   1.202  0.1062  0.2523 -0.4593
29866SOL     OW92999   4.643   4.116   8.270 -0.8999 -0.2542 -0.3921
29866SOL    HW193000   4.572   4.074   8.223 -0.6609 -0.0713 -0.9194
29866SOL    HW293001   4.707   4.046   8.285 -0.4284 -0.0538 -1.4131
29867SOL     OW93002   7.245   9.926   7.640  0.6132  0.0439 -0.2099
29867SOL    HW193003   7.264  10.019   7.651  0.7648 -0.0176  0.0716
29867SOL    HW293004   7.323   9.890   7.597  0.5555  0.0460 -0.3165
29868SOL     OW93005   8.685   1.396   9.252  0.3659 -0.2509  0.4635
29868SOL    HW193006   8.629   1.446   9.193  1.1439  1.1685  0.8738
29868SOL    HW293007   8.661   1.305   9.236 -0.9399  0.2235 -0.4837
29869SOL     OW93008   6.016  10.715   6.159  0.3598 -0.4534 -0.0680
29869SOL    HW193009   6.050  10.791   6.111  0.6421  1.3383  2.7153
29869SOL    HW293010   5.946  10.751   6.214  2.8642 -1.2075  4.1264
29870SOL     OW93011  10.332   0.081   5.405 -0.4217  0.4193  0.0915
29870SOL    HW193012  10.259   0.099   5.464 -0.6185  0.9525 -0.2993
29870SOL    HW293013  10.321   0.144   5.334 -0.9214 -1.0492 -1.1680
29871SOL     OW93014   9.609   6.568  10.500 -0.8263  0.1621  0.3239
29871SOL    HW193015   9.584   6.572  10.593  0.4713 -1.0699  0.7641
29871SOL    HW293016   9.555   6.498  10.463 -1.1663  0.4841  0.2147
29872SOL     OW93017  10.850   0.227   3.435  0.4114  0.0280 -0.1055
29872SOL    HW193018  10.896   0.311   3.446  0.1758  0.3392 -1.3705
29872SOL    HW293019  10.856   0.185   3.521 -0.7424  1.9787  0.9887
29873SOL     OW93020   6.656  10.866   7.553  0.1860 -0.0907  0.5329
29873SOL    HW193021   6.623  10.777   7.564 -0.3229 -0.1276 -1.0514
29873SOL    HW293022   6.590  10.921   7.595 -0.5231 -0.3499 -0.2174
29874SOL     OW93023   4.123   8.866  10.309  0.2309 -0.0656 -0.2766
29874SOL    HW193024   4.084   8.951  10.327 -0.1964 -0.7659  2.6700
29874SOL    HW293025   4.197   8.860  10.370  1.6542 -0.9437 -1.9919
29875SOL     OW93026   8.906   6.692   9.420 -0.5090 -0.3554  0.5991
29875SOL    HW193027   8.884   6.769   9.473 -0.1625 -0.0079  0.2463
29875SOL    HW293028   9.001   6.685   9.427 -0.2090  0.8465 -1.5047
29876SOL     OW93029   3.661   8.708   5.098 -0.0669 -0.0814 -0.4510
29876SOL    HW193030   3.704   8.718   5.013  0.4687 -0.0747 -0.1789
29876SOL    HW293031   3.687   8.785   5.147 -1.9689  0.9389 -0.9494
29877SOL     OW93032   2.484   5.845   8.643  0.0761  0.1083  0.1421
29877SOL    HW193033   2.474   5.892   8.725 -0.1378  0.4262 -0.0621
29877SOL    HW293034   2.551   5.894   8.595  0.0178  0.0752  0.0240
29878SOL     OW93035   7.010   3.070   8.923 -0.4343  0.2991  0.4512
29878SOL    HW193036   6.916   3.049   8.922 -0.8172  1.9214  0.4054
29878SOL    HW293037   7.035   3.063   9.015 -0.6289 -0.0140  0.4822
29879SOL     OW93038   1.613  10.507   3.109  0.5779  0.3263  0.1342
29879SOL    HW193039   1.536  10.450   3.099 -1.0320  2.2161  0.9248
29879SOL    HW293040   1.644  10.522   3.019 -0.5921  0.2784 -0.2985
29880SOL     OW93041   3.848   9.791   1.683 -0.0694  0.0808 -0.2948
29880SOL    HW193042   3.851   9.720   1.748  0.7251  0.6986  0.3617
29880SOL    HW293043   3.771   9.771   1.630 -0.9607 -0.2376  1.0664
29881SOL     OW93044   2.502   0.292   5.121 -0.1694 -0.2341  0.0412
29881SOL    HW193045   2.570   0.351   5.153  0.7186 -0.9566 -0.4718
29881SOL    HW293046   2.441   0.283   5.194  0.6167 -0.0700  0.7265
29882SOL     OW93047  10.593   7.255  10.319 -0.4585  0.0171  0.1108
29882SOL    HW193048  10.643   7.263  10.237  4.3467 -5.0262  1.9289
29882SOL    HW293049  10.637   7.314  10.380 -0.7279  0.0584  0.2656
29883SOL     OW93050   1.212   9.207   7.680 -0.0728  0.7496  0.6163
29883SOL    HW193051   1.133   9.217   7.626  0.4881 -0.7983 -0.5841
29883SOL    HW293052   1.199   9.125   7.726  0.4553  0.9370  1.1058
29884SOL     OW93053   2.398   7.422  10.387  0.4630  0.2518  0.4442
29884SOL    HW193054   2.394   7.332  10.353  0.4883  0.3922  0.0720
29884SOL    HW293055   2.436   7.412  10.474  0.8922 -0.0563  0.2301
29885SOL     OW93056   3.335   9.974   7.828 -0.6462  0.3437 -0.5650
29885SOL    HW193057   3.414   9.928   7.858 -0.2376  0.1439 -1.8716
29885SOL    HW293058   3.294  10.006   7.908  0.0683 -0.6766  0.2418
29886SOL     OW93059   0.883   1.048   6.976  0.2360  0.1813  0.0235
29886SOL    HW193060   0.966   1.090   6.952  0.9329  0.2678  2.2859
29886SOL    HW293061   0.908   0.960   7.005 -1.1881 -2.0466 -4.5461
29887SOL     OW93062   3.947  10.196   1.635 -0.6967  0.1541 -0.1438
29887SOL    HW193063   3.999  10.118   1.616 -1.6105 -0.3416 -0.6845
29887SOL    HW293064   3.916  10.226   1.550 -1.8045  0.0591  0.2060
29888SOL     OW93065   1.199   5.278  10.317  0.3372  0.5949 -0.1994
29888SOL    HW193066   1.196   5.369  10.289  1.2309  0.3842 -1.0417
29888SOL    HW293067   1.274   5.273  10.376 -0.6995  0.7334  1.1906
29889SOL     OW93068   4.650   8.482   9.673  0.1946  0.1312 -0.2670
29889SOL    HW193069   4.578   8.418   9.672 -1.2371  1.6397  0.6799
29889SOL    HW293070   4.707   8.455   9.601 -0.9153 -1.5834 -0.5540
29890SOL     OW93071   6.799   2.232   4.860 -0.0857 -0.2756 -0.1991
29890SOL    HW193072   6.892   2.256   4.861  0.3689 -1.9394 -0.4164
29890SOL    HW293073   6.756   2.304   4.907  1.3272  0.3970  0.1409
29891SOL     OW93074   3.489   6.027   7.190  0.4765  0.4332 -0.1590
29891SOL    HW193075   3.541   5.962   7.237 -0.5420  0.0296  0.4461
29891SOL    HW293076   3.535   6.039   7.107 -0.3333 -2.5508 -1.1548
29892SOL     OW93077  10.568   1.934  10.850 -0.4434 -0.2694 -0.5781
29892SOL    HW193078  10.608   2.020  10.866  1.9923 -1.5640  0.8420
29892SOL    HW293079  10.552   1.932  10.756 -1.0602  1.9037 -0.5720
29893SOL     OW93080   0.254   1.193   4.053  0.1523  0.2914  0.0293
29893SOL    HW193081   0.323   1.132   4.029  1.3247  0.6669  2.1442
29893SOL    HW293082   0.173   1.151   4.025  1.1715 -0.4274 -1.9951
29894SOL     OW93083   9.217  10.296   0.264 -0.1641 -0.1350 -1.0628
29894SOL    HW193084   9.153  10.339   0.208 -0.4643  0.5997 -0.1888
29894SOL    HW293085   9.171  10.282   0.347  0.9156  0.8299 -0.2674
29895SOL     OW93086   7.286   2.374  10.775  0.4971  0.0487  0.1616
29895SOL    HW193087   7.376   2.356  10.801  0.0530 -0.3570  1.4952
29895SOL    HW293088   7.273   2.320  10.697  1.6413  0.7321 -0.5388
29896SOL     OW93089   6.318   7.066   0.994 -0.2670 -0.4960 -0.1522
29896SOL    HW193090   6.399   7.063   1.045  0.2021 -0.6774 -0.8892
29896SOL    HW293091   6.251   7.093   1.056  0.1324 -1.5350  0.7564
29897SOL     OW93092   2.097   3.290  10.657 -0.1393 -0.6400  1.1269
29897SOL    HW193093   2.155   3.362  10.631 -2.5008  0.6343 -1.0889
29897SOL    HW293094   2.045   3.326  10.729  0.1299 -0.9112  1.4600
29898SOL     OW93095   5.792   0.402   9.537  0.1795  0.1969 -0.1240
29898SOL    HW193096   5.876   0.357   9.544 -0.2367 -0.9582 -1.8043
29898SOL    HW293097   5.757   0.401   9.626  1.3119 -0.5739  0.3424
29899SOL     OW93098   8.355   0.446  10.115  0.1361  0.2793 -0.4513
29899SOL    HW193099   8.450   0.450  10.123  0.0354 -0.4611  1.6994
29899SOL    HW293100   8.339   0.376  10.052  1.0326 -1.2246  0.9113
29900SOL     OW93101   5.005   1.110   5.726 -0.3000 -0.1905 -0.3173
29900SOL    HW193102   5.023   1.148   5.641 -1.5137  1.1825  0.0050
29900SOL    HW293103   5.027   1.178   5.789 -0.2483 -0.8715  0.4286
29901SOL     OW93104   6.892  10.726   2.075  0.2374  0.3418  0.6065
29901SOL    HW193105   6.906  10.815   2.109 -2.5298  1.3463 -0.5914
29901SOL    HW293106   6.834  10.738   2.000  1.7158 -2.3015 -1.1105
29902SOL     OW93107   0.778   3.983   7.029 -0.0729  0.0319 -0.0571
29902SOL    HW193108   0.721   3.924   7.078  0.3277 -0.3349 -0.0269
29902SOL    HW293109   0.863   3.975   7.072  0.1120  0.2363 -0.3853
29903SOL     OW93110   6.094   8.846  10.083 -0.4196 -0.1758 -0.0389
29903SOL    HW193111   6.067   8.920  10.139  1.7746  0.4059  0.3203
29903SOL    HW293112   6.093   8.771  10.141 -0.9768 -0.1242  0.0290
29904SOL     OW93113   5.884   3.091   7.484  0.4635 -0.1011 -0.4797
29904SOL    HW193114   5.871   3.133   7.569 -0.5163 -0.4028 -0.4569
29904SOL    HW293115   5.978   3.091   7.471  0.5596  0.9698  0.0895
29905SOL     OW93116   1.479   4.959   4.588  0.4493 -0.1599  0.3950
29905SOL    HW193117   1.560   4.998   4.621 -0.4812 -0.1232  2.8406
29905SOL    HW293118   1.466   4.999   4.502  1.4479  2.1784  1.2527
29906SOL     OW93119   1.699   3.485   8.186 -0.1558  0.4588 -0.3290
29906SOL    HW193120   1.729   3.564   8.142  0.3104  0.4581 -0.0092
29906SOL    HW293121   1.763   3.418   8.162 -0.5984  0.1509 -0.6761
29907SOL     OW93122   3.361   6.334   3.570  0.2435  0.5509 -0.1551
29907SOL    HW193123   3.454   6.336   3.592  0.8290 -0.6910 -2.2624
29907SOL    HW293124   3.320   6.285   3.642  1.5127 -0.4767 -0.1157
29908SOL     OW93125   5.654   2.987   5.465  0.3875 -0.2119  0.1029
29908SOL    HW193126   5.590   2.924   5.500 -0.0569 -0.3534 -0.9297
29908SOL    HW293127   5.603   3.067   5.450  0.9966  0.4838  1.6083
29909SOL     OW93128   8.463   3.362   1.171  0.1878  0.6279 -0.4387
29909SOL    HW193129   8.395   3.373   1.237  2.1142  0.3054  1.7393
29909SOL    HW293130   8.526   3.432   1.188  0.4586  0.9288 -2.3883
29910SOL     OW93131   7.380   7.672   0.844  0.6090  0.3535 -0.3579
29910SOL    HW193132   7.321   7.729   0.795  0.5021  0.3375 -0.2478
29910SOL    HW293133   7.459   7.724   0.856  0.5722  0.4200 -0.3997
29911SOL     OW93134   9.152   6.567   8.751 -0.1215  0.0273 -0.2918
29911SOL    HW193135   9.194   6.633   8.807 -0.7826 -0.2933  0.6054
29911SOL    HW293136   9.072   6.544   8.797  0.2431 -1.6440 -0.4327
29912SOL     OW93137  10.828   0.622   1.989  0.2452 -0.4545  0.0910
29912SOL    HW193138  10.801   0.638   2.079 -0.0904  1.0409 -0.2530
29912SOL    HW293139  10.805   0.530   1.973 -0.4437 -0.5046  1.2557
29913SOL     OW93140   9.264   7.749   0.258 -0.8313 -0.0348  0.8120
29913SOL    HW193141   9.254   7.834   0.216 -0.8421  0.1846  1.2567
29913SOL    HW293142   9.175   7.715   0.265 -0.6702 -1.1753 -1.5721
29914SOL     OW93143   1.582   2.092   0.486  0.1194 -0.8004 -0.1913
29914SOL    HW193144   1.514   2.071   0.549 -0.4995  0.2071 -0.5102
29914SOL    HW293145   1.639   2.154   0.532 -2.2956  2.8094 -1.6656
29915SOL     OW93146   5.479   7.077   4.990  0.4185  0.2960  0.5586
29915SOL    HW193147   5.523   7.127   4.921 -1.2038  0.3945 -0.4674
29915SOL    HW293148   5.441   7.143   5.047 -0.5447  0.2657 -0.0178
29916SOL     OW93149   0.581   6.520   5.903 -1.3303 -0.3267 -0.2557
29916SOL    HW193150   0.627   6.520   5.819  2.7018  2.5872  1.5913
29916SOL    HW293151   0.579   6.428   5.930  0.8831 -0.9206 -1.8701
29917SOL     OW93152   2.917   5.324   0.191  0.2886  0.4524 -0.5666
29917SOL    HW193153   2.941   5.233   0.172  2.9362  0.9167  0.0818
29917SOL    HW293154   2.841   5.317   0.249  0.5422 -1.3644 -0.3854
29918SOL     OW93155   7.245   9.911   0.945  0.1498  0.1562  0.2441
29918SOL    HW193156   7.222   9.864   0.864  1.4699  0.2361 -0.1963
29918SOL    HW293157   7.160   9.930   0.986 -0.5492  0.0479 -1.0828
29919SOL     OW93158   9.641  10.853   7.243  0.1579 -0.0538  0.1411
29919SOL    HW193159   9.598  10.924   7.195 -1.6728 -1.5601 -0.5316
29919SOL    HW293160   9.580  10.832   7.314  0.1515 -1.6959 -0.3265
29920SOL     OW93161   0.329  10.072   3.807  0.2144  0.4467 -0.1114
29920SOL    HW193162   0.389  10.003   3.782  3.5368  3.1550 -0.3540
29920SOL    HW293163   0.315  10.059   3.901  2.8113  0.7243  0.3961
29921SOL     OW93164   6.068   0.890   2.194 -0.9203 -0.8605  0.3079
29921SOL    HW193165   5.990   0.928   2.152  0.4959 -0.3516 -2.0965
29921SOL    HW293166   6.116   0.966   2.228 -0.5464 -0.9729  0.0384
29922SOL     OW93167   5.888   2.429   3.558  0.7410 -0.1329 -0.0038
29922SOL    HW193168   5.868   2.355   3.501 -0.3250  0.0484  0.1117
29922SOL    HW293169   5.886   2.505   3.500  2.7170 -0.2620 -0.2949
29923SOL     OW93170   0.701   2.540   9.008 -0.5288 -0.3203  0.2863
29923SOL    HW193171   0.750   2.522   9.088  0.4699  2.0265  0.2842
29923SOL    HW293172   0.617   2.495   9.021  0.3536 -1.6775  1.7349
29924SOL     OW93173   4.292   9.972   0.956  0.0431 -0.2167  0.1008
29924SOL    HW193174   4.233   9.972   0.880 -1.5521 -0.3918  1.2959
29924SOL    HW293175   4.235   9.959   1.031  1.3405  1.7453  1.5283
29925SOL     OW93176   8.006   0.781   9.265 -0.1853  0.7025 -0.3997
29925SOL    HW193177   8.051   0.793   9.181  1.4741  0.7312  0.4444
29925SOL    HW293178   8.042   0.849   9.322 -2.5809  1.8276 -0.1095
29926SOL     OW93179   2.938   6.426   0.445  0.3445 -0.0068 -0.2277
29926SOL    HW193180   2.996   6.352   0.430  1.2077  0.7633 -0.8205
29926SOL    HW293181   2.958   6.456   0.533 -0.3875 -0.7863  0.2199
29927SOL     OW93182   0.120   6.832   8.818  0.1859 -0.4573 -0.5976
29927SOL    HW193183   0.077   6.746   8.811 -0.1227 -0.3674  0.0867
29927SOL    HW293184   0.058   6.893   8.780  0.0531 -0.4377 -0.3557
29928SOL     OW93185  10.233   2.451   2.364  0.1798 -0.0877 -0.6044
29928SOL    HW193186  10.297   2.462   2.295 -0.1550  1.1964 -0.7387
29928SOL    HW293187  10.282   2.414   2.438  0.8210 -0.1475 -1.0567
29929SOL     OW93188   2.485   7.588   5.482  0.5619  0.2994  0.3244
29929SOL    HW193189   2.520   7.676   5.497 -2.4727  1.4460  1.3078
29929SOL    HW293190   2.396   7.602   5.452 -0.5957 -2.4463  2.1048
29930SOL     OW93191   8.546   2.378   6.886  0.2414 -0.1701 -0.4679
29930SOL    HW193192   8.595   2.305   6.925 -0.1185 -1.9776 -3.1020
29930SOL    HW293193   8.613   2.444   6.866  0.8689 -0.5538  0.3094
29931SOL     OW93194   1.362   7.533   7.750  0.3337 -0.3193  0.1400
29931SOL    HW193195   1.341   7.502   7.839 -1.6533 -0.1418 -0.2196
29931SOL    HW293196   1.296   7.493   7.695  0.0838  1.4590 -0.9199
29932SOL     OW93197   3.060   4.808  10.494  0.1600 -0.1971  0.2564
29932SOL    HW193198   3.065   4.903  10.478  0.5275 -0.0260  1.3049
29932SOL    HW293199   3.048   4.770  10.407 -0.6644  0.8550 -0.1186
29933SOL     OW93200   7.624   3.856   6.391 -0.0451 -0.4180 -0.1884
29933SOL    HW193201   7.716   3.842   6.369 -0.1020 -0.3398 -0.4770
29933SOL    HW293202   7.624   3.877   6.485  0.2968  0.2702 -0.3389
29934SOL     OW93203   5.702   0.092   3.486  0.0701  0.0250  0.0693
29934SOL    HW193204   5.613   0.060   3.502 -0.8700  1.5118 -1.7435
29934SOL    HW293205   5.699   0.184   3.513  1.0930  0.0724  0.0527
29935SOL     OW93206   7.064   5.860   7.820 -0.1625 -0.9217 -0.1544
29935SOL    HW193207   7.079   5.924   7.890 -2.3759 -0.2051 -0.2600
29935SOL    HW293208   7.106   5.897   7.743 -1.7073  0.6465 -0.2962
29936SOL     OW93209   5.211   8.594   1.302  0.4911 -0.2003 -0.0139
29936SOL    HW193210   5.188   8.549   1.384 -1.2556  0.4867 -0.1097
29936SOL    HW293211   5.140   8.656   1.287  0.2876 -0.9536 -2.5441
29937SOL     OW93212   9.174   5.238   0.037 -0.0271 -0.5388  0.4154
29937SOL    HW193213   9.201   5.304   0.101  0.7053 -1.4022  1.0107
29937SOL    HW293214   9.256   5.204   0.002 -0.4106 -0.8297 -0.2109
29938SOL     OW93215   0.691   0.400   1.210  0.1769  0.5896 -0.3185
29938SOL    HW193216   0.610   0.417   1.161 -0.3668 -1.1794 -0.1229
29938SOL    HW293217   0.747   0.353   1.148 -0.5353 -1.7072  0.6835
29939SOL     OW93218  10.629   3.381   0.575 -0.1020  0.0853  0.0009
29939SOL    HW193219  10.632   3.476   0.560  0.8256  0.2069  0.8316
29939SOL    HW293220  10.680   3.369   0.655 -0.9741 -1.0155  0.4077
29940SOL     OW93221   9.936   9.612  10.686 -0.0587 -0.2513 -0.0395
29940SOL    HW193222   9.992   9.628  10.610 -0.5494 -0.2930 -0.4140
29940SOL    HW293223   9.997   9.589  10.756  0.4498  0.4038 -0.2519
29941SOL     OW93224   2.794   1.764   4.873 -0.0551  0.5674 -0.2360
29941SOL    HW193225   2.863   1.729   4.816 -1.1967  0.2664 -1.4936
29941SOL    HW293226   2.720   1.779   4.814 -1.0500  0.9382  1.0651
29942SOL     OW93227  10.098   5.311   7.155  0.6061 -0.0625 -0.2063
29942SOL    HW193228  10.107   5.390   7.209  1.8098 -0.9511  0.9383
29942SOL    HW293229  10.172   5.256   7.180  0.7758 -0.8379 -2.2517
29943SOL     OW93230   3.886   5.596   2.122  0.2344  0.2708  0.5169
29943SOL    HW193231   3.960   5.568   2.068 -0.2608 -0.1204  0.0372
29943SOL    HW293232   3.915   5.578   2.212  0.9834  0.7509  0.3778
29944SOL     OW93233   0.082   3.267   1.674 -0.3253  0.3011  0.1733
29944SOL    HW193234   0.150   3.226   1.621  1.4780  1.6929  1.2940
29944SOL    HW293235   0.063   3.202   1.742  1.0129  0.4672  0.7345
29945SOL     OW93236   3.046   8.937   5.709 -0.0357  0.2260  0.1077
29945SOL    HW193237   3.079   8.872   5.772  1.2295  0.3658 -0.3858
29945SOL    HW293238   3.029   9.015   5.763 -1.1369 -0.3635  0.6319
29946SOL     OW93239   1.041  10.247   4.694 -0.5447  0.0194  0.5268
29946SOL    HW193240   0.966  10.274   4.747 -0.3935  2.7071 -0.4723
29946SOL    HW293241   1.012  10.260   4.604  0.8835  0.4815  0.1013
29947SOL     OW93242   1.270   3.633   1.847 -0.1935  0.3283 -0.2697
29947SOL    HW193243   1.239   3.702   1.789  1.1298  1.3798  0.2041
29947SOL    HW293244   1.308   3.680   1.922  0.1556 -0.9344  0.3835
29948SOL     OW93245  10.142   6.277   1.562 -0.1406  0.1368  0.1517
29948SOL    HW193246  10.057   6.234   1.553 -1.0384  2.1297 -2.0560
29948SOL    HW293247  10.206   6.207   1.551 -1.4433 -1.3566  1.5702
29949SOL     OW93248   8.787   7.722   0.278 -0.2770  0.3760 -0.0689
29949SOL    HW193249   8.857   7.678   0.326 -0.1220 -2.3107 -2.5259
29949SOL    HW293250   8.831   7.797   0.237  0.7063 -0.1189  0.0368
29950SOL     OW93251   7.635  10.055   6.345  0.0584  0.0326 -0.7214
29950SOL    HW193252   7.661   9.965   6.361 -2.9864 -0.8882 -0.2851
29950SOL    HW293253   7.636  10.097   6.431 -1.0333 -0.3878 -0.4819
29951SOL     OW93254   7.461   8.998   2.026 -0.5155  0.5876 -0.5279
29951SOL    HW193255   7.410   9.013   2.105  0.0309  1.0207 -0.2418
29951SOL    HW293256   7.402   9.020   1.954 -1.4607 -1.1311 -0.3127
29952SOL     OW93257   6.248   5.613   0.418  0.1047  0.1242 -0.0130
29952SOL    HW193258   6.157   5.640   0.421  0.2917  0.8055 -0.2940
29952SOL    HW293259   6.296   5.686   0.458  0.6029  0.1591 -0.6574
29953SOL     OW93260   6.935   8.324   1.204 -0.3821 -0.0433 -0.1501
29953SOL    HW193261   6.909   8.408   1.243 -1.3757 -1.1493  1.7221
29953SOL    HW293262   6.907   8.331   1.112 -0.2643  1.7221 -0.0918
29954SOL     OW93263   6.428   7.082   5.006  0.1484  0.4692 -0.1045
29954SOL    HW193264   6.386   7.025   4.942 -0.1651  1.0407 -0.4143
29954SOL    HW293265   6.522   7.076   4.985  0.4550 -2.0933  1.6283
29955SOL     OW93266   4.998   8.590   5.750 -0.7208 -0.4401 -0.1244
29955SOL    HW193267   5.050   8.579   5.670  2.5158  0.1059  1.7158
29955SOL    HW293268   5.034   8.524   5.810 -2.8753 -0.6626  1.0135
29956SOL     OW93269   0.846   2.785   3.216 -0.0630  0.0274 -0.2382
29956SOL    HW193270   0.862   2.692   3.228  1.5360  0.2715 -0.2716
29956SOL    HW293271   0.932   2.825   3.222 -0.5621  1.3722 -1.4826
29957SOL     OW93272   8.235   1.369   6.286 -0.2507 -0.5613  0.0512
29957SOL    HW193273   8.195   1.453   6.309 -0.6419 -0.8428  0.4005
29957SOL    HW293274   8.206   1.353   6.196 -0.6497 -0.6023  0.1872
29958SOL     OW93275   3.815   8.641   7.987 -0.2483  0.0372  0.5015
29958SOL    HW193276   3.879   8.702   7.948 -0.9564  0.7975  0.4986
29958SOL    HW293277   3.864   8.595   8.055  0.8306 -0.8200 -0.7974
29959SOL     OW93278   6.587   5.317  10.826  0.1663 -0.0228 -0.0211
29959SOL    HW193279   6.592   5.222  10.820 -0.1355 -0.0493  0.1389
29959SOL    HW293280   6.503   5.334  10.868 -0.1033  0.3390 -0.6846
29960SOL     OW93281   8.514   8.725   3.420  0.2773 -0.0123 -0.4966
29960SOL    HW193282   8.481   8.642   3.385 -1.4222  0.2186  0.4588
29960SOL    HW293283   8.512   8.785   3.346  0.4916 -0.5255 -0.9314
29961SOL     OW93284   9.458   0.226   8.497 -0.3508  0.4884  0.2151
29961SOL    HW193285   9.494   0.246   8.584  0.2149 -1.7486  0.5764
29961SOL    HW293286   9.374   0.185   8.515 -0.7222  0.9891 -0.3614
29962SOL     OW93287   1.104  10.507   6.422  0.2753  0.3162 -0.3826
29962SOL    HW193288   1.095  10.511   6.326 -0.7787 -0.0200 -0.3047
29962SOL    HW293289   1.142  10.421   6.439  0.1741  0.2531 -0.4758
29963SOL     OW93290  10.501   1.688   2.912 -0.2051  0.0494 -0.5352
29963SOL    HW193291  10.550   1.769   2.896 -0.0913 -0.0784 -0.8317
29963SOL    HW293292  10.444   1.678   2.835  0.1424 -0.4144 -0.7366
29964SOL     OW93293   3.247   1.679  10.161  0.0290 -0.2646 -0.5951
29964SOL    HW193294   3.312   1.747  10.178  0.4243 -0.9321  0.6817
29964SOL    HW293295   3.275   1.605  10.214 -2.3857 -0.1839  0.9734
29965SOL     OW93296   4.929   3.059   1.489 -0.1811 -0.0344 -0.0119
29965SOL    HW193297   4.870   2.993   1.453  0.2158  0.6368 -1.9952
29965SOL    HW293298   4.871   3.119   1.536 -1.2088  0.8109 -2.2116
29966SOL     OW93299   7.146   1.049   8.992  0.5456 -0.4419  0.5223
29966SOL    HW193300   7.234   1.080   8.972  1.4727 -2.2224  1.6373
29966SOL    HW293301   7.091   1.091   8.925  2.2515  0.4689 -0.3909
29967SOL     OW93302   5.972   2.338  10.894 -0.5467  0.5269 -0.0395
29967SOL    HW193303   5.925   2.258  10.915 -0.3071  0.9966  2.6828
29967SOL    HW293304   5.907   2.392  10.847 -1.3467 -0.4483 -0.0954
29968SOL     OW93305   2.661   8.035   1.690  0.0327 -0.3543  0.0903
29968SOL    HW193306   2.589   8.008   1.633 -1.0767 -0.0897  1.3409
29968SOL    HW293307   2.726   7.965   1.681  0.4598  0.2648 -2.4282
29969SOL     OW93308   6.360   0.711   7.303  0.0358 -0.2250 -0.2774
29969SOL    HW193309   6.423   0.664   7.249  0.2891 -1.0316  0.7109
29969SOL    HW293310   6.414   0.768   7.358 -0.1597 -0.2222 -0.0894
29970SOL     OW93311   0.875  10.775   6.766 -0.2473  0.4810  0.1124
29970SOL    HW193312   0.877  10.703   6.703 -1.1398  1.4340 -1.0638
29970SOL    HW293313   0.966  10.802   6.776 -0.0660  0.1479 -0.5992
29971SOL     OW93314   6.905   8.327   0.939 -0.1428  0.1959 -0.3967
29971SOL    HW193315   6.835   8.392   0.945  1.4444  1.9536 -0.0759
29971SOL    HW293316   6.929   8.326   0.846 -0.0597  0.1740 -0.3750
29972SOL     OW93317   9.573   0.526   1.168  0.1166 -0.1372 -0.7520
29972SOL    HW193318   9.622   0.578   1.232 -1.0452  0.4968 -0.3370
29972SOL    HW293319   9.599   0.562   1.083  0.8671 -0.2679 -0.5802
29973SOL     OW93320   6.018   4.854   0.532  0.3667 -0.0383 -0.1969
29973SOL    HW193321   5.976   4.870   0.617 -0.3224  1.1618 -0.7370
29973SOL    HW293322   5.974   4.914   0.472  0.9714 -0.7400 -1.3742
29974SOL     OW93323  10.384  10.085  10.474 -0.4349 -0.2435  0.2908
29974SOL    HW193324  10.437  10.131  10.409 -1.7838  0.5358 -0.2996
29974SOL    HW293325  10.445  10.025  10.517  1.2824  1.6761  0.6868
29975SOL     OW93326   4.777   2.564   7.109 -0.5926 -0.2855  0.2323
29975SOL    HW193327   4.791   2.655   7.086  0.0133 -0.4404 -0.0316
29975SOL    HW293328   4.701   2.537   7.058  0.0261 -0.2947 -0.7141
29976SOL     OW93329   6.743   3.869   2.650 -0.0527 -0.5252 -0.0880
29976SOL    HW193330   6.650   3.847   2.644 -0.0811 -0.8361  1.2582
29976SOL    HW293331   6.782   3.796   2.698  0.8100 -0.1908 -0.2606
29977SOL     OW93332   6.638   3.266   5.447 -0.1651  0.1955  0.0142
29977SOL    HW193333   6.601   3.178   5.442  1.1176 -0.3138 -2.0049
29977SOL    HW293334   6.601   3.304   5.526 -2.2566 -1.4641 -0.0897
29978SOL     OW93335   0.849   8.618   3.537 -0.0242 -0.1113 -0.3367
29978SOL    HW193336   0.854   8.619   3.633  0.4619  0.4065 -0.3562
29978SOL    HW293337   0.797   8.541   3.516 -1.1308  0.4019  0.3865
29979SOL     OW93338   0.515   2.853   1.583  0.4765  0.3554 -0.3623
29979SOL    HW193339   0.606   2.835   1.559 -0.0163 -0.4449 -1.7436
29979SOL    HW293340   0.483   2.911   1.514  0.2817  1.7488  0.8281
29980SOL     OW93341   6.582   6.604   3.695  0.1379 -0.3825  0.3585
29980SOL    HW193342   6.550   6.546   3.627  0.1543 -1.1059  0.9593
29980SOL    HW293343   6.602   6.686   3.649  0.8160 -1.0757 -0.6246
29981SOL     OW93344   4.034   0.278   6.538  0.0583  0.2595 -0.0353
29981SOL    HW193345   3.998   0.366   6.550 -0.0406  0.2669 -0.3849
29981SOL    HW293346   4.129   0.290   6.545  0.0129  0.2833  0.6055
29982SOL     OW93347   9.755   6.783   5.493  0.0437 -0.5017  0.1750
29982SOL    HW193348   9.846   6.790   5.523  0.4771 -0.4782 -1.0732
29982SOL    HW293349   9.727   6.874   5.482  0.3561 -0.4991 -0.7636
29983SOL     OW93350   6.605   6.867   8.861  0.8243  0.3366 -0.9169
29983SOL    HW193351   6.660   6.933   8.819  0.8136 -0.0489 -1.5412
29983SOL    HW293352   6.520   6.910   8.872  0.2404 -0.1762 -3.0630
29984SOL     OW93353   3.326   8.071   5.665  0.4215  0.2224  0.2307
29984SOL    HW193354   3.391   8.056   5.734  0.5021  3.2086  0.9098
29984SOL    HW293355   3.244   8.087   5.712  0.3017  1.4749 -0.3773
29985SOL     OW93356   5.622   0.887   5.725  0.1712  0.2650 -0.1145
29985SOL    HW193357   5.566   0.874   5.648  0.3819  0.7884 -0.3600
29985SOL    HW293358   5.663   0.972   5.711  1.6959 -0.4704 -0.3698
29986SOL     OW93359   5.310   0.643   8.415  0.6425  0.2554 -0.9218
29986SOL    HW193360   5.238   0.599   8.370  1.7939 -0.5961 -1.9837
29986SOL    HW293361   5.383   0.582   8.409  0.9509  0.2383  1.8679
29987SOL     OW93362   7.045   5.961   8.716 -0.3902  0.1084  0.0162
29987SOL    HW193363   7.015   5.901   8.784  2.3336  0.1482  1.4119
29987SOL    HW293364   7.058   5.905   8.639  1.0223 -0.9550  0.9723
29988SOL     OW93365   0.488   9.662   3.472 -0.5843 -0.4603 -0.0689
29988SOL    HW193366   0.564   9.616   3.506  0.1515  0.8366  0.1114
29988SOL    HW293367   0.493   9.652   3.377  0.2851  0.2954 -0.1163
29989SOL     OW93368   9.971   1.789   3.212 -0.6120 -0.9539 -0.1104
29989SOL    HW193369   9.937   1.824   3.130  0.0565  1.1351  0.4403
29989SOL    HW293370  10.019   1.710   3.186 -1.0356 -0.7569 -1.6101
29990SOL     OW93371   1.537   6.494   0.062  0.4611  0.0608 -0.3503
29990SOL    HW193372   1.443   6.508   0.053  0.0527 -2.0413  0.2051
29990SOL    HW293373   1.557   6.523   0.151 -0.1677 -1.7403  0.4165
29991SOL     OW93374   6.163   4.723   0.854  0.0423  0.1551  0.1303
29991SOL    HW193375   6.139   4.689   0.768  2.0077 -1.6967  0.2442
29991SOL    HW293376   6.099   4.684   0.914 -0.8479  0.8234 -0.3584
29992SOL     OW93377   0.370   8.761   7.654  0.3040  0.6190  0.3331
29992SOL    HW193378   0.348   8.716   7.735  1.0818  1.6442  1.1377
29992SOL    HW293379   0.453   8.722   7.626 -1.0011 -1.2625 -1.1874
29993SOL     OW93380   7.659   6.004  10.233  0.1531  0.7021 -0.9191
29993SOL    HW193381   7.722   5.986  10.303  1.7875  0.1530 -2.4415
29993SOL    HW293382   7.574   6.005  10.276  1.0889  0.3264  1.0419
29994SOL     OW93383   5.423   1.013   6.968  0.2069  0.4382 -0.2405
29994SOL    HW193384   5.459   0.925   6.961 -0.8497 -0.0023 -0.3268
29994SOL    HW293385   5.400   1.022   7.061  0.8223  0.8320 -0.1243
29995SOL     OW93386  10.658   0.346   3.024 -0.3788  0.4132  0.7066
29995SOL    HW193387  10.679   0.419   3.083  0.9197  0.8913 -0.2876
29995SOL    HW293388  10.571   0.317   3.051 -1.9201  3.7472 -0.2666
29996SOL     OW93389   6.560  10.899   7.287 -0.0391  0.0446 -0.5506
29996SOL    HW193390   6.620  10.953   7.235 -1.3734  2.5409  0.3423
29996SOL    HW293391   6.598  10.897   7.374  0.9167 -2.0615 -0.9572
29997SOL     OW93392   5.136   8.782   0.397  0.2031  0.8047 -0.7211
29997SOL    HW193393   5.164   8.697   0.431  0.9402  1.5228  0.5461
29997SOL    HW293394   5.212   8.839   0.411 -1.0486  2.2280  0.6302
29998SOL     OW93395   8.483   0.653   8.503  0.3522 -0.0942  0.1401
29998SOL    HW193396   8.551   0.586   8.497 -1.3111 -1.7766 -1.2613
29998SOL    HW293397   8.438   0.649   8.418 -2.6630 -0.4106  1.6334
29999SOL     OW93398   0.036   6.713   0.223 -0.4381  0.2029 -0.1200
29999SOL    HW193399   0.042   6.788   0.282  0.3336  0.5985 -0.6727
29999SOL    HW293400  -0.058   6.699   0.211 -0.5931  1.0391  0.0517
30000SOL     OW93401   9.561   2.179   2.604 -0.3495  0.0511  0.2377
30000SOL    HW193402   9.609   2.131   2.537 -0.7093 -0.3190  0.2431
30000SOL    HW293403   9.514   2.247   2.556  1.1703  1.2538  0.3628
30001SOL     OW93404   2.981   4.436  10.584  0.5037  0.0220  0.0030
30001SOL    HW193405   2.946   4.511  10.631  0.5244 -0.7034  1.2395
30001SOL    HW293406   3.046   4.399  10.645  0.5317 -0.9484 -0.6047
30002SOL     OW93407   1.415   1.317   5.836  0.2373 -0.1416 -0.0857
30002SOL    HW193408   1.456   1.264   5.768  1.9575  0.4926  0.4077
30002SOL    HW293409   1.413   1.405   5.799 -1.8246 -0.3506 -0.5668
30003SOL     OW93410   3.737   7.860   3.569  0.1029 -0.1622 -0.3924
30003SOL    HW193411   3.703   7.850   3.480 -1.3281  0.5756  0.0316
30003SOL    HW293412   3.715   7.950   3.593  0.4795 -0.3458  0.7139
30004SOL     OW93413   6.676   4.965   2.093 -0.3024 -0.3196 -0.0811
30004SOL    HW193414   6.706   4.988   2.180  1.6419  0.5861 -0.9245
30004SOL    HW293415   6.587   4.999   2.088 -0.0281  0.6245  1.1518
30005SOL     OW93416  10.112   2.571   2.571  0.4704 -0.5830  0.1214
30005SOL    HW193417  10.168   2.533   2.503  0.0233 -2.9434  0.9786
30005SOL    HW293418  10.023   2.549   2.543  0.2449 -0.8971  1.0451
30006SOL     OW93419   4.694   5.716   2.741  0.2471 -0.3366  0.4647
30006SOL    HW193420   4.645   5.685   2.818 -0.3595 -0.0930  0.1836
30006SOL    HW293421   4.773   5.756   2.777 -0.8754  1.4242  1.0966
30007SOL     OW93422   4.960   3.831   0.681  0.3519 -0.0011 -0.2894
30007SOL    HW193423   5.027   3.805   0.618  0.8372 -0.7211  0.5014
30007SOL    HW293424   4.878   3.828   0.631  0.7716 -0.2170 -0.9777
30008SOL     OW93425   5.739   5.630   1.763  0.7548  0.5482 -0.3261
30008SOL    HW193426   5.825   5.672   1.770  0.3641  1.1719  0.9068
30008SOL    HW293427   5.696   5.649   1.846 -0.3816 -0.2183 -0.7181
30009SOL     OW93428   9.418  10.474   7.789 -0.6187  0.8320  0.3039
30009SOL    HW193429   9.436  10.517   7.705 -1.2792  1.9631  0.7206
30009SOL    HW293430   9.355  10.405   7.767 -1.2058  1.4683 -0.0694
30010SOL     OW93431   2.749   5.401   5.208 -0.1033  0.2790  0.3847
30010SOL    HW193432   2.837   5.380   5.176 -0.7338 -1.7810 -0.1950
30010SOL    HW293433   2.702   5.317   5.204 -1.4853  0.8694  2.6939
30011SOL     OW93434   4.378  10.175   1.660 -0.1599 -0.5421 -0.7173
30011SOL    HW193435   4.289  10.190   1.692  0.1235 -0.5046  0.0763
30011SOL    HW293436   4.433  10.181   1.738  0.6747  0.5865 -1.3605
30012SOL     OW93437   0.982   0.417   3.503  0.1508  0.4312  0.1348
30012SOL    HW193438   0.992   0.505   3.467 -1.0126  0.5504  0.0631
30012SOL    HW293439   1.004   0.426   3.596 -1.0836  1.0612  0.3857
30013SOL     OW93440   6.348   8.879  10.911  0.7999 -0.6297 -0.4767
30013SOL    HW193441   6.433   8.837  10.897  1.7206  0.6885  0.9236
30013SOL    HW293442   6.348   8.953  10.850  1.1349  0.0125  0.2921
30014SOL     OW93443   7.475   7.545   1.715  0.3783 -0.2834 -0.1092
30014SOL    HW193444   7.488   7.453   1.738  2.7630 -0.0709 -0.3526
30014SOL    HW293445   7.563   7.583   1.719 -0.2643  1.5480 -1.8892
30015SOL     OW93446   2.781   3.029   5.708 -0.3633  0.1744 -0.3435
30015SOL    HW193447   2.773   2.958   5.771  1.2106  0.2303 -0.0290
30015SOL    HW293448   2.704   3.084   5.722 -0.7393 -0.5678  0.5612
30016SOL     OW93449   9.111   5.554   7.052  0.4111 -0.0912 -0.3736
30016SOL    HW193450   9.105   5.477   7.109 -0.3121  1.2382  1.4436
30016SOL    HW293451   9.024   5.593   7.056  1.7437  3.0354  2.0941
30017SOL     OW93452   8.113   9.220   9.453  0.2031  0.0725  0.5343
30017SOL    HW193453   8.122   9.281   9.380  0.5101 -2.0225 -1.2877
30017SOL    HW293454   8.021   9.194   9.452  0.4469 -0.7948  0.1696
30018SOL     OW93455   9.253   3.356   6.610  0.0181  0.0061  0.0282
30018SOL    HW193456   9.266   3.435   6.558  1.0057  0.9227  1.5915
30018SOL    HW293457   9.260   3.285   6.547  0.6368  1.0822 -1.1753
30019SOL     OW93458   3.113   7.540   4.943 -0.3115 -0.4783  0.4367
30019SOL    HW193459   3.188   7.537   4.884 -1.6005  1.4393 -1.4743
30019SOL    HW293460   3.143   7.590   5.018  0.4159  0.1073 -0.2264
30020SOL     OW93461   3.670   3.414   5.192 -0.0858  0.1432  0.7965
30020SOL    HW193462   3.744   3.410   5.130  0.0972  0.4656  0.9939
30020SOL    HW293463   3.593   3.422   5.136  0.1636  1.6236  0.6158
30021SOL     OW93464   0.627   5.878   5.072 -0.2551  0.6029 -0.2697
30021SOL    HW193465   0.573   5.859   4.996  0.5187  0.3346 -0.7688
30021SOL    HW293466   0.599   5.965   5.101 -0.8858  0.5032 -0.5618
30022SOL     OW93467   6.738   6.839   4.577 -0.3513 -0.4166 -0.4076
30022SOL    HW193468   6.819   6.889   4.585  0.7012 -1.5558 -2.8120
30022SOL    HW293469   6.706   6.831   4.667  2.4872 -0.3534  0.7385
30023SOL     OW93470   5.916   7.784   0.674  0.4632  0.6961  0.0293
30023SOL    HW193471   5.943   7.704   0.630 -0.1068  0.5897 -0.1367
30023SOL    HW293472   5.984   7.799   0.740 -0.2819 -0.8554  1.2172
30024SOL     OW93473   6.875   5.729   9.167 -0.0910  0.1981 -0.0227
30024SOL    HW193474   6.798   5.747   9.222 -0.4518  2.7116 -1.2010
30024SOL    HW293475   6.872   5.635   9.152 -1.6912 -0.0953  1.7635
30025SOL     OW93476   4.387   0.499   7.274  0.1007  0.1970  0.5434
30025SOL    HW193477   4.303   0.456   7.293 -0.3503  0.9150  0.2261
30025SOL    HW293478   4.452   0.446   7.320 -0.3154 -1.4349 -0.6434
30026SOL     OW93479  10.461   3.187   2.314  0.5373 -0.3705  0.2702
30026SOL    HW193480  10.551   3.213   2.297  0.7060 -1.5051 -0.7790
30026SOL    HW293481  10.410   3.267   2.302  1.3863  0.2447  0.7150
30027SOL     OW93482   1.879   5.154   6.654  0.0399 -0.3194 -0.5537
30027SOL    HW193483   1.950   5.199   6.608 -1.1864  3.3608  0.7454
30027SOL    HW293484   1.809   5.219   6.659 -2.0228 -2.4884  1.4875
30028SOL     OW93485  10.304   6.596  10.548  0.4208 -0.4451  0.4376
30028SOL    HW193486  10.331   6.597  10.639  0.7073  1.6810  0.3696
30028SOL    HW293487  10.286   6.688  10.527 -1.7389 -1.1272 -1.0281
30029SOL     OW93488   0.066   3.248   3.803 -0.4782  0.7647  0.1316
30029SOL    HW193489   0.135   3.293   3.853  0.0601  0.3904 -0.2589
30029SOL    HW293490   0.066   3.293   3.718  0.0574  0.0417 -0.2588
30030SOL     OW93491   9.307   2.483   1.700  0.2383  0.4116  0.0297
30030SOL    HW193492   9.387   2.535   1.701 -0.4926  1.5875 -0.6553
30030SOL    HW293493   9.241   2.541   1.664 -0.1370 -1.6747 -3.0306
30031SOL     OW93494   9.406   9.956   9.072  0.3398  0.0440  0.6634
30031SOL    HW193495   9.324   9.945   9.024  0.4719 -1.5809  0.7451
30031SOL    HW293496   9.409  10.049   9.093 -0.8255  0.3771 -0.4946
30032SOL     OW93497   7.129   0.194   5.761  0.4697  0.4604  0.1922
30032SOL    HW193498   7.116   0.277   5.807 -1.8575 -0.8440  2.1086
30032SOL    HW293499   7.058   0.192   5.696  0.5104 -0.0299  0.1617
30033SOL     OW93500   3.239   3.418   1.905 -0.3680  0.6330 -0.5084
30033SOL    HW193501   3.291   3.423   1.985 -0.7329 -1.1332 -0.1236
30033SOL    HW293502   3.163   3.473   1.923  0.1857  1.2939 -0.1540
30034SOL     OW93503   7.139   0.322   2.313 -0.3062 -0.0107 -0.1339
30034SOL    HW193504   7.157   0.402   2.363  2.1095  0.6133 -1.7635
30034SOL    HW293505   7.075   0.349   2.247 -0.8755  0.0879  0.4552
30035SOL     OW93506   4.784   4.311   5.062  0.2399 -0.4848  0.3300
30035SOL    HW193507   4.770   4.398   5.099  0.4736  0.7327 -2.2186
30035SOL    HW293508   4.776   4.324   4.967  1.0363 -3.1116 -0.1698
30036SOL     OW93509   0.017   4.704   5.545  0.3973 -0.6941 -0.4436
30036SOL    HW193510  -0.042   4.752   5.603 -0.8536 -0.1758 -2.0590
30036SOL    HW293511   0.105   4.732   5.570 -0.0507 -1.0780  1.6726
30037SOL     OW93512   3.340  10.474   3.864  0.2540  0.1402 -0.0562
30037SOL    HW193513   3.321  10.515   3.949  1.4563  0.5073  0.0597
30037SOL    HW293514   3.278  10.515   3.803 -0.1774  0.3575  0.5249
30038SOL     OW93515   4.755   0.782   8.696 -0.2821  0.3265  0.1152
30038SOL    HW193516   4.710   0.786   8.780  0.9688 -1.3055  0.9074
30038SOL    HW293517   4.769   0.689   8.680  3.0819  0.7278  0.0751
30039SOL     OW93518   0.699   8.864  10.507 -0.0484  0.7696  0.5888
30039SOL    HW193519   0.759   8.915  10.562 -2.0686  1.8694  1.9207
30039SOL    HW293520   0.680   8.921  10.433  0.6669  0.3489  0.0745
30040SOL     OW93521  10.328   7.605   0.844 -0.0217  0.2820  0.6483
30040SOL    HW193522  10.242   7.570   0.868  0.7473 -1.0403  1.6101
30040SOL    HW293523  10.376   7.609   0.926  1.1910 -0.0468 -0.0242
30041SOL     OW93524   2.063   2.060   1.577 -0.0631 -0.3516 -0.3653
30041SOL    HW193525   1.969   2.057   1.555 -0.4427 -0.9783  1.2327
30041SOL    HW293526   2.086   1.969   1.594  0.4571 -0.0315  0.7144
30042SOL     OW93527   7.014   8.483   8.832 -0.4535 -0.0702  0.5156
30042SOL    HW193528   6.968   8.409   8.793  1.5265 -1.5040  0.7752
30042SOL    HW293529   7.021   8.461   8.925 -1.9008  1.6089  1.0909
30043SOL     OW93530   9.769   0.528   3.209  0.0732 -0.3754 -0.5166
30043SOL    HW193531   9.767   0.573   3.125  0.9643 -2.0444 -1.4542
30043SOL    HW293532   9.695   0.467   3.205  0.7014 -1.1416 -0.4832
30044SOL     OW93533   4.890   7.157   7.915  0.0691 -0.7382 -0.2003
30044SOL    HW193534   4.923   7.072   7.884  0.0086 -0.8822  0.1259
30044SOL    HW293535   4.871   7.143   8.008  2.2374  0.2544  0.4510
30045SOL     OW93536   2.109   6.293   2.360 -0.0069  0.2279  0.0720
30045SOL    HW193537   2.158   6.276   2.441  1.0075  1.0939 -0.3309
30045SOL    HW293538   2.028   6.334   2.390  0.9342  1.7973  0.6224
30046SOL     OW93539   1.281   8.156   8.502  0.6386  0.3412  0.2836
30046SOL    HW193540   1.269   8.061   8.508  0.7308  0.3195  0.1253
30046SOL    HW293541   1.216   8.185   8.438  0.2317  0.4602  0.7430
30047SOL     OW93542   1.836   6.596   6.554 -0.0435  0.2074 -0.1127
30047SOL    HW193543   1.782   6.540   6.610  0.5493 -1.2270 -0.9355
30047SOL    HW293544   1.778   6.624   6.484 -0.4924  1.1297  0.5948
30048SOL     OW93545   1.131   1.216   2.561  0.2267 -0.0355  0.1537
30048SOL    HW193546   1.201   1.153   2.577 -0.0574 -0.1896  0.8352
30048SOL    HW293547   1.054   1.162   2.543  0.0134  0.1077  0.6064
30049SOL     OW93548   2.730   4.717   7.269 -0.0854  0.1962 -0.2003
30049SOL    HW193549   2.821   4.688   7.275  0.0018  0.4032 -0.4660
30049SOL    HW293550   2.685   4.671   7.339  0.4153  0.7971  0.5331
30050SOL     OW93551   7.337   3.060   7.226 -0.0463  0.1390  0.9439
30050SOL    HW193552   7.337   3.095   7.137 -1.8459 -2.9786 -0.4713
30050SOL    HW293553   7.272   3.113   7.272 -1.5025 -0.1749 -0.6228
30051SOL     OW93554   7.247   9.471   6.359 -0.3890 -0.1918  0.1036
30051SOL    HW193555   7.339   9.492   6.340  1.1738 -4.9320  1.1335
30051SOL    HW293556   7.225   9.528   6.433  0.9996  2.3448 -1.3050
30052SOL     OW93557   6.990   4.764   8.425 -0.1336 -0.3920 -0.7941
30052SOL    HW193558   7.028   4.759   8.338 -0.7973  1.2403 -1.2200
30052SOL    HW293559   6.995   4.857   8.448 -0.0318 -0.7721  0.8873
30053SOL     OW93560   3.711   5.860   1.618 -0.2948 -0.4047  0.0188
30053SOL    HW193561   3.768   5.907   1.680 -0.8475 -0.4887  0.6074
30053SOL    HW293562   3.755   5.869   1.534  0.5563 -0.4163  0.4488
30054SOL     OW93563  10.850   2.090   5.731 -0.8168  0.6583  0.3090
30054SOL    HW193564  10.943   2.082   5.755 -0.6007  0.6834 -0.4813
30054SOL    HW293565  10.808   2.014   5.772 -0.3048  0.2117  0.0175
30055SOL     OW93566   7.014   6.247  10.358  0.6634 -0.1410  0.2990
30055SOL    HW193567   7.005   6.317  10.422  0.5500 -0.1812  0.3278
30055SOL    HW293568   7.093   6.270  10.308 -0.2722  0.8908 -0.7752
30056SOL     OW93569  10.544   3.167   2.717 -0.0879  0.3056  0.4983
30056SOL    HW193570  10.566   3.258   2.696 -0.9807  0.1194 -1.5973
30056SOL    HW293571  10.626   3.120   2.708 -0.0715  0.5549 -0.9767
30057SOL     OW93572   5.955  10.264   0.602  0.2535 -0.2297 -0.2027
30057SOL    HW193573   5.945  10.315   0.522  0.6175  0.3520  0.1153
30057SOL    HW293574   6.041  10.222   0.594 -0.8159 -2.3682 -1.3288
30058SOL     OW93575  10.441   0.592   4.019 -0.1288  0.3922 -0.2358
30058SOL    HW193576  10.419   0.513   3.969  2.2486 -0.8781  0.5943
30058SOL    HW293577  10.366   0.604   4.078 -0.8925 -0.7793 -0.9203
30059SOL     OW93578   9.858   6.219   5.848  0.2663 -0.7221 -0.0425
30059SOL    HW193579   9.817   6.134   5.834  0.0453 -0.6990  0.4341
30059SOL    HW293580   9.784   6.281   5.852  0.3379 -0.6807  0.8230
30060SOL     OW93581   9.322   6.850   2.121 -0.3120  0.4778 -0.0558
30060SOL    HW193582   9.236   6.866   2.160  0.7492  2.0019  1.8989
30060SOL    HW293583   9.348   6.764   2.154 -1.1956 -0.1564 -0.9551
30061SOL     OW93584   6.843   8.152   6.077 -0.5528  0.2636 -0.2810
30061SOL    HW193585   6.788   8.198   6.013 -1.1548 -1.0279 -0.7210
30061SOL    HW293586   6.866   8.219   6.141 -1.8500  1.0567 -0.6066
30062SOL     OW93587   9.724   6.049   7.558  0.1030  0.2322  0.4158
30062SOL    HW193588   9.787   6.079   7.493 -0.2067  0.5396  0.2543
30062SOL    HW293589   9.734   6.109   7.632 -1.8083  1.9597 -0.6236
30063SOL     OW93590   8.004   3.076   4.313 -0.4336  0.0609  0.7308
30063SOL    HW193591   7.921   3.042   4.348 -1.2819  0.6552 -0.5887
30063SOL    HW293592   7.993   3.071   4.218  1.4998 -0.8614  0.5103
30064SOL     OW93593   6.317   8.270   4.420  0.1653  0.0774  0.6747
30064SOL    HW193594   6.314   8.175   4.415  1.8377  0.0034  0.5080
30064SOL    HW293595   6.243   8.294   4.476  0.5671 -1.4241  1.9083
30065SOL     OW93596  10.613   3.037   3.141 -0.0482 -0.3040  0.1087
30065SOL    HW193597  10.651   3.054   3.055 -1.5368 -0.3383 -0.5734
30065SOL    HW293598  10.687   3.047   3.201  0.7919  0.8379 -1.0473
30066SOL     OW93599  10.646  10.461   5.877  1.1022 -0.5699 -0.1213
30066SOL    HW193600  10.599  10.544   5.882  0.6845 -0.7028 -1.5159
30066SOL    HW293601  10.602  10.404   5.940  0.8860  0.0079  0.2566
30067SOL     OW93602   8.334   7.354   4.056 -0.4988  0.2650  0.2679
30067SOL    HW193603   8.366   7.333   3.968 -2.8577  2.5850 -1.2943
30067SOL    HW293604   8.374   7.438   4.076 -0.7765  0.2300  0.9892
30068SOL     OW93605   5.148   5.859   5.922  0.2407  0.2322  0.2541
30068SOL    HW193606   5.063   5.891   5.891 -0.3095 -0.3234  1.1516
30068SOL    HW293607   5.132   5.830   6.012  1.8814  2.1497  1.2274
30069SOL     OW93608  10.514   7.321   3.584  0.9812 -0.3562  0.5546
30069SOL    HW193609  10.501   7.378   3.508  0.9139  1.3863  1.8215
30069SOL    HW293610  10.605   7.292   3.577  1.1728  0.3224  0.1582
30070SOL     OW93611   1.845   7.894   6.692  0.1781  0.0798  0.1697
30070SOL    HW193612   1.912   7.831   6.718 -0.1902 -0.0481  0.8219
30070SOL    HW293613   1.837   7.882   6.597  1.6555  0.6814 -0.0446
30071SOL     OW93614   1.165   5.506   8.343  0.2322  0.7304  0.1794
30071SOL    HW193615   1.189   5.498   8.250  2.4912  1.3368  0.6444
30071SOL    HW293616   1.233   5.458   8.389  0.9450  3.0138  1.6707
30072SOL     OW93617   9.270   5.172   1.574  0.4286  0.5656  0.1960
30072SOL    HW193618   9.208   5.138   1.509 -2.3577  1.3580  2.2436
30072SOL    HW293619   9.297   5.257   1.540  2.0171 -0.5640 -1.6154
30073SOL     OW93620   3.112   0.697   8.099 -0.1994  0.1407  0.2124
30073SOL    HW193621   3.026   0.727   8.130 -0.8828 -1.8724  0.3876
30073SOL    HW293622   3.092   0.627   8.038  1.2926 -2.4295  2.4456
30074SOL     OW93623   6.409   9.869   1.452 -0.2144 -0.2115  0.3039
30074SOL    HW193624   6.383   9.787   1.492 -0.1648 -0.0486  0.6684
30074SOL    HW293625   6.418   9.930   1.525  2.3034 -0.5212  0.3270
30075SOL     OW93626  10.567   7.315   4.038  0.4253 -0.4090 -0.0145
30075SOL    HW193627  10.651   7.326   4.083  0.7159  0.2832 -0.6963
30075SOL    HW293628  10.569   7.225   4.006  1.1411 -0.2377 -0.4744
30076SOL     OW93629   5.041   1.417  10.502 -0.1155  0.4166 -0.1292
30076SOL    HW193630   5.071   1.507  10.492  0.4512  0.3564  0.9348
30076SOL    HW293631   4.988   1.400  10.423  0.3193  1.4470 -0.6514
30077SOL     OW93632   8.588   5.308   0.162  0.8325 -0.1916 -0.4351
30077SOL    HW193633   8.675   5.318   0.200  0.0987  0.3463  1.1857
30077SOL    HW293634   8.541   5.387   0.190 -0.1476 -0.4324 -1.3687
30078SOL     OW93635   2.068   3.468   8.932 -0.1307 -0.5136  0.4446
30078SOL    HW193636   2.074   3.429   9.019 -2.1524 -1.2340  0.3299
30078SOL    HW293637   2.020   3.403   8.880  0.7689  0.0339 -1.1399
30079SOL     OW93638   8.068   8.729   9.043 -0.1350 -0.0260  0.0900
30079SOL    HW193639   8.051   8.822   9.056  0.6815  0.1792 -0.2245
30079SOL    HW293640   7.982   8.688   9.040 -0.4937  0.4038  2.4170
30080SOL     OW93641   7.209   2.736   3.901 -0.1815 -0.9461  0.0179
30080SOL    HW193642   7.189   2.695   3.817 -1.2915  0.3443 -0.3751
30080SOL    HW293643   7.230   2.826   3.880 -0.8129 -0.5140  1.1572
30081SOL     OW93644   1.653   5.816   4.870  0.4570 -0.1622  0.6688
30081SOL    HW193645   1.676   5.841   4.781  1.3886  1.6471  1.3694
30081SOL    HW293646   1.593   5.742   4.859  1.0486 -0.4091 -1.4200
30082SOL     OW93647   3.721   3.720   9.517  0.2820  0.1953  0.6999
30082SOL    HW193648   3.736   3.660   9.589  0.9035 -0.5539 -0.0282
30082SOL    HW293649   3.635   3.696   9.482  0.5507 -0.3341  0.3775
30083SOL     OW93650   3.331   9.325   2.763 -0.3835 -0.2489 -0.4599
30083SOL    HW193651   3.333   9.386   2.836  2.1389  1.0455 -1.4940
30083SOL    HW293652   3.361   9.242   2.800  2.1277  0.6960 -0.1831
30084SOL     OW93653   8.829   0.126   2.869 -0.1272  0.1249 -0.1920
30084SOL    HW193654   8.903   0.142   2.928 -1.5994  1.8492  1.2760
30084SOL    HW293655   8.768   0.074   2.921 -1.4047  1.5827 -0.1664
30085SOL     OW93656   9.362  10.570  10.409  0.4716  0.0402 -0.4849
30085SOL    HW193657   9.292  10.599  10.349  0.8107 -2.2945 -2.1374
30085SOL    HW293658   9.442  10.604  10.369  0.5137  0.6249  0.0743
30086SOL     OW93659   3.827   3.907   6.596  0.1298 -0.0913 -0.7171
30086SOL    HW193660   3.775   3.828   6.612 -0.7394  0.6774  0.3850
30086SOL    HW293661   3.801   3.967   6.665  3.0148  0.1104  0.3254
30087SOL     OW93662   9.962   8.431  10.633  0.1003  0.3707 -0.0122
30087SOL    HW193663   9.913   8.512  10.621 -2.4519 -0.8038  1.7203
30087SOL    HW293664   9.896   8.362  10.631  1.8754 -1.4547  0.9676
30088SOL     OW93665   8.805   1.186   1.205 -0.4312 -1.0573 -0.1773
30088SOL    HW193666   8.859   1.148   1.135 -1.6941 -0.5211 -1.4934
30088SOL    HW293667   8.866   1.235   1.259  0.5296 -1.1931 -1.1113
30089SOL     OW93668   3.990   1.027   2.426 -0.3188 -0.0739 -0.2289
30089SOL    HW193669   3.931   0.987   2.362  0.1447 -1.4274  0.1433
30089SOL    HW293670   3.994   0.963   2.498 -0.3198  1.1140  0.8653
30090SOL     OW93671   1.299   7.319   2.474  0.4898  0.2281 -0.1250
30090SOL    HW193672   1.249   7.394   2.445  1.4807  0.5899 -0.9850
30090SOL    HW293673   1.376   7.356   2.517  0.6747 -0.2986  0.0112
30091SOL     OW93674   3.001   8.986  10.008 -0.1455 -0.0879 -0.1745
30091SOL    HW193675   2.976   9.039   9.932  2.2745  0.6819 -0.5314
30091SOL    HW293676   3.021   8.900   9.971  0.1045  0.0106 -0.2726
30092SOL     OW93677   0.443   8.360   7.091 -0.0614  0.3796  0.3116
30092SOL    HW193678   0.528   8.370   7.049 -0.5345  0.4329 -0.6648
30092SOL    HW293679   0.417   8.450   7.112 -0.3377  0.4667 -0.3596
30093SOL     OW93680   7.427   6.954   9.154 -0.0596  0.2533  0.1553
30093SOL    HW193681   7.377   6.875   9.172 -1.1328  0.7701 -0.4639
30093SOL    HW293682   7.467   6.977   9.238  0.4607 -1.0641  0.2823
30094SOL     OW93683   0.574   6.963   7.871  0.1363 -0.3630  0.0786
30094SOL    HW193684   0.643   6.916   7.824  0.1230 -0.5078  0.2025
30094SOL    HW293685   0.525   7.009   7.803 -0.1648 -0.9341 -0.1034
30095SOL     OW93686   0.775   4.732  10.681  0.3415  0.3356  0.1846
30095SOL    HW193687   0.748   4.801  10.742 -2.3191  0.2234 -0.7515
30095SOL    HW293688   0.725   4.750  10.602  0.7024 -1.8561 -0.5885
30096SOL     OW93689   0.709  10.004  10.725 -0.1834  0.4304  0.0130
30096SOL    HW193690   0.667   9.937  10.671 -1.1745  1.8212 -1.0198
30096SOL    HW293691   0.803   9.994  10.708 -0.1502 -1.6798  1.1054
30097SOL     OW93692   4.658   8.173   9.367  0.1683  0.9166  0.4142
30097SOL    HW193693   4.644   8.089   9.322  1.5479 -0.3810  2.2258
30097SOL    HW293694   4.653   8.239   9.298  0.4424 -0.7809 -1.3094
30098SOL     OW93695   3.604  10.423   3.083 -0.3734 -0.4679  0.4026
30098SOL    HW193696   3.577  10.332   3.075 -1.1286 -0.2436  0.2633
30098SOL    HW293697   3.619  10.452   2.993  3.3962 -1.4267  0.5673
30099SOL     OW93698   9.369   8.319   2.900  0.6807 -0.4617  0.5750
30099SOL    HW193699   9.358   8.318   2.995  0.8867 -0.3541  0.6009
30099SOL    HW293700   9.457   8.354   2.886  0.7853 -0.8001  0.3570
30100SOL     OW93701  10.758   9.005   7.852 -0.1665  0.1319  0.0923
30100SOL    HW193702  10.827   9.012   7.787  1.6566  2.2278  2.0803
30100SOL    HW293703  10.792   8.943   7.917 -0.9164 -0.1026  0.2810
30101SOL     OW93704   2.068   9.371   2.156 -0.5137  0.1091  0.2386
30101SOL    HW193705   2.062   9.406   2.067 -1.4911  0.1985  0.3268
30101SOL    HW293706   2.153   9.327   2.158 -0.1915  0.6585 -0.5324
30102SOL     OW93707   1.596   7.299   4.142  0.0232  0.2778  0.6424
30102SOL    HW193708   1.558   7.348   4.215 -1.5364 -0.6763  0.5240
30102SOL    HW293709   1.659   7.240   4.182 -0.1228  0.4305  1.1002
30103SOL     OW93710   6.812   8.250   3.731  0.6278 -0.3864  0.8019
30103SOL    HW193711   6.893   8.296   3.755  1.0430 -0.2597 -0.7406
30103SOL    HW293712   6.811   8.253   3.636  0.4733 -3.3022  0.6473
30104SOL     OW93713   1.469   7.562   9.674  0.3543  0.5650  0.4802
30104SOL    HW193714   1.376   7.580   9.661  0.4689  0.7049 -0.1498
30104SOL    HW293715   1.482   7.477   9.632  0.7662  1.1111 -0.5356
30105SOL     OW93716   8.533   6.499   3.254 -0.7425 -0.5698  0.2471
30105SOL    HW193717   8.530   6.430   3.188  1.9470 -0.2364 -0.3854
30105SOL    HW293718   8.560   6.577   3.204  3.0120 -0.6476  1.7850
30106SOL     OW93719   9.054   1.931   2.262 -0.5161 -0.0607 -0.6369
30106SOL    HW193720   8.976   1.898   2.217 -0.0473 -1.2551 -0.6213
30106SOL    HW293721   9.123   1.869   2.239  0.3141  0.6871 -0.2321
30107SOL     OW93722   6.888   2.022   4.512 -0.4304  0.2048  0.3086
30107SOL    HW193723   6.834   1.960   4.560 -0.1348  0.1378  0.5558
30107SOL    HW293724   6.960   2.043   4.572  0.6767 -0.8789 -0.5796
30108SOL     OW93725   5.243   6.518   2.156  0.2452  0.0159 -0.1307
30108SOL    HW193726   5.321   6.500   2.104 -1.5738 -2.1169 -2.3683
30108SOL    HW293727   5.202   6.432   2.168 -2.1440  1.1463  0.2981
30109SOL     OW93728   4.195   2.116   2.476 -0.1370 -0.4521  0.1810
30109SOL    HW193729   4.131   2.176   2.437  0.6601 -0.3362 -1.0214
30109SOL    HW293730   4.142   2.050   2.521 -1.0758  0.1194 -0.0566
30110SOL     OW93731   8.355   4.785   2.140 -0.4379  0.4947  0.0122
30110SOL    HW193732   8.305   4.781   2.221 -0.4400  0.2456  0.0004
30110SOL    HW293733   8.395   4.872   2.140  0.0553  0.2747  0.5769
30111SOL     OW93734   7.546   8.653   2.330 -0.4016  0.1867  0.3029
30111SOL    HW193735   7.541   8.739   2.372  1.0889  1.6423 -2.2185
30111SOL    HW293736   7.457   8.635   2.302 -0.6261  1.2935  0.2269
30112SOL     OW93737   6.030   7.066   2.185 -0.6848  0.1408 -0.0734
30112SOL    HW193738   6.093   7.011   2.232  0.9153  3.0441  1.4857
30112SOL    HW293739   6.066   7.074   2.096 -1.1875 -1.5848 -0.4654
30113SOL     OW93740   0.754   1.311   5.325 -0.6766  0.7245 -0.3888
30113SOL    HW193741   0.722   1.332   5.413 -1.0569  1.9465 -0.8009
30113SOL    HW293742   0.760   1.215   5.324  1.5977  0.7301  1.7622
30114SOL     OW93743   7.419   9.937   6.215 -0.5227 -0.0632 -0.5167
30114SOL    HW193744   7.491   9.991   6.247  0.9305 -1.1772 -1.7340
30114SOL    HW293745   7.370   9.914   6.294 -0.2900  1.7232  0.1962
30115SOL     OW93746   9.215   3.714   2.773  0.2422 -0.1101  0.3640
30115SOL    HW193747   9.213   3.698   2.867  2.8569 -0.7212  0.3861
30115SOL    HW293748   9.182   3.633   2.734  1.2317 -0.7075  0.7378
30116SOL     OW93749  10.327   3.949   5.966 -0.0119 -0.6448  0.0917
30116SOL    HW193750  10.330   3.984   6.055 -1.4049 -1.4699  0.4948
30116SOL    HW293751  10.393   3.999   5.918  2.3740 -1.6776  2.0899
30117SOL     OW93752   9.732   0.684   1.362  0.3101 -0.2859  0.0511
30117SOL    HW193753   9.715   0.776   1.341 -0.4586  0.1650  2.4190
30117SOL    HW293754   9.816   0.686   1.408  0.8937 -0.9640 -0.9486
30118SOL     OW93755   9.094   7.892   9.127  1.0104 -0.4061 -0.3833
30118SOL    HW193756   9.126   7.978   9.153 -0.1550  0.3408 -1.2757
30118SOL    HW293757   9.000   7.904   9.116  0.2257 -2.6203  2.6615
30119SOL     OW93758   6.869   7.648   9.726  0.3741  0.0440 -0.4426
30119SOL    HW193759   6.874   7.732   9.681  1.2872  0.1132 -0.2324
30119SOL    HW293760   6.775   7.630   9.732  0.2010  0.5193 -1.4567
30120SOL     OW93761   5.302  10.858   1.925  0.5294 -0.0804 -0.2547
30120SOL    HW193762   5.255  10.885   2.004 -2.1133 -1.5408 -1.1993
30120SOL    HW293763   5.329  10.768   1.943  1.0190  0.0044 -0.5589
30121SOL     OW93764   3.619   4.046   6.276 -0.4744 -0.3589 -0.3073
30121SOL    HW193765   3.713   4.064   6.277 -0.6310  0.5368 -0.7068
30121SOL    HW293766   3.591   4.061   6.366 -0.3175 -0.1372 -0.2935
30122SOL     OW93767   8.375   0.647   8.249 -1.0552  0.2248 -0.4158
30122SOL    HW193768   8.346   0.713   8.187  2.2430  1.0505 -1.2490
30122SOL    HW293769   8.350   0.564   8.209 -0.4771  0.7987 -2.0495
30123SOL     OW93770   1.374  10.684   6.630  0.3104  0.0370 -0.3626
30123SOL    HW193771   1.305  10.750   6.627  1.7988  1.6155 -1.7037
30123SOL    HW293772   1.362  10.632   6.550  0.6146  0.2707 -0.5640
30124SOL     OW93773   4.966  10.376   3.537  0.0160  0.2329  0.2287
30124SOL    HW193774   5.021  10.354   3.612 -0.4569 -0.2498  0.4434
30124SOL    HW293775   4.917  10.296   3.519  1.2693 -0.1656 -1.6105
30125SOL     OW93776   4.953  10.325   5.130 -0.0106 -0.1823  0.0978
30125SOL    HW193777   4.954  10.236   5.097 -2.7432 -0.6267  0.9328
30125SOL    HW293778   5.006  10.323   5.210  2.4620 -0.2614 -1.4518
30126SOL     OW93779   0.702   3.562   2.344 -0.3379  0.3897 -0.0381
30126SOL    HW193780   0.741   3.501   2.407 -1.2111  1.7137  1.8644
30126SOL    HW293781   0.756   3.551   2.265  1.9361 -0.0740  1.4704
30127SOL     OW93782   8.187  10.295   2.629  0.4608  0.1415  0.1163
30127SOL    HW193783   8.119  10.343   2.676  0.4669  1.2720 -0.9521
30127SOL    HW293784   8.181  10.205   2.661  1.6066  1.1225  3.5187
30128SOL     OW93785  10.037   8.145   0.497 -0.7083 -0.0039 -0.5182
30128SOL    HW193786   9.962   8.086   0.487 -1.5252  0.9262 -0.0600
30128SOL    HW293787  10.100   8.095   0.549 -1.8764 -0.0750  0.9028
30129SOL     OW93788   1.351   2.435   4.318 -0.4270  0.2817 -0.0906
30129SOL    HW193789   1.359   2.494   4.244 -2.3027  0.2510 -0.3713
30129SOL    HW293790   1.440   2.425   4.351  0.2749  1.2236 -1.6045
30130SOL     OW93791   6.945   1.016   6.123 -0.8156  0.2840  0.4877
30130SOL    HW193792   6.906   1.002   6.037 -0.0386  0.3229  0.1219
30130SOL    HW293793   7.032   0.975   6.117 -0.3585  1.1696  0.9270
30131SOL     OW93794   1.732   7.010   1.431  0.2863  0.3894  0.0290
30131SOL    HW193795   1.742   7.091   1.382  0.7122  0.0455 -0.4706
30131SOL    HW293796   1.819   6.992   1.466  0.3827 -0.2404 -0.5030
30132SOL     OW93797   9.528   6.267   3.874 -0.1883  0.4562 -0.3581
30132SOL    HW193798   9.451   6.296   3.826 -0.2744  0.1232 -0.4243
30132SOL    HW293799   9.602   6.294   3.819 -0.2929 -0.1534 -0.8173
30133SOL     OW93800   3.729   9.234   9.161 -0.1318 -0.0894 -0.4783
30133SOL    HW193801   3.643   9.231   9.120 -0.5568 -0.3141  0.4046
30133SOL    HW293802   3.761   9.323   9.145  0.0351 -0.3808 -1.9074
30134SOL     OW93803   8.828  10.040   7.709 -0.4821  0.2353  0.2434
30134SOL    HW193804   8.772   9.971   7.744 -0.4348 -0.1519 -0.4379
30134SOL    HW293805   8.869  10.001   7.632 -0.2704  0.9478 -0.0092
30135SOL     OW93806   9.337   8.029   4.863 -0.1873  0.1819  0.6509
30135SOL    HW193807   9.429   8.045   4.843 -0.1270  0.2995  1.0276
30135SOL    HW293808   9.299   8.000   4.779 -0.3477  2.4738 -0.1407
30136SOL     OW93809  10.300   6.562   4.666 -0.2660 -0.3847 -0.3742
30136SOL    HW193810  10.278   6.556   4.759  0.9115 -0.3013 -0.0708
30136SOL    HW293811  10.228   6.612   4.628 -1.0773 -0.9403  0.3696
30137SOL     OW93812  10.652   5.427  10.143  0.2051 -0.2705 -0.4985
30137SOL    HW193813  10.731   5.374  10.153  0.8878  0.9626  1.2602
30137SOL    HW293814  10.580   5.365  10.147  0.8890 -1.0815  2.9882
30138SOL     OW93815   4.295   2.780   0.214 -0.5073  0.3871  0.5365
30138SOL    HW193816   4.323   2.872   0.208 -1.1716  0.5441 -0.4595
30138SOL    HW293817   4.326   2.740   0.133  1.4830 -0.7875  1.8118
30139SOL     OW93818   4.577   5.064   6.556 -0.2340  0.3957  0.0868
30139SOL    HW193819   4.528   5.142   6.580 -1.4122  0.3801 -2.0111
30139SOL    HW293820   4.558   5.001   6.626 -0.0301  1.6485  1.3058
30140SOL     OW93821   2.924   8.802   7.303 -0.5920  0.4287 -0.2642
30140SOL    HW193822   2.914   8.818   7.210  1.3078  1.2013 -0.3775
30140SOL    HW293823   2.961   8.883   7.338 -2.8480  0.7851  1.5021
30141SOL     OW93824  10.101  10.754   7.002  0.0658 -0.1830  0.0042
30141SOL    HW193825  10.073  10.846   6.999  0.9555  0.0725 -0.8511
30141SOL    HW293826  10.030  10.709   7.048  0.0146  1.0723  1.2221
30142SOL     OW93827   0.500   3.572   7.276 -0.2326 -0.1082 -0.0102
30142SOL    HW193828   0.488   3.597   7.185  0.6781  0.2734 -0.0373
30142SOL    HW293829   0.575   3.512   7.274 -0.5376 -0.5129  0.4261
30143SOL     OW93830   8.145   4.131   9.176 -0.0598 -0.0979 -0.0309
30143SOL    HW193831   8.151   4.220   9.210  1.6104 -0.2148  0.0572
30143SOL    HW293832   8.197   4.078   9.237 -0.2119 -0.9650 -0.6317
30144SOL     OW93833   2.962   2.821   9.269  0.0204 -0.0142  0.2442
30144SOL    HW193834   3.057   2.815   9.285  0.2285 -0.7468 -1.1191
30144SOL    HW293835   2.943   2.915   9.275  0.8920  0.1772  0.1947
30145SOL     OW93836   3.057   3.006  10.715 -0.9529 -0.2508  0.3627
30145SOL    HW193837   3.006   3.053  10.781 -1.0383  2.1305 -1.2766
30145SOL    HW293838   3.142   2.989  10.758 -1.0419  1.1093  1.1321
30146SOL     OW93839   8.873   3.362  10.698  0.1767  0.3840 -0.1499
30146SOL    HW193840   8.861   3.292  10.634  1.0653  1.6680 -1.7763
30146SOL    HW293841   8.862   3.318  10.783  0.6996 -1.7328 -1.0963
30147SOL     OW93842   2.350   0.966   4.756  0.0247 -0.3222  0.1277
30147SOL    HW193843   2.374   1.035   4.694  2.6278 -0.6560  0.6766
30147SOL    HW293844   2.326   1.012   4.836 -0.0661 -0.0032 -0.0827
30148SOL     OW93845   6.232   4.423   0.256 -0.6610 -0.3782 -0.3917
30148SOL    HW193846   6.167   4.424   0.327  0.0952  1.1604  0.3208
30148SOL    HW293847   6.288   4.498   0.274 -0.6073  0.2192 -2.7945
30149SOL     OW93848   0.601   4.285   5.641  0.2470 -0.0547 -0.1037
30149SOL    HW193849   0.551   4.244   5.570 -0.9749  0.2297  0.5543
30149SOL    HW293850   0.581   4.231   5.718 -0.0687  0.7944  0.4292
30150SOL     OW93851   2.478   9.154   7.603  0.0130 -0.8827  0.2700
30150SOL    HW193852   2.388   9.171   7.575  0.3997 -0.4424 -0.7286
30150SOL    HW293853   2.504   9.076   7.555  0.8530  0.1709 -1.0625
30151SOL     OW93854   0.734   9.031   5.799  0.3634  0.2216  0.3354
30151SOL    HW193855   0.668   9.026   5.729 -0.2972 -0.6214  0.9834
30151SOL    HW293856   0.700   9.097   5.859 -0.4077 -0.8867  1.1539
30152SOL     OW93857   0.384   4.476   0.161  0.1799 -0.3616  0.0710
30152SOL    HW193858   0.340   4.408   0.212 -0.3111 -0.0767  0.0387
30152SOL    HW293859   0.468   4.489   0.204  1.3433 -2.7076 -1.3277
30153SOL     OW93860   1.402   9.451   5.164  0.4564  0.2144 -0.6965
30153SOL    HW193861   1.450   9.505   5.102  2.4352  1.2023  1.5535
30153SOL    HW293862   1.363   9.514   5.225 -2.0064 -0.6888 -1.2253
30154SOL     OW93863   2.690   0.441   4.894 -0.2869  0.5164  0.0839
30154SOL    HW193864   2.611   0.446   4.948 -1.1301 -1.3435 -0.8819
30154SOL    HW293865   2.751   0.502   4.935 -1.1762 -0.1892  2.6287
30155SOL     OW93866   5.625   7.689  10.012 -0.1718 -0.1045 -0.1410
30155SOL    HW193867   5.657   7.719  10.097 -0.7677  1.5555 -0.4741
30155SOL    HW293868   5.683   7.730   9.948  0.5056 -1.6382 -0.5722
30156SOL     OW93869   1.935  10.248   7.484  0.3927  0.3619 -1.0079
30156SOL    HW193870   2.010  10.191   7.468  0.4259  0.3734 -0.8950
30156SOL    HW293871   1.893  10.212   7.563 -0.7612 -0.7207 -2.0777
30157SOL     OW93872   0.118   0.783   5.296 -0.4008 -0.2540 -0.6436
30157SOL    HW193873   0.177   0.757   5.368 -2.1423 -1.8616  0.3158
30157SOL    HW293874   0.167   0.849   5.247  1.8465 -0.9108  0.5664
30158SOL     OW93875   4.951   9.889  10.198  0.1208  0.1500 -0.1949
30158SOL    HW193876   4.942   9.799  10.230 -2.7860  0.3472 -0.1847
30158SOL    HW293877   4.976   9.939  10.276 -1.8301 -0.1573  0.6963
30159SOL     OW93878   5.605   6.927   6.223 -0.0883  0.0094 -0.0386
30159SOL    HW193879   5.643   6.850   6.267 -1.1082 -0.2967  0.3263
30159SOL    HW293880   5.514   6.928   6.251 -0.2787  0.9203 -0.6584
30160SOL     OW93881   8.106   1.820   5.396 -0.1348 -0.5430 -0.4641
30160SOL    HW193882   8.161   1.841   5.471 -0.3794  0.7046 -0.6159
30160SOL    HW293883   8.072   1.732   5.415  0.5974 -0.6532  0.3979
30161SOL     OW93884   8.820   4.742   3.531  0.0874 -0.5025 -0.5116
30161SOL    HW193885   8.753   4.809   3.518  0.6651 -0.0922 -1.4358
30161SOL    HW293886   8.797   4.672   3.469 -0.7764 -1.3990  0.7624
30162SOL     OW93887   7.616   4.976   7.925  0.1330  0.4657 -0.0729
30162SOL    HW193888   7.688   5.035   7.903  0.1376 -0.4241 -2.7669
30162SOL    HW293889   7.540   5.033   7.938  0.0173  1.1393 -3.0964
30163SOL     OW93890   3.397   6.551   0.463  0.1225 -0.3596  0.0371
30163SOL    HW193891   3.330   6.516   0.522 -0.0925 -0.2237 -0.1233
30163SOL    HW293892   3.378   6.645   0.458 -2.6057 -0.8564 -3.5565
30164SOL     OW93893   8.829   0.302   6.187  0.3708 -0.0034  0.0125
30164SOL    HW193894   8.772   0.364   6.142 -0.0661  0.4123  1.1062
30164SOL    HW293895   8.881   0.356   6.247  0.3861 -0.6144  0.5693
30165SOL     OW93896   0.159  10.915   9.974 -0.7223 -0.6120 -0.0501
30165SOL    HW193897   0.166  10.866   9.893 -0.2205  1.5231 -1.3763
30165SOL    HW293898   0.158  10.848  10.043 -0.4036 -2.4444 -1.7413
30166SOL     OW93899   2.996   3.328   3.262 -0.3156  0.0002  0.1559
30166SOL    HW193900   2.920   3.270   3.255 -0.4431  0.0326  1.1991
30166SOL    HW293901   3.029   3.314   3.350 -0.7759  2.0333  0.7020
30167SOL     OW93902   8.965   9.770   3.168  0.0685 -0.1536  0.1895
30167SOL    HW193903   8.930   9.859   3.160  1.1191  0.2089 -0.5800
30167SOL    HW293904   9.049   9.781   3.212  0.2636 -0.7409 -0.0271
30168SOL     OW93905   8.000   6.337   3.331 -0.6096  0.1731  0.1075
30168SOL    HW193906   7.923   6.350   3.275 -0.4830  2.4549  0.3624
30168SOL    HW293907   8.011   6.421   3.376  0.7175 -0.8401  1.7668
30169SOL     OW93908   2.769   8.574   4.347  0.0197 -0.3609 -0.2252
30169SOL    HW193909   2.705   8.506   4.322  0.9721 -1.7975  1.0488
30169SOL    HW293910   2.850   8.526   4.362  1.2725  1.3499 -1.1944
30170SOL     OW93911   1.114   5.206   9.957 -0.3835  0.3375  0.0957
30170SOL    HW193912   1.066   5.137   9.912  2.9517 -1.2660 -1.3710
30170SOL    HW293913   1.101   5.284   9.903 -0.8809 -0.1842 -0.5436
30171SOL     OW93914   8.147   2.647   3.291 -0.1987  0.5154 -0.0267
30171SOL    HW193915   8.084   2.718   3.278  0.8299  1.3938 -0.3344
30171SOL    HW293916   8.204   2.651   3.214 -1.3004 -1.9192 -1.0605
30172SOL     OW93917   6.038   1.277   1.936 -0.8339  0.2222  0.1238
30172SOL    HW193918   5.976   1.206   1.918 -0.8645  0.2700  0.0424
30172SOL    HW293919   6.118   1.250   1.892 -1.3715  1.0984 -1.4570
30173SOL     OW93920   5.537   7.305   3.816 -0.2412 -0.0018  0.1420
30173SOL    HW193921   5.551   7.393   3.781  1.6829 -0.0200  0.7868
30173SOL    HW293922   5.466   7.316   3.879 -0.7297  0.8680 -0.5187
30174SOL     OW93923   3.727  10.895   5.780  0.6851  0.3100  0.2345
30174SOL    HW193924   3.799  10.937   5.826  0.3560  1.5562 -0.3439
30174SOL    HW293925   3.761  10.876   5.693  0.6342 -0.0396  0.2901
30175SOL     OW93926   4.725   8.087   0.189  0.4605 -0.1355 -0.5939
30175SOL    HW193927   4.722   8.102   0.095 -1.2098 -0.5064 -0.6284
30175SOL    HW293928   4.638   8.054   0.211  1.2550 -1.4158  0.8517
30176SOL     OW93929   9.623   0.301   2.903  0.4047  0.4545  0.1413
30176SOL    HW193930   9.621   0.221   2.850  0.8359  0.4442  0.1404
30176SOL    HW293931   9.699   0.349   2.871  0.3338  0.7166  0.3617
30177SOL     OW93932  10.220   7.662  10.885  0.0534 -0.2055 -0.1630
30177SOL    HW193933  10.188   7.588  10.935 -0.1745 -0.1183 -0.1769
30177SOL    HW293934  10.208   7.737  10.943 -1.3899  0.0884 -0.8024
30178SOL     OW93935   3.157   6.178   7.145  0.2350 -0.5426  0.0939
30178SOL    HW193936   3.247   6.201   7.122  0.4538  0.2917  1.6922
30178SOL    HW293937   3.112   6.172   7.060  1.0973  1.9707 -0.6364
30179SOL     OW93938   3.464   4.139   4.628  0.0700 -0.2298 -0.4174
30179SOL    HW193939   3.386   4.194   4.635  0.3048  0.0253  0.2020
30179SOL    HW293940   3.505   4.167   4.546  0.9863  1.5970  0.6066
30180SOL     OW93941  10.873   5.949   1.003 -0.3054  0.1585  0.4797
30180SOL    HW193942  10.838   6.012   1.066  0.1056  0.4254  0.4487
30180SOL    HW293943  10.888   6.001   0.923 -0.6762 -0.1427  0.2096
30181SOL     OW93944   2.296   7.616   7.879 -0.6120 -0.0355 -0.5617
30181SOL    HW193945   2.373   7.667   7.854 -0.6965  0.3445 -0.0680
30181SOL    HW293946   2.233   7.631   7.809 -1.0620  1.4833  0.1253
30182SOL     OW93947   2.487   6.652   6.080  0.1149 -0.1606  0.7717
30182SOL    HW193948   2.456   6.737   6.049 -0.6743 -0.5429  0.4710
30182SOL    HW293949   2.419   6.624   6.142 -1.0520 -1.7527 -1.0990
30183SOL     OW93950   0.533   0.890   0.449  0.2637 -0.1049  0.2017
30183SOL    HW193951   0.613   0.939   0.431  0.3386  0.3565  1.6382
30183SOL    HW293952   0.467   0.929   0.391  1.0194 -0.3865 -0.8799
30184SOL     OW93953   6.075  10.598   5.879  0.0780 -0.3315 -0.2048
30184SOL    HW193954   6.161  10.623   5.914  0.8012 -0.6780 -1.6524
30184SOL    HW293955   6.030  10.556   5.952  1.1539 -0.1755  0.5664
30185SOL     OW93956   0.508   7.012  10.369  0.1223 -0.4488 -0.3466
30185SOL    HW193957   0.541   6.922  10.365 -1.7482 -1.1375 -1.8812
30185SOL    HW293958   0.501   7.039  10.277 -0.9992  0.5960  0.0178
30186SOL     OW93959   8.622   2.918   9.200 -0.4278 -0.3355 -0.2356
30186SOL    HW193960   8.550   2.927   9.262  0.6265  0.5618  0.9116
30186SOL    HW293961   8.638   2.824   9.195 -1.2635 -0.4971 -0.0357
30187SOL     OW93962   9.214   8.401   9.085  0.4207 -0.1776 -0.0226
30187SOL    HW193963   9.170   8.486   9.082  0.5278 -0.0561  1.2961
30187SOL    HW293964   9.307   8.422   9.088  0.4191 -0.3023  1.1729
30188SOL     OW93965   9.524   6.388   5.295  0.4263  0.4349 -0.6662
30188SOL    HW193966   9.579   6.465   5.306 -1.0105  1.9746 -3.0121
30188SOL    HW293967   9.543   6.358   5.206 -1.3738  0.1575 -1.0130
30189SOL     OW93968   8.164   7.313  10.212  0.3037 -0.3125 -0.0239
30189SOL    HW193969   8.236   7.291  10.271  1.4344 -0.9041 -1.5345
30189SOL    HW293970   8.118   7.230  10.199 -0.8516  0.1212  1.1527
30190SOL     OW93971   0.951   0.895   1.654 -0.4272  0.2154 -0.1273
30190SOL    HW193972   1.009   0.917   1.581  0.5200  1.0691  0.8482
30190SOL    HW293973   0.915   0.809   1.630  2.5117 -1.1815 -0.0749
30191SOL     OW93974   3.645   7.761   3.330  0.1135 -0.1212 -0.2059
30191SOL    HW193975   3.612   7.671   3.334 -0.7686  0.1506 -1.0209
30191SOL    HW293976   3.577   7.810   3.284  0.6131  0.9568  0.1542
30192SOL     OW93977  10.335   1.099  10.032  0.7251  0.4357 -0.4984
30192SOL    HW193978  10.247   1.137  10.030  0.4883 -0.0852 -0.0084
30192SOL    HW293979  10.363   1.101   9.940 -0.3150 -0.5948 -0.8586
30193SOL     OW93980   9.579   0.214   6.390 -0.1187  0.0970  0.0781
30193SOL    HW193981   9.504   0.236   6.444 -0.8214  0.1452 -0.8874
30193SOL    HW293982   9.545   0.150   6.327  0.6348  0.1407 -0.3882
30194SOL     OW93983   6.200   8.161   3.167  0.3117 -0.1084 -0.6833
30194SOL    HW193984   6.190   8.084   3.224  3.5916 -0.1671 -0.0374
30194SOL    HW293985   6.289   8.155   3.133 -0.1553  2.1728 -2.5460
30195SOL     OW93986   4.641   6.080   7.951 -0.1911 -0.2521 -0.2613
30195SOL    HW193987   4.612   6.061   8.040  0.3506  0.0396 -0.0139
30195SOL    HW293988   4.628   5.999   7.902  3.2092 -1.7712  1.0330
30196SOL     OW93989   9.254   2.427   8.631  0.8730 -0.1126  0.1011
30196SOL    HW193990   9.185   2.472   8.678  1.3861 -1.1706  1.9569
30196SOL    HW293991   9.214   2.401   8.548  0.7840  4.4036 -1.5825
30197SOL     OW93992   0.491  10.897   9.898  0.0303  0.1395 -0.1639
30197SOL    HW193993   0.448  10.848   9.969  0.6580  1.7062  1.3764
30197SOL    HW293994   0.514  10.831   9.833  0.3547 -1.5390  1.5786
30198SOL     OW93995   0.881   1.374   6.693  0.0741  0.2451  0.0909
30198SOL    HW193996   0.885   1.278   6.690  2.2699  0.3093 -1.0615
30198SOL    HW293997   0.849   1.399   6.606 -0.1126  0.5677  0.2539
30199SOL     OW93998   7.741   9.713   8.911 -0.1338 -0.4577 -0.1769
30199SOL    HW193999   7.800   9.756   8.973 -0.1406  0.7577 -0.9863
30199SOL    HW294000   7.791   9.707   8.830 -0.6668 -0.5973 -0.5024
30200SOL     OW94001   4.489   1.195   0.872 -0.4696 -0.3400  0.2699
30200SOL    HW194002   4.547   1.152   0.809 -1.6845  1.6991 -2.4871
30200SOL    HW294003   4.548   1.238   0.934  0.9282 -0.1032 -1.1504
30201SOL     OW94004   5.947   5.063   1.731 -0.4758 -0.0883 -0.2120
30201SOL    HW194005   5.866   5.091   1.773 -1.6827 -1.2561 -1.6511
30201SOL    HW294006   6.017   5.101   1.785 -1.9636  1.1279  0.9301
30202SOL     OW94007   6.688   6.086   1.745 -0.2864 -0.5336  0.2530
30202SOL    HW194008   6.610   6.101   1.692 -1.5648 -1.4882  1.7942
30202SOL    HW294009   6.655   6.064   1.832  1.7138 -0.5179  1.0710
30203SOL     OW94010   2.581   9.080   4.889 -0.4836 -0.5662 -0.0002
30203SOL    HW194011   2.527   9.010   4.851  1.3627 -0.7402 -2.5699
30203SOL    HW294012   2.606   9.134   4.814  1.1775  0.7052  1.3955
30204SOL     OW94013   9.466   4.995   7.488 -0.2903  0.5573 -0.1742
30204SOL    HW194014   9.435   5.085   7.479 -1.1177  0.2249 -0.7443
30204SOL    HW294015   9.467   4.980   7.583 -1.2825  0.7923 -0.1106
30205SOL     OW94016   8.451  10.042   7.640  0.3877 -0.0908 -0.1012
30205SOL    HW194017   8.405  10.095   7.705 -4.2305 -1.6417 -1.6866
30205SOL    HW294018   8.453  10.097   7.562 -0.8247 -0.8012 -0.6467
30206SOL     OW94019   5.558   3.144   8.095 -0.0452  0.6639  0.3795
30206SOL    HW194020   5.648   3.177   8.096  0.2450  0.0903 -1.8429
30206SOL    HW294021   5.557   3.074   8.161  1.5310 -0.2446 -0.5200
30207SOL     OW94022   9.906  10.179   8.153 -0.1075 -0.1144  0.1093
30207SOL    HW194023   9.868  10.127   8.082 -0.3510 -0.1060  0.2342
30207SOL    HW294024   9.832  10.204   8.208 -0.1688  1.4108 -0.6239
30208SOL     OW94025  10.101   6.141   1.834  0.1383 -0.3473 -0.2228
30208SOL    HW194026  10.019   6.128   1.787 -1.1900  1.1693  1.5026
30208SOL    HW294027  10.136   6.223   1.798 -0.6687  0.5913  1.0460
30209SOL     OW94028   9.042   0.423   1.226  0.4470  0.1747 -0.1391
30209SOL    HW194029   9.021   0.497   1.169 -0.1125  2.7565  3.1462
30209SOL    HW294030   9.137   0.413   1.219  0.3683  0.1239 -1.7118
30210SOL     OW94031   0.365   4.639   2.163 -0.0899 -0.1301  0.2232
30210SOL    HW194032   0.448   4.593   2.175  0.7986  1.3861  0.2606
30210SOL    HW294033   0.391   4.730   2.147 -1.7797  0.4823  0.7866
30211SOL     OW94034   9.622   5.502   9.477  0.3654 -0.8625  0.0550
30211SOL    HW194035   9.546   5.497   9.536  0.3331 -1.6015 -0.0478
30211SOL    HW294036   9.697   5.487   9.535  0.3298 -1.6457 -0.1011
30212SOL     OW94037   4.062   2.091   1.010  0.0188  0.1048 -0.1760
30212SOL    HW194038   4.083   2.075   1.102 -1.7355  3.6409  1.0071
30212SOL    HW294039   4.080   2.184   0.997 -0.0349 -0.2310 -3.3944
30213SOL     OW94040   8.854   6.662   0.064  0.3123  0.0796  0.9695
30213SOL    HW194041   8.865   6.654  -0.030 -1.6629 -0.7177  0.7349
30213SOL    HW294042   8.930   6.619   0.102 -0.6363 -3.0261 -0.3376
30214SOL     OW94043   7.399   1.946   0.314 -0.6949 -0.4158  0.2068
30214SOL    HW194044   7.378   2.003   0.388 -2.3689 -1.5022  0.6320
30214SOL    HW294045   7.407   1.859   0.353 -0.8273 -0.8895 -0.7823
30215SOL     OW94046   3.178   9.574   5.105  0.0800 -0.6372 -0.9746
30215SOL    HW194047   3.084   9.591   5.101 -0.3198 -2.0926  0.8048
30215SOL    HW294048   3.184   9.480   5.123  1.8685 -0.5108 -0.7713
30216SOL     OW94049   4.002   1.293   0.166  0.1997 -0.5457  0.3140
30216SOL    HW194050   3.952   1.364   0.206 -0.7459 -2.0744  2.0220
30216SOL    HW294051   3.985   1.300   0.072 -1.8254  0.0243  0.6858
30217SOL     OW94052   6.144  10.136   4.506  0.4938  0.2222  0.2929
30217SOL    HW194053   6.109  10.084   4.579 -1.2395  0.5910 -0.2343
30217SOL    HW294054   6.101  10.221   4.514 -0.1556  0.1012 -1.4606
30218SOL     OW94055   5.289   5.000   5.895  0.0175 -0.6920 -0.2845
30218SOL    HW194056   5.348   4.977   5.966 -0.5360 -2.1500 -0.2682
30218SOL    HW294057   5.346   5.036   5.827  0.4374  1.8675  1.2660
30219SOL     OW94058   3.888   4.203   5.812  0.2363 -0.0334 -0.3913
30219SOL    HW194059   3.891   4.160   5.898 -0.3632 -1.7574 -1.1788
30219SOL    HW294060   3.964   4.262   5.812  0.2353  0.0107  1.3105
30220SOL     OW94061   3.086   8.125   6.377 -0.3443  0.0866 -0.4312
30220SOL    HW194062   2.996   8.096   6.359  0.4206 -1.4640 -2.1207
30220SOL    HW294063   3.097   8.111   6.471 -1.8124  0.1314 -0.2295
30221SOL     OW94064   5.492   6.018   5.527  0.3718 -0.2109 -0.4389
30221SOL    HW194065   5.436   5.999   5.603  0.7999 -0.1487 -0.1007
30221SOL    HW294066   5.438   6.073   5.471  0.5932  1.1284  0.5946
30222SOL     OW94067   5.145   5.255   2.647 -0.0529  0.0595  0.2235
30222SOL    HW194068   5.100   5.287   2.569 -0.9927  0.2773  0.8354
30222SOL    HW294069   5.182   5.170   2.621  0.8076  0.7267 -0.8430
30223SOL     OW94070   0.786   4.402   1.448  0.1269 -0.5922 -0.3680
30223SOL    HW194071   0.724   4.383   1.519  0.8604 -1.4609  0.0789
30223SOL    HW294072   0.753   4.352   1.373  1.6598 -3.2953  0.6071
30224SOL     OW94073   5.080   8.402   0.230  0.3084  0.0841  0.2664
30224SOL    HW194074   5.091   8.444   0.145 -1.8555  0.6299  0.1841
30224SOL    HW294075   5.145   8.445   0.286  2.7469 -1.2752 -1.3538
30225SOL     OW94076   2.195   3.996  10.747 -0.3430  0.2051 -0.7596
30225SOL    HW194077   2.248   4.061  10.793 -0.1997 -0.4308 -0.0106
30225SOL    HW294078   2.241   3.982  10.665 -0.0287  0.5797 -0.6524
30226SOL     OW94079   4.158   1.664   8.224  0.1156 -0.4916  0.2805
30226SOL    HW194080   4.166   1.634   8.134 -0.1659 -1.4985  0.5689
30226SOL    HW294081   4.163   1.584   8.276 -0.9130 -0.0615  1.0851
30227SOL     OW94082   7.887  10.060   7.067  0.4327 -0.0633  0.1808
30227SOL    HW194083   7.845   9.980   7.099  0.1620 -0.7128 -1.7076
30227SOL    HW294084   7.824  10.097   7.005  0.4113  1.8193  1.2543
30228SOL     OW94085   3.729   6.320   7.398 -0.0136  0.1706 -0.3528
30228SOL    HW194086   3.634   6.311   7.405 -0.1936  1.5705 -0.6870
30228SOL    HW294087   3.764   6.259   7.463 -1.1481 -0.2369 -0.1098
30229SOL     OW94088   0.253   9.156   3.833 -0.0413 -0.3420  0.2512
30229SOL    HW194089   0.194   9.170   3.907 -0.3857  0.9346 -0.2323
30229SOL    HW294090   0.195   9.139   3.758  0.1748  0.8337 -0.2077
30230SOL     OW94091   0.012   3.478   0.599  0.5685 -0.1228  0.6875
30230SOL    HW194092  -0.061   3.539   0.587  0.9289  0.0178 -1.0553
30230SOL    HW294093  -0.003   3.440   0.685 -1.4393  0.0671  0.4775
30231SOL     OW94094   0.537   5.513   1.765 -0.2506 -0.4570  0.1923
30231SOL    HW194095   0.445   5.528   1.742 -0.3959  0.4372  1.2972
30231SOL    HW294096   0.586   5.569   1.705 -0.3167 -1.8594 -1.2518
30232SOL     OW94097  10.837   9.884   2.018  0.4017 -0.5542  0.8428
30232SOL    HW194098  10.930   9.884   2.040  0.5477 -1.0291  0.2372
30232SOL    HW294099  10.830   9.825   1.943 -0.1065  0.8794 -0.2783
30233SOL     OW94100   3.863   8.927   6.689  0.1510  0.6451  0.1751
30233SOL    HW194101   3.932   8.867   6.661  0.2818  1.8700 -2.3331
30233SOL    HW294102   3.867   8.924   6.785  4.4880  1.5553  0.2368
30234SOL     OW94103   9.747   3.384   7.451 -0.6152 -0.2876 -0.5538
30234SOL    HW194104   9.802   3.433   7.512 -1.4193  1.3118 -1.0367
30234SOL    HW294105   9.768   3.422   7.365 -2.5695  0.4990 -0.7199
30235SOL     OW94106   7.876  10.332   6.152 -0.1735 -0.0019 -0.1697
30235SOL    HW194107   7.817  10.277   6.100  0.1646 -0.7224  0.2026
30235SOL    HW294108   7.849  10.422   6.131  0.7518 -0.2098 -2.5610
30236SOL     OW94109   0.458   7.139   0.005  0.2526  0.1879 -0.4461
30236SOL    HW194110   0.524   7.123  -0.063  1.2227  0.1453  0.4746
30236SOL    HW294111   0.443   7.054   0.045  0.3182  0.3585 -0.0518
30237SOL     OW94112   9.100   1.446   9.816 -0.5568 -0.8739 -0.5056
30237SOL    HW194113   9.177   1.493   9.845  0.1836 -0.7653 -2.5017
30237SOL    HW294114   9.108   1.359   9.856  1.9395 -1.7077 -2.5310
30238SOL     OW94115   6.286   2.989   6.551 -0.1688 -0.3206  0.1793
30238SOL    HW194116   6.310   2.928   6.621 -1.4632 -0.2632  0.6899
30238SOL    HW294117   6.255   3.067   6.597  1.3526  0.7103 -0.4643
30239SOL     OW94118   6.767  10.107   5.015  0.7283 -0.5578  0.2515
30239SOL    HW194119   6.833  10.151   4.961  1.4674 -1.0255  0.7616
30239SOL    HW294120   6.716  10.055   4.953 -0.5035  1.3748 -0.4554
30240SOL     OW94121   1.754   6.909   7.643  0.4206 -0.1971 -0.4554
30240SOL    HW194122   1.749   6.848   7.570  1.8591  1.0507 -1.6644
30240SOL    HW294123   1.704   6.985   7.613 -1.1508 -0.6244  0.9321
30241SOL     OW94124   1.753   1.443   8.996 -0.3014  0.1125 -0.2478
30241SOL    HW194125   1.762   1.526   8.950 -1.1364  0.3823  0.0423
30241SOL    HW294126   1.670   1.452   9.044 -1.3401 -1.5757 -1.6356
30242SOL     OW94127   4.198   5.775   3.407 -0.8369  0.5329  0.2175
30242SOL    HW194128   4.176   5.839   3.339  1.1607  1.8871  0.7639
30242SOL    HW294129   4.116   5.762   3.455 -1.6497  1.5151 -0.8421
30243SOL     OW94130   0.907   2.038   3.568 -0.3792  0.2066 -0.1944
30243SOL    HW194131   0.881   2.099   3.637 -0.3506 -0.0365  0.0337
30243SOL    HW294132   0.898   2.088   3.487  1.5152  1.1669  0.1293
30244SOL     OW94133  10.869   0.139   2.318 -0.0281  0.2952 -0.2016
30244SOL    HW194134  10.777   0.117   2.309  0.4213 -1.4886 -0.8421
30244SOL    HW294135  10.884   0.138   2.413 -0.6170  0.3802 -0.1044
30245SOL     OW94136  10.086   3.769   9.762 -0.2543 -0.4340  0.3164
30245SOL    HW194137   9.999   3.763   9.803 -0.3855 -2.7123 -0.1606
30245SOL    HW294138  10.096   3.862   9.740 -2.9800 -0.2482 -0.4822
30246SOL     OW94139   5.268   2.570   5.860 -0.3489  0.4026 -0.2941
30246SOL    HW194140   5.333   2.572   5.930 -0.7937  0.4165  0.1258
30246SOL    HW294141   5.292   2.494   5.806 -0.0367  0.3596 -0.0939
30247SOL     OW94142   0.630   5.701   4.713 -0.0274 -0.2959 -0.0318
30247SOL    HW194143   0.701   5.752   4.672  0.2810 -0.5170  0.2224
30247SOL    HW294144   0.672   5.619   4.738 -0.6293 -0.8714 -0.8722
30248SOL     OW94145   4.594   8.312   7.467  0.4813 -0.4308  0.8535
30248SOL    HW194146   4.649   8.373   7.515 -0.0300  1.0824 -0.4126
30248SOL    HW294147   4.639   8.299   7.383 -0.4784 -0.0855  0.2698
30249SOL     OW94148   1.493   4.778   6.617 -0.1100  0.0302  0.7304
30249SOL    HW194149   1.420   4.819   6.571  0.0050 -1.2707 -0.7110
30249SOL    HW294150   1.551   4.850   6.641 -0.3068  0.8060 -0.9874
30250SOL     OW94151   3.812  10.879   3.981 -0.6519  0.0023 -0.2324
30250SOL    HW194152   3.781  10.789   3.973 -0.8353 -0.0702  1.0412
30250SOL    HW294153   3.885  10.874   4.042 -0.8989  0.7486  0.1469
30251SOL     OW94154   7.000   8.303   4.558  0.2697  0.2414 -0.2279
30251SOL    HW194155   6.938   8.337   4.622  1.9807  1.6065  0.8108
30251SOL    HW294156   7.030   8.220   4.595 -1.6859 -1.0283 -1.2964
30252SOL     OW94157   7.838   9.761   5.688  0.0782 -0.1415  0.0091
30252SOL    HW194158   7.860   9.850   5.662  0.8823 -0.6023 -0.9353
30252SOL    HW294159   7.895   9.743   5.763 -2.5346  1.3374  2.5916
30253SOL     OW94160   6.151   1.015  10.778  0.3477 -0.4485  0.3004
30253SOL    HW194161   6.142   1.039  10.686  0.2295  1.8443  0.8568
30253SOL    HW294162   6.100   0.934  10.786  0.4793 -0.7757 -1.6586
30254SOL     OW94163   1.003  10.893   4.966 -0.2250  0.1978  0.0228
30254SOL    HW194164   1.010  10.933   4.879  0.1729 -0.4546 -0.2504
30254SOL    HW294165   0.946  10.953   5.015 -0.7485  0.3869 -0.7952
30255SOL     OW94166   3.730   2.765   2.033  0.7121 -0.0349  0.0482
30255SOL    HW194167   3.672   2.725   2.098  0.4153 -0.7419 -0.6329
30255SOL    HW294168   3.683   2.843   2.003 -0.3988 -1.1438 -1.2413
30256SOL     OW94169   4.807   5.165   2.892  0.7923 -0.2233 -0.2958
30256SOL    HW194170   4.772   5.245   2.853 -0.0001 -0.4236 -0.0171
30256SOL    HW294171   4.896   5.158   2.858  0.7688  0.6218 -0.5467
30257SOL     OW94172   8.086   3.252   2.462  0.3410 -0.3921 -0.4991
30257SOL    HW194173   8.122   3.338   2.482 -1.3655  0.1283  0.5202
30257SOL    HW294174   7.994   3.268   2.442 -0.0832 -2.0207 -0.0020
30258SOL     OW94175  10.238   0.406   1.789  0.8100 -0.0264  1.0475
30258SOL    HW194176  10.291   0.328   1.773  0.4037  0.2877 -2.5720
30258SOL    HW294177  10.187   0.384   1.867  0.8781 -3.3250  0.3262
30259SOL     OW94178   4.941   5.113   6.824 -0.0202  0.0327  0.0274
30259SOL    HW194179   4.850   5.090   6.843 -0.1945  0.3861 -0.3550
30259SOL    HW294180   4.955   5.197   6.868  0.0147  0.1452 -0.1960
30260SOL     OW94181   6.979   4.419   3.600 -0.1974  0.0717 -0.0726
30260SOL    HW194182   7.069   4.392   3.585  0.1199  0.5272  0.9197
30260SOL    HW294183   6.964   4.488   3.535 -0.2285 -0.8097 -1.0161
30261SOL     OW94184   9.444   6.929   5.110  0.0999 -0.8537  0.3018
30261SOL    HW194185   9.477   6.905   5.196  1.7351 -0.1547 -0.0861
30261SOL    HW294186   9.506   6.890   5.048  0.8967  1.3937 -0.4271
30262SOL     OW94187   9.756   5.396   8.443 -0.2041  0.2798 -0.3375
30262SOL    HW194188   9.744   5.491   8.436  2.0335  0.8395  2.0201
30262SOL    HW294189   9.667   5.362   8.455 -0.8528  2.4015  1.5477
30263SOL     OW94190   4.208   1.985   5.233  0.0409 -0.0132  0.2755
30263SOL    HW194191   4.286   2.031   5.200  0.7360 -0.1214  1.6995
30263SOL    HW294192   4.216   1.897   5.198  0.2087  0.1529 -0.1209
30264SOL     OW94193   4.302   6.208   1.614 -0.4557  0.3889 -0.1244
30264SOL    HW194194   4.246   6.181   1.542  2.1508 -0.2851 -2.0462
30264SOL    HW294195   4.293   6.303   1.618  0.5232  0.6341 -2.4639
30265SOL     OW94196   9.056  10.490   9.718  0.5372 -0.1135  0.4246
30265SOL    HW194197   9.022  10.420   9.772  0.7089  0.1073  0.8218
30265SOL    HW294198   8.990  10.559   9.722  1.6059  0.8766  2.3141
30266SOL     OW94199   3.012   6.820   2.981 -0.4388 -0.3479  0.3604
30266SOL    HW194200   3.077   6.845   3.046 -2.6546 -0.4026  2.7803
30266SOL    HW294201   2.974   6.739   3.015 -1.2604 -0.7062 -1.3385
30267SOL     OW94202   1.741   8.539   5.167  0.0329  0.8298  0.0894
30267SOL    HW194203   1.662   8.584   5.135 -0.4632 -1.3022 -2.0120
30267SOL    HW294204   1.803   8.609   5.184 -1.6841  2.4780 -0.0340
30268SOL     OW94205   0.472   4.604   7.622 -0.2261 -0.3944 -0.0108
30268SOL    HW194206   0.486   4.540   7.552 -0.4165 -0.5069  0.0543
30268SOL    HW294207   0.383   4.637   7.607 -0.2488 -0.3829  0.1496
30269SOL     OW94208  10.804   1.431   9.443  0.1447  0.1594 -0.0671
30269SOL    HW194209  10.859   1.506   9.421  1.4699 -0.4989  0.8816
30269SOL    HW294210  10.850   1.355   9.406 -1.4982 -0.1672 -1.5789
30270SOL     OW94211  10.593   4.407   3.665 -0.4471  0.0529 -0.4910
30270SOL    HW194212  10.565   4.360   3.744 -1.5424  0.1482 -0.8116
30270SOL    HW294213  10.667   4.460   3.695 -1.1307  0.4408  0.5963
30271SOL     OW94214   5.681   4.826   6.969  0.1488 -0.1938 -0.4589
30271SOL    HW194215   5.712   4.887   6.903  0.3288  0.1019 -0.1088
30271SOL    HW294216   5.734   4.748   6.957  0.6223  0.0928 -0.2510
30272SOL     OW94217   6.224   3.282   9.807 -0.6880  0.0121 -0.2616
30272SOL    HW194218   6.238   3.343   9.734 -0.9113  0.4536  0.0544
30272SOL    HW294219   6.129   3.267   9.808 -0.5310 -1.1227 -0.9449
30273SOL     OW94220   1.268   5.944   8.198 -0.3120  0.3780  0.0212
30273SOL    HW194221   1.175   5.933   8.218 -0.4161  0.8615 -0.1976
30273SOL    HW294222   1.279   6.037   8.181 -0.0568  0.1351 -1.2738
30274SOL     OW94223   8.608   0.257   3.018 -0.4626  0.2892 -0.6969
30274SOL    HW194224   8.529   0.241   2.967 -1.2850  0.4501  0.4771
30274SOL    HW294225   8.676   0.272   2.953 -1.7912  2.1000 -1.7538
30275SOL     OW94226   0.297  10.594   3.570  0.2236 -0.0137 -0.3915
30275SOL    HW194227   0.282  10.557   3.657  0.9812  0.3066 -0.1187
30275SOL    HW294228   0.391  10.587   3.556  0.5526  2.5482  0.0325
30276SOL     OW94229   1.552   9.350   9.025  0.5612  0.2960  0.3886
30276SOL    HW194230   1.565   9.419   8.959 -1.1369 -0.2805 -0.6294
30276SOL    HW294231   1.561   9.268   8.976  0.2496 -0.1581  1.0774
30277SOL     OW94232   5.167   2.506  10.556  0.0745 -0.5755 -0.3641
30277SOL    HW194233   5.110   2.429  10.554  1.9968 -2.0751 -0.4157
30277SOL    HW294234   5.180   2.530  10.464 -2.0822  1.1137 -0.3104
30278SOL     OW94235   2.210  10.802   7.250 -0.7959 -0.0295 -0.3187
30278SOL    HW194236   2.214  10.896   7.228 -0.7533 -0.2654 -1.3773
30278SOL    HW294237   2.223  10.758   7.166  0.9636 -1.0139  0.4288
30279SOL     OW94238   5.078   4.765   6.893 -0.2774 -0.4798 -0.2711
30279SOL    HW194239   5.082   4.790   6.985  0.0727  0.2200 -0.4748
30279SOL    HW294240   5.004   4.815   6.858 -0.6432 -1.0261 -0.2857
30280SOL     OW94241   4.095   2.405   9.656  0.2205 -0.2193  0.1504
30280SOL    HW194242   4.100   2.488   9.608 -0.9319  0.6549  1.4451
30280SOL    HW294243   4.003   2.400   9.684  0.9294 -0.3674  2.7240
30281SOL     OW94244   1.498  10.591   9.605 -0.2654 -0.1866  0.1468
30281SOL    HW194245   1.433  10.654   9.637 -1.2797 -1.4649  0.7093
30281SOL    HW294246   1.537  10.556   9.685  1.4289  0.8322 -0.1912
30282SOL     OW94247   8.881   4.744   9.657  0.0007 -0.4762  0.2726
30282SOL    HW194248   8.883   4.826   9.705  0.7980 -0.5436  0.3683
30282SOL    HW294249   8.964   4.742   9.609  0.0881 -1.3185  0.4435
30283SOL     OW94250   4.790   1.059   1.069  0.5954 -0.5556  0.1746
30283SOL    HW194251   4.788   1.074   0.974  2.2324  1.5738  0.4037
30283SOL    HW294252   4.862   0.997   1.082 -1.4770 -3.1988 -0.1364
30284SOL     OW94253   2.583   7.098  10.422 -0.1113  0.0227 -0.4709
30284SOL    HW194254   2.658   7.153  10.399  0.3508 -1.0465 -1.6654
30284SOL    HW294255   2.517   7.119  10.357 -0.8073  0.8206  0.4655
30285SOL     OW94256  10.320   1.954   9.469 -0.4194 -0.1839  0.3561
30285SOL    HW194257  10.327   1.864   9.501  1.5350 -1.2450 -2.6733
30285SOL    HW294258  10.271   1.948   9.388  0.7620  1.2772 -0.5341
30286SOL     OW94259   8.909   7.636   9.267  0.3642 -0.4465 -0.1717
30286SOL    HW194260   8.974   7.604   9.204  1.4172  0.2000  0.5487
30286SOL    HW294261   8.949   7.620   9.352 -0.1902  0.4615  0.2690
30287SOL     OW94262   6.999  10.148   2.908  0.1864  0.1093 -0.1557
30287SOL    HW194263   6.940  10.211   2.948  0.8361 -0.0491  1.1121
30287SOL    HW294264   6.948  10.109   2.837 -0.6215  1.2001 -0.2037
30288SOL     OW94265   7.205   1.209   1.449  0.1485  0.6663 -0.2504
30288SOL    HW194266   7.220   1.230   1.542 -0.2807 -1.2370  0.2935
30288SOL    HW294267   7.110   1.197   1.443  0.2397  0.2036 -0.7986
30289SOL     OW94268   2.545   6.687   2.237 -0.4503 -0.1675  0.0066
30289SOL    HW194269   2.551   6.764   2.292 -1.1349 -0.6020  0.7100
30289SOL    HW294270   2.627   6.640   2.252 -1.2206 -1.0420  1.8558
30290SOL     OW94271   9.123   7.471   8.763 -0.3388  0.0414  0.1951
30290SOL    HW194272   9.178   7.456   8.686  0.4049 -2.7277  1.1446
30290SOL    HW294273   9.044   7.513   8.728 -0.5831 -2.2237 -2.3629
30291SOL     OW94274   6.732   9.150   5.477 -0.3803  0.0865  0.0289
30291SOL    HW194275   6.801   9.199   5.432  1.0044 -0.2220  1.7313
30291SOL    HW294276   6.750   9.058   5.454 -0.7004  0.0635 -0.1364
30292SOL     OW94277   7.881   5.421   8.188 -0.2007 -0.5156 -0.0158
30292SOL    HW194278   7.928   5.346   8.152 -0.2956 -0.4414 -0.2998
30292SOL    HW294279   7.820   5.383   8.252 -0.4961 -0.7194 -0.4127
30293SOL     OW94280   2.903   1.258   2.255  0.8550  0.2665 -0.2880
30293SOL    HW194281   2.810   1.280   2.267  1.5156  2.4911  1.2950
30293SOL    HW294282   2.909   1.236   2.162 -1.0734  1.1266 -0.6828
30294SOL     OW94283   9.322   7.965   6.351 -0.0958  0.2686  0.3755
30294SOL    HW194284   9.377   7.906   6.299 -1.9958  0.6775 -2.3298
30294SOL    HW294285   9.326   8.048   6.303 -3.2681  0.2008 -0.1950
30295SOL     OW94286  10.196   3.118   5.180  0.1729 -0.4473  0.7207
30295SOL    HW194287  10.185   3.027   5.208  2.5838 -1.4288 -1.1098
30295SOL    HW294288  10.135   3.128   5.107 -0.7226 -0.3018  1.4820
30296SOL     OW94289   7.805   1.020   9.804  0.1529  0.2519 -0.4133
30296SOL    HW194290   7.713   0.995   9.792  0.0929 -0.1718  0.7848
30296SOL    HW294291   7.814   1.032   9.899  0.7367  2.7047 -0.7255
30297SOL     OW94292   5.344   0.178   7.098  0.1942  0.2435  0.3531
30297SOL    HW194293   5.309   0.267   7.103 -1.4184 -0.3786  0.5642
30297SOL    HW294294   5.297   0.138   7.025  0.8264 -0.4854  0.3344
30298SOL     OW94295   4.235   5.540   9.144  0.3417  0.1314 -0.3325
30298SOL    HW194296   4.274   5.622   9.174  1.1085 -0.0662 -0.7592
30298SOL    HW294297   4.225   5.488   9.224 -2.8287  1.6643  0.4331
30299SOL     OW94298  10.305   5.240   9.684 -0.7202 -0.1896 -0.1872
30299SOL    HW194299  10.360   5.167   9.655  1.1792  0.6945  1.0112
30299SOL    HW294300  10.358   5.286   9.748 -2.9403  0.6629  1.1586
30300SOL     OW94301  10.503   2.082   6.385 -0.4047  0.6936  0.2559
30300SOL    HW194302  10.592   2.114   6.370 -0.1465  0.7945  1.8801
30300SOL    HW294303  10.485   2.025   6.309  1.3071  0.0904  0.2647
30301SOL     OW94304   0.733   4.753   4.722 -0.0283  0.0327  0.2330
30301SOL    HW194305   0.681   4.704   4.785  1.5216  0.5603  2.0211
30301SOL    HW294306   0.672   4.813   4.680 -0.8478  0.7697  2.3946
30302SOL     OW94307   2.709   7.762   8.619 -0.5709  0.2135  0.1490
30302SOL    HW194308   2.750   7.748   8.534 -0.2476 -1.4133  0.5289
30302SOL    HW294309   2.619   7.786   8.599 -0.0587  1.5451 -0.6556
30303SOL     OW94310   7.860   1.549   8.818  0.7275 -0.3422 -0.1620
30303SOL    HW194311   7.794   1.547   8.749  0.9841  0.8342 -0.4562
30303SOL    HW294312   7.819   1.502   8.891 -0.0695 -0.4304 -0.6517
30304SOL     OW94313   3.383   3.588   4.151 -0.1493  0.4589 -0.3048
30304SOL    HW194314   3.462   3.641   4.139  1.0670 -1.5387 -1.8059
30304SOL    HW294315   3.324   3.616   4.081 -0.1866  0.9473 -0.0829
30305SOL     OW94316   2.995   3.850   8.225  0.4204  0.0297 -0.4330
30305SOL    HW194317   2.953   3.764   8.217  2.4660 -0.9525 -1.2078
30305SOL    HW294318   2.997   3.867   8.319 -0.4008 -0.5423 -0.2962
30306SOL     OW94319   9.493   5.151  10.132  0.2683 -0.5853 -0.2127
30306SOL    HW194320   9.436   5.193  10.067  1.5360 -2.3180 -2.6345
30306SOL    HW294321   9.436   5.088  10.176 -0.1069 -1.2344 -1.5472
30307SOL     OW94322   2.445  10.541   7.600  0.5280 -0.0364 -0.2911
30307SOL    HW194323   2.469  10.468   7.656  0.6421 -0.9587 -1.5042
30307SOL    HW294324   2.506  10.611   7.625  0.7340 -0.5093  0.5501
30308SOL     OW94325   6.523   9.800   5.663 -0.6640  0.0175 -0.1380
30308SOL    HW194326   6.594   9.858   5.638 -1.0642  0.9278  0.7386
30308SOL    HW294327   6.475   9.784   5.582  2.4514 -3.5208 -1.5721
30309SOL     OW94328   2.645   8.353   8.315 -0.6907 -0.1458 -0.1088
30309SOL    HW194329   2.732   8.319   8.293 -0.6400  0.4411 -0.8597
30309SOL    HW294330   2.585   8.291   8.273 -0.5964  0.7329 -1.5946
30310SOL     OW94331   9.551   4.439   4.412  0.2693 -0.3524 -0.7156
30310SOL    HW194332   9.504   4.514   4.449  0.4363 -0.4604 -0.2783
30310SOL    HW294333   9.514   4.428   4.325 -0.1137 -0.0763 -0.5891
30311SOL     OW94334   9.268   2.260   7.620  0.3544  0.1093 -0.2297
30311SOL    HW194335   9.250   2.327   7.686  0.5494  0.9531 -1.0057
30311SOL    HW294336   9.213   2.284   7.546  0.3312 -0.6739 -0.4734
30312SOL     OW94337   7.344   4.841   8.188  0.1019  0.1599 -0.5922
30312SOL    HW194338   7.433   4.815   8.163 -0.6834 -0.5559 -2.9434
30312SOL    HW294339   7.310   4.766   8.237  0.2832 -0.2285 -1.0469
30313SOL     OW94340   8.351   9.085   9.446 -0.3004 -0.3616  0.1369
30313SOL    HW194341   8.268   9.133   9.448 -0.2191 -0.1533 -0.7439
30313SOL    HW294342   8.363   9.064   9.353  1.4824  1.1350 -0.0471
30314SOL     OW94343   2.732   7.956   3.522  0.0299 -0.3265  0.7866
30314SOL    HW194344   2.697   8.001   3.445  0.6318  0.2822  0.8583
30314SOL    HW294345   2.731   7.863   3.498  2.3493 -0.0081 -0.8869
30315SOL     OW94346   0.056   0.478   5.643  0.2490 -0.2493  0.4350
30315SOL    HW194347   0.047   0.570   5.667  0.1858  0.7394 -2.8961
30315SOL    HW294348  -0.026   0.457   5.597  1.2052 -1.2499 -0.8876
30316SOL     OW94349   1.164   5.655   1.971  0.3528  0.1884 -0.1209
30316SOL    HW194350   1.160   5.719   2.043  0.1891  1.0441 -0.8798
30316SOL    HW294351   1.129   5.574   2.010 -2.4502  1.3377  0.0223
30317SOL     OW94352   9.433   1.508  10.850 -0.7019  0.5327  0.2753
30317SOL    HW194353   9.350   1.489  10.895  0.1630  0.7826  2.0491
30317SOL    HW294354   9.407   1.531  10.761 -2.3979 -1.3095  0.2150
30318SOL     OW94355   8.162   4.411   0.016 -0.2856 -0.1986  0.3500
30318SOL    HW194356   8.142   4.492  -0.032  3.0268  0.5800 -0.0024
30318SOL    HW294357   8.160   4.436   0.108  1.2198  0.5183  0.2284
30319SOL     OW94358   5.702   8.993   3.222 -0.5522  0.2098  0.3419
30319SOL    HW194359   5.753   9.065   3.187  0.9690 -1.3418 -0.7838
30319SOL    HW294360   5.648   8.963   3.149 -2.7707  1.4859  1.3703
30320SOL     OW94361   2.205   5.804   1.448  0.4315 -0.5726  0.3365
30320SOL    HW194362   2.267   5.733   1.434  1.3843  0.0913  1.1198
30320SOL    HW294363   2.257   5.875   1.485 -0.9355 -0.2804  1.8102
30321SOL     OW94364  10.688   1.178   2.471 -0.2870 -0.5454 -0.2260
30321SOL    HW194365  10.656   1.256   2.427 -1.2283 -0.8185 -0.0657
30321SOL    HW294366  10.731   1.211   2.550  2.3183  0.0130 -1.7823
30322SOL     OW94367   8.574   0.092   9.704  0.4150  0.1510 -0.6233
30322SOL    HW194368   8.503   0.055   9.756 -0.2660 -0.6435 -2.0789
30322SOL    HW294369   8.650   0.091   9.763 -0.8900  1.6410  1.1788
30323SOL     OW94370   4.756   1.297   2.548 -0.2352  0.2228  0.0161
30323SOL    HW194371   4.758   1.265   2.458 -2.4438  0.3531 -0.1262
30323SOL    HW294372   4.757   1.217   2.602  2.5457  0.1519  0.0088
30324SOL     OW94373   8.793   8.424   1.228 -0.1613 -0.1910  0.3688
30324SOL    HW194374   8.813   8.508   1.269  2.0253 -0.4816  0.0397
30324SOL    HW294375   8.878   8.391   1.199 -1.1830 -1.6925 -1.1260
30325SOL     OW94376   9.465   6.329   0.310  0.2390 -0.1892  0.6329
30325SOL    HW194377   9.400   6.316   0.241  1.0281 -1.3167  0.0635
30325SOL    HW294378   9.492   6.240   0.334  3.2747  0.1822 -0.8343
30326SOL     OW94379   3.123   0.318   8.374  0.5382  0.2208 -0.3181
30326SOL    HW194380   3.154   0.398   8.416  0.7766 -0.6833  1.3198
30326SOL    HW294381   3.200   0.285   8.326  0.3423  1.1112 -1.3020
30327SOL     OW94382   5.148   7.030   8.794  0.2764 -0.3515 -0.4397
30327SOL    HW194383   5.093   7.043   8.717 -0.5829  0.4112  0.2785
30327SOL    HW294384   5.169   6.936   8.793  0.7177 -0.2495 -1.8745
30328SOL     OW94385   8.820   7.320   3.395 -0.1389  0.2952  0.2605
30328SOL    HW194386   8.890   7.381   3.372 -0.1858 -0.2990 -1.6164
30328SOL    HW294387   8.858   7.234   3.382 -1.4596 -0.0400 -1.7143
30329SOL     OW94388   7.526   1.527   6.267  0.0150 -0.7412 -0.3946
30329SOL    HW194389   7.609   1.528   6.314 -1.8438 -0.8148  3.3085
30329SOL    HW294390   7.511   1.435   6.244  0.6768 -0.8024 -0.5879
30330SOL     OW94391   0.658   3.335   5.276  0.0654  0.0047 -0.5074
30330SOL    HW194392   0.620   3.377   5.199  1.2899 -0.3538 -1.3329
30330SOL    HW294393   0.722   3.397   5.309  0.2755 -0.2757 -0.3821
30331SOL     OW94394   9.154   8.022   7.828 -0.0197 -0.3973  0.7752
30331SOL    HW194395   9.225   7.975   7.872 -0.0536 -1.2106  0.0019
30331SOL    HW294396   9.198   8.088   7.775 -0.0066  1.0419  2.4697
30332SOL     OW94397  10.261   0.781   9.086  0.3820  0.3360 -0.3115
30332SOL    HW194398  10.254   0.873   9.111 -1.0788  0.5144 -1.2464
30332SOL    HW294399  10.335   0.748   9.136  1.3501  2.1820 -0.4537
30333SOL     OW94400   0.376   9.033   6.950 -0.2497 -0.2351  0.6376
30333SOL    HW194401   0.359   9.118   6.990 -0.0795  0.3689 -0.5072
30333SOL    HW294402   0.291   9.006   6.914 -0.5417 -1.0576  1.8806
30334SOL     OW94403   4.258   5.655   2.574 -0.4124  0.3776  0.1160
30334SOL    HW194404   4.269   5.562   2.592  0.2202  0.3151 -0.5651
30334SOL    HW294405   4.184   5.681   2.630 -0.6211 -0.5310  0.2859
30335SOL     OW94406   9.783   9.743   6.084 -0.2896  0.0496 -0.3074
30335SOL    HW194407   9.728   9.672   6.051  0.0908 -0.1423 -0.5328
30335SOL    HW294408   9.832   9.774   6.008  1.6806 -1.3710  0.2829
30336SOL     OW94409   3.722   8.933   5.955  0.3781  0.4758 -0.1861
30336SOL    HW194410   3.662   8.961   5.886  1.8995 -0.1931 -1.8398
30336SOL    HW294411   3.803   8.981   5.939  0.5817  0.8009  1.5486
30337SOL     OW94412   4.891   9.047   1.122 -0.3107  0.7579 -0.5387
30337SOL    HW194413   4.866   9.044   1.030 -0.2759 -0.4274 -0.5223
30337SOL    HW294414   4.813   9.019   1.169 -0.0806  0.5650 -0.2665
30338SOL     OW94415   0.295   6.285   6.742  1.0860  0.0973  0.2229
30338SOL    HW194416   0.246   6.258   6.664 -0.6412  2.0455  0.5403
30338SOL    HW294417   0.357   6.351   6.709  1.4453 -0.2066  0.2815
30339SOL     OW94418   6.516   2.969   9.982 -0.4250 -0.0800  0.1855
30339SOL    HW194419   6.447   2.912   9.948  0.3087 -1.4082  0.8434
30339SOL    HW294420   6.487   3.058   9.960 -1.4727 -0.7055 -1.0940
30340SOL     OW94421  10.036   0.631   2.498 -0.4149  0.0247  0.1842
30340SOL    HW194422   9.976   0.643   2.425 -1.2267 -1.4711  0.5574
30340SOL    HW294423  10.116   0.675   2.471 -0.1404 -1.7650 -2.3237
30341SOL     OW94424   4.436   0.181   4.924  0.6100  0.2822 -0.0103
30341SOL    HW194425   4.357   0.140   4.959  0.8603  0.5460  0.8897
30341SOL    HW294426   4.506   0.151   4.982  0.9654  1.1155  0.0032
30342SOL     OW94427   9.024  10.518   3.630 -0.0976 -0.5047  0.3693
30342SOL    HW194428   8.981  10.433   3.641 -0.1751 -0.4396  0.5901
30342SOL    HW294429   9.055  10.540   3.718 -1.3572  0.3717  0.6198
30343SOL     OW94430   1.350   1.641   4.567  0.7948 -0.0738  0.5136
30343SOL    HW194431   1.331   1.721   4.518 -0.2435  0.0699  1.1255
30343SOL    HW294432   1.436   1.613   4.535  1.1939  1.3014  0.3123
30344SOL     OW94433   6.178   3.682   9.134  0.3025  0.1335 -0.6166
30344SOL    HW194434   6.255   3.707   9.185 -0.5539 -0.2245  0.8909
30344SOL    HW294435   6.173   3.587   9.142 -0.3531  0.1633 -0.6308
30345SOL     OW94436   7.727   6.896   4.265  0.0629  0.0909 -0.1639
30345SOL    HW194437   7.650   6.864   4.313  0.6624 -0.4273  0.4683
30345SOL    HW294438   7.708   6.989   4.251 -0.7674 -0.0699 -0.1869
30346SOL     OW94439  10.789   0.511   4.823  0.5732 -0.3235 -0.5191
30346SOL    HW194440  10.769   0.419   4.838 -0.7749 -0.2534 -1.6316
30346SOL    HW294441  10.762   0.555   4.903 -1.2378 -0.6070 -0.9197
30347SOL     OW94442   5.521   7.201   2.067 -0.6775  0.4901 -0.0134
30347SOL    HW194443   5.605   7.185   2.024 -0.2133 -2.0808  1.6401
30347SOL    HW294444   5.457   7.152   2.014 -0.9005  1.1530 -0.3729
30348SOL     OW94445   7.366   1.128   5.919 -0.1048  0.1365  0.8084
30348SOL    HW194446   7.461   1.133   5.929 -0.0964  0.8775  0.4403
30348SOL    HW294447   7.352   1.119   5.825 -0.3788 -0.6566  0.9245
30349SOL     OW94448  10.115   3.960   6.382 -0.5522  0.0686  0.1627
30349SOL    HW194449  10.137   3.870   6.407  1.8250  0.2133 -1.1209
30349SOL    HW294450  10.097   4.004   6.465  1.6722 -0.7839  1.1746
30350SOL     OW94451   2.406   0.320   1.326 -0.5272 -0.2799  0.1272
30350SOL    HW194452   2.401   0.287   1.416 -1.9882  1.9919  0.9615
30350SOL    HW294453   2.315   0.328   1.298 -0.1548  0.8678 -0.8415
30351SOL     OW94454  10.435   7.885   4.151 -0.2107  0.1784 -0.3588
30351SOL    HW194455  10.431   7.790   4.158  0.9080  0.0415 -1.2027
30351SOL    HW294456  10.463   7.901   4.060 -1.4189  1.3437 -0.5564
30352SOL     OW94457   0.435   9.519   0.325  0.3185 -0.0942  0.4479
30352SOL    HW194458   0.357   9.558   0.285  0.8042  0.3213 -0.1177
30352SOL    HW294459   0.414   9.513   0.418 -0.5626 -0.4044  0.2398
30353SOL     OW94460   2.733   9.634   6.665  0.0873  0.1947  0.4256
30353SOL    HW194461   2.714   9.542   6.650  1.2591  0.0340 -0.1809
30353SOL    HW294462   2.687   9.655   6.747  1.2515 -1.3998  1.5424
30354SOL     OW94463   9.165   7.757   8.577  0.1177  0.4286  0.0199
30354SOL    HW194464   9.187   7.726   8.664  1.2572  2.1825  0.3925
30354SOL    HW294465   9.238   7.730   8.522  0.8946  1.9400  0.2551
30355SOL     OW94466   9.554   0.585   8.607 -0.4542  0.0535 -0.1231
30355SOL    HW194467   9.542   0.670   8.564 -0.8444  0.6349  1.0862
30355SOL    HW294468   9.632   0.596   8.661 -1.3506  0.1593  1.1986
30356SOL     OW94469   5.588   8.271   4.596 -0.1372  0.1967 -0.0854
30356SOL    HW194470   5.678   8.244   4.578 -0.1719  0.2169 -0.2922
30356SOL    HW294471   5.534   8.206   4.550 -0.2223  0.7674 -0.8020
30357SOL     OW94472   3.347   5.255   5.219 -0.1299 -0.2635 -0.3451
30357SOL    HW194473   3.425   5.280   5.269  0.3075 -0.7033 -0.8072
30357SOL    HW294474   3.284   5.325   5.238 -0.4569 -1.0892  1.9153
30358SOL     OW94475   9.621   4.925   6.477  0.1668  0.3400 -0.0619
30358SOL    HW194476   9.619   4.931   6.382  0.8738  1.8952 -0.0110
30358SOL    HW294477   9.589   5.010   6.507 -1.3001 -0.5774  1.1216
30359SOL     OW94478  10.153   4.259   3.209  0.1485  0.2413  0.2348
30359SOL    HW194479  10.234   4.290   3.167 -0.1409 -1.6606 -1.8950
30359SOL    HW294480  10.096   4.336   3.210 -0.0240  0.3535 -3.5632
30360SOL     OW94481   7.863  10.117   0.319 -0.6993 -0.6062 -0.3645
30360SOL    HW194482   7.853  10.194   0.262  0.8432 -0.2434 -0.1707
30360SOL    HW294483   7.905  10.052   0.263 -1.2669 -1.0411 -0.2897
30361SOL     OW94484   0.248   0.468   4.001 -0.0333  0.6849 -0.2339
30361SOL    HW194485   0.277   0.522   3.928  1.5691  0.3705  0.1429
30361SOL    HW294486   0.303   0.494   4.075  0.5887 -1.2102  0.0289
30362SOL     OW94487   8.135   4.005   5.355  0.0383  0.1690  0.2398
30362SOL    HW194488   8.086   3.931   5.390  0.2196 -1.4651 -2.6517
30362SOL    HW294489   8.212   4.012   5.411 -0.3513 -1.3724  1.0096
30363SOL     OW94490   0.858   5.927   6.810  0.5667  0.5306  0.0979
30363SOL    HW194491   0.812   5.949   6.729  0.2989  2.3811  0.7000
30363SOL    HW294492   0.788   5.919   6.875  0.8971  0.7121  0.4806
30364SOL     OW94493   3.948   4.178   1.492 -0.4694  0.0875  0.9751
30364SOL    HW194494   3.876   4.141   1.441 -0.7666 -1.1055  2.1873
30364SOL    HW294495   4.016   4.198   1.428 -1.1989 -0.4513  0.0133
30365SOL     OW94496   4.445   4.344   4.437 -1.2334  0.2604  0.4581
30365SOL    HW194497   4.523   4.343   4.381 -1.1087 -1.9417  0.5723
30365SOL    HW294498   4.390   4.413   4.401 -0.6696 -0.3486 -1.6995
30366SOL     OW94499   4.216   4.878   6.766 -0.0843 -0.3365  0.0260
30366SOL    HW194500   4.250   4.858   6.853 -0.1389 -0.0735  0.1089
30366SOL    HW294501   4.188   4.793   6.731 -2.8677 -0.1248  1.4406
30367SOL     OW94502   2.033   5.211   7.582 -0.3928  0.3351  0.2970
30367SOL    HW194503   1.967   5.272   7.615  0.2467  0.1840  1.9562
30367SOL    HW294504   1.984   5.135   7.553 -1.0018  0.3978  1.1250
30368SOL     OW94505   2.710   8.798   0.326 -0.6509  0.2631  0.3551
30368SOL    HW194506   2.760   8.877   0.308 -0.9628  0.8414  1.8871
30368SOL    HW294507   2.621   8.830   0.343 -1.3954 -0.6697 -1.5344
30369SOL     OW94508   9.915   3.020   5.433  0.1015 -0.0014  0.1560
30369SOL    HW194509   9.929   2.977   5.517  0.4574  0.2483  0.2271
30369SOL    HW294510   9.972   2.972   5.372 -1.1304 -1.0241 -0.2252
30370SOL     OW94511   4.186   4.573   7.380 -0.0222 -0.0356 -0.0408
30370SOL    HW194512   4.177   4.572   7.476  0.1049  0.5200 -0.0202
30370SOL    HW294513   4.183   4.666   7.357  0.8191 -0.1166 -0.4980
30371SOL     OW94514   0.237   8.185  10.900 -0.2412 -0.1807  0.4043
30371SOL    HW194515   0.172   8.222  10.839  1.0882  0.7117 -0.5271
30371SOL    HW294516   0.284   8.120  10.849 -1.3835 -1.9949  1.5363
30372SOL     OW94517   2.828   0.755   1.396  0.1004 -0.3227 -0.9040
30372SOL    HW194518   2.846   0.829   1.455 -0.0173 -1.3587  0.4820
30372SOL    HW294519   2.914   0.722   1.371  0.1621 -0.6225 -0.3208
30373SOL     OW94520   5.503   5.541  10.730  0.5790  0.0448  0.2880
30373SOL    HW194521   5.445   5.520  10.802  1.2297 -0.9575  0.5440
30373SOL    HW294522   5.564   5.467  10.726  0.4772  0.0020 -1.3608
30374SOL     OW94523   2.273   8.155   6.689  0.4367  0.0131 -1.0273
30374SOL    HW194524   2.180   8.147   6.669 -0.2555  1.3210  1.3495
30374SOL    HW294525   2.279   8.143   6.784  2.7088 -0.1390 -1.1312
30375SOL     OW94526   5.854   0.890   7.173 -0.1530 -0.1805  0.0910
30375SOL    HW194527   5.833   0.931   7.089  1.4169 -0.7075 -0.5938
30375SOL    HW294528   5.924   0.827   7.152 -1.4472 -2.1521  1.3540
30376SOL     OW94529   0.349  10.427  10.653 -0.1270 -0.2935  0.4134
30376SOL    HW194530   0.365  10.355  10.714  0.7752  0.2824  0.8763
30376SOL    HW294531   0.424  10.425  10.593 -0.3268 -0.0111  0.1498
30377SOL     OW94532   2.865   5.299   4.408 -0.5542 -0.1696  0.0639
30377SOL    HW194533   2.842   5.222   4.460  1.6802 -1.6127 -0.9609
30377SOL    HW294534   2.922   5.350   4.465  1.4330 -1.4683 -0.6665
30378SOL     OW94535   8.762   4.115   9.201 -0.3082 -0.1722  0.0159
30378SOL    HW194536   8.756   4.109   9.296 -0.1269 -0.4948  0.0089
30378SOL    HW294537   8.678   4.083   9.169  0.0172 -1.0781  0.0367
30379SOL     OW94538   0.831   7.926   6.130 -0.5990  0.2230 -0.3356
30379SOL    HW194539   0.810   7.837   6.158 -3.4452  0.3516 -1.6873
30379SOL    HW294540   0.773   7.982   6.183  1.0305  1.3304  0.3821
30380SOL     OW94541   1.039  10.483   2.630 -0.6881  0.2025  0.3756
30380SOL    HW194542   1.084  10.546   2.574 -0.3282 -0.6904 -0.3599
30380SOL    HW294543   1.102  10.463   2.699 -0.0838 -0.7399 -0.4268
30381SOL     OW94544   0.240   1.092   3.476 -0.2141  0.2707  0.1284
30381SOL    HW194545   0.165   1.074   3.420  1.1739 -0.7263 -1.5169
30381SOL    HW294546   0.305   1.027   3.450  1.3431  1.3073  1.2538
30382SOL     OW94547   1.724   3.322   5.401 -0.6813 -0.4520 -0.2145
30382SOL    HW194548   1.804   3.304   5.450 -0.8841 -0.2340  0.1978
30382SOL    HW294549   1.680   3.392   5.450 -1.1808 -0.6463 -0.3715
30383SOL     OW94550   9.258   1.305   8.847 -0.1231  0.5424  0.1143
30383SOL    HW194551   9.284   1.388   8.889 -0.7656  0.1249  1.3904
30383SOL    HW294552   9.202   1.332   8.774  0.7236  1.2710 -0.2935
30384SOL     OW94553   9.456   7.439   4.250 -0.1706  0.2058 -0.7452
30384SOL    HW194554   9.431   7.351   4.222 -0.7620 -0.0417  0.5106
30384SOL    HW294555   9.390   7.496   4.210 -1.1742 -0.1704  0.3260
30385SOL     OW94556   7.218   9.408   3.141  0.4250  0.0437 -0.1026
30385SOL    HW194557   7.220   9.490   3.092  0.3505  0.2449  0.2323
30385SOL    HW294558   7.232   9.341   3.074  1.3023  0.3689 -0.2657
30386SOL     OW94559   6.152   1.652  10.365 -0.5689 -0.5314  0.2175
30386SOL    HW194560   6.057   1.654  10.354 -0.5073  1.3171 -0.2790
30386SOL    HW294561   6.166   1.656  10.459 -0.9648 -2.0027  0.3639
30387SOL     OW94562   5.061   9.659   6.110  0.2938 -0.0131 -0.0743
30387SOL    HW194563   5.127   9.589   6.106  1.7908  1.2320  1.5528
30387SOL    HW294564   5.007   9.636   6.186  0.3491  0.2354  0.0392
30388SOL     OW94565   8.559   5.431   1.604  0.2100 -0.3052  0.2552
30388SOL    HW194566   8.632   5.369   1.610  0.8052  0.3052 -0.4049
30388SOL    HW294567   8.564   5.483   1.684  0.6311 -0.1381  0.1241
30389SOL     OW94568   9.158   2.050   7.341 -0.3615 -0.1282 -0.0037
30389SOL    HW194569   9.241   2.024   7.381 -0.2837  0.7837  0.4601
30389SOL    HW294570   9.119   2.109   7.405 -1.8980 -1.4164  0.2853
30390SOL     OW94571   8.532   8.734   8.157  1.0895 -0.0955  0.2792
30390SOL    HW194572   8.614   8.781   8.173  0.5906  0.9501 -0.1801
30390SOL    HW294573   8.481   8.791   8.100 -0.4380 -0.1824  1.4572
30391SOL     OW94574   7.399   6.254   5.310  0.5660 -0.3918  0.7505
30391SOL    HW194575   7.367   6.165   5.298  0.2735 -0.3985  1.5407
30391SOL    HW294576   7.457   6.269   5.236  0.7789 -1.3147  0.7271
30392SOL     OW94577   0.501   5.432   5.129 -0.5115  0.0546 -0.1392
30392SOL    HW194578   0.498   5.421   5.034 -0.1363  2.5602 -0.5241
30392SOL    HW294579   0.463   5.519   5.144  2.8830  1.4499  1.5641
30393SOL     OW94580   4.309   2.847   6.431 -0.3878 -0.0294 -0.3849
30393SOL    HW194581   4.361   2.897   6.368 -0.0192 -0.6791 -0.6093
30393SOL    HW294582   4.365   2.774   6.455  0.9481  1.9791  3.3969
30394SOL     OW94583   2.656   2.454   3.991  0.5761  0.5954  0.0757
30394SOL    HW194584   2.697   2.498   3.917  0.3583 -0.0370 -0.4324
30394SOL    HW294585   2.591   2.516   4.023  0.0208  0.5121 -0.8611
30395SOL     OW94586   4.010   0.297   4.226 -0.1159  0.1603 -0.1709
30395SOL    HW194587   4.025   0.284   4.132 -1.6165  1.2939 -0.6098
30395SOL    HW294588   4.095   0.323   4.261  0.3495  0.2453 -1.3293
30396SOL     OW94589   2.263   8.938   9.576 -0.5356  0.6585 -0.5075
30396SOL    HW194590   2.290   9.025   9.606  0.7733  0.3650 -0.7876
30396SOL    HW294591   2.189   8.956   9.517  0.0759  1.6343 -1.0015
30397SOL     OW94592   6.479   3.821   6.067  0.5770  0.2841 -0.0151
30397SOL    HW194593   6.562   3.851   6.030  1.9681 -0.8638  1.9930
30397SOL    HW294594   6.482   3.849   6.158 -0.9333 -0.3978  0.2743
30398SOL     OW94595   9.210   0.889  10.377  0.1462  0.0985  0.1756
30398SOL    HW194596   9.193   0.804  10.336 -0.7059  0.8896 -1.1770
30398SOL    HW294597   9.285   0.924  10.330  1.4236 -0.4722  1.6820
30399SOL     OW94598  10.317   9.958   9.028 -0.5377  0.1100  0.3103
30399SOL    HW194599  10.233   9.983   9.068 -0.6267  1.3555 -0.6106
30399SOL    HW294600  10.366  10.040   9.022 -0.1108 -0.2233 -1.1368
30400SOL     OW94601   0.365   2.930   5.516 -0.3293  0.1329 -0.3558
30400SOL    HW194602   0.303   2.867   5.552  1.1680 -0.2177  1.8403
30400SOL    HW294603   0.339   3.014   5.553  1.8416 -0.3817  2.7548
30401SOL     OW94604  10.198   8.977   7.846  0.4348  0.3547 -0.4073
30401SOL    HW194605  10.156   8.921   7.911 -0.1318 -0.5059 -1.4895
30401SOL    HW294606  10.149   8.962   7.765  1.2236  1.2774 -1.0871
30402SOL     OW94607   3.950   0.417   3.233  0.9686 -0.2030  0.3298
30402SOL    HW194608   3.989   0.504   3.223  0.8752 -0.0798  0.9974
30402SOL    HW294609   4.005   0.372   3.297  1.0519 -0.6632 -0.0587
30403SOL     OW94610   3.180   1.744   4.389  0.9828  0.0869  0.1929
30403SOL    HW194611   3.229   1.716   4.467  0.5687  1.3003  0.9126
30403SOL    HW294612   3.210   1.833   4.373 -1.3733  1.1068  1.0325
30404SOL     OW94613   3.627   3.866   1.961  0.3154  0.6780 -0.5110
30404SOL    HW194614   3.679   3.906   2.030 -0.5641 -0.2937  0.7500
30404SOL    HW294615   3.545   3.915   1.961  0.3349  0.7133 -0.9113
30405SOL     OW94616   9.343   4.041   3.651 -0.4464  0.0499 -0.2195
30405SOL    HW194617   9.339   4.113   3.714 -1.0088 -1.1123  1.1116
30405SOL    HW294618   9.408   3.981   3.687 -0.3366 -0.3418 -1.0569
30406SOL     OW94619   1.338  10.333   6.050  0.4572 -0.3681  0.3492
30406SOL    HW194620   1.319  10.400   5.983  1.6451 -1.5946 -1.3011
30406SOL    HW294621   1.257  10.327   6.101 -1.3018 -0.8489 -2.3119
30407SOL     OW94622   2.230   5.548   6.998 -0.0254 -0.2206 -0.3430
30407SOL    HW194623   2.269   5.578   6.916 -0.5665 -0.5527 -0.7325
30407SOL    HW294624   2.250   5.618   7.061  1.6768 -0.6317 -0.3676
30408SOL     OW94625   9.243   4.770   9.971 -0.5005 -0.5368 -0.1430
30408SOL    HW194626   9.275   4.687  10.006  0.1390  0.1997  1.1272
30408SOL    HW294627   9.311   4.798   9.910 -0.7407 -0.9661 -0.6082
30409SOL     OW94628   9.189   9.570   0.613 -0.2236 -0.4578 -0.1995
30409SOL    HW194629   9.243   9.620   0.675  0.0250 -2.2396  1.1015
30409SOL    HW294630   9.251   9.520   0.561 -0.4010  1.3761 -2.3414
30410SOL     OW94631   0.526   9.022   4.023  0.3691 -0.1095 -0.1610
30410SOL    HW194632   0.558   8.988   3.939 -1.7749 -1.0911 -0.6478
30410SOL    HW294633   0.532   9.117   4.013 -0.8379 -0.1554 -1.9079
30411SOL     OW94634   7.061   3.867  10.728 -0.0270  0.1734 -0.5094
30411SOL    HW194635   7.078   3.960  10.741  0.5853  0.0364 -0.2736
30411SOL    HW294636   6.970   3.855  10.756  0.2106  0.5132  0.4546
30412SOL     OW94637   4.157   7.698   2.637 -0.1380 -0.0327  0.5752
30412SOL    HW194638   4.241   7.737   2.616 -1.4990  3.2122  0.5874
30412SOL    HW294639   4.115   7.684   2.551  0.3267 -1.5241  0.5732
30413SOL     OW94640   9.928   4.968   2.066 -0.5799 -0.2601  0.3416
30413SOL    HW194641   9.868   4.974   2.141 -0.9266  2.8033 -0.0499
30413SOL    HW294642  10.009   5.009   2.097 -1.0486  1.9490 -1.1704
30414SOL     OW94643   2.386   5.082  10.652  0.0351  0.3663  0.4200
30414SOL    HW194644   2.415   4.993  10.674 -0.2274  0.1798  0.0424
30414SOL    HW294645   2.465   5.127  10.625 -0.0720 -0.2894 -1.0984
30415SOL     OW94646   3.523   1.566   5.324  0.3120 -0.4783  0.1959
30415SOL    HW194647   3.446   1.527   5.281 -0.3919  1.3874 -0.3480
30415SOL    HW294648   3.501   1.659   5.331  2.8970  0.2810 -0.8149
30416SOL     OW94649   6.317   6.616   4.624 -0.6490 -0.1124  0.2543
30416SOL    HW194650   6.251   6.556   4.590 -2.1289  0.8964  1.2165
30416SOL    HW294651   6.374   6.635   4.549 -0.7350 -1.9186 -0.2942
30417SOL     OW94652   8.873   6.342   7.795  0.0241 -0.0743  0.3046
30417SOL    HW194653   8.925   6.353   7.875  1.1012 -1.2857 -0.1937
30417SOL    HW294654   8.814   6.269   7.815  0.3710 -0.4529 -0.0271
30418SOL     OW94655   0.789  10.113  10.151  0.0216 -0.0944  0.0130
30418SOL    HW194656   0.769  10.193  10.200  0.9960 -0.7008  1.4669
30418SOL    HW294657   0.874  10.129  10.112 -1.0551  0.6601 -2.1790
30419SOL     OW94658   4.094   3.764   5.408  0.1770  0.1482 -0.8280
30419SOL    HW194659   4.095   3.668   5.403 -0.2283  0.1358 -0.7543
30419SOL    HW294660   4.032   3.791   5.340 -1.5763  0.2297  0.7127
30420SOL     OW94661   3.408   2.678   9.971 -0.2286 -0.1377 -0.0185
30420SOL    HW194662   3.450   2.722   9.897  1.1267 -0.8996  0.2466
30420SOL    HW294663   3.398   2.587   9.942 -0.1855 -0.3211  0.5211
30421SOL     OW94664   1.755  10.237   0.646 -0.4756  0.1477 -0.1002
30421SOL    HW194665   1.736  10.291   0.723 -1.3834 -0.4351  0.0985
30421SOL    HW294666   1.670  10.208   0.615 -0.0874  0.0212 -1.0824
30422SOL     OW94667  10.439   2.833  10.581 -0.2961  0.3130  0.1720
30422SOL    HW194668  10.423   2.755  10.635  0.2182  0.0767 -0.0122
30422SOL    HW294669  10.532   2.829  10.560 -0.3057  0.8817  0.0038
30423SOL     OW94670   7.158   1.079   8.317 -0.4415  0.0166 -0.7623
30423SOL    HW194671   7.207   1.000   8.297  0.0975  0.0988  0.2075
30423SOL    HW294672   7.076   1.069   8.267 -0.9544 -1.7660  0.3293
30424SOL     OW94673   6.327   9.979   3.918  0.1777 -0.3062 -0.0161
30424SOL    HW194674   6.295  10.033   3.990 -3.1357 -0.9186 -0.8996
30424SOL    HW294675   6.335   9.891   3.955  3.5863  0.2035  0.8577
30425SOL     OW94676   9.259   8.157  10.028 -0.1446  0.0641  0.2194
30425SOL    HW194677   9.262   8.171   9.934 -0.4954  0.3980  0.2556
30425SOL    HW294678   9.193   8.089  10.040  1.0134 -1.1160  0.1074
30426SOL     OW94679   8.580   5.442   8.247  0.2751  0.0867 -0.8435
30426SOL    HW194680   8.558   5.460   8.338  1.0140 -0.3737 -0.5624
30426SOL    HW294681   8.661   5.491   8.232  1.6990 -1.9658 -0.4010
30427SOL     OW94682   4.826   3.654   2.897  0.3095  0.0119 -0.4098
30427SOL    HW194683   4.814   3.698   2.813  1.5782  1.5748  0.1751
30427SOL    HW294684   4.743   3.667   2.944  0.1312  0.4440 -0.8411
30428SOL     OW94685   3.822   6.949   6.164  0.4888  0.1939 -0.4210
30428SOL    HW194686   3.761   6.981   6.098 -1.2894 -1.8211  0.1349
30428SOL    HW294687   3.781   6.973   6.247  1.0667 -0.1619 -0.0265
30429SOL     OW94688   4.772   0.031   9.700  0.2363  0.3425  0.4095
30429SOL    HW194689   4.855   0.028   9.748  0.8535  0.1124 -0.6323
30429SOL    HW294690   4.780  -0.038   9.634  0.0310  1.5816 -0.9759
30430SOL     OW94691   2.455   2.414   5.076 -0.0180  0.6454 -0.2506
30430SOL    HW194692   2.440   2.417   4.981  2.9357  2.1292 -0.7768
30430SOL    HW294693   2.543   2.378   5.085 -0.7133 -0.6396  2.0494
30431SOL     OW94694   6.223   9.217   0.969  0.0723 -0.2781  0.8504
30431SOL    HW194695   6.232   9.283   0.900  1.4903 -1.7433 -0.4476
30431SOL    HW294696   6.304   9.167   0.965 -0.9979 -2.1812  1.6978
30432SOL     OW94697   5.677   0.467  10.422  0.4035  0.4705 -0.4776
30432SOL    HW194698   5.658   0.425  10.505 -0.1084 -1.6147 -1.5859
30432SOL    HW294699   5.772   0.462  10.413  0.3866 -0.0287 -0.3840
30433SOL     OW94700   6.557   7.818   5.227  0.2117  1.1488 -0.2734
30433SOL    HW194701   6.538   7.911   5.237  0.2951  1.2553 -1.0500
30433SOL    HW294702   6.472   7.775   5.235  0.0902  1.3460 -0.4818
30434SOL     OW94703   9.994   7.254   1.845  0.2912 -0.1607 -0.1295
30434SOL    HW194704   9.903   7.225   1.839  0.9314 -2.3212 -0.3342
30434SOL    HW294705   9.991   7.347   1.823 -1.9137 -0.0560  0.3742
30435SOL     OW94706   4.350   7.263   5.876 -0.1931  0.5156  0.1593
30435SOL    HW194707   4.335   7.188   5.934 -0.6131  0.7582  0.3651
30435SOL    HW294708   4.292   7.248   5.802  1.5986 -0.6955 -1.0650
30436SOL     OW94709   0.784   7.707  10.214  0.0196 -0.0926 -0.0828
30436SOL    HW194710   0.803   7.687  10.123  0.9669 -0.7583  0.2452
30436SOL    HW294711   0.831   7.788  10.231  0.5233 -0.4125  0.0438
30437SOL     OW94712   8.763   3.544   8.928 -0.0163  0.0274  0.3064
30437SOL    HW194713   8.815   3.472   8.964 -0.2146  0.1569  0.8677
30437SOL    HW294714   8.717   3.580   9.004 -4.8013 -3.1135 -0.6446
30438SOL     OW94715   0.761   4.674   6.549 -0.0270 -0.2098 -0.1001
30438SOL    HW194716   0.808   4.711   6.623  1.4368  2.1784 -2.0633
30438SOL    HW294717   0.818   4.605   6.516  0.4788  0.3477 -0.4094
30439SOL     OW94718  10.086   9.902   7.532  0.1382  0.5467  0.4406
30439SOL    HW194719  10.065   9.808   7.529  0.7363  0.4145  0.1270
30439SOL    HW294720  10.002   9.946   7.524 -0.1128  0.0343  0.1959
30440SOL     OW94721   2.382   9.365  10.500 -0.1141  0.6539 -0.0280
30440SOL    HW194722   2.394   9.372  10.595 -0.0264  2.2344 -0.1330
30440SOL    HW294723   2.344   9.279  10.487  1.2596 -0.2066  1.3090
30441SOL     OW94724   8.918   7.568  10.033  0.2977  0.2483  0.0865
30441SOL    HW194725   8.990   7.631  10.021  0.9763  0.1834  3.0288
30441SOL    HW294726   8.848   7.620  10.073 -1.4719  0.3397 -2.8727
30442SOL     OW94727   0.868   9.655   7.657 -0.0143 -0.1505  0.1241
30442SOL    HW194728   0.898   9.691   7.740  0.7746 -0.8465  0.1429
30442SOL    HW294729   0.842   9.565   7.677 -2.3371  0.4494  0.1531
30443SOL     OW94730   9.533   3.397   2.076  0.0697 -0.2154  0.2590
30443SOL    HW194731   9.627   3.409   2.087  0.0555 -0.3961  0.5930
30443SOL    HW294732   9.507   3.465   2.014  0.5034 -0.4799 -0.2205
30444SOL     OW94733   0.427   7.732   9.969 -0.3529 -0.4022 -0.0456
30444SOL    HW194734   0.385   7.667   9.912 -0.8463  0.1604 -0.3403
30444SOL    HW294735   0.434   7.688  10.054  0.0009 -1.0982 -0.4291
30445SOL     OW94736   6.531   5.305   2.117 -0.0048 -0.6490 -0.3778
30445SOL    HW194737   6.545   5.351   2.034 -0.7071 -1.0764 -0.7424
30445SOL    HW294738   6.618   5.300   2.156  0.4646 -1.0510 -1.4163
30446SOL     OW94739   9.402   0.268   2.245  0.5384  0.2312  0.1773
30446SOL    HW194740   9.365   0.344   2.200 -0.4737  0.2660  1.0367
30446SOL    HW294741   9.331   0.204   2.247  1.4261 -0.8112 -0.6528
30447SOL     OW94742   6.050   9.761   0.796  0.6971  0.3439  0.3167
30447SOL    HW194743   6.124   9.808   0.835  0.8706  0.0700  0.3233
30447SOL    HW294744   5.972   9.804   0.830  0.8411  2.0027 -1.3005
30448SOL     OW94745   9.230   9.290   2.564 -0.0434  0.1675  0.8719
30448SOL    HW194746   9.308   9.255   2.522 -0.0300  0.2184  0.8542
30448SOL    HW294747   9.187   9.341   2.495 -1.7135 -2.3061 -0.1158
30449SOL     OW94748   4.879  10.242  10.258  0.6736  0.1398  0.2925
30449SOL    HW194749   4.935  10.218  10.184 -0.0243 -0.0578 -0.1771
30449SOL    HW294750   4.902  10.180  10.326 -0.8507 -1.7159 -0.7869
30450SOL     OW94751   8.927   1.164   8.707  0.0102  0.1711 -0.4051
30450SOL    HW194752   8.982   1.097   8.746 -2.3197 -0.9564  1.1647
30450SOL    HW294753   8.869   1.117   8.647 -0.0834  1.1270 -1.0931
30451SOL     OW94754   3.152   7.448   6.472  0.7190  0.0499 -0.6411
30451SOL    HW194755   3.133   7.412   6.559  0.8945 -1.9862 -1.4121
30451SOL    HW294756   3.083   7.413   6.416  2.1081 -0.8429 -1.8519
30452SOL     OW94757   0.146   6.110   3.914 -0.1908 -0.0011 -0.2817
30452SOL    HW194758   0.197   6.089   3.836  2.1059 -0.4404  1.2402
30452SOL    HW294759   0.110   6.197   3.897  0.9508  0.2697 -1.4989
30453SOL     OW94760   3.333   5.590   3.346 -0.6427 -0.5911  0.6659
30453SOL    HW194761   3.309   5.630   3.430 -0.9865  0.4539  0.0933
30453SOL    HW294762   3.385   5.514   3.370 -0.9058 -0.4302  1.8343
30454SOL     OW94763   2.370   8.927   4.787 -0.2167  0.3592 -0.4231
30454SOL    HW194764   2.354   8.843   4.745 -0.1577 -0.1115  0.4857
30454SOL    HW294765   2.323   8.923   4.870  0.0039  1.1188 -0.2486
30455SOL     OW94766   9.037   6.379   9.417  0.1351 -0.4130  0.7352
30455SOL    HW194767   9.105   6.445   9.402 -0.2572  0.7825  3.5954
30455SOL    HW294768   9.077   6.297   9.388  2.5227  0.3726  1.5321
30456SOL     OW94769   3.516   2.902   4.823 -0.3311 -0.4118 -0.2074
30456SOL    HW194770   3.538   2.815   4.857  0.3205 -0.3698 -0.5151
30456SOL    HW294771   3.590   2.957   4.847 -0.8235  0.1048  0.1392
30457SOL     OW94772   5.848   6.516   9.572 -0.0736  0.0905 -0.2942
30457SOL    HW194773   5.782   6.448   9.559 -1.5327  1.2088  0.8849
30457SOL    HW294774   5.879   6.502   9.662  2.5183 -1.3833 -1.3144
30458SOL     OW94775  10.656   5.876   7.517  0.1513  0.4058 -0.3624
30458SOL    HW194776  10.596   5.900   7.587 -1.7334 -1.2436 -1.2946
30458SOL    HW294777  10.630   5.931   7.443 -1.6946 -1.6971 -1.3830
30459SOL     OW94778   1.092   0.638  10.490 -0.2214 -0.1296 -0.4497
30459SOL    HW194779   0.999   0.657  10.499  0.1634  1.2673  1.2242
30459SOL    HW294780   1.133   0.685  10.562  1.7146 -1.3559 -0.6674
30460SOL     OW94781   2.682   0.729   6.154 -0.0608  0.3792 -0.7637
30460SOL    HW194782   2.635   0.660   6.201 -0.5823  0.6062 -0.9428
30460SOL    HW294783   2.632   0.742   6.073 -0.0398  1.0444 -0.6799
30461SOL     OW94784  10.389  10.808   1.717 -0.7571 -0.2323 -0.7423
30461SOL    HW194785  10.423  10.771   1.798  0.9289  0.1795 -1.2065
30461SOL    HW294786  10.425  10.753   1.648 -1.0882  0.1933 -1.2679
30462SOL     OW94787   9.719   4.205   7.235  0.9358  0.4233  0.7157
30462SOL    HW194788   9.663   4.129   7.252 -0.6320  1.5793  0.9566
30462SOL    HW294789   9.778   4.177   7.165 -0.1221 -0.7613  0.2720
30463SOL     OW94790  10.781   4.313   3.008 -0.6023  0.2663  0.4789
30463SOL    HW194791  10.728   4.254   3.062  0.3142 -0.3372  0.7495
30463SOL    HW294792  10.793   4.391   3.062 -0.5781  0.0928  0.7280
30464SOL     OW94793   1.110   2.872   0.890 -0.0618  0.0859  0.1744
30464SOL    HW194794   1.024   2.912   0.880  0.7137  2.1242  1.0925
30464SOL    HW294795   1.114   2.847   0.982 -0.5330 -2.2841 -0.3769
30465SOL     OW94796   3.996   1.871   9.818 -0.0522  0.3895  0.2977
30465SOL    HW194797   4.082   1.843   9.787  1.5947  3.0838  1.9957
30465SOL    HW294798   4.009   1.893   9.910 -2.4219  1.3964  0.4711
30466SOL     OW94799   0.104   7.299   0.407  0.1587 -0.7606 -0.5509
30466SOL    HW194800   0.069   7.355   0.477  0.3358 -1.2667 -0.0511
30466SOL    HW294801   0.033   7.295   0.342  0.2179  0.2011 -0.6877
30467SOL     OW94802   1.061   9.273   3.821  0.3927  0.5867 -0.0230
30467SOL    HW194803   1.082   9.342   3.882 -0.4855 -0.1054  1.0982
30467SOL    HW294804   1.131   9.208   3.832 -0.4060 -0.1079  1.1823
30468SOL     OW94805  10.580   8.932   8.527  0.3157 -0.1714 -0.1252
30468SOL    HW194806  10.620   8.973   8.450  2.3596 -2.0048 -0.1512
30468SOL    HW294807  10.493   8.906   8.499  1.0995 -0.9958 -1.9449
30469SOL     OW94808   0.221   5.533   4.802 -0.2467  0.3368  0.5796
30469SOL    HW194809   0.156   5.511   4.869 -0.6488 -1.6651 -0.4060
30469SOL    HW294810   0.190   5.616   4.767 -0.8523  0.6774  1.8314
30470SOL     OW94811   4.418   1.891   4.747  0.5477 -0.5503 -0.3653
30470SOL    HW194812   4.322   1.894   4.744  0.5780  1.0590 -0.6873
30470SOL    HW294813   4.445   1.887   4.655  0.7863  2.3749 -0.5269
30471SOL     OW94814   4.568   3.291  10.903  0.8318  0.2267  0.1438
30471SOL    HW194815   4.538   3.296  10.812  1.6346  0.5326 -0.1175
30471SOL    HW294816   4.507   3.346  10.952  0.2596 -0.1194 -0.1671
30472SOL     OW94817   8.797   9.819   4.090 -0.2996  0.2223 -0.0579
30472SOL    HW194818   8.807   9.774   4.174 -2.2748  0.0582  0.1443
30472SOL    HW294819   8.815   9.751   4.025 -1.5626 -0.4553  0.2584
30473SOL     OW94820   0.178   3.256   0.109  0.0299  0.3267 -0.2191
30473SOL    HW194821   0.091   3.287   0.136 -0.6867 -1.3103 -0.5264
30473SOL    HW294822   0.173   3.252   0.014  0.0414 -0.8455 -0.1803
30474SOL     OW94823   8.422   3.149   5.434  0.3511  0.1700  0.5749
30474SOL    HW194824   8.499   3.198   5.461 -0.1930  0.6633  1.2922
30474SOL    HW294825   8.349   3.193   5.479 -0.5505  0.7265 -1.3130
30475SOL     OW94826   0.643   8.409   3.835  1.8614  0.3072 -0.9175
30475SOL    HW194827   0.695   8.488   3.852  1.4369 -0.0519  2.6112
30475SOL    HW294828   0.632   8.368   3.920 -2.9719 -0.4527 -1.6204
30476SOL     OW94829   3.514  10.890   2.049 -0.1326  0.5872 -0.7905
30476SOL    HW194830   3.452  10.924   2.114  0.6244  2.6620 -1.0607
30476SOL    HW294831   3.544  10.807   2.085 -2.0092  0.2097  0.0104
30477SOL     OW94832   2.880   3.033   0.295 -0.2276 -0.2495 -0.3293
30477SOL    HW194833   2.814   3.101   0.283 -1.3083 -1.0417  0.8734
30477SOL    HW294834   2.961   3.071   0.260 -1.5538  0.2622 -3.0595
30478SOL     OW94835   2.553  10.557   0.540  0.0358 -0.1520  0.2563
30478SOL    HW194836   2.627  10.568   0.480 -0.2325  1.9629  0.2504
30478SOL    HW294837   2.593  10.531   0.623  0.4142 -3.1192 -0.7381
30479SOL     OW94838   4.081   2.518   3.240  0.5819  0.5278  0.3613
30479SOL    HW194839   4.088   2.613   3.229  1.3335  0.6304  1.5471
30479SOL    HW294840   3.993   2.496   3.210  0.9959  1.3417 -1.5729
30480SOL     OW94841   2.910   5.301   7.972 -0.1683  0.4725 -0.2773
30480SOL    HW194842   2.879   5.382   8.012 -0.4330 -0.7859  2.2448
30480SOL    HW294843   2.877   5.305   7.882 -1.7999  2.2748  0.3259
30481SOL     OW94844   1.173   1.101   1.973 -0.6456  0.2139 -0.4465
30481SOL    HW194845   1.218   1.020   2.000 -1.3386 -1.6438 -4.1880
30481SOL    HW294846   1.241   1.168   1.978  0.0598 -0.5504  2.4215
30482SOL     OW94847  10.735  10.788   8.337 -0.2662 -0.3707 -0.0261
30482SOL    HW194848  10.690  10.850   8.395 -0.0234  0.2600 -0.5000
30482SOL    HW294849  10.697  10.805   8.251 -1.3015 -1.9502  0.0864
30483SOL     OW94850   2.398   8.035   0.505  0.4249  0.0994  0.4912
30483SOL    HW194851   2.377   8.118   0.464  0.2035  0.3471  1.0874
30483SOL    HW294852   2.430   7.980   0.434 -0.6497  0.2615 -0.1448
30484SOL     OW94853   4.658   6.867   6.376 -0.1008  0.3596  0.4697
30484SOL    HW194854   4.721   6.812   6.422  2.3041 -0.2655 -3.2033
30484SOL    HW294855   4.585   6.808   6.355  1.3460 -0.9052 -1.2917
30485SOL     OW94856  10.849   6.617   1.499 -0.0124 -0.0830 -0.8629
30485SOL    HW194857  10.799   6.696   1.522  0.6534  0.2191 -0.4326
30485SOL    HW294858  10.871   6.629   1.406  0.5253  0.4872 -0.6686
30486SOL     OW94859   9.246   1.230   8.400 -0.0806 -0.2940  0.1323
30486SOL    HW194860   9.176   1.247   8.337  0.8453 -1.0605 -1.1285
30486SOL    HW294861   9.319   1.284   8.370 -0.0163  0.2996  1.2903
30487SOL     OW94862   5.957   4.896  10.374  0.7632  0.1974 -0.6155
30487SOL    HW194863   5.947   4.801  10.377 -1.6229  0.2655 -3.0367
30487SOL    HW294864   6.040   4.910  10.329  1.8602 -0.6504  1.0160
30488SOL     OW94865   6.943   2.230   7.185  0.0176  0.2801 -0.3506
30488SOL    HW194866   7.026   2.207   7.225  0.0550 -1.9949 -1.5750
30488SOL    HW294867   6.892   2.149   7.187 -1.6258  1.2587 -0.8901
30489SOL     OW94868   8.391   4.742  10.434  0.2801  0.2545 -0.2660
30489SOL    HW194869   8.365   4.670  10.377 -0.1699  0.6236 -0.5278
30489SOL    HW294870   8.386   4.705  10.522 -0.2646  0.0576 -0.3759
30490SOL     OW94871   6.668   8.500   0.136 -0.1910  0.4492 -0.7120
30490SOL    HW194872   6.748   8.550   0.154 -0.2657  1.5987 -3.1768
30490SOL    HW294873   6.696   8.432   0.074 -0.6159 -0.9323  0.5747
30491SOL     OW94874  10.898   5.586   3.748  0.2566  0.7530 -0.2185
30491SOL    HW194875  10.904   5.555   3.838  1.1314  0.8357 -0.2362
30491SOL    HW294876  10.805   5.587   3.729  0.1030  0.0017  0.4298
30492SOL     OW94877  10.110   1.156   8.298  0.1248 -0.5532  0.2876
30492SOL    HW194878  10.173   1.211   8.345  1.3556 -1.8851  0.2470
30492SOL    HW294879  10.161   1.114   8.229 -1.4291  0.5276 -1.6331
30493SOL     OW94880  10.437   3.857   5.086 -0.0541 -0.2459  0.1119
30493SOL    HW194881  10.411   3.929   5.029  1.4598  0.4775  0.2834
30493SOL    HW294882  10.478   3.794   5.026 -0.7435 -0.6644  0.0654
30494SOL     OW94883   5.682   3.975   5.077  0.0228 -0.5303 -0.3270
30494SOL    HW194884   5.712   3.978   5.168  0.4364  0.4127 -0.4850
30494SOL    HW294885   5.678   3.881   5.056 -0.7429 -0.7851  0.8760
30495SOL     OW94886   2.191   7.586   0.924 -0.4883 -0.2016  0.6988
30495SOL    HW194887   2.150   7.642   0.858 -0.4067 -0.9716 -0.0262
30495SOL    HW294888   2.141   7.601   1.004 -1.1378  0.1103  0.2424
30496SOL     OW94889   5.130   4.611   3.578  0.3206  0.1015 -0.4590
30496SOL    HW194890   5.162   4.639   3.492  0.5252 -0.1383 -0.4621
30496SOL    HW294891   5.123   4.692   3.628 -0.3318  0.3051 -0.8746
30497SOL     OW94892   6.485   2.870   7.692 -0.0588 -0.0806  0.0986
30497SOL    HW194893   6.426   2.944   7.681 -2.4947 -1.9136  0.1049
30497SOL    HW294894   6.480   2.822   7.610 -2.6019 -2.9176  1.6992
30498SOL     OW94895   5.489   1.655   8.705  0.6289 -0.1030  0.2163
30498SOL    HW194896   5.468   1.749   8.705 -0.5519 -0.3538  0.1809
30498SOL    HW294897   5.406   1.612   8.727  0.9354 -1.1890 -0.6888
30499SOL     OW94898   0.663   4.527   0.194 -0.0855  0.3872  0.2971
30499SOL    HW194899   0.727   4.479   0.142 -0.3814  0.4547 -0.1337
30499SOL    HW294900   0.686   4.507   0.285 -1.0395 -1.6594  0.1230
30500SOL     OW94901   5.151  10.182   3.041 -0.0937  0.2915  0.1368
30500SOL    HW194902   5.076  10.165   3.098  0.7788 -0.6320  1.0543
30500SOL    HW294903   5.132  10.267   3.002 -1.6686  0.0281  0.2449
30501SOL     OW94904   2.038   2.486   8.563  0.2961  0.3085  0.3003
30501SOL    HW194905   2.089   2.532   8.496  1.1854 -0.7708  0.2000
30501SOL    HW294906   2.059   2.532   8.644 -1.1722  1.9367 -0.1761
30502SOL     OW94907   8.319   2.323   2.355 -0.7026 -0.6396  0.2715
30502SOL    HW194908   8.373   2.361   2.424 -1.4684 -1.8087  1.5786
30502SOL    HW294909   8.268   2.396   2.321  0.9766  0.3056 -0.3530
30503SOL     OW94910   0.435   4.982   5.468  0.6593 -0.2616 -0.1782
30503SOL    HW194911   0.513   5.003   5.416  2.2773 -0.3968  2.0218
30503SOL    HW294912   0.436   5.047   5.539 -1.2260 -0.3129 -0.0627
30504SOL     OW94913   8.257   6.408   5.973 -0.1639 -0.0501  0.0458
30504SOL    HW194914   8.337   6.369   6.008 -0.7870 -0.5705  0.9378
30504SOL    HW294915   8.253   6.495   6.012  0.9001  0.7043 -1.4490
30505SOL     OW94916   9.458   4.742   6.622 -0.3454  0.2220  0.2970
30505SOL    HW194917   9.486   4.665   6.572 -1.1901  0.3386 -0.3794
30505SOL    HW294918   9.483   4.817   6.569  0.1798  0.4085  0.8027
30506SOL     OW94919   0.418   8.868   6.226  0.2812 -0.4113 -0.1566
30506SOL    HW194920   0.333   8.874   6.183 -0.1464 -2.3896  0.2943
30506SOL    HW294921   0.462   8.795   6.182  0.8281 -0.8618  1.0828
30507SOL     OW94922   5.102   8.258   5.648 -0.2127  0.2547 -0.4396
30507SOL    HW194923   5.113   8.284   5.739 -2.2137 -0.3358  0.0057
30507SOL    HW294924   5.189   8.272   5.609  1.1022 -0.8212  1.8617
30508SOL     OW94925   3.021  10.771   8.700  0.0017  0.2024  0.1798
30508SOL    HW194926   3.049  10.707   8.634 -1.0215  0.2017 -0.2717
30508SOL    HW294927   3.021  10.855   8.655  0.8325  0.4682  0.6333
30509SOL     OW94928   6.792   4.509   7.993  0.2004  0.3971  0.1146
30509SOL    HW194929   6.737   4.463   7.930  1.0066  0.5932 -0.7486
30509SOL    HW294930   6.793   4.452   8.070 -1.1410  0.3572  0.1384
30510SOL     OW94931   1.583   8.477   8.376 -0.2531  0.1235  0.7530
30510SOL    HW194932   1.595   8.382   8.375 -1.0421 -0.0196 -1.2164
30510SOL    HW294933   1.489   8.489   8.387 -0.1115  0.7031  1.3830
30511SOL     OW94934   9.488   1.487   6.179 -0.5102 -0.3292  0.1773
30511SOL    HW194935   9.432   1.525   6.111  0.4675  0.9939  0.0811
30511SOL    HW294936   9.567   1.540   6.178 -0.1803 -0.7341  1.8699
30512SOL     OW94937   7.699   1.720   2.759 -0.7963  1.4299 -0.3811
30512SOL    HW194938   7.614   1.724   2.714 -0.5766 -0.2156 -1.0307
30512SOL    HW294939   7.762   1.703   2.689 -0.0682  1.5915  0.2200
30513SOL     OW94940   7.197  10.576   7.782 -0.5711 -0.1140  0.1717
30513SOL    HW194941   7.111  10.600   7.815 -1.0601  0.0691 -1.1826
30513SOL    HW294942   7.222  10.648   7.724  0.6938  0.0418  0.8703
30514SOL     OW94943   1.621   4.412   3.524 -0.5257 -0.1333  0.3423
30514SOL    HW194944   1.625   4.327   3.478  2.5004  0.2903 -0.4205
30514SOL    HW294945   1.644   4.391   3.614 -0.7189 -0.2260  0.3716
30515SOL     OW94946   5.644   2.301  10.479 -0.7610  0.2732  0.1892
30515SOL    HW194947   5.640   2.354  10.400 -1.3843  1.0748  0.7438
30515SOL    HW294948   5.704   2.229  10.457  0.2599  1.3134 -0.5008
30516SOL     OW94949   7.745   3.781   4.822 -0.1137 -0.0923  0.1231
30516SOL    HW194950   7.665   3.731   4.806 -0.0419  0.1555 -1.0995
30516SOL    HW294951   7.718   3.850   4.884 -0.7381 -0.2921  0.0814
30517SOL     OW94952   5.733   3.429   9.829 -0.5105 -0.0939  0.3234
30517SOL    HW194953   5.706   3.520   9.846  1.9751  0.8710 -0.5032
30517SOL    HW294954   5.671   3.399   9.762 -0.1614  1.7254 -0.9111
30518SOL     OW94955   2.195   2.435   7.099 -0.5756  0.2465 -0.2403
30518SOL    HW194956   2.149   2.362   7.057  0.3765 -0.8664  0.6021
30518SOL    HW294957   2.286   2.427   7.070 -0.3669  0.8279  0.2279
30519SOL     OW94958   2.232   6.016   7.998  0.6257 -0.4420  0.1464
30519SOL    HW194959   2.184   5.943   7.960  2.7039 -0.8060 -2.0040
30519SOL    HW294960   2.164   6.079   8.022 -1.1292 -2.4806  0.8676
30520SOL     OW94961   6.587   1.017   3.951 -0.5083 -0.0630 -0.2315
30520SOL    HW194962   6.519   1.072   3.913 -0.5758  0.4106  0.5554
30520SOL    HW294963   6.546   0.975   4.027 -0.8932 -2.3419 -1.6060
30521SOL     OW94964   6.581   3.440  10.066 -0.1692 -0.2782 -0.5012
30521SOL    HW194965   6.533   3.385  10.128  1.4445 -0.4953  0.5996
30521SOL    HW294966   6.603   3.518  10.115  0.7347 -0.2475 -0.9430
30522SOL     OW94967   1.697   5.735   5.284  0.1966 -0.5983  0.6254
30522SOL    HW194968   1.637   5.708   5.354 -1.3834 -0.1340 -0.4756
30522SOL    HW294969   1.653   5.811   5.245  1.2814 -0.5602 -0.5507
30523SOL     OW94970   9.586   2.898   9.017 -0.5698 -0.6475  0.1892
30523SOL    HW194971   9.605   2.883   9.109  1.0937  0.8674  0.1511
30523SOL    HW294972   9.668   2.876   8.972 -0.5707  0.8825 -0.6272
30524SOL     OW94973   7.551   1.210   1.036 -0.1489  0.3520  0.8334
30524SOL    HW194974   7.613   1.260   1.089 -1.4880  0.6174  2.2368
30524SOL    HW294975   7.466   1.230   1.074 -1.2878  1.0306 -1.8289
30525SOL     OW94976   0.532   8.643   6.118 -0.0416  0.2099 -0.0413
30525SOL    HW194977   0.588   8.653   6.041  0.6080  1.4472  0.5709
30525SOL    HW294978   0.575   8.575   6.171 -0.0948 -0.1166 -0.4135
30526SOL     OW94979   1.079   4.080   0.772 -0.3797 -0.2124 -0.6385
30526SOL    HW194980   1.029   4.065   0.692  0.7081  0.9643 -1.5608
30526SOL    HW294981   1.137   4.004   0.779 -1.6619 -1.1833  0.0075
30527SOL     OW94982   5.537   4.631  10.245 -0.1650  0.4216  0.1007
30527SOL    HW194983   5.602   4.585  10.297 -1.6488 -0.8696  0.8830
30527SOL    HW294984   5.495   4.691  10.306  1.6552  2.8665 -0.8731
30528SOL     OW94985   9.330   2.676  10.562 -0.6964 -0.2971 -0.1863
30528SOL    HW194986   9.364   2.765  10.554  0.2814 -0.6064  0.3470
30528SOL    HW294987   9.386   2.624  10.504 -2.8343 -0.1995 -2.4678
30529SOL     OW94988   8.803   5.799   6.572  0.4861  0.1975 -0.0094
30529SOL    HW194989   8.847   5.867   6.623  0.7316  0.7416 -0.9244
30529SOL    HW294990   8.748   5.847   6.509 -0.0886 -0.4606 -0.0221
30530SOL     OW94991   9.301   9.875  10.292  0.9019  0.1236  0.3122
30530SOL    HW194992   9.225   9.897  10.346 -0.6125 -1.5427 -1.0316
30530SOL    HW294993   9.350   9.957  10.287 -0.9032  1.3305  1.0426
30531SOL     OW94994   2.267   0.338   0.459 -0.3696  0.1132 -0.0848
30531SOL    HW194995   2.221   0.315   0.540 -0.1060 -0.6912 -0.1580
30531SOL    HW294996   2.350   0.290   0.464  0.3860  1.3773 -0.0527
30532SOL     OW94997   1.474   5.186   8.260  0.1608  0.2842 -0.5437
30532SOL    HW194998   1.473   5.264   8.317  1.4497  0.3241 -0.5452
30532SOL    HW294999   1.447   5.115   8.318  0.5224  0.4814 -0.1175
30533SOL     OW95000   1.317   8.956   0.596  0.2997 -0.5264 -0.7047
30533SOL    HW195001   1.298   8.922   0.508  0.9880 -0.5329 -0.8580
30533SOL    HW295002   1.239   8.934   0.647 -0.3055 -0.1322 -1.4199
30534SOL     OW95003   8.926   2.763   7.127  0.2284 -0.5698  0.2413
30534SOL    HW195004   9.009   2.807   7.143 -0.1488 -0.0435  0.8398
30534SOL    HW295005   8.944   2.670   7.141  0.4147 -0.3328  1.7262
30535SOL     OW95006   2.607   2.459   5.452  0.0679 -0.1422  0.1152
30535SOL    HW195007   2.608   2.494   5.363 -0.2284 -0.5131 -0.0383
30535SOL    HW295008   2.594   2.364   5.440 -1.2274 -0.0451  0.5898
30536SOL     OW95009   6.469   5.253   3.534 -0.0251  0.1157  0.0902
30536SOL    HW195010   6.437   5.336   3.568  0.5319  0.1405  0.5751
30536SOL    HW295011   6.399   5.190   3.553 -0.8589  0.6420 -1.1329
30537SOL     OW95012   7.178   5.253   9.658 -0.1068 -0.1098 -0.2872
30537SOL    HW195013   7.268   5.241   9.689 -0.0705 -0.0886 -0.3856
30537SOL    HW295014   7.186   5.310   9.582 -0.1647 -0.4276 -0.5328
30538SOL     OW95015   9.815   7.883   5.436  0.3722  0.1015 -0.1698
30538SOL    HW195016   9.832   7.942   5.509  2.4953 -0.8651  0.1885
30538SOL    HW295017   9.739   7.832   5.464 -0.5674  1.5915  0.1344
30539SOL     OW95018   0.691  10.796   3.569  0.0997 -0.2363  0.1129
30539SOL    HW195019   0.647  10.847   3.500 -2.0915 -1.2141  0.6984
30539SOL    HW295020   0.759  10.855   3.603  0.2580  0.8034 -1.8588
30540SOL     OW95021  10.487   4.140   5.855 -0.1160  0.3775  0.6769
30540SOL    HW195022  10.491   4.229   5.821 -0.1588 -0.6556 -2.3377
30540SOL    HW295023  10.542   4.089   5.796 -0.4795 -1.7163  2.0139
30541SOL     OW95024   2.390   9.569   9.879 -0.1269 -0.1145  0.2968
30541SOL    HW195025   2.309   9.519   9.873  0.0172 -0.2651 -0.4258
30541SOL    HW295026   2.423   9.573   9.789  0.1899  0.7366  0.4428
30542SOL     OW95027  10.914   6.145   0.828 -0.4364 -0.3871 -0.3151
30542SOL    HW195028  10.920   6.211   0.897 -1.6517 -0.0411 -0.5127
30542SOL    HW295029  11.000   6.147   0.785 -0.6920  1.6287 -0.8120
30543SOL     OW95030   3.285   8.091   9.971  0.0140  0.2177  0.2131
30543SOL    HW195031   3.292   8.185   9.953 -0.4626 -0.1866 -2.5415
30543SOL    HW295032   3.368   8.055   9.942 -0.4748 -0.4114 -0.4334
30544SOL     OW95033   0.671   4.897   9.959 -0.8283 -0.5698 -0.4436
30544SOL    HW195034   0.623   4.814   9.949  0.4478 -1.2549 -1.1507
30544SOL    HW295035   0.729   4.900   9.883  0.9963 -0.2802  0.9041
30545SOL     OW95036   0.273   3.792   5.218 -0.0082 -0.3865 -0.1528
30545SOL    HW195037   0.276   3.875   5.267 -3.6642 -1.0480  1.4659
30545SOL    HW295038   0.239   3.816   5.132 -0.2202 -0.1181  0.0071
30546SOL     OW95039   1.867   1.863  10.561  0.5451 -0.4962 -0.2868
30546SOL    HW195040   1.807   1.914  10.615  0.7342 -0.7965  0.2077
30546SOL    HW295041   1.818   1.784  10.539  1.0507 -1.1517  0.8459
30547SOL     OW95042   5.931   2.592   0.092 -0.4196  0.3483 -0.0886
30547SOL    HW195043   5.976   2.631   0.167 -0.6309  0.2317  0.1021
30547SOL    HW295044   5.980   2.622   0.016  0.3214 -0.2217  0.1471
30548SOL     OW95045   6.388   7.745   0.853  0.5454 -0.0210 -0.4480
30548SOL    HW195046   6.470   7.769   0.809  0.6682 -0.1577 -0.2970
30548SOL    HW295047   6.336   7.703   0.785 -0.0569  1.5024 -0.9668
30549SOL     OW95048   7.867   7.636   2.768  0.2424  0.0831 -0.1483
30549SOL    HW195049   7.879   7.724   2.803 -0.5298  0.1867 -0.1431
30549SOL    HW295050   7.894   7.578   2.839  0.7267  0.3118 -0.1429
30550SOL     OW95051   2.931   8.358   4.415 -0.2461  0.1882  0.0021
30550SOL    HW195052   2.899   8.273   4.384 -0.4425 -0.0108  0.7400
30550SOL    HW295053   2.995   8.385   4.349 -0.3411 -0.4304 -0.3498
30551SOL     OW95054   7.611   9.531   4.494 -0.0403  0.5036  0.5296
30551SOL    HW195055   7.552   9.456   4.505  0.4008 -0.5112 -3.0037
30551SOL    HW295056   7.698   9.494   4.507  0.1136  0.6682 -0.0432
30552SOL     OW95057   6.266   1.810   8.920 -0.1136 -0.9853 -0.1327
30552SOL    HW195058   6.227   1.803   8.832 -1.4763  1.1900  0.2150
30552SOL    HW295059   6.327   1.882   8.913  1.1169 -1.9548  0.3071
30553SOL     OW95060   6.402   8.584  10.037 -0.2350  0.4226 -0.3954
30553SOL    HW195061   6.448   8.665  10.016 -1.1165  1.4924  1.5413
30553SOL    HW295062   6.437   8.557  10.121 -0.3749 -0.9061 -0.7453
30554SOL     OW95063   2.693   2.790   9.539  0.3774 -0.1897 -0.3588
30554SOL    HW195064   2.776   2.807   9.583 -0.1780  0.4273  0.4735
30554SOL    HW295065   2.683   2.695   9.541  1.3987 -0.3285 -1.1082
30555SOL     OW95066   5.140   0.292   7.273  0.0809  0.2426 -0.0249
30555SOL    HW195067   5.100   0.222   7.325 -0.0619 -0.3200 -0.8740
30555SOL    HW295068   5.208   0.327   7.330  0.5325 -0.9667  0.2268
30556SOL     OW95069   3.096   8.276  10.114 -0.4887  0.8090 -0.1293
30556SOL    HW195070   3.186   8.305  10.101 -0.4175  1.7938  2.0976
30556SOL    HW295071   3.083   8.207  10.049  1.5818  1.2168 -1.0521
30557SOL     OW95072   9.851   3.764   4.812 -0.9369  0.3755 -0.4862
30557SOL    HW195073   9.830   3.853   4.785 -2.1258  0.5258  0.7930
30557SOL    HW295074   9.946   3.759   4.810 -0.8014  1.9893  0.3363
30558SOL     OW95075   3.688   5.251   5.856 -0.0896  0.1335  0.0454
30558SOL    HW195076   3.679   5.157   5.843 -1.2461  0.5358 -2.8053
30558SOL    HW295077   3.623   5.290   5.798  1.9482  2.7496 -0.7196
30559SOL     OW95078   5.705   2.176   8.439 -0.1698  0.4717 -0.3058
30559SOL    HW195079   5.786   2.185   8.489 -0.5874 -0.0419  0.4717
30559SOL    HW295080   5.702   2.254   8.383 -0.5995  2.0010  1.7485
30560SOL     OW95081   4.472   4.416   6.438 -0.2326  0.2248  0.0325
30560SOL    HW195082   4.524   4.357   6.492  1.7284  2.0132  0.2037
30560SOL    HW295083   4.381   4.397   6.462  0.5127  0.1118  3.0644
30561SOL     OW95084   0.033   3.669   6.344 -0.0846  0.3513  0.0268
30561SOL    HW195085  -0.009   3.733   6.286 -1.7442  0.0893  0.8627
30561SOL    HW295086   0.079   3.722   6.409 -1.1063  0.7098  0.4754
30562SOL     OW95087   5.026   0.166   0.075 -0.0348  0.2217 -0.1332
30562SOL    HW195088   4.977   0.238   0.034  1.6570  0.4151 -1.9789
30562SOL    HW295089   5.062   0.117   0.001  0.3836 -1.4554  1.1272
30563SOL     OW95090   9.134   6.658   0.570 -0.8854 -0.2538 -0.3618
30563SOL    HW195091   9.109   6.705   0.650 -1.4712  0.3186 -0.8621
30563SOL    HW295092   9.139   6.566   0.596 -0.8241 -0.0427  0.3890
30564SOL     OW95093   3.616   7.795  10.858 -0.0580  0.0315  0.1219
30564SOL    HW195094   3.655   7.808  10.772 -0.3520 -0.1252 -0.0352
30564SOL    HW295095   3.666   7.854  10.916  0.6335 -0.4121 -0.0107
30565SOL     OW95096   9.756   4.400   4.222  0.0581 -0.1733 -0.3556
30565SOL    HW195097   9.721   4.311   4.214 -0.6551 -0.0486  1.0467
30565SOL    HW295098   9.700   4.441   4.288  0.3283  1.3514 -1.0458
30566SOL     OW95099   9.072   6.684   2.024 -0.4950 -0.2321  0.2230
30566SOL    HW195100   9.111   6.650   1.943 -1.1316 -0.7587  0.1237
30566SOL    HW295101   9.083   6.613   2.087 -1.1768 -0.3540  0.2209
30567SOL     OW95102   8.645   7.752   0.510 -0.1609  0.4303 -0.1179
30567SOL    HW195103   8.553   7.759   0.484 -0.4896  0.1842  0.9602
30567SOL    HW295104   8.694   7.776   0.431 -1.1485  0.7769 -0.6339
30568SOL     OW95105   2.223   3.551   7.546  0.0767  0.2315  0.2667
30568SOL    HW195106   2.250   3.560   7.638  2.1609  3.1539 -0.4879
30568SOL    HW295107   2.129   3.570   7.547 -0.0724 -0.4225  1.8405
30569SOL     OW95108   7.056   7.217  10.513  0.6982  0.1361  0.3901
30569SOL    HW195109   7.129   7.189  10.458  0.9209 -1.7779  1.5682
30569SOL    HW295110   7.008   7.281  10.459  1.0411 -1.4313 -1.9042
30570SOL     OW95111   7.874   8.505   1.326 -0.2782 -0.5068  0.3706
30570SOL    HW195112   7.833   8.591   1.312  1.8038  0.5495  0.3822
30570SOL    HW295113   7.866   8.461   1.241  0.4057  0.5318 -0.2635
30571SOL     OW95114   7.102   7.427   9.328 -0.3587 -0.0262  0.0230
30571SOL    HW195115   7.018   7.386   9.347 -0.6752 -0.2631 -1.7158
30571SOL    HW295116   7.131   7.384   9.247  0.0907  2.0039 -0.9418
30572SOL     OW95117   4.466   6.589   1.892 -0.1064  0.3092 -0.0778
30572SOL    HW195118   4.378   6.582   1.928 -0.2169  0.5259 -0.3049
30572SOL    HW295119   4.466   6.531   1.816  0.6843 -1.6430  1.3069
30573SOL     OW95120   7.210   0.015   2.680  0.3550  0.1497 -0.2873
30573SOL    HW195121   7.135   0.052   2.726  0.5111  0.2886 -0.1476
30573SOL    HW295122   7.256  -0.037   2.746  0.4786  0.2049 -0.3301
30574SOL     OW95123   6.205   4.986   8.581  0.3520 -0.7873 -0.2549
30574SOL    HW195124   6.189   4.896   8.553  1.3455 -1.2810  0.6861
30574SOL    HW295125   6.217   4.979   8.676  2.2617  0.0561 -0.3999
30575SOL     OW95126  10.833   6.141   6.144  0.5355 -0.3831 -0.3626
30575SOL    HW195127  10.751   6.180   6.115  0.6935  0.0611 -0.2206
30575SOL    HW295128  10.851   6.072   6.080 -0.8961 -1.7444  0.6347
30576SOL     OW95129   7.612   0.677   4.669  0.0835 -0.0240  0.1439
30576SOL    HW195130   7.697   0.652   4.634  0.9343  3.2144 -0.4386
30576SOL    HW295131   7.605   0.630   4.752  1.9997 -1.1090 -0.2589
30577SOL     OW95132   1.727   7.626   4.848 -0.2040 -0.1190 -0.0186
30577SOL    HW195133   1.794   7.565   4.818 -1.3011 -1.9009  0.9394
30577SOL    HW295134   1.774   7.707   4.867  1.6878 -1.3148  0.6351
30578SOL     OW95135   5.147   9.376   1.345  0.4502  0.3037  0.4054
30578SOL    HW195136   5.064   9.423   1.349 -0.1075 -0.6834  1.0060
30578SOL    HW295137   5.214   9.444   1.337 -0.3143  1.1895  1.3748
30579SOL     OW95138   3.164   9.765   4.758  0.3313  0.3208 -0.2038
30579SOL    HW195139   3.234   9.823   4.789 -0.2672  1.0303 -0.1477
30579SOL    HW295140   3.095   9.825   4.728 -1.2835 -0.2973  2.0045
30580SOL     OW95141   3.519   7.449   6.719 -0.2465 -0.0047 -0.6451
30580SOL    HW195142   3.567   7.532   6.723 -0.2816 -0.0488  1.1334
30580SOL    HW295143   3.447   7.467   6.658 -1.7233  2.1036  1.5245
30581SOL     OW95144   1.262   1.107   1.206 -0.5301  0.1095  0.4815
30581SOL    HW195145   1.318   1.030   1.216 -0.7018 -0.1762 -0.5889
30581SOL    HW295146   1.223   1.096   1.120  0.3400  1.9922 -0.2008
30582SOL     OW95147   4.024   6.465   4.017  0.3504  0.1746 -0.7802
30582SOL    HW195148   4.001   6.453   4.109 -1.4824 -2.5181 -1.4356
30582SOL    HW295149   3.986   6.549   3.993 -1.4784 -0.2639  0.3458
30583SOL     OW95150   9.141   2.966   8.649  0.3966  0.0171  0.5704
30583SOL    HW195151   9.095   2.886   8.673  0.8737 -1.3685 -2.5464
30583SOL    HW295152   9.226   2.960   8.693  0.0492 -0.6831  1.1564
30584SOL     OW95153   3.499   0.797   9.463 -0.3107 -0.2205 -0.4275
30584SOL    HW195154   3.485   0.703   9.461  0.0447 -0.3472  1.2293
30584SOL    HW295155   3.413   0.834   9.440 -0.2813 -0.9251 -1.7264
30585SOL     OW95156   1.898   8.290  10.277  0.5940 -0.9836 -0.3598
30585SOL    HW195157   1.924   8.382  10.281 -0.7570 -0.5240 -1.4417
30585SOL    HW295158   1.934   8.252  10.358 -1.4570  1.1918  1.7483
30586SOL     OW95159   8.611  10.900  10.438  0.4044 -0.0259  0.3558
30586SOL    HW195160   8.617  10.805  10.423 -1.7348 -0.3069  0.9765
30586SOL    HW295161   8.626  10.910  10.532 -1.6451 -0.0555  0.7264
30587SOL     OW95162   2.432   4.683   2.703 -0.5586  0.2373 -0.2750
30587SOL    HW195163   2.401   4.648   2.786 -1.3142 -0.5855 -0.8885
30587SOL    HW295164   2.461   4.772   2.723 -2.4334  0.7004  0.5129
30588SOL     OW95165   4.725   8.100   3.745  0.0667  0.7512  0.4315
30588SOL    HW195166   4.816   8.072   3.745 -0.3580 -0.7040  1.1191
30588SOL    HW295167   4.729   8.196   3.751  1.5324  0.6759  0.8502
30589SOL     OW95168   2.670   2.756   0.592  0.1082 -0.0168  0.7270
30589SOL    HW195169   2.604   2.688   0.578 -1.2141  1.5551 -1.3259
30589SOL    HW295170   2.619   2.837   0.596  1.6980  0.9613  2.2798
30590SOL     OW95171   0.197   5.261   1.091 -0.3563 -0.3910  0.1139
30590SOL    HW195172   0.290   5.282   1.094 -0.5216  0.3552  0.2408
30590SOL    HW295173   0.182   5.207   1.168  0.2970 -1.9429 -0.8098
30591SOL     OW95174   5.870   6.884   0.491 -0.0681  0.3037  0.0144
30591SOL    HW195175   5.809   6.953   0.515 -0.3585 -0.2944  1.0678
30591SOL    HW295176   5.947   6.900   0.545  0.0338  0.0697 -0.0590
30592SOL     OW95177   2.007   4.219   6.296 -0.0816 -0.0414  0.4215
30592SOL    HW195178   1.926   4.271   6.305 -0.5110 -0.4238 -0.9480
30592SOL    HW295179   2.050   4.227   6.381 -0.0717  2.6586  0.2403
30593SOL     OW95180   0.215   1.176   6.536 -0.0102  0.3314 -0.0959
30593SOL    HW195181   0.272   1.115   6.490  1.5788  1.2951  0.5029
30593SOL    HW295182   0.247   1.174   6.627 -0.5151  1.3855  0.1152
30594SOL     OW95183   4.442   9.159   8.594 -0.3384  1.2364 -0.4314
30594SOL    HW195184   4.481   9.241   8.623 -0.8696  2.5171 -3.0703
30594SOL    HW295185   4.411   9.118   8.674 -1.0682  4.1269  0.8903
30595SOL     OW95186   9.126  10.051   3.604 -0.3957 -0.5980 -0.8599
30595SOL    HW195187   9.191  10.118   3.626 -0.0962 -0.3448 -2.3793
30595SOL    HW295188   9.059  10.060   3.671  0.7795 -0.3723  0.3281
30596SOL     OW95189   2.263   9.121   6.482  0.6078  0.3757  0.6836
30596SOL    HW195190   2.306   9.078   6.557 -0.5938 -0.7824  0.7571
30596SOL    HW295191   2.203   9.184   6.523 -0.9523 -1.1148  0.8083
30597SOL     OW95192   1.077   9.835  10.736  0.4115  0.1468 -0.2684
30597SOL    HW195193   1.020   9.903  10.701 -1.3359 -0.9891  0.2513
30597SOL    HW295194   1.159   9.844  10.686 -0.6906  0.9242 -2.0211
30598SOL     OW95195   2.636   3.381   0.561 -0.1202 -0.6547  0.0403
30598SOL    HW195196   2.725   3.401   0.587 -0.6247  2.2173 -0.1236
30598SOL    HW295197   2.581   3.440   0.613 -1.9047 -1.9181 -0.2901
30599SOL     OW95198   6.320   6.661   2.825  0.2832  0.1551  0.3155
30599SOL    HW195199   6.332   6.647   2.731 -0.8544  1.1924 -0.0210
30599SOL    HW295200   6.375   6.736   2.846  0.2998  0.1187  0.3999
30600SOL     OW95201   8.630   1.861   3.655 -0.6166 -0.3036 -0.0084
30600SOL    HW195202   8.536   1.874   3.665 -0.2424  0.8671  3.0759
30600SOL    HW295203   8.669   1.945   3.680  1.2970 -1.5888  1.6238
30601SOL     OW95204   4.799   0.999   2.578  0.2946  0.4318  0.0919
30601SOL    HW195205   4.761   0.975   2.663 -0.6451  2.5567  0.3306
30601SOL    HW295206   4.728   0.987   2.515  0.8387 -0.6493 -0.3267
30602SOL     OW95207  10.712  10.134   6.743 -0.0282 -0.1774 -0.3476
30602SOL    HW195208  10.707  10.132   6.839  0.0420  0.2852 -0.3342
30602SOL    HW295209  10.677  10.049   6.716 -1.4862  0.2611  0.0314
30603SOL     OW95210   2.936   2.166   7.152 -0.2055 -0.3174 -0.0368
30603SOL    HW195211   2.997   2.190   7.081  1.6651 -1.3378  1.1379
30603SOL    HW295212   2.971   2.209   7.230 -1.9980  0.4412  0.4114
30604SOL     OW95213   1.063   2.834   5.045  0.3145 -0.1556 -0.8776
30604SOL    HW195214   1.037   2.839   4.953 -0.1377 -0.0332 -0.7467
30604SOL    HW295215   0.989   2.871   5.093  0.2421 -0.8693 -0.4202
30605SOL     OW95216   6.657   4.295  10.588  0.0367 -0.6047 -0.4445
30605SOL    HW195217   6.594   4.257  10.526 -2.3891 -0.9363  2.0428
30605SOL    HW295218   6.604   4.353  10.643  2.6041  1.9424 -0.4243
30606SOL     OW95219   2.833   9.611  10.396  0.1211 -0.7365  0.0497
30606SOL    HW195220   2.748   9.565  10.396  0.5778 -1.6154 -0.4099
30606SOL    HW295221   2.894   9.547  10.360  0.8235  0.2005 -0.4476
30607SOL     OW95222   5.203   4.665   6.079  0.2152  0.0258  0.1601
30607SOL    HW195223   5.249   4.701   6.154  2.9234 -2.8732  0.0777
30607SOL    HW295224   5.128   4.619   6.117 -0.7371  1.8592  0.6243
30608SOL     OW95225   5.020   9.128   6.285 -0.4413 -0.3385 -0.5161
30608SOL    HW195226   5.073   9.069   6.230  0.8308  2.1901 -2.2129
30608SOL    HW295227   5.031   9.094   6.374  2.6917 -0.9718 -1.0140
30609SOL     OW95228  10.681   1.181   7.298  0.7306  0.0527  0.2244
30609SOL    HW195229  10.649   1.137   7.378 -0.2109  0.4638  0.0839
30609SOL    HW295230  10.715   1.265   7.329 -0.0022  0.3837  0.1570
30610SOL     OW95231   0.639   1.653   9.065  0.3133 -0.1799 -0.1423
30610SOL    HW195232   0.657   1.718   9.132  0.7416 -0.9984  0.5623
30610SOL    HW295233   0.685   1.684   8.987  0.2309  0.5200  0.0877
30611SOL     OW95234   8.353   1.785   1.481 -0.0110 -0.0554 -0.2607
30611SOL    HW195235   8.378   1.693   1.492 -1.7335 -0.7316 -1.5953
30611SOL    HW295236   8.260   1.788   1.503  0.3990  1.7770  1.5280
30612SOL     OW95237   6.429   3.093   5.520 -0.5086  0.7813  0.6241
30612SOL    HW195238   6.411   3.049   5.603  2.5904 -0.2181  0.9151
30612SOL    HW295239   6.380   3.175   5.525  0.2697  1.1820  3.8929
30613SOL     OW95240   6.040   7.511  10.140 -0.6128 -0.0169 -0.5121
30613SOL    HW195241   6.019   7.602  10.163 -1.9070 -0.3826 -0.2071
30613SOL    HW295242   6.015   7.460  10.217  0.2123 -0.6342 -0.6379
30614SOL     OW95243   5.908   1.830   8.917 -0.2311 -0.2935  0.4322
30614SOL    HW195244   5.919   1.857   9.008  0.4013  0.8837  0.0330
30614SOL    HW295245   5.943   1.741   8.913  0.8252  0.0802  1.0922
30615SOL     OW95246   8.576   7.196   9.692  0.7900 -0.3433  0.5711
30615SOL    HW195247   8.600   7.151   9.610  1.1938  0.3049  0.3218
30615SOL    HW295248   8.608   7.286   9.680 -2.0689  0.7173  0.0881
30616SOL     OW95249  10.186   4.043   8.428  0.4391 -0.3410 -0.1761
30616SOL    HW195250  10.174   4.026   8.522 -0.5183 -0.9118 -0.3751
30616SOL    HW295251  10.273   4.081   8.421 -0.1059  1.2524  1.1312
30617SOL     OW95252   9.841   5.968   4.892 -0.2288 -0.6722  0.2165
30617SOL    HW195253   9.853   5.902   4.823 -0.9574 -0.9881  0.3801
30617SOL    HW295254   9.924   6.015   4.895  0.2971 -1.5541  0.0589
30618SOL     OW95255   4.469   5.003  10.609  0.1451 -0.5399 -0.3633
30618SOL    HW195256   4.420   4.937  10.560  0.1353 -0.5935 -0.2839
30618SOL    HW295257   4.511   4.953  10.680  1.1173 -0.6672 -1.0054
30619SOL     OW95258  10.473   5.844   4.880  0.4382  0.0091 -0.8001
30619SOL    HW195259  10.539   5.907   4.906  1.8172 -1.5573 -0.3101
30619SOL    HW295260  10.431   5.883   4.803  0.4346  1.9895  0.1429
30620SOL     OW95261   5.409   0.164   6.458  0.5196  0.2941  0.4228
30620SOL    HW195262   5.457   0.242   6.486  0.2838  0.8945 -0.7864
30620SOL    HW295263   5.317   0.191   6.458  0.2513 -0.5431  1.7441
30621SOL     OW95264   3.083   5.426   1.057 -0.0954  0.2447 -0.3596
30621SOL    HW195265   3.105   5.502   1.003  1.1627 -1.5592 -2.5218
30621SOL    HW295266   3.054   5.359   0.995 -0.7703 -1.2320  1.4361
30622SOL     OW95267   9.016   5.268   1.703  0.3484  0.4158 -0.4532
30622SOL    HW195268   9.062   5.316   1.772  0.1216 -0.0040 -0.0084
30622SOL    HW295269   9.060   5.184   1.698  0.5458  0.5450 -1.0253
30623SOL     OW95270   5.369   0.491   9.492 -0.0086  0.3806  0.4657
30623SOL    HW195271   5.350   0.407   9.535  2.6413 -0.5428  0.0395
30623SOL    HW295272   5.333   0.557   9.552 -1.7609 -1.0156  1.0429
30624SOL     OW95273   4.569   5.963   8.937 -0.2744 -0.1705 -0.3384
30624SOL    HW195274   4.616   5.901   8.994  1.8805  0.6319 -1.1547
30624SOL    HW295275   4.506   5.909   8.890  0.2153 -1.4069  0.3726
30625SOL     OW95276   6.485   6.178   2.410  0.1872 -0.2930 -0.2644
30625SOL    HW195277   6.505   6.224   2.491  1.7793  1.0553 -1.3691
30625SOL    HW295278   6.562   6.123   2.394 -0.1473 -0.6073 -0.8153
30626SOL     OW95279   6.335   6.516   0.603  0.1929  0.1503  0.3328
30626SOL    HW195280   6.331   6.438   0.548  1.7242 -0.8311  1.5261
30626SOL    HW295281   6.278   6.579   0.560 -1.2021 -1.6668 -0.5902
30627SOL     OW95282   8.896  10.702   1.778 -0.4125 -0.0137  0.5762
30627SOL    HW195283   8.839  10.659   1.713  1.3680  1.3057 -1.9997
30627SOL    HW295284   8.861  10.791   1.785  0.3414  0.3112  0.2285
30628SOL     OW95285   5.813   4.444   1.425  0.5238 -0.2523  0.4877
30628SOL    HW195286   5.843   4.530   1.454  0.9411  0.0457 -0.7282
30628SOL    HW295287   5.844   4.438   1.334 -0.4314 -1.2358  0.2049
30629SOL     OW95288   0.320   1.821   8.677 -0.2380  0.2079  0.7991
30629SOL    HW195289   0.350   1.850   8.591  0.7096  0.9384  1.3443
30629SOL    HW295290   0.231   1.790   8.663  0.1158 -0.2500 -0.5477
30630SOL     OW95291   1.316   6.478   2.446  0.6532  0.5168 -0.4590
30630SOL    HW195292   1.333   6.554   2.391 -0.0524  0.8137 -0.2806
30630SOL    HW295293   1.291   6.409   2.385  0.8535  0.5583 -0.5878
30631SOL     OW95294   4.246   1.187   5.498  0.2969  0.3599 -0.3672
30631SOL    HW195295   4.268   1.184   5.405 -0.0744  0.8932 -0.4812
30631SOL    HW295296   4.157   1.223   5.500  0.6864  1.3428  0.2438
30632SOL     OW95297   4.784   6.266   9.611  0.3520 -0.0899 -0.1201
30632SOL    HW195298   4.825   6.352   9.627  0.3893 -0.5707  3.1029
30632SOL    HW295299   4.849   6.203   9.643 -0.3034 -1.2483 -1.0140
30633SOL     OW95300   7.127   4.733   5.126  0.0991  0.0370  0.0415
30633SOL    HW195301   7.159   4.703   5.041 -0.9467 -0.9759 -0.0031
30633SOL    HW295302   7.059   4.797   5.105  0.6061  0.6149  0.1312
30634SOL     OW95303   7.545   8.662  10.091 -0.4808  0.2433 -0.4165
30634SOL    HW195304   7.623   8.642  10.038  0.5725  0.3113  1.0567
30634SOL    HW295305   7.505   8.576  10.106  0.5085 -0.0610  0.5904
30635SOL     OW95306   4.443   5.398   4.123  0.0390 -0.1826 -0.1125
30635SOL    HW195307   4.485   5.414   4.038  1.1906 -1.6137  0.1431
30635SOL    HW295308   4.389   5.475   4.138  2.5017  1.7313 -0.5236
30636SOL     OW95309   7.068   1.333   3.286  0.0713 -0.6126  0.2088
30636SOL    HW195310   6.992   1.347   3.231  1.3054  1.2266 -1.1171
30636SOL    HW295311   7.045   1.257   3.340 -2.0322 -1.0973 -1.2781
30637SOL     OW95312   2.899   3.826   0.872  0.0625  0.1934  0.2611
30637SOL    HW195313   2.871   3.740   0.839 -0.5587  0.2789  0.5430
30637SOL    HW295314   2.819   3.878   0.873  0.4554  0.8126  0.0036
30638SOL     OW95315  10.712   9.643   7.166 -0.3828 -0.2743  0.2205
30638SOL    HW195316  10.670   9.667   7.249  0.5487  0.6190  0.4481
30638SOL    HW295317  10.659   9.687   7.100  0.1213  0.8022  0.5040
30639SOL     OW95318  10.356   7.220  10.435  0.1159  0.1651  0.0430
30639SOL    HW195319  10.288   7.270  10.389 -0.6236  0.6254  1.5790
30639SOL    HW295320  10.429   7.216  10.373 -1.1419  0.0052 -1.4968
30640SOL     OW95321   8.011   6.173   0.284 -0.4004  0.0585  0.1079
30640SOL    HW195322   8.011   6.096   0.228 -0.3485 -0.7994  1.2375
30640SOL    HW295323   8.015   6.138   0.373  1.2575  1.3697  0.6296
30641SOL     OW95324   8.765   5.441   6.223 -0.6950  0.5532 -0.4068
30641SOL    HW195325   8.819   5.366   6.248 -2.6552 -0.7863  0.0870
30641SOL    HW295326   8.793   5.511   6.282 -1.4083 -0.9443  1.8655
30642SOL     OW95327   3.526   4.506   6.572  0.2281 -0.2658  0.1176
30642SOL    HW195328   3.440   4.522   6.611 -0.0960  0.1004 -0.7087
30642SOL    HW295329   3.570   4.448   6.634 -0.0682  0.6952  1.2574
30643SOL     OW95330   8.511   2.992   1.368 -0.3528 -0.0357 -0.4414
30643SOL    HW195331   8.557   3.042   1.436  0.9847  0.3243 -1.5548
30643SOL    HW295332   8.496   2.906   1.408  2.6897 -0.7010 -0.4782
30644SOL     OW95333   7.552   8.606   4.351  0.1410 -0.0426 -0.1602
30644SOL    HW195334   7.471   8.579   4.308 -0.2371 -0.4618  0.7913
30644SOL    HW295335   7.552   8.558   4.434  0.3926  1.4190  0.7223
30645SOL     OW95336   2.045   0.211   2.493  0.0989  0.7280  0.4346
30645SOL    HW195337   2.010   0.230   2.580 -1.1749  0.0040  0.1163
30645SOL    HW295338   2.031   0.117   2.481  0.3797  0.7879 -0.4889
30646SOL     OW95339   3.294   8.436   2.771  0.1517  0.4217 -0.1296
30646SOL    HW195340   3.354   8.379   2.722 -1.0097  0.0072 -1.1542
30646SOL    HW295341   3.317   8.525   2.744  1.4543  0.4094  0.8645
30647SOL     OW95342   8.822   6.720   6.127  0.4472 -0.8332  0.3764
30647SOL    HW195343   8.852   6.811   6.130 -1.3875 -0.1764  0.3579
30647SOL    HW295344   8.891   6.670   6.171  1.6734  0.4970  0.0580
30648SOL     OW95345   6.754   6.224   3.681 -0.0813  0.2559  0.2075
30648SOL    HW195346   6.802   6.159   3.733 -0.0358  0.1805  0.0743
30648SOL    HW295347   6.817   6.251   3.614  0.1002  0.8826  0.6275
30649SOL     OW95348   8.750   8.897  10.029 -0.0061  0.1970  0.2968
30649SOL    HW195349   8.747   8.930  10.119  0.3263  0.8441  0.0739
30649SOL    HW295350   8.756   8.976   9.975  0.8081 -0.2287 -0.2483
30650SOL     OW95351   0.693   5.078   0.674 -0.3010  0.2581 -0.2788
30650SOL    HW195352   0.768   5.041   0.628 -0.3518 -2.8420  1.7828
30650SOL    HW295353   0.617   5.054   0.620 -0.0386  0.8244 -0.9083
30651SOL     OW95354   7.341   1.578   1.844 -0.1572 -0.0311  0.4972
30651SOL    HW195355   7.412   1.585   1.907  0.9447  0.0808 -0.7159
30651SOL    HW295356   7.264   1.613   1.890  0.6779  0.3292  1.6581
30652SOL     OW95357   6.087   0.104   5.323  0.4797 -0.7808 -0.3850
30652SOL    HW195358   6.065   0.179   5.268 -1.4268 -1.3965 -0.5229
30652SOL    HW295359   6.049   0.125   5.408  2.4652 -0.3276  0.4554
30653SOL     OW95360   1.704   6.717  10.248  0.8217  0.0969  0.3414
30653SOL    HW195361   1.725   6.644  10.307  2.1490  0.0169 -0.1945
30653SOL    HW295362   1.651   6.677  10.179 -0.4258  0.1181  1.2506
30654SOL     OW95363   6.726   1.267   3.450  0.0909  0.3440 -0.2146
30654SOL    HW195364   6.652   1.208   3.462 -0.0966  0.4745 -0.6942
30654SOL    HW295365   6.796   1.212   3.415  0.3050  0.1726  0.4593
30655SOL     OW95366   9.810   8.575   2.341 -0.1894 -0.1124  0.2172
30655SOL    HW195367   9.732   8.631   2.334 -0.3031 -0.2457  0.4294
30655SOL    HW295368   9.843   8.570   2.251 -0.1554  0.3289  0.2023
30656SOL     OW95369   6.260   1.305   0.931  0.0280  0.2115  0.2808
30656SOL    HW195370   6.222   1.352   0.857  0.3392  0.3119  0.1839
30656SOL    HW295371   6.221   1.218   0.927 -2.3110  1.1114  1.7912
30657SOL     OW95372   3.067   0.572   7.481 -0.3290  0.0235 -0.3866
30657SOL    HW195373   2.996   0.539   7.535 -0.0382 -0.8796 -0.5227
30657SOL    HW295374   3.074   0.508   7.409  1.2670 -0.4948  0.1710
30658SOL     OW95375   6.697   1.224   7.256  0.1788  0.3947 -0.4002
30658SOL    HW195376   6.758   1.275   7.309 -0.5464  0.6390  0.2035
30658SOL    HW295377   6.613   1.268   7.266 -0.0324  0.2877 -1.5347
30659SOL     OW95378   6.371   4.709   2.632 -0.2023  0.8365  0.0082
30659SOL    HW195379   6.374   4.798   2.597 -1.0113  0.9730  0.2562
30659SOL    HW295380   6.398   4.653   2.559  2.4733  1.4182  0.4698
30660SOL     OW95381   2.007   1.340   9.741 -0.2207 -0.5853  0.1901
30660SOL    HW195382   1.989   1.372   9.829  0.3067 -0.5634  0.2964
30660SOL    HW295383   1.990   1.415   9.684  0.6636 -0.2024  0.4036
30661SOL     OW95384   2.707   8.115   8.907 -0.1583  0.8259 -0.2626
30661SOL    HW195385   2.633   8.121   8.846  0.9790 -0.8565 -1.9052
30661SOL    HW295386   2.741   8.026   8.896  0.2013  0.4527  2.7849
30662SOL     OW95387   8.216   0.947   6.645 -0.0605  0.0839 -0.0341
30662SOL    HW195388   8.286   0.909   6.591 -1.3567 -0.8616 -1.0960
30662SOL    HW295389   8.186   1.023   6.595  0.8285  1.0941  0.8972
30663SOL     OW95390   6.144   5.150   1.449 -0.3753 -0.1391 -0.5029
30663SOL    HW195391   6.058   5.114   1.471  0.2974 -0.9134  0.9383
30663SOL    HW295392   6.187   5.080   1.400 -0.4815  0.1822 -1.0670
30664SOL     OW95393   4.474   4.756   1.471 -0.0825  0.2984 -0.1262
30664SOL    HW195394   4.447   4.671   1.437  2.1670 -0.1442 -0.9734
30664SOL    HW295395   4.393   4.805   1.480 -1.1332 -0.7206 -2.9808
30665SOL     OW95396  10.430   4.809   9.703  0.3184 -0.3934  0.3197
30665SOL    HW195397  10.448   4.803   9.609 -0.9809  0.3645 -0.0103
30665SOL    HW295398  10.417   4.903   9.718 -1.0977 -0.6678  0.9281
30666SOL     OW95399   8.094  10.130   9.562 -0.0301  0.0805 -0.2874
30666SOL    HW195400   8.160  10.084   9.509 -2.2389 -3.4166 -0.3482
30666SOL    HW295401   8.042  10.179   9.498  1.1230  1.1238 -0.4779
30667SOL     OW95402   8.869   1.717   8.117  0.7059 -0.4143  1.0745
30667SOL    HW195403   8.922   1.792   8.090  3.2683 -1.7475  2.0389
30667SOL    HW295404   8.894   1.647   8.057  0.1327 -1.1183  1.6479
30668SOL     OW95405   6.429   8.331   9.620 -0.7005  0.4974 -0.9783
30668SOL    HW195406   6.455   8.300   9.707 -0.0834 -0.8469 -1.6183
30668SOL    HW295407   6.499   8.392   9.595 -1.2556  1.4494 -0.2428
30669SOL     OW95408   8.901  10.084   2.566  0.4450  0.3642 -0.0784
30669SOL    HW195409   8.809  10.061   2.553  0.3300  0.9919 -0.4086
30669SOL    HW295410   8.915  10.074   2.661  0.1463 -0.1066 -0.0818
30670SOL     OW95411   1.657   1.206  10.806  0.2024 -0.2101 -0.1581
30670SOL    HW195412   1.744   1.166  10.814  0.4214  0.1548 -0.6607
30670SOL    HW295413   1.675   1.299  10.793 -0.3007  0.1634  1.4811
30671SOL     OW95414   5.384   1.792   5.342 -0.2544 -0.0560  0.3582
30671SOL    HW195415   5.317   1.792   5.410 -0.7921  1.6503 -0.1396
30671SOL    HW295416   5.337   1.812   5.261  0.8108  1.0664 -0.0146
30672SOL     OW95417   2.796   3.940   9.956  0.6709  0.1806  0.0056
30672SOL    HW195418   2.880   3.978   9.981  1.5874 -1.3875 -0.5578
30672SOL    HW295419   2.781   3.970   9.866  0.9475 -0.0461 -0.1178
30673SOL     OW95420   8.855   0.887   1.575 -0.1305  0.6737 -0.6135
30673SOL    HW195421   8.849   0.891   1.671  1.9143 -0.4845 -0.3869
30673SOL    HW295422   8.925   0.948   1.553 -0.3598  0.6772 -1.3430
30674SOL     OW95423   4.974   2.641   0.559  0.2128  0.6047  0.6701
30674SOL    HW195424   4.969   2.649   0.654 -2.7431  1.5425  0.5498
30674SOL    HW295425   5.006   2.726   0.528  1.1214  0.3173  0.7898
30675SOL     OW95426   9.483   1.904   8.580  0.0294 -0.6221 -0.6996
30675SOL    HW195427   9.539   1.915   8.502  0.6350 -3.2749 -0.7307
30675SOL    HW295428   9.539   1.859   8.643 -0.8849  0.2683  0.7947
30676SOL     OW95429  10.552   4.064   5.235 -0.1052  0.0290 -0.0415
30676SOL    HW195430  10.527   3.989   5.182 -0.6505  1.3878 -1.7869
30676SOL    HW295431  10.513   4.139   5.191  0.4462  1.3617  1.6295
30677SOL     OW95432   3.009   6.580   0.021 -0.0264 -0.1645  0.4668
30677SOL    HW195433   2.929   6.549   0.063 -0.1152 -0.2304  0.2544
30677SOL    HW295434   3.066   6.607   0.093 -0.6102  0.8022  0.5904
30678SOL     OW95435   6.305   9.546   9.749  0.1700 -0.2256 -0.0989
30678SOL    HW195436   6.373   9.516   9.688  0.1154 -1.4002  0.3902
30678SOL    HW295437   6.337   9.520   9.835 -0.2140  0.5509  0.2875
30679SOL     OW95438   8.618   4.591   3.374  0.2137  0.1670  0.3363
30679SOL    HW195439   8.564   4.638   3.437 -1.7092 -1.4649  0.0136
30679SOL    HW295440   8.591   4.625   3.289 -1.1271 -1.3663  0.1066
30680SOL     OW95441   3.949   1.361  10.493 -0.2950 -0.1294 -0.2301
30680SOL    HW195442   3.962   1.378  10.399  0.7291 -0.2223 -0.1242
30680SOL    HW295443   4.026   1.400  10.535 -1.2765  0.9027  0.7057
30681SOL     OW95444   3.417   8.494   7.039  0.0269 -0.3256 -0.0359
30681SOL    HW195445   3.412   8.583   7.004 -0.0807 -0.7586 -1.1842
30681SOL    HW295446   3.348   8.490   7.105 -0.6648  0.1448 -0.7074
30682SOL     OW95447   1.133   9.524   7.377  0.0126  0.4178  0.0522
30682SOL    HW195448   1.154   9.432   7.362 -1.6292  0.0004  0.1268
30682SOL    HW295449   1.129   9.562   7.289 -2.1315 -0.2733 -0.1921
30683SOL     OW95450   9.464   3.053   4.741  0.1691  0.2117 -0.1077
30683SOL    HW195451   9.375   3.062   4.708 -0.2392  1.3461  1.2137
30683SOL    HW295452   9.454   3.033   4.834  1.2908  0.6384  0.1294
30684SOL     OW95453   1.089   8.896   8.282  0.9729 -0.0135  0.2494
30684SOL    HW195454   1.169   8.867   8.325  1.1999 -1.4669 -1.0653
30684SOL    HW295455   1.038   8.816   8.269 -0.5324  0.8251  0.7056
30685SOL     OW95456   1.861   5.966   9.012  0.2569  0.3830  0.2230
30685SOL    HW195457   1.935   6.026   9.024 -0.6751  1.4774  0.6509
30685SOL    HW295458   1.844   5.968   8.918 -0.0379  1.1299  0.2870
30686SOL     OW95459   8.768   2.623   4.026 -0.4268 -0.0436  0.2239
30686SOL    HW195460   8.735   2.567   3.956 -0.6411 -2.9945  2.4586
30686SOL    HW295461   8.691   2.672   4.055 -0.9710 -0.7918  0.1001
30687SOL     OW95462   6.557   4.738   7.998  0.3435  0.1206 -0.5596
30687SOL    HW195463   6.645   4.702   7.991 -0.9229 -3.6701  0.3790
30687SOL    HW295464   6.539   4.739   8.092 -0.1398  2.3519 -0.6186
30688SOL     OW95465   5.063   7.564   7.417 -0.2852 -0.2125  0.1718
30688SOL    HW195466   5.036   7.559   7.325  2.2815  1.0431 -0.7281
30688SOL    HW295467   5.074   7.657   7.434 -2.1721 -0.2777  2.3088
30689SOL     OW95468   4.114   9.347   1.006 -0.4666  0.1407  0.1688
30689SOL    HW195469   4.097   9.256   0.981 -2.9932  0.9045 -1.2765
30689SOL    HW295470   4.147   9.387   0.926 -0.3176  0.7334  0.5242
30690SOL     OW95471   0.030   7.889   3.227 -0.3059 -0.6907 -0.0694
30690SOL    HW195472   0.082   7.902   3.148 -0.5768  0.4284 -0.0832
30690SOL    HW295473   0.092   7.903   3.299 -0.5432  0.6602 -0.0856
30691SOL     OW95474   3.641   5.330  10.293 -0.2353  0.3440 -0.0915
30691SOL    HW195475   3.720   5.384  10.295 -0.1245  0.1998 -0.4696
30691SOL    HW295476   3.599   5.346  10.378  0.5415 -0.1093  0.3838
30692SOL     OW95477   3.099   3.949  10.026  0.2956 -0.1385  0.7574
30692SOL    HW195478   3.065   4.031   9.990 -0.4601 -0.1678  1.3658
30692SOL    HW295479   3.148   3.977  10.103  0.1734 -0.2384  0.8720
30693SOL     OW95480   0.815   5.090   2.541  0.0331  0.0241  0.5461
30693SOL    HW195481   0.763   5.022   2.586 -0.7161 -1.5916 -2.4867
30693SOL    HW295482   0.762   5.169   2.549 -1.0907 -0.7113  0.7173
30694SOL     OW95483   3.961   4.720   1.062  0.1887 -0.4970  0.3201
30694SOL    HW195484   4.043   4.769   1.065  0.9385 -1.5089 -1.8825
30694SOL    HW295485   3.987   4.629   1.056 -0.9006 -0.7157 -3.5632
30695SOL     OW95486   8.108   6.567   0.869 -0.2007 -0.7976 -0.4694
30695SOL    HW195487   8.112   6.604   0.781  0.7363 -1.3059 -0.6582
30695SOL    HW295488   8.079   6.639   0.925 -0.1473 -0.2820 -1.0977
30696SOL     OW95489   3.293   0.378   3.973  0.1447  0.3756  0.0628
30696SOL    HW195490   3.205   0.395   3.938 -0.9946  0.5672  2.7475
30696SOL    HW295491   3.316   0.457   4.020  2.4208  0.8399 -1.6481
30697SOL     OW95492   8.538   4.535   5.036  0.5129  0.1773  0.0115
30697SOL    HW195493   8.508   4.523   4.946  0.7482 -0.3405  0.0015
30697SOL    HW295494   8.566   4.448   5.064 -1.6612 -0.1545  1.3657
30698SOL     OW95495   7.498   0.724   2.213  0.5282  0.5161 -0.0463
30698SOL    HW195496   7.420   0.752   2.166  0.0597 -0.2099  0.2746
30698SOL    HW295497   7.569   0.729   2.149 -0.0555 -0.2263 -0.7647
30699SOL     OW95498   0.181   3.141   4.952 -0.3282 -0.9217  0.4730
30699SOL    HW195499   0.096   3.100   4.972 -0.2155 -1.6419 -0.4677
30699SOL    HW295500   0.201   3.193   5.030 -0.4557 -2.6943  1.7656
30700SOL     OW95501   5.591   8.151   4.871 -0.0292 -0.3898 -0.3991
30700SOL    HW195502   5.524   8.204   4.828 -1.4472  0.1100  2.2424
30700SOL    HW295503   5.636   8.106   4.799 -2.4239  0.1621 -2.3522
30701SOL     OW95504  10.380   4.517   2.931  0.7055  0.1921  0.2844
30701SOL    HW195505  10.398   4.424   2.945 -0.7617 -0.0883  0.4628
30701SOL    HW295506  10.467   4.557   2.918  1.2876 -1.8223 -3.9864
30702SOL     OW95507   3.243   4.547   7.291 -0.0719 -0.3548 -0.2869
30702SOL    HW195508   3.254   4.567   7.384  0.2077  0.5592 -0.4993
30702SOL    HW295509   3.275   4.458   7.281  0.7763 -0.1357  0.3405
30703SOL     OW95510  10.886   9.197   1.423 -0.2162 -0.4870  0.1362
30703SOL    HW195511  10.889   9.108   1.459  1.3735 -0.1219  0.9908
30703SOL    HW295512  10.977   9.226   1.423 -0.4497  0.4277 -2.0260
30704SOL     OW95513   3.330   2.310   7.346 -0.7177  0.2064  0.2065
30704SOL    HW195514   3.410   2.348   7.382 -1.2191  1.9504 -0.4170
30704SOL    HW295515   3.359   2.231   7.301  0.3297 -0.3584  1.7959
30705SOL     OW95516   8.313   8.086   4.352 -0.2357 -0.1835  0.2868
30705SOL    HW195517   8.389   8.124   4.397  1.4850 -1.2350 -1.5538
30705SOL    HW295518   8.259   8.161   4.329  0.0483  0.5653  1.9502
30706SOL     OW95519   4.458   7.021   5.505 -0.4326 -0.3040 -0.0253
30706SOL    HW195520   4.389   6.961   5.533 -0.6136 -0.4094 -0.6690
30706SOL    HW295521   4.540   6.978   5.529 -0.5919  0.3522  1.8107
30707SOL     OW95522   8.208  10.043   5.100 -0.0767 -0.0137 -0.1965
30707SOL    HW195523   8.200  10.112   5.033 -0.3072  0.4642  0.3202
30707SOL    HW295524   8.140  10.063   5.164 -2.2173 -2.4411 -1.5157
30708SOL     OW95525   8.061   2.571   6.489 -0.2328 -0.3065 -0.0204
30708SOL    HW195526   8.104   2.565   6.404  0.1656 -0.0509  0.1597
30708SOL    HW295527   8.132   2.581   6.552 -0.5157 -0.6386  0.3593
30709SOL     OW95528  10.262   2.620   8.679  0.3306 -0.2714  0.1670
30709SOL    HW195529  10.173   2.652   8.697 -0.4837 -2.8127  1.2179
30709SOL    HW295530  10.317   2.670   8.739 -0.2694  1.6658 -0.8100
30710SOL     OW95531   1.645   0.634   9.338  0.6736  0.4367  0.0039
30710SOL    HW195532   1.630   0.728   9.334  0.4936  0.3960 -0.3753
30710SOL    HW295533   1.665   0.616   9.429  0.8212  0.8595  0.0543
30711SOL     OW95534   6.167   2.670   6.720 -0.1102 -0.1524  0.8122
30711SOL    HW195535   6.133   2.693   6.634  2.3307 -1.1156 -0.4901
30711SOL    HW295536   6.224   2.743   6.744 -1.5618  0.6081  2.1564
30712SOL     OW95537   1.895   9.034   3.998  0.1725  0.3918 -0.1154
30712SOL    HW195538   1.990   9.047   3.994  0.1440  1.0499  0.9566
30712SOL    HW295539   1.882   8.941   3.976  0.9013  0.6646 -1.9003
30713SOL     OW95540   9.161   5.115   2.455  0.4000 -0.1949 -0.2570
30713SOL    HW195541   9.107   5.186   2.490  1.2126  1.0397 -1.3519
30713SOL    HW295542   9.178   5.058   2.529 -0.5870  0.5770  0.5907
30714SOL     OW95543   1.331   7.985   3.131 -0.1899  0.6814 -0.7251
30714SOL    HW195544   1.323   8.080   3.116 -1.3488  0.6893 -0.2078
30714SOL    HW295545   1.358   7.978   3.222  1.3205  0.5265 -1.1649
30715SOL     OW95546   3.869   6.162   4.612 -0.2699 -0.1216 -0.5669
30715SOL    HW195547   3.820   6.189   4.690  1.4014  2.0886 -0.1852
30715SOL    HW295548   3.801   6.133   4.550 -1.7926 -0.0645  0.9972
30716SOL     OW95549  10.394   5.316   2.233 -0.7307 -0.2470 -0.2161
30716SOL    HW195550  10.401   5.272   2.149  3.6920 -0.5668  0.0503
30716SOL    HW295551  10.423   5.406   2.216 -0.6662 -0.0621  0.7764
30717SOL     OW95552   1.318   6.399   3.864 -0.3411  0.1099  0.4499
30717SOL    HW195553   1.375   6.344   3.918  1.2194  0.4844 -0.7323
30717SOL    HW295554   1.270   6.453   3.926  1.3465  0.4796  1.5056
30718SOL     OW95555   7.090   9.942   4.874  0.3450  0.2800 -0.4173
30718SOL    HW195556   7.057   9.893   4.799  1.6194 -0.4378 -0.5250
30718SOL    HW295557   7.031   9.918   4.945  2.8887 -4.4272  0.5128
30719SOL     OW95558   2.033   4.885   3.196 -0.0439 -0.1235  0.0079
30719SOL    HW195559   2.028   4.816   3.130 -0.6504  0.2910 -0.3934
30719SOL    HW295560   2.006   4.843   3.277  0.3003 -0.5348 -0.0855
30720SOL     OW95561   2.972   3.842   2.097 -0.1760  0.3158 -0.5368
30720SOL    HW195562   2.987   3.868   2.188  1.9286 -0.0105 -0.7576
30720SOL    HW295563   2.928   3.917   2.058 -0.8176  0.5911  0.6425
30721SOL     OW95564   9.842   4.771   6.728  0.6058  0.0126 -0.1256
30721SOL    HW195565   9.843   4.864   6.704 -0.3089 -0.0115 -0.3002
30721SOL    HW295566   9.762   4.761   6.779  0.2697 -0.8520 -0.8109
30722SOL     OW95567  10.393  10.395   1.130 -0.2068  0.5454 -0.7932
30722SOL    HW195568  10.400  10.473   1.185 -0.0501  0.7898 -1.1585
30722SOL    HW295569  10.301  10.395   1.101 -0.0602  0.9338 -1.2826
30723SOL     OW95570   6.943   9.608   9.679 -0.2449  0.6945  0.0739
30723SOL    HW195571   7.001   9.607   9.755  1.0195 -0.4334 -0.8520
30723SOL    HW295572   6.949   9.697   9.645 -1.5106  1.4663  1.7592
30724SOL     OW95573   8.192   5.535   7.969 -0.0937 -0.1824  0.4506
30724SOL    HW195574   8.153   5.497   7.891 -0.5683 -1.9532  1.5029
30724SOL    HW295575   8.121   5.585   8.010 -1.2970 -3.0472  2.1319
30725SOL     OW95576   0.530   1.155   0.181 -0.3919  0.5233 -0.0813
30725SOL    HW195577   0.452   1.106   0.210  0.3443 -0.4358  0.3680
30725SOL    HW295578   0.545   1.218   0.251 -0.0269 -0.1679  0.4843
30726SOL     OW95579   9.234   7.807   8.871  0.0576 -0.1223  0.5767
30726SOL    HW195580   9.201   7.808   8.961 -2.1476 -1.6580 -0.1227
30726SOL    HW295581   9.227   7.898   8.841 -0.7952  0.1021  1.4244
30727SOL     OW95582   0.772   4.446   8.157  0.5576  0.7262 -0.3294
30727SOL    HW195583   0.807   4.360   8.180 -1.1044 -0.2872 -1.3648
30727SOL    HW295584   0.797   4.503   8.230 -0.6573 -1.2752  1.7792
30728SOL     OW95585  10.319  10.626   2.741 -0.3828 -0.6036  0.5591
30728SOL    HW195586  10.303  10.532   2.736  1.1904 -0.9016  0.4423
30728SOL    HW295587  10.409  10.636   2.709 -0.7311  1.0092  0.0382
30729SOL     OW95588   1.340   3.383   0.739 -0.3947  0.3456  0.4192
30729SOL    HW195589   1.335   3.445   0.666 -0.2834  0.7751  0.7756
30729SOL    HW295590   1.383   3.306   0.701 -1.9483 -0.1459 -0.4516
30730SOL     OW95591   3.699   5.271   8.337  0.0260  0.1768  0.2689
30730SOL    HW195592   3.624   5.310   8.382 -0.3626  0.2911 -0.4652
30730SOL    HW295593   3.716   5.330   8.264  1.4795  0.7042  0.9873
30731SOL     OW95594   4.701   1.336   4.463  0.1099  0.0693 -0.5673
30731SOL    HW195595   4.726   1.382   4.543 -0.9905  0.8122 -0.6222
30731SOL    HW295596   4.636   1.271   4.492  2.4497 -2.3310 -0.3087
30732SOL     OW95597   6.782   2.904   8.727 -0.3953  0.1025 -0.2017
30732SOL    HW195598   6.710   2.908   8.664 -1.2856  1.3231  0.8228
30732SOL    HW295599   6.746   2.853   8.800  1.3162 -3.1404 -1.4150
30733SOL     OW95600   6.529   8.968   9.154 -0.2387 -0.3429  0.2170
30733SOL    HW195601   6.455   8.987   9.213 -0.7091 -0.0173 -0.4605
30733SOL    HW295602   6.524   9.037   9.088  1.8972  0.9091  1.2651
30734SOL     OW95603   7.416   0.155   3.269  0.2862 -0.3500 -0.0658
30734SOL    HW195604   7.342   0.140   3.210  0.3104  1.4593 -0.5925
30734SOL    HW295605   7.446   0.067   3.292 -0.7112 -1.0967 -1.4937
30735SOL     OW95606   7.799   0.894   0.779 -0.3019 -0.2508  0.4407
30735SOL    HW195607   7.723   0.952   0.776  0.8633  1.4403  1.1689
30735SOL    HW295608   7.873   0.954   0.795  1.0582 -1.9028  0.6224
30736SOL     OW95609   5.101   8.161   0.403  1.0441  0.4088 -0.6579
30736SOL    HW195610   5.076   8.243   0.360 -0.1632 -0.1330 -1.0249
30736SOL    HW295611   5.188   8.140   0.368  0.7982  0.8584 -1.5418
30737SOL     OW95612   6.795  10.910   7.872 -0.5161  0.2692 -0.2829
30737SOL    HW195613   6.705  10.944   7.863 -1.1383 -0.5318  2.0569
30737SOL    HW295614   6.839  10.975   7.927 -0.7831 -1.0416  1.5800
30738SOL     OW95615  10.177   4.082   7.797 -0.3780  0.7591 -0.0707
30738SOL    HW195616  10.162   3.996   7.837 -0.6217  2.3719  3.7178
30738SOL    HW295617  10.255   4.069   7.742 -0.4594 -1.8895  0.3086
30739SOL     OW95618   3.229   8.045   5.335  0.0712  0.4523 -0.2664
30739SOL    HW195619   3.249   8.125   5.286 -0.8203  0.3894 -0.7429
30739SOL    HW295620   3.315   8.003   5.347  0.6065  1.6861  0.3752
30740SOL     OW95621   9.592   0.238   0.664 -0.5702  0.0744  0.3772
30740SOL    HW195622   9.534   0.273   0.597 -1.6206 -1.3184  0.5155
30740SOL    HW295623   9.542   0.247   0.746  0.7189  1.8205  1.0148
30741SOL     OW95624  10.386   9.429   1.812 -0.9163 -0.0185 -0.3061
30741SOL    HW195625  10.406   9.342   1.778 -0.4407 -0.1423  0.2556
30741SOL    HW295626  10.390   9.486   1.736 -0.9223 -0.4454 -0.6299
30742SOL     OW95627  10.169   3.546   8.785  0.1155  0.2000  0.3597
30742SOL    HW195628  10.219   3.550   8.703 -0.0276  0.4195  0.2822
30742SOL    HW295629  10.221   3.490   8.842 -0.4193 -1.0627 -0.3265
30743SOL     OW95630   6.564   3.793   6.711 -0.7055  0.3293 -0.3418
30743SOL    HW195631   6.494   3.846   6.673 -1.0309 -0.0821 -0.3310
30743SOL    HW295632   6.519   3.720   6.753 -0.2359 -0.5465 -1.2852
30744SOL     OW95633   6.092   7.548   6.307 -0.5282  0.5409  0.1780
30744SOL    HW195634   6.110   7.493   6.230  1.6983  0.2887  0.8131
30744SOL    HW295635   6.136   7.504   6.379  0.0317  2.3444  1.0062
30745SOL     OW95636  10.866   3.748   0.871  0.6253 -0.1940 -0.1055
30745SOL    HW195637  10.883   3.806   0.944  0.2905  0.7582 -0.7607
30745SOL    HW295638  10.777   3.771   0.842  0.3649 -1.2354 -0.1965
30746SOL     OW95639   8.901   3.704   0.995  0.4512 -0.0281 -0.1120
30746SOL    HW195640   8.980   3.747   1.028  0.5052  0.0650 -0.3553
30746SOL    HW295641   8.928   3.613   0.981  1.0260  0.3448 -1.7931
30747SOL     OW95642   8.223   0.674   0.052  0.0695  0.0838 -0.0975
30747SOL    HW195643   8.139   0.632   0.031  1.4521 -1.4909 -3.3068
30747SOL    HW295644   8.208   0.767   0.035 -1.5148  0.1350  1.3660
30748SOL     OW95645   0.646   0.090   3.398  0.9570  0.3104  0.1651
30748SOL    HW195646   0.642   0.158   3.465 -1.2169  2.0253 -1.5737
30748SOL    HW295647   0.722   0.115   3.344 -0.4055  2.0626 -1.0580
30749SOL     OW95648   3.742   5.299   2.372 -0.3267 -0.5217  0.1709
30749SOL    HW195649   3.660   5.343   2.349 -1.1393 -1.5002  1.0644
30749SOL    HW295650   3.766   5.250   2.293  0.7820  1.7222 -0.9599
30750SOL     OW95651   1.201   2.857   9.885  0.3077  0.7895 -0.6031
30750SOL    HW195652   1.256   2.821   9.816  1.8570  2.4884 -0.3201
30750SOL    HW295653   1.149   2.924   9.842 -1.4532 -0.6216 -0.8122
30751SOL     OW95654   9.432   7.493   1.075 -0.2867 -0.2463  0.0620
30751SOL    HW195655   9.446   7.538   0.992 -0.6610  1.9030  1.0849
30751SOL    HW295656   9.520   7.473   1.107 -0.0280  1.0204  0.1961
30752SOL     OW95657   7.400   1.167   8.949  0.0129  0.2977  0.2311
30752SOL    HW195658   7.386   1.156   8.854  0.1197  0.7685  0.1597
30752SOL    HW295659   7.412   1.261   8.960 -1.3338  0.4186  0.8910
30753SOL     OW95660   0.988   3.023   2.070  0.1356  0.3700  0.5097
30753SOL    HW195661   1.074   3.054   2.097  1.1815 -1.1488 -0.8790
30753SOL    HW295662   0.999   2.929   2.057 -0.5024  0.6936 -3.7846
30754SOL     OW95663   4.740  10.449   8.802  0.0935 -0.4564 -0.0221
30754SOL    HW195664   4.760  10.539   8.828 -0.1774 -0.7715  1.3338
30754SOL    HW295665   4.813  10.423   8.746 -0.9551  1.4036 -2.4769
30755SOL     OW95666   8.492   9.076   7.822 -0.0621  0.4143 -0.3937
30755SOL    HW195667   8.495   9.167   7.851  0.1175  0.6710 -1.1863
30755SOL    HW295668   8.583   9.049   7.817 -0.1051  0.2745 -0.4267
30756SOL     OW95669   8.524   4.131   5.699  0.2021 -0.2106 -0.2612
30756SOL    HW195670   8.619   4.126   5.714  0.9948  3.2082 -2.8648
30756SOL    HW295671   8.488   4.160   5.783  1.6061 -0.5968  0.5030
30757SOL     OW95672   3.467   7.335   8.891 -0.1225  0.2090 -0.0115
30757SOL    HW195673   3.561   7.315   8.897 -0.2985 -0.2824  1.5954
30757SOL    HW295674   3.426   7.250   8.875 -0.3306  0.3517 -0.2290
30758SOL     OW95675   6.055   0.909   9.038 -0.1987  0.5839  0.4715
30758SOL    HW195676   6.133   0.930   9.089  0.7464 -0.0544 -0.6649
30758SOL    HW295677   5.992   0.977   9.062  0.2014  0.3186  2.4353
30759SOL     OW95678   2.106   5.843   4.950 -0.6373 -0.1329 -0.2492
30759SOL    HW195679   2.129   5.935   4.938  0.6142 -0.1610  1.5809
30759SOL    HW295680   2.023   5.846   4.999 -0.3441  0.0335  0.2435
30760SOL     OW95681   0.595   6.770  10.471 -0.0893 -0.6129  0.2416
30760SOL    HW195682   0.632   6.710  10.536 -0.1965 -0.3065  0.5811
30760SOL    HW295683   0.611   6.725  10.387  2.8769  0.3690  0.1485
30761SOL     OW95684  10.579   9.740   8.555 -0.2123  0.1039  0.3616
30761SOL    HW195685  10.522   9.686   8.609  1.0663 -0.4050  1.2629
30761SOL    HW295686  10.662   9.692   8.552  0.6558  1.5486  0.3811
30762SOL     OW95687   8.513   1.341  10.392  0.0349  0.3871 -0.2968
30762SOL    HW195688   8.551   1.318  10.307 -0.5499  1.6594 -0.9316
30762SOL    HW295689   8.459   1.266  10.416 -1.2303  0.7356 -1.9258
30763SOL     OW95690   0.518   3.609   2.153 -0.3832  0.4470 -0.3212
30763SOL    HW195691   0.568   3.623   2.234 -1.5558 -1.0820  0.7386
30763SOL    HW295692   0.554   3.529   2.116 -1.4293 -0.1962  0.0031
30764SOL     OW95693   3.595   2.586   2.826  0.0679  0.1791  0.5104
30764SOL    HW195694   3.588   2.651   2.757 -0.1811 -1.0731 -0.6868
30764SOL    HW295695   3.602   2.637   2.907  0.4357  1.6711 -0.4316
30765SOL     OW95696   6.643   7.275   4.341 -0.3319 -0.1737  0.5688
30765SOL    HW195697   6.691   7.216   4.283 -2.0394  0.1418 -1.2747
30765SOL    HW295698   6.558   7.233   4.353 -1.1046  1.2407  0.2890
30766SOL     OW95699   4.233   4.588   6.703 -0.1254 -0.1165  0.1224
30766SOL    HW195700   4.324   4.607   6.723 -0.1409  1.0393 -0.7798
30766SOL    HW295701   4.236   4.539   6.621 -0.3098  0.1293 -0.0365
30767SOL     OW95702   6.764   0.133  10.018  0.1739 -0.2591  0.0564
30767SOL    HW195703   6.740   0.225  10.006 -0.2427 -0.2148  1.1448
30767SOL    HW295704   6.713   0.104  10.093  1.6216 -0.8808  0.8526
30768SOL     OW95705   7.939   6.562   2.069  0.2107 -0.1972  0.4793
30768SOL    HW195706   7.928   6.634   2.007  1.3403  0.9008  1.4922
30768SOL    HW295707   7.874   6.579   2.137  0.6349  0.0196  0.8380
30769SOL     OW95708   4.091   9.250   6.750  0.1624 -0.0059 -0.5683
30769SOL    HW195709   4.130   9.167   6.723  0.9885  0.6359 -1.4244
30769SOL    HW295710   4.141   9.317   6.703 -0.1817  1.0117  0.4586
30770SOL     OW95711   1.931   3.646   7.574 -0.3829  0.4587  0.4682
30770SOL    HW195712   1.900   3.737   7.577  0.8056  0.8924  0.0987
30770SOL    HW295713   1.875   3.600   7.637 -1.5921  1.2437  0.0075
30771SOL     OW95714   8.275   8.067   8.916  0.6235  0.0922 -0.3009
30771SOL    HW195715   8.196   8.019   8.941  1.0691 -0.4495  0.0978
30771SOL    HW295716   8.276   8.143   8.974  1.3577 -0.8655  0.9999
30772SOL     OW95717   4.901   4.683   4.271  0.2335  0.3070  0.3742
30772SOL    HW195718   4.972   4.717   4.217  0.3432 -0.7648 -0.1863
30772SOL    HW295719   4.825   4.683   4.213 -0.1972  1.2706  0.9147
30773SOL     OW95720   7.338   5.542   9.749 -0.0364 -0.7986  0.1972
30773SOL    HW195721   7.323   5.515   9.840 -2.1831  0.0079  0.1251
30773SOL    HW295722   7.377   5.629   9.756 -1.1837 -0.2802  0.3708
30774SOL     OW95723  10.151   4.447   6.970  0.1306 -0.4108  0.4270
30774SOL    HW195724  10.067   4.487   6.991 -0.0387 -0.8103  0.5112
30774SOL    HW295725  10.210   4.479   7.039  0.3412  0.7949 -0.2803
30775SOL     OW95726  10.026   9.248   2.936  0.7318  0.3597  0.1848
30775SOL    HW195727  10.084   9.221   3.007  3.7480  0.9265 -1.8662
30775SOL    HW295728  10.006   9.168   2.889 -0.2657  0.1581  0.9153
30776SOL     OW95729   3.338   8.242   6.913  0.2663  0.7109  0.1414
30776SOL    HW195730   3.293   8.160   6.934 -1.4800  0.8582 -2.4744
30776SOL    HW295731   3.430   8.225   6.932 -0.1536 -1.5837  0.3940
30777SOL     OW95732   1.806   0.668   3.931 -0.5542  0.0397  0.2704
30777SOL    HW195733   1.838   0.709   4.011 -0.8415  1.9758 -0.5415
30777SOL    HW295734   1.876   0.610   3.903 -0.1741 -0.1418  1.5457
30778SOL     OW95735   5.650  10.155   4.375  0.1917 -0.0141 -0.5457
30778SOL    HW195736   5.737  10.175   4.341  0.1197  3.0326  0.6715
30778SOL    HW295737   5.590  10.206   4.321 -0.3174  1.4650  1.2773
30779SOL     OW95738   6.227   2.397   5.102  0.4500 -0.1496  0.3604
30779SOL    HW195739   6.239   2.320   5.157  1.0215 -0.5715 -0.3435
30779SOL    HW295740   6.157   2.447   5.145 -0.3397 -1.3564  0.5041
30780SOL     OW95741   6.301   8.207   4.138 -0.3152  0.3413  0.7010
30780SOL    HW195742   6.337   8.219   4.226  1.4889  0.8015 -0.0421
30780SOL    HW295743   6.272   8.294   4.112 -1.0322  0.1673  0.9065
30781SOL     OW95744   3.257   9.001   7.627 -0.2278  0.3101 -0.0425
30781SOL    HW195745   3.326   9.036   7.683 -0.0186 -1.2119  0.7191
30781SOL    HW295746   3.181   8.992   7.684  0.3837 -2.5677  0.4657
30782SOL     OW95747   8.054   2.740   2.122  0.4931 -1.0309  0.4286
30782SOL    HW195748   8.052   2.832   2.097  0.5313 -1.1666 -0.0856
30782SOL    HW295749   7.971   2.725   2.167  1.0242 -0.4432  1.6363
30783SOL     OW95750   9.942   7.697   7.593 -0.4013 -0.4562 -0.5112
30783SOL    HW195751   9.887   7.699   7.514 -0.8485  0.7310 -0.2006
30783SOL    HW295752   9.919   7.615   7.636 -0.8165 -0.6932 -1.1683
30784SOL     OW95753   5.016   0.734   1.316 -0.0154 -0.1534  0.0966
30784SOL    HW195754   5.051   0.777   1.394 -0.5557  0.4929 -0.0098
30784SOL    HW295755   4.986   0.649   1.347 -1.7073  0.6998  0.9597
30785SOL     OW95756  10.533   9.755   6.212  0.1533 -0.0386  0.2230
30785SOL    HW195757  10.531   9.828   6.150 -0.2157  1.0822  1.5087
30785SOL    HW295758  10.440   9.737   6.230  0.2647  0.0377  0.8850
30786SOL     OW95759   8.587   9.831   2.355  0.2314  0.3437 -0.0093
30786SOL    HW195760   8.647   9.780   2.301 -0.4584  0.6710 -1.1030
30786SOL    HW295761   8.513   9.850   2.298 -0.0405  1.6121  0.7287
30787SOL     OW95762   5.376   6.961   7.059 -0.4093  0.1581  0.3240
30787SOL    HW195763   5.418   6.990   6.978  0.2159  0.4648  0.7492
30787SOL    HW295764   5.404   7.025   7.124  0.4682 -1.0272  1.1396
30788SOL     OW95765   4.207   8.427   3.999 -0.1894 -0.4812  0.1495
30788SOL    HW195766   4.122   8.397   4.031 -0.9501 -0.2743 -1.5888
30788SOL    HW295767   4.264   8.425   4.076 -1.2742 -2.4108  0.9674
30789SOL     OW95768   0.931   1.606   2.809 -0.2954 -0.5907  0.5299
30789SOL    HW195769   0.960   1.515   2.801  1.7303 -0.2868  3.0793
30789SOL    HW295770   0.916   1.618   2.903 -2.5006  1.1967  0.0397
30790SOL     OW95771   0.879   4.547   3.673  0.2993 -0.0782  0.5820
30790SOL    HW195772   0.828   4.547   3.592 -0.0631  0.5248  0.8102
30790SOL    HW295773   0.967   4.575   3.647  0.7224 -1.7423  0.0743
30791SOL     OW95774   6.841   6.713   9.375 -0.8461 -0.0133 -0.2148
30791SOL    HW195775   6.748   6.728   9.394 -0.2991  3.3731  0.5575
30791SOL    HW295776   6.880   6.800   9.382  2.0994 -1.0256 -2.3510
30792SOL     OW95777   9.797   9.590   0.380 -0.7620 -1.0802 -0.4250
30792SOL    HW195778   9.769   9.577   0.471  1.2321  0.0280  0.4209
30792SOL    HW295779   9.716   9.591   0.330 -2.1358  0.4297  1.6357
30793SOL     OW95780   2.773   7.938  10.147 -0.0576  0.3028  0.0089
30793SOL    HW195781   2.807   7.915  10.060  0.1839  0.4580  0.0605
30793SOL    HW295782   2.793   7.862  10.201  1.7232  1.0220  0.4468
30794SOL     OW95783   1.663  10.881   0.495  0.4590 -0.2079 -0.5010
30794SOL    HW195784   1.749  10.842   0.513  1.1057  0.7798 -1.3654
30794SOL    HW295785   1.608  10.851   0.568  1.1247 -2.0627 -0.7027
30795SOL     OW95786   5.574   3.024   1.007  0.6716 -0.0375 -0.4921
30795SOL    HW195787   5.667   3.018   0.984  1.1649  0.9767  1.1182
30795SOL    HW295788   5.572   3.069   1.091 -1.1778 -1.6656  0.4366
30796SOL     OW95789   0.293   7.540   0.460 -0.4214  0.1948  0.0084
30796SOL    HW195790   0.315   7.548   0.367 -0.9945  4.1230  0.0189
30796SOL    HW295791   0.198   7.527   0.461 -0.1144 -2.7132  0.1350
30797SOL     OW95792   7.228   9.329   5.171  0.3831  0.3937  0.0941
30797SOL    HW195793   7.285   9.394   5.128  1.5075  1.2166  2.6163
30797SOL    HW295794   7.168   9.381   5.224  1.2042 -0.5541  2.0549
30798SOL     OW95795   4.962   7.116   8.602 -0.2196 -0.3962  0.2399
30798SOL    HW195796   4.907   7.191   8.624 -2.1057 -1.0682 -1.8875
30798SOL    HW295797   4.902   7.043   8.591  1.3444 -1.7291  0.0986
30799SOL     OW95798   2.815   6.372   6.311 -0.1463  0.2819 -0.2050
30799SOL    HW195799   2.760   6.358   6.234  1.3038 -0.2697 -1.1676
30799SOL    HW295800   2.759   6.423   6.371 -1.1259  1.1560 -1.8050
30800SOL     OW95801   6.886   7.010   9.080 -0.3651 -0.4150 -0.2137
30800SOL    HW195802   6.962   6.974   9.034 -0.1866 -1.7275  1.0441
30800SOL    HW295803   6.870   7.095   9.038  0.1198 -1.2987 -2.2972
30801SOL     OW95804   2.416  10.373   5.524 -0.1212 -0.0330 -0.0776
30801SOL    HW195805   2.430  10.443   5.460  1.8430 -0.7183 -0.4563
30801SOL    HW295806   2.485  10.386   5.589 -2.4429  1.0402  2.3743
30802SOL     OW95807   6.050  10.123  10.866  0.2889  0.3821  0.4197
30802SOL    HW195808   6.012  10.101  10.951 -0.6136 -0.3941 -0.1601
30802SOL    HW295809   6.130  10.070  10.861 -0.4470 -0.7470  0.1757
30803SOL     OW95810   7.149   6.225   1.762  0.3346  0.4702 -0.3165
30803SOL    HW195811   7.244   6.234   1.754  0.6680 -0.1908  2.0022
30803SOL    HW295812   7.130   6.141   1.720  0.9644  0.0561  0.2043
30804SOL     OW95813   2.908   9.118   3.406 -0.3053  0.1441  0.4436
30804SOL    HW195814   2.925   9.115   3.500  0.5832  1.2308  0.3424
30804SOL    HW295815   2.814   9.131   3.398 -0.7384 -2.1782  1.1249
30805SOL     OW95816   9.671   4.102  10.828 -0.2819 -0.5825  0.7020
30805SOL    HW195817   9.662   4.020  10.779 -0.5945 -0.3386  0.3466
30805SOL    HW295818   9.592   4.106  10.882 -0.5281 -0.2632  0.3290
30806SOL     OW95819   4.797   2.822   3.592  0.1163  0.2895  0.7614
30806SOL    HW195820   4.849   2.900   3.571 -0.6736  0.7966  0.6790
30806SOL    HW295821   4.812   2.764   3.518  0.3678  0.5303  0.6165
30807SOL     OW95822  10.726   7.454   7.609 -0.3130 -0.1744  0.1950
30807SOL    HW195823  10.673   7.457   7.529  1.3640 -0.4050 -0.9938
30807SOL    HW295824  10.720   7.543   7.645 -0.3441  0.2122 -0.7296
30808SOL     OW95825   3.179   4.030   0.075  0.4020  0.3273 -0.0784
30808SOL    HW195826   3.177   3.983  -0.008 -1.9897  0.4376 -0.1531
30808SOL    HW295827   3.122   3.979   0.133  0.7015  1.1422  0.9684
30809SOL     OW95828   0.465   5.142   2.185  0.2640 -0.1210 -0.0914
30809SOL    HW195829   0.544   5.176   2.144  1.4815 -0.4706  1.8510
30809SOL    HW295830   0.401   5.212   2.176  0.9340  0.3553 -1.2707
30810SOL     OW95831   5.543   9.999   7.295 -0.2230  0.2899 -0.4977
30810SOL    HW195832   5.613  10.062   7.278 -0.0778  0.9356  2.0698
30810SOL    HW295833   5.463  10.051   7.300 -0.1150  0.3490  1.5562
30811SOL     OW95834   4.844   7.096   6.705 -0.5251 -0.8047 -0.2072
30811SOL    HW195835   4.905   7.121   6.635 -0.1131 -0.4999  0.2527
30811SOL    HW295836   4.758   7.121   6.673 -0.3480 -0.7516 -0.6418
30812SOL     OW95837   2.198   9.869   2.435  0.0654  0.3579  0.2087
30812SOL    HW195838   2.199   9.822   2.352  2.8765 -1.0711  0.9540
30812SOL    HW295839   2.105   9.885   2.451 -0.8936 -2.9016 -1.2348
30813SOL     OW95840   0.985   2.299   6.684  0.2527 -0.6022  0.0049
30813SOL    HW195841   0.940   2.218   6.661  1.2055 -0.9648 -0.5967
30813SOL    HW295842   1.024   2.281   6.769 -0.6706 -0.3001  0.5115
30814SOL     OW95843   2.851  10.418   4.548  0.3197  0.1013 -0.3686
30814SOL    HW195844   2.824  10.502   4.586  1.8034  0.5852 -0.3338
30814SOL    HW295845   2.945  10.415   4.562  0.2876 -1.5928 -0.3706
30815SOL     OW95846  10.196   6.877   7.100  0.6885  0.2618  0.4892
30815SOL    HW195847  10.272   6.905   7.050 -0.3519  0.5636 -0.9794
30815SOL    HW295848  10.203   6.782   7.103  0.6232  0.2171 -0.4907
30816SOL     OW95849   1.877   6.427   4.066 -0.5081 -0.0547  0.3209
30816SOL    HW195850   1.884   6.389   4.154 -0.7347  1.3638  0.9886
30816SOL    HW295851   1.918   6.362   4.009  1.5221 -0.1420  1.7247
30817SOL     OW95852   9.288   0.817   2.570 -0.1862 -0.2433  0.1338
30817SOL    HW195853   9.376   0.785   2.550  0.1773 -0.0951  1.4237
30817SOL    HW295854   9.260   0.765   2.645 -0.8373  0.3438  0.3061
30818SOL     OW95855   6.068   8.136   5.198  0.3141  0.0046 -0.4920
30818SOL    HW195856   6.154   8.179   5.188  0.5338  0.4936  2.5117
30818SOL    HW295857   6.019   8.194   5.256 -1.3198 -1.2776 -0.5165
30819SOL     OW95858   1.520  10.904   7.463 -0.3133 -0.1966 -0.5387
30819SOL    HW195859   1.514  10.982   7.407  2.4740  0.0818 -0.6200
30819SOL    HW295860   1.483  10.833   7.410 -1.5055  0.7728 -1.0511
30820SOL     OW95861   3.363   5.742   6.796 -0.3121  0.2437 -0.3713
30820SOL    HW195862   3.357   5.676   6.865 -0.6152  1.1099  0.4477
30820SOL    HW295863   3.424   5.705   6.733  0.7169 -0.1623  0.8245
30821SOL     OW95864   0.517   2.524   0.135  0.0656  0.0856  0.1070
30821SOL    HW195865   0.593   2.473   0.159 -0.0586  0.7401  2.0589
30821SOL    HW295866   0.548   2.582   0.065  0.9194 -0.7043 -0.1870
30822SOL     OW95867   2.752   7.030   3.747  0.0566 -0.2001 -0.1441
30822SOL    HW195868   2.670   6.980   3.756  1.7234 -2.7587  3.9974
30822SOL    HW295869   2.741   7.104   3.806  0.4159 -0.0565 -0.2577
30823SOL     OW95870   2.317   0.981   9.380 -0.6774  0.3755  0.0451
30823SOL    HW195871   2.330   0.889   9.357 -0.6075 -0.1876  2.1082
30823SOL    HW295872   2.405   1.018   9.383 -0.6509  0.3259 -0.1088
30824SOL     OW95873   4.122   7.419   5.416  0.0693  0.0032 -0.1668
30824SOL    HW195874   4.163   7.496   5.454 -1.2547  0.8255 -0.3461
30824SOL    HW295875   4.028   7.438   5.418 -0.4995 -2.5126  1.8066
30825SOL     OW95876   4.650   1.967   6.709 -0.7757  0.1591 -0.0884
30825SOL    HW195877   4.727   1.912   6.721 -0.2073  1.3014  2.0491
30825SOL    HW295878   4.586   1.910   6.665  1.1550 -0.8750 -1.7017
30826SOL     OW95879   8.186   7.152   9.871  0.4219  0.3656  0.3345
30826SOL    HW195880   8.261   7.212   9.865  0.8445 -0.0375  1.3929
30826SOL    HW295881   8.224   7.067   9.888 -0.2833  0.1461  0.8419
30827SOL     OW95882   7.495   5.553   4.288 -0.9416 -1.0940  0.2879
30827SOL    HW195883   7.528   5.463   4.294  1.4224 -0.3505 -0.3792
30827SOL    HW295884   7.502   5.586   4.378 -2.5524 -1.7654  0.6941
30828SOL     OW95885   4.752   8.950   3.557 -0.0870 -0.7857  0.0709
30828SOL    HW195886   4.838   8.910   3.562  0.3633  0.1998  0.7235
30828SOL    HW295887   4.696   8.885   3.515  1.2653 -0.9348 -1.5727
30829SOL     OW95888   1.539   2.772   6.358 -0.0893  0.2129 -0.1781
30829SOL    HW195889   1.471   2.835   6.334  1.5552  2.0080 -0.4284
30829SOL    HW295890   1.507   2.688   6.326 -1.8209  1.1318 -0.9713
30830SOL     OW95891   0.608   7.325   0.129 -0.5619  0.5108 -0.0541
30830SOL    HW195892   0.566   7.262   0.071  0.7290  0.1441 -0.6338
30830SOL    HW295893   0.699   7.329   0.099 -0.8307  3.5104 -0.7720
30831SOL     OW95894   2.566   0.004   9.700 -0.1957  0.5800  0.0397
30831SOL    HW195895   2.479  -0.032   9.683 -0.2055  0.7600 -0.3100
30831SOL    HW295896   2.617  -0.016   9.622 -0.3283  1.6851 -0.3550
30832SOL     OW95897   4.597   0.964   8.942 -0.2492 -0.2187  0.0839
30832SOL    HW195898   4.539   0.950   8.868 -0.0265 -0.0167 -0.1308
30832SOL    HW295899   4.543   1.006   9.009 -0.5057 -0.6061  0.1204
30833SOL     OW95900   1.663  10.146  10.367 -0.4537 -0.0729 -0.2333
30833SOL    HW195901   1.728  10.090  10.410  0.9325  0.1226 -1.9777
30833SOL    HW295902   1.647  10.103  10.283 -1.1725  0.8973 -0.6001
30834SOL     OW95903   9.605   1.907   8.323  0.1783 -0.3711 -0.5972
30834SOL    HW195904   9.627   2.000   8.331 -0.1314 -0.3367 -0.0996
30834SOL    HW295905   9.548   1.902   8.246  0.2844 -0.1662 -0.6897
30835SOL     OW95906   9.799   7.595   9.597  0.6001  0.2381  0.1833
30835SOL    HW195907   9.766   7.514   9.636 -0.2767  0.9587  0.9801
30835SOL    HW295908   9.819   7.571   9.506 -1.4611 -0.4357 -0.1579
30836SOL     OW95909   5.892   4.017   0.379  0.1853  0.3757  0.1910
30836SOL    HW195910   5.805   4.016   0.419 -0.0653  0.0807 -0.3419
30836SOL    HW295911   5.880   3.973   0.294  1.1598 -1.0912  0.7606
30837SOL     OW95912   6.883   6.276   1.764 -0.4276 -0.0001  0.0302
30837SOL    HW195913   6.832   6.196   1.764  0.0013 -0.2871  0.7846
30837SOL    HW295914   6.969   6.250   1.730 -0.1315  0.0278  0.7438
30838SOL     OW95915   4.089   6.086   4.306 -0.2234 -0.2983 -0.4120
30838SOL    HW195916   4.113   6.031   4.232  1.1613  1.7016 -1.5334
30838SOL    HW295917   4.059   6.024   4.373 -0.3180 -2.2553 -2.1652
30839SOL     OW95918   6.864   8.896   6.379 -0.3183  0.1437 -0.2950
30839SOL    HW195919   6.937   8.834   6.369  0.3831  1.0362 -0.7892
30839SOL    HW295920   6.798   8.865   6.317 -0.3438 -0.6300  0.1045
30840SOL     OW95921   8.601   8.487   7.919 -0.0158  0.4887  0.6896
30840SOL    HW195922   8.557   8.452   7.996 -0.3674  0.8609  0.6658
30840SOL    HW295923   8.693   8.497   7.945  0.1133 -0.5506  0.6508
30841SOL     OW95924   4.769   2.981   3.108  0.0653 -0.4965  0.1388
30841SOL    HW195925   4.695   2.921   3.100  0.4380 -0.8130 -1.0235
30841SOL    HW295926   4.740   3.045   3.173 -2.0832  0.6200 -1.8054
30842SOL     OW95927   4.180   3.174   0.068 -0.1088  0.3051  0.0486
30842SOL    HW195928   4.106   3.196   0.011  0.6525  1.1785 -0.6310
30842SOL    HW295929   4.149   3.195   0.156 -0.4770  1.2347 -0.2840
30843SOL     OW95930   6.348   1.132   5.010 -0.1283  0.3458  0.2662
30843SOL    HW195931   6.284   1.194   4.973  0.6004  1.0565  0.1527
30843SOL    HW295932   6.326   1.048   4.970 -1.4567  0.4232  0.8040
30844SOL     OW95933   1.679   3.897   3.321  0.0273 -0.2722 -0.4510
30844SOL    HW195934   1.766   3.932   3.305  0.6832 -2.1018 -1.2076
30844SOL    HW295935   1.650   3.867   3.235 -0.3056 -1.8860  0.1883
30845SOL     OW95936   2.850   3.781   4.725  0.2243 -0.2401 -0.7802
30845SOL    HW195937   2.865   3.786   4.630 -2.6642 -0.6541 -1.3607
30845SOL    HW295938   2.814   3.693   4.738  0.3118 -0.0723  0.6652
30846SOL     OW95939   3.224   8.798   3.377 -0.0789  0.0164 -0.2610
30846SOL    HW195940   3.134   8.794   3.409 -0.6911 -0.3760 -1.8993
30846SOL    HW295941   3.242   8.709   3.347 -0.3692  0.7642 -2.9432
30847SOL     OW95942   5.103   0.531   8.269 -0.3024 -0.1928 -0.1852
30847SOL    HW195943   5.096   0.624   8.247 -1.8925 -0.4047 -0.7147
30847SOL    HW295944   5.013   0.503   8.284  0.1970 -1.5532  0.4104
30848SOL     OW95945  10.157   0.814   3.777 -0.1908  0.3942 -0.0029
30848SOL    HW195946  10.180   0.838   3.687  0.7742  1.1285  0.4288
30848SOL    HW295947  10.234   0.838   3.829  0.7849 -3.2796  0.5405
30849SOL     OW95948   9.318   0.599   0.850 -0.4135 -0.2742  0.0735
30849SOL    HW195949   9.400   0.582   0.895 -0.0526 -0.8497 -0.7755
30849SOL    HW295950   9.274   0.666   0.903  1.5366  1.6449 -0.5740
30850SOL     OW95951   7.621   7.105   4.717 -0.3453  0.1782  0.2519
30850SOL    HW195952   7.545   7.149   4.755 -0.9907  0.9357 -1.7712
30850SOL    HW295953   7.667   7.174   4.669 -0.0896 -0.8660 -1.0613
30851SOL     OW95954   0.220   9.610   3.494 -0.0912 -0.3578  0.4601
30851SOL    HW195955   0.218   9.516   3.475  0.7217  0.1003 -2.2517
30851SOL    HW295956   0.311   9.635   3.485 -0.4910  0.9315 -0.2411
30852SOL     OW95957  10.306   3.267   2.018  0.3072  0.0022 -0.6603
30852SOL    HW195958  10.252   3.189   2.006  0.2500 -0.1755  0.6692
30852SOL    HW295959  10.380   3.255   1.958  0.9311 -1.6503  0.3953
30853SOL     OW95960   3.624   0.801   0.884  0.5026  0.1610 -0.0225
30853SOL    HW195961   3.719   0.792   0.890  0.6483  0.9884 -0.7554
30853SOL    HW295962   3.605   0.882   0.931  0.0588 -0.4161  0.7991
30854SOL     OW95963   5.010   4.266   8.544  0.5189  1.1484 -0.4932
30854SOL    HW195964   4.983   4.334   8.606 -2.6730 -0.6671  0.3484
30854SOL    HW295965   5.026   4.189   8.598 -2.8153 -0.6332 -1.7273
30855SOL     OW95966   8.804   2.499   6.208 -0.0412 -0.5784  0.0899
30855SOL    HW195967   8.740   2.431   6.184  0.5435 -1.1238  0.0414
30855SOL    HW295968   8.824   2.481   6.299 -2.5724  1.7434  1.2541
30856SOL     OW95969   3.605   2.203   4.914  0.0046 -0.4322  0.7747
30856SOL    HW195970   3.688   2.248   4.894  0.5530 -1.7821 -0.1766
30856SOL    HW295971   3.553   2.269   4.960  1.2071  0.7886  0.4863
30857SOL     OW95972   7.521   5.232   2.198 -0.3069 -0.0850 -0.1258
30857SOL    HW195973   7.431   5.224   2.166 -0.2677 -0.4492 -0.1494
30857SOL    HW295974   7.567   5.158   2.159 -0.1573 -0.2934  0.4254
30858SOL     OW95975   6.859   6.192   3.076 -0.4342 -0.8631 -0.5029
30858SOL    HW195976   6.888   6.146   2.997  1.4132 -2.3074  0.9367
30858SOL    HW295977   6.800   6.131   3.119 -0.2338 -0.7203 -0.0160
30859SOL     OW95978   7.070   9.353   1.294  0.0304  0.0302 -0.1570
30859SOL    HW195979   7.076   9.360   1.199 -0.6944  2.3379 -0.0766
30859SOL    HW295980   6.976   9.358   1.313 -0.1499 -3.4808  0.5661
30860SOL     OW95981   0.089   4.412   4.735  0.7714 -0.0948  0.0365
30860SOL    HW195982   0.076   4.337   4.677 -2.0859  0.3210 -0.0178
30860SOL    HW295983   0.175   4.397   4.775  1.6510 -1.7586 -2.2647
30861SOL     OW95984   9.787   7.471   0.870  0.3335 -0.6088 -0.0156
30861SOL    HW195985   9.739   7.406   0.818 -0.8904  1.1281 -1.1715
30861SOL    HW295986   9.815   7.423   0.948 -1.4789 -2.2503 -0.2899
30862SOL     OW95987   0.304   1.842   5.346  0.5077 -0.3134  0.0713
30862SOL    HW195988   0.252   1.922   5.338 -0.3733 -0.8191  0.5161
30862SOL    HW295989   0.322   1.834   5.440  1.4837 -0.0936 -0.0929
30863SOL     OW95990   9.064   3.662   2.039 -0.2881 -0.0948 -0.3271
30863SOL    HW195991   9.133   3.612   1.994 -2.3571 -2.9473 -0.6633
30863SOL    HW295992   9.005   3.688   1.969 -0.9593 -0.1471  0.2122
30864SOL     OW95993   5.993   8.535   3.451 -0.3469  1.0481 -0.4757
30864SOL    HW195994   6.025   8.469   3.512 -0.9509 -1.8193 -3.0151
30864SOL    HW295995   6.072   8.574   3.414  0.0360  0.8222  0.0793
30865SOL     OW95996   4.132   6.822  10.028  0.4745  0.2984  0.0124
30865SOL    HW195997   4.072   6.896  10.026  1.0646  0.7986  0.4147
30865SOL    HW295998   4.218   6.861  10.012  0.9558 -0.1223  1.4160
30866SOL     OW95999   0.944   5.548   6.072  0.3308 -0.1235 -0.1647
30866SOL    HW196000   0.867   5.591   6.037  0.8030  0.2930 -0.7135
30866SOL    HW296001   0.995   5.523   5.995  0.6325 -0.6095  0.1809
30867SOL     OW96002   1.383   4.799   9.143  0.3227  0.2673 -0.0277
30867SOL    HW196003   1.331   4.719   9.150  1.2606 -0.6472 -2.4001
30867SOL    HW296004   1.468   4.769   9.111  1.1966  2.0941  0.4658
30868SOL     OW96005   7.445   1.280   6.206  0.0354  0.2094 -0.0712
30868SOL    HW196006   7.413   1.232   6.282  1.1068 -0.4450 -0.0288
30868SOL    HW296007   7.492   1.216   6.153  1.5115  1.1938 -0.0013
30869SOL     OW96008   1.045   8.862   7.557 -0.4056  0.0493 -0.4185
30869SOL    HW196009   1.069   8.906   7.638 -0.8060  1.0650 -0.8363
30869SOL    HW296010   0.965   8.815   7.578 -1.1632  1.2576 -0.5126
30870SOL     OW96011   9.426   9.249   3.002  0.6071 -0.6595  0.2276
30870SOL    HW196012   9.452   9.263   2.911  0.3092 -1.6955 -0.0319
30870SOL    HW296013   9.379   9.166   3.000  1.6449 -1.3066  1.5353
30871SOL     OW96014   8.742   2.203   5.141 -0.0543  0.1031  0.4201
30871SOL    HW196015   8.757   2.295   5.119 -1.6373  0.4119  0.5253
30871SOL    HW296016   8.736   2.202   5.236 -0.2884 -0.0646  0.4044
30872SOL     OW96017  10.543   6.396   7.152 -0.1082  0.4220  0.0346
30872SOL    HW196018  10.613   6.330   7.152 -0.7483 -0.2675  0.0343
30872SOL    HW296019  10.536   6.423   7.061  0.4864  0.8631  0.1080
30873SOL     OW96020   7.457   9.471   2.063 -0.1781  0.3599 -0.2863
30873SOL    HW196021   7.365   9.461   2.037 -0.0774 -0.6100 -0.2708
30873SOL    HW296022   7.495   9.525   1.993 -0.8267  1.0757 -0.1096
30874SOL     OW96023   5.326   9.354   8.446  0.7317 -0.4241 -0.3104
30874SOL    HW196024   5.270   9.306   8.385  0.5507 -1.3030  0.5224
30874SOL    HW296025   5.357   9.430   8.396  0.6026 -1.1232 -1.4877
30875SOL     OW96026   9.284   4.927   5.894 -0.1024  0.1496 -0.0286
30875SOL    HW196027   9.217   4.918   5.961 -1.0960  2.4821 -0.6086
30875SOL    HW296028   9.354   4.977   5.936  1.4115 -2.3388  0.5980
30876SOL     OW96029   5.005   0.036   9.025  0.1452  0.1803  0.2879
30876SOL    HW196030   4.941   0.083   9.080  1.1213  1.6741  0.2084
30876SOL    HW296031   4.985   0.065   8.936 -0.9480 -1.6594 -0.1173
30877SOL     OW96032  10.568   7.532   7.376  0.2075 -0.1407  0.3802
30877SOL    HW196033  10.575   7.600   7.309  1.5183 -0.8496 -0.2358
30877SOL    HW296034  10.492   7.481   7.350  0.7614 -0.4655 -0.6377
30878SOL     OW96035   2.118   2.104   1.307 -0.2873 -0.3627  0.2152
30878SOL    HW196036   2.093   2.196   1.313  2.0551  0.4090 -0.6275
30878SOL    HW296037   2.117   2.072   1.397  0.4219  0.9658  0.7234
30879SOL     OW96038   2.887   0.046   7.253  0.3952  0.1721 -0.5503
30879SOL    HW196039   2.811   0.012   7.302  1.4992  0.1246  1.2083
30879SOL    HW296040   2.905   0.131   7.293  0.1230  1.0726 -2.2545
30880SOL     OW96041   8.418   9.628   9.646 -0.3438 -0.0618 -0.4667
30880SOL    HW196042   8.324   9.614   9.640 -0.4774  0.6352 -0.1018
30880SOL    HW296043   8.430   9.721   9.628  0.0418  0.3452  1.6352
30881SOL     OW96044   5.661   8.124   3.440 -0.2823 -0.4301 -0.3941
30881SOL    HW196045   5.580   8.173   3.425  0.7861  0.8859 -2.2056
30881SOL    HW296046   5.724   8.161   3.378  2.4299  0.2249  2.4599
30882SOL     OW96047   4.858   0.087   0.985 -0.1563 -0.4849 -0.5631
30882SOL    HW196048   4.831   0.020   1.048  0.4916 -1.8833 -1.7237
30882SOL    HW296049   4.785   0.149   0.984 -1.5110 -2.0138 -0.6323
30883SOL     OW96050   3.545   8.280   1.124  0.0351  0.0521  0.3461
30883SOL    HW196051   3.640   8.272   1.128 -0.0302 -0.6400  0.5922
30883SOL    HW296052   3.524   8.271   1.031  0.1243 -0.9259  0.4098
30884SOL     OW96053   2.017   7.444   0.544  0.5233 -0.2059 -0.0522
30884SOL    HW196054   2.098   7.451   0.594 -0.1226 -1.5845  1.2731
30884SOL    HW296055   2.046   7.426   0.455  1.6884  0.2527  0.2110
30885SOL     OW96056   1.646   7.704   3.589  0.0639  0.3236  0.7206
30885SOL    HW196057   1.686   7.781   3.548  0.2167 -0.9542 -1.7264
30885SOL    HW296058   1.553   7.710   3.567 -0.2787  0.7368  2.1559
30886SOL     OW96059   9.933   2.445   7.772  0.3904 -0.4234 -0.0425
30886SOL    HW196060   9.920   2.429   7.679 -2.1543  0.3131  0.1035
30886SOL    HW296061   9.845   2.461   7.806  1.0186 -2.2964  2.8383
30887SOL     OW96062   7.402   5.331   3.948 -0.5134 -0.6746 -0.4285
30887SOL    HW196063   7.417   5.263   4.013  2.4751 -1.8623 -2.1514
30887SOL    HW296064   7.339   5.294   3.887 -0.5330 -1.0297 -0.1909
30888SOL     OW96065   1.238   6.772   3.421 -0.2829 -0.3901  0.3931
30888SOL    HW196066   1.234   6.828   3.499 -0.4376  2.6424 -1.6335
30888SOL    HW296067   1.332   6.769   3.400 -0.2393 -1.2222  0.6892
30889SOL     OW96068   4.259   2.388   6.761 -0.0610  0.1708 -0.8442
30889SOL    HW196069   4.228   2.423   6.845  1.9932  0.9251 -0.3438
30889SOL    HW296070   4.296   2.302   6.783  0.4841  0.3704 -0.9558
30890SOL     OW96071   8.493   3.619   0.799 -0.7476 -0.7319  0.0521
30890SOL    HW196072   8.400   3.623   0.822 -0.4157  2.0179  1.2903
30890SOL    HW296073   8.538   3.659   0.874  1.2694 -0.2082 -1.3472
30891SOL     OW96074   3.581   8.506   2.174 -0.1150  0.4864 -0.0426
30891SOL    HW196075   3.587   8.491   2.080  1.7412  0.8397 -0.0150
30891SOL    HW296076   3.602   8.421   2.213 -0.0790  0.5396  0.0559
30892SOL     OW96077   0.470   9.005   3.721  0.5066  0.0974 -0.0286
30892SOL    HW196078   0.420   8.967   3.649  2.6474  0.1909 -1.6698
30892SOL    HW296079   0.413   9.073   3.756 -0.3165  0.6505 -2.2262
30893SOL     OW96080   5.625   4.378   1.625 -0.0130 -0.7590 -0.6424
30893SOL    HW196081   5.682   4.397   1.700  0.6289 -2.1142 -0.7549
30893SOL    HW296082   5.674   4.412   1.549 -1.0198  1.3313 -0.4127
30894SOL     OW96083   3.524   7.140   8.661 -0.3561  0.2234 -0.5852
30894SOL    HW196084   3.566   7.217   8.699  0.7668 -0.3918 -0.5455
30894SOL    HW296085   3.466   7.175   8.593 -1.8675  1.2833  1.1608
30895SOL     OW96086   4.058   3.722   9.496  0.3832 -0.0547 -0.3105
30895SOL    HW196087   4.012   3.761   9.421  0.5905  1.0074  0.0984
30895SOL    HW296088   4.020   3.634   9.504 -1.2401  0.6133 -0.2931
30896SOL     OW96089   8.253   2.223   9.380 -0.0876 -0.1628 -0.3428
30896SOL    HW196090   8.172   2.231   9.430 -0.5426 -0.4318 -1.0226
30896SOL    HW296091   8.302   2.302   9.400 -0.9576  0.4784 -0.7035
30897SOL     OW96092   0.548   9.418   6.279  0.2484 -0.2281 -0.5435
30897SOL    HW196093   0.596   9.475   6.220 -0.6647  0.3734 -0.7317
30897SOL    HW296094   0.547   9.333   6.235 -1.2460  0.4422 -1.8892
30898SOL     OW96095   8.910   0.647   7.400  0.2323 -0.0078 -0.0845
30898SOL    HW196096   8.995   0.636   7.356 -0.7040 -1.3278 -1.7139
30898SOL    HW296097   8.851   0.591   7.350 -1.5141  0.5310  1.2950
30899SOL     OW96098   5.126   8.412   4.002  0.4555  0.2002  0.4441
30899SOL    HW196099   5.101   8.461   3.923  0.2823  1.4406  1.2434
30899SOL    HW296100   5.086   8.461   4.074  2.1468  0.1517  1.4675
30900SOL     OW96101   3.902   6.430   1.385 -0.1029 -0.7064 -0.1582
30900SOL    HW196102   3.899   6.406   1.292 -1.9658 -0.4346 -0.2066
30900SOL    HW296103   3.895   6.526   1.385 -1.6685 -0.7880  0.2684
30901SOL     OW96104   3.880   7.476   9.235  0.2252 -0.7903  0.1095
30901SOL    HW196105   3.955   7.491   9.294 -0.2994 -1.4727  0.9825
30901SOL    HW296106   3.851   7.387   9.257 -0.0732 -1.0046 -1.1021
30902SOL     OW96107  10.364   0.572   3.672 -0.2932 -0.3663 -0.1428
30902SOL    HW196108  10.450   0.597   3.705 -0.2049 -0.5752 -0.2145
30902SOL    HW296109  10.302   0.609   3.735 -0.0946 -1.4117  0.6940
30903SOL     OW96110   7.476   6.577   2.504  0.1083  0.1340 -0.0406
30903SOL    HW196111   7.425   6.608   2.579  0.2478 -1.7220  0.8601
30903SOL    HW296112   7.565   6.568   2.537 -0.0761 -1.9635  0.0060
30904SOL     OW96113   2.587   6.580   5.422  0.2617  0.1176 -0.3803
30904SOL    HW196114   2.594   6.611   5.332  0.9324  0.4977 -0.2002
30904SOL    HW296115   2.621   6.652   5.475  0.8958 -0.5336  0.1111
30905SOL     OW96116   1.792   7.521   6.148 -0.7732 -0.3396  0.2037
30905SOL    HW196117   1.745   7.464   6.209 -0.0520 -0.0046  1.0909
30905SOL    HW296118   1.861   7.466   6.112 -0.4480 -0.1925  0.6057
30906SOL     OW96119   5.589   3.823   1.683  0.3839 -0.4479 -0.2163
30906SOL    HW196120   5.573   3.916   1.668 -1.0975 -0.5695  0.4239
30906SOL    HW296121   5.533   3.801   1.758  0.4981 -1.9087 -0.5344
30907SOL     OW96122  10.700   7.061   8.966 -0.1863  0.3901 -0.0215
30907SOL    HW196123  10.604   7.070   8.967 -0.6624 -3.0696  1.4798
30907SOL    HW296124  10.726   7.073   9.058  0.6924  0.3650 -0.2590
30908SOL     OW96125   9.509   2.456   1.418 -0.4211 -0.3711 -0.3912
30908SOL    HW196126   9.550   2.480   1.336  0.1198 -1.6918 -0.5274
30908SOL    HW296127   9.431   2.406   1.393 -0.7257 -0.0521 -0.1016
30909SOL     OW96128   8.661   5.920   2.123  0.2642  0.7408 -0.1480
30909SOL    HW196129   8.674   5.870   2.204  0.5390  0.0877 -0.5858
30909SOL    HW296130   8.662   5.853   2.054  1.2630  1.4229 -0.8052
30910SOL     OW96131   8.442   2.116  10.047 -0.3144  0.3669  0.5820
30910SOL    HW196132   8.458   2.023  10.029  2.2551  0.6144  1.1719
30910SOL    HW296133   8.432   2.120  10.142 -0.9234  0.6391  0.5060
30911SOL     OW96134   9.252   1.568   5.388  0.0190  0.4431  0.2142
30911SOL    HW196135   9.271   1.661   5.374 -1.5032  0.5417 -1.5567
30911SOL    HW296136   9.169   1.568   5.435  0.4424 -0.0394  0.9771
30912SOL     OW96137   2.600   5.553   2.177 -0.3579  0.3853 -0.4088
30912SOL    HW196138   2.519   5.601   2.156 -1.6493 -2.3813 -2.4631
30912SOL    HW296139   2.662   5.581   2.110 -0.7825 -0.0766 -1.0021
30913SOL     OW96140   4.974   0.459   1.867  0.1585 -0.4206 -0.3412
30913SOL    HW196141   5.046   0.509   1.904 -0.1786  0.0141 -0.2632
30913SOL    HW296142   4.942   0.513   1.794 -1.0336  0.1098  0.5313
30914SOL     OW96143   1.878   8.766   1.410  0.1463  0.4668 -0.2683
30914SOL    HW196144   1.829   8.830   1.462 -0.3566  0.5528 -0.8390
30914SOL    HW296145   1.955   8.814   1.380 -0.0067  0.6734 -0.3328
30915SOL     OW96146   3.739  10.033   1.847  0.1829 -0.2068  0.3807
30915SOL    HW196147   3.794   9.982   1.787  1.0412 -0.0265  1.0037
30915SOL    HW296148   3.767  10.123   1.835 -1.0632  0.1013 -0.4288
30916SOL     OW96149   2.194   7.135   7.974  0.7146  0.6381 -0.5793
30916SOL    HW196150   2.250   7.128   7.896  1.3433 -0.9380 -0.0197
30916SOL    HW296151   2.190   7.046   8.009 -0.3665  1.1393  0.6459
30917SOL     OW96152   9.217   7.435   0.819 -0.7592 -0.1510 -0.0585
30917SOL    HW196153   9.296   7.453   0.770 -0.1710 -1.4639  0.3529
30917SOL    HW296154   9.195   7.517   0.862 -0.0801  0.4316 -0.8188
30918SOL     OW96155   5.123   0.838   4.096 -0.0593 -0.4338 -0.1417
30918SOL    HW196156   5.077   0.756   4.113  1.8522 -1.6091 -0.3739
30918SOL    HW296157   5.095   0.896   4.166 -3.0495 -0.5386 -1.1298
30919SOL     OW96158   5.250  10.782   7.029  0.4947  0.4858  0.4003
30919SOL    HW196159   5.168  10.760   7.073  0.2859 -2.6531 -1.2958
30919SOL    HW296160   5.316  10.776   7.098 -0.0435 -2.5893  0.7814
30920SOL     OW96161   6.662   4.991   8.113  0.0917  0.3559 -0.2267
30920SOL    HW196162   6.601   4.935   8.161  0.1867  2.0130  1.9921
30920SOL    HW296163   6.726   4.930   8.076 -1.0897 -1.1648  0.1038
30921SOL     OW96164   3.612   3.637   1.787 -0.5131  0.8115  0.1763
30921SOL    HW196165   3.660   3.705   1.834  0.0705  0.1603  0.5522
30921SOL    HW296166   3.520   3.658   1.799 -0.3622  0.8546  1.3121
30922SOL     OW96167  10.889   3.977   5.913 -0.3405 -0.3059  0.3304
30922SOL    HW196168  10.827   4.049   5.926 -1.3680 -0.9651 -0.7058
30922SOL    HW296169  10.947   4.008   5.843  0.2610  0.1448  1.0128
30923SOL     OW96170   8.922   9.417   8.329  0.3297 -0.0966 -0.2205
30923SOL    HW196171   8.894   9.492   8.383  0.1882 -0.4970  0.2786
30923SOL    HW296172   8.967   9.456   8.255  1.4924  0.4475  0.7298
30924SOL     OW96173   8.781   2.489   6.812  0.1308 -0.5365 -0.2122
30924SOL    HW196174   8.818   2.477   6.724  1.2770 -0.6336  0.2660
30924SOL    HW296175   8.856   2.480   6.871 -0.8104 -1.5962  0.8667
30925SOL     OW96176   6.119   9.703  10.726 -0.1009 -0.4418 -0.7889
30925SOL    HW196177   6.171   9.702  10.646  1.1238 -1.1719 -0.0188
30925SOL    HW296178   6.081   9.615  10.731  0.3997 -0.6370 -0.2300
30926SOL     OW96179   8.668   4.244   0.663  0.0812  0.3978 -0.1964
30926SOL    HW196180   8.618   4.267   0.584 -0.0941  0.5742 -0.0362
30926SOL    HW296181   8.631   4.300   0.731 -1.9843 -1.9455  0.7782
30927SOL     OW96182   0.654   2.534   4.646  0.0758 -0.0440 -0.1890
30927SOL    HW196183   0.694   2.615   4.617 -0.4172  0.6659  1.0388
30927SOL    HW296184   0.722   2.488   4.695  0.1819 -0.0993 -0.3890
30928SOL     OW96185   8.155   6.269   5.761  0.1864 -0.4129 -0.6476
30928SOL    HW196186   8.153   6.313   5.846 -0.2831  0.4956 -1.1110
30928SOL    HW296187   8.203   6.329   5.704 -1.4516  0.0696 -1.5848
30929SOL     OW96188   7.413   9.146   7.141 -0.2592 -0.4049  0.5953
30929SOL    HW196189   7.480   9.079   7.127  1.2141  1.2045 -0.5106
30929SOL    HW296190   7.330   9.101   7.127  0.6788 -2.0135 -0.0053
30930SOL     OW96191   6.837   7.117  10.679  0.3434  0.0038  0.1360
30930SOL    HW196192   6.914   7.130  10.623 -0.3159 -0.4221 -0.8974
30930SOL    HW296193   6.847   7.028  10.714 -0.1133 -0.3934 -0.7151
30931SOL     OW96194   9.004   0.494   8.636 -0.1083  0.8823  0.6737
30931SOL    HW196195   9.096   0.494   8.665  0.4584  1.2178 -0.9736
30931SOL    HW296196   8.979   0.402   8.637  0.5884  0.6812  0.1683
30932SOL     OW96197   7.406   3.662   1.127 -0.5204  0.4675  0.2147
30932SOL    HW196198   7.395   3.717   1.205  0.8097  1.7670 -0.4717
30932SOL    HW296199   7.485   3.610   1.145 -1.1619 -0.4697  0.4091
30933SOL     OW96200   6.593  10.093   3.283 -0.3868 -0.3446  0.3444
30933SOL    HW196201   6.679  10.117   3.320 -0.2734 -0.8251  0.3923
30933SOL    HW296202   6.613  10.061   3.195 -0.6170  0.4164  0.0049
30934SOL     OW96203   8.147   8.967   2.882 -0.1323  0.3066 -0.0957
30934SOL    HW196204   8.090   9.042   2.899  2.0332  2.0658 -0.1981
30934SOL    HW296205   8.163   8.930   2.969 -0.3729  0.6236  0.0860
30935SOL     OW96206   2.520   2.995   1.466 -0.3953 -0.4593 -1.2205
30935SOL    HW196207   2.527   2.932   1.538 -0.7486  1.2961  0.4561
30935SOL    HW296208   2.601   3.047   1.472  0.4204 -1.4147 -3.2864
30936SOL     OW96209   5.285   1.005   2.972  0.3575  0.5949  0.0227
30936SOL    HW196210   5.226   1.008   3.048  2.9968  0.0129  2.2199
30936SOL    HW296211   5.236   0.955   2.906 -2.0267  1.1116  1.2893
30937SOL     OW96212   6.247   1.242   7.436 -0.2755  0.4699  0.9706
30937SOL    HW196213   6.183   1.216   7.369  0.0529  0.8699  0.5002
30937SOL    HW296214   6.212   1.323   7.472  0.8967  1.7124 -0.5920
30938SOL     OW96215   4.946   7.953   4.038  0.6944  0.6413  0.5980
30938SOL    HW196216   4.980   8.029   3.990  0.9818 -0.5476 -1.1623
30938SOL    HW296217   4.863   7.983   4.074  0.1965  1.4435 -1.1229
30939SOL     OW96218   5.599   9.344   7.533 -0.3072 -0.2572  0.4041
30939SOL    HW196219   5.580   9.252   7.513  2.3614 -0.5896 -1.1394
30939SOL    HW296220   5.647   9.341   7.615 -1.5303 -0.0572  1.1402
30940SOL     OW96221   7.987   5.767   4.869 -0.4873 -0.4482 -0.1663
30940SOL    HW196222   7.909   5.773   4.924 -1.2941  0.4579 -1.3557
30940SOL    HW296223   7.967   5.822   4.793  0.4896 -1.8105 -1.4696
30941SOL     OW96224   5.696   2.697   3.927  0.3170 -0.2434 -0.4405
30941SOL    HW196225   5.637   2.771   3.936  0.0782 -0.4196 -0.5545
30941SOL    HW296226   5.704   2.683   3.832  2.0522  0.9889 -0.5297
30942SOL     OW96227   9.836   4.754   0.942  0.6894  0.3519  0.5667
30942SOL    HW196228   9.757   4.791   0.902  0.1627  0.5434  1.7237
30942SOL    HW296229   9.805   4.714   1.023  1.6475 -0.4071  0.5736
30943SOL     OW96230   3.624  10.457   3.617 -0.0432  0.4019  0.5400
30943SOL    HW196231   3.574  10.401   3.557  0.3242 -0.3240  0.8992
30943SOL    HW296232   3.645  10.534   3.565 -0.2271  0.0394 -0.0888
30944SOL     OW96233   9.629   0.128   2.268  0.3541 -0.6532 -0.3283
30944SOL    HW196234   9.557   0.191   2.268  0.6347 -0.3300 -0.2883
30944SOL    HW296235   9.700   0.172   2.314  1.2320 -0.2116 -2.0321
30945SOL     OW96236   7.049   8.347   9.828  0.4442  0.2595 -0.0171
30945SOL    HW196237   6.971   8.376   9.874 -0.0447 -0.5495 -0.3029
30945SOL    HW296238   7.104   8.425   9.821 -0.7420  1.0753 -0.6247
30946SOL     OW96239   9.217   5.381   1.931 -0.4794 -0.8073  0.1647
30946SOL    HW196240   9.241   5.289   1.931 -0.1061 -0.7426 -1.5261
30946SOL    HW296241   9.294   5.426   1.894 -0.3756  0.2797  1.5926
30947SOL     OW96242   0.848   6.267   4.745  0.4202  0.2275 -0.1061
30947SOL    HW196243   0.868   6.185   4.700  1.0713 -0.0452  0.6474
30947SOL    HW296244   0.909   6.268   4.819 -1.7726 -0.2203  1.8178
30948SOL     OW96245   5.316   5.434   5.870 -0.4012 -0.4765  0.1991
30948SOL    HW196246   5.390   5.471   5.821 -1.3721  3.1767  1.2442
30948SOL    HW296247   5.243   5.437   5.809 -0.3894 -1.2395  0.1370
30949SOL     OW96248   6.224   0.901   9.740 -0.0486  0.2540 -0.2841
30949SOL    HW196249   6.260   0.892   9.651  0.9190 -0.3288  0.1590
30949SOL    HW296250   6.202   0.994   9.746 -0.8236  0.1684 -1.3923
30950SOL     OW96251   8.824   6.132   2.066  0.0300  0.0447 -0.5196
30950SOL    HW196252   8.783   6.045   2.066 -1.0078  0.5165  0.7889
30950SOL    HW296253   8.788   6.176   2.142  0.2516  1.7883 -1.3767
30951SOL     OW96254   7.409   1.659   6.986 -0.1299 -0.0208 -0.4034
30951SOL    HW196255   7.318   1.685   6.998 -0.1691  0.1316 -0.9974
30951SOL    HW296256   7.441   1.716   6.916  0.0694 -0.8897 -1.0368
30952SOL     OW96257   7.235   5.338  10.809 -0.3013 -0.4247 -0.2489
30952SOL    HW196258   7.246   5.427  10.843  0.3618 -0.2285 -0.9393
30952SOL    HW296259   7.192   5.349  10.725  0.3848 -0.6941 -0.6502
30953SOL     OW96260   0.004   3.733   4.308 -0.1689 -0.2747  0.3368
30953SOL    HW196261   0.012   3.652   4.359  1.5399 -0.5627 -0.3069
30953SOL    HW296262   0.094   3.765   4.300 -0.5438  0.4658 -1.3373
30954SOL     OW96263   9.367   6.166  10.747 -0.5144 -0.1496  0.2846
30954SOL    HW196264   9.418   6.109  10.688 -0.6774 -0.7979  0.7626
30954SOL    HW296265   9.321   6.105  10.804 -0.9545  0.4672  0.5850
30955SOL     OW96266   5.054   4.480   6.873  0.2567 -0.4083  0.1207
30955SOL    HW196267   5.116   4.478   6.801  2.5388 -0.4483  1.9524
30955SOL    HW296268   5.054   4.572   6.902  0.2416 -0.6046  0.7646
30956SOL     OW96269   9.412   5.066   0.638 -0.3659  0.5092 -0.2278
30956SOL    HW196270   9.387   4.984   0.681  1.2545 -0.1498 -0.4648
30956SOL    HW296271   9.365   5.134   0.686 -1.9202 -0.5639 -0.1686
30957SOL     OW96272   6.881   1.987   2.115  0.1579 -0.1946  0.4205
30957SOL    HW196273   6.968   1.950   2.125 -0.1008 -1.0823 -0.5108
30957SOL    HW296274   6.833   1.957   2.193 -0.1738 -2.2290 -0.5164
30958SOL     OW96275   3.396   8.562   1.624  0.1366  0.3860 -0.7268
30958SOL    HW196276   3.401   8.491   1.560 -1.5908 -0.1567 -0.3167
30958SOL    HW296277   3.475   8.614   1.609  0.9729 -1.0962 -1.6584
30959SOL     OW96278   8.774   2.306   4.042 -0.1878 -0.2311  0.1701
30959SOL    HW196279   8.766   2.239   3.974 -1.6491  0.1369 -0.0470
30959SOL    HW296280   8.715   2.376   4.014 -1.4186 -0.3902  2.1910
30960SOL     OW96281   5.994   1.836   5.667  0.5312 -0.3175  0.2633
30960SOL    HW196282   5.915   1.800   5.626 -1.5361  1.1031  2.7222
30960SOL    HW296283   5.998   1.793   5.752  0.4074  2.0725  1.5489
30961SOL     OW96284   4.709   7.366   7.329 -0.0871 -0.3924 -0.2064
30961SOL    HW196285   4.754   7.321   7.401 -0.4011 -1.1856 -0.4883
30961SOL    HW296286   4.644   7.302   7.299  0.0480 -0.0707 -1.1996
30962SOL     OW96287   8.626   3.885   3.910  0.0773 -0.3011 -0.0569
30962SOL    HW196288   8.604   3.895   4.003 -0.1565  0.2782 -0.1669
30962SOL    HW296289   8.645   3.792   3.899  0.1734 -0.3621  0.5852
30963SOL     OW96290   1.267   4.011   0.072  0.0988  0.4252  0.0168
30963SOL    HW196291   1.324   4.025   0.147  0.8085 -1.2180 -0.1754
30963SOL    HW296292   1.313   3.947   0.018 -1.5016 -0.2431 -0.6245
30964SOL     OW96293   1.051   3.120   8.116  0.1683 -0.3771  0.7833
30964SOL    HW196294   1.118   3.068   8.073 -0.6261 -2.2044  1.6579
30964SOL    HW296295   0.972   3.106   8.063  0.2232  1.0073  0.2920
30965SOL     OW96296   4.381   8.166   2.748  0.9991  0.2791  0.3583
30965SOL    HW196297   4.306   8.143   2.692  1.6834 -0.2926 -0.3394
30965SOL    HW296298   4.359   8.253   2.782  1.2344  1.3600 -2.0463
30966SOL     OW96299   5.025   8.630   1.072  0.3033  0.0796  0.4919
30966SOL    HW196300   5.114   8.620   1.039 -0.1792  0.5169 -0.9983
30966SOL    HW296301   5.035   8.687   1.149  1.0357  2.4745 -1.2685
30967SOL     OW96302   3.964   5.290   9.568  0.0307  0.2130 -0.1138
30967SOL    HW196303   4.005   5.307   9.483  0.3792  0.5796  0.1230
30967SOL    HW296304   3.910   5.367   9.584 -0.8777 -0.3364 -0.4937
30968SOL     OW96305   5.334   3.292   3.656  0.0222 -0.2540  0.2947
30968SOL    HW196306   5.390   3.225   3.695  0.3592  0.0001  0.2505
30968SOL    HW296307   5.279   3.244   3.594  1.7602 -0.2072 -1.3656
30969SOL     OW96308   1.472   8.782   7.176 -0.6490  0.2329 -0.2333
30969SOL    HW196309   1.524   8.772   7.255  0.0250  1.6243 -0.4706
30969SOL    HW296310   1.396   8.724   7.189  0.5798 -1.2932  0.4108
30970SOL     OW96311  10.572   3.591   2.006  0.4072  0.4402 -0.2517
30970SOL    HW196312  10.479   3.582   1.987  0.6010 -0.5705 -0.7770
30970SOL    HW296313  10.604   3.656   1.942  0.1285  0.5687 -0.2603
30971SOL     OW96314   5.844   3.939   6.316  0.4115  0.1553 -0.1143
30971SOL    HW196315   5.846   3.870   6.383 -1.5176 -1.3138 -1.4444
30971SOL    HW296316   5.811   4.016   6.361 -0.1416 -0.5973  0.7995
30972SOL     OW96317   0.459   2.316   6.949 -0.0089 -0.0339 -0.3613
30972SOL    HW196318   0.452   2.411   6.953 -0.0149 -0.0002 -1.0438
30972SOL    HW296319   0.455   2.295   6.856  3.3197 -0.4520 -0.5401
30973SOL     OW96320   5.778   6.263   5.242 -0.2095 -0.5096  0.0200
30973SOL    HW196321   5.792   6.260   5.336 -2.3522 -1.6672  0.3566
30973SOL    HW296322   5.723   6.340   5.228  2.7039  1.6317 -0.7927
30974SOL     OW96323   9.481   9.926  10.790 -0.8762 -0.0300  0.5399
30974SOL    HW196324   9.553   9.925  10.727  0.7193  0.1418  2.2644
30974SOL    HW296325   9.434  10.007  10.772  0.6294  0.9053  0.7135
30975SOL     OW96326   8.004   6.614   6.101 -0.4971  0.2452  0.2317
30975SOL    HW196327   8.020   6.608   6.195 -0.4586  1.1971  0.2960
30975SOL    HW296328   8.084   6.651   6.065 -0.9018  0.8703 -0.0343
30976SOL     OW96329   0.802   0.749   5.887  0.2409 -0.3526  0.3995
30976SOL    HW196330   0.829   0.783   5.802  1.3238  0.0745  0.8941
30976SOL    HW296331   0.838   0.661   5.890 -0.6192 -0.7294  0.0423
30977SOL     OW96332   8.461   6.831   8.779 -0.0402 -0.6334 -0.1220
30977SOL    HW196333   8.440   6.895   8.847  1.5303 -0.4790  0.2473
30977SOL    HW296334   8.503   6.882   8.709 -1.0196 -0.8940 -0.9253
30978SOL     OW96335  10.895  10.629   7.625  0.1440 -0.2938 -0.5480
30978SOL    HW196336  10.864  10.697   7.565  1.0816 -0.3770 -1.1411
30978SOL    HW296337  10.989  10.625   7.611  0.2810 -0.8065  0.4366
30979SOL     OW96338   2.690  10.051   2.570 -0.6726 -0.1526  0.2034
30979SOL    HW196339   2.603  10.010   2.571 -0.3403 -0.9237 -0.8221
30979SOL    HW296340   2.732  10.020   2.650 -0.6168 -1.4359 -0.2994
30980SOL     OW96341   7.368   0.531   5.167 -0.1384  0.2499 -0.9090
30980SOL    HW196342   7.345   0.534   5.074  2.8294  1.0164 -1.7334
30980SOL    HW296343   7.443   0.472   5.171 -1.1132 -0.9312  1.2851
30981SOL     OW96344   7.502   9.847   2.821 -0.2242 -0.3178 -0.3722
30981SOL    HW196345   7.411   9.854   2.851 -0.6198 -1.4853 -1.2086
30981SOL    HW296346   7.515   9.924   2.766  1.2812  3.2806  4.3588
30982SOL     OW96347   5.366   1.964  10.351 -0.4554  0.2884 -0.6628
30982SOL    HW196348   5.327   1.912  10.421 -2.7547  2.8192  0.1419
30982SOL    HW296349   5.452   1.925  10.336 -1.1446 -2.2584  1.3751
30983SOL     OW96350   9.843   7.004   0.728 -0.0295  0.3139  0.2175
30983SOL    HW196351   9.804   7.001   0.641 -0.2917 -0.4162  0.3515
30983SOL    HW296352   9.782   7.055   0.780 -0.3255 -0.0049  0.1874
30984SOL     OW96353   5.651   1.897   9.875 -0.5873  0.3209 -0.1585
30984SOL    HW196354   5.677   1.894   9.967 -0.5289 -1.0482 -0.2099
30984SOL    HW296355   5.728   1.930   9.829 -0.3550  0.2664  0.1912
30985SOL     OW96356  10.575   7.226  10.701  0.2858 -0.0395  0.1086
30985SOL    HW196357  10.534   7.231  10.787 -0.7450 -1.3663 -0.2786
30985SOL    HW296358  10.509   7.259  10.640  1.1502  1.2761 -0.1655
30986SOL     OW96359   8.393   5.787   2.068 -0.2088 -0.0389  0.1931
30986SOL    HW196360   8.393   5.805   2.162  1.5289 -0.7079  0.3528
30986SOL    HW296361   8.381   5.693   2.061 -2.4373  0.2179 -0.3854
30987SOL     OW96362   4.966   5.919   9.312 -0.5732  0.0572 -0.2982
30987SOL    HW196363   4.987   5.862   9.238  0.0137 -0.6789  0.4178
30987SOL    HW296364   4.870   5.919   9.316 -0.5825 -1.6224  0.2238
30988SOL     OW96365   3.947   0.081   3.172 -0.1310 -0.1736  0.5794
30988SOL    HW196366   3.880   0.094   3.239 -0.6912  0.0639 -0.0156
30988SOL    HW296367   4.016   0.143   3.195 -1.0269  1.0564  0.0324
30989SOL     OW96368   2.105   5.372   6.601 -0.3546  0.3915  0.7372
30989SOL    HW196369   2.123   5.353   6.509  0.3434  1.7860  0.5487
30989SOL    HW296370   2.179   5.334   6.649  0.6369  1.8624  0.4413
30990SOL     OW96371   7.383  10.257   7.113  0.5861  0.7275  0.5094
30990SOL    HW196372   7.476  10.280   7.108  0.9902 -0.8739  0.1562
30990SOL    HW296373   7.373  10.182   7.055 -1.1920  1.5812 -0.3616
30991SOL     OW96374   5.391   9.124   3.252  0.0149 -0.2832  0.0084
30991SOL    HW196375   5.362   9.035   3.232 -2.5530  0.4015  0.3337
30991SOL    HW296376   5.449   9.147   3.179 -1.3199 -1.3306 -1.4569
30992SOL     OW96377   9.677   4.267   3.956  0.1831 -0.1259  0.7794
30992SOL    HW196378   9.636   4.352   3.941  2.4040  0.7354 -0.8691
30992SOL    HW296379   9.628   4.230   4.030 -3.6443  0.6653 -1.1215
30993SOL     OW96380   8.897   3.249   4.627 -0.6163 -0.1621 -0.3371
30993SOL    HW196381   8.884   3.248   4.722  1.1355 -0.9909 -0.0740
30993SOL    HW296382   8.899   3.342   4.604 -0.2723  0.0634  0.5638
30994SOL     OW96383   4.561  10.471  10.350  0.0669 -0.1727 -0.8092
30994SOL    HW196384   4.640  10.417  10.352 -0.0630 -0.3689 -0.9571
30994SOL    HW296385   4.498  10.423  10.403  0.6452  0.9385  1.0060
30995SOL     OW96386  10.639   1.581   5.869 -0.5534 -0.0395 -0.3993
30995SOL    HW196387  10.574   1.537   5.814  0.3380 -1.6008 -0.2754
30995SOL    HW296388  10.609   1.567   5.959  0.1639 -1.2042 -0.3140
30996SOL     OW96389   7.476   4.176   3.997  0.0129  0.7889 -0.7130
30996SOL    HW196390   7.549   4.129   3.956 -0.4546 -2.6047  1.8151
30996SOL    HW296391   7.509   4.198   4.084 -1.4128  0.7099 -0.1308
30997SOL     OW96392   8.648   9.027   9.486 -0.3786  0.0348  0.3206
30997SOL    HW196393   8.665   9.085   9.560 -0.0002 -0.7746  0.8763
30997SOL    HW296394   8.555   9.006   9.493 -0.6443  0.9669 -0.1868
30998SOL     OW96395   9.574   8.955   7.526  0.2660 -0.4304 -0.3815
30998SOL    HW196396   9.502   8.892   7.522 -0.4945  0.3559  0.4513
30998SOL    HW296397   9.560   9.012   7.451 -1.0901  0.8458  0.7894
30999SOL     OW96398   9.160   9.829   1.817 -0.7421 -0.0893  0.1305
30999SOL    HW196399   9.244   9.873   1.830 -0.9057 -0.0503  1.0823
30999SOL    HW296400   9.164   9.796   1.727  0.3446 -0.2007  0.2085
31000SOL     OW96401   3.413   3.345   8.198 -0.4928 -0.0067  0.1296
31000SOL    HW196402   3.434   3.260   8.160  0.9719  0.1957  0.4490
31000SOL    HW296403   3.338   3.328   8.255 -0.1425 -1.1057  0.2805
31001SOL     OW96404  10.718   1.142   9.412 -0.0765  0.2346  0.3275
31001SOL    HW196405  10.788   1.175   9.356 -0.3438 -0.3687 -0.3751
31001SOL    HW296406  10.698   1.055   9.378  0.1676 -0.4012  1.7380
31002SOL     OW96407   5.426   9.310   8.983  0.3774  0.5075  0.1391
31002SOL    HW196408   5.457   9.220   8.988  0.3121  0.4499 -0.4499
31002SOL    HW296409   5.398   9.322   8.892  2.1639  1.7014 -0.3015
31003SOL     OW96410   2.731   4.236   9.434  0.0815 -0.0360 -0.0257
31003SOL    HW196411   2.813   4.198   9.401  0.3185  0.6089 -0.1881
31003SOL    HW296412   2.752   4.328   9.449 -0.3028 -0.1072  0.9967
31004SOL     OW96413   1.806   4.084  10.151  0.4851 -0.7963  0.4429
31004SOL    HW196414   1.742   4.035  10.201 -0.7731  3.2677  3.3104
31004SOL    HW296415   1.757   4.117  10.075  0.1302 -0.5678  0.7664
31005SOL     OW96416   4.906   4.581   1.640  0.1828  0.2539  0.6315
31005SOL    HW196417   4.950   4.596   1.557 -1.7857 -1.9219 -0.9477
31005SOL    HW296418   4.968   4.527   1.690  1.5129  1.8450  0.7645
31006SOL     OW96419   7.395   5.643   1.268 -0.5319 -0.0736 -0.0387
31006SOL    HW196420   7.339   5.565   1.273 -1.3245  0.3120 -2.0309
31006SOL    HW296421   7.344   5.706   1.218  0.9488  0.9778 -0.2973
31007SOL     OW96422  10.417   4.212   6.638  0.1127 -0.4686 -0.7724
31007SOL    HW196423  10.423   4.254   6.724 -0.6094  1.1853 -1.4839
31007SOL    HW296424  10.323   4.199   6.625  0.2282 -0.8090 -1.2764
31008SOL     OW96425   2.859   1.626   9.101  0.2197 -0.1243 -0.3932
31008SOL    HW196426   2.928   1.565   9.074  0.4007  0.7631 -2.0686
31008SOL    HW296427   2.904   1.691   9.155  0.6469  0.2576 -1.1952
31009SOL     OW96428   1.327   4.094   1.054  0.0508  0.4612 -0.4298
31009SOL    HW196429   1.299   4.023   0.996  1.6537 -0.3462 -0.2657
31009SOL    HW296430   1.370   4.157   0.996  1.4092 -0.2167 -0.2011
31010SOL     OW96431   7.087   9.784   5.387  0.0457  0.4513 -0.2181
31010SOL    HW196432   7.120   9.871   5.363 -1.8920  1.5620  0.8962
31010SOL    HW296433   7.123   9.768   5.474  0.0905  0.2924 -0.2655
31011SOL     OW96434   4.966   9.053   2.116  0.0293 -0.5074 -0.6867
31011SOL    HW196435   4.887   9.076   2.067  0.6378 -0.7099 -1.8063
31011SOL    HW296436   4.934   9.028   2.203 -1.1164 -0.4090 -1.0625
31012SOL     OW96437   0.606   0.100   1.725  0.0433  0.4849  0.2033
31012SOL    HW196438   0.632   0.185   1.689  1.0571  0.6188  1.1922
31012SOL    HW296439   0.638   0.037   1.661  0.2092  0.8030 -0.0310
31013SOL     OW96440   0.152   3.980   2.692 -0.4610 -0.0008 -0.1920
31013SOL    HW196441   0.214   3.910   2.714 -0.4325 -0.1888 -0.8310
31013SOL    HW296442   0.091   3.984   2.765  0.3275  0.2094  0.4715
31014SOL     OW96443   0.313  10.292   6.975  0.2804 -0.1570 -0.0087
31014SOL    HW196444   0.272  10.265   6.893  0.6964  2.0796 -1.0539
31014SOL    HW296445   0.320  10.212   7.026 -3.9880 -0.9417 -0.3066
31015SOL     OW96446  10.040   7.739   3.317 -0.3313 -0.0481  0.4884
31015SOL    HW196447  10.065   7.648   3.333 -1.4676 -0.3555  0.6578
31015SOL    HW296448   9.947   7.733   3.292 -0.0837  0.9444 -0.7685
31016SOL     OW96449   2.157   9.021   3.742  0.1235 -0.0841  0.4469
31016SOL    HW196450   2.156   9.052   3.832  0.8696  1.2479  0.0259
31016SOL    HW296451   2.101   9.083   3.695 -0.1303 -0.6720 -0.0449
31017SOL     OW96452   8.914   1.276   5.904 -0.8620 -0.7190  0.2517
31017SOL    HW196453   8.942   1.367   5.894 -2.4136 -0.2519 -0.0111
31017SOL    HW296454   8.942   1.233   5.823 -0.4282 -0.4044  0.2328
31018SOL     OW96455  10.179   0.467  10.602  0.1484 -0.5067  0.6714
31018SOL    HW196456  10.231   0.504  10.673  2.7948  0.7894 -1.7332
31018SOL    HW296457  10.160   0.542  10.545 -0.1438 -1.7899 -0.9883
31019SOL     OW96458   2.477   2.790   1.631  0.1837  0.0885  0.2982
31019SOL    HW196459   2.471   2.695   1.633 -0.3650  0.1195  0.1484
31019SOL    HW296460   2.406   2.820   1.687 -0.4206  0.4291 -0.6208
31020SOL     OW96461   6.458   1.561   9.810  0.5525  0.3686  0.0089
31020SOL    HW196462   6.475   1.544   9.903 -0.0750 -2.1300 -0.2475
31020SOL    HW296463   6.364   1.576   9.805  0.7899  1.9616 -0.0764
31021SOL     OW96464  10.820   6.246   3.602 -0.6212  0.5102  0.8831
31021SOL    HW196465  10.790   6.246   3.693 -0.3843  1.0857  0.9709
31021SOL    HW296466  10.909   6.281   3.607 -0.8085  1.0767  0.3729
31022SOL     OW96467   8.626   7.756   4.152 -0.0088  0.2327 -0.3546
31022SOL    HW196468   8.685   7.747   4.227 -1.9470  1.5401  1.4058
31022SOL    HW296469   8.649   7.840   4.114 -1.5480  1.3773  1.1427
31023SOL     OW96470   9.806   2.847   8.896 -0.5912 -0.1782 -0.2268
31023SOL    HW196471   9.870   2.847   8.967  0.3017  3.7331 -0.7804
31023SOL    HW296472   9.842   2.785   8.832  0.2655 -1.3265  1.2832
31024SOL     OW96473   1.259   3.397  10.584  0.5242  0.2111  0.4842
31024SOL    HW196474   1.163   3.402  10.582  0.5794  1.2979 -1.2284
31024SOL    HW296475   1.278   3.305  10.600 -0.8115 -0.2961 -0.6971
31025SOL     OW96476   2.570   3.794   4.485 -0.3802 -0.5194  0.2541
31025SOL    HW196477   2.539   3.850   4.556 -0.5149 -0.3603  0.0661
31025SOL    HW296478   2.640   3.742   4.526  1.2794  1.2998 -0.0992
31026SOL     OW96479   2.612   0.107   0.139 -0.4417 -0.4286 -0.5703
31026SOL    HW196480   2.545   0.113   0.206  0.8404  0.3909  0.7071
31026SOL    HW296481   2.666   0.032   0.164  0.1477 -0.0148 -0.5559
31027SOL     OW96482   3.988   3.906   7.635  0.3569 -0.2244 -0.4333
31027SOL    HW196483   4.004   3.937   7.724  0.4942  1.0630 -0.8784
31027SOL    HW296484   4.050   3.834   7.624  2.0075  1.0927 -0.2350
31028SOL     OW96485   0.348   1.138   8.272 -0.7049 -0.0387  0.2499
31028SOL    HW196486   0.281   1.105   8.332 -1.5205 -0.6665 -0.9471
31028SOL    HW296487   0.360   1.230   8.297 -1.3799 -0.1562  1.0438
31029SOL     OW96488  10.442   6.040   3.339 -0.8143 -0.2812  0.5289
31029SOL    HW196489  10.532   6.033   3.368  0.0054  1.1329 -1.4144
31029SOL    HW296490  10.389   6.023   3.417  1.1597  1.5768  2.3967
31030SOL     OW96491   2.387   2.107  10.133  0.1400  0.2582  0.1666
31030SOL    HW196492   2.322   2.161  10.178  0.7038  0.8001  0.3407
31030SOL    HW296493   2.396   2.029  10.187 -1.0474 -0.2541 -0.3444
31031SOL     OW96494   0.536   3.504   3.999  0.2060 -0.3403  0.5881
31031SOL    HW196495   0.442   3.497   4.017 -0.2316  3.2856  0.5722
31031SOL    HW296496   0.542   3.505   3.903  0.6349 -2.8833  0.5111
31032SOL     OW96497   8.423   0.584   4.488  0.7905 -0.4859  0.1634
31032SOL    HW196498   8.435   0.607   4.580  2.0670  0.7106 -0.2484
31032SOL    HW296499   8.506   0.544   4.462  0.0541 -1.8385 -0.2150
31033SOL     OW96500  10.091   8.790   5.586 -0.4605  0.6063 -0.1455
31033SOL    HW196501  10.032   8.841   5.641  0.5214  0.5696  0.9674
31033SOL    HW296502  10.152   8.748   5.647  0.5069  0.3696 -1.2285
31034SOL     OW96503   9.607   7.570   4.052  0.5882  0.1240  0.0181
31034SOL    HW196504   9.529   7.520   4.074  0.9938  0.1324  1.5494
31034SOL    HW296505   9.655   7.515   3.990  0.3976 -0.8022  0.6826
31035SOL     OW96506   9.390   8.037   9.142  1.4663  0.3604 -0.3717
31035SOL    HW196507   9.332   8.104   9.180 -0.6059 -0.2923 -2.1718
31035SOL    HW296508   9.388   7.965   9.205  1.1605  0.7644  0.0887
31036SOL     OW96509   1.614   1.779   0.348 -0.6300  0.5333 -0.3758
31036SOL    HW196510   1.657   1.852   0.302  1.2793 -1.2066 -1.4946
31036SOL    HW296511   1.679   1.747   0.409 -1.3720 -0.3776 -0.0442
31037SOL     OW96512   6.212   7.441   0.854 -0.1588 -0.3612  0.1165
31037SOL    HW196513   6.283   7.381   0.829 -1.1639 -1.2558 -0.6957
31037SOL    HW296514   6.210   7.506   0.784 -0.2453 -0.4420  0.0426
31038SOL     OW96515   8.433   8.659   5.203 -0.1470 -0.2426  0.0120
31038SOL    HW196516   8.523   8.680   5.229  0.5497  0.8473 -2.8938
31038SOL    HW296517   8.378   8.715   5.257  1.3191  3.8633 -2.2934
31039SOL     OW96518   9.087   5.645   5.028  0.1994  0.3338  0.6516
31039SOL    HW196519   9.010   5.649   4.971 -1.1007  1.4232  2.3530
31039SOL    HW296520   9.127   5.732   5.021 -1.2292  1.2690  2.9077
31040SOL     OW96521   4.859  10.251   8.051  0.5188 -0.1650  0.0311
31040SOL    HW196522   4.917  10.324   8.074 -1.8743  1.9758 -0.3106
31040SOL    HW296523   4.842  10.207   8.134  1.8034 -0.2081  0.2893
31041SOL     OW96524   2.905   8.671   6.142 -0.4709  0.3446  0.3506
31041SOL    HW196525   2.992   8.666   6.180 -0.6156 -2.1134  0.5142
31041SOL    HW296526   2.899   8.593   6.086 -2.3809  0.7320 -0.0537
31042SOL     OW96527   0.920   7.456   3.510 -0.4418 -0.1605  0.2598
31042SOL    HW196528   0.842   7.464   3.455  0.1267 -0.2953 -0.5977
31042SOL    HW296529   0.913   7.368   3.549  0.0588 -0.8349 -1.0952
31043SOL     OW96530   2.331   8.737   7.826 -0.9127  0.4138  0.1779
31043SOL    HW196531   2.422   8.763   7.810 -0.8487 -0.9577 -2.1146
31043SOL    HW296532   2.279   8.803   7.778 -0.8168 -1.9633 -3.6343
31044SOL     OW96533   9.530   0.275   9.714  0.3532  0.0208 -0.1203
31044SOL    HW196534   9.450   0.325   9.699  0.1679 -0.4524 -0.7566
31044SOL    HW296535   9.599   0.328   9.674  0.6868  1.4062  2.1559
31045SOL     OW96536   8.880   4.106   0.823  0.0278  0.1182 -0.1598
31045SOL    HW196537   8.813   4.153   0.774 -0.0268 -1.3381 -1.5632
31045SOL    HW296538   8.920   4.047   0.759  4.2336  2.4020 -0.0032
31046SOL     OW96539   7.169   4.804   7.706 -0.0811 -0.0986  0.3313
31046SOL    HW196540   7.197   4.823   7.796 -0.2177 -0.9113  0.5497
31046SOL    HW296541   7.106   4.733   7.715 -2.0975  1.5406 -0.1639
31047SOL     OW96542   7.469   8.257   4.268  0.0739 -0.4830 -0.0207
31047SOL    HW196543   7.554   8.295   4.247 -0.0685 -0.6263 -0.8544
31047SOL    HW296544   7.413   8.332   4.285  0.4213 -0.3931  0.7713
31048SOL     OW96545   8.099   6.640   0.075  0.2989 -0.3110  0.5448
31048SOL    HW196546   8.029   6.705   0.068 -0.8147 -1.4729  0.4389
31048SOL    HW296547   8.135   6.633  -0.013 -0.1585 -0.4561  0.3675
31049SOL     OW96548   5.816  10.223   8.480  0.3999  0.0563 -0.2535
31049SOL    HW196549   5.746  10.218   8.415 -0.1465  1.3512  0.2146
31049SOL    HW296550   5.844  10.314   8.478  0.6616  0.0119  1.0255
31050SOL     OW96551   7.548   0.933   1.030 -0.0177 -0.2027  0.3067
31050SOL    HW196552   7.629   0.884   1.044 -0.3594 -0.6105  0.8862
31050SOL    HW296553   7.571   1.024   1.050  1.4299  0.5184 -3.5418
31051SOL     OW96554   4.721   8.589   7.803  0.1317 -0.2655 -0.5446
31051SOL    HW196555   4.755   8.673   7.834  0.0099 -0.2493 -0.4515
31051SOL    HW296556   4.695   8.543   7.883 -0.5146 -0.0834 -0.6460
31052SOL     OW96557   9.577   5.095   8.137  0.0869  0.1541 -0.4889
31052SOL    HW196558   9.519   5.169   8.117 -0.2464 -0.1291 -0.5645
31052SOL    HW296559   9.518   5.023   8.160  0.3235 -0.6707 -2.3184
31053SOL     OW96560   4.239   5.929   4.109 -0.1884 -0.2626  0.2467
31053SOL    HW196561   4.272   5.845   4.141  1.4295  0.2172 -0.0622
31053SOL    HW296562   4.317   5.978   4.086 -1.1521  0.8676 -0.7741
31054SOL     OW96563   9.912   2.924   1.789 -0.0310 -0.0909 -0.1382
31054SOL    HW196564   9.957   3.003   1.758 -0.3619  0.2742  0.2946
31054SOL    HW296565   9.983   2.862   1.806  0.4368  0.8536  1.6076
31055SOL     OW96566   9.841   4.258   9.504  0.3191  0.5290  0.3266
31055SOL    HW196567   9.891   4.338   9.486 -1.2551  1.5988  0.5340
31055SOL    HW296568   9.848   4.207   9.423 -0.2205  1.7564 -0.5207
31056SOL     OW96569   2.938   5.408   4.970  0.1486  0.4488  0.3615
31056SOL    HW196570   2.947   5.347   5.043 -0.8106 -0.1739 -0.0210
31056SOL    HW296571   3.028   5.421   4.939  0.3938 -0.5991  0.5823
31057SOL     OW96572   0.800   2.754   2.003 -0.1219  0.6613 -0.2089
31057SOL    HW196573   0.841   2.767   2.089 -0.4974  2.0561 -0.2249
31057SOL    HW296574   0.749   2.833   1.988  1.1669  1.1603 -2.4191
31058SOL     OW96575  10.360   3.137   6.263  0.4121  0.2639 -0.5544
31058SOL    HW196576  10.349   3.050   6.301  0.7115  0.4378 -0.0653
31058SOL    HW296577  10.445   3.134   6.219  0.9774  0.6659  0.4711
31059SOL     OW96578   1.145   6.062   1.130 -0.1317  0.6771 -0.0005
31059SOL    HW196579   1.112   6.034   1.216  1.5523  0.0233  0.4630
31059SOL    HW296580   1.066   6.080   1.079 -1.1733  0.4844  1.4900
31060SOL     OW96581   7.653   1.955  10.131  0.2399  0.1133 -0.3971
31060SOL    HW196582   7.633   1.862  10.133  1.7688 -0.3652 -2.7834
31060SOL    HW296583   7.734   1.963  10.181 -0.0208  0.2248  0.0149
31061SOL     OW96584   5.368   3.069   4.738 -0.4315 -0.4178  0.2045
31061SOL    HW196585   5.417   3.043   4.660 -0.3346 -0.6240  0.3331
31061SOL    HW296586   5.357   2.987   4.787  0.9915 -0.0359  1.2465
31062SOL     OW96587   1.363   3.709   0.284  0.1839  0.2439 -0.1920
31062SOL    HW196588   1.298   3.707   0.214  0.5391 -0.9285 -0.5109
31062SOL    HW296589   1.393   3.799   0.286 -1.8660  0.9681  0.3609
31063SOL     OW96590   0.202   2.844  10.828  0.4892 -0.3847  0.3343
31063SOL    HW196591   0.292   2.843  10.860  0.0870  1.0513  1.5747
31063SOL    HW296592   0.152   2.797  10.895  0.3058 -1.3290 -0.4311
31064SOL     OW96593   0.705   0.554  10.134  0.5922 -0.1803 -0.2998
31064SOL    HW196594   0.670   0.622  10.077 -1.1693  0.3141  1.2615
31064SOL    HW296595   0.764   0.600  10.193  1.3927 -0.4598 -0.8781
31065SOL     OW96596   7.060   3.227   4.426 -0.0285 -0.0292  0.3963
31065SOL    HW196597   7.006   3.304   4.408 -1.7967 -1.6649 -1.8455
31065SOL    HW296598   7.076   3.188   4.340  4.1952 -0.1143  1.0005
31066SOL     OW96599   4.536   9.424   9.535 -0.0539 -0.3430  0.0941
31066SOL    HW196600   4.540   9.518   9.520 -0.9524 -0.3785 -0.4285
31066SOL    HW296601   4.449   9.398   9.504  0.0330 -1.2816  0.5930
31067SOL     OW96602   8.253   3.890   3.213  0.3289  0.0737 -0.1937
31067SOL    HW196603   8.223   3.805   3.181  0.9686 -0.2001 -0.0749
31067SOL    HW296604   8.191   3.912   3.283 -0.6524  0.3490 -1.1157
31068SOL     OW96605   8.169   9.153   1.265 -0.0848 -0.1566  0.0303
31068SOL    HW196606   8.154   9.243   1.294 -2.0226 -0.6679  0.7642
31068SOL    HW296607   8.260   9.152   1.235 -0.2403  2.2328 -0.7204
31069SOL     OW96608   8.693  10.073   5.550 -0.5582 -0.2131 -0.5226
31069SOL    HW196609   8.619  10.109   5.599 -0.2788  0.5588 -0.6542
31069SOL    HW296610   8.734  10.011   5.610 -1.1995 -0.5072 -0.3839
31070SOL     OW96611   9.340   1.851   2.188  0.2487  0.3570  0.1401
31070SOL    HW196612   9.424   1.871   2.147  0.7516 -0.1770  0.8917
31070SOL    HW296613   9.335   1.908   2.264  0.2254 -0.0786  0.4676
31071SOL     OW96614   9.296  10.740   1.149  0.6058  0.2857 -0.0565
31071SOL    HW196615   9.331  10.651   1.145 -0.0955  0.0433 -1.1985
31071SOL    HW296616   9.202  10.729   1.137  0.1858  1.0060  2.0920
31072SOL     OW96617   7.716   1.495   6.913 -0.1970  0.0995 -0.1597
31072SOL    HW196618   7.626   1.467   6.929 -0.3083  0.5307 -0.0045
31072SOL    HW296619   7.719   1.513   6.819 -0.4052  0.5307 -0.0862
31073SOL     OW96620   0.192   3.502   8.085 -0.0984  0.0572 -0.0758
31073SOL    HW196621   0.136   3.528   8.158 -0.2358  1.9021 -0.7707
31073SOL    HW296622   0.134   3.455   8.026 -0.2934 -0.3083  0.4020
31074SOL     OW96623   3.683   0.890   5.512 -0.0750  0.2307 -0.1947
31074SOL    HW196624   3.737   0.825   5.467 -0.5814 -0.3718  0.0638
31074SOL    HW296625   3.687   0.865   5.604 -1.2427 -0.1592 -0.2351
31075SOL     OW96626   2.645   6.310   9.942 -0.5552  0.3596 -0.1716
31075SOL    HW196627   2.736   6.338   9.949 -1.1994  2.0988  3.4849
31075SOL    HW296628   2.611   6.356   9.864  1.6390 -0.5224 -1.7397
31076SOL     OW96629   1.126   1.874   5.625 -1.0584  0.1173 -0.4007
31076SOL    HW196630   1.140   1.781   5.644 -1.7882  0.3525  1.4425
31076SOL    HW296631   1.137   1.918   5.709 -1.1555  1.6679 -1.1608
31077SOL     OW96632   2.507   5.076   0.697 -0.3718 -0.3625  0.0561
31077SOL    HW196633   2.547   5.117   0.620  2.4729  0.7102  1.9438
31077SOL    HW296634   2.513   4.982   0.679  0.6896 -0.1479 -0.8515
31078SOL     OW96635   0.792   8.217   0.852 -0.1027 -0.3196  0.3860
31078SOL    HW196636   0.763   8.300   0.892  0.3572  0.6142 -1.1349
31078SOL    HW296637   0.733   8.205   0.778  1.1889 -0.1867 -0.7044
31079SOL     OW96638   2.807   3.091   3.619 -0.6005 -0.3212  0.7162
31079SOL    HW196639   2.817   3.153   3.692  2.2505  0.6657 -0.3727
31079SOL    HW296640   2.857   3.014   3.645  1.0529  0.3216 -0.4218
31080SOL     OW96641   2.851   4.151   7.243 -0.2246 -0.0999 -0.3836
31080SOL    HW196642   2.926   4.093   7.235  0.3235  0.6976 -1.2007
31080SOL    HW296643   2.876   4.230   7.194 -1.2494  0.5192  0.0556
31081SOL     OW96644   9.294   5.154   3.021  0.5718  0.0911 -0.6109
31081SOL    HW196645   9.384   5.178   3.039  0.5426  0.6260 -1.1389
31081SOL    HW296646   9.244   5.188   3.095  0.4744  2.0908 -1.5438
31082SOL     OW96647   2.167   5.160   0.548 -0.0435  0.1035  0.2601
31082SOL    HW196648   2.079   5.122   0.549 -0.3972  0.7309 -2.2746
31082SOL    HW296649   2.199   5.145   0.460  2.0896  0.6586  0.8854
31083SOL     OW96650   1.795   7.496   8.955  0.5226  0.2604 -0.0273
31083SOL    HW196651   1.847   7.424   8.991  0.3251  0.3676  0.4798
31083SOL    HW296652   1.735   7.453   8.894  0.1782 -0.0611  0.5190
31084SOL     OW96653   4.740   4.877   0.507 -0.3796 -0.4749  0.2665
31084SOL    HW196654   4.830   4.852   0.528  0.2397  0.3311 -1.3069
31084SOL    HW296655   4.705   4.911   0.589  0.4277 -1.6617  1.1332
31085SOL     OW96656   5.684   2.173   0.362 -0.9549  0.6817 -0.3834
31085SOL    HW196657   5.744   2.244   0.345  3.5842 -3.1595 -2.7469
31085SOL    HW296658   5.726   2.121   0.430 -1.7393 -1.9423 -1.7491
31086SOL     OW96659   0.763   4.553   4.114 -0.4285  0.7257  0.3051
31086SOL    HW196660   0.745   4.496   4.188  0.6790  0.4239  0.3695
31086SOL    HW296661   0.745   4.498   4.037  0.1561  0.4379  0.3658
31087SOL     OW96662   3.990   7.748   9.012 -0.1017  0.6313  0.0157
31087SOL    HW196663   3.920   7.683   9.008  2.5247 -2.4536 -0.1577
31087SOL    HW296664   4.001   7.776   8.921 -0.1033 -0.0632 -0.2087
31088SOL     OW96665   1.618   7.783   3.019  0.3579 -0.3492 -0.4064
31088SOL    HW196666   1.579   7.792   3.106  0.5362 -0.5847 -0.3025
31088SOL    HW296667   1.619   7.689   3.003  2.0124 -0.4462  0.1059
31089SOL     OW96668   6.461   5.685   0.782  0.5102  0.1051 -0.4982
31089SOL    HW196669   6.367   5.670   0.797  0.5656  0.3982  0.1939
31089SOL    HW296670   6.467   5.716   0.692 -0.1252  0.6364 -0.3629
31090SOL     OW96671   4.106   3.141   7.534 -0.2400  0.4262  0.8309
31090SOL    HW196672   4.021   3.180   7.516 -0.4596 -0.0812  0.7575
31090SOL    HW296673   4.163   3.174   7.464 -0.8853 -0.8654 -0.3492
31091SOL     OW96674   7.233   2.833   5.216  0.1860 -0.1762  0.2447
31091SOL    HW196675   7.274   2.779   5.284  0.0007  0.7833  1.1368
31091SOL    HW296676   7.139   2.815   5.225  0.2493 -1.1930 -0.7820
31092SOL     OW96677   8.562   6.133  10.798 -0.4506  0.2152 -0.4174
31092SOL    HW196678   8.479   6.122  10.752 -1.7129  1.2957  1.4648
31092SOL    HW296679   8.551   6.213  10.850  0.9911 -0.6801  1.4117
31093SOL     OW96680  10.211   5.841  10.451  0.3355 -0.0917 -0.3961
31093SOL    HW196681  10.240   5.818  10.363  0.6326  0.0009 -0.3216
31093SOL    HW296682  10.124   5.879  10.438  0.5833  0.3803 -0.7014
31094SOL     OW96683   0.400   3.807   0.182  0.0170  0.4923  0.5529
31094SOL    HW196684   0.383   3.891   0.139  2.0365  0.1022 -1.1934
31094SOL    HW296685   0.321   3.790   0.233 -2.5071  1.1786 -2.7504
31095SOL     OW96686   0.439   0.212   8.374  0.2844 -0.0563 -0.2981
31095SOL    HW196687   0.429   0.308   8.373 -0.6110 -0.1396  0.3188
31095SOL    HW296688   0.352   0.179   8.397  0.9035 -0.9773  0.7778
31096SOL     OW96689   9.673   4.580   8.928  0.6712 -0.0592  0.3987
31096SOL    HW196690   9.687   4.584   9.023 -1.8303  0.3267  0.8204
31096SOL    HW296691   9.627   4.498   8.914  0.1027  0.3711 -0.3284
31097SOL     OW96692   1.879   1.517   5.996 -0.8277  0.0154  0.0782
31097SOL    HW196693   1.811   1.563   5.947 -0.0922  1.1693  0.1281
31097SOL    HW296694   1.948   1.581   6.009  0.1512 -1.0533  0.3129
31098SOL     OW96695   9.022   8.597  10.215  0.6264  0.3452  0.1500
31098SOL    HW196696   8.956   8.576  10.149  0.8613 -0.8282  0.2796
31098SOL    HW296697   9.105   8.593  10.168  0.8036 -0.6008  0.5345
31099SOL     OW96698   5.908  10.345   6.825  0.1585  0.2038  0.0051
31099SOL    HW196699   5.819  10.335   6.792 -0.1682  0.7577  0.6938
31099SOL    HW296700   5.945  10.257   6.821 -0.4066 -0.0237 -0.3127
31100SOL     OW96701   0.046   8.941   2.632 -0.9567 -0.4118 -0.1942
31100SOL    HW196702  -0.025   9.005   2.628 -0.5899  0.0358  0.3227
31100SOL    HW296703   0.126   8.993   2.631 -0.6429 -0.8906 -0.3406
31101SOL     OW96704   6.481   5.331   9.074 -0.3525  0.4200  0.1774
31101SOL    HW196705   6.453   5.240   9.063 -1.3951  0.7632 -0.1848
31101SOL    HW296706   6.525   5.353   8.992  1.2258 -0.1789  0.8186
31102SOL     OW96707   1.111   4.550   5.851 -0.4916  0.2449  0.5685
31102SOL    HW196708   1.099   4.456   5.867 -0.2047  0.1608  0.3097
31102SOL    HW296709   1.189   4.554   5.796 -0.6863  0.6185  0.3220
31103SOL     OW96710  10.392   0.127   0.895 -0.2055 -0.5147  0.0225
31103SOL    HW196711  10.459   0.165   0.838 -0.3648 -0.8715 -0.4055
31103SOL    HW296712  10.338   0.074   0.836 -0.3827 -0.8705  0.5019
31104SOL     OW96713   2.906   3.951   1.527 -0.3239  0.6302 -0.2717
31104SOL    HW196714   2.902   3.986   1.616  2.4614  1.3281 -0.3362
31104SOL    HW296715   2.916   3.857   1.538  0.7378  0.7872  0.2066
31105SOL     OW96716  10.124   2.985   5.936  0.4740  0.4507  0.4058
31105SOL    HW196717  10.091   2.968   5.848 -2.3652  1.6466  1.1303
31105SOL    HW296718  10.125   2.900   5.979 -3.3496  0.4457  0.7801
31106SOL     OW96719   0.646   0.587   7.023 -0.0605 -0.3941 -0.2320
31106SOL    HW196720   0.695   0.651   7.074  1.7773 -0.8742 -1.3108
31106SOL    HW296721   0.572   0.636   6.988 -2.0659 -0.2643  3.6440
31107SOL     OW96722   2.399   9.850  10.243  0.1714  0.2731  0.4585
31107SOL    HW196723   2.370   9.855  10.334  0.2559  0.6820  0.4655
31107SOL    HW296724   2.468   9.916  10.236  0.7086 -0.2977  0.2929
31108SOL     OW96725  10.351   8.374   5.365  0.5056 -0.4860  0.1174
31108SOL    HW196726  10.317   8.365   5.454  0.9008  0.1804  0.3460
31108SOL    HW296727  10.279   8.345   5.309 -0.4674  0.8712  0.5908
31109SOL     OW96728   4.419   1.101   3.122 -0.1554  0.7539  0.4786
31109SOL    HW196729   4.323   1.101   3.123 -0.1925  0.3795 -0.8913
31109SOL    HW296730   4.442   1.053   3.043  1.2210 -1.4983  2.1210
31110SOL     OW96731   8.405   6.282   9.503  0.1127 -0.1943 -0.0709
31110SOL    HW196732   8.349   6.323   9.569  0.4478 -0.7022  0.5309
31110SOL    HW296733   8.354   6.207   9.472  0.6842 -1.0230  0.9178
31111SOL     OW96734  10.150   6.904   1.689 -0.2084  0.4384  0.0158
31111SOL    HW196735  10.174   6.874   1.777 -0.2257 -0.4054 -0.2626
31111SOL    HW296736  10.207   6.855   1.630  1.7502  2.9395 -0.3647
31112SOL     OW96737   3.324   3.099   0.453 -0.2084 -0.5360 -0.4965
31112SOL    HW196738   3.277   3.028   0.496 -1.3263  0.2673 -0.3343
31112SOL    HW296739   3.417   3.076   0.462 -0.4445 -0.8950  1.4508
31113SOL     OW96740   4.486   1.153   4.472 -0.4661  0.0194  0.0848
31113SOL    HW196741   4.433   1.084   4.513 -2.4181  0.5790 -1.3889
31113SOL    HW296742   4.492   1.127   4.380  1.6539  0.1225  0.1499
31114SOL     OW96743   9.652  10.277   2.143 -0.1833 -0.1787 -0.0090
31114SOL    HW196744   9.677  10.290   2.234  0.5505  1.5261 -0.4113
31114SOL    HW296745   9.601  10.355   2.120  2.5430  1.2022 -1.9667
31115SOL     OW96746   0.524   1.710   8.822  0.4981  0.1549  0.0945
31115SOL    HW196747   0.493   1.724   8.912 -1.9286 -1.7985 -0.3184
31115SOL    HW296748   0.452   1.739   8.767  1.0939 -0.5961 -1.1325
31116SOL     OW96749  10.139   8.949  10.733  0.3938  0.1004 -0.1322
31116SOL    HW196750  10.113   8.967  10.642  0.9409  1.0079 -0.1183
31116SOL    HW296751  10.212   8.887  10.724  0.0935 -0.2361 -0.2829
31117SOL     OW96752   3.825   5.496   1.442  0.2681 -0.5088 -0.0397
31117SOL    HW196753   3.893   5.564   1.443  1.1992 -1.4032 -0.1049
31117SOL    HW296754   3.743   5.544   1.440  0.8772  0.7158 -3.3550
31118SOL     OW96755   2.755   4.275   4.462  0.2414  0.5136  0.3873
31118SOL    HW196756   2.752   4.212   4.390 -0.2741 -0.6603  1.4059
31118SOL    HW296757   2.717   4.355   4.425  0.8056  0.2171 -0.8989
31119SOL     OW96758   4.570   8.949   4.310 -0.2064 -0.3441 -0.0744
31119SOL    HW196759   4.627   8.996   4.249  1.3588 -0.5924  1.1182
31119SOL    HW296760   4.553   9.012   4.381 -3.6090  0.6306 -1.5500
31120SOL     OW96761  10.559   1.948  10.568  0.2832 -0.0503 -0.2211
31120SOL    HW196762  10.522   2.023  10.521  0.9325 -0.0732 -0.7836
31120SOL    HW296763  10.589   1.889  10.500  3.4624  0.9946  0.1177
31121SOL     OW96764   4.317   5.887   1.435 -0.0580  0.2126 -0.8082
31121SOL    HW196765   4.283   5.839   1.359 -1.0676  1.6155 -1.2838
31121SOL    HW296766   4.318   5.978   1.407  1.3431  0.5575  0.2451
31122SOL     OW96767   8.558   0.330   2.740  0.1921 -0.6617  0.2758
31122SOL    HW196768   8.488   0.318   2.675  1.4793 -2.1921 -0.9266
31122SOL    HW296769   8.637   0.342   2.688  1.0635 -0.4835  1.5930
31123SOL     OW96770   1.982   5.139   6.259 -0.0249  0.2185  0.4545
31123SOL    HW196771   2.056   5.200   6.255 -0.4735  0.7071 -2.2081
31123SOL    HW296772   1.905   5.194   6.272 -0.1831 -0.0600  0.7378
31124SOL     OW96773   3.846   3.393   8.966 -0.0301  0.1293  0.0299
31124SOL    HW196774   3.758   3.423   8.947  0.4062  1.1031 -0.5357
31124SOL    HW296775   3.836   3.335   9.041 -1.3043 -0.7614 -0.7967
31125SOL     OW96776   2.827  10.518   3.509 -0.5258  0.0675 -0.2955
31125SOL    HW196777   2.903  10.565   3.475  0.1605  0.2880  1.4305
31125SOL    HW296778   2.764  10.587   3.532  0.2546  0.1835  1.7016
31126SOL     OW96779   3.512   5.261  10.569  0.1283 -0.0872 -0.0049
31126SOL    HW196780   3.438   5.226  10.618 -2.9079  0.3971 -3.7674
31126SOL    HW296781   3.537   5.340  10.617 -0.2830 -1.4331  2.5568
31127SOL     OW96782   9.951   1.038   5.213 -0.5910  0.1520 -0.6948
31127SOL    HW196783   9.990   0.974   5.153  1.5600  0.7091  0.0185
31127SOL    HW296784   9.902   1.097   5.156 -0.0981 -0.3829 -1.7031
31128SOL     OW96785   6.238   1.461   4.559  0.2125  0.1482  0.1545
31128SOL    HW196786   6.310   1.405   4.531  0.9867  0.9459  0.5277
31128SOL    HW296787   6.185   1.473   4.480 -2.2984 -4.3609  0.8252
31129SOL     OW96788   9.884   8.677  10.180  0.6513 -0.6770  0.1041
31129SOL    HW196789   9.810   8.616  10.177 -0.7071  0.8341  0.7598
31129SOL    HW296790   9.865   8.741  10.111  1.0931 -0.0203  0.5770
31130SOL     OW96791   3.908   8.232   3.721  0.8936 -0.5626 -0.5116
31130SOL    HW196792   3.918   8.281   3.802 -1.5233 -0.7236 -0.0231
31130SOL    HW296793   3.983   8.173   3.718  0.6753 -1.0594  1.9933
31131SOL     OW96794   0.333   6.184   1.718 -1.0605  0.1566  0.7943
31131SOL    HW196795   0.256   6.136   1.748 -0.5904 -0.6805  0.6742
31131SOL    HW296796   0.403   6.119   1.715  0.0585  1.2032  2.4205
31132SOL     OW96797   9.043   3.160   7.190 -0.4154  0.2164 -0.2726
31132SOL    HW196798   9.115   3.217   7.217 -1.8397  1.6925  0.5066
31132SOL    HW296799   9.009   3.123   7.271 -0.3641 -0.7538 -0.6691
31133SOL     OW96800   5.905   8.916   0.299 -0.7118  0.3317  0.2761
31133SOL    HW196801   5.903   8.832   0.345 -2.1411 -0.4214 -1.0734
31133SOL    HW296802   5.991   8.917   0.256 -0.4194 -0.1381  0.8377
31134SOL     OW96803   5.812   7.816   6.719  0.5709  0.3889 -0.7121
31134SOL    HW196804   5.750   7.872   6.765  0.8430  0.1904 -0.0945
31134SOL    HW296805   5.778   7.811   6.630 -0.7553 -0.3746 -0.1875
31135SOL     OW96806   5.868   7.424   3.722  0.2772  0.5673 -0.2482
31135SOL    HW196807   5.881   7.502   3.776  0.2223 -0.0306  0.6679
31135SOL    HW296808   5.844   7.457   3.636 -1.0151  1.5617  0.4556
31136SOL     OW96809   5.152   6.596   0.293 -0.0845  0.0343 -0.1726
31136SOL    HW196810   5.149   6.683   0.333 -1.2090  0.2636 -0.7046
31136SOL    HW296811   5.167   6.614   0.200 -0.6765 -0.3276 -0.3364
31137SOL     OW96812   8.098   7.210   1.915 -0.2399  0.2725 -0.1892
31137SOL    HW196813   8.117   7.173   1.829  0.0789  1.3412 -0.5948
31137SOL    HW296814   8.021   7.162   1.946  0.0612 -0.5941 -0.7652
31138SOL     OW96815   2.791   0.696   5.597  0.2590 -0.2443  0.5567
31138SOL    HW196816   2.716   0.754   5.608 -1.2623 -1.6429 -1.7901
31138SOL    HW296817   2.760   0.610   5.625  1.2405 -0.6958  0.3236
31139SOL     OW96818   3.859   8.974   9.209 -0.1716 -0.0592  0.6797
31139SOL    HW196819   3.924   8.965   9.280 -1.5012 -1.3467  1.8082
31139SOL    HW296820   3.829   9.064   9.216  2.6440  1.1513 -0.9800
31140SOL     OW96821   1.664   1.413   3.952 -0.0773  0.3067 -0.3659
31140SOL    HW196822   1.673   1.318   3.959  2.1781  0.5313  1.2219
31140SOL    HW296823   1.724   1.437   3.882 -0.3907  0.5800 -0.5391
31141SOL     OW96824   2.127   7.420   1.823  0.4374 -0.4568  0.2322
31141SOL    HW196825   2.221   7.424   1.844  0.8376  1.1068 -1.5856
31141SOL    HW296826   2.114   7.331   1.791  1.8758 -0.0347 -1.6934
31142SOL     OW96827   3.268   1.744   5.859 -0.4068 -0.6944  0.1497
31142SOL    HW196828   3.320   1.781   5.788 -0.0048 -0.9488  0.3103
31142SOL    HW296829   3.236   1.820   5.908 -1.7122 -0.4626 -1.0091
31143SOL     OW96830   3.112   3.023   5.097 -0.1853 -1.0154 -0.3692
31143SOL    HW196831   3.068   3.090   5.044 -0.0501 -0.2771  0.4406
31143SOL    HW296832   3.165   2.974   5.034  0.1352 -0.0179 -0.8906
31144SOL     OW96833   3.487   0.729   1.127 -0.2150  0.0735 -0.4060
31144SOL    HW196834   3.452   0.817   1.118 -0.4698  0.0299  0.0917
31144SOL    HW296835   3.543   0.716   1.050 -0.2439  0.6342 -0.5197
31145SOL     OW96836   5.994   8.085  10.155 -0.7675 -0.1366 -0.0420
31145SOL    HW196837   5.955   8.172  10.166 -1.7349 -0.4916 -0.5389
31145SOL    HW296838   6.045   8.071  10.235  0.0675  1.2188 -0.3142
31146SOL     OW96839   8.277   9.720   9.368  0.6171  0.0948 -0.0684
31146SOL    HW196840   8.237   9.718   9.455 -1.6383 -0.9194 -1.0582
31146SOL    HW296841   8.257   9.807   9.334 -0.9563 -0.4416 -0.5975
31147SOL     OW96842   2.624   5.857   5.041 -0.2605  0.4460 -0.2755
31147SOL    HW196843   2.673   5.802   4.980  0.5014 -1.1930  1.6863
31147SOL    HW296844   2.537   5.866   5.001  0.4820  0.2711 -2.0231
31148SOL     OW96845   8.015  10.001   1.195  0.1712  0.5336 -0.0928
31148SOL    HW196846   7.933  10.002   1.245 -0.2400 -0.9993 -0.6666
31148SOL    HW296847   8.082   9.977   1.259 -0.2744 -0.9233 -0.1394
31149SOL     OW96848   4.698   4.618   4.125  0.0530 -0.1566 -0.0703
31149SOL    HW196849   4.616   4.618   4.174  0.1969 -2.1717  0.2430
31149SOL    HW296850   4.671   4.632   4.034 -0.4430  0.9951  0.2334
31150SOL     OW96851   4.796   9.110   9.084 -0.1164 -0.1180  0.1161
31150SOL    HW196852   4.817   9.030   9.131  0.4503 -0.0181  0.0381
31150SOL    HW296853   4.701   9.109   9.076 -0.0434 -1.4179 -0.9935
31151SOL     OW96854   2.683   6.402   1.563  0.3235  0.3481 -0.1346
31151SOL    HW196855   2.734   6.477   1.532  0.6039  0.1720 -0.1058
31151SOL    HW296856   2.677   6.414   1.658  0.0428  0.5328 -0.1751
31152SOL     OW96857   2.919   5.339   6.935  0.0369  0.2398 -0.1468
31152SOL    HW196858   2.970   5.418   6.953  0.3055 -0.1114  0.6996
31152SOL    HW296859   2.942   5.279   7.007 -1.1917 -0.1045 -0.0256
31153SOL     OW96860   3.488   6.800   4.821 -0.3948  0.2390 -0.1726
31153SOL    HW196861   3.527   6.872   4.871 -0.9124 -0.6886  1.6637
31153SOL    HW296862   3.507   6.722   4.873 -0.7887 -0.8099 -1.5680
31154SOL     OW96863   5.895   2.566   6.808 -0.1076  0.7772 -0.6162
31154SOL    HW196864   5.867   2.629   6.873  0.2767 -0.0825  0.4259
31154SOL    HW296865   5.986   2.590   6.788  0.2042  0.2721  0.1563
31155SOL     OW96866   6.617   5.161   4.583  0.6646 -0.0390 -0.9401
31155SOL    HW196867   6.634   5.229   4.518  2.6355  0.4028 -0.0259
31155SOL    HW296868   6.526   5.137   4.569 -0.9431  4.3614  0.1033
31156SOL     OW96869   7.678   0.545   8.671 -0.3095  0.0476  0.0535
31156SOL    HW196870   7.671   0.458   8.634 -2.2454 -0.1122  0.6839
31156SOL    HW296871   7.645   0.603   8.603 -1.9545 -0.0532  0.7154
31157SOL     OW96872   9.593   1.926   2.096 -0.4600  0.0168  0.4973
31157SOL    HW196873   9.582   2.012   2.054 -0.4520  0.6998  1.8533
31157SOL    HW296874   9.638   1.874   2.030 -3.3460 -0.0158 -1.6810
31158SOL     OW96875   4.594   2.396   8.576 -0.3356 -0.3603 -0.0843
31158SOL    HW196876   4.660   2.354   8.630  0.3674  1.0352  0.1866
31158SOL    HW296877   4.562   2.327   8.518  1.0741 -1.1550  0.0517
31159SOL     OW96878   0.342   0.531   1.299  0.4865  0.7297  0.0450
31159SOL    HW196879   0.334   0.491   1.212  0.2401 -0.5307  0.6174
31159SOL    HW296880   0.255   0.567   1.316  0.4583  0.7460 -0.1261
31160SOL     OW96881   0.180   9.274   5.601  0.8825 -0.0009 -0.2335
31160SOL    HW196882   0.134   9.281   5.517 -0.1630 -1.3520  0.1912
31160SOL    HW296883   0.199   9.180   5.610  2.9507  0.3930  0.0452
31161SOL     OW96884   4.748   6.734   2.083 -0.0468  0.3112  0.0716
31161SOL    HW196885   4.775   6.735   1.991 -3.5544  0.1027 -1.1427
31161SOL    HW296886   4.784   6.653   2.118  0.0805 -0.4010 -1.5925
31162SOL     OW96887   4.497   8.008   8.363 -0.0400  0.6718 -0.1048
31162SOL    HW196888   4.563   8.077   8.366 -0.5260  1.2517 -1.7770
31162SOL    HW296889   4.529   7.942   8.425  1.2996  1.6243  0.2677
31163SOL     OW96890   8.180   2.918   3.941 -0.0483  0.2304 -0.2881
31163SOL    HW196891   8.115   2.910   3.871  0.5942  2.5161 -1.2477
31163SOL    HW296892   8.208   2.829   3.958 -2.1832 -0.6460 -1.0472
31164SOL     OW96893   4.281   6.845   3.024  0.8583  0.1920  1.0963
31164SOL    HW196894   4.331   6.807   2.952 -1.4102 -0.4536 -0.2211
31164SOL    HW296895   4.310   6.797   3.102 -0.3327 -2.8427 -0.1849
31165SOL     OW96896   7.992   8.706   1.508  0.5697  0.4462  0.4315
31165SOL    HW196897   8.030   8.784   1.468  1.0603 -0.9903 -2.1581
31165SOL    HW296898   7.898   8.713   1.490  0.6808  0.2154 -0.2742
31166SOL     OW96899   5.466   9.012   3.867  0.1592  0.3967 -0.5414
31166SOL    HW196900   5.389   9.044   3.819 -1.2719 -0.2320  1.2438
31166SOL    HW296901   5.540   9.028   3.807 -1.3747  0.7414 -2.4353
31167SOL     OW96902   2.576   5.663   1.185 -0.1266 -0.3093 -0.5592
31167SOL    HW196903   2.625   5.585   1.211  0.1198  0.2429  0.7200
31167SOL    HW296904   2.508   5.672   1.252 -0.5270  0.2385 -1.0313
31168SOL     OW96905   8.090   5.643   9.536 -0.8007 -0.3183 -0.2591
31168SOL    HW196906   8.019   5.701   9.564 -0.4309  0.0954 -0.1873
31168SOL    HW296907   8.093   5.652   9.441 -1.1613 -0.7047 -0.3117
31169SOL     OW96908   3.701   2.148   9.949 -0.0621 -0.2441 -0.3529
31169SOL    HW196909   3.610   2.119   9.956 -0.4636  0.4302 -2.2061
31169SOL    HW296910   3.735   2.104   9.872  0.5045  1.1180 -0.9226
31170SOL     OW96911   0.860   6.775   6.601 -0.5087  0.6721 -0.5239
31170SOL    HW196912   0.854   6.682   6.578 -2.2563  0.6814 -0.2609
31170SOL    HW296913   0.830   6.779   6.692  1.5724  1.2550  0.1872
31171SOL     OW96914   3.107   9.401   6.974  0.0214 -0.3592 -0.7116
31171SOL    HW196915   3.159   9.356   6.907 -1.1226 -0.7610 -1.3628
31171SOL    HW296916   3.021   9.413   6.934 -1.2409 -2.1341  1.2514
31172SOL     OW96917   8.104   3.405   3.408  0.1012  0.6966  0.5886
31172SOL    HW196918   8.072   3.473   3.349 -2.7407 -0.0718  1.1167
31172SOL    HW296919   8.128   3.332   3.351 -0.5908  0.7205  0.2681
31173SOL     OW96920   6.118   3.169   6.729 -0.8127 -0.2160 -0.0382
31173SOL    HW196921   6.052   3.110   6.765  0.5154 -1.7576 -0.0383
31173SOL    HW296922   6.141   3.225   6.803 -0.5223 -1.1500  0.6003
31174SOL     OW96923   1.127   7.275   8.879  0.0851  0.2800 -0.2720
31174SOL    HW196924   1.219   7.298   8.884  0.3173 -0.7163  0.4529
31174SOL    HW296925   1.127   7.182   8.854 -0.5473 -0.7899  3.1429
31175SOL     OW96926   2.830   4.046   4.612  0.1123 -0.1608 -0.4424
31175SOL    HW196927   2.887   3.997   4.553  0.7640  1.3441 -1.1201
31175SOL    HW296928   2.788   4.111   4.555  0.9265  1.4710  0.7530
31176SOL     OW96929   5.172   5.424   1.939  0.0159  0.0624  0.3180
31176SOL    HW196930   5.162   5.488   2.010  0.0350 -0.4024  0.7439
31176SOL    HW296931   5.098   5.365   1.949  0.0110  0.0001 -0.0624
31177SOL     OW96932   6.926   0.663   7.476 -0.1988  0.4064  0.0232
31177SOL    HW196933   6.838   0.665   7.438  0.0313  1.1196 -0.5074
31177SOL    HW296934   6.913   0.676   7.570 -0.6786  0.1467 -0.0061
31178SOL     OW96935   4.537   5.380   3.870 -0.3707  0.0186 -0.0571
31178SOL    HW196936   4.533   5.351   3.779  2.3906  0.2832 -0.3612
31178SOL    HW296937   4.608   5.328   3.909  0.1950  1.6637  1.2263
31179SOL     OW96938  10.002   1.418  10.270  0.0884 -0.3617 -0.3095
31179SOL    HW196939  10.036   1.507  10.258 -1.3359  0.4103  0.9716
31179SOL    HW296940  10.071   1.372  10.318  1.1827 -0.2120 -1.6937
31180SOL     OW96941   7.540   0.354   2.464 -0.0695  0.7039  0.8154
31180SOL    HW196942   7.512   0.312   2.383  0.3175  0.4889  0.7910
31180SOL    HW296943   7.596   0.427   2.435  0.5707  0.2592  0.8950
31181SOL     OW96944   0.169   0.625   6.636  0.2750  0.0193  0.0814
31181SOL    HW196945   0.081   0.619   6.599  0.3991 -0.2766 -0.1597
31181SOL    HW296946   0.196   0.534   6.650 -0.2895  0.1069  2.1279
31182SOL     OW96947   4.748   0.681   6.309  0.3096  0.1630  0.3953
31182SOL    HW196948   4.709   0.730   6.381  0.0606 -1.6995  1.5891
31182SOL    HW296949   4.825   0.639   6.347  0.7619 -0.0621 -0.7051
31183SOL     OW96950  10.315  10.147   4.407 -0.0465 -0.1506 -0.5202
31183SOL    HW196951  10.396  10.191   4.435 -0.5586  0.7813 -0.4651
31183SOL    HW296952  10.345  10.062   4.373  0.9557  0.1885 -0.5323
31184SOL     OW96953   1.700   7.002   4.463  0.0343 -0.0584 -0.4898
31184SOL    HW196954   1.704   7.097   4.452  0.7370  0.5853  3.6428
31184SOL    HW296955   1.704   6.967   4.374 -0.5347  3.7420 -2.1947
31185SOL     OW96956  10.504   1.410   5.115 -0.4003 -0.1764  0.5244
31185SOL    HW196957  10.532   1.325   5.148 -0.0787  0.0677  0.8912
31185SOL    HW296958  10.434   1.390   5.053 -1.2030 -0.6325  1.5417
31186SOL     OW96959   3.996   6.556   7.818  0.4419  0.3061  0.2111
31186SOL    HW196960   3.955   6.518   7.740  0.2286  0.2358  0.3544
31186SOL    HW296961   4.089   6.539   7.807  0.8039  2.7483 -1.4030
31187SOL     OW96962   0.877   6.510   2.341 -0.4185  0.1875  0.1851
31187SOL    HW196963   0.792   6.542   2.311 -0.2305 -1.0162 -1.7808
31187SOL    HW296964   0.921   6.479   2.262 -0.0522 -3.6110  1.6438
31188SOL     OW96965   2.504   3.191   9.212 -0.5631 -0.6627 -0.2044
31188SOL    HW196966   2.439   3.168   9.279 -0.3959  2.3520  1.1257
31188SOL    HW296967   2.588   3.162   9.250 -0.3632  1.7347  1.4065
31189SOL     OW96968   8.862   0.386   3.166  0.4172 -0.2487  0.0795
31189SOL    HW196969   8.835   0.329   3.238  0.6360 -0.7565 -0.2338
31189SOL    HW296970   8.785   0.439   3.147  1.0073  1.5423  2.2047
31190SOL     OW96971   7.895   4.599  10.570 -0.5700  0.5822  0.0943
31190SOL    HW196972   7.819   4.649  10.541 -1.7729 -1.9430 -1.3754
31190SOL    HW296973   7.928   4.556  10.491  0.6856 -0.5850  1.1959
31191SOL     OW96974   2.820   4.827   5.844 -0.1499 -0.3123 -0.1845
31191SOL    HW196975   2.896   4.785   5.804 -0.3339  0.3574 -1.2797
31191SOL    HW296976   2.852   4.863   5.926  1.0272  1.0085 -1.1957
31192SOL     OW96977   2.043   9.268   2.565 -0.3158 -0.1976  0.3073
31192SOL    HW196978   1.996   9.335   2.614 -1.0819  0.3348 -1.0884
31192SOL    HW296979   2.054   9.195   2.627 -3.2266 -0.4646  0.6439
31193SOL     OW96980   1.546   9.726   5.203  0.1013  0.1624  0.3192
31193SOL    HW196981   1.618   9.782   5.231  0.7974 -0.4385 -0.2631
31193SOL    HW296982   1.565   9.641   5.243 -0.2254 -0.0281  0.0739
31194SOL     OW96983   8.813   8.464   3.997  0.0644  0.3001 -0.6383
31194SOL    HW196984   8.736   8.441   3.944 -0.0250  2.5733 -1.5909
31194SOL    HW296985   8.800   8.556   4.020  0.1502 -0.5316  3.4073
31195SOL     OW96986   3.910   7.501   6.289 -0.6392  0.4671 -0.0003
31195SOL    HW196987   3.861   7.444   6.230 -0.7067  0.3259  0.1914
31195SOL    HW296988   3.972   7.547   6.232 -0.5897  0.2091 -0.1569
31196SOL     OW96989   0.279   0.932   5.091  0.1430  0.2321 -0.4019
31196SOL    HW196990   0.365   0.892   5.104  0.7554  1.4649 -0.6033
31196SOL    HW296991   0.297   1.019   5.056 -1.1485  0.8508  0.3892
31197SOL     OW96992   6.737   1.218   4.589  0.2242  0.6959 -0.4183
31197SOL    HW196993   6.679   1.214   4.664 -0.6877  2.9492 -0.9080
31197SOL    HW296994   6.729   1.132   4.547 -0.4861 -0.0312  1.1415
31198SOL     OW96995   3.805   9.222   6.679  0.0506 -0.2983 -0.0137
31198SOL    HW196996   3.810   9.128   6.697  2.7862 -0.1342  0.5524
31198SOL    HW296997   3.851   9.233   6.596 -0.7853  0.4806 -0.3865
31199SOL     OW96998   4.784   3.962   1.424 -0.7198  0.2368  0.0145
31199SOL    HW196999   4.857   3.952   1.485 -1.8234 -0.9282  1.2028
31199SOL    HW297000   4.799   3.896   1.356  0.2335  1.1841 -0.7236
31200SOL     OW97001   5.450   9.784   9.079 -0.2129  0.0953  0.1975
31200SOL    HW197002   5.475   9.797   8.988 -1.8622  1.0272 -0.1644
31200SOL    HW297003   5.478   9.695   9.100 -1.1820 -0.7026 -1.6978
31201SOL     OW97004   2.143  10.599   1.919  1.1393 -0.5910 -0.0580
31201SOL    HW197005   2.176  10.667   1.861  2.7849 -0.7446  0.6433
31201SOL    HW297006   2.137  10.521   1.864 -0.1355 -0.0645 -0.7038
31202SOL     OW97007   7.704  10.915  10.383 -0.1868 -0.1555  0.5787
31202SOL    HW197008   7.670  10.827  10.369  2.7307 -1.3288  0.1713
31202SOL    HW297009   7.755  10.908  10.464 -0.2781  1.3124  0.7961
31203SOL     OW97010   5.256   7.063   5.897  0.2015  0.2555  0.1101
31203SOL    HW197011   5.264   6.970   5.875 -1.2921 -0.1268  1.0016
31203SOL    HW297012   5.177   7.092   5.852  1.4993  1.5693 -1.4765
31204SOL     OW97013   9.584   1.000   7.132  0.2281  0.2654 -0.2603
31204SOL    HW197014   9.643   1.068   7.166  0.1811  0.2903 -0.2281
31204SOL    HW297015   9.638   0.950   7.071  1.2273 -1.6411  2.0043
31205SOL     OW97016   5.976   6.442   9.859 -0.2917 -0.3850  0.1905
31205SOL    HW197017   6.024   6.383   9.802 -1.3388 -1.7319  0.6611
31205SOL    HW297018   6.044   6.484   9.912  0.5216 -0.6061 -0.6487
31206SOL     OW97019   7.092   0.235   1.373  0.6446  0.2802  0.3898
31206SOL    HW197020   6.999   0.243   1.392  0.7387 -0.7140  1.3698
31206SOL    HW297021   7.123   0.165   1.430  1.8936  0.2331 -0.2923
31207SOL     OW97022   6.902   4.639   3.930 -0.1248  0.5248 -0.3994
31207SOL    HW197023   6.946   4.554   3.935 -1.1402  0.0543  1.7884
31207SOL    HW297024   6.809   4.618   3.945 -1.1971  1.4972 -4.5319
31208SOL     OW97025   4.401  10.748   8.625 -0.1507 -0.4561 -0.1185
31208SOL    HW197026   4.423  10.758   8.718 -2.2857 -1.0142  0.4857
31208SOL    HW297027   4.422  10.834   8.587  0.8724 -0.2601  0.8205
31209SOL     OW97028   6.843   1.942   1.025 -0.2636 -0.3109 -0.3022
31209SOL    HW197029   6.884   1.879   1.084  0.5299  0.0107 -0.4989
31209SOL    HW297030   6.749   1.936   1.045  0.0222  0.1285  1.3373
31210SOL     OW97031   4.734   5.707   4.818  0.4241 -0.0503  0.4776
31210SOL    HW197032   4.669   5.669   4.759 -0.2483  0.7194  0.7013
31210SOL    HW297033   4.785   5.633   4.849 -0.1744 -0.6351  0.0805
31211SOL     OW97034   7.244   6.353   2.397 -0.6294 -0.0910  0.1271
31211SOL    HW197035   7.330   6.392   2.408 -0.3971 -0.3469 -0.7564
31211SOL    HW297036   7.188   6.424   2.367 -0.9081  0.2458  1.3833
31212SOL     OW97037   5.067   6.815   0.670  0.2517  0.0606  0.8219
31212SOL    HW197038   5.134   6.817   0.738 -0.0806 -0.1260  1.1616
31212SOL    HW297039   5.099   6.875   0.603  1.1661 -0.6708  0.5864
31213SOL     OW97040   9.615   8.192   3.062 -0.1860 -0.4627  0.2241
31213SOL    HW197041   9.668   8.262   3.024  0.5705 -1.1211  0.0412
31213SOL    HW297042   9.625   8.119   3.001 -2.3272 -0.2162 -0.4773
31214SOL     OW97043  10.107   8.459   6.446 -0.0744 -0.2964 -0.3649
31214SOL    HW197044  10.173   8.529   6.442 -0.2675 -0.0961 -0.0783
31214SOL    HW297045  10.026   8.501   6.419 -0.4742 -0.0452  1.1093
31215SOL     OW97046   9.926   6.410   5.209  0.2573  0.0905  0.0217
31215SOL    HW197047   9.880   6.326   5.210 -2.4055  1.4430  0.9206
31215SOL    HW297048   9.917   6.443   5.298 -1.0143  2.4353 -0.9060
31216SOL     OW97049   1.490   2.602   6.004  0.2686 -0.3012 -0.1977
31216SOL    HW197050   1.546   2.566   5.935  0.9738  0.2053  0.0967
31216SOL    HW297051   1.509   2.547   6.080 -1.0315 -1.3139 -0.5588
31217SOL     OW97052   9.511   6.446   7.882  0.4096 -0.1446  0.1707
31217SOL    HW197053   9.458   6.370   7.858 -1.2854  0.7943  0.7677
31217SOL    HW297054   9.560   6.418   7.959 -0.0071 -0.7173  0.2326
31218SOL     OW97055   8.683   1.860   3.978 -0.2520 -0.2909 -0.2401
31218SOL    HW197056   8.718   1.932   3.924  0.4803 -0.3195  0.1782
31218SOL    HW297057   8.661   1.792   3.914  2.0449 -0.9338 -0.4527
31219SOL     OW97058   9.147   0.414   8.359 -0.5968  0.0625 -0.0785
31219SOL    HW197059   9.103   0.481   8.411  0.3946  1.4636 -0.9692
31219SOL    HW297060   9.233   0.452   8.340  0.4551 -1.9788  0.4050
31220SOL     OW97061   0.655   8.424   0.958  0.6795 -0.5971  0.0994
31220SOL    HW197062   0.711   8.417   1.036  0.7280 -2.2879 -0.0431
31220SOL    HW297063   0.689   8.499   0.910  0.2939  0.8334  1.9741
31221SOL     OW97064   6.119   6.665   0.443  0.1314 -0.6042 -0.5100
31221SOL    HW197065   6.055   6.694   0.507 -0.3686 -1.1665 -0.7441
31221SOL    HW297066   6.070   6.608   0.384  0.4457  0.3608 -1.7404
31222SOL     OW97067   4.008   8.875   9.979 -0.4189 -0.6130  0.2921
31222SOL    HW197068   4.013   8.853  10.072  1.6163  0.2152  0.4411
31222SOL    HW297069   3.926   8.922   9.969 -0.5998 -0.5949  1.6879
31223SOL     OW97070   4.888   8.086  10.058 -0.7627  0.1183  0.1674
31223SOL    HW197071   4.798   8.110  10.038 -0.9203 -1.3220 -1.0417
31223SOL    HW297072   4.933   8.088   9.974  0.0742 -0.1900  0.5969
31224SOL     OW97073   8.452   7.971   9.150 -0.2972  0.5045  0.2090
31224SOL    HW197074   8.413   8.046   9.194 -0.8970  1.4197 -1.7615
31224SOL    HW297075   8.400   7.960   9.071  1.9390  0.2838 -1.3436
31225SOL     OW97076   0.622   9.479   2.321  0.1773 -0.3227  0.4951
31225SOL    HW197077   0.691   9.541   2.347  0.2814 -0.3959  0.3918
31225SOL    HW297078   0.542   9.517   2.357  0.3272 -0.4468  0.9723
31226SOL     OW97079  10.633   8.621   5.930 -0.1787 -0.5515 -0.0806
31226SOL    HW197080  10.647   8.560   5.857  2.6755  0.2453 -0.3359
31226SOL    HW297081  10.686   8.585   6.002 -1.7999 -0.5498  1.1642
31227SOL     OW97082   0.161   6.912   1.676 -0.0732  0.0966  0.7406
31227SOL    HW197083   0.200   6.852   1.612 -1.1524 -0.7835  0.8795
31227SOL    HW297084   0.235   6.940   1.731  0.5165 -0.8004  0.4241
31228SOL     OW97085   0.905   6.631   1.205 -0.0778 -0.0823 -0.3472
31228SOL    HW197086   0.825   6.628   1.258  0.0757 -2.9141 -0.1294
31228SOL    HW297087   0.975   6.641   1.269 -0.0863 -0.2699 -0.3094
31229SOL     OW97088   7.429   4.518   4.027 -0.5364  0.3314  0.4743
31229SOL    HW197089   7.412   4.472   3.945 -0.0662  1.4247 -0.2680
31229SOL    HW297090   7.384   4.602   4.017 -0.4800  0.4681  1.3341
31230SOL     OW97091   7.153   5.123   4.045  0.7163 -0.3704  0.3357
31230SOL    HW197092   7.142   5.115   3.950 -0.3825  0.6961  0.3476
31230SOL    HW297093   7.064   5.116   4.079  0.9851  0.3785  1.2044
31231SOL     OW97094   1.782   8.166   0.226  0.4516  0.4466  0.5410
31231SOL    HW197095   1.767   8.071   0.232  0.8994  0.3339 -0.0254
31231SOL    HW297096   1.853   8.175   0.163 -1.1902  1.3074 -1.2853
31232SOL     OW97097   4.429   5.741   7.005 -0.2166 -0.7827  0.0764
31232SOL    HW197098   4.496   5.755   7.072 -1.2155  0.1730  0.9089
31232SOL    HW297099   4.359   5.695   7.051 -0.8662 -0.2133 -0.3332
31233SOL     OW97100   3.481   4.987   8.915 -0.2141 -0.3089  0.1191
31233SOL    HW197101   3.387   4.971   8.905  0.2696 -2.4796 -2.1299
31233SOL    HW297102   3.503   5.046   8.843  0.3513 -0.8988 -0.1997
31234SOL     OW97103   4.835   5.001   5.203  0.0170  0.2957 -0.4339
31234SOL    HW197104   4.857   4.971   5.291 -0.2169 -0.5454 -0.6573
31234SOL    HW297105   4.847   4.924   5.147 -0.4172  0.6607 -1.0478
31235SOL     OW97106   9.995   6.120   5.350  0.3387  0.7811 -0.0224
31235SOL    HW197107  10.037   6.068   5.418 -2.0163 -2.8224 -1.0215
31235SOL    HW297108  10.035   6.090   5.268 -0.4212  1.2209 -0.5738
31236SOL     OW97109   2.475   3.501   1.305 -0.4972  0.1591 -0.5739
31236SOL    HW197110   2.396   3.483   1.356  0.8884  0.5010  1.8702
31236SOL    HW297111   2.533   3.427   1.323  0.2548  0.5860 -1.1783
31237SOL     OW97112   1.817   0.403   5.481 -0.0728 -0.5181  0.1886
31237SOL    HW197113   1.866   0.338   5.530 -0.2584  0.1657  1.3147
31237SOL    HW297114   1.745   0.428   5.539 -0.6157 -0.0847 -0.6499
31238SOL     OW97115  10.121  10.003   8.164 -0.1212 -0.1613 -0.0834
31238SOL    HW197116  10.053  10.068   8.181  1.0365  0.7872  1.1511
31238SOL    HW297117  10.203  10.048   8.183  0.7253 -1.9917  0.8823
31239SOL     OW97118   0.595   7.835   9.360  0.0067 -0.2930  0.3569
31239SOL    HW197119   0.545   7.917   9.359 -1.2602 -1.0170  0.9303
31239SOL    HW297120   0.664   7.850   9.425 -0.8601 -0.0304  1.2453
31240SOL     OW97121   0.325   7.576   5.767 -0.4126  0.4088 -0.9251
31240SOL    HW197122   0.308   7.493   5.723 -0.8719  0.1427 -0.2759
31240SOL    HW297123   0.297   7.561   5.858  2.3792  0.2667  0.0182
31241SOL     OW97124   2.937   0.798   4.570  0.4190  0.1033 -0.0527
31241SOL    HW197125   2.979   0.819   4.486 -1.1764  1.4000 -0.5998
31241SOL    HW297126   2.867   0.737   4.546 -0.4088  0.9241  0.2084
31242SOL     OW97127   6.653   6.480   1.986  0.4524  0.1341 -0.1276
31242SOL    HW197128   6.582   6.539   2.012 -0.6706 -0.0568 -2.5377
31242SOL    HW297129   6.672   6.430   2.065 -1.3015  0.9889  0.9017
31243SOL     OW97130   2.101   2.540   1.166 -0.2640  0.7343  0.4572
31243SOL    HW197131   2.060   2.454   1.158 -0.7201  0.8984  0.9846
31243SOL    HW297132   2.029   2.600   1.184 -0.0900  1.3977 -0.9374
31244SOL     OW97133   2.694   6.690   7.499  0.1250 -0.2207  0.3792
31244SOL    HW197134   2.619   6.700   7.558  0.9031 -1.4439  1.6363
31244SOL    HW297135   2.761   6.649   7.553  1.3895  0.0055 -0.9768
31245SOL     OW97136  10.670  10.346  10.710 -0.6172 -0.4459  0.2998
31245SOL    HW197137  10.745  10.362  10.767 -0.0712  0.7941 -0.7157
31245SOL    HW297138  10.600  10.400  10.748 -0.2909  0.2736 -0.0837
31246SOL     OW97139   2.675   8.546   3.237 -0.0069 -0.0207  0.1763
31246SOL    HW197140   2.764   8.520   3.259  0.6402  2.7338  1.3053
31246SOL    HW297141   2.663   8.519   3.146  2.8553  1.4758 -0.7651
31247SOL     OW97142   8.885  10.380   6.774 -0.1327 -0.2760  0.3597
31247SOL    HW197143   8.858  10.289   6.773 -0.2013 -0.2568  0.4265
31247SOL    HW297144   8.927  10.394   6.689  1.3612 -0.8054  0.9818
31248SOL     OW97145   0.056   5.073   6.108 -0.7404 -0.0097 -0.7594
31248SOL    HW197146   0.006   5.122   6.043 -1.3733 -1.9168 -1.8126
31248SOL    HW297147   0.114   5.017   6.057  0.7360  0.4039  0.4024
31249SOL     OW97148   3.255   6.330   1.002 -0.0019  0.8131 -0.7457
31249SOL    HW197149   3.281   6.245   1.038  1.3547  2.2461  1.9300
31249SOL    HW297150   3.182   6.358   1.058 -0.9466  1.1380 -2.0847
31250SOL     OW97151   5.701   2.849   2.682 -0.1771 -0.6179  0.5537
31250SOL    HW197152   5.650   2.787   2.629 -2.2346  0.8100  0.7266
31250SOL    HW297153   5.653   2.932   2.675  0.7906  0.2062  2.7306
31251SOL     OW97154   0.194   1.677   0.122  0.3861 -0.8952  0.4784
31251SOL    HW197155   0.256   1.616   0.082  0.6923  0.4749 -1.2317
31251SOL    HW297156   0.113   1.664   0.073  0.2526 -0.4169  0.5712
31252SOL     OW97157   7.608   4.225   7.252  0.4884 -0.2113 -0.2824
31252SOL    HW197158   7.607   4.129   7.257  2.2691 -0.2342  0.2456
31252SOL    HW297159   7.657   4.244   7.172  1.6926  0.2333  0.5314
31253SOL     OW97160   0.358   4.327   9.182 -0.3220 -0.9157 -0.5101
31253SOL    HW197161   0.300   4.362   9.115  0.6127 -0.7439 -1.2582
31253SOL    HW297162   0.329   4.367   9.263 -0.8500 -0.3478 -0.9722
31254SOL     OW97163   2.460  10.662   2.319 -0.0958 -0.0105  0.3833
31254SOL    HW197164   2.400  10.653   2.393  0.6074 -0.8777  0.8723
31254SOL    HW297165   2.520  10.731   2.345 -1.7292  1.9421 -0.7374
31255SOL     OW97166   3.668  10.623   2.161  0.5580 -0.4215  0.1802
31255SOL    HW197167   3.594  10.627   2.222 -0.3120 -1.1149 -0.7891
31255SOL    HW297168   3.746  10.625   2.217 -0.1937  0.0056  1.2379
31256SOL     OW97169   7.163   5.393  10.104  0.2818  0.8769 -0.2005
31256SOL    HW197170   7.084   5.418  10.152  0.6624 -0.3922  1.1842
31256SOL    HW297171   7.131   5.362  10.019 -0.9499 -1.3056  0.9655
31257SOL     OW97172   9.911   8.988   1.647 -0.0012  0.2147  0.2989
31257SOL    HW197173   9.863   9.037   1.714 -0.1794  0.3652  0.0598
31257SOL    HW297174   9.846   8.926   1.612  0.5353 -1.0631  1.4586
31258SOL     OW97175   2.708   7.951   8.248 -0.6699  0.2718  0.2685
31258SOL    HW197176   2.744   8.009   8.315 -1.1978 -1.1350  1.8129
31258SOL    HW297177   2.760   7.970   8.170  0.8450  1.0116  1.4059
31259SOL     OW97178   8.450   7.103   1.343  0.1649 -0.6011 -0.5983
31259SOL    HW197179   8.400   7.062   1.413  0.2923  1.0858  0.5411
31259SOL    HW297180   8.445   7.197   1.362  0.5690 -0.1303 -2.6147
31260SOL     OW97181   2.609   3.197   3.237  0.0502  0.5345 -0.4950
31260SOL    HW197182   2.559   3.213   3.317 -0.6697  0.5947 -0.9397
31260SOL    HW297183   2.691   3.157   3.267 -1.1838 -1.7266  0.1359
31261SOL     OW97184   1.887   1.519   2.317 -0.3965  0.1582  0.2150
31261SOL    HW197185   1.823   1.578   2.277 -1.6905 -1.4102 -0.0841
31261SOL    HW297186   1.938   1.486   2.243 -0.8243 -0.4269  0.1732
31262SOL     OW97187   9.734   6.322   0.185 -0.0351 -0.3856 -0.4639
31262SOL    HW197188   9.664   6.258   0.199 -0.5509  0.2101 -0.2763
31262SOL    HW297189   9.688   6.402   0.162  0.5558  0.2041  0.3624
31263SOL     OW97190  10.153   4.025   1.974 -0.2779 -0.4195  0.0146
31263SOL    HW197191  10.223   3.979   2.019 -1.6611 -3.6513 -0.8852
31263SOL    HW297192  10.171   4.012   1.881 -1.9222 -1.2066 -0.2353
31264SOL     OW97193   7.977   2.031   7.444  0.1144  0.1020  0.0596
31264SOL    HW197194   8.070   2.011   7.440  0.2521  0.7709 -0.3534
31264SOL    HW297195   7.935   1.962   7.393  0.3668 -0.2531  0.3236
31265SOL     OW97196   0.873   5.934   1.654 -0.0452 -0.5041  0.2874
31265SOL    HW197197   0.906   6.017   1.688  0.7238  0.2432 -2.0382
31265SOL    HW297198   0.947   5.897   1.606 -0.8407 -1.7707 -0.0017
31266SOL     OW97199   7.050   6.240   3.275 -0.1171  0.2771 -0.1409
31266SOL    HW197200   6.994   6.240   3.197  0.7471 -2.6378 -0.8989
31266SOL    HW297201   7.139   6.228   3.240  0.2973 -0.9888  1.2555
31267SOL     OW97202   1.702  10.569   9.882  0.6678  0.5861 -0.1670
31267SOL    HW197203   1.746  10.548   9.964  2.3888  0.5219 -1.0525
31267SOL    HW297204   1.620  10.610   9.908  1.2019  0.6171  1.5758
31268SOL     OW97205   4.746  10.192   6.143 -0.5124  0.2169 -0.0603
31268SOL    HW197206   4.673  10.130   6.141 -0.7611  0.4027  1.8447
31268SOL    HW297207   4.708  10.273   6.177  1.0478 -0.5062  3.9834
31269SOL     OW97208  10.859   0.654   4.134  0.1525  0.6544 -0.1513
31269SOL    HW197209  10.921   0.631   4.204 -1.0370  0.3067  0.8256
31269SOL    HW297210  10.914   0.671   4.058  1.3283 -2.2852 -0.0730
31270SOL     OW97211   2.245   9.156   1.452  0.2166  0.5317  0.1418
31270SOL    HW197212   2.172   9.172   1.512 -0.3028  0.6156 -0.4952
31270SOL    HW297213   2.323   9.166   1.506 -0.1825  1.9904  0.4960
31271SOL     OW97214   3.988   0.952   5.349 -0.4865 -0.2288 -1.0446
31271SOL    HW197215   3.990   0.883   5.282 -1.7031 -1.1936 -0.1426
31271SOL    HW297216   4.028   0.911   5.426 -0.3094  0.4167 -0.7896
31272SOL     OW97217   0.103   6.317   2.316  0.4655  0.0150  0.1140
31272SOL    HW197218   0.119   6.246   2.254  0.6402 -0.4170  0.6446
31272SOL    HW297219   0.163   6.387   2.289  1.5770 -0.7027  0.6331
31273SOL     OW97220   5.508   5.628   4.881  0.6502  0.2514  0.1275
31273SOL    HW197221   5.581   5.615   4.820  1.3941 -0.0767  1.0541
31273SOL    HW297222   5.551   5.644   4.966 -0.3560 -0.1168  0.7187
31274SOL     OW97223  10.027   8.061   4.271  0.1420  0.9971  0.2695
31274SOL    HW197224  10.106   8.115   4.273  2.1563 -1.6687  2.9885
31274SOL    HW297225  10.054   7.981   4.227 -1.9230  1.0134 -1.1490
31275SOL     OW97226   6.021   6.324   1.435  0.5761  0.2438 -0.2171
31275SOL    HW197227   5.991   6.234   1.426  1.0293  0.0120  0.4809
31275SOL    HW297228   6.086   6.336   1.365 -0.0804  0.2972 -0.8272
31276SOL     OW97229   3.122   5.188   7.156  0.3702  0.1182 -0.2932
31276SOL    HW197230   3.061   5.194   7.229  2.1830 -2.7989  1.6376
31276SOL    HW297231   3.195   5.244   7.181  0.2181  0.5570 -0.7924
31277SOL     OW97232   4.585   4.146   4.672  0.3978 -0.3505 -0.1645
31277SOL    HW197233   4.537   4.138   4.754 -0.9469  3.4868 -0.4161
31277SOL    HW297234   4.518   4.146   4.604  0.9561  1.7958 -0.7899
31278SOL     OW97235   1.039   4.789   0.927  0.2621  0.0089  0.1585
31278SOL    HW197236   1.101   4.842   0.977  1.7658 -1.2324 -0.3011
31278SOL    HW297237   0.966   4.848   0.909  0.7978  1.2031  1.6623
31279SOL     OW97238   6.117   9.141  10.092  0.3169 -0.2838 -0.5878
31279SOL    HW197239   6.202   9.115  10.055 -0.8591 -1.4153 -2.7119
31279SOL    HW297240   6.074   9.188  10.021 -0.5561  1.0167  0.7405
31280SOL     OW97241   3.470   9.562   2.450  0.2905 -0.4229  0.3693
31280SOL    HW197242   3.391   9.616   2.454  1.3444  1.2952 -0.7804
31280SOL    HW297243   3.464   9.518   2.365  1.1027  0.6562 -0.2762
31281SOL     OW97244   6.665   1.742   3.992 -0.3143 -0.2551  0.0028
31281SOL    HW197245   6.620   1.672   3.945 -0.4644 -1.7296  2.1986
31281SOL    HW297246   6.602   1.814   3.994 -1.2334 -1.0443  0.0716
31282SOL     OW97247   2.126  10.894   5.280  0.0761 -0.5421 -0.0330
31282SOL    HW197248   2.149  10.977   5.323  0.7586 -0.4566 -0.5584
31282SOL    HW297249   2.063  10.919   5.213  0.6624 -0.3759 -0.5254
31283SOL     OW97250   8.727   5.152   4.049 -0.0162 -0.1377 -0.4581
31283SOL    HW197251   8.780   5.097   4.107  0.6208  1.3532  0.4285
31283SOL    HW297252   8.637   5.136   4.076  0.1239 -1.0846 -0.5261
31284SOL     OW97253   5.671   1.747   4.498  0.3235 -0.3163  0.5017
31284SOL    HW197254   5.589   1.733   4.450 -1.0217  0.8253  2.2999
31284SOL    HW297255   5.692   1.839   4.483 -0.3621  0.1864  2.3349
31285SOL     OW97256   4.126   4.411   9.457 -0.2695  0.1486 -0.6342
31285SOL    HW197257   4.206   4.437   9.502  0.5998 -1.5857 -1.1204
31285SOL    HW297258   4.107   4.484   9.398  0.6576  0.7988 -0.1470
31286SOL     OW97259  10.265   1.636  10.685 -0.1590 -0.1491 -0.0008
31286SOL    HW197260  10.239   1.710  10.630 -0.7591 -0.7310 -0.5224
31286SOL    HW297261  10.237   1.661  10.773 -0.4730  0.1903 -0.1952
31287SOL     OW97262   9.477   1.926   0.950  0.2921  0.0134 -0.0382
31287SOL    HW197263   9.446   1.917   1.040  0.5966  0.3424  0.1009
31287SOL    HW297264   9.422   1.866   0.900 -0.9859  1.0430  0.0953
31288SOL     OW97265   3.263   6.421   9.668  0.1200 -0.0900  0.1628
31288SOL    HW197266   3.220   6.413   9.583  0.9841 -0.2856 -0.2580
31288SOL    HW297267   3.334   6.483   9.655  0.5365 -0.4563  0.6283
31289SOL     OW97268   0.025   4.448   0.874  0.2692  0.0798 -0.3522
31289SOL    HW197269   0.060   4.381   0.816  0.4546  0.9758 -1.3162
31289SOL    HW297270   0.023   4.528   0.820  0.8521  1.0487  0.9988
31290SOL     OW97271   9.106   4.066   7.663  0.3122 -0.4636 -0.8286
31290SOL    HW197272   9.176   4.108   7.613  1.1199 -0.8660 -0.0613
31290SOL    HW297273   9.075   3.996   7.606  2.3028 -1.9471 -0.2064
31291SOL     OW97274   6.485   0.264   0.429 -0.3638 -0.4093 -0.1407
31291SOL    HW197275   6.503   0.177   0.392 -0.7435 -0.6055  0.1348
31291SOL    HW297276   6.430   0.247   0.505  0.1456  0.0179  0.3338
31292SOL     OW97277   4.460   5.709   7.915 -0.8870 -0.0008  0.3101
31292SOL    HW197278   4.540   5.749   7.946 -0.5176  0.4791 -1.1967
31292SOL    HW297279   4.445   5.747   7.828 -2.5016 -0.4030  0.3731
31293SOL     OW97280   1.178   0.291   9.440 -0.3401  0.4590 -0.1469
31293SOL    HW197281   1.248   0.304   9.377  0.3699  1.3232  0.7697
31293SOL    HW297282   1.108   0.350   9.411 -0.6519 -0.3166 -0.9971
31294SOL     OW97283   1.813   3.844   0.806  0.4502 -1.2257 -0.5008
31294SOL    HW197284   1.903   3.874   0.797  0.5148 -1.5959 -1.1810
31294SOL    HW297285   1.817   3.772   0.868  0.1787  0.6308  1.7964
31295SOL     OW97286   0.247   5.236   1.513  0.1799 -0.0339 -0.5895
31295SOL    HW197287   0.211   5.171   1.572  0.7986  0.3387  0.2210
31295SOL    HW297288   0.296   5.186   1.448 -2.2795 -0.6088 -2.1432
31296SOL     OW97289   8.767   9.630   6.039  0.3791  0.3828  0.3906
31296SOL    HW197290   8.839   9.688   6.014  1.1916 -0.5442  0.5095
31296SOL    HW297291   8.810   9.551   6.071 -0.6896 -0.8042 -0.9705
31297SOL     OW97292   9.012   2.159   7.543 -0.1933  0.2737  0.4625
31297SOL    HW197293   8.985   2.082   7.592  0.1511 -0.3272 -0.2710
31297SOL    HW297294   8.931   2.205   7.521 -0.5501 -0.8043 -0.5755
31298SOL     OW97295   0.676  10.290   5.678  0.2516  0.0821  0.1136
31298SOL    HW197296   0.761  10.310   5.718 -0.3741  0.6630  1.1903
31298SOL    HW297297   0.613  10.305   5.748 -0.9197  1.5023 -1.1808
31299SOL     OW97298   5.847   3.749   2.370  0.9609  0.8485 -0.5869
31299SOL    HW197299   5.792   3.778   2.297 -0.2454  0.6644  0.2122
31299SOL    HW297300   5.915   3.816   2.377 -0.3792  2.2450 -0.2981
31300SOL     OW97301   8.426   0.365   8.039 -0.4288 -0.5595 -0.4057
31300SOL    HW197302   8.372   0.289   8.015  1.0164 -1.3172 -1.3896
31300SOL    HW297303   8.485   0.332   8.106 -1.8811  0.5693  1.5327
31301SOL     OW97304   1.715   8.869  10.408 -0.7307 -0.1106 -0.4340
31301SOL    HW197305   1.707   8.889  10.315 -0.1057  2.9025  0.0711
31301SOL    HW297306   1.809   8.854  10.422 -0.8031 -0.4205 -0.2604
31302SOL     OW97307  10.418   9.903  10.206 -0.7376 -0.3529  0.0718
31302SOL    HW197308  10.478   9.880  10.276 -1.2358 -1.7191  0.0714
31302SOL    HW297309  10.335   9.862  10.230 -1.1508 -0.1222 -0.8943
31303SOL     OW97310   3.414   9.640   3.571 -0.2450 -0.2944 -0.2972
31303SOL    HW197311   3.325   9.636   3.608 -1.4644 -0.9515 -3.0739
31303SOL    HW297312   3.448   9.551   3.582  0.3346  0.0817  1.2292
31304SOL     OW97313   7.257   3.350   4.597  0.1622 -0.0476  0.1439
31304SOL    HW197314   7.230   3.290   4.527  0.7218 -1.1843  0.8633
31304SOL    HW297315   7.187   3.343   4.662  0.8622 -0.9962  0.8346
31305SOL     OW97316   0.179   2.419   7.580 -0.3473  0.6938  0.5262
31305SOL    HW197317   0.086   2.432   7.597 -0.5533 -1.5235  1.4267
31305SOL    HW297318   0.191   2.444   7.489 -1.8577  0.8522  0.3557
31306SOL     OW97319   2.333   1.350   8.935 -0.4223 -0.2650  0.1135
31306SOL    HW197320   2.359   1.438   8.962  1.3423 -0.7667  0.1396
31306SOL    HW297321   2.282   1.317   9.009  2.1477 -0.6389  1.8463
31307SOL     OW97322   6.666   1.392   3.984 -0.1836 -0.0224  0.2401
31307SOL    HW197323   6.741   1.393   4.044  1.1627 -1.2388 -1.3111
31307SOL    HW297324   6.695   1.442   3.909 -1.6189  0.9612  0.3059
31308SOL     OW97325   2.636   3.597   4.912 -0.1832  0.3135  0.0320
31308SOL    HW197326   2.556   3.553   4.882 -0.2628 -0.4961  1.3108
31308SOL    HW297327   2.605   3.679   4.951 -0.2191  0.7081 -0.8066
31309SOL     OW97328   0.960   7.828   1.143  0.3443  0.2872 -0.6199
31309SOL    HW197329   0.970   7.923   1.151  1.7270  0.2206 -1.2362
31309SOL    HW297330   1.033   7.792   1.194  0.4271 -0.4222 -1.2233
31310SOL     OW97331  10.298   6.825   7.519  0.6132  0.0739 -0.4743
31310SOL    HW197332  10.365   6.778   7.570 -0.2224 -1.0618 -0.3931
31310SOL    HW297333  10.217   6.812   7.568  0.2180  0.9840 -0.8634
31311SOL     OW97334   6.039   5.717   1.744  0.4723  0.3172  0.1661
31311SOL    HW197335   6.095   5.758   1.809 -0.4080 -1.7906  2.4319
31311SOL    HW297336   6.063   5.624   1.747 -0.7266 -0.0815 -1.3410
31312SOL     OW97337   0.971   5.917  10.810  0.3184 -0.3386  0.1155
31312SOL    HW197338   0.990   5.973  10.885  1.7183 -0.9047  0.2141
31312SOL    HW297339   0.999   5.969  10.734  2.0020 -0.9978  0.2328
31313SOL     OW97340  10.849  10.345   6.626  0.2557 -0.1879  0.5981
31313SOL    HW197341  10.846  10.398   6.706 -0.1267  1.0112 -0.1956
31313SOL    HW297342  10.813  10.260   6.654 -0.7441  0.4940  1.4965
31314SOL     OW97343   8.132   7.809   0.090  0.1726  0.1537  0.1447
31314SOL    HW197344   8.227   7.811   0.092  0.1952 -0.7561  1.7846
31314SOL    HW297345   8.110   7.735   0.033  0.5064 -0.6688  1.0475
31315SOL     OW97346   1.254   6.616   9.480 -0.4349  0.5935  0.4187
31315SOL    HW197347   1.192   6.603   9.552 -2.6229  0.6809 -1.3226
31315SOL    HW297348   1.239   6.541   9.422  1.8571  0.0913  0.3737
31316SOL     OW97349   4.549   6.685   5.664 -0.3203 -0.5913 -0.2739
31316SOL    HW197350   4.453   6.687   5.666 -0.3291 -1.1878  0.1737
31316SOL    HW297351   4.574   6.653   5.751  0.2309 -1.9813 -0.9110
31317SOL     OW97352   6.188   1.840  10.618 -0.1858  0.4093 -1.1818
31317SOL    HW197353   6.129   1.883  10.680 -0.1402 -0.0826 -0.7816
31317SOL    HW297354   6.234   1.911  10.573  0.1834  0.7668 -0.2564
31318SOL     OW97355   7.511   8.765  10.851 -0.5336  0.1840 -0.4261
31318SOL    HW197356   7.600   8.776  10.885 -1.4420 -0.1220  2.3328
31318SOL    HW297357   7.517   8.691  10.790  0.6616 -1.8133  1.9222
31319SOL     OW97358   5.438   0.597   5.152  0.0425  0.0196 -0.3429
31319SOL    HW197359   5.445   0.504   5.170 -1.2266  0.0065  0.1813
31319SOL    HW297360   5.523   0.633   5.176  0.5669 -1.0114 -0.6330
31320SOL     OW97361   8.446   3.136   7.778  0.4556  0.0295 -0.2984
31320SOL    HW197362   8.460   3.065   7.841  2.3975  0.2373 -0.4348
31320SOL    HW297363   8.474   3.099   7.694  1.1055  0.8192 -0.4404
31321SOL     OW97364   8.309   2.886   5.512  0.6263  0.1773 -0.1821
31321SOL    HW197365   8.370   2.945   5.467  0.2718  0.7866  0.1275
31321SOL    HW297366   8.298   2.813   5.451  1.0614  0.4311 -0.5778
31322SOL     OW97367   5.103   0.010   7.409 -0.2941 -0.2020  0.0730
31322SOL    HW197368   5.061  -0.041   7.339 -0.7518 -0.1646  0.3156
31322SOL    HW297369   5.170  -0.049   7.445 -0.7527 -0.5991  0.2886
31323SOL     OW97370   8.041   6.089   8.915 -1.0132 -0.0994  0.3618
31323SOL    HW197371   7.968   6.028   8.913 -1.3622  0.0037  3.5493
31323SOL    HW297372   8.003   6.170   8.950 -0.2947  1.6381 -2.5253
31324SOL     OW97373   2.692   4.951   6.627 -0.0536 -0.0530  0.2854
31324SOL    HW197374   2.731   4.865   6.611  2.1018  0.7293  1.0253
31324SOL    HW297375   2.670   4.951   6.720  3.2204  1.3112  1.2128
31325SOL     OW97376   8.932   0.205   7.377  0.3911 -0.2075  0.0605
31325SOL    HW197377   8.941   0.145   7.451 -1.8680  1.0126  1.4548
31325SOL    HW297378   8.880   0.157   7.313 -1.8211  0.2765  1.3648
31326SOL     OW97379   7.737   5.368   1.890  0.3229  0.2952  0.3503
31326SOL    HW197380   7.768   5.413   1.812 -0.1549  1.7025  0.9403
31326SOL    HW297381   7.675   5.302   1.858  1.2951 -0.1937 -0.5541
31327SOL     OW97382   2.289   5.767   7.441 -0.1266 -0.1358  0.4781
31327SOL    HW197383   2.207   5.794   7.482  0.5841  1.0675  1.1906
31327SOL    HW297384   2.348   5.841   7.457  0.5255 -0.1089 -1.7514
31328SOL     OW97385   4.611   2.000   9.799  0.2506  0.0284 -0.1715
31328SOL    HW197386   4.523   2.036   9.805  0.2373 -0.1120  0.5986
31328SOL    HW297387   4.599   1.910   9.768  0.1355  0.0598 -0.2151
31329SOL     OW97388   3.448   2.722   0.655  0.0822 -0.0908 -0.3643
31329SOL    HW197389   3.412   2.709   0.567 -0.4319  2.4585 -0.6128
31329SOL    HW297390   3.374   2.709   0.714 -0.2126  0.7154 -0.5396
31330SOL     OW97391   3.258   3.487   1.254  0.0679  0.5805 -0.4047
31330SOL    HW197392   3.181   3.528   1.215  0.2589  0.9581 -0.3968
31330SOL    HW297393   3.237   3.394   1.259  0.3331  0.4007 -2.0830
31331SOL     OW97394   9.427   1.009   4.169  0.1496  0.4282 -0.2966
31331SOL    HW197395   9.423   0.992   4.263 -0.1621  1.3662 -0.1313
31331SOL    HW297396   9.518   0.988   4.145 -0.2315 -1.5749 -0.1572
31332SOL     OW97397   0.246   5.412   4.415 -0.3655  0.9699  0.3849
31332SOL    HW197398   0.281   5.420   4.504 -0.5074  2.4820  0.3309
31332SOL    HW297399   0.323   5.400   4.360 -0.3309 -0.9541  0.7671
31333SOL     OW97400   7.398   8.308   0.586 -0.2927  0.1270  0.7231
31333SOL    HW197401   7.324   8.342   0.636 -2.3863 -1.5249 -0.9956
31333SOL    HW297402   7.435   8.240   0.641 -2.8177 -1.9541  0.0562
31334SOL     OW97403  10.807   9.690   2.564  0.1014  0.2565  0.0456
31334SOL    HW197404  10.835   9.707   2.654  0.8879  2.3271 -0.5235
31334SOL    HW297405  10.746   9.761   2.545  0.0059 -0.1127 -1.0831
31335SOL     OW97406   9.345   2.941   9.998 -0.5940  0.0324 -0.1046
31335SOL    HW197407   9.379   3.028   9.975  0.3276 -0.3747 -0.3373
31335SOL    HW297408   9.372   2.928  10.089 -3.4711  1.2727  1.0376
31336SOL     OW97409   6.725  10.565   1.667  0.4488 -0.5947 -0.1506
31336SOL    HW197410   6.652  10.505   1.656  0.9886 -0.8139 -4.1093
31336SOL    HW297411   6.803  10.508   1.664  0.8982 -0.0789  0.9924
31337SOL     OW97412   6.076   1.432  10.851 -0.0671  0.0421 -0.0023
31337SOL    HW197413   6.085   1.349  10.899 -1.9127 -0.7687 -0.9532
31337SOL    HW297414   6.082   1.499  10.919  2.9091 -0.7202  0.6331
31338SOL     OW97415  10.387  10.052   6.262  0.5303 -0.4394 -0.0516
31338SOL    HW197416  10.417  10.081   6.176 -0.1186  1.5310  0.3255
31338SOL    HW297417  10.414  10.123   6.322  2.1639 -2.3562  1.6437
31339SOL     OW97418   9.313   8.513   9.760  0.4464  0.1113  0.4159
31339SOL    HW197419   9.372   8.576   9.718 -0.5225  0.3765 -0.5994
31339SOL    HW297420   9.340   8.429   9.723  0.4940  0.1756  0.3010
31340SOL     OW97421   6.115   2.637   0.298  0.3338 -0.0786 -0.3985
31340SOL    HW197422   6.150   2.549   0.313 -0.3978 -0.2839  0.1474
31340SOL    HW297423   6.180   2.679   0.241  0.6745 -0.9796 -0.6946
31341SOL     OW97424   0.634   9.518  10.756 -0.0715 -0.0214 -0.2258
31341SOL    HW197425   0.628   9.424  10.775  1.1962 -0.0991 -0.1034
31341SOL    HW297426   0.572   9.533  10.685 -0.1317 -0.9969 -0.3897
31342SOL     OW97427  10.344   5.173   3.598 -0.0334  0.0965 -0.0431
31342SOL    HW197428  10.330   5.256   3.553 -0.2118  0.5779  0.8786
31342SOL    HW297429  10.377   5.198   3.685  1.0442 -0.8366 -0.1707
31343SOL     OW97430   5.512   8.601   2.665 -0.7519  0.3484 -0.0349
31343SOL    HW197431   5.520   8.506   2.649  0.8915 -0.3463  3.7504
31343SOL    HW297432   5.594   8.637   2.632 -0.1601 -0.0530  0.9395
31344SOL     OW97433   3.049   2.665   8.182  0.6303  0.0633 -0.1943
31344SOL    HW197434   3.035   2.728   8.112  0.1574 -0.7447 -0.8248
31344SOL    HW297435   3.139   2.635   8.169  0.4214 -0.3626 -0.6875
31345SOL     OW97436   0.418   4.100   7.594  0.4032 -0.1474  0.2879
31345SOL    HW197437   0.418   4.012   7.558  1.1616  0.0500 -0.2238
31345SOL    HW297438   0.401   4.157   7.519 -1.7151  0.0786  0.8667
31346SOL     OW97439   6.493   9.797   8.954 -0.8468 -0.0839 -0.3387
31346SOL    HW197440   6.530   9.883   8.976 -1.7123 -0.0300  1.0529
31346SOL    HW297441   6.479   9.801   8.859 -0.7019  1.2483 -0.3310
31347SOL     OW97442   7.823   3.674   4.185 -0.4088  0.0641 -0.4017
31347SOL    HW197443   7.730   3.673   4.162 -0.1515 -0.6716 -1.4930
31347SOL    HW297444   7.826   3.716   4.271 -1.8525 -0.7849  0.1099
31348SOL     OW97445   5.228   9.127   5.842 -0.6921  0.1300 -0.3578
31348SOL    HW197446   5.156   9.065   5.832 -1.0787  0.5714 -0.3649
31348SOL    HW297447   5.281   9.092   5.913 -0.3874 -0.6966 -0.9701
31349SOL     OW97448   7.446   3.628   4.843 -0.5889 -0.6690  0.1367
31349SOL    HW197449   7.419   3.564   4.909 -2.0600 -1.2803 -0.9815
31349SOL    HW297450   7.461   3.576   4.764 -0.7931  0.2463 -0.5211
31350SOL     OW97451  10.245   3.053   4.728  0.3810 -0.1986  0.1310
31350SOL    HW197452  10.316   3.014   4.677  1.2986  1.0743  0.3975
31350SOL    HW297453  10.205   2.978   4.773  0.7890 -1.0865 -0.9324
31351SOL     OW97454   4.515   8.468   4.470 -0.5841  0.6475  0.0587
31351SOL    HW197455   4.606   8.488   4.493 -1.1204  2.5904  0.7317
31351SOL    HW297456   4.495   8.388   4.519  0.0072  1.6149  1.9964
31352SOL     OW97457  10.062   4.910   6.611  0.3896  0.3215 -0.2516
31352SOL    HW197458  10.029   4.953   6.689 -0.2036 -0.4574 -0.0660
31352SOL    HW297459  10.007   4.944   6.540 -1.1772 -1.3130  0.1173
31353SOL     OW97460   0.424   8.120   7.707 -0.3157 -0.0817 -0.1034
31353SOL    HW197461   0.439   8.183   7.636  1.2974  0.0609  0.3094
31353SOL    HW297462   0.483   8.148   7.777 -1.7351 -0.3296  1.2490
31354SOL     OW97463   5.005   0.092   8.099 -0.3671  0.3334  0.0646
31354SOL    HW197464   5.067   0.025   8.070  0.4933  1.1123  0.0414
31354SOL    HW297465   4.923   0.070   8.056  0.2089 -0.0325 -0.8693
31355SOL     OW97466   7.742   6.474   2.568 -0.0723 -0.0907 -0.1819
31355SOL    HW197467   7.758   6.494   2.660 -1.3249 -0.0974  0.0475
31355SOL    HW297468   7.752   6.379   2.561  3.6923  0.2021 -0.8343
31356SOL     OW97469  10.683   1.132   2.764 -0.1063  0.1906 -0.5325
31356SOL    HW197470  10.645   1.044   2.758 -0.9845  0.5433 -0.2352
31356SOL    HW297471  10.775   1.120   2.738 -0.7147 -0.4532 -2.5803
31357SOL     OW97472   1.280  10.296   6.462 -0.0918  0.0548 -0.1991
31357SOL    HW197473   1.311  10.271   6.549  1.3411  2.2705 -0.0131
31357SOL    HW297474   1.326  10.236   6.403  0.8305  0.1263  0.4206
31358SOL     OW97475   6.832   1.145   8.305  0.5817  0.0204  0.0655
31358SOL    HW197476   6.748   1.099   8.309 -0.3020  1.5491 -0.2253
31358SOL    HW297477   6.866   1.127   8.217 -0.5255  1.1914 -0.6254
31359SOL     OW97478   0.039   3.022   8.748 -0.0911  1.1442  0.5433
31359SOL    HW197479  -0.051   2.994   8.766  0.4966  0.2888  2.2923
31359SOL    HW297480   0.058   2.986   8.661 -0.4480 -1.2153  1.3893
31360SOL     OW97481   5.111   3.291   1.067 -0.9328  0.1436  0.4558
31360SOL    HW197482   5.079   3.338   0.990  0.4960  1.7098  0.7659
31360SOL    HW297483   5.082   3.345   1.141 -1.0346 -0.5745  0.9523
31361SOL     OW97484   1.032   6.908   3.260 -0.2484  0.1509  0.3699
31361SOL    HW197485   1.095   6.979   3.252 -1.5639  1.2822 -0.2867
31361SOL    HW297486   1.063   6.857   3.335  1.3714  0.7089  0.1313
31362SOL     OW97487   1.626   7.548   7.065 -0.2503 -0.2090 -0.4895
31362SOL    HW197488   1.665   7.635   7.076  0.3739 -0.4280 -0.8973
31362SOL    HW297489   1.549   7.563   7.011  0.4545 -0.0382 -1.4880
31363SOL     OW97490   3.306   7.776   2.289 -0.0396  0.3999 -0.1720
31363SOL    HW197491   3.214   7.795   2.310 -0.4409  0.6373 -2.0273
31363SOL    HW297492   3.349   7.861   2.292  0.5637  0.0935  2.4455
31364SOL     OW97493   0.494   0.538   4.553  0.3295 -0.3347 -0.3885
31364SOL    HW197494   0.564   0.490   4.598  0.8761  0.3865 -0.4581
31364SOL    HW297495   0.425   0.546   4.618 -0.4505 -2.5977 -0.8457
31365SOL     OW97496   6.915   1.829   3.862  0.4976 -0.4005  0.4761
31365SOL    HW197497   6.857   1.806   3.934  1.8180  2.8036  2.7973
31365SOL    HW297498   6.983   1.762   3.862 -0.8185 -1.7685  0.5746
31366SOL     OW97499   2.232   4.203   5.806 -0.3000 -0.2624 -0.2444
31366SOL    HW197500   2.313   4.173   5.764 -0.4262 -0.4188 -0.3813
31366SOL    HW297501   2.183   4.122   5.823  0.2558 -0.3039  1.2857
31367SOL     OW97502   3.856   1.249   5.009 -0.0399  0.1069 -0.2802
31367SOL    HW197503   3.779   1.264   5.064 -1.1811  1.5008 -2.1703
31367SOL    HW297504   3.847   1.158   4.981  0.6726 -0.7086  1.8957
31368SOL     OW97505  10.613   8.859   8.785 -0.5851  0.3713 -0.2113
31368SOL    HW197506  10.627   8.888   8.694 -0.3573  1.7347  0.2392
31368SOL    HW297507  10.554   8.784   8.777 -0.1482  0.1312 -1.5237
31369SOL     OW97508   8.780   3.985   7.578 -0.5077  0.1000 -0.0001
31369SOL    HW197509   8.801   4.078   7.572 -0.7694  0.1878  0.3987
31369SOL    HW297510   8.686   3.981   7.561 -0.6860  0.0230  0.9174
31370SOL     OW97511   2.376   9.920   6.604  0.8486  0.0403 -0.4058
31370SOL    HW197512   2.344   9.853   6.665  0.6149  0.5856  0.0852
31370SOL    HW297513   2.466   9.894   6.585  1.0766  0.1022  0.5330
31371SOL     OW97514   3.162   2.889   3.510  0.2919 -0.3538  0.5266
31371SOL    HW197515   3.225   2.957   3.534 -1.5143  1.1209  1.3265
31371SOL    HW297516   3.179   2.872   3.417 -0.1066  2.2312 -0.0716
31372SOL     OW97517   3.015   6.373   5.627 -0.1491 -0.0418 -0.0614
31372SOL    HW197518   2.977   6.352   5.541 -1.5643  1.0598  0.2618
31372SOL    HW297519   2.998   6.466   5.638 -3.8362 -0.8506  3.1814
31373SOL     OW97520   5.093   2.287   5.580 -0.3455 -0.3817  0.0074
31373SOL    HW197521   5.124   2.305   5.669  0.4882  0.0480 -0.3594
31373SOL    HW297522   5.086   2.373   5.539 -2.2269 -0.4354  0.1127
31374SOL     OW97523   3.403   8.805   4.795  0.4382 -0.0474 -0.0827
31374SOL    HW197524   3.404   8.721   4.842  0.2292 -0.2391 -0.4198
31374SOL    HW297525   3.427   8.870   4.862  0.9264 -0.4128  0.1015
31375SOL     OW97526   3.540   3.453   3.908  0.1981  0.2553 -0.4778
31375SOL    HW197527   3.478   3.510   3.863 -0.6242 -0.0836  0.1747
31375SOL    HW297528   3.554   3.495   3.993  0.2880 -0.0392 -0.3425
31376SOL     OW97529   4.630   8.588   1.719  0.3295 -0.1762 -0.1709
31376SOL    HW197530   4.726   8.587   1.726  0.3563 -0.2705 -0.5488
31376SOL    HW297531   4.609   8.509   1.670  0.0719 -0.0632 -0.2432
31377SOL     OW97532   0.164  10.677   6.861  0.0513 -0.1377 -0.2424
31377SOL    HW197533   0.185  10.755   6.913 -0.5869  1.0872 -1.7140
31377SOL    HW297534   0.239  10.620   6.872  0.2100  0.3447  1.4831
31378SOL     OW97535   3.619   8.214   1.644  0.0243  0.1241 -0.1718
31378SOL    HW197536   3.698   8.161   1.655  0.1533  0.3211 -0.1477
31378SOL    HW297537   3.647   8.289   1.591  0.4838  1.5535  1.9722
31379SOL     OW97538   0.774   2.648   8.765 -0.4831  0.7332 -0.0473
31379SOL    HW197539   0.699   2.605   8.724 -0.0783  0.0788 -0.1244
31379SOL    HW297540   0.788   2.600   8.847 -0.4316  1.1413  0.1824
31380SOL     OW97541   5.467   4.060   2.710 -0.2281  0.5430  0.0732
31380SOL    HW197542   5.544   4.026   2.664  0.2756 -0.0904  1.3520
31380SOL    HW297543   5.416   4.103   2.641  0.8288  0.2137 -0.9574
31381SOL     OW97544   6.578   5.476   1.466  0.5818  0.0892 -0.3432
31381SOL    HW197545   6.523   5.554   1.469 -0.5432 -0.7087  0.2558
31381SOL    HW297546   6.656   5.504   1.418 -0.3108  1.2473 -1.1723
31382SOL     OW97547   3.253   9.292   8.695 -0.3624  0.1893  0.1925
31382SOL    HW197548   3.231   9.218   8.638  1.7846 -1.6162  1.5030
31382SOL    HW297549   3.231   9.261   8.783 -0.4889  1.5977  0.6855
31383SOL     OW97550   8.159   4.482   2.342 -0.4683 -0.0842  0.0375
31383SOL    HW197551   8.169   4.490   2.247 -0.4411  0.4549  0.0794
31383SOL    HW297552   8.076   4.526   2.361  0.4143  1.5057  0.4633
31384SOL     OW97553   2.021   1.702   4.144 -0.0380 -0.1129  0.6018
31384SOL    HW197554   1.933   1.702   4.105  0.2303 -2.3630 -0.1747
31384SOL    HW297555   2.073   1.647   4.085  1.4475 -0.2606  1.9858
31385SOL     OW97556   5.267   8.731   3.777  0.8510  0.2926  0.2712
31385SOL    HW197557   5.345   8.737   3.832 -0.3373  2.3593  1.8581
31385SOL    HW297558   5.294   8.770   3.693  0.9160  3.4583  1.6304
31386SOL     OW97559   9.126  10.604   3.890  0.4208 -0.1208 -0.4465
31386SOL    HW197560   9.108  10.694   3.862  0.2984 -0.2441 -0.7774
31386SOL    HW297561   9.159  10.612   3.979  0.3771  0.2497 -0.4632
31387SOL     OW97562   1.371   0.041  10.291  0.6001 -0.6496  0.3062
31387SOL    HW197563   1.461   0.024  10.319  0.6702  1.8462  2.0410
31387SOL    HW297564   1.341   0.110  10.351 -1.8156 -0.0543 -1.4457
31388SOL     OW97565   6.879   0.524   2.248 -0.0929 -0.0789  0.2780
31388SOL    HW197566   6.836   0.512   2.333  1.2164  3.3432  1.5639
31388SOL    HW297567   6.838   0.603   2.211  2.0331  0.7409 -0.4530
31389SOL     OW97568   8.546   8.494   8.575  0.0726  0.0452  0.2522
31389SOL    HW197569   8.557   8.477   8.668 -2.0169 -2.0070  0.2214
31389SOL    HW297570   8.581   8.415   8.532  0.8215  0.8732 -0.7237
31390SOL     OW97571   7.370   8.350   2.394  0.0262  0.1510 -0.0253
31390SOL    HW197572   7.331   8.396   2.320  0.3864  2.1529  0.9673
31390SOL    HW297573   7.295   8.309   2.438 -0.9278  2.8051  1.0708
31391SOL     OW97574   2.861   5.046   0.690  0.1752  0.5266  0.0096
31391SOL    HW197575   2.805   4.988   0.741  0.3175 -0.0021 -0.4296
31391SOL    HW297576   2.807   5.124   0.675  0.1670  0.7405  1.0501
31392SOL     OW97577  10.077   1.377   1.444  0.1570  0.5396  0.2750
31392SOL    HW197578  10.151   1.373   1.384 -0.8774  1.2076 -1.1088
31392SOL    HW297579  10.116   1.393   1.530  1.6760 -0.5114 -0.1981
31393SOL     OW97580   5.780   0.193   6.652  0.1447 -0.4384 -0.2288
31393SOL    HW197581   5.745   0.201   6.741 -0.4902  1.2376 -0.6037
31393SOL    HW297582   5.706   0.214   6.595  0.6436 -1.1387 -1.1699
31394SOL     OW97583   8.834   8.225   9.713 -0.1422  0.5742 -0.4654
31394SOL    HW197584   8.800   8.151   9.663  0.3338 -0.0674  0.1322
31394SOL    HW297585   8.820   8.301   9.657  1.1389 -0.2233 -1.9308
31395SOL     OW97586   9.061   2.824   6.714 -0.0209  0.5058  0.2783
31395SOL    HW197587   9.043   2.894   6.777 -0.4203  1.7300 -1.1392
31395SOL    HW297588   9.137   2.779   6.751  1.2682  2.6692  0.4886
31396SOL     OW97589  10.532   3.737   8.211 -0.0292  0.3015 -0.4269
31396SOL    HW197590  10.584   3.764   8.287  1.5891 -2.9167 -0.1886
31396SOL    HW297591  10.441   3.746   8.239  0.5204 -1.4075  2.2345
31397SOL     OW97592   3.661   8.125   3.774 -0.0876 -0.0058  0.3415
31397SOL    HW197593   3.677   8.037   3.808 -0.3229  0.4788  1.7749
31397SOL    HW297594   3.748   8.166   3.771  0.1895 -0.6509 -1.4735
31398SOL     OW97595   6.113   3.569   3.772 -0.1583  0.1251 -0.5570
31398SOL    HW197596   6.029   3.604   3.743 -0.7637 -1.3543 -0.7012
31398SOL    HW297597   6.170   3.645   3.778 -1.2536  1.0472 -1.3379
31399SOL     OW97598   9.607   4.309   5.869  0.4568  0.3146  0.7931
31399SOL    HW197599   9.669   4.250   5.826 -1.1918 -3.8013  3.3529
31399SOL    HW297600   9.652   4.337   5.948 -0.9037 -3.7533  3.3588
31400SOL     OW97601   8.178   6.348   7.218  0.1595 -0.2992  0.2386
31400SOL    HW197602   8.260   6.357   7.171 -0.8813  1.4090 -1.3827
31400SOL    HW297603   8.164   6.434   7.258 -1.3336 -0.2034 -0.4269
31401SOL     OW97604  10.316   9.798   9.809  0.7022  0.1778  0.3079
31401SOL    HW197605  10.272   9.714   9.797  1.4360  0.0844 -2.3081
31401SOL    HW297606  10.392   9.777   9.864  0.7412 -0.8390 -0.1101
31402SOL     OW97607   4.528   1.848   0.175 -0.8312 -0.4939 -0.1205
31402SOL    HW197608   4.504   1.931   0.217 -1.9753 -0.6514 -0.4380
31402SOL    HW297609   4.517   1.783   0.244 -1.6325 -0.6073 -0.3524
31403SOL     OW97610   2.538   9.651   0.131  0.0718  0.3715 -0.7459
31403SOL    HW197611   2.509   9.696   0.052  2.2467 -1.7059 -2.8490
31403SOL    HW297612   2.462   9.598   0.157 -0.5515  0.7932 -1.6439
31404SOL     OW97613   7.333   5.532   2.442  0.0744  0.0890  0.0427
31404SOL    HW197614   7.410   5.476   2.437 -0.2937 -0.5185  0.9444
31404SOL    HW297615   7.260   5.471   2.451 -0.3146  0.7024  1.2386
31405SOL     OW97616   2.125   2.718   0.916 -0.3951 -0.3507  0.6543
31405SOL    HW197617   2.109   2.632   0.955 -2.5194  0.4382  1.6625
31405SOL    HW297618   2.130   2.778   0.990  2.2491  0.3244  0.0576
31406SOL     OW97619   5.053   7.208   4.767 -0.8843  0.5470  0.3919
31406SOL    HW197620   5.134   7.255   4.747  2.0093 -3.0385  2.4219
31406SOL    HW297621   4.984   7.258   4.723  2.4396  3.5316 -1.9457
31407SOL     OW97622   4.272   2.148   4.552  0.3197 -0.0986 -0.7466
31407SOL    HW197623   4.202   2.125   4.491 -0.2295  1.4187 -0.7341
31407SOL    HW297624   4.255   2.094   4.630  1.0689 -2.1047 -1.8977
31408SOL     OW97625   8.424   6.167   3.248 -0.4910 -0.2168  0.1494
31408SOL    HW197626   8.421   6.104   3.176  0.9818 -0.2688  0.1007
31408SOL    HW297627   8.440   6.113   3.326  0.3059  0.0511  0.1741
31409SOL     OW97628   2.888   1.690   6.182 -0.0683  0.6765 -0.1915
31409SOL    HW197629   2.836   1.614   6.208  1.5101 -0.1962  0.5285
31409SOL    HW297630   2.891   1.687   6.087 -0.6687  0.2923 -0.2003
31410SOL     OW97631   3.380   1.288   5.585  0.4676  0.0172  0.2579
31410SOL    HW197632   3.366   1.366   5.639 -0.8320 -0.8053  1.1668
31410SOL    HW297633   3.475   1.274   5.588  0.6266  1.0697  0.7697
31411SOL     OW97634   0.888   1.551   2.547 -0.3759  0.7908 -0.1398
31411SOL    HW197635   0.973   1.512   2.527  0.1033  2.0303 -0.5718
31411SOL    HW297636   0.898   1.586   2.636 -0.7209  0.1860  0.1442
31412SOL     OW97637   7.563   1.136   7.279 -0.5234 -0.6098 -0.1823
31412SOL    HW197638   7.544   1.065   7.218 -0.2914 -1.7640  1.0539
31412SOL    HW297639   7.647   1.112   7.318  0.5903  1.3811 -1.1796
31413SOL     OW97640   5.599   3.851   6.742 -0.2912 -0.2044 -0.0558
31413SOL    HW197641   5.616   3.772   6.793  0.1147  0.6039  1.1033
31413SOL    HW297642   5.669   3.852   6.676  0.3739 -0.2474  0.6330
31414SOL     OW97643   8.206   4.517   9.435 -0.2109  0.3663  0.3883
31414SOL    HW197644   8.192   4.427   9.405 -0.2073  0.3832  0.3357
31414SOL    HW297645   8.137   4.532   9.500  0.2330  0.0798  0.9295
31415SOL     OW97646   9.888   5.524   7.499  0.0588 -0.0129 -0.5807
31415SOL    HW197647   9.917   5.558   7.415  0.9308  1.0571  0.1167
31415SOL    HW297648   9.963   5.536   7.557 -1.0165  0.7067  0.7268
31416SOL     OW97649   7.009   3.869   6.571  0.1604  0.2272 -0.1731
31416SOL    HW197650   7.004   3.778   6.542  2.6826  0.0587 -0.2570
31416SOL    HW297651   7.041   3.917   6.494 -0.5941  1.1131  0.0416
31417SOL     OW97652   2.672   3.983  10.268 -0.0682  0.1219 -0.0340
31417SOL    HW197653   2.589   4.029  10.262 -0.1602  0.0540  0.6335
31417SOL    HW297654   2.663   3.910  10.206  0.3766  1.4075 -1.6873
31418SOL     OW97655   1.697   3.234   9.724 -0.5970 -0.5725  0.4262
31418SOL    HW197656   1.773   3.199   9.677 -1.0217 -1.1523  0.1534
31418SOL    HW297657   1.714   3.328   9.730 -0.2767 -0.5616 -0.4348
31419SOL     OW97658   9.169  10.784   7.249  0.0279  0.6538  0.3498
31419SOL    HW197659   9.256  10.771   7.287  0.7317  2.3902 -0.5686
31419SOL    HW297660   9.163  10.716   7.181  0.8108  0.7292  0.1907
31420SOL     OW97661   4.760   2.573   9.228  0.2436  0.0915  0.0027
31420SOL    HW197662   4.709   2.506   9.183 -0.3511  0.1945  0.5136
31420SOL    HW297663   4.724   2.656   9.198  0.0859  0.1640  0.3825
31421SOL     OW97664   3.483  10.368   6.516 -0.4403  0.4535  0.1311
31421SOL    HW197665   3.448  10.339   6.432  0.8764 -0.0790 -0.2579
31421SOL    HW297666   3.492  10.463   6.508 -0.7931  0.4621 -0.1483
31422SOL     OW97667   0.833   9.385   3.725  0.1317 -0.1897  0.1461
31422SOL    HW197668   0.779   9.314   3.759 -0.1253  0.2715  0.7409
31422SOL    HW297669   0.923   9.356   3.738  0.0336 -1.1184 -1.1841
31423SOL     OW97670   7.326   1.543   2.421 -0.4612  0.1463 -0.5541
31423SOL    HW197671   7.269   1.496   2.483 -0.1504 -0.5546 -0.7854
31423SOL    HW297672   7.408   1.494   2.422  0.7107  2.0072  0.9105
31424SOL     OW97673   1.843   5.807   7.622 -0.2392  0.2536 -0.9171
31424SOL    HW197674   1.846   5.893   7.664 -0.6580  0.3788 -1.1316
31424SOL    HW297675   1.929   5.768   7.639 -0.5160  0.1509  0.3574
31425SOL     OW97676   2.126   7.911   5.458  0.2372 -0.2486  0.0063
31425SOL    HW197677   2.086   7.997   5.444 -0.3337 -0.3916  0.6796
31425SOL    HW297678   2.052   7.850   5.454  0.3829 -0.5264  1.2252
31426SOL     OW97679   5.593   5.440   3.900  0.5643 -0.2478 -0.2795
31426SOL    HW197680   5.637   5.466   3.820 -0.3343 -0.2307 -0.7889
31426SOL    HW297681   5.651   5.376   3.940  1.1320 -0.0857 -0.8230
31427SOL     OW97682   2.534   6.856   2.483  0.2999 -0.4099 -0.2122
31427SOL    HW197683   2.439   6.861   2.497  0.4155  2.3538  0.1158
31427SOL    HW297684   2.570   6.837   2.569  0.0855 -0.6078 -0.1654
31428SOL     OW97685   9.732   0.791   8.026 -0.5667  0.2958 -0.0752
31428SOL    HW197686   9.741   0.834   7.941  0.7231 -0.2241 -0.2211
31428SOL    HW297687   9.785   0.844   8.085 -1.7800  0.8912  0.5349
31429SOL     OW97688   7.026   4.195   4.288  0.2367 -0.2962  0.3973
31429SOL    HW197689   6.993   4.106   4.275  0.2820 -0.1115 -1.1648
31429SOL    HW297690   7.112   4.183   4.329 -0.3786 -0.8882  1.5714
31430SOL     OW97691   6.150   6.053   9.812 -0.2561 -0.5887 -0.5251
31430SOL    HW197692   6.225   5.993   9.811  0.4310  0.2462  0.2529
31430SOL    HW297693   6.158   6.101   9.894 -1.3287 -0.0751 -0.7028
31431SOL     OW97694   6.116  10.491   2.749  0.5101 -0.0071 -1.0753
31431SOL    HW197695   6.202  10.460   2.719  0.2921 -0.9904 -0.7222
31431SOL    HW297696   6.054  10.426   2.717  0.2731 -1.1705  1.4794
31432SOL     OW97697   9.661   9.605   6.411  0.1618  0.4323 -0.1543
31432SOL    HW197698   9.612   9.533   6.372  1.6556 -1.3144  0.9868
31432SOL    HW297699   9.627   9.684   6.369 -2.1433 -0.8414 -0.8441
31433SOL     OW97700   7.463   4.297   5.267 -0.0275 -0.0637  0.6152
31433SOL    HW197701   7.398   4.360   5.236  1.1089  1.8091  1.7869
31433SOL    HW297702   7.523   4.286   5.193  0.1274  0.7630  0.6122
31434SOL     OW97703   9.860   5.160   8.588 -0.4636 -0.0041  0.0309
31434SOL    HW197704   9.885   5.185   8.677  2.0776  0.2591 -0.6877
31434SOL    HW297705   9.831   5.242   8.548 -1.7850 -0.1519  0.6016
31435SOL     OW97706   4.757   6.535   0.847 -0.1305 -0.0043 -0.3847
31435SOL    HW197707   4.752   6.593   0.771 -0.3017 -1.6767 -1.6980
31435SOL    HW297708   4.685   6.473   0.835 -0.0868 -0.3842  1.0960
31436SOL     OW97709   7.178  10.190   4.650  0.1058  0.0377 -0.5907
31436SOL    HW197710   7.187  10.149   4.564  1.5201 -0.7550 -0.0996
31436SOL    HW297711   7.268  10.196   4.682 -0.2829  1.5145  0.2973
31437SOL     OW97712   1.345   3.880   4.867  0.3189  0.5635 -0.2650
31437SOL    HW197713   1.267   3.825   4.873  1.0846 -0.4773  0.4785
31437SOL    HW297714   1.383   3.858   4.781 -0.8088  1.9525 -1.1662
31438SOL     OW97715   1.328   0.468   6.964 -0.2947  0.0645 -0.3683
31438SOL    HW197716   1.355   0.417   7.040 -0.8823  0.6426  0.2485
31438SOL    HW297717   1.410   0.487   6.917 -0.0168 -0.9699 -0.3196
31439SOL     OW97718   8.719  10.524   3.347 -0.2302 -0.1561 -0.4869
31439SOL    HW197719   8.749  10.556   3.432 -0.9608 -1.1973  0.1889
31439SOL    HW297720   8.795  10.533   3.290  0.0164  1.3733  0.0300
31440SOL     OW97721   9.542   2.229   4.400 -0.1692 -0.4177 -0.3956
31440SOL    HW197722   9.468   2.273   4.358 -0.9929  1.8772  3.0559
31440SOL    HW297723   9.617   2.286   4.382 -0.0225 -0.7105 -0.7212
31441SOL     OW97724   8.867   3.168   0.050 -0.1454 -0.1602  0.2501
31441SOL    HW197725   8.939   3.209   0.098 -0.2852 -0.8118  1.0492
31441SOL    HW297726   8.787   3.202   0.092 -0.4752  2.8597 -2.4995
31442SOL     OW97727  10.690  10.807   6.965  0.2146 -0.3539  0.6474
31442SOL    HW197728  10.635  10.783   7.040 -1.2431  1.1212  0.1135
31442SOL    HW297729  10.709  10.900   6.979  0.5688 -0.2585 -0.4163
31443SOL     OW97730   7.137  10.510   4.133  0.2334 -0.1679  0.3519
31443SOL    HW197731   7.118  10.530   4.224  2.0638  0.9091  0.5303
31443SOL    HW297732   7.206  10.443   4.136 -1.5860 -2.2196 -0.2884
31444SOL     OW97733   2.155   4.610   3.983 -0.1196 -0.0238  0.7148
31444SOL    HW197734   2.192   4.570   4.063 -0.0112  1.4998  1.4551
31444SOL    HW297735   2.090   4.672   4.015  0.7907  1.5208 -0.2882
31445SOL     OW97736   5.278   5.536   8.879 -0.7525 -0.2754  0.0779
31445SOL    HW197737   5.184   5.528   8.861 -0.6812  1.2246 -1.1905
31445SOL    HW297738   5.317   5.557   8.794  0.7013 -0.5351  0.6496
31446SOL     OW97739   8.392   1.533   9.912  0.3327 -0.2274 -0.3096
31446SOL    HW197740   8.327   1.594   9.877  0.3827 -0.1017 -0.1854
31446SOL    HW297741   8.476   1.573   9.890  0.3748 -0.5602 -0.7739
31447SOL     OW97742   9.500  10.892   5.542 -0.6589  0.4568 -0.3228
31447SOL    HW197743   9.442  10.816   5.539 -2.2762  1.5534  1.3899
31447SOL    HW297744   9.573  10.868   5.484 -1.0675 -2.3905  0.1887
31448SOL     OW97745   8.590   0.496   2.328  0.7255  0.3691  0.0827
31448SOL    HW197746   8.566   0.545   2.250  1.7458  0.7843  0.0172
31448SOL    HW297747   8.652   0.429   2.297  2.8443  1.8842  0.7967
31449SOL     OW97748  10.621   1.486   1.170  0.7171  0.3594  0.1691
31449SOL    HW197749  10.716   1.484   1.183  1.1620  0.2692 -2.5350
31449SOL    HW297750  10.601   1.404   1.126 -0.5718  0.5478  0.3599
31450SOL     OW97751   7.205   2.597  10.582  0.0244 -0.1858  0.2743
31450SOL    HW197752   7.213   2.521  10.640 -1.6997  0.3612  1.3021
31450SOL    HW297753   7.149   2.658  10.630  1.8533  2.0485 -0.2228
31451SOL     OW97754   3.754   4.222   0.753  0.0844  0.3154  0.0321
31451SOL    HW197755   3.725   4.313   0.744  1.0405  0.8192  1.6959
31451SOL    HW297756   3.836   4.217   0.703 -0.6500 -0.0266 -1.1939
31452SOL     OW97757   4.639   6.463   0.373  0.2823 -0.0518 -0.3086
31452SOL    HW197758   4.567   6.401   0.387 -0.1168  0.3977 -0.3294
31452SOL    HW297759   4.604   6.527   0.311  0.4423  0.5921  0.2524
31453SOL     OW97760   8.463   7.327   1.482 -0.0422  0.2210 -0.0208
31453SOL    HW197761   8.386   7.367   1.522  0.9807  1.1638  1.1062
31453SOL    HW297762   8.514   7.401   1.449  0.6086 -0.3546 -0.3434
31454SOL     OW97763   6.075   3.161   3.352  0.1240  0.6272 -0.2654
31454SOL    HW197764   6.008   3.116   3.402 -0.6557  1.2221 -0.7396
31454SOL    HW297765   6.149   3.171   3.412 -0.6919  1.1030  0.6802
31455SOL     OW97766   0.400   4.471   3.077 -0.4899  0.5901  0.1109
31455SOL    HW197767   0.327   4.452   3.136 -0.5144 -0.6409 -0.2807
31455SOL    HW297768   0.358   4.499   2.996 -0.5149  0.3353  0.0355
31456SOL     OW97769  10.023   0.884   8.452 -0.4136 -0.6615  0.5307
31456SOL    HW197770   9.990   0.806   8.406 -0.6892  0.8270 -2.0162
31456SOL    HW297771   9.959   0.900   8.520 -1.7208 -1.2817 -0.4962
31457SOL     OW97772   5.748   9.514   0.208 -0.6388 -0.1727  0.1408
31457SOL    HW197773   5.715   9.575   0.275 -0.1798 -0.1338  0.3371
31457SOL    HW297774   5.753   9.430   0.253  0.2947 -0.0150  0.3602
31458SOL     OW97775   4.366   2.205   6.550 -0.0362 -0.0684  0.2404
31458SOL    HW197776   4.448   2.213   6.599  0.5874 -0.6435 -0.6626
31458SOL    HW297777   4.300   2.183   6.616  0.6824 -0.3401  0.8785
31459SOL     OW97778   7.217   4.578   2.812 -0.5139  0.0074  0.1982
31459SOL    HW197779   7.173   4.496   2.789  0.4013 -0.7380  0.9405
31459SOL    HW297780   7.306   4.550   2.837 -0.6443  1.0147  2.0024
31460SOL     OW97781  10.827   0.622   5.910 -0.1428 -0.6756  0.5867
31460SOL    HW197782  10.812   0.696   5.969 -1.1045 -0.3486 -0.0365
31460SOL    HW297783  10.912   0.588   5.935  0.2519  0.5559  0.9914
31461SOL     OW97784   9.767   8.330  10.847  0.3708 -0.1415 -0.6276
31461SOL    HW197785   9.728   8.416  10.861  0.4086 -0.2056 -0.1157
31461SOL    HW297786   9.760   8.316  10.753 -0.0815  0.2112 -0.6522
31462SOL     OW97787   9.089  10.478   0.077  0.5187 -0.3635  0.3489
31462SOL    HW197788   9.152  10.471   0.005 -0.6095 -0.8165 -0.6345
31462SOL    HW297789   9.114  10.558   0.124  0.2299  0.9665 -1.6257
31463SOL     OW97790   7.455   5.837   2.880  0.6561  0.3626 -0.0753
31463SOL    HW197791   7.453   5.748   2.845  0.8696 -0.0266  0.8717
31463SOL    HW297792   7.419   5.891   2.810 -2.8007 -0.8798  0.5502
31464SOL     OW97793   3.544   2.766   7.116 -0.0142  0.1505  0.3315
31464SOL    HW197794   3.553   2.672   7.107  0.3346  0.1956  0.1788
31464SOL    HW297795   3.632   2.800   7.099 -0.5771  0.6706 -1.9757
31465SOL     OW97796   7.558  10.721   2.460 -0.2218  0.3586 -0.2770
31465SOL    HW197797   7.554  10.681   2.547 -1.2765 -0.6422 -0.7612
31465SOL    HW297798   7.551  10.648   2.399  1.8151  0.9193 -1.2488
31466SOL     OW97799   5.537   8.393   3.886 -0.1504  0.8171  0.3386
31466SOL    HW197800   5.526   8.482   3.922 -1.2958  0.5972  0.5684
31466SOL    HW297801   5.553   8.406   3.793  0.3673  1.2890  0.4872
31467SOL     OW97802   7.394   7.681   3.121  0.7644  0.3694 -0.0990
31467SOL    HW197803   7.320   7.625   3.145  2.1695 -1.0457  1.1914
31467SOL    HW297804   7.373   7.766   3.160 -0.5271  0.2228 -0.4355
31468SOL     OW97805   3.561  10.507   2.809  0.3240 -0.0124  0.9860
31468SOL    HW197806   3.514  10.538   2.731  0.2780 -2.1674  0.0822
31468SOL    HW297807   3.627  10.575   2.825 -0.5965  1.1883 -0.0420
31469SOL     OW97808   0.704   7.838   1.537 -0.1561  0.0816  0.3716
31469SOL    HW197809   0.723   7.925   1.504  1.6186 -0.3572  0.0958
31469SOL    HW297810   0.638   7.803   1.476  0.1601  0.7141 -0.3527
31470SOL     OW97811   6.126   7.600  10.843  0.3659 -0.2379 -0.2954
31470SOL    HW197812   6.066   7.563  10.907 -1.2054 -0.2898 -1.7317
31470SOL    HW297813   6.165   7.676  10.887 -0.1013 -0.7185  0.9671
31471SOL     OW97814   5.655  10.571   6.463  0.1927  0.1428  0.2553
31471SOL    HW197815   5.607  10.584   6.544  1.0170 -1.6226  1.0869
31471SOL    HW297816   5.591  10.534   6.402  0.2004 -1.1502  1.0016
31472SOL     OW97817   5.541   8.091   6.524  0.8915  0.6882 -0.2379
31472SOL    HW197818   5.615   8.107   6.466  0.2979  1.2852 -0.8485
31472SOL    HW297819   5.531   8.172   6.574  1.4474  0.1514  0.7693
31473SOL     OW97820   6.036   2.442   4.327  0.1132 -0.1387  0.6216
31473SOL    HW197821   6.057   2.522   4.279 -0.8090  0.7995  1.6977
31473SOL    HW297822   5.993   2.473   4.408  1.4035 -1.6420  1.9591
31474SOL     OW97823   5.205   9.635   2.138 -0.0569 -0.0069  0.1210
31474SOL    HW197824   5.156   9.578   2.198  2.0326 -1.2348  0.7552
31474SOL    HW297825   5.247   9.700   2.195  0.7457 -0.2746 -0.1517
31475SOL     OW97826  10.433   9.501   4.323  0.4031  0.1621 -0.0414
31475SOL    HW197827  10.351   9.538   4.354 -0.2225 -0.0334 -1.4276
31475SOL    HW297828  10.445   9.421   4.376  0.1250  0.6039  0.7064
31476SOL     OW97829   3.348   4.773   0.793 -0.5419  0.6192  0.8808
31476SOL    HW197830   3.367   4.789   0.886 -1.6871  1.5807  0.9815
31476SOL    HW297831   3.253   4.762   0.791 -0.3632 -1.0831  0.0335
31477SOL     OW97832   7.502   4.590   4.580 -0.0690 -0.7586 -0.4683
31477SOL    HW197833   7.459   4.673   4.559  0.0825 -0.5952 -0.1436
31477SOL    HW297834   7.596   4.608   4.570 -0.0291 -0.8516 -0.2578
31478SOL     OW97835   5.286   4.367   1.210 -0.6279  0.3520  0.1859
31478SOL    HW197836   5.248   4.282   1.232 -1.2096  0.7372  0.7070
31478SOL    HW297837   5.336   4.392   1.289  1.1580 -0.3701 -0.6597
31479SOL     OW97838   8.814   7.809   4.701  0.7363  0.4827  0.6210
31479SOL    HW197839   8.721   7.788   4.711  1.0027 -0.6821  0.8303
31479SOL    HW297840   8.852   7.786   4.786  1.3948 -0.1241  0.1665
31480SOL     OW97841   6.543   2.606   3.429  0.3218 -0.1003 -0.2687
31480SOL    HW197842   6.562   2.512   3.432  0.3344 -0.0874  0.0210
31480SOL    HW297843   6.575   2.640   3.512  2.4740  0.5571 -1.2932
31481SOL     OW97844   9.188   9.827   5.754  0.9090 -0.1112  0.0291
31481SOL    HW197845   9.197   9.894   5.686  1.0369 -0.3244 -0.1669
31481SOL    HW297846   9.250   9.852   5.822 -0.9463  1.5014  1.2319
31482SOL     OW97847   5.365   0.555   6.915  0.3635  0.1159 -0.0462
31482SOL    HW197848   5.370   0.521   7.004  0.0667  0.9965  0.3174
31482SOL    HW297849   5.279   0.597   6.910  0.5289  0.3987 -0.6305
31483SOL     OW97850   4.760   0.595   8.065  0.1917  0.2555  0.5937
31483SOL    HW197851   4.832   0.629   8.012 -0.3417 -0.9625 -1.0382
31483SOL    HW297852   4.750   0.504   8.035  0.0311 -0.6178  3.0497
31484SOL     OW97853   8.301  10.024   6.072 -0.2369  0.3651  0.6372
31484SOL    HW197854   8.306  10.022   5.977 -1.1011 -0.0800  0.5895
31484SOL    HW297855   8.263  10.109   6.093  0.7302  0.8061  0.6347
31485SOL     OW97856   2.505   2.846   9.209 -0.1032 -0.0978 -0.5926
31485SOL    HW197857   2.537   2.904   9.279 -0.6063  0.5042 -0.8574
31485SOL    HW297858   2.569   2.857   9.138 -1.8176  2.5668 -1.8715
31486SOL     OW97859   7.950   3.225   3.580  0.1691  0.2635  0.5618
31486SOL    HW197860   7.857   3.249   3.585  0.3561  0.8487  3.8042
31486SOL    HW297861   7.990   3.294   3.528 -1.2368 -0.3326 -1.4390
31487SOL     OW97862   0.700  10.624   5.866  0.4601 -1.1596 -0.2581
31487SOL    HW197863   0.672  10.533   5.860 -0.6048 -0.8692  0.1124
31487SOL    HW297864   0.759  10.636   5.791  1.7352 -2.5182  0.4762
31488SOL     OW97865   2.543   6.891   4.482 -0.0659  0.3743 -0.3124
31488SOL    HW197866   2.507   6.857   4.400 -1.7664  3.5068 -1.0230
31488SOL    HW297867   2.466   6.918   4.533  0.9251 -1.5601  2.4612
31489SOL     OW97868   9.823   7.516   9.351  0.1890 -0.3723  0.2957
31489SOL    HW197869   9.847   7.424   9.342  1.6490 -0.3740  3.1353
31489SOL    HW297870   9.847   7.555   9.267 -0.0445 -2.4521 -0.8091
31490SOL     OW97871   1.194   0.628   8.076 -0.2166  0.3846 -0.9526
31490SOL    HW197872   1.188   0.535   8.056 -1.0675 -0.3584  2.2653
31490SOL    HW297873   1.288   0.646   8.079 -0.0457 -0.2972 -1.7706
31491SOL     OW97874   4.052   0.091   9.217 -0.2127  0.0749 -0.3243
31491SOL    HW197875   3.991   0.032   9.261 -0.7564  0.5056 -0.4871
31491SOL    HW297876   4.125   0.100   9.279 -0.9706  0.6839  0.5265
31492SOL     OW97877   4.682   9.808   7.541 -0.1637  0.4556  0.3820
31492SOL    HW197878   4.731   9.793   7.460 -0.4579 -1.9695  0.5918
31492SOL    HW297879   4.590   9.806   7.515 -0.2423  0.5123  0.6503
31493SOL     OW97880   3.693   7.415   8.526 -0.0642 -0.3269  0.3250
31493SOL    HW197881   3.694   7.499   8.480  2.2738 -0.9894 -1.0071
31493SOL    HW297882   3.654   7.354   8.464 -0.5483 -0.4910  0.7832
31494SOL     OW97883   8.190   4.847   0.754  0.1426 -0.1897 -0.0166
31494SOL    HW197884   8.098   4.831   0.773 -0.3297  1.2013 -0.9431
31494SOL    HW297885   8.221   4.768   0.711 -0.7568 -0.4652 -0.1626
31495SOL     OW97886  10.433   7.109   2.433  0.3596 -0.6038 -0.0507
31495SOL    HW197887  10.485   7.189   2.436 -1.5821  0.7289  1.9747
31495SOL    HW297888  10.432   7.084   2.341 -2.2160  4.0954 -1.6637
31496SOL     OW97889  10.096   9.826   9.984 -0.9443  0.5193 -0.2017
31496SOL    HW197890  10.185   9.846   9.956 -0.9156  2.4017  1.0197
31496SOL    HW297891  10.102   9.740  10.025  0.5666  1.0495  0.7691
31497SOL     OW97892   7.745   8.898   9.584 -0.5964 -0.1014  0.2232
31497SOL    HW197893   7.678   8.905   9.517 -0.5263  0.3692  0.1954
31497SOL    HW297894   7.793   8.981   9.578 -0.4840 -0.1268  0.7360
31498SOL     OW97895   2.070   1.755   4.975  0.6263 -0.4159 -0.5126
31498SOL    HW197896   2.073   1.679   4.916  0.3327 -1.5475  0.8677
31498SOL    HW297897   2.139   1.737   5.040  0.7586  0.6563 -0.3416
31499SOL     OW97898   2.375  10.666   9.710  0.0143  0.4567 -0.5106
31499SOL    HW197899   2.392  10.699   9.622  0.5671  0.9268 -0.2343
31499SOL    HW297900   2.282  10.647   9.711 -0.1501  1.1937 -0.9497
31500SOL     OW97901   7.142   6.582   3.089  0.7911  0.0308 -0.4124
31500SOL    HW197902   7.209   6.639   3.051  0.0251  0.2256 -1.4943
31500SOL    HW297903   7.105   6.534   3.015 -1.0529  0.7557 -0.0200
31501SOL     OW97904  10.483   3.695   0.002  0.1592 -0.0889  0.6367
31501SOL    HW197905  10.456   3.747  -0.073 -1.5864 -2.1133 -0.2428
31501SOL    HW297906  10.485   3.757   0.075 -0.0656  1.5259 -0.6798
31502SOL     OW97907   1.094   9.405   9.990  0.7245  0.3094 -0.4950
31502SOL    HW197908   1.018   9.350  10.008  0.1312  0.0431 -3.3162
31502SOL    HW297909   1.076   9.487  10.036 -0.9466  0.0095 -0.5606
31503SOL     OW97910   8.489   1.306   7.732  0.1775  0.4590 -0.5248
31503SOL    HW197911   8.451   1.273   7.651 -0.3286 -2.1047  0.6593
31503SOL    HW297912   8.581   1.281   7.728  0.4437  1.4425 -0.8239
31504SOL     OW97913  10.902   1.938  10.903 -0.0867  0.0163 -0.0959
31504SOL    HW197914  10.893   1.843  10.902 -2.5523  0.1784  0.0665
31504SOL    HW297915  10.995   1.954  10.917 -0.0143 -2.4007  3.1253
31505SOL     OW97916   4.677   8.624   2.396 -0.2188  0.2006 -0.3257
31505SOL    HW197917   4.659   8.612   2.303  0.5319 -1.0022 -0.3435
31505SOL    HW297918   4.716   8.711   2.402 -0.3050  0.3036 -1.1387
31506SOL     OW97919   6.669   1.514   6.642 -0.7309 -0.1739  0.1956
31506SOL    HW197920   6.704   1.549   6.560 -0.0177  1.6866  1.2149
31506SOL    HW297921   6.659   1.591   6.698 -0.1099 -1.4866  2.2397
31507SOL     OW97922   5.812   4.475   1.796  0.3280 -0.3739  0.0969
31507SOL    HW197923   5.901   4.500   1.772 -0.0635  1.1453  0.1143
31507SOL    HW297924   5.788   4.536   1.866 -2.0984  1.9744 -2.5231
31508SOL     OW97925   2.562   4.538   8.227 -0.1753  0.1292 -0.1341
31508SOL    HW197926   2.522   4.617   8.190 -0.1986  0.6450  0.9511
31508SOL    HW297927   2.501   4.468   8.205 -1.7668  0.9030  1.5210
31509SOL     OW97928   1.006   8.056   4.035  0.7574  0.0321 -0.1805
31509SOL    HW197929   0.917   8.020   4.033  0.7029  0.1964 -1.0927
31509SOL    HW297930   1.000   8.139   3.988  1.2501  0.4073  0.3932
31510SOL     OW97931   6.403   6.918   2.845 -0.0609  0.5654 -0.0332
31510SOL    HW197932   6.450   6.988   2.891  0.5419  0.7617 -0.9110
31510SOL    HW297933   6.353   6.964   2.777 -2.5399  0.4973  1.6028
31511SOL     OW97934   6.729   8.634   4.846 -0.2148 -0.1251  0.4936
31511SOL    HW197935   6.800   8.681   4.890  0.9905 -2.1556  0.8934
31511SOL    HW297936   6.677   8.702   4.803  2.4398  1.4264 -0.4895
31512SOL     OW97937   0.832   0.353   5.662 -0.1994 -0.1535 -0.2167
31512SOL    HW197938   0.814   0.375   5.570 -2.9952  0.1853  0.3263
31512SOL    HW297939   0.865   0.264   5.659  1.8937  0.5973 -1.6812
31513SOL     OW97940   6.982   1.460   8.505  0.1821 -0.0591 -0.0141
31513SOL    HW197941   6.902   1.443   8.455 -0.2278  0.2092  0.5332
31513SOL    HW297942   6.979   1.396   8.577  0.7398 -0.4112 -0.2993
31514SOL     OW97943   9.716   9.157   3.744  0.3524  0.1126  0.2152
31514SOL    HW197944   9.685   9.222   3.680 -1.8601  2.1831  3.1352
31514SOL    HW297945   9.752   9.087   3.690 -3.5345  0.5283 -3.4977
31515SOL     OW97946   3.548   2.764  10.666  0.2937  0.0608  0.5197
31515SOL    HW197947   3.639   2.738  10.657 -0.3150 -1.5282 -2.3485
31515SOL    HW297948   3.523   2.795  10.579 -1.5804  1.7901  1.5719
31516SOL     OW97949   2.670  10.843   6.847  0.2759  0.7712  0.1642
31516SOL    HW197950   2.634  10.843   6.936  0.3041  0.5359  0.1761
31516SOL    HW297951   2.763  10.863   6.859  0.8103 -1.5765  0.4145
31517SOL     OW97952   7.132   0.460   9.413 -0.3838  0.5305  0.0630
31517SOL    HW197953   7.173   0.536   9.373  0.8716  1.1770  2.4361
31517SOL    HW297954   7.205   0.400   9.432 -1.2652 -1.0125 -1.1117
31518SOL     OW97955   0.635   2.995   2.735 -0.1556 -0.6831 -0.0750
31518SOL    HW197956   0.542   2.979   2.724 -0.1850 -0.9783  0.6017
31518SOL    HW297957   0.677   2.911   2.715 -0.0706 -0.6903  0.1324
31519SOL     OW97958  10.058   6.451   4.365 -0.5793  0.0189 -0.3397
31519SOL    HW197959  10.134   6.507   4.353  0.4664 -1.5445 -1.3708
31519SOL    HW297960  10.089   6.379   4.420 -0.5990 -1.8077 -2.5417
31520SOL     OW97961   8.131   9.279   2.289 -0.4199 -0.2528 -0.0089
31520SOL    HW197962   8.109   9.219   2.361  0.8204 -0.5859  0.1217
31520SOL    HW297963   8.213   9.244   2.254 -0.6468  0.3197 -1.1422
31521SOL     OW97964   2.286   7.823   4.596 -0.4166 -0.2878  0.2788
31521SOL    HW197965   2.276   7.895   4.534 -1.2818 -0.2061  0.4895
31521SOL    HW297966   2.324   7.752   4.545 -1.5028 -0.3602 -0.4681
31522SOL     OW97967   2.980   2.768   3.003 -0.4648  0.4195  0.3107
31522SOL    HW197968   3.053   2.819   3.039 -0.9255  0.6328  0.9641
31522SOL    HW297969   3.021   2.685   2.976 -0.0281  0.3947  0.9991
31523SOL     OW97970   9.483   9.456   2.101 -0.7284  0.1537 -0.1522
31523SOL    HW197971   9.408   9.438   2.045  0.0465 -0.3845 -1.0409
31523SOL    HW297972   9.550   9.490   2.042  0.5891 -1.7224  0.1710
31524SOL     OW97973   1.700  10.772   6.738 -0.2121  1.0775 -0.4100
31524SOL    HW197974   1.731  10.821   6.814 -0.3474 -0.8943  0.9866
31524SOL    HW297975   1.744  10.687   6.744 -1.0346  0.4945 -1.9569
31525SOL     OW97976   0.445   2.049   1.004  0.1941  0.3186 -0.6308
31525SOL    HW197977   0.427   2.101   0.926  0.4947 -0.6406 -1.3540
31525SOL    HW297978   0.539   2.060   1.019  0.3339 -0.3101 -1.0132
31526SOL     OW97979   3.986   9.512   0.320 -0.6680 -0.2978  0.7118
31526SOL    HW197980   4.010   9.422   0.298 -0.1266  0.0611 -0.2588
31526SOL    HW297981   3.934   9.542   0.246  1.5707  1.0915 -0.4040
31527SOL     OW97982   2.523   9.839   9.087  0.3425 -0.2596  0.2759
31527SOL    HW197983   2.612   9.803   9.084 -0.3410 -1.9732 -0.6884
31527SOL    HW297984   2.489   9.810   9.172 -0.0496 -1.5695 -0.3084
31528SOL     OW97985   8.999   6.460   8.337  0.0921 -0.3990  0.0450
31528SOL    HW197986   8.919   6.475   8.388 -0.3839  0.4994 -0.9308
31528SOL    HW297987   9.067   6.446   8.403 -0.8129 -0.9549  0.9029
31529SOL     OW97988   5.063   3.962   0.007  0.0861  0.0513 -0.0812
31529SOL    HW197989   5.158   3.954  -0.005  0.1985  0.6885  0.3710
31529SOL    HW297990   5.031   3.997  -0.076  0.1031 -1.1384 -0.6149
31530SOL     OW97991   4.043   3.480   5.435 -0.7153 -0.3528  0.2525
31530SOL    HW197992   3.962   3.529   5.420 -0.3711  0.3384  0.5797
31530SOL    HW297993   4.017   3.402   5.484 -0.8948  1.0985  2.6147
31531SOL     OW97994   7.738   2.861   2.450 -0.2864  0.4637 -0.4392
31531SOL    HW197995   7.702   2.835   2.535  0.4407  1.1312  0.0830
31531SOL    HW297996   7.832   2.871   2.466  0.5388 -2.8998 -2.1293
31532SOL     OW97997   0.714   5.442   9.395 -0.2565 -0.1455  0.2142
31532SOL    HW197998   0.710   5.537   9.384  0.0100  0.0932  1.9695
31532SOL    HW297999   0.720   5.408   9.305  1.2319  1.5709 -0.3986
31533SOL     OW98000   9.456   2.241   6.651  0.6851  0.4437 -0.2200
31533SOL    HW198001   9.375   2.259   6.698  0.8036  0.7421 -0.1301
31533SOL    HW298002   9.504   2.179   6.706 -0.3112 -1.1979 -1.1450
31534SOL     OW98003   6.721   1.697   0.623  0.2368  0.0941 -0.2293
31534SOL    HW198004   6.703   1.695   0.717  1.7899  0.5500  0.1096
31534SOL    HW298005   6.741   1.788   0.604  0.2923 -0.0591 -0.9271
31535SOL     OW98006   0.880   4.688   2.718  0.2082  0.6167 -0.4646
31535SOL    HW198007   0.878   4.631   2.794 -0.0764  1.1068 -0.0950
31535SOL    HW298008   0.891   4.629   2.644  1.1023  0.1733 -0.0058
31536SOL     OW98009   9.033   0.403   9.317 -0.2911 -0.1108  0.3267
31536SOL    HW198010   9.000   0.314   9.302 -0.9458  0.0763  0.6566
31536SOL    HW298011   9.043   0.440   9.228 -1.1914 -0.0888  0.2321
31537SOL     OW98012   9.211   1.236   9.937  0.0548  0.2417 -0.0272
31537SOL    HW198013   9.199   1.228  10.032  2.7211  0.9153  0.4352
31537SOL    HW298014   9.158   1.165   9.900 -3.3486  1.6685  1.7080
31538SOL     OW98015   9.478   8.306   2.494  0.3469  0.6577  0.1987
31538SOL    HW198016   9.561   8.324   2.539  0.5638 -0.9231  0.5088
31538SOL    HW298017   9.412   8.347   2.549  0.6916 -0.4793  1.5325
31539SOL     OW98018   4.568   4.851   4.268  0.5656 -0.5997 -0.2217
31539SOL    HW198019   4.514   4.918   4.309 -1.5630 -1.8178 -0.8640
31539SOL    HW298020   4.646   4.897   4.239  1.0731  0.7831  2.9250
31540SOL     OW98021   4.057   4.644   9.307  0.5071  0.0827 -0.1799
31540SOL    HW198022   4.139   4.674   9.269  0.4011  0.4384 -0.1292
31540SOL    HW298023   3.990   4.699   9.266  0.3986  0.5237  0.5788
31541SOL     OW98024   4.226   8.957   8.027  0.0812  0.3947  0.3895
31541SOL    HW198025   4.153   8.989   7.973  1.7314 -0.7921 -2.8073
31541SOL    HW298026   4.282   9.034   8.039 -0.5582  0.7904  0.9198
31542SOL     OW98027   6.748  10.919   6.079 -0.4672 -0.2687 -0.1358
31542SOL    HW198028   6.824  10.971   6.103  1.3135 -2.6899 -0.1347
31542SOL    HW298029   6.704  10.970   6.011  0.3353  1.8203  0.8278
31543SOL     OW98030   1.837   1.316   6.275  0.0671 -0.0764 -0.3608
31543SOL    HW198031   1.834   1.351   6.186 -0.0337  2.5934  0.6198
31543SOL    HW298032   1.901   1.371   6.320 -0.5602 -0.7905  1.4713
31544SOL     OW98033   2.195   2.004   4.900  0.2708 -0.9117 -0.0134
31544SOL    HW198034   2.260   1.973   4.836 -0.0363 -1.4700 -0.0584
31544SOL    HW298035   2.143   1.926   4.921 -0.6492 -0.3891 -0.2822
31545SOL     OW98036   2.789   5.663   0.484  0.1480  0.1413 -0.3638
31545SOL    HW198037   2.696   5.665   0.464 -0.6328 -1.4316  2.5556
31545SOL    HW298038   2.810   5.753   0.512 -0.1727  0.7633 -2.0206
31546SOL     OW98039   4.717  10.245   7.650  0.6824  0.4773 -0.1446
31546SOL    HW198040   4.659  10.320   7.661  0.8910  0.8361 -1.3555
31546SOL    HW298041   4.658  10.172   7.630  0.6073  0.7419 -0.9141
31547SOL     OW98042   0.974   1.990   7.306  0.5078  0.2341  0.1601
31547SOL    HW198043   0.960   2.067   7.251  0.7378  0.6531  0.6783
31547SOL    HW298044   1.066   1.966   7.291  0.0944 -0.7450 -1.0002
31548SOL     OW98045   8.249   8.284  10.626 -0.4374 -0.1889  0.0716
31548SOL    HW198046   8.298   8.348  10.678  1.0365 -0.3373 -1.0418
31548SOL    HW298047   8.179   8.334  10.586  1.9238  1.3597 -2.5017
31549SOL     OW98048   2.254  10.526  10.229  0.7825  0.4417 -0.4715
31549SOL    HW198049   2.292  10.448  10.191  0.9648 -1.1523  2.6662
31549SOL    HW298050   2.294  10.533  10.316  0.4448  3.8003 -0.4375
31550SOL     OW98051   3.545   6.603   3.965 -0.5422  0.0558 -0.2564
31550SOL    HW198052   3.613   6.603   3.897  0.0514 -1.0914  0.3216
31550SOL    HW298053   3.512   6.693   3.964  1.5199  0.8797 -0.0259
31551SOL     OW98054   3.733   0.511   9.990 -0.5751 -0.0462  0.2333
31551SOL    HW198055   3.677   0.576  10.032 -1.2504  0.8195 -1.8962
31551SOL    HW298056   3.684   0.484   9.913  0.7232 -1.4065 -0.1570
31552SOL     OW98057   8.502   4.439  10.672  0.0210 -0.2977 -0.4586
31552SOL    HW198058   8.555   4.445  10.593  0.9458 -2.4757 -0.0726
31552SOL    HW298059   8.480   4.346  10.680 -3.3417  0.3918 -0.2122
31553SOL     OW98060   9.473   3.266   7.287 -0.3615  0.0214 -0.3339
31553SOL    HW198061   9.544   3.311   7.241 -0.6479 -1.5993 -2.4873
31553SOL    HW298062   9.393   3.297   7.243 -1.0555  1.4594  1.7447
31554SOL     OW98063   0.240   1.534   5.663  0.1387  0.0922  0.0891
31554SOL    HW198064   0.155   1.508   5.700 -0.1141  0.6505 -0.0879
31554SOL    HW298065   0.240   1.629   5.669  0.6030  0.1127 -0.2508
31555SOL     OW98066   7.173   2.760   2.741 -0.5869 -0.2203 -0.5262
31555SOL    HW198067   7.197   2.692   2.678 -0.0398 -2.5353  1.9941
31555SOL    HW298068   7.085   2.787   2.714 -1.0874 -2.3832 -1.3224
31556SOL     OW98069   8.411   7.600   8.206  0.0249  0.1208  0.6207
31556SOL    HW198070   8.352   7.645   8.266 -0.3919  0.6035 -0.1283
31556SOL    HW298071   8.415   7.658   8.129  1.6022  0.1912  0.7222
31557SOL     OW98072   3.271   4.835   9.522  0.2625  0.5350  0.3381
31557SOL    HW198073   3.253   4.795   9.437 -0.4207  1.1131  0.1963
31557SOL    HW298074   3.367   4.843   9.526  0.2808  0.8128 -0.5269
31558SOL     OW98075  10.376   5.557   1.429 -0.0571 -0.4565  0.2071
31558SOL    HW198076  10.398   5.489   1.494 -0.5453 -1.3560 -0.5392
31558SOL    HW298077  10.355   5.508   1.350  0.4849  0.6287 -0.6310
31559SOL     OW98078   1.692   8.643   8.626 -0.4365  0.1079 -0.2422
31559SOL    HW198079   1.707   8.560   8.670 -2.1447 -0.9517 -1.5161
31559SOL    HW298080   1.637   8.621   8.551 -0.9537  2.3979 -0.6239
31560SOL     OW98081   7.197   2.465   8.726  0.4656  0.4238 -0.0313
31560SOL    HW198082   7.182   2.492   8.635  0.2081 -0.8026 -0.3718
31560SOL    HW298083   7.198   2.369   8.723  1.0148  0.3705  1.1765
31561SOL     OW98084   3.204   0.907   1.404 -0.3225  0.2508  0.4136
31561SOL    HW198085   3.235   0.818   1.423 -1.6521 -0.7268 -1.6124
31561SOL    HW298086   3.198   0.950   1.489  1.8821 -1.0512  1.3025
31562SOL     OW98087   0.162   9.130   5.915 -0.3867  0.2725 -0.7052
31562SOL    HW198088   0.128   9.104   5.830  1.2334  0.2918 -1.4003
31562SOL    HW298089   0.233   9.192   5.895  0.5647 -0.3458  0.6030
31563SOL     OW98090   7.160   2.661   7.732  0.1907 -0.5815  0.1512
31563SOL    HW198091   7.161   2.611   7.650  0.2974 -1.5036  0.7098
31563SOL    HW298092   7.166   2.752   7.703  1.1367 -0.9322 -0.8443
31564SOL     OW98093   5.439   3.243   7.017  0.5373  0.7230 -0.3184
31564SOL    HW198094   5.492   3.231   7.096 -0.0282  0.2253 -0.0081
31564SOL    HW298095   5.416   3.335   7.017 -0.7653  0.4333  0.9590
31565SOL     OW98096   2.047   7.039   6.733  0.1456 -0.2430  0.1854
31565SOL    HW198097   1.974   7.099   6.718  1.3412  1.2600  0.2259
31565SOL    HW298098   2.008   6.952   6.723 -1.7829  0.4924  0.8045
31566SOL     OW98099   0.719   7.919   5.850  0.0875  0.3926  0.0008
31566SOL    HW198100   0.769   7.908   5.931  0.5179  0.3140 -0.2788
31566SOL    HW298101   0.631   7.944   5.880 -0.1211 -0.9263  0.5381
31567SOL     OW98102   8.960  10.860   7.886 -0.0936 -0.0197  0.1434
31567SOL    HW198103   8.917  10.945   7.872  0.3428  0.0988 -0.5107
31567SOL    HW298104   9.027  10.878   7.952  0.1277  0.1887 -0.1375
31568SOL     OW98105   2.400   4.711   1.048 -0.1787  0.3948 -0.4650
31568SOL    HW198106   2.325   4.657   1.024 -0.1667 -0.3296  0.9843
31568SOL    HW298107   2.367   4.801   1.041 -0.7347  0.1435 -1.2243
31569SOL     OW98108  10.042   8.994  10.096 -0.9292 -0.1914 -0.3950
31569SOL    HW198109  10.104   8.924  10.076  0.3593  0.9382 -0.4417
31569SOL    HW298110   9.991   9.005  10.016  0.1719  0.2243 -1.0544
31570SOL     OW98111   2.321  10.534   0.316  0.3287  0.1759 -0.0884
31570SOL    HW198112   2.263  10.492   0.252 -0.3486  0.4838  0.3150
31570SOL    HW298113   2.343  10.464   0.378  2.2120 -0.5191 -1.4689
31571SOL     OW98114   8.897   0.277   0.440  0.0458 -0.2625  0.0366
31571SOL    HW198115   8.842   0.286   0.362  0.3411 -1.6023 -0.3542
31571SOL    HW298116   8.871   0.193   0.478 -0.8672  0.8567  2.0324
31572SOL     OW98117   2.540   5.110   0.031 -0.2836  0.3032  0.0533
31572SOL    HW198118   2.499   5.026   0.054 -0.7243 -0.0335 -1.7971
31572SOL    HW298119   2.632   5.088   0.013 -0.0773  0.4682  0.8557
31573SOL     OW98120   1.914  10.790   8.811  0.4550  0.1587 -0.7117
31573SOL    HW198121   1.919  10.723   8.880 -1.4990  0.0864 -0.5773
31573SOL    HW298122   1.999  10.832   8.813  1.2832 -1.4510  0.1029
31574SOL     OW98123   9.077   5.854   1.535  0.3445  0.5954 -0.6315
31574SOL    HW198124   9.119   5.784   1.586 -0.0051  0.3356 -0.6915
31574SOL    HW298125   8.984   5.839   1.548  0.2700  1.6904  0.2046
31575SOL     OW98126  10.179   6.631   2.354 -0.3120  0.1125 -0.1955
31575SOL    HW198127  10.194   6.643   2.448 -0.2100 -2.0092  0.1172
31575SOL    HW298128  10.235   6.696   2.312  2.3258 -1.1073  1.1717
31576SOL     OW98129   2.055   6.583  10.746  0.2268  0.4050 -0.4287
31576SOL    HW198130   2.146   6.556  10.757  0.2104  0.5299  0.0477
31576SOL    HW298131   2.004   6.503  10.758  0.2250  0.4919  0.2068
31577SOL     OW98132   2.192  10.425   0.090  0.0680  0.3293 -0.1410
31577SOL    HW198133   2.243  10.384   0.020  1.4690  1.1837  0.3351
31577SOL    HW298134   2.114  10.371   0.098 -0.7629  0.8773 -3.1809
31578SOL     OW98135   7.796   4.686   3.223  0.1116  0.5029 -0.0550
31578SOL    HW198136   7.796   4.724   3.135 -0.4399 -2.8646 -1.6885
31578SOL    HW298137   7.851   4.608   3.215 -1.2775 -0.8018  2.1412
31579SOL     OW98138   8.877   5.783   7.092  0.0390  0.3583  0.5042
31579SOL    HW198139   8.921   5.807   7.010  1.6203 -1.3710  0.7838
31579SOL    HW298140   8.785   5.806   7.077  0.6585  2.1673 -0.8834
31580SOL     OW98141  10.497   1.071   3.241 -0.4835 -0.2816 -0.0874
31580SOL    HW198142  10.470   1.126   3.314  1.8882  0.8244  0.0488
31580SOL    HW298143  10.538   1.131   3.179  1.0747 -1.7146 -0.5291
31581SOL     OW98144  10.859   2.736   9.856  0.4454 -0.2324 -0.8049
31581SOL    HW198145  10.821   2.713   9.771 -0.7173 -0.9387 -0.1238
31581SOL    HW298146  10.877   2.830   9.849 -0.2555 -0.1406 -1.6084
31582SOL     OW98147   7.521   2.316   2.727 -0.7939  0.2190 -0.2884
31582SOL    HW198148   7.515   2.384   2.660 -0.8551 -0.1222 -0.6329
31582SOL    HW298149   7.556   2.240   2.680 -1.6267 -0.2755 -0.1212
31583SOL     OW98150   5.882   2.219   1.915 -0.3494 -0.1441 -0.3410
31583SOL    HW198151   5.787   2.231   1.923 -0.1074  0.3428  5.0976
31583SOL    HW298152   5.915   2.305   1.891 -1.1615 -0.2140 -1.8580
31584SOL     OW98153   6.746   4.204   4.251 -0.7689 -0.4601  0.1186
31584SOL    HW198154   6.698   4.283   4.225  0.1686 -0.1920 -0.8910
31584SOL    HW298155   6.838   4.228   4.242 -0.4413 -1.1111  1.5886
31585SOL     OW98156   4.899   6.098   2.734 -0.0370  0.5029  0.1825
31585SOL    HW198157   4.863   6.077   2.648  1.4216 -0.9685 -0.1369
31585SOL    HW298158   4.924   6.013   2.770  1.7950  1.2999  0.9196
31586SOL     OW98159   3.119   9.259   2.287  0.3951  0.9841 -0.2515
31586SOL    HW198160   3.145   9.169   2.305  1.1007  1.5404  1.9447
31586SOL    HW298161   3.115   9.300   2.374 -1.3182  2.6976 -1.0687
31587SOL     OW98162   1.921   1.904   2.850 -0.3945  0.1019 -0.3674
31587SOL    HW198163   1.989   1.838   2.838 -1.3246 -0.7068 -1.3681
31587SOL    HW298164   1.863   1.893   2.775 -0.9159  1.6590 -0.2336
31588SOL     OW98165   7.310  10.541   9.308  0.3046  0.0782  0.3266
31588SOL    HW198166   7.297  10.489   9.388 -2.4290  1.6356  1.0152
31588SOL    HW298167   7.324  10.476   9.239 -1.1739 -1.5128  1.4368
31589SOL     OW98168   7.003   9.768   3.491  0.2224 -0.7105  0.2473
31589SOL    HW198169   6.911   9.747   3.504 -0.0036 -0.9262 -1.4921
31589SOL    HW298170   7.028   9.816   3.570 -1.2021 -1.1879  1.0215
31590SOL     OW98171   6.336   1.870   9.793 -0.1561 -0.1745  0.4273
31590SOL    HW198172   6.265   1.892   9.854  0.7157  2.0242  0.7280
31590SOL    HW298173   6.412   1.858   9.849  0.1150 -0.7278 -0.0468
31591SOL     OW98174   1.596   0.965   4.767  0.0311 -0.0323 -0.7340
31591SOL    HW198175   1.663   1.006   4.711 -0.5777  1.1132 -0.6427
31591SOL    HW298176   1.531   1.034   4.781  0.0106 -0.3933  1.1332
31592SOL     OW98177   4.837   4.183   7.181 -0.0202 -0.2777  0.5924
31592SOL    HW198178   4.838   4.221   7.269 -1.2511 -0.3596  0.6675
31592SOL    HW298179   4.853   4.089   7.195  2.4291  0.0658  0.4592
31593SOL     OW98180   5.229   9.685   4.153  0.5829  0.4134  0.0841
31593SOL    HW198181   5.188   9.749   4.211 -1.2128  1.2570 -2.0160
31593SOL    HW298182   5.176   9.606   4.164 -0.1609  0.7667 -0.8194
31594SOL     OW98183   4.475   9.615   5.374 -0.3218 -0.1117 -0.3734
31594SOL    HW198184   4.476   9.688   5.311 -0.4478  0.0107 -0.2358
31594SOL    HW298185   4.559   9.622   5.420 -0.2941 -0.1089 -0.4238
31595SOL     OW98186   1.143   8.024  10.168 -0.5880 -0.0192 -0.0698
31595SOL    HW198187   1.200   7.954  10.139 -1.2532 -1.0220  0.9744
31595SOL    HW298188   1.092   8.047  10.090  2.4200  2.2177 -1.5853
31596SOL     OW98189   5.874   2.370   0.327 -0.1931  0.2518  0.2307
31596SOL    HW198190   5.863   2.461   0.354 -0.3312  0.2621  0.1403
31596SOL    HW298191   5.951   2.371   0.269  0.8712  0.0333  1.5858
31597SOL     OW98192  10.627   6.431   1.666  0.8535  0.2626 -0.1705
31597SOL    HW198193  10.691   6.365   1.640  0.9473 -0.7846  2.4422
31597SOL    HW298194  10.678   6.494   1.717  0.2771  0.8893 -0.3575
31598SOL     OW98195   4.780   5.960  10.175  0.1963  0.0184 -0.3796
31598SOL    HW198196   4.808   5.923  10.091  1.3483  1.8455 -0.8599
31598SOL    HW298197   4.760   6.051  10.156 -1.4141 -0.0040  0.9903
31599SOL     OW98198   7.481   9.746   8.877 -0.1378  0.4648  0.1420
31599SOL    HW198199   7.453   9.654   8.871 -0.2102  0.4642  0.4944
31599SOL    HW298200   7.575   9.741   8.893 -0.0753  0.4588 -0.2085
31600SOL     OW98201   6.585  10.315   4.509 -0.6302  0.1245  0.3764
31600SOL    HW198202   6.615  10.359   4.430  0.7250  0.0157  0.7926
31600SOL    HW298203   6.661  10.265   4.539 -1.3179 -0.3677  1.3749
31601SOL     OW98204   4.026   3.148   8.524 -0.2655 -0.4260  0.8219
31601SOL    HW198205   4.018   3.118   8.614  0.7467 -0.7779  0.8012
31601SOL    HW298206   4.081   3.226   8.529 -1.0867  0.1912  0.6180
31602SOL     OW98207   2.702   7.228   5.939  0.2526  0.4888 -0.5212
31602SOL    HW198208   2.643   7.297   5.909 -0.1600  0.4381  0.1432
31602SOL    HW298209   2.711   7.169   5.863  0.1150  0.9419 -0.8914
31603SOL     OW98210   3.481  10.328  10.846  0.0714  0.1659 -0.2405
31603SOL    HW198211   3.505  10.391  10.915  1.1085 -0.6055  0.1400
31603SOL    HW298212   3.530  10.249  10.869  0.2510 -0.1776 -1.7459
31604SOL     OW98213   2.529   7.607  10.041  0.7203  0.2591 -0.1755
31604SOL    HW198214   2.477   7.657  10.104  2.3952  1.1061  0.5843
31604SOL    HW298215   2.593   7.670  10.007  1.5790 -0.8665 -0.7018
31605SOL     OW98216   7.566   1.673   1.301 -0.3140  0.2195  0.8209
31605SOL    HW198217   7.638   1.722   1.262  0.0204 -0.6158  0.3426
31605SOL    HW298218   7.489   1.728   1.290  0.0459  0.6217  0.2846
31606SOL     OW98219   9.746   8.396   3.728  1.3179 -0.1935  0.4608
31606SOL    HW198220   9.716   8.487   3.719  0.8499 -0.4418 -0.6179
31606SOL    HW298221   9.692   8.360   3.798  0.7007  0.0400  0.1167
31607SOL     OW98222   3.810   2.520   4.461  0.0271 -0.0881 -0.0596
31607SOL    HW198223   3.729   2.477   4.433 -0.1064  0.1308 -0.0100
31607SOL    HW298224   3.835   2.474   4.541 -0.9468  0.9135  0.8600
31608SOL     OW98225   9.837   1.252   3.749 -0.2832 -0.2474 -0.3764
31608SOL    HW198226   9.839   1.284   3.659 -0.0025 -1.5616 -0.8509
31608SOL    HW298227   9.793   1.167   3.744 -1.6150  0.3231  0.9555
31609SOL     OW98228   7.036  10.323  10.712  0.3325  0.6060 -0.1432
31609SOL    HW198229   7.093  10.378  10.658  0.0537 -1.5177 -2.8242
31609SOL    HW298230   6.949  10.334  10.673  0.4780 -2.5239 -1.6168
31610SOL     OW98231   5.072   6.312   6.501 -0.1672  0.2608  0.1063
31610SOL    HW198232   4.999   6.352   6.453 -0.4410  1.5782  1.5348
31610SOL    HW298233   5.030   6.256   6.566  0.1380  0.2483  0.2923
31611SOL     OW98234  10.415   4.056   0.410 -0.1664 -0.3497  0.6879
31611SOL    HW198235  10.453   4.141   0.387  2.3285 -1.6627 -0.4522
31611SOL    HW298236  10.380   4.022   0.328 -0.1484 -0.8688  0.8912
31612SOL     OW98237   2.955   8.662   2.590 -0.1322  0.2373 -0.3239
31612SOL    HW198238   2.860   8.655   2.584 -0.1112 -1.5997  0.4924
31612SOL    HW298239   2.987   8.624   2.508 -0.1248 -2.5071  0.8377
31613SOL     OW98240   6.398   3.313   4.749  0.2241 -0.3889 -0.4116
31613SOL    HW198241   6.461   3.380   4.774  0.3920 -0.3306 -0.9710
31613SOL    HW298242   6.434   3.231   4.785  1.2900 -0.5651 -1.7958
31614SOL     OW98243   6.437   2.077   1.718  0.2851  0.0967 -0.2653
31614SOL    HW198244   6.350   2.045   1.696 -0.0587  0.0201  1.1384
31614SOL    HW298245   6.497   2.019   1.670 -0.4104 -0.3817 -0.5683
31615SOL     OW98246   1.484   0.673   2.209  0.3947  0.2415  0.4598
31615SOL    HW198247   1.565   0.638   2.172  0.8086  3.5181 -2.3382
31615SOL    HW298248   1.415   0.617   2.174  1.2328 -0.5585  0.0349
31616SOL     OW98249   0.738   1.716  10.104  0.3664  0.3423 -0.0295
31616SOL    HW198250   0.831   1.696  10.091 -0.0996 -2.7452  0.7110
31616SOL    HW298251   0.691   1.646  10.058 -1.6757  2.2013 -0.9812
31617SOL     OW98252   7.133   3.889   6.816 -0.4772  0.4039  0.2825
31617SOL    HW198253   7.228   3.881   6.808 -0.2076  1.4675  2.0405
31617SOL    HW298254   7.100   3.861   6.730  1.3301 -1.0898  0.0104
31618SOL     OW98255   5.011   7.843   7.480 -0.6354  0.1968  0.0491
31618SOL    HW198256   5.064   7.921   7.498 -0.7101 -0.0384  1.3959
31618SOL    HW298257   4.966   7.863   7.398  1.7595  0.2780 -1.3289
31619SOL     OW98258   0.602   4.562   5.715 -0.0570  0.2859 -0.1768
31619SOL    HW198259   0.603   4.632   5.649  0.2872  1.2431  0.8092
31619SOL    HW298260   0.591   4.482   5.665  1.5035  0.8529 -1.5093
31620SOL     OW98261   8.660  10.632  10.388  0.4876 -0.5213 -0.0950
31620SOL    HW198262   8.659  10.618  10.293  0.3314 -0.2504 -0.1325
31620SOL    HW298263   8.718  10.563  10.422  1.6026  0.1914 -0.5164
31621SOL     OW98264   2.668   9.399  10.078 -0.0038  0.1741  0.2904
31621SOL    HW198265   2.722   9.453  10.020 -0.8102  0.4262 -0.2295
31621SOL    HW298266   2.599   9.458  10.108 -2.4292 -1.1288 -2.2902
31622SOL     OW98267  10.617   5.630   4.244  0.2076 -0.5641 -0.0774
31622SOL    HW198268  10.673   5.697   4.205  0.0228 -0.2151  0.2515
31622SOL    HW298269  10.678   5.572   4.289  0.2810  0.0713  0.6636
31623SOL     OW98270   2.682   9.669   6.361 -0.3309 -0.0896 -0.0109
31623SOL    HW198271   2.753   9.644   6.419 -2.6809  1.0823  3.7145
31623SOL    HW298272   2.613   9.606   6.379 -1.2001  0.3917 -1.4791
31624SOL     OW98273   3.927   9.189   1.969 -0.1639  0.4842  0.1255
31624SOL    HW198274   3.969   9.106   1.989  0.0376  0.4456 -0.4425
31624SOL    HW298275   3.905   9.183   1.876 -2.0098  0.2386  0.5243
31625SOL     OW98276   3.943   7.780   0.507  0.0278 -0.5219 -0.1918
31625SOL    HW198277   3.928   7.745   0.595  0.3605 -2.6579 -0.9455
31625SOL    HW298278   3.878   7.737   0.452 -0.2152  0.8346 -1.0204
31626SOL     OW98279  10.827   6.924   1.203  0.8786 -0.2448 -0.4064
31626SOL    HW198280  10.744   6.951   1.163  0.6368  0.8195  0.7696
31626SOL    HW298281  10.891   6.986   1.169  0.6243  0.8302  1.0229
31627SOL     OW98282   4.643   9.759   7.907 -0.1760  0.1712 -0.3084
31627SOL    HW198283   4.678   9.758   7.996 -1.3093 -0.4556  0.1582
31627SOL    HW298284   4.704   9.706   7.856  1.9214  2.6502 -0.5246
31628SOL     OW98285   7.078   0.921   2.242 -0.8333  0.4359  0.6953
31628SOL    HW198286   7.153   0.881   2.286  0.8612  0.4372 -1.9096
31628SOL    HW298287   7.002   0.892   2.291  0.8176  0.1945  3.3229
31629SOL     OW98288   6.453  10.854   2.771 -0.0247  0.1937 -0.1281
31629SOL    HW198289   6.511  10.841   2.697 -1.5128 -0.8093 -1.1936
31629SOL    HW298290   6.487  10.796   2.839  0.7900  0.3935 -0.3574
31630SOL     OW98291   8.785   6.417   3.354 -0.0918  0.6646 -0.2442
31630SOL    HW198292   8.738   6.388   3.432  1.5001  0.3047  0.6308
31630SOL    HW298293   8.733   6.489   3.319 -0.6804  1.0266  1.3350
31631SOL     OW98294   3.253   1.905   2.511 -0.1435 -0.1267  0.5317
31631SOL    HW198295   3.274   1.879   2.421 -1.1499 -1.4866  0.6672
31631SOL    HW298296   3.318   1.861   2.565  0.1234  0.2490  0.5215
31632SOL     OW98297   0.215   3.494   0.405  0.1460  0.2587  0.0346
31632SOL    HW198298   0.188   3.488   0.497  0.3527 -2.1407  0.0001
31632SOL    HW298299   0.298   3.447   0.401 -0.3065 -0.4745 -1.5318
31633SOL     OW98300  10.037   5.186   4.541 -0.8841  0.2933 -0.4312
31633SOL    HW198301  10.057   5.271   4.502  2.5886 -1.4955 -3.1288
31633SOL    HW298302  10.081   5.188   4.626  0.1652  0.8627 -0.9615
31634SOL     OW98303   1.169   4.677   7.132  0.0874  0.7287  0.5459
31634SOL    HW198304   1.126   4.678   7.217 -0.8121  1.2263  0.1026
31634SOL    HW298305   1.104   4.641   7.072  0.8150  0.1000  0.1192
31635SOL     OW98306   9.446   1.615   1.554  0.0071 -0.1156  0.3020
31635SOL    HW198307   9.476   1.554   1.487 -2.5944 -0.8109 -0.3528
31635SOL    HW298308   9.482   1.700   1.527  2.8268 -1.0879  0.6695
31636SOL     OW98309   1.939   4.494   8.865  0.2141  0.4593  0.6217
31636SOL    HW198310   1.911   4.554   8.795 -0.5390  0.6954  1.1149
31636SOL    HW298311   1.924   4.407   8.828 -0.9072  0.5815  0.7555
31637SOL     OW98312   7.935   9.407   4.826 -0.7315  0.5104  0.1082
31637SOL    HW198313   7.856   9.413   4.879 -0.0033 -0.4095  1.3578
31637SOL    HW298314   8.002   9.373   4.886  0.4322  0.5909 -1.0922
31638SOL     OW98315  10.836   2.878   5.277 -0.1488 -0.2398 -0.1966
31638SOL    HW198316  10.825   2.788   5.308 -0.9635  0.1014  0.5538
31638SOL    HW298317  10.927   2.899   5.298 -0.0563 -0.7744 -0.0501
31639SOL     OW98318   2.093   0.841   2.224  0.1858 -0.8443 -0.0491
31639SOL    HW198319   2.001   0.816   2.227  0.2942 -1.1317  2.1881
31639SOL    HW298320   2.097   0.908   2.156 -1.6398 -0.9297 -0.2926
31640SOL     OW98321  10.304   6.433  10.328  0.2478  0.2091  0.7375
31640SOL    HW198322  10.323   6.479  10.410 -0.0110  0.7678  0.4890
31640SOL    HW298323  10.250   6.358  10.355  2.2878 -1.1254  1.4006
31641SOL     OW98324   7.266   1.192   0.458 -0.3201 -0.3611 -0.5070
31641SOL    HW198325   7.315   1.220   0.381 -0.2621 -1.0887 -0.7398
31641SOL    HW298326   7.268   1.096   0.455 -0.4870 -0.3984  0.2877
31642SOL     OW98327   2.667   3.383   5.118 -0.0849  0.2020 -0.8423
31642SOL    HW198328   2.760   3.377   5.140  0.3168  0.7752 -2.2543
31642SOL    HW298329   2.664   3.447   5.047 -1.7709  1.4766  0.3147
31643SOL     OW98330   1.085   0.644   7.223  0.5802 -0.6983 -0.1929
31643SOL    HW198331   1.158   0.705   7.234 -1.0913  1.7656 -1.8591
31643SOL    HW298332   1.029   0.661   7.299 -0.7622  1.2881 -1.5274
31644SOL     OW98333   8.198   4.267   7.712  0.4548 -0.0630 -0.6323
31644SOL    HW198334   8.106   4.245   7.700  0.8809 -1.7315 -1.1339
31644SOL    HW298335   8.219   4.323   7.637 -0.3074  0.9160 -0.1335
31645SOL     OW98336   2.123  10.353   1.817  0.2382  0.3124 -0.6130
31645SOL    HW198337   2.148  10.263   1.795  0.8280  0.0763  0.9314
31645SOL    HW298338   2.028  10.351   1.824  0.2594 -0.2140 -0.4534
31646SOL     OW98339   7.533   8.016   1.050 -0.1843 -0.3533 -0.3758
31646SOL    HW198340   7.437   8.011   1.051 -0.1994 -0.5336 -1.8035
31646SOL    HW298341   7.561   7.939   1.002  0.6863 -0.2601 -0.0332
31647SOL     OW98342   6.596   3.181   1.385 -0.0604  0.0956  0.4346
31647SOL    HW198343   6.639   3.267   1.389  2.4295 -0.9850 -0.8860
31647SOL    HW298344   6.567   3.172   1.295 -0.8714 -0.2368  0.7168
31648SOL     OW98345   1.059  10.364   1.250  0.1066 -0.0959  0.3124
31648SOL    HW198346   1.008  10.376   1.170  0.6438  1.4432  0.1810
31648SOL    HW298347   1.078  10.270   1.252 -1.2445 -0.4125 -0.5272
31649SOL     OW98348   7.348   1.768   9.664 -0.0394 -0.0968 -0.1600
31649SOL    HW198349   7.355   1.760   9.569 -0.9234 -0.2756 -0.2168
31649SOL    HW298350   7.313   1.856   9.678 -1.0072 -0.4866 -0.0628
31650SOL     OW98351   2.962   7.839   0.687  0.1867  0.1609  0.0973
31650SOL    HW198352   2.913   7.901   0.742 -0.4651 -0.3305  0.0839
31650SOL    HW298353   3.027   7.800   0.746 -1.5130 -1.5032  0.9707
31651SOL     OW98354   4.903   4.907   1.381  0.2707 -0.3365  0.3364
31651SOL    HW198355   4.831   4.933   1.439 -0.3014 -1.4258  0.1310
31651SOL    HW298356   4.943   4.990   1.355 -0.8790  0.2919  0.4955
31652SOL     OW98357   1.666   0.261   8.923  0.1099  0.5610 -0.1423
31652SOL    HW198358   1.743   0.246   8.978  0.5630 -1.1478 -1.1461
31652SOL    HW298359   1.699   0.312   8.850  0.6568 -1.2184 -1.2147
31653SOL     OW98360   2.114   1.669   9.084  0.2973 -0.3964  0.1746
31653SOL    HW198361   2.103   1.573   9.085 -1.1632 -0.2929 -1.4603
31653SOL    HW298362   2.156   1.688   9.000 -3.2248  0.6491 -1.5194
31654SOL     OW98363   8.429   7.619   7.528 -0.3551 -0.2313 -0.0774
31654SOL    HW198364   8.392   7.620   7.440  0.2565 -0.0266 -0.3320
31654SOL    HW298365   8.465   7.531   7.537  2.6617  0.7773 -1.3339
31655SOL     OW98366   0.067   1.402   5.322  0.5170  0.1920  0.8838
31655SOL    HW198367  -0.027   1.411   5.306  0.7481  0.9449 -0.1718
31655SOL    HW298368   0.099   1.492   5.328  1.2042 -0.0507  0.9789
31656SOL     OW98369   7.564   4.305   6.750 -0.3669  0.0894 -0.1766
31656SOL    HW198370   7.640   4.341   6.704  0.5345  0.4055  1.4527
31656SOL    HW298371   7.558   4.214   6.722  1.3082 -0.2485  0.4589
31657SOL     OW98372   9.465   8.378   6.824  0.2534 -0.5046 -0.0821
31657SOL    HW198373   9.531   8.323   6.868  0.3282 -0.4604 -0.1390
31657SOL    HW298374   9.449   8.449   6.886 -0.6703 -1.1935  0.4783
31658SOL     OW98375   1.411   7.050   4.154 -0.0373 -0.5578  0.6588
31658SOL    HW198376   1.353   6.978   4.180  0.7313 -1.6368 -0.4538
31658SOL    HW298377   1.493   7.006   4.131 -0.5576  0.2202 -3.3036
31659SOL     OW98378   8.832  10.916   0.918 -0.0906  0.1678  0.3481
31659SOL    HW198379   8.871  10.969   0.988 -2.0665  0.9114  0.9496
31659SOL    HW298380   8.904  10.863   0.885  1.8135  2.6177  0.2971
31660SOL     OW98381   9.879   9.890   0.518 -0.3255 -0.4897 -0.2649
31660SOL    HW198382   9.796   9.878   0.471 -1.4185  1.0942  1.1393
31660SOL    HW298383   9.901   9.803   0.550 -2.9253 -0.6017  1.5839
31661SOL     OW98384   1.185   7.444   3.140  0.3332 -0.0639  0.6466
31661SOL    HW198385   1.164   7.464   3.231  0.6587 -1.6282  1.1048
31661SOL    HW298386   1.277   7.415   3.143  0.6226  0.6910 -0.3234
31662SOL     OW98387   9.587   0.880   9.118 -0.2640  0.6586  0.0189
31662SOL    HW198388   9.626   0.801   9.080  1.5228  0.1988  2.5577
31662SOL    HW298389   9.541   0.848   9.196 -1.0562  1.9254  0.1042
31663SOL     OW98390  10.750   3.433   9.621 -0.1325  0.0380  0.5286
31663SOL    HW198391  10.714   3.488   9.552  2.5810  0.5853 -0.5838
31663SOL    HW298392  10.766   3.494   9.693  2.2451  0.7056 -0.4635
31664SOL     OW98393   1.174   1.360   2.152  0.1127  0.3884 -0.1639
31664SOL    HW198394   1.165   1.405   2.068  0.2331  0.3114 -0.2187
31664SOL    HW298395   1.090   1.374   2.196  0.2189  0.8416 -0.0968
31665SOL     OW98396   5.746   3.100   9.572 -0.0050 -0.0727 -0.0598
31665SOL    HW198397   5.678   3.160   9.542 -0.1047  0.2336  0.7451
31665SOL    HW298398   5.697   3.025   9.607  0.1183 -0.6645 -1.1112
31666SOL     OW98399  10.084   2.420   5.845 -0.1863  0.3130 -0.7532
31666SOL    HW198400  10.089   2.388   5.935 -1.4187  1.2956 -0.3059
31666SOL    HW298401  10.136   2.357   5.794 -0.7736 -1.1573  0.3928
31667SOL     OW98402   6.387   0.630   3.123 -0.6648  0.7814  0.0666
31667SOL    HW198403   6.393   0.534   3.126  1.6118  0.7460 -2.2518
31667SOL    HW298404   6.300   0.649   3.159 -1.0483 -2.1018  0.9723
31668SOL     OW98405   2.166   9.471   6.892 -0.5986  0.4040 -0.1727
31668SOL    HW198406   2.109   9.533   6.939 -0.4801 -0.9497  1.9165
31668SOL    HW298407   2.126   9.386   6.909  1.7120 -0.5442  0.9578
31669SOL     OW98408   7.976  10.782   5.633  0.0959 -0.0530  0.5538
31669SOL    HW198409   7.928  10.846   5.684  0.0242 -1.9776  3.1371
31669SOL    HW298410   8.068  10.794   5.659  0.3898  0.3632 -0.5938
31670SOL     OW98411   8.984   4.400   2.849  0.1608 -0.4483  0.2387
31670SOL    HW198412   8.982   4.419   2.943  0.8063  1.2074 -0.0544
31670SOL    HW298413   8.903   4.438   2.815  0.6028  0.2103 -0.0866
31671SOL     OW98414   8.029   2.744  10.539  0.6258  0.5008  0.5156
31671SOL    HW198415   7.996   2.831  10.561 -1.5392  0.5551 -2.4157
31671SOL    HW298416   8.114   2.760  10.499  0.5458  1.1895  0.6138
31672SOL     OW98417   2.093   2.641   5.339 -0.1675  0.3557 -0.1689
31672SOL    HW198418   2.171   2.604   5.298  0.2062 -0.2203  0.9951
31672SOL    HW298419   2.110   2.632   5.433 -0.6124  2.3805  0.1495
31673SOL     OW98420   8.150   4.882   7.320  0.0086 -0.1281 -0.1011
31673SOL    HW198421   8.173   4.802   7.272  1.4547 -0.1067  0.5158
31673SOL    HW298422   8.140   4.853   7.410  3.1912  0.7490  0.6442
31674SOL     OW98423  10.053   4.234  10.876  0.3082 -0.0616  0.4139
31674SOL    HW198424  10.077   4.142  10.870  0.9357 -0.0459  2.2633
31674SOL    HW298425  10.077   4.270  10.790 -0.4022 -1.6829 -0.5132
31675SOL     OW98426   6.364   1.149   9.936  0.1291 -0.2084 -0.1261
31675SOL    HW198427   6.323   1.228   9.971  1.9607  1.1074 -0.8280
31675SOL    HW298428   6.326   1.139   9.849 -0.7149 -0.6103  0.2729
31676SOL     OW98429  10.144   2.982  10.801 -0.3650  0.6897 -0.8574
31676SOL    HW198430  10.075   3.033  10.843 -0.6375 -0.2156 -0.1838
31676SOL    HW298431  10.209   2.968  10.870 -0.1029  0.4570 -1.1473
31677SOL     OW98432   6.305   5.844   9.341 -0.2414  0.1797 -0.4539
31677SOL    HW198433   6.332   5.792   9.266  1.7469  1.3771 -0.6462
31677SOL    HW298434   6.367   5.821   9.410 -1.1492  0.1747  0.3986
31678SOL     OW98435  10.509   6.228   8.323 -0.0043  0.0739 -0.3321
31678SOL    HW198436  10.499   6.296   8.256  1.0923  0.9986  0.3967
31678SOL    HW298437  10.569   6.165   8.284 -1.4286 -0.7795 -1.2122
31679SOL     OW98438   0.698   5.460   4.825 -0.5814  0.1140 -0.5571
31679SOL    HW198439   0.763   5.455   4.895  0.8164  0.4065 -1.7741
31679SOL    HW298440   0.654   5.374   4.827  0.2337 -0.3014 -0.0692
31680SOL     OW98441   1.879   0.999  10.799  0.1796  0.2819  0.2995
31680SOL    HW198442   1.961   0.963  10.834  0.1984 -1.7504 -1.5931
31680SOL    HW298443   1.811   0.961  10.853  0.3225 -1.2038 -0.4984
31681SOL     OW98444   4.059   6.276   6.615 -0.0743  0.4313 -0.1430
31681SOL    HW198445   4.032   6.332   6.688  0.2012  0.4632 -0.0649
31681SOL    HW298446   4.138   6.232   6.646 -0.5722 -0.3924 -0.0138
31682SOL     OW98447   3.589   5.163   3.167 -0.7488 -1.1365  0.5594
31682SOL    HW198448   3.607   5.192   3.257 -0.9637  0.6366  0.0761
31682SOL    HW298449   3.525   5.227   3.135 -1.3118 -2.2474 -0.5853
31683SOL     OW98450   7.389   2.033   4.223 -0.1665 -0.1012  0.1382
31683SOL    HW198451   7.481   2.010   4.221 -0.2757 -0.5389  0.0383
31683SOL    HW298452   7.374   2.066   4.311 -0.2229 -1.3248  0.6014
31684SOL     OW98453   0.266  10.209   5.616 -0.6503  0.1192 -0.5122
31684SOL    HW198454   0.192  10.243   5.565  0.6990  1.0758 -1.9367
31684SOL    HW298455   0.302  10.286   5.659 -0.0627 -0.2241 -0.3887
31685SOL     OW98456   4.194   4.393   6.474 -0.3209  0.0754  0.0232
31685SOL    HW198457   4.099   4.391   6.485 -0.5112 -1.3929 -1.5540
31685SOL    HW298458   4.219   4.302   6.457  1.4412  0.3688  0.7806
31686SOL     OW98459   9.819   0.468   2.871 -0.3967 -0.3693 -0.2602
31686SOL    HW198460   9.869   0.470   2.952  0.1643 -1.7958 -0.5440
31686SOL    HW298461   9.885   0.468   2.802 -0.8629  0.4797 -0.7205
31687SOL     OW98462   2.085   9.782   7.335 -0.3067  0.3389 -0.2388
31687SOL    HW198463   2.136   9.802   7.256 -0.8674 -1.6409 -1.1775
31687SOL    HW298464   2.014   9.726   7.303 -0.0084 -1.2989  1.8248
31688SOL     OW98465   3.506   3.491   6.641  0.0205 -0.2000 -0.5014
31688SOL    HW198466   3.433   3.532   6.687  0.7591 -0.0604  0.5701
31688SOL    HW298467   3.464   3.426   6.584 -1.0972  1.4715 -1.6564
31689SOL     OW98468   1.448   9.761   7.709 -0.2305 -0.0762 -0.0130
31689SOL    HW198469   1.383   9.806   7.655  1.0720  0.2137 -1.4382
31689SOL    HW298470   1.411   9.675   7.726 -1.1505  0.2224 -0.4587
31690SOL     OW98471   8.382   4.508   4.801  0.4294 -0.6631 -0.7467
31690SOL    HW198472   8.337   4.568   4.742  1.1145  0.2716 -0.3342
31690SOL    HW298473   8.322   4.434   4.809 -1.7598  1.1431  0.8996
31691SOL     OW98474   3.378   1.661   4.582  0.0323  0.0460  0.0536
31691SOL    HW198475   3.436   1.736   4.569  0.7943 -0.2648  1.4143
31691SOL    HW298476   3.430   1.585   4.556  0.7614 -0.3554  2.4411
31692SOL     OW98477   9.344   2.824   5.978  0.0033 -0.1563 -0.2255
31692SOL    HW198478   9.262   2.873   5.978  0.1054  0.1023  1.6124
31692SOL    HW298479   9.372   2.826   6.070  1.4168 -1.3196 -0.6050
31693SOL     OW98480   3.310   1.196   0.147  0.2710  0.0369  0.1940
31693SOL    HW198481   3.277   1.117   0.191  1.0835 -0.4129  0.0156
31693SOL    HW298482   3.255   1.267   0.180 -1.9434 -0.8977 -1.2799
31694SOL     OW98483   2.264   2.776   1.808  0.4548  0.2171 -0.4541
31694SOL    HW198484   2.287   2.750   1.897 -1.8597  0.6078  0.3408
31694SOL    HW298485   2.169   2.790   1.811  0.4794  1.3685 -2.7028
31695SOL     OW98486   4.686   4.083  10.449 -0.1066  0.4207  0.1723
31695SOL    HW198487   4.591   4.075  10.447 -0.1675  0.6409  1.2476
31695SOL    HW298488   4.717   4.015  10.390 -0.9488  0.8911 -0.8352
31696SOL     OW98489   3.267   6.780   6.895 -0.1060 -0.0514  0.0729
31696SOL    HW198490   3.247   6.846   6.961 -0.7977  0.0278 -0.2037
31696SOL    HW298491   3.181   6.753   6.862  0.1676 -1.1101  0.2017
31697SOL     OW98492  10.865   0.416   3.779 -0.1740 -0.1314 -0.1415
31697SOL    HW198493  10.886   0.475   3.707 -0.0745 -1.6942 -1.4538
31697SOL    HW298494  10.948   0.376   3.803  0.0385  1.3230  1.7976
31698SOL     OW98495   4.778   0.690   8.370  0.1126  0.0818 -0.2708
31698SOL    HW198496   4.870   0.716   8.378  0.7047 -0.9794 -2.6195
31698SOL    HW298497   4.742   0.751   8.305 -0.4753 -0.3422 -0.3468
31699SOL     OW98498   1.003   4.020   1.806 -0.1429 -0.1846 -0.1071
31699SOL    HW198499   0.922   4.066   1.830 -1.2116 -1.7847 -0.4677
31699SOL    HW298500   1.073   4.076   1.840 -1.1217  3.4756 -3.3822
31700SOL     OW98501   7.892   9.833   2.261 -0.3392 -0.3724  0.1719
31700SOL    HW198502   7.934   9.884   2.191 -0.5067  0.7671  0.8635
31700SOL    HW298503   7.814   9.795   2.219 -0.6918  0.6703 -0.1657
31701SOL     OW98504   2.404   9.905  10.548 -0.0212  0.0547 -0.0941
31701SOL    HW198505   2.471   9.840  10.568 -0.0264  0.1973  0.3960
31701SOL    HW298506   2.452   9.977  10.508 -0.0383 -0.3171 -0.8041
31702SOL     OW98507   8.712   2.658   5.618  0.1617  0.4775 -0.5776
31702SOL    HW198508   8.786   2.644   5.676  1.2437 -0.2374 -2.0555
31702SOL    HW298509   8.638   2.677   5.676  1.4002  0.8001  0.9462
31703SOL     OW98510   7.238   6.948   0.727 -0.3827  0.5958 -0.8126
31703SOL    HW198511   7.143   6.938   0.734 -0.2483  0.2997  1.2790
31703SOL    HW298512   7.260   7.013   0.794  0.9696  0.0479 -0.6932
31704SOL     OW98513   8.824   7.116   2.752 -0.5514 -0.3471  0.1865
31704SOL    HW198514   8.919   7.132   2.753 -0.6840  0.4812  0.6274
31704SOL    HW298515   8.801   7.114   2.659 -0.1159 -0.4609  0.0789
31705SOL     OW98516   4.914  10.394   8.400  0.1375  0.0827  0.1099
31705SOL    HW198517   4.934  10.479   8.360 -0.4180  0.5078  0.7112
31705SOL    HW298518   4.818  10.390   8.398  0.1518 -0.3567  0.4388
31706SOL     OW98519   0.929   9.535   8.845 -0.0069  0.1262  0.6581
31706SOL    HW198520   0.867   9.478   8.801  0.0309  0.9003 -0.4314
31706SOL    HW298521   1.014   9.508   8.811 -0.0831  1.6136 -0.8407
31707SOL     OW98522   4.093   8.403   5.771  0.1726 -0.2001 -0.1762
31707SOL    HW198523   4.088   8.493   5.804 -0.8927 -0.2278 -0.2145
31707SOL    HW298524   4.186   8.382   5.774  0.2245  0.0288  2.1910
31708SOL     OW98525   9.961   0.323   5.478 -0.0455  0.2201 -0.6405
31708SOL    HW198526   9.923   0.240   5.507  0.1498 -0.1364 -1.3809
31708SOL    HW298527   9.992   0.305   5.390  0.7403  0.8569 -0.5032
31709SOL     OW98528  10.785   7.048   9.222  0.3155  0.0122 -0.0645
31709SOL    HW198529  10.861   7.078   9.273  0.4798  1.5198 -1.1143
31709SOL    HW298530  10.710   7.086   9.267  0.3207 -0.0844  0.0274
31710SOL     OW98531   9.203   3.645   3.758 -0.0401  0.5693 -0.4547
31710SOL    HW198532   9.176   3.563   3.799  1.8008  0.5927  0.9178
31710SOL    HW298533   9.208   3.708   3.830  0.4622  1.3824 -1.1706
31711SOL     OW98534   0.190   3.001   6.097  0.1311 -0.3634  0.2030
31711SOL    HW198535   0.120   3.023   6.159  0.9362 -2.5258  2.0453
31711SOL    HW298536   0.157   2.925   6.050 -0.0509  0.6483 -1.3667
31712SOL     OW98537   0.604  10.655   5.503 -0.6049 -0.0577 -0.5687
31712SOL    HW198538   0.578  10.576   5.455 -0.2728  0.5927 -1.8756
31712SOL    HW298539   0.698  10.661   5.490 -0.3854 -0.2349  0.7888
31713SOL     OW98540   8.418   7.635   0.720  0.2782 -0.1169  0.3520
31713SOL    HW198541   8.441   7.707   0.779 -0.3838 -0.0256  0.4988
31713SOL    HW298542   8.345   7.668   0.668 -0.4223 -0.8894  0.8301
31714SOL     OW98543   3.546   0.498   2.956  0.1505 -0.1461 -0.3097
31714SOL    HW198544   3.606   0.443   2.905  0.4354  0.8786 -1.1073
31714SOL    HW298545   3.600   0.570   2.988 -0.3896  0.1196  0.0178
31715SOL     OW98546   7.759   2.285   9.279 -0.1292  0.1264  0.4380
31715SOL    HW198547   7.801   2.363   9.315 -0.6331  0.4488  0.3456
31715SOL    HW298548   7.759   2.299   9.184  1.3993 -0.8240  0.2668
31716SOL     OW98549   8.376   7.070   0.054 -0.1657 -0.1624 -0.2126
31716SOL    HW198550   8.293   7.067   0.007 -0.5100 -1.0083  0.4375
31716SOL    HW298551   8.401   6.979   0.066 -0.2014  0.0138  1.4351
31717SOL     OW98552   1.421   8.877   2.500  0.1323  0.1884 -0.0935
31717SOL    HW198553   1.493   8.814   2.492  0.1902  0.2186  0.2085
31717SOL    HW298554   1.461   8.954   2.540 -0.0797  0.1910  0.1088
31718SOL     OW98555   6.296   0.800   1.896  0.7373  0.0581  0.3395
31718SOL    HW198556   6.370   0.848   1.933  1.2992 -0.4397 -0.1243
31718SOL    HW298557   6.252   0.761   1.971  0.2749  1.2909  0.7239
31719SOL     OW98558   7.959   0.463   0.713 -0.3514 -0.3655 -0.4281
31719SOL    HW198559   7.940   0.447   0.805 -3.4720  0.0263 -0.9003
31719SOL    HW298560   7.990   0.554   0.710  1.2121 -0.8556  0.3664
31720SOL     OW98561   9.193   6.847   3.591  0.0748  0.3149 -0.2270
31720SOL    HW198562   9.268   6.905   3.608 -0.7664  1.1400  0.7850
31720SOL    HW298563   9.212   6.768   3.641  0.6214  0.2235 -0.5735
31721SOL     OW98564   9.213   6.057   3.626  0.3839  0.5856 -0.5247
31721SOL    HW198565   9.290   6.059   3.683  0.1318  3.2096 -0.1378
31721SOL    HW298566   9.175   5.970   3.639  2.3129 -0.1532  0.5729
31722SOL     OW98567   4.461   0.099   6.784  0.3325  0.2333 -0.0016
31722SOL    HW198568   4.509   0.123   6.863 -0.8532  0.3685  0.7113
31722SOL    HW298569   4.519   0.039   6.737  0.2874 -1.4233  1.9565
31723SOL     OW98570   4.962  10.173   0.642 -0.0378  0.0688  0.1101
31723SOL    HW198571   5.002  10.105   0.696 -1.3566 -2.9443 -2.4071
31723SOL    HW298572   4.870  10.175   0.670  0.0583  1.0707  0.3807
31724SOL     OW98573   2.672   2.507   9.630  0.2157 -0.1730 -0.2663
31724SOL    HW198574   2.764   2.494   9.605  0.3502  0.6655 -0.2420
31724SOL    HW298575   2.662   2.459   9.712  0.7948  0.2052  0.0352
31725SOL     OW98576   3.513  10.880   1.775 -0.3972 -0.4029  0.2544
31725SOL    HW198577   3.593  10.830   1.760  1.0314  1.3185  1.7681
31725SOL    HW298578   3.493  10.867   1.868 -1.2425  0.0955  0.1575
31726SOL     OW98579   5.467   3.976   5.384  0.4742  0.0927 -0.2303
31726SOL    HW198580   5.488   3.989   5.476 -1.0620 -0.7186  0.2757
31726SOL    HW298581   5.460   4.064   5.348  0.0395  0.4467  0.6939
31727SOL     OW98582  10.517   3.561  10.126 -0.3350 -0.0931  0.6631
31727SOL    HW198583  10.583   3.491  10.129 -0.5453 -0.3070  0.3488
31727SOL    HW298584  10.458   3.541  10.198 -1.2786 -1.1290 -0.3579
31728SOL     OW98585   0.527   9.653   4.240  0.2321  0.0492 -0.0096
31728SOL    HW198586   0.594   9.588   4.220 -0.9545 -1.6553  1.2121
31728SOL    HW298587   0.470   9.610   4.304  0.2641  2.8778  2.1078
31729SOL     OW98588   4.734   9.295   2.469  0.1945  0.6955  0.2652
31729SOL    HW198589   4.642   9.310   2.490  0.8828  2.7869  2.3108
31729SOL    HW298590   4.774   9.382   2.475  2.5459 -0.3403  0.8368
31730SOL     OW98591   6.840  10.220   9.771  0.3350 -0.2078 -0.0815
31730SOL    HW198592   6.769  10.159   9.787 -1.2601  0.9770 -2.1324
31730SOL    HW298593   6.886  10.184   9.695  0.5937  0.1335 -0.0895
31731SOL     OW98594   7.728  10.037   7.871  0.4264  0.3522  0.0014
31731SOL    HW198595   7.791  10.041   7.944  0.4978  1.6133 -0.0984
31731SOL    HW298596   7.751   9.958   7.823  0.1932 -0.6709  1.5127
31732SOL     OW98597   9.079   5.467   9.648 -0.2555 -0.6179  0.5734
31732SOL    HW198598   9.068   5.473   9.553  0.7031 -2.0985  0.3309
31732SOL    HW298599   9.047   5.379   9.670  0.5261 -0.6936  1.4654
31733SOL     OW98600   5.741  10.848   6.020  0.3059  0.3885  0.4248
31733SOL    HW198601   5.704  10.884   6.101  0.3326  0.2735  0.4880
31733SOL    HW298602   5.835  10.869   6.025  0.1215  1.4256 -0.1250
31734SOL     OW98603   2.317   5.157   9.563 -0.1970 -0.1331 -0.4291
31734SOL    HW198604   2.247   5.213   9.597 -1.2508 -1.0996 -0.9480
31734SOL    HW298605   2.280   5.117   9.485  0.6522 -1.2927 -0.2581
31735SOL     OW98606   9.467   7.427   5.318 -0.0649  0.3052  0.2133
31735SOL    HW198607   9.496   7.352   5.265  1.3888 -1.4479  3.2264
31735SOL    HW298608   9.519   7.500   5.285 -0.0676 -0.4110 -1.5106
31736SOL     OW98609   2.789   9.728   0.627  0.5977  0.2874 -0.0364
31736SOL    HW198610   2.798   9.670   0.551 -2.3121  0.5625 -0.7162
31736SOL    HW298611   2.841   9.805   0.605  0.4499  0.0186 -1.4135
31737SOL     OW98612   1.837  10.281   4.789 -0.3303  0.7262  0.0058
31737SOL    HW198613   1.926  10.271   4.755  0.5768 -1.0446  2.5821
31737SOL    HW298614   1.784  10.223   4.735 -0.1429  2.3633 -2.0469
31738SOL     OW98615   1.811   2.759   8.527  0.1326 -0.3220 -0.0133
31738SOL    HW198616   1.888   2.811   8.549  1.3611 -1.9670 -0.2042
31738SOL    HW298617   1.832   2.720   8.442 -1.7262  0.6448 -0.9883
31739SOL     OW98618   3.312   7.581   6.918  1.1510 -0.5270  0.3573
31739SOL    HW198619   3.384   7.545   6.969  0.9697  1.0181  1.7726
31739SOL    HW298620   3.352   7.609   6.836  1.7595 -1.5044  0.3033
31740SOL     OW98621   0.144   5.844   2.729 -0.1406 -0.1020  0.4357
31740SOL    HW198622   0.185   5.766   2.767  0.5036 -0.2303 -0.4934
31740SOL    HW298623   0.075   5.809   2.672 -0.0138  0.0083  0.2106
31741SOL     OW98624   0.229   6.688   1.499 -0.0973 -0.0719 -0.2130
31741SOL    HW198625   0.164   6.702   1.430 -1.6703  1.2925  1.4634
31741SOL    HW298626   0.213   6.598   1.529 -0.4870 -0.1113 -0.5387
31742SOL     OW98627   2.351   2.876   8.661 -0.0275  0.4967 -0.2969
31742SOL    HW198628   2.417   2.936   8.626  1.2085 -0.4312  0.3694
31742SOL    HW298629   2.342   2.809   8.593  1.7642 -0.8551  0.7282
31743SOL     OW98630   1.561   5.560   1.803 -0.7399 -0.3236 -1.1881
31743SOL    HW198631   1.613   5.481   1.789 -1.3362 -0.6779 -1.4487
31743SOL    HW298632   1.513   5.544   1.885  1.2306  0.9289  0.3126
31744SOL     OW98633   7.306  10.168   0.005 -0.0266  0.4205  0.4897
31744SOL    HW198634   7.323  10.074   0.015 -1.0397  0.3887  2.3310
31744SOL    HW298635   7.392  10.208   0.009  0.4000 -0.4048 -0.0816
31745SOL     OW98636   4.961   0.498   1.421 -0.0216 -0.8991 -0.4226
31745SOL    HW198637   5.049   0.481   1.387 -0.2071  0.0175 -1.4175
31745SOL    HW298638   4.904   0.443   1.367 -0.1162 -1.0533 -0.1654
31746SOL     OW98639  10.484   4.161   9.145  0.5326 -0.0581  0.1661
31746SOL    HW198640  10.393   4.138   9.127  0.9210 -1.8541  0.3824
31746SOL    HW298641  10.530   4.147   9.062  0.7966 -0.1554  0.3250
31747SOL     OW98642   1.300   3.232   0.009  0.3801 -0.6473  0.0584
31747SOL    HW198643   1.228   3.291   0.029  1.2484  0.7378 -0.7285
31747SOL    HW298644   1.321   3.190   0.093  0.8851  1.4922  1.0622
31748SOL     OW98645   0.491   5.965   9.021 -0.1609  0.2658  0.1685
31748SOL    HW198646   0.403   6.002   9.032  0.6796  2.5455 -0.2970
31748SOL    HW298647   0.480   5.899   8.953 -1.5314  0.4154  0.2109
31749SOL     OW98648   5.756   8.051   2.268 -0.3981 -0.1268 -0.5287
31749SOL    HW198649   5.762   7.959   2.296  2.4512  0.1258  0.0936
31749SOL    HW298650   5.801   8.053   2.184 -0.0768  0.7328 -0.3481
31750SOL     OW98651   3.713   2.845   4.210 -0.4360  0.6568 -0.2958
31750SOL    HW198652   3.693   2.875   4.121 -0.5828 -1.5509 -1.0652
31750SOL    HW298653   3.634   2.800   4.238  0.4261 -0.6866  0.0316
31751SOL     OW98654   7.369   2.066   0.976  0.6920  0.2368  0.1088
31751SOL    HW198655   7.449   2.013   0.978  0.3874 -0.2533 -0.6205
31751SOL    HW298656   7.351   2.079   0.883  1.0751  2.1114  0.2529
31752SOL     OW98657   6.500   1.014   5.709  0.0806  0.6857 -0.1356
31752SOL    HW198658   6.434   0.953   5.738  1.2135  0.2398  1.6198
31752SOL    HW298659   6.553   0.965   5.646  1.2364 -0.3404  1.5694
31753SOL     OW98660  10.709  10.879  10.499  0.3640 -0.2062 -0.3273
31753SOL    HW198661  10.786  10.828  10.475  0.7766 -0.0523  0.6332
31753SOL    HW298662  10.717  10.959  10.447  1.6929  0.4966  0.8884
31754SOL     OW98663   9.864   8.374   0.161  0.2750 -0.0804 -0.4345
31754SOL    HW198664   9.788   8.376   0.219  1.6284 -0.2352  1.4118
31754SOL    HW298665   9.829   8.339   0.078 -1.8059  0.6101  0.0743
31755SOL     OW98666   3.446   0.463   1.585  0.1950  0.6052 -0.0625
31755SOL    HW198667   3.432   0.501   1.672 -3.5882 -1.5508  0.5052
31755SOL    HW298668   3.467   0.371   1.603  1.0672  0.5092 -1.4322
31756SOL     OW98669   4.707   7.170   5.529 -0.3402 -0.0638  0.2126
31756SOL    HW198670   4.759   7.182   5.609  0.0041 -0.9773  0.1441
31756SOL    HW298671   4.618   7.193   5.555  0.1619  2.1586  0.1683
31757SOL     OW98672   6.738   2.312   0.509 -0.3699 -0.5929 -0.3204
31757SOL    HW198673   6.761   2.365   0.586 -1.8154 -0.1329 -0.1659
31757SOL    HW298674   6.797   2.237   0.512 -0.8992 -0.9842  1.6966
31758SOL     OW98675   0.549   1.170   0.635  0.0894  1.0227 -0.1627
31758SOL    HW198676   0.491   1.204   0.567 -0.0411 -2.9828 -2.3431
31758SOL    HW298677   0.636   1.172   0.596  0.5580  1.6097  0.8569
31759SOL     OW98678   2.276   6.946   1.431 -1.2951 -0.5775 -0.3112
31759SOL    HW198679   2.280   6.958   1.336  1.4376  1.2559 -0.1035
31759SOL    HW298680   2.268   7.035   1.465 -0.5009 -1.0574  1.1970
31760SOL     OW98681   2.681   1.171   4.011 -0.2745 -0.4341  0.7390
31760SOL    HW198682   2.679   1.260   4.047 -1.2708 -0.9337  1.9881
31760SOL    HW298683   2.767   1.164   3.969  0.1299  0.8495  1.3085
31761SOL     OW98684   3.792   0.589   5.546 -0.1545  0.0334  0.0574
31761SOL    HW198685   3.825   0.633   5.624  0.5749 -0.0971 -0.1735
31761SOL    HW298686   3.771   0.500   5.576 -0.0355  0.0344  0.1424
31762SOL     OW98687   5.907   9.742   8.331 -0.2403 -0.1301  0.4151
31762SOL    HW198688   5.938   9.832   8.329 -3.6639  1.2019 -1.5447
31762SOL    HW298689   5.891   9.721   8.239 -1.1008 -2.1323  0.9727
31763SOL     OW98690   0.664   5.795   0.217  0.0186 -0.4881  0.1823
31763SOL    HW198691   0.600   5.840   0.162  0.3729  1.7499  1.4353
31763SOL    HW298692   0.621   5.785   0.302  0.7838 -0.3451  0.6011
31764SOL     OW98693   0.933   6.244   8.423 -0.6103  0.1358  0.0504
31764SOL    HW198694   0.923   6.230   8.518  0.4921 -0.9342  0.0380
31764SOL    HW298695   0.889   6.170   8.383  1.9419 -1.4070 -0.1360
31765SOL     OW98696   5.777   6.573   4.006  0.3477  0.4086  0.2296
31765SOL    HW198697   5.807   6.640   3.945  1.9344 -1.2170 -0.8895
31765SOL    HW298698   5.781   6.615   4.092  1.5939  1.6559 -0.3908
31766SOL     OW98699   6.447   2.199   8.110  0.9169  0.3064  0.3688
31766SOL    HW198700   6.470   2.286   8.142 -1.7922  1.5852 -0.8814
31766SOL    HW298701   6.389   2.163   8.177  0.2542  0.3968 -0.1480
31767SOL     OW98702   7.877   4.744  10.312  0.0211  0.1060 -0.2850
31767SOL    HW198703   7.900   4.822  10.261 -0.1730  0.2996 -0.0801
31767SOL    HW298704   7.825   4.690  10.252 -1.4673  1.0006  0.1343
31768SOL     OW98705   2.555  10.587  10.286 -0.5276 -0.2448 -0.8453
31768SOL    HW198706   2.605  10.630  10.217 -1.3074  0.4170 -1.0072
31768SOL    HW298707   2.491  10.533  10.240 -1.3432  0.5414 -0.6603
31769SOL     OW98708   5.842   9.676   1.447 -0.4524  0.2963 -0.2619
31769SOL    HW198709   5.775   9.661   1.514 -0.7455  0.7931 -0.4415
31769SOL    HW298710   5.848   9.592   1.401 -0.0152 -0.1549  0.5897
31770SOL     OW98711   5.877   6.468   4.709  0.4967  0.1062 -0.6921
31770SOL    HW198712   5.862   6.553   4.749 -0.5168 -0.2913 -0.1955
31770SOL    HW298713   5.904   6.488   4.619 -0.4524  0.9374 -0.8029
31771SOL     OW98714   4.739   7.502   7.682 -0.5474  0.5551 -0.4135
31771SOL    HW198715   4.717   7.455   7.762 -0.2613  2.0554  0.5867
31771SOL    HW298716   4.808   7.449   7.641 -1.3376 -0.6991 -0.1731
31772SOL     OW98717   3.107   7.237   6.688 -0.1748  0.1613  0.0542
31772SOL    HW198718   3.076   7.171   6.626  0.0619 -1.1945  1.3322
31772SOL    HW298719   3.169   7.191   6.745  2.0660  2.1278 -0.6419
31773SOL     OW98720   5.313   4.172   2.027 -0.3486  0.1907 -0.5846
31773SOL    HW198721   5.285   4.143   2.114 -1.5427  0.1146 -0.9757
31773SOL    HW298722   5.406   4.192   2.037 -0.7077  1.2041  0.9710
31774SOL     OW98723   4.340   1.348   6.745 -0.2763 -0.3838  0.1338
31774SOL    HW198724   4.402   1.275   6.740 -1.0222 -0.9589 -1.1376
31774SOL    HW298725   4.257   1.311   6.714 -0.9117  0.7499  0.4372
31775SOL     OW98726   5.496   3.200   9.423 -0.1478 -0.1514 -0.3202
31775SOL    HW198727   5.452   3.283   9.442 -0.9539 -0.0755 -2.2753
31775SOL    HW298728   5.429   3.147   9.379  1.0613 -0.9025 -1.3075
31776SOL     OW98729   9.740   3.332   0.913 -0.1979 -0.2404  0.3839
31776SOL    HW198730   9.743   3.348   0.819  0.6265 -1.3795  0.1961
31776SOL    HW298731   9.762   3.239   0.922  1.3381  0.2249  1.8020
31777SOL     OW98732   2.647   3.853   5.020 -0.1210 -0.1310  0.6759
31777SOL    HW198733   2.727   3.876   5.067  0.7506  0.3348 -0.9608
31777SOL    HW298734   2.577   3.869   5.083  0.9516  0.9205  1.6618
31778SOL     OW98735   7.591  10.773   0.662 -0.0087  0.5700  0.0050
31778SOL    HW198736   7.682  10.770   0.632 -0.8750 -0.2832 -2.8567
31778SOL    HW298737   7.565  10.681   0.669 -0.6492  0.8060  0.7710
31779SOL     OW98738   7.827   9.974   3.408  0.2683 -0.0468  0.4770
31779SOL    HW198739   7.833   9.897   3.463 -1.2153 -0.8323 -0.3864
31779SOL    HW298740   7.755  10.025   3.446 -1.1397 -0.8646 -0.9719
31780SOL     OW98741   5.712   1.121   5.673  0.8216 -0.0109 -0.4934
31780SOL    HW198742   5.727   1.160   5.587  0.3954  1.9421  0.2627
31780SOL    HW298743   5.727   1.193   5.735 -0.5978 -0.8849  0.9434
31781SOL     OW98744   3.624   1.324   7.501  0.2302  0.2988  0.2418
31781SOL    HW198745   3.690   1.344   7.434  0.0097 -0.2611 -0.1543
31781SOL    HW298746   3.557   1.392   7.490 -1.6572 -1.7834 -2.6312
31782SOL     OW98747   7.305   2.556   6.910  0.3192  0.2638  0.5440
31782SOL    HW198748   7.299   2.502   6.832 -1.0656  1.7846 -0.4744
31782SOL    HW298749   7.243   2.517   6.971  1.9581 -1.3881  1.2575
31783SOL     OW98750   3.091   5.020   3.803 -0.0591 -0.6686  0.0750
31783SOL    HW198751   3.082   5.111   3.829 -0.1813 -1.0027  1.2618
31783SOL    HW298752   3.006   4.997   3.766 -0.7197 -0.8696  1.6713
31784SOL     OW98753   2.819  10.642   4.728 -0.1526  0.2246 -0.1924
31784SOL    HW198754   2.767  10.609   4.801 -0.6471 -0.9314 -1.0528
31784SOL    HW298755   2.790  10.733   4.717 -1.1745 -0.0665  0.0581
31785SOL     OW98756   6.104   3.519   0.735  0.1399 -0.5404  0.4680
31785SOL    HW198757   6.039   3.584   0.709  0.8456  0.1289  0.3231
31785SOL    HW298758   6.053   3.446   0.771 -0.6331  0.6404  1.8620
31786SOL     OW98759   0.450   7.911   3.650  0.3490 -0.1169 -0.2131
31786SOL    HW198760   0.476   7.823   3.623 -0.7525 -0.1746 -1.2085
31786SOL    HW298761   0.412   7.899   3.737  0.2698 -0.6212 -0.3123
31787SOL     OW98762   2.269   2.687   9.493 -0.1584 -0.3786 -0.0150
31787SOL    HW198763   2.199   2.687   9.428 -0.3949 -0.0560  0.2321
31787SOL    HW298764   2.343   2.648   9.449 -0.5916 -1.0280 -0.1791
31788SOL     OW98765   8.979   9.042   5.602 -0.8288  0.0005 -0.3657
31788SOL    HW198766   8.982   8.971   5.666  0.2337  1.8182  1.7650
31788SOL    HW298767   8.908   9.099   5.633 -1.4046  0.0992 -1.8027
31789SOL     OW98768  10.151  10.141   7.655 -0.1420 -0.4212  0.1130
31789SOL    HW198769  10.138  10.051   7.623  0.9587 -0.4832 -0.1933
31789SOL    HW298770  10.213  10.132   7.727 -0.9364 -0.0221  0.8677
31790SOL     OW98771   7.459   9.206   2.763  0.0064  0.1664  0.0736
31790SOL    HW198772   7.463   9.302   2.762  0.7789  0.1773  1.4979
31790SOL    HW298773   7.446   9.183   2.855  3.8092 -1.1604  0.4696
31791SOL     OW98774   8.209   1.946   8.486 -0.5926 -0.1824  0.2165
31791SOL    HW198775   8.254   1.892   8.550 -1.1556  0.4189  1.1462
31791SOL    HW298776   8.119   1.914   8.485 -0.2399 -1.2385 -1.4754
31792SOL     OW98777   2.962   9.379   1.061  0.2945  0.0714  0.4339
31792SOL    HW198778   2.936   9.393   0.970 -0.3822 -3.9959 -0.1914
31792SOL    HW298779   2.881   9.388   1.111  0.3570  0.7458  0.4154
31793SOL     OW98780   8.692   0.713   2.779 -0.2476  0.1818  0.1401
31793SOL    HW198781   8.783   0.704   2.806 -0.1788 -1.7610 -0.5799
31793SOL    HW298782   8.641   0.688   2.856 -0.2228  1.9857  0.7792
31794SOL     OW98783   3.215   3.093   1.583 -0.3082 -0.6928 -0.0952
31794SOL    HW198784   3.273   3.076   1.509  1.1462 -1.2076  1.1047
31794SOL    HW298785   3.170   3.010   1.598 -0.9721 -0.4490 -0.6848
31795SOL     OW98786   1.208   3.800   7.150 -0.4079 -0.0092  0.1954
31795SOL    HW198787   1.219   3.745   7.073 -0.3113 -1.7820  1.4233
31795SOL    HW298788   1.284   3.780   7.205 -1.3929 -0.1289  1.5440
31796SOL     OW98789   5.273   6.426   3.304  0.2039  0.6607 -0.0526
31796SOL    HW198790   5.225   6.500   3.343  2.0015  2.2406 -0.6616
31796SOL    HW298791   5.205   6.362   3.283 -1.0841  0.1091  4.4973
31797SOL     OW98792   6.659   0.105   8.976  0.0603 -0.2163  0.6100
31797SOL    HW198793   6.583   0.162   8.961  1.3473  1.2366 -0.7334
31797SOL    HW298794   6.635   0.022   8.936 -1.0388  0.0332  0.7135
31798SOL     OW98795   2.192   1.997  10.820  0.2600 -1.0417  0.1307
31798SOL    HW198796   2.134   2.045  10.761 -1.4572 -1.3888  1.4570
31798SOL    HW298797   2.232   2.065  10.874 -1.2400 -0.9530  1.1913
31799SOL     OW98798   9.148   4.892   7.008 -0.6155  0.1169  0.1876
31799SOL    HW198799   9.120   4.934   7.089 -2.3472 -0.4111 -0.0855
31799SOL    HW298800   9.224   4.942   6.979 -1.0713  1.4307  1.2026
31800SOL     OW98801   5.860   3.363   3.146 -0.3432  0.4248  0.4646
31800SOL    HW198802   5.945   3.392   3.180 -0.0041  0.4912 -0.4032
31800SOL    HW298803   5.809   3.443   3.136 -0.5747  0.3663  1.1546
31801SOL     OW98804   6.587   7.480   9.879  0.5207  0.1746 -0.4165
31801SOL    HW198805   6.509   7.518   9.919  1.8783  1.6273  1.0369
31801SOL    HW298806   6.596   7.526   9.795 -2.1330 -2.6275 -2.4766
31802SOL     OW98807   7.449   2.319   8.374 -0.4420  0.7475 -0.4354
31802SOL    HW198808   7.362   2.345   8.344 -0.7041  0.4871  0.0712
31802SOL    HW298809   7.482   2.260   8.306 -2.1866 -2.1439  1.0148
31803SOL     OW98810   6.873   8.002   1.962  0.1017 -0.2550  0.0402
31803SOL    HW198811   6.866   8.087   2.006  1.7098 -0.7221  1.3003
31803SOL    HW298812   6.950   8.012   1.905  0.4082 -0.9163  0.3329
31804SOL     OW98813   9.488   1.540   6.541  0.0251  0.3419  0.3024
31804SOL    HW198814   9.544   1.541   6.618  0.4634  1.0117 -0.0107
31804SOL    HW298815   9.496   1.629   6.504  0.9601 -0.3707 -1.3136
31805SOL     OW98816   0.436   5.452   4.652  0.6849  0.2332  0.5588
31805SOL    HW198817   0.369   5.480   4.714  0.7507  1.3163  0.1501
31805SOL    HW298818   0.517   5.491   4.684  0.9047 -0.0394  0.3458
31806SOL     OW98819   0.454   6.872   7.203 -0.0304 -0.4796  0.2487
31806SOL    HW198820   0.375   6.925   7.196  0.7665  0.6952 -0.2464
31806SOL    HW298821   0.513   6.924   7.257 -0.4932 -2.5191  2.9026
31807SOL     OW98822   9.715   1.477   5.567  0.3012 -0.0570 -0.3884
31807SOL    HW198823   9.765   1.540   5.619 -2.0840  1.2122  0.4787
31807SOL    HW298824   9.722   1.509   5.477  2.2755 -0.7950 -0.5461
31808SOL     OW98825   7.096   0.101   8.680  0.7526  0.3134  0.1178
31808SOL    HW198826   7.074   0.088   8.772 -0.1054 -0.8595 -0.2371
31808SOL    HW298827   7.046   0.178   8.654  1.6391  1.1541  0.8309
31809SOL     OW98828   6.279   2.261   3.581 -0.0665  0.4388 -0.2985
31809SOL    HW198829   6.292   2.279   3.674 -1.2447 -1.4188  0.2635
31809SOL    HW298830   6.345   2.194   3.560 -0.9061 -0.3932 -0.3485
31810SOL     OW98831   3.774   4.291   4.435 -0.6042  0.2044  0.2799
31810SOL    HW198832   3.843   4.233   4.403 -0.4371  0.4355  0.2163
31810SOL    HW298833   3.749   4.343   4.358 -0.7005  0.2673  0.3541
31811SOL     OW98834   1.104   1.220   0.592  0.3770  0.9806 -0.1802
31811SOL    HW198835   1.128   1.130   0.613  1.0612  1.6092  1.9970
31811SOL    HW298836   1.105   1.223   0.496  1.5171 -1.0105 -0.2970
31812SOL     OW98837   8.830   9.921   1.780  0.2861 -0.2083 -0.5386
31812SOL    HW198838   8.771   9.875   1.840  0.1358 -0.1965 -0.6745
31812SOL    HW298839   8.859   9.998   1.828 -0.0674 -0.0420 -0.5835
31813SOL     OW98840   6.614  10.002   7.369 -0.3109  0.0580 -0.1024
31813SOL    HW198841   6.638  10.091   7.393 -0.1884  0.6080 -2.1000
31813SOL    HW298842   6.524   9.992   7.401 -0.8727  1.4476 -1.1805
31814SOL     OW98843  10.566   0.134   9.189  0.4188  0.8444  0.4823
31814SOL    HW198844  10.520   0.175   9.263 -0.3536 -0.5373  0.7956
31814SOL    HW298845  10.499   0.082   9.145  0.9914  1.2344 -0.9100
31815SOL     OW98846   9.736  10.181   6.721  0.5248  0.3235 -0.3195
31815SOL    HW198847   9.811  10.237   6.705 -0.2112  2.1109  1.9943
31815SOL    HW298848   9.714  10.145   6.635  3.1176  0.8453 -1.2870
31816SOL     OW98849   8.845   7.184   5.704 -0.5013  0.4800 -0.6117
31816SOL    HW198850   8.754   7.215   5.701 -0.8437 -0.5652 -2.9563
31816SOL    HW298851   8.837   7.088   5.707  0.5277  0.3990 -0.2156
31817SOL     OW98852   7.712   7.585   2.373  0.2254  0.7617  0.1671
31817SOL    HW198853   7.757   7.657   2.416 -0.0181  0.2493  1.3275
31817SOL    HW298854   7.779   7.517   2.363 -0.1737  0.0967  1.6617
31818SOL     OW98855   0.668   5.730   2.221  0.1481  0.3821 -0.4033
31818SOL    HW198856   0.619   5.762   2.296 -0.2343  0.1278 -0.5415
31818SOL    HW298857   0.640   5.786   2.149  0.9081  0.9691 -0.2529
31819SOL     OW98858   3.483   2.445   9.195 -0.6054 -0.4884  0.0295
31819SOL    HW198859   3.397   2.403   9.198 -0.5354 -0.8163 -1.6031
31819SOL    HW298860   3.535   2.390   9.137 -0.1058  1.1287 -1.1263
31820SOL     OW98861   1.612   5.511   1.503  0.5133  0.4511  0.2278
31820SOL    HW198862   1.650   5.497   1.589  1.4752 -2.2227 -0.5371
31820SOL    HW298863   1.677   5.564   1.456  0.8989  0.2571  0.5382
31821SOL     OW98864   8.167   6.751   5.436  0.1603 -0.3450 -0.5588
31821SOL    HW198865   8.237   6.742   5.371 -0.2839 -1.9401 -0.8372
31821SOL    HW298866   8.087   6.760   5.384  0.0497  0.6780 -0.2328
31822SOL     OW98867   2.023   0.086   9.829 -0.0511 -0.5595 -0.3322
31822SOL    HW198868   2.109   0.107   9.866  0.2067 -1.9432 -0.1017
31822SOL    HW298869   1.964   0.083   9.905 -0.3409  0.4654 -0.4988
31823SOL     OW98870  10.503   2.669   3.373 -0.0195 -0.0494 -0.8270
31823SOL    HW198871  10.579   2.664   3.431 -0.3857 -1.1349 -0.4235
31823SOL    HW298872  10.428   2.675   3.432 -0.4262 -1.5595 -1.1503
31824SOL     OW98873   8.441   9.691   2.574 -0.2478 -0.3022 -0.3568
31824SOL    HW198874   8.346   9.694   2.561 -0.3548  1.3971  0.4440
31824SOL    HW298875   8.476   9.754   2.511  0.1891  0.0946  0.2570
31825SOL     OW98876   4.278   2.754  10.702  0.4672 -0.5301 -0.6803
31825SOL    HW198877   4.289   2.849  10.709  0.4084 -0.6436  1.6485
31825SOL    HW298878   4.365   2.718  10.717  0.7338 -0.8648 -2.7285
31826SOL     OW98879   8.340   1.918   9.657 -0.4657  0.0650 -0.2581
31826SOL    HW198880   8.259   1.938   9.704  1.0250 -0.2063  2.6018
31826SOL    HW298881   8.331   1.825   9.633 -1.1559  0.1539 -0.3808
31827SOL     OW98882   2.914   6.525   7.327 -0.2240  0.1595 -0.5808
31827SOL    HW198883   2.968   6.602   7.311  1.0667 -0.8403 -1.1620
31827SOL    HW298884   2.896   6.529   7.421 -0.5443  1.3747 -0.6656
31828SOL     OW98885   8.694   0.416   3.944 -0.3453 -0.1108 -0.2844
31828SOL    HW198886   8.722   0.508   3.943  0.5624 -0.3440  0.7063
31828SOL    HW298887   8.696   0.392   4.037  1.9277 -1.8269 -0.6833
31829SOL     OW98888   0.507   6.769   8.518 -0.0457  0.3491 -0.0964
31829SOL    HW198889   0.491   6.823   8.595 -0.1077 -0.3976  0.4225
31829SOL    HW298890   0.420   6.758   8.479 -0.0051  0.7798 -0.3127
31830SOL     OW98891   8.701   9.607   9.670 -0.0451  0.6457  0.4101
31830SOL    HW198892   8.715   9.640   9.759 -0.9075 -0.5900  1.0244
31830SOL    HW298893   8.606   9.606   9.660 -0.2050 -3.2035  1.0694
31831SOL     OW98894   3.743   2.925   6.319  0.0073 -0.0165  0.1213
31831SOL    HW198895   3.823   2.897   6.274  0.5277  0.9749  0.3914
31831SOL    HW298896   3.676   2.925   6.251  0.2199 -0.8834 -0.1041
31832SOL     OW98897   9.214   2.571  10.197 -0.2832  0.0642  0.2521
31832SOL    HW198898   9.139   2.545  10.143 -0.4686  1.1090 -0.0102
31832SOL    HW298899   9.204   2.665  10.209  0.8658  0.1869  0.3966
31833SOL     OW98900   8.111   1.550   1.737 -0.5376 -0.5840 -0.1960
31833SOL    HW198901   8.065   1.576   1.817  0.3135 -2.3431  0.9170
31833SOL    HW298902   8.136   1.633   1.696 -1.1545  0.3562  1.2405
31834SOL     OW98903   8.256   1.503   3.275 -0.2228  0.3601  0.2930
31834SOL    HW198904   8.316   1.463   3.213  0.0728  0.2450  0.6508
31834SOL    HW298905   8.239   1.435   3.341 -0.1592  0.6315  0.5952
31835SOL     OW98906   4.341   8.568   8.625 -0.3480  0.5754 -0.1891
31835SOL    HW198907   4.308   8.502   8.564 -0.9722  0.3450  0.3846
31835SOL    HW298908   4.267   8.627   8.640  0.0067  1.0287 -0.1832
31836SOL     OW98909   1.074   1.822   2.690  0.4721  0.1943  0.0959
31836SOL    HW198910   1.002   1.879   2.662  1.0724 -0.0063 -2.0233
31836SOL    HW298911   1.031   1.745   2.727 -0.4927 -0.4793 -2.2583
31837SOL     OW98912   2.788   7.289   2.012  0.2631 -0.5645 -0.1234
31837SOL    HW198913   2.870   7.326   2.046 -0.1076  0.3522 -0.1964
31837SOL    HW298914   2.810   7.198   1.991  1.3564 -0.2456 -0.4497
31838SOL     OW98915   9.117   0.959   1.922  0.3487  0.4790 -0.1215
31838SOL    HW198916   9.146   1.022   1.988  0.4050  0.5994 -0.2604
31838SOL    HW298917   9.191   0.950   1.863  0.7544 -0.5720  0.5230
31839SOL     OW98918   5.652   0.032   4.488 -0.3490 -0.0061  0.1677
31839SOL    HW198919   5.578  -0.012   4.531 -1.1657  0.3614 -0.8238
31839SOL    HW298920   5.611   0.099   4.433  0.7169  0.0410 -0.5912
31840SOL     OW98921   9.070   9.695   4.627  0.6346  0.1304 -0.6164
31840SOL    HW198922   9.061   9.666   4.718  0.8332  0.9656 -0.3203
31840SOL    HW298923   9.076   9.614   4.577  0.7262 -0.3436  0.1361
31841SOL     OW98924   0.551   7.397   8.134 -0.0343 -0.0933  0.1575
31841SOL    HW198925   0.566   7.308   8.100 -0.7917 -0.2847  0.2984
31841SOL    HW298926   0.511   7.383   8.220  0.9898  0.3892  0.7268
31842SOL     OW98927   7.214   1.029   5.206  0.1933  0.3007  0.8005
31842SOL    HW198928   7.138   1.010   5.262  0.3147  0.6770  1.0963
31842SOL    HW298929   7.240   0.944   5.171 -0.1898  0.1312  0.9287
31843SOL     OW98930   4.490   9.516   7.620 -0.3575  0.8258 -0.6120
31843SOL    HW198931   4.520   9.432   7.586  0.3168  0.6917  0.2657
31843SOL    HW298932   4.416   9.540   7.565  0.8007  0.7216 -2.2641
31844SOL     OW98933  10.099   2.254   4.541 -0.3704 -0.7818 -0.1582
31844SOL    HW198934  10.007   2.244   4.563 -0.7563  1.1203 -0.7239
31844SOL    HW298935  10.145   2.245   4.624 -1.1891 -0.4293  0.3421
31845SOL     OW98936  10.876   1.376  10.735 -0.0040  0.8823  0.5389
31845SOL    HW198937  10.881   1.389  10.641  1.2158 -0.1632  0.4339
31845SOL    HW298938  10.794   1.329  10.749  0.3982 -0.0594 -0.1568
31846SOL     OW98939  10.154   3.038   4.103  0.1868 -0.6106  0.0738
31846SOL    HW198940  10.135   3.058   4.195  1.2477 -0.7061  0.3259
31846SOL    HW298941  10.108   3.106   4.054  0.6912  0.2321  0.7369
31847SOL     OW98942   4.996   7.755   2.621  0.1622  0.3708 -0.0080
31847SOL    HW198943   4.939   7.791   2.689  2.5822  0.8716  1.9131
31847SOL    HW298944   5.009   7.664   2.647 -0.6072 -0.0639 -1.0787
31848SOL     OW98945   3.402   4.178   2.182  0.4235 -0.4626 -0.5220
31848SOL    HW198946   3.358   4.193   2.266  0.6079  0.4770 -0.5797
31848SOL    HW298947   3.344   4.118   2.136 -0.6988  0.5691 -0.4993
31849SOL     OW98948   8.267   0.039   5.467  0.1041 -0.2806 -0.7500
31849SOL    HW198949   8.267   0.104   5.537  0.1439 -0.5522 -0.4994
31849SOL    HW298950   8.185   0.056   5.419 -0.1014 -0.3269 -0.4216
31850SOL     OW98951   4.702  10.025   1.751 -0.9458  0.2398 -0.0528
31850SOL    HW198952   4.625   9.973   1.774 -0.8874  0.0090 -0.3696
31850SOL    HW298953   4.776   9.975   1.783 -0.9145  0.3391  0.0294
31851SOL     OW98954   1.571   7.878   5.202  0.3112  0.0957  0.9389
31851SOL    HW198955   1.516   7.907   5.275 -2.0728  1.7532 -1.3237
31851SOL    HW298956   1.630   7.951   5.186 -1.1905  1.0612 -0.5557
31852SOL     OW98957   8.940  10.328   4.359  0.0023  0.5912 -0.4623
31852SOL    HW198958   8.972  10.276   4.433  0.1634  2.2381  0.6675
31852SOL    HW298959   8.849  10.300   4.348  0.1108  0.0026  0.0599
31853SOL     OW98960   4.230   6.985   1.106  0.1142 -0.5851  0.0277
31853SOL    HW198961   4.145   6.950   1.133  1.3763 -4.8223 -0.7731
31853SOL    HW298962   4.287   6.969   1.181  0.2431  2.7502  0.7871
31854SOL     OW98963  10.162   5.016   5.159 -0.1230  0.0627 -0.4649
31854SOL    HW198964  10.132   4.929   5.134 -1.3617 -0.0103  1.1674
31854SOL    HW298965  10.257   5.014   5.142 -0.0496 -1.7423 -0.0403
31855SOL     OW98966   5.994   1.806   6.964  0.1223  0.0267  0.3207
31855SOL    HW198967   5.930   1.738   6.946  1.1322 -1.0262  0.5883
31855SOL    HW298968   6.062   1.793   6.897  0.6295  0.3678  0.7606
31856SOL     OW98969   3.326   3.806   8.640 -0.8809  0.4928 -0.5935
31856SOL    HW198970   3.291   3.844   8.720  2.0558  0.7563  0.6934
31856SOL    HW298971   3.346   3.882   8.585  0.8380  0.6278  0.1495
31857SOL     OW98972   9.817   3.461   2.588 -0.0423 -0.4535  0.0891
31857SOL    HW198973   9.775   3.394   2.534  1.3199 -1.1611 -0.1356
31857SOL    HW298974   9.878   3.505   2.528  0.9430 -0.7492  0.8406
31858SOL     OW98975   5.322   6.064   8.767  0.6576 -0.2861 -0.1922
31858SOL    HW198976   5.326   5.987   8.823 -1.3682  0.5933  1.2894
31858SOL    HW298977   5.295   6.135   8.826  1.1594  1.2862 -1.7628
31859SOL     OW98978   0.306   6.393   4.898  0.2411 -0.3870 -0.5462
31859SOL    HW198979   0.227   6.366   4.852  0.3289  0.6651 -1.3509
31859SOL    HW298980   0.377   6.352   4.848  0.2632 -0.5789 -0.3626
31860SOL     OW98981   9.005  10.463   0.397  0.0950 -0.2498  0.4837
31860SOL    HW198982   8.983  10.521   0.324 -1.4595 -0.9569  0.3495
31860SOL    HW298983   8.970  10.508   0.474  0.5482 -0.1353  0.6235
31861SOL     OW98984   7.174   4.919   7.993  0.5039 -0.1324 -0.7064
31861SOL    HW198985   7.238   4.907   8.063 -0.8763 -0.2597  0.5978
31861SOL    HW298986   7.176   5.013   7.975  1.1692 -0.1616 -0.8094
31862SOL     OW98987  10.114   9.228   2.172  0.3373  0.4499 -0.4689
31862SOL    HW198988  10.131   9.321   2.181  1.1599  0.2395  0.3251
31862SOL    HW298989  10.195   9.192   2.136 -0.0175  0.0620 -0.8892
31863SOL     OW98990   3.971   7.282   3.415  0.2704 -0.3600 -0.9070
31863SOL    HW198991   3.900   7.320   3.467  1.6792  0.0902  0.7978
31863SOL    HW298992   3.933   7.203   3.376 -1.5390  0.6054 -1.2021
31864SOL     OW98993   2.173   9.541   2.662 -0.1566 -0.0984  0.0962
31864SOL    HW198994   2.093   9.494   2.687 -1.5402  0.5307 -2.7322
31864SOL    HW298995   2.232   9.472   2.631 -0.6412 -0.3477 -0.2897
31865SOL     OW98996   1.803   5.379   9.183 -0.1363  0.1093  0.1226
31865SOL    HW198997   1.777   5.440   9.253  0.4290 -1.3318  1.6749
31865SOL    HW298998   1.759   5.297   9.206 -0.5734 -0.2018 -1.7044
31866SOL     OW98999   9.370   5.988   0.991  0.2562  0.4059  0.1284
31866SOL    HW199000   9.331   6.000   0.904 -0.9634  1.4107  0.7738
31866SOL    HW299001   9.309   6.032   1.051 -1.8631 -4.5379  2.2098
31867SOL     OW99002   7.874   6.519   8.555 -0.2556  0.3463 -0.4521
31867SOL    HW199003   7.869   6.459   8.629 -1.5276 -0.6776 -1.3147
31867SOL    HW299004   7.841   6.602   8.589  1.0534  0.4657  0.6278
31868SOL     OW99005   2.700   3.615   1.930  0.3676 -0.5863  0.3209
31868SOL    HW199006   2.610   3.617   1.898  0.9061 -2.0009 -1.4400
31868SOL    HW299007   2.713   3.525   1.961  1.3140 -0.5344  0.1165
31869SOL     OW99008   5.168   2.287   0.781 -0.2903  0.1958  0.1200
31869SOL    HW199009   5.215   2.348   0.837  0.5273  0.5186 -0.8958
31869SOL    HW299010   5.216   2.205   0.788 -0.1210  0.2670 -0.1852
31870SOL     OW99011   9.635   3.610   0.696 -0.4241  0.1348  1.0113
31870SOL    HW199012   9.601   3.660   0.621 -1.0303 -0.3802  0.9275
31870SOL    HW299013   9.581   3.531   0.698 -0.3716  0.1122  1.9624
31871SOL     OW99014   9.440   3.562   7.758 -0.3913 -0.5270  0.0637
31871SOL    HW199015   9.501   3.533   7.826 -0.0285  1.0084  0.4253
31871SOL    HW299016   9.495   3.600   7.690 -0.8987  0.8078  0.3614
31872SOL     OW99017   5.281   9.383   3.120  0.6649 -0.2997 -0.1255
31872SOL    HW199018   5.201   9.372   3.069  0.1538 -0.0628  0.6152
31872SOL    HW299019   5.295   9.299   3.162  0.8352 -0.3565 -0.2939
31873SOL     OW99020   6.521   5.593   8.066  0.5125  0.0597  0.0640
31873SOL    HW199021   6.481   5.608   7.980 -1.1907 -2.0501  0.3830
31873SOL    HW299022   6.583   5.522   8.051 -0.6368 -1.1395  0.7113
31874SOL     OW99023  10.724   4.525   5.713  0.2071  0.1639 -0.2872
31874SOL    HW199024  10.667   4.602   5.703  0.4203  0.0461 -3.4626
31874SOL    HW299025  10.798   4.557   5.764 -1.1295  1.1889  1.1372
31875SOL     OW99026   2.832   8.532   1.928  0.1651 -0.6573 -0.3490
31875SOL    HW199027   2.912   8.511   1.879  0.5521 -0.3634  0.1600
31875SOL    HW299028   2.768   8.553   1.860  0.9084  0.4966 -0.7223
31876SOL     OW99029   6.997   8.990   8.043 -0.4660  0.4923  0.4803
31876SOL    HW199030   6.935   8.927   8.079  0.0122  0.0698  0.5650
31876SOL    HW299031   6.943   9.066   8.019 -0.8664  0.5997  1.6466
31877SOL     OW99032   7.750   5.667   2.584 -0.1684  0.6763  0.3123
31877SOL    HW199033   7.761   5.596   2.520  0.3691  2.3847 -1.6329
31877SOL    HW299034   7.777   5.746   2.536 -3.3977  2.6414  1.3555
31878SOL     OW99035   4.415   8.013   4.552 -0.3332  0.8707  0.1233
31878SOL    HW199036   4.381   7.981   4.635  0.7512 -0.6063  0.0406
31878SOL    HW299037   4.371   7.959   4.486  1.3970 -0.4349 -0.0309
31879SOL     OW99038  10.048   1.940   9.924  0.2853 -0.3276 -0.1358
31879SOL    HW199039  10.136   1.921   9.956  0.3468 -1.9561 -1.1789
31879SOL    HW299040  10.007   1.989   9.996  1.5925 -0.7202  0.9242
31880SOL     OW99041   4.753   6.637   6.181  0.6033  0.3058  1.1324
31880SOL    HW199042   4.788   6.622   6.268 -0.0026  0.2506  1.3683
31880SOL    HW299043   4.665   6.671   6.195  0.9400  1.4538  0.5612
31881SOL     OW99044   4.801   1.638   3.171  0.0720  0.0457 -0.1254
31881SOL    HW199045   4.818   1.661   3.080  1.0232  1.4252  0.3827
31881SOL    HW299046   4.813   1.543   3.174  2.2618  0.2392 -0.9880
31882SOL     OW99047   0.229   6.358  10.362 -0.5629 -0.0642 -0.3145
31882SOL    HW199048   0.313   6.398  10.382 -0.0631 -0.8682 -0.7729
31882SOL    HW299049   0.185   6.421  10.305 -0.9371  1.0766  1.1687
31883SOL     OW99050   8.225   7.003   5.528 -0.8015  0.1750  0.0905
31883SOL    HW199051   8.174   7.021   5.607 -1.3670  1.2636 -0.4819
31883SOL    HW299052   8.218   6.909   5.515 -2.4392  0.2371  0.2202
31884SOL     OW99053   0.071   9.153   9.659 -0.3524  0.7196 -0.7316
31884SOL    HW199054   0.156   9.191   9.635 -0.4136  0.3816 -1.5296
31884SOL    HW299055   0.054   9.089   9.590  0.0779 -1.2804  0.9490
31885SOL     OW99056   6.936   3.951   9.735  0.3643 -0.1241 -0.3968
31885SOL    HW199057   6.860   3.903   9.703  1.0075 -0.9686 -0.6834
31885SOL    HW299058   6.995   3.884   9.770  1.7211  0.3384 -1.7030
31886SOL     OW99059   8.810   9.508  10.851 -0.2067  0.6129  0.4268
31886SOL    HW199060   8.811   9.461  10.768 -0.3885  0.6699  0.3916
31886SOL    HW299061   8.717   9.516  10.873 -0.1758  0.9459  0.4373
31887SOL     OW99062  10.600   3.803  10.319  0.0643  0.2534  0.3305
31887SOL    HW199063  10.532   3.770  10.261  0.9493 -0.9863 -0.0348
31887SOL    HW299064  10.601   3.741  10.392 -0.9549  1.7224  1.6590
31888SOL     OW99065   5.325   5.161   0.224 -0.0331 -0.3446 -0.1550
31888SOL    HW199066   5.380   5.103   0.277 -1.9238 -2.9376 -0.8338
31888SOL    HW299067   5.380   5.238   0.208  2.1940 -1.4032  1.8015
31889SOL     OW99068   8.725   9.108   5.680  0.0768  0.3044  0.2460
31889SOL    HW199069   8.692   9.184   5.728 -1.7919  1.4046 -2.5617
31889SOL    HW299070   8.662   9.038   5.698  0.2035  0.2689  0.5543
31890SOL     OW99071  10.780   1.959   9.526  0.7189  0.1748  0.0895
31890SOL    HW199072  10.731   1.946   9.446  0.0244 -0.7350  0.6406
31890SOL    HW299073  10.835   1.880   9.534  1.4477  0.6658  0.0544
31891SOL     OW99074   2.742   0.071   8.341  0.2788 -0.4507 -0.4331
31891SOL    HW199075   2.828   0.088   8.302  0.6383 -1.5246 -0.1313
31891SOL    HW299076   2.681   0.123   8.288  0.8161 -1.4680 -2.1158
31892SOL     OW99077   0.143   8.367   8.176 -0.1465 -0.5337 -0.2052
31892SOL    HW199078   0.235   8.365   8.148 -1.1228  1.8223 -4.4920
31892SOL    HW299079   0.096   8.324   8.105 -2.4791 -1.4291  1.7453
31893SOL     OW99080   4.491   8.906   3.870 -0.1791 -0.1083  0.0844
31893SOL    HW199081   4.528   8.991   3.895 -0.7067  0.1665 -0.0639
31893SOL    HW299082   4.407   8.927   3.829  0.5501 -0.5575 -1.7410
31894SOL     OW99083   0.459   8.802   8.914  0.8921 -0.0116 -0.2146
31894SOL    HW199084   0.481   8.859   8.841 -2.7580 -0.0215 -1.5506
31894SOL    HW299085   0.369   8.775   8.897  0.0791 -0.6478  3.9131
31895SOL     OW99086   7.278   4.410   7.658  0.0231 -0.6780 -0.1442
31895SOL    HW199087   7.293   4.329   7.707  2.5549 -0.3657 -0.2400
31895SOL    HW299088   7.326   4.397   7.576  0.7596  1.0187 -0.0176
31896SOL     OW99089   3.420   4.207   3.549  0.4896  0.2978  0.2859
31896SOL    HW199090   3.377   4.231   3.631 -1.0291 -2.1232  0.3072
31896SOL    HW299091   3.414   4.285   3.495  1.1998  1.8450  2.2944
31897SOL     OW99092   4.528   7.042   2.500 -0.0993  0.6646  0.1693
31897SOL    HW199093   4.488   7.030   2.414 -0.3497  1.1959  0.2075
31897SOL    HW299094   4.619   7.013   2.489 -0.4411 -0.3888  0.0374
31898SOL     OW99095   0.605   6.608   3.194 -0.4185 -0.0462 -0.2123
31898SOL    HW199096   0.518   6.629   3.160 -0.7472 -2.1206 -0.7475
31898SOL    HW299097   0.610   6.513   3.193  1.2374 -0.0449  1.4431
31899SOL     OW99098   6.376  10.175   8.767  0.2108  0.1147  0.4473
31899SOL    HW199099   6.374  10.202   8.859  1.5183  1.0863  0.2108
31899SOL    HW299100   6.294  10.209   8.731 -0.5795 -0.7365  1.3458
31900SOL     OW99101   6.074   3.147   6.351 -0.6094 -0.2560 -0.1897
31900SOL    HW199102   6.119   3.221   6.310 -0.7830 -1.1941 -2.1780
31900SOL    HW299103   6.141   3.079   6.358 -0.4041  0.0834  1.7844
31901SOL     OW99104   2.610  10.379   9.236  0.0513 -0.1815 -0.1926
31901SOL    HW199105   2.540  10.315   9.228  2.0536 -2.5252 -0.1393
31901SOL    HW299106   2.645  10.388   9.148  0.1218  0.5068 -0.1078
31902SOL     OW99107   1.606   2.876   5.302  0.2485  0.5349 -0.1711
31902SOL    HW199108   1.620   2.894   5.209 -1.3201  1.1727 -0.3114
31902SOL    HW299109   1.541   2.807   5.304  1.2961 -0.4612  0.4666
31903SOL     OW99110   1.333   1.031   2.574  0.3272 -0.2769  0.0700
31903SOL    HW199111   1.330   0.950   2.626  2.2878 -0.6249 -0.2533
31903SOL    HW299112   1.357   1.099   2.637 -1.7262  0.1855  0.4216
31904SOL     OW99113   3.403   7.514   2.805 -0.2700 -0.1908 -0.0554
31904SOL    HW199114   3.425   7.570   2.730 -0.3266 -1.0893 -0.7497
31904SOL    HW299115   3.487   7.496   2.847 -0.4888  3.1301  2.2074
31905SOL     OW99116   7.973   0.140   3.074  0.1818 -0.5191 -0.8313
31905SOL    HW199117   8.003   0.161   2.986  1.0348 -2.0402 -0.9375
31905SOL    HW299118   8.000   0.049   3.087 -1.3007 -0.8134  0.4200
31906SOL     OW99119   1.263   6.365   0.225 -0.6966  0.1372  0.2152
31906SOL    HW199120   1.252   6.458   0.243 -1.0414  0.0157  0.6415
31906SOL    HW299121   1.279   6.325   0.311 -0.0143 -0.1254 -0.0236
31907SOL     OW99122   8.234   1.860   9.362 -0.2785 -0.2579  0.0081
31907SOL    HW199123   8.152   1.835   9.404  0.3428  0.1366  1.5060
31907SOL    HW299124   8.281   1.910   9.428 -0.4221  2.8768 -2.0182
31908SOL     OW99125   6.820   8.778   1.868  0.2119 -0.0878  0.0198
31908SOL    HW199126   6.832   8.850   1.930  0.6888  0.1835 -0.3787
31908SOL    HW299127   6.731   8.790   1.834  1.3383  2.3233 -2.5081
31909SOL     OW99128   3.162   6.269   4.825  0.7854  0.1203 -0.6054
31909SOL    HW199129   3.140   6.335   4.760 -1.7998 -1.0716 -1.0607
31909SOL    HW299130   3.245   6.232   4.795  0.9694  1.3847 -1.7227
31910SOL     OW99131   9.399   8.821   4.143  0.4053 -0.2182 -0.4379
31910SOL    HW199132   9.308   8.851   4.143  0.5393  0.2524  0.8237
31910SOL    HW299133   9.429   8.837   4.053 -1.2243 -1.9280 -1.3557
31911SOL     OW99134   1.349   0.213   6.149  0.0955 -0.2019 -0.3959
31911SOL    HW199135   1.409   0.242   6.080  1.1103 -0.4481  0.3581
31911SOL    HW299136   1.399   0.225   6.230 -0.5600 -1.2244  0.1768
31912SOL     OW99137   5.906   8.015   1.634  0.5680 -0.7703  0.2472
31912SOL    HW199138   5.935   7.927   1.611 -0.4834 -0.1805 -4.2810
31912SOL    HW299139   5.986   8.068   1.631  0.6268 -0.8813 -1.8310
31913SOL     OW99140   7.573   5.076  10.713 -0.7286 -0.7244 -0.0671
31913SOL    HW199141   7.485   5.056  10.681 -1.2726  1.5279 -0.1324
31913SOL    HW299142   7.578   5.033  10.799 -1.8856 -0.8679 -0.0550
31914SOL     OW99143   3.820   2.692   1.229 -0.3037  0.4847  0.5332
31914SOL    HW199144   3.836   2.636   1.153 -2.7803  2.1542 -1.3429
31914SOL    HW299145   3.873   2.770   1.213 -0.4336  0.6308  0.7994
31915SOL     OW99146   5.172   9.674   0.250  0.1255 -0.1828  0.3998
31915SOL    HW199147   5.220   9.664   0.332 -0.3645 -0.5521  0.6434
31915SOL    HW299148   5.234   9.718   0.192 -0.4961  2.9789  1.8964
31916SOL     OW99149   1.907   7.597   4.010  0.0581 -0.2334 -0.4698
31916SOL    HW199150   1.824   7.606   3.962 -0.3052  1.1375  0.3796
31916SOL    HW299151   1.901   7.660   4.081  1.4407 -0.8094  0.1946
31917SOL     OW99152   0.598   0.855   6.084 -0.5189 -0.1503 -0.1045
31917SOL    HW199153   0.595   0.760   6.091 -0.2782 -0.1421  0.1229
31917SOL    HW299154   0.675   0.873   6.029 -0.6631 -0.0924 -0.2902
31918SOL     OW99155   1.744   2.522  10.344  0.3681 -0.2235  0.0366
31918SOL    HW199156   1.827   2.567  10.358 -0.1935  0.4033  1.5777
31918SOL    HW299157   1.680   2.573  10.395 -1.0746 -0.3924 -1.4924
31919SOL     OW99158   4.103   7.144   5.506 -0.3670  0.3855  0.4137
31919SOL    HW199159   4.022   7.122   5.462 -1.3303  0.6845  1.9665
31919SOL    HW299160   4.132   7.226   5.465 -1.0482  0.4767  0.1118
31920SOL     OW99161   2.518   0.689   2.908 -0.2415  0.1379 -0.2261
31920SOL    HW199162   2.553   0.709   2.822 -1.4499  1.1749 -0.4886
31920SOL    HW299163   2.437   0.739   2.915  1.0312  2.1154  2.4602
31921SOL     OW99164  10.010   4.916   2.399  0.0237 -0.2142  0.4096
31921SOL    HW199165  10.086   4.887   2.350  1.0070 -0.1419  1.8450
31921SOL    HW299166  10.025   4.884   2.488 -2.1346 -1.1197  0.5168
31922SOL     OW99167   1.322   0.624   5.312 -0.1854  0.4305  0.8125
31922SOL    HW199168   1.276   0.625   5.228  1.1812 -0.7088  0.0039
31922SOL    HW299169   1.263   0.577   5.371 -0.4468 -0.2879  0.0123
31923SOL     OW99170   1.010   3.878   0.426 -0.1081  0.0424  0.0792
31923SOL    HW199171   0.976   3.872   0.337 -1.9716  0.6542  0.6969
31923SOL    HW299172   1.009   3.788   0.458  2.5351 -0.5203 -1.1176
31924SOL     OW99173   1.869   9.246   1.885  0.3032 -0.4354 -0.1254
31924SOL    HW199174   1.783   9.221   1.850 -0.4650 -1.0812  2.0900
31924SOL    HW299175   1.912   9.163   1.904 -0.0884 -0.1686  2.1970
31925SOL     OW99176   6.416   0.204   8.998  0.2583  0.3271  0.1408
31925SOL    HW199177   6.377   0.146   9.063 -0.0626  0.6533  0.2431
31925SOL    HW299178   6.373   0.288   9.012 -0.7975  0.0746 -1.3553
31926SOL     OW99179   3.062   3.931   2.342  0.2136 -0.2510 -0.0369
31926SOL    HW199180   3.022   4.015   2.367  1.5071 -0.0866  1.6287
31926SOL    HW299181   3.153   3.952   2.324  0.3799 -1.1926 -0.3333
31927SOL     OW99182   9.923   4.321   7.945  0.0654 -0.2002 -0.1419
31927SOL    HW199183   9.873   4.401   7.933 -0.0264 -0.2414 -0.0404
31927SOL    HW299184   9.858   4.251   7.942 -0.1253 -0.1436  1.6912
31928SOL     OW99185   8.253   9.527   3.767 -0.0511 -0.1546  0.1097
31928SOL    HW199186   8.240   9.603   3.824 -1.6193 -2.6555  3.4416
31928SOL    HW299187   8.342   9.497   3.787  0.4597  0.5695 -0.9881
31929SOL     OW99188   9.831   9.697   4.362  0.4073 -0.5681  0.9410
31929SOL    HW199189   9.751   9.675   4.409 -0.2078 -0.1475  0.1118
31929SOL    HW299190   9.810   9.685   4.270  1.3822 -0.6991  0.7175
31930SOL     OW99191   4.076   8.316   2.268  0.5550 -0.1660  0.5021
31930SOL    HW199192   4.061   8.347   2.358 -0.1517  0.6666  0.1078
31930SOL    HW299193   4.139   8.379   2.232  0.9028 -0.5478  0.4336
31931SOL     OW99194   2.606  10.382   8.318 -0.3099  0.5129  0.3603
31931SOL    HW199195   2.651  10.373   8.401 -1.9703 -1.2884  1.1416
31931SOL    HW299196   2.666  10.343   8.254  0.1635  0.1367  1.0161
31932SOL     OW99197   5.461   1.861   8.897  0.1637 -0.1580 -0.6453
31932SOL    HW199198   5.458   1.799   8.970 -0.0709 -0.4974 -0.9441
31932SOL    HW299199   5.379   1.848   8.850  0.2628  0.1420 -0.9072
31933SOL     OW99200   3.435   4.746   9.222  0.2577  0.2581  0.0786
31933SOL    HW199201   3.394   4.678   9.276  0.2280 -0.2919 -0.6136
31933SOL    HW299202   3.430   4.825   9.275 -1.0087  0.0389  0.3318
31934SOL     OW99203   8.008   4.629   0.372 -0.2434 -0.3000 -0.1024
31934SOL    HW199204   7.960   4.547   0.367 -0.2026 -0.4122  0.9756
31934SOL    HW299205   7.970   4.674   0.448  0.0544  0.4656 -0.3922
31935SOL     OW99206   6.303   9.914   9.179 -0.3370 -0.3755  0.0983
31935SOL    HW199207   6.335   9.856   9.110 -2.7587  1.1130 -2.4654
31935SOL    HW299208   6.291   9.999   9.136 -0.2923  1.1323  2.8288
31936SOL     OW99209   5.940   5.473   1.056 -0.4101  0.0631 -0.2194
31936SOL    HW199210   5.868   5.410   1.051 -1.6222  1.4315 -0.5106
31936SOL    HW299211   6.001   5.435   1.119  0.3065 -2.7964 -2.4313
31937SOL     OW99212   5.233   4.615   0.194 -0.4478 -0.1078  0.0683
31937SOL    HW199213   5.256   4.620   0.286  1.1968 -0.7193 -0.2789
31937SOL    HW299214   5.209   4.705   0.170  0.6860  0.3914  0.7151
31938SOL     OW99215   2.667   7.417   3.342 -0.2077 -0.6580  0.1282
31938SOL    HW199216   2.590   7.439   3.290 -0.1421  0.2343  0.3888
31938SOL    HW299217   2.707   7.501   3.363 -0.3267 -0.9756  1.7715
31939SOL     OW99218   6.526   5.109   1.283  0.0210 -0.0125 -0.0070
31939SOL    HW199219   6.577   5.109   1.202  1.2681 -1.3880  0.7199
31939SOL    HW299220   6.592   5.098   1.352 -1.0038  1.0996  1.2034
31940SOL     OW99221   5.278   0.510   3.711  0.3109 -0.2312  0.4433
31940SOL    HW199222   5.247   0.591   3.752 -1.1316  0.2815 -1.4804
31940SOL    HW299223   5.313   0.458   3.783  2.5355  2.5930  1.5916
31941SOL     OW99224   7.970   5.666  10.522  0.2161  0.3726  0.0044
31941SOL    HW199225   8.063   5.655  10.499  0.0975  0.1069 -0.3704
31941SOL    HW299226   7.966   5.648  10.616  1.0068  3.2247  0.6778
31942SOL     OW99227   1.765   3.195   4.737 -0.5638 -0.3053 -0.1924
31942SOL    HW199228   1.788   3.188   4.644 -0.8721 -0.4182 -0.2634
31942SOL    HW299229   1.745   3.104   4.763 -2.0192 -0.0777 -0.4248
31943SOL     OW99230   6.893  10.646   6.114  0.4812  0.1231 -0.6525
31943SOL    HW199231   6.850  10.692   6.042 -0.1041  0.5025 -0.0748
31943SOL    HW299232   6.942  10.576   6.072  0.0939  0.3000 -1.4137
31944SOL     OW99233   8.144   0.649   2.091 -0.1940  0.4711 -0.1255
31944SOL    HW199234   8.188   0.586   2.035 -0.7119 -1.2472  1.2991
31944SOL    HW299235   8.207   0.720   2.102  1.5727 -1.0988  0.4340
31945SOL     OW99236   2.896   2.166   0.453  0.6553 -0.1817  0.6364
31945SOL    HW199237   2.858   2.254   0.443  0.5377 -0.0090  2.3491
31945SOL    HW299238   2.916   2.138   0.363 -1.8637  0.4463 -0.1877
31946SOL     OW99239   5.955   2.309   9.265 -0.4371 -0.4975 -0.3198
31946SOL    HW199240   5.958   2.401   9.289  1.9159 -0.4336 -0.5354
31946SOL    HW299241   5.913   2.265   9.339  1.1438  0.4188  1.1946
31947SOL     OW99242   1.870   1.105   9.365  0.5685 -0.1998 -0.6078
31947SOL    HW199243   1.894   1.066   9.449  0.1789 -0.5736 -0.6676
31947SOL    HW299244   1.943   1.083   9.307  0.6273 -0.3268 -0.4853
31948SOL     OW99245   3.605   7.163   7.767 -0.4775 -0.4147 -0.1583
31948SOL    HW199246   3.604   7.127   7.855 -1.2172 -0.6008 -0.2343
31948SOL    HW299247   3.697   7.187   7.751 -0.4417  0.2089  0.8934
31949SOL     OW99248  10.799   0.294   4.359 -0.2288  0.0789 -0.3674
31949SOL    HW199249  10.760   0.328   4.278  0.2980 -0.0413 -0.6769
31949SOL    HW299250  10.766   0.352   4.428 -0.5976  0.2456 -0.6804
31950SOL     OW99251   5.985   9.835  10.235  0.0286  0.1898 -0.5040
31950SOL    HW199252   6.046   9.906  10.255  0.7139 -1.0895  2.4348
31950SOL    HW299253   5.909   9.853  10.290 -0.2946 -0.7051 -0.6461
31951SOL     OW99254   9.057   4.595   4.962 -0.4552 -0.2088  0.3604
31951SOL    HW199255   9.134   4.649   4.975  0.7147 -1.9648  1.1885
31951SOL    HW299256   9.035   4.607   4.870  1.3829 -0.3587 -0.1444
31952SOL     OW99257   3.704   5.756   3.389 -1.1388 -0.2753  0.6363
31952SOL    HW199258   3.687   5.847   3.363  0.4160 -0.2857 -0.5688
31952SOL    HW299259   3.649   5.743   3.466 -0.8571  1.9370  1.3048
31953SOL     OW99260   9.858   9.214   5.445  0.2132  0.3102 -0.2872
31953SOL    HW199261   9.880   9.244   5.356  0.2626 -0.6165 -0.6014
31953SOL    HW299262   9.875   9.120   5.443 -1.6051 -0.0569  0.1477
31954SOL     OW99263   6.940   2.713   3.015 -0.1614 -0.1435 -0.4785
31954SOL    HW199264   6.878   2.695   2.944 -0.0510 -0.6619 -0.4491
31954SOL    HW299265   6.886   2.741   3.088 -0.5139 -1.9800  0.0146
31955SOL     OW99266   1.297   5.449   7.263 -0.3806  0.6459 -0.3974
31955SOL    HW199267   1.367   5.476   7.323 -1.9835  0.6600  1.5980
31955SOL    HW299268   1.247   5.529   7.245  0.3213  0.7284 -2.1790
31956SOL     OW99269   1.815   9.886   9.894  0.1694  0.3144 -0.7387
31956SOL    HW199270   1.848   9.972   9.867 -1.8294  0.8857 -1.5780
31956SOL    HW299271   1.764   9.855   9.819  2.0161 -2.3131 -1.0249
31957SOL     OW99272   9.148   3.059   4.732 -0.8175  0.0899  0.2668
31957SOL    HW199273   9.098   3.096   4.659  0.0727  1.1604  0.1707
31957SOL    HW299274   9.132   2.965   4.726  0.1157  0.0112 -2.0230
31958SOL     OW99275   0.237   4.487   5.158 -0.0440 -0.4872  0.1264
31958SOL    HW199276   0.255   4.547   5.085 -0.3037 -0.8884 -0.2737
31958SOL    HW299277   0.287   4.522   5.231  0.1762 -0.0460 -0.2329
31959SOL     OW99278   6.792   3.042   5.559  0.7820  0.2253  0.0398
31959SOL    HW199279   6.799   3.080   5.646 -0.1024  1.5568 -0.4244
31959SOL    HW299280   6.710   2.991   5.562  0.7675  0.2460 -0.0009
31960SOL     OW99281   0.906   9.599  10.123 -0.2775 -0.9501  0.0427
31960SOL    HW199282   0.918   9.562  10.210  2.6082 -0.1787  0.0779
31960SOL    HW299283   0.939   9.688  10.130 -0.9794 -0.5079 -1.6185
31961SOL     OW99284   5.564   8.818   8.847 -0.0099 -0.2481  0.9728
31961SOL    HW199285   5.626   8.843   8.915  0.3188 -1.8811  1.3289
31961SOL    HW299286   5.619   8.797   8.771 -0.3283  0.8724  0.4063
31962SOL     OW99287   4.171   4.041   1.552  0.0893 -0.7506  0.2058
31962SOL    HW199288   4.087   4.083   1.574  0.5561  1.5316 -1.8922
31962SOL    HW299289   4.173   4.041   1.456  1.9834 -1.8557  0.1983
31963SOL     OW99290   2.180   0.946   1.432 -0.0408 -0.0041  0.0191
31963SOL    HW199291   2.234   0.922   1.507 -0.8010 -1.7375  0.0474
31963SOL    HW299292   2.226   1.021   1.393  0.1084  1.2672  2.4613
31964SOL     OW99293   8.969   7.111   3.707  0.7428 -0.2422  0.3198
31964SOL    HW199294   8.959   7.108   3.802 -0.9043 -1.5961  0.1574
31964SOL    HW299295   8.951   7.021   3.678  1.3558  0.1050 -1.2693
31965SOL     OW99296   1.123   9.242   8.588 -0.3335  0.5246 -0.0165
31965SOL    HW199297   1.141   9.313   8.648 -0.7345 -1.4391  2.6165
31965SOL    HW299298   1.066   9.280   8.521  0.7961  2.9918  0.3379
31966SOL     OW99299   8.776   5.620   8.171 -0.4739  0.2159 -0.3017
31966SOL    HW199300   8.711   5.685   8.144  0.0215  0.8985  0.1236
31966SOL    HW299301   8.851   5.637   8.115  0.2849  1.1431  0.9658
31967SOL     OW99302   6.423   3.124  10.859  0.1116  0.1883  0.1822
31967SOL    HW199303   6.337   3.083  10.851  0.8229 -1.4880  0.8243
31967SOL    HW299304   6.485   3.057  10.831  1.3112  0.8706  1.0917
31968SOL     OW99305   9.787   4.641   1.254 -0.5149 -0.1800  0.0002
31968SOL    HW199306   9.803   4.554   1.292  0.3873 -0.4926 -1.0379
31968SOL    HW299307   9.854   4.696   1.293 -0.3582 -0.2225 -0.2061
31969SOL     OW99308   3.925  10.599   6.984 -0.7494  0.3416  0.0537
31969SOL    HW199309   3.943  10.670   6.923 -1.4320  0.5185  0.0421
31969SOL    HW299310   4.004  10.546   6.985 -0.2862  1.0259 -0.0483
31970SOL     OW99311   4.455   1.120   9.115  0.0997  0.6451 -0.2195
31970SOL    HW199312   4.503   1.190   9.158 -0.2473  1.1060 -0.5694
31970SOL    HW299313   4.363   1.145   9.123 -0.0393  0.1289 -0.1720
31971SOL     OW99314   8.010   9.576   2.634  0.8042 -0.2094  0.0722
31971SOL    HW199315   8.097   9.536   2.637  0.8910  0.0060  0.4820
31971SOL    HW299316   8.024   9.662   2.594  1.1844  0.8095  2.2323
31972SOL     OW99317   4.562   0.603   8.503 -0.0386 -0.1980 -0.0829
31972SOL    HW199318   4.604   0.562   8.579  0.7388 -0.3005 -0.5590
31972SOL    HW299319   4.633   0.617   8.441 -0.8341 -1.0031 -1.1957
31973SOL     OW99320  10.606   2.031   3.102  0.0316  0.1755  0.1122
31973SOL    HW199321  10.665   2.035   3.177 -0.0790  0.9205  0.1683
31973SOL    HW299322  10.653   1.982   3.036 -0.2347 -1.3290  0.9946
31974SOL     OW99323   1.129   9.392   4.962  0.7409  0.1752 -0.6253
31974SOL    HW199324   1.078   9.448   4.904 -1.5192 -0.8685  0.2358
31974SOL    HW299325   1.071   9.376   5.037  1.6898 -2.4244 -0.3439
31975SOL     OW99326   2.948   7.851  10.468 -0.3332  0.1224  0.1850
31975SOL    HW199327   2.955   7.764  10.429  1.7134  1.0894 -1.7926
31975SOL    HW299328   2.857   7.857  10.496 -0.4656 -2.7594  0.7237
31976SOL     OW99329   6.460   1.387   0.163  0.0024 -0.1843 -0.0599
31976SOL    HW199330   6.378   1.423   0.129  0.5993  0.4270 -0.8915
31976SOL    HW299331   6.518   1.462   0.170  0.1993 -0.4488  1.4992
31977SOL     OW99332   4.236  10.139   3.595 -0.2168  0.3691  1.0136
31977SOL    HW199333   4.253  10.223   3.550 -1.7608  0.9076  1.3776
31977SOL    HW299334   4.197  10.084   3.527  0.0621  0.2047  0.9836
31978SOL     OW99335   8.542  10.712  10.806  0.0013 -0.5395 -0.2398
31978SOL    HW199336   8.561  10.628  10.763 -0.1133 -0.9130  0.4277
31978SOL    HW299337   8.606  10.773  10.769 -0.0927 -0.8484 -0.9390
31979SOL     OW99338  10.792   0.363   1.911  0.9388 -0.3467 -0.0061
31979SOL    HW199339  10.782   0.276   1.949 -0.9094  0.1651  0.7988
31979SOL    HW299340  10.743   0.359   1.829 -0.3345  0.2842  0.6919
31980SOL     OW99341   2.815   4.805   5.281  0.2007 -0.0652  0.5116
31980SOL    HW199342   2.769   4.821   5.198 -0.8852  0.4668  1.1811
31980SOL    HW299343   2.753   4.752   5.332 -1.2492  3.3394  2.7039
31981SOL     OW99344   9.579   7.683   0.041  0.9735 -0.2590  0.0691
31981SOL    HW199345   9.575   7.775   0.017 -0.7292 -0.2505  0.2475
31981SOL    HW299346   9.659   7.674   0.092  0.5138  1.4110  1.1544
31982SOL     OW99347   5.813   6.326   9.178 -0.2057  0.8944  0.0153
31982SOL    HW199348   5.892   6.358   9.133  0.1658  2.8027  1.8564
31982SOL    HW299349   5.755   6.299   9.107  1.6912  0.3524 -1.4463
31983SOL     OW99350   1.171   0.802   3.915 -0.6267 -0.0385 -0.8872
31983SOL    HW199351   1.263   0.821   3.896 -0.7220  0.9428 -0.4504
31983SOL    HW299352   1.133   0.783   3.829 -0.2637  0.7432 -1.2360
31984SOL     OW99353   9.502  10.790   3.540  0.1715 -0.2751 -0.0542
31984SOL    HW199354   9.421  10.789   3.490 -0.9494  0.8247  1.6288
31984SOL    HW299355   9.476  10.771   3.630  1.7908 -0.0471  0.5061
31985SOL     OW99356   3.239   3.779   6.364  0.1419  0.0161  0.6748
31985SOL    HW199357   3.300   3.832   6.416  0.0008  0.7381  0.1231
31985SOL    HW299358   3.153   3.817   6.380  0.2854  1.3142 -1.3214
31986SOL     OW99359   7.584   5.026   4.544  0.2517  0.2230 -0.4941
31986SOL    HW199360   7.500   4.981   4.532 -0.3840  0.4048  2.4366
31986SOL    HW299361   7.648   4.956   4.552  0.1355  0.0312 -1.2040
31987SOL     OW99362  10.344   6.274  10.703  0.2242  0.2536  0.3433
31987SOL    HW199363  10.386   6.199  10.659  1.3586 -0.5764  2.6687
31987SOL    HW299364  10.357   6.347  10.643  2.2369 -0.6778 -0.4491
31988SOL     OW99365   4.045  10.448   7.325  0.0044 -0.6005  0.0846
31988SOL    HW199366   4.080  10.535   7.305 -1.7106  0.3254  0.9330
31988SOL    HW299367   4.053  10.439   7.419 -0.5728 -1.0129  0.1025
31989SOL     OW99368   1.094   2.759   1.182  0.0411  0.0494  0.2686
31989SOL    HW199369   1.021   2.797   1.232  0.0134 -0.5720  0.7086
31989SOL    HW299370   1.083   2.664   1.192  1.0725 -0.0496  0.5795
31990SOL     OW99371   1.627   1.121   3.916 -1.0679 -0.3675  0.4311
31990SOL    HW199372   1.564   1.157   3.853  1.0042  2.8927 -0.0334
31990SOL    HW299373   1.656   1.039   3.877 -0.5950  1.0420 -2.4802
31991SOL     OW99374   8.047   4.605   6.766 -0.6871  0.0307  0.1389
31991SOL    HW199375   7.992   4.576   6.839 -0.5050 -0.6545  0.0076
31991SOL    HW299376   8.117   4.655   6.808  0.0208 -1.2573  0.5633
31992SOL     OW99377   7.304   3.711   1.419 -0.7701  0.2952 -0.6523
31992SOL    HW199378   7.344   3.798   1.420 -0.1536  0.0147 -0.0979
31992SOL    HW299379   7.307   3.682   1.510  2.0831 -1.6606 -1.2359
31993SOL     OW99380  10.400   7.048   6.258 -0.0356  0.1511  0.0771
31993SOL    HW199381  10.338   6.988   6.300  0.9035 -2.0824 -1.4841
31993SOL    HW299382  10.474   7.052   6.319 -1.0910  1.7746  1.3319
31994SOL     OW99383   7.424   7.214   9.317  0.1302 -0.2872  0.7085
31994SOL    HW199384   7.392   7.185   9.402  1.6994  0.2275  1.5184
31994SOL    HW299385   7.346   7.243   9.270 -0.4702  2.4121  3.1325
31995SOL     OW99386   0.690   8.914   3.538  0.0368 -0.4404 -0.3168
31995SOL    HW199387   0.654   8.934   3.624 -0.0272 -1.1101 -0.1791
31995SOL    HW299388   0.718   8.822   3.545  1.0054 -0.1865 -0.6712
31996SOL     OW99389  10.265   4.105   0.134 -0.3306 -0.3615  0.3113
31996SOL    HW199390  10.206   4.155   0.190 -0.8596  0.4801 -0.9584
31996SOL    HW299391  10.276   4.159   0.056  0.5314 -1.4210 -0.3307
31997SOL     OW99392  10.534  10.671   4.979 -0.3568 -0.0860  0.1006
31997SOL    HW199393  10.524  10.690   4.886  3.4310 -0.6060 -0.5958
31997SOL    HW299394  10.583  10.589   4.982 -1.3932 -0.7234  2.6274
31998SOL     OW99395   8.100   4.093   1.089 -0.2336  0.0584  0.0270
31998SOL    HW199396   8.158   4.018   1.081  1.3287  1.2134  0.1148
31998SOL    HW299397   8.152   4.167   1.059 -1.4094  1.2590  0.8317
31999SOL     OW99398   1.706   5.148   7.042 -0.1365 -0.1036  0.2328
31999SOL    HW199399   1.634   5.092   7.071  1.1295 -1.9302 -0.0013
31999SOL    HW299400   1.756   5.094   6.981  1.1610  1.2803  0.0104
32000SOL     OW99401   5.507   3.576   5.721  0.4463 -0.2311  0.4016
32000SOL    HW199402   5.471   3.657   5.757 -0.6399 -0.5245 -0.0084
32000SOL    HW299403   5.441   3.545   5.659  0.9479 -1.3287  0.3919
32001SOL     OW99404   5.444   0.872   3.787 -0.3447  0.1480  0.0460
32001SOL    HW199405   5.451   0.822   3.869  1.2638 -0.6640 -0.5582
32001SOL    HW299406   5.352   0.863   3.762 -0.2317 -2.0891  0.2341
32002SOL     OW99407   9.161   0.291   0.393  0.0049 -0.2999  0.7201
32002SOL    HW199408   9.141   0.384   0.389  0.7922 -0.1131  0.8679
32002SOL    HW299409   9.080   0.249   0.422 -1.3149 -0.0300 -2.2602
32003SOL     OW99410   6.164   4.774   4.478  0.4656 -0.0400  0.3300
32003SOL    HW199411   6.096   4.840   4.490  0.9697  0.8473 -1.4428
32003SOL    HW299412   6.116   4.691   4.476 -0.4117  0.4544  0.3988
32004SOL     OW99413   2.665   3.123   7.684  0.8350 -0.5473  0.0367
32004SOL    HW199414   2.590   3.064   7.696  0.2871 -0.3239 -1.8856
32004SOL    HW299415   2.741   3.065   7.680  0.7233 -0.8288  1.3358
32005SOL     OW99416   8.231   7.199   5.080  0.7196  0.1338  0.1544
32005SOL    HW199417   8.298   7.170   5.142 -0.2272 -1.0793  0.6503
32005SOL    HW299418   8.256   7.160   4.997 -0.1653 -1.6295  0.6671
32006SOL     OW99419   3.012  10.526   5.097  0.1005 -0.8150 -0.5860
32006SOL    HW199420   3.003  10.477   5.015 -0.4978 -1.6687 -0.0272
32006SOL    HW299421   2.971  10.611   5.079 -0.6111 -1.2353 -0.9807
32007SOL     OW99422   4.997   8.166   2.080  0.3348  0.5497  0.1484
32007SOL    HW199423   5.081   8.129   2.051  0.4957  0.4363  0.7408
32007SOL    HW299424   4.978   8.120   2.162 -1.1191 -0.6209 -0.7872
32008SOL     OW99425   1.738   0.707   7.196  0.2713  0.3627  0.1100
32008SOL    HW199426   1.677   0.640   7.227  0.8433  0.2217  0.9683
32008SOL    HW299427   1.721   0.782   7.252 -0.2743  0.9091 -0.7618
32009SOL     OW99428   8.977   3.976   7.265 -0.0111 -0.1451  0.1357
32009SOL    HW199429   8.982   3.899   7.321  1.3094 -0.7560 -0.7715
32009SOL    HW299430   8.890   4.012   7.281  0.1576 -0.5406  2.2333
32010SOL     OW99431   1.704   6.599   8.718  0.5216 -0.2124  0.7430
32010SOL    HW199432   1.676   6.509   8.700 -0.7669  0.3172 -0.0115
32010SOL    HW299433   1.800   6.593   8.721  0.4913 -1.5097  0.0872
32011SOL     OW99434   1.257   9.111   3.467 -0.4138  0.2286  0.2488
32011SOL    HW199435   1.181   9.069   3.507  0.5522 -0.9497  0.9062
32011SOL    HW299436   1.303   9.154   3.539 -0.6639  1.3039 -0.2100
32012SOL     OW99437   5.096   0.099   3.147 -0.4222  0.5356 -0.0466
32012SOL    HW199438   5.001   0.087   3.143 -0.6208  0.7305  2.4496
32012SOL    HW299439   5.120   0.073   3.236  2.1964 -1.3918 -1.1839
32013SOL     OW99440   0.378  10.487   8.542 -0.5111 -0.1856  0.0416
32013SOL    HW199441   0.344  10.416   8.488 -1.2037  0.1589  0.0142
32013SOL    HW299442   0.300  10.528   8.581 -0.0451 -0.2104  1.0299
32014SOL     OW99443   5.409   9.851   1.171  0.8724  0.2575 -0.2159
32014SOL    HW199444   5.417   9.814   1.083  1.0558 -0.2667  0.0130
32014SOL    HW299445   5.488   9.903   1.183  1.8651 -1.2872  0.3694
32015SOL     OW99446   3.620  10.423   5.907 -0.5861  0.5495 -0.4272
32015SOL    HW199447   3.670  10.440   5.987  0.7946  0.7318 -1.2877
32015SOL    HW299448   3.668  10.469   5.839 -2.0970  0.9273 -1.2770
32016SOL     OW99449   7.131   7.861   2.353 -0.3076  0.2296 -0.3780
32016SOL    HW199450   7.050   7.882   2.306 -1.8357 -3.9764 -0.0028
32016SOL    HW299451   7.195   7.844   2.283 -0.6597  0.3915 -0.7431
32017SOL     OW99452  10.136   9.988   0.505  0.1039  0.2219  0.4076
32017SOL    HW199453  10.136   9.992   0.410  0.6856  0.9327  0.4285
32017SOL    HW299454  10.053   9.945   0.527 -0.1750  0.3252 -0.4063
32018SOL     OW99455   2.931   3.410   0.577  0.1590  0.2181 -0.1808
32018SOL    HW199456   3.011   3.448   0.614 -0.2819 -0.3728  1.5054
32018SOL    HW299457   2.962   3.339   0.521  0.8527 -0.1934  0.6819
32019SOL     OW99458  10.776   6.579   9.860  0.5386  0.2130 -0.0256
32019SOL    HW199459  10.774   6.513   9.792 -0.2065 -0.4796  0.6490
32019SOL    HW299460  10.793   6.530   9.941  1.8203  1.0565  0.2594
32020SOL     OW99461  10.014   5.074   3.248  0.4442  0.2125  0.3293
32020SOL    HW199462   9.983   4.994   3.205  1.2745 -0.2738  0.6226
32020SOL    HW299463  10.103   5.053   3.276  1.4798  1.9473 -1.4557
32021SOL     OW99464   4.771   6.604   7.417  0.7009  0.2565  0.0625
32021SOL    HW199465   4.683   6.586   7.449  0.7403  0.4981  0.3112
32021SOL    HW299466   4.757   6.648   7.333  0.5344  1.7146  0.8103
32022SOL     OW99467   7.827   0.704   0.226  0.4732 -0.1705 -0.4175
32022SOL    HW199468   7.896   0.748   0.275 -0.7269  1.8312 -0.4170
32022SOL    HW299469   7.789   0.642   0.287  0.9312  0.1784  0.2289
32023SOL     OW99470  10.328   4.427   8.965  0.0063  0.7424  0.3668
32023SOL    HW199471  10.303   4.431   8.872  0.2401  0.9778  0.3134
32023SOL    HW299472  10.322   4.334   8.987  1.9351  0.3813 -0.4299
32024SOL     OW99473   0.115   0.621   9.325  0.1356 -0.1139 -0.3162
32024SOL    HW199474   0.024   0.607   9.301  0.2518  1.1330 -1.5368
32024SOL    HW299475   0.161   0.545   9.289 -0.5195 -1.2948  1.2033
32025SOL     OW99476   5.389   2.147   8.124 -0.2183 -0.1600  0.1513
32025SOL    HW199477   5.441   2.086   8.176  0.6505 -1.5497 -2.2169
32025SOL    HW299478   5.298   2.122   8.140  0.0154 -0.4500  1.0753
32026SOL     OW99479   5.965   6.596   1.409  0.7894 -0.4233  0.0295
32026SOL    HW199480   6.049   6.631   1.440  0.1446  1.3753 -0.1139
32026SOL    HW299481   5.967   6.503   1.432  2.1430 -0.0622  1.5254
32027SOL     OW99482   7.990   8.441   3.823  0.3806 -0.5203 -0.2148
32027SOL    HW199483   7.959   8.532   3.816  1.7724  0.0551  0.7430
32027SOL    HW299484   7.938   8.393   3.758 -0.5942  0.8959 -0.5268
32028SOL     OW99485   8.870   6.799   3.914 -0.0712 -0.3243 -0.2075
32028SOL    HW199486   8.950   6.750   3.930  0.0053  0.4835  2.1796
32028SOL    HW299487   8.879   6.831   3.824  1.5983 -1.4590 -0.4826
32029SOL     OW99488   2.188   5.136   7.779  0.4680  0.5034 -0.0845
32029SOL    HW199489   2.159   5.178   7.697  1.9425 -1.1167 -1.5157
32029SOL    HW299490   2.207   5.045   7.754 -0.1465 -0.3732  2.3405
32030SOL     OW99491   2.457   2.137   2.681 -0.3358 -0.0782 -0.5754
32030SOL    HW199492   2.435   2.102   2.595  2.7344 -1.7208 -0.8274
32030SOL    HW299493   2.531   2.195   2.666 -0.8579  1.0133  0.7863
32031SOL     OW99494   5.637   5.168   8.692 -0.2836  0.0400 -0.1104
32031SOL    HW199495   5.605   5.092   8.643  2.2232 -1.5826  0.6166
32031SOL    HW299496   5.718   5.194   8.647 -0.4854  1.5832  0.3503
32032SOL     OW99497   1.540   2.073   1.656 -0.5415  0.6514  0.2707
32032SOL    HW199498   1.459   2.024   1.638  0.7281 -3.0141  3.0834
32032SOL    HW299499   1.517   2.131   1.728 -1.1374  1.3353 -0.4483
32033SOL     OW99500   3.026   9.934   0.230  0.6951 -0.1509 -0.5202
32033SOL    HW199501   2.945   9.962   0.273 -0.9295 -0.2257 -3.3261
32033SOL    HW299502   3.096   9.979   0.278 -1.1210  1.2291  0.9446
32034SOL     OW99503   3.268   8.402   4.520 -0.3743  0.0743  0.8478
32034SOL    HW199504   3.312   8.379   4.602 -1.3200 -2.4230  0.7397
32034SOL    HW299505   3.331   8.380   4.452 -0.3771  0.1062  0.8351
32035SOL     OW99506   9.418  10.694   9.690  0.2149 -0.5635 -0.4131
32035SOL    HW199507   9.350  10.736   9.637  0.3744  0.8588  0.4557
32035SOL    HW299508   9.497  10.745   9.674  0.0711  0.4939  1.7979
32036SOL     OW99509   5.833   7.770   1.105  0.1464  0.2557  0.8280
32036SOL    HW199510   5.740   7.792   1.095  0.5287  1.6903  0.1256
32036SOL    HW299511   5.844   7.689   1.056 -1.0555 -0.8925  2.3474
32037SOL     OW99512   1.141  10.259   8.036  0.4863  0.3264  0.0962
32037SOL    HW199513   1.144  10.352   8.013 -0.3750  0.2652 -0.3158
32037SOL    HW299514   1.072  10.223   7.980  1.8507 -0.8885 -0.8775
32038SOL     OW99515   4.876   7.009   0.942  0.4488  0.1023  0.1179
32038SOL    HW199516   4.831   7.058   1.011  0.2803 -2.0234  1.6549
32038SOL    HW299517   4.966   7.042   0.943 -0.4247  2.7604 -1.3701
32039SOL     OW99518  10.069   9.864   5.283 -0.2613  0.3736 -0.1706
32039SOL    HW199519  10.137   9.916   5.240 -0.3975  0.9765  0.3324
32039SOL    HW299520  10.117   9.803   5.339 -0.1205  0.3513 -0.3144
32040SOL     OW99521   0.378   3.252  10.357 -0.2793 -0.8864 -0.3676
32040SOL    HW199522   0.359   3.159  10.366 -1.6504 -0.6797 -0.8837
32040SOL    HW299523   0.357   3.272  10.266  0.8097 -0.2294 -0.4991
32041SOL     OW99524   0.636   2.828   7.715 -0.2190  0.7864 -0.8438
32041SOL    HW199525   0.571   2.873   7.770  0.1355 -0.8312  0.9810
32041SOL    HW299526   0.593   2.746   7.689  1.3329 -0.7221  1.1195
32042SOL     OW99527   2.252  10.711   4.782  0.4784 -0.0045  0.2391
32042SOL    HW199528   2.172  10.698   4.731  0.9440 -0.1713 -0.4647
32042SOL    HW299529   2.277  10.622   4.809  0.1171  0.1042  0.9509
32043SOL     OW99530   4.213   3.908  10.835  0.0081  0.2928  0.0578
32043SOL    HW199531   4.277   3.844  10.864 -0.8213 -0.5362  0.0984
32043SOL    HW299532   4.168   3.936  10.915  0.8328  1.4657  0.1354
32044SOL     OW99533   5.222   1.773   0.960 -0.5381  1.1608  0.0889
32044SOL    HW199534   5.182   1.848   0.917  0.2768  1.3477 -0.3614
32044SOL    HW299535   5.214   1.792   1.054 -1.3129  1.2796  0.0101
32045SOL     OW99536   9.467   3.636   9.414  0.2077 -0.5741  0.3354
32045SOL    HW199537   9.387   3.584   9.407  0.6535 -1.1194 -1.2738
32045SOL    HW299538   9.490   3.633   9.506 -0.6946 -1.8394  0.5497
32046SOL     OW99539   8.061   7.172   4.760  0.0532 -0.0457 -0.0587
32046SOL    HW199540   8.139   7.131   4.796  0.6717 -1.5605 -2.8252
32046SOL    HW299541   7.998   7.101   4.751  0.5931 -0.2795 -3.4783
32047SOL     OW99542   4.046   7.216   3.710  0.1646 -0.2309  0.0085
32047SOL    HW199543   4.063   7.305   3.740 -1.0646 -0.2447  0.8452
32047SOL    HW299544   4.071   7.216   3.618 -0.2608  1.1074 -0.1286
32048SOL     OW99545   9.825   2.907   8.593  0.3536 -0.4866 -0.2633
32048SOL    HW199546   9.748   2.925   8.538  1.8734  2.1085 -1.7117
32048SOL    HW299547   9.812   2.959   8.671  1.0660  0.7952 -0.9697
32049SOL     OW99548   9.560   7.008   4.417  0.0423  0.1049  0.2506
32049SOL    HW199549   9.579   7.072   4.486  1.3641  0.2729 -0.2413
32049SOL    HW299550   9.465   6.994   4.423 -0.0734  1.1371  1.2052
32050SOL     OW99551   6.576   6.879   3.580  0.0918  0.5372  0.7045
32050SOL    HW199552   6.648   6.937   3.554  1.5298 -0.9150  1.2662
32050SOL    HW299553   6.529   6.928   3.647 -2.4089  3.4754 -2.7776
32051SOL     OW99554   4.366   8.423   5.714 -0.1087 -0.0981  0.4727
32051SOL    HW199555   4.455   8.445   5.685 -0.1087  1.0169  1.2517
32051SOL    HW299556   4.380   8.370   5.793 -0.1275  0.0383  0.5684
32052SOL     OW99557  10.659   9.135   8.061  0.4078  0.2407  0.4933
32052SOL    HW199558  10.677   9.082   7.984  0.5516  1.6762 -0.5028
32052SOL    HW299559  10.715   9.212   8.051  1.1836  0.0218  2.5454
32053SOL     OW99560   4.738   2.104   1.015  0.0970 -0.3440  0.0585
32053SOL    HW199561   4.686   2.183   1.011 -0.8320 -0.9613 -0.4353
32053SOL    HW299562   4.827   2.132   0.993 -0.5578  0.2741 -2.0099
32054SOL     OW99563   0.026   9.111  10.875 -0.0654 -0.0935 -0.0470
32054SOL    HW199564   0.066   9.042  10.928  0.2133 -0.0055 -0.1400
32054SOL    HW299565   0.025   9.188  10.933 -0.9886 -0.3504  0.2850
32055SOL     OW99566   6.363   5.351   1.309  0.2900  0.5843 -0.8092
32055SOL    HW199567   6.361   5.394   1.395 -0.5287  0.5043 -0.7767
32055SOL    HW299568   6.433   5.286   1.317  1.1429  1.4919 -0.6612
32056SOL     OW99569  10.097   4.452   1.417 -0.8296  0.2799  0.3058
32056SOL    HW199570  10.008   4.429   1.390 -1.1278  0.0039  1.4688
32056SOL    HW299571  10.113   4.399   1.495  0.6058 -0.1553 -0.2537
32057SOL     OW99572   2.976   1.648   3.032 -0.1775 -0.1512  0.4658
32057SOL    HW199573   3.072   1.643   3.037 -0.1566  1.4440  3.5650
32057SOL    HW299574   2.949   1.679   3.118 -3.5596 -0.9087 -0.2054
32058SOL     OW99575   6.244   8.148   3.768  0.2288 -0.1957 -0.2281
32058SOL    HW199576   6.299   8.083   3.810 -1.7162 -0.6004  1.9197
32058SOL    HW299577   6.263   8.229   3.815 -0.3279 -0.1534 -0.0657
32059SOL     OW99578   1.469   4.306   1.909 -0.4061  0.0369 -0.1865
32059SOL    HW199579   1.507   4.254   1.838 -0.0292 -0.6290  0.4989
32059SOL    HW299580   1.385   4.336   1.874 -0.8809 -1.4688 -0.4108
32060SOL     OW99581   3.255   2.951   7.538 -0.3187  0.2994  0.0418
32060SOL    HW199582   3.272   3.045   7.537 -2.1760  0.6654 -0.5297
32060SOL    HW299583   3.166   2.942   7.573  0.6430 -1.4406  2.3340
32061SOL     OW99584   1.421   9.975   7.450  0.2846 -0.0022  0.0305
32061SOL    HW199585   1.342  10.015   7.485 -0.9851  0.3563 -2.9750
32061SOL    HW299586   1.483  10.048   7.441 -0.2334  0.3541 -0.7100
32062SOL     OW99587   4.809   9.370   8.969 -0.4515  0.2298  0.1757
32062SOL    HW199588   4.850   9.398   9.051  0.7973 -1.3715  0.1578
32062SOL    HW299589   4.787   9.278   8.984 -1.4642  0.2942 -0.8268
32063SOL     OW99590  10.274   2.708   7.709  0.8292 -0.3770  0.3036
32063SOL    HW199591  10.261   2.800   7.686 -0.8999 -0.6657 -0.0029
32063SOL    HW299592  10.282   2.662   7.626  2.3210 -0.4494  0.4636
32064SOL     OW99593   4.368   4.216   6.825  0.2904  0.3258  0.0816
32064SOL    HW199594   4.450   4.205   6.777 -0.4412 -0.0744 -1.1007
32064SOL    HW299595   4.338   4.127   6.842  0.0198  0.4717  0.3898
32065SOL     OW99596   5.648   8.505   2.189  0.0525 -0.1628  0.5119
32065SOL    HW199597   5.670   8.460   2.270  1.0677  1.0089  0.9287
32065SOL    HW299598   5.657   8.598   2.210  0.6983  0.1644 -1.0181
32066SOL     OW99599   7.956   5.168   9.996  0.3695 -0.1124  0.0483
32066SOL    HW199600   8.003   5.251  10.005  1.5865 -0.8891  1.3394
32066SOL    HW299601   7.941   5.159   9.902 -0.2559  1.7955 -0.0785
32067SOL     OW99602   1.938   7.425   1.181 -0.5601  0.3823 -0.2597
32067SOL    HW199603   1.849   7.418   1.146 -0.8879 -0.4342  0.6876
32067SOL    HW299604   1.962   7.517   1.168 -2.2905  1.0903  1.2200
32068SOL     OW99605   5.036   4.100   1.984  0.1732 -0.0222 -0.3124
32068SOL    HW199606   5.035   4.005   2.000 -0.3131  0.0678  0.1905
32068SOL    HW299607   5.124   4.117   1.949  0.1519 -0.7074 -0.7099
32069SOL     OW99608   4.478   8.560   2.894 -0.6195 -0.0795  0.0739
32069SOL    HW199609   4.483   8.602   2.808  0.3315  0.2641  0.2827
32069SOL    HW299610   4.390   8.524   2.898 -1.6742  2.3005  0.0703
32070SOL     OW99611   6.092   7.039   1.872  0.4299 -0.0612  0.3097
32070SOL    HW199612   6.166   7.001   1.825 -0.9865 -2.1735 -0.3558
32070SOL    HW299613   6.015   6.991   1.840 -0.9891  0.5635  2.5324
32071SOL     OW99614   2.709   2.442   8.038 -0.1365  0.0673 -0.9938
32071SOL    HW199615   2.759   2.363   8.017 -0.2767  0.2087 -1.8986
32071SOL    HW299616   2.653   2.416   8.111 -1.3947 -1.1737 -2.3593
32072SOL     OW99617   5.444   6.880   5.335 -0.4284  0.4988  0.7771
32072SOL    HW199618   5.429   6.971   5.309  0.6482  0.5092  0.1235
32072SOL    HW299619   5.515   6.885   5.399  0.7454  0.0197 -0.4269
32073SOL     OW99620   7.830   6.417  10.903 -0.3930 -0.0797 -0.5941
32073SOL    HW199621   7.813   6.408  10.997  1.0951 -0.6808 -0.3560
32073SOL    HW299622   7.823   6.511  10.886  0.2461  0.1467  0.3173
32074SOL     OW99623   2.693   2.742   7.998 -0.0132 -0.0353 -0.3250
32074SOL    HW199624   2.617   2.779   8.042 -0.1761 -0.8181  0.0826
32074SOL    HW299625   2.691   2.649   8.023  0.8869 -0.1262 -0.5823
32075SOL     OW99626   9.587  10.202   3.444 -0.2218  0.5529 -0.5099
32075SOL    HW199627   9.650  10.259   3.401 -0.4773  0.2041 -1.3811
32075SOL    HW299628   9.505  10.216   3.396 -0.3992 -0.2032 -0.4464
32076SOL     OW99629   2.747  10.510   1.642  0.3836  0.3207 -0.2123
32076SOL    HW199630   2.721  10.602   1.642 -1.2254 -0.1142 -0.3234
32076SOL    HW299631   2.750  10.486   1.735 -0.3012  0.1849 -0.2258
32077SOL     OW99632   9.712   3.683   8.198 -0.6099  0.0797 -0.1633
32077SOL    HW199633   9.739   3.592   8.192 -0.1655  0.2476 -0.7823
32077SOL    HW299634   9.790   3.730   8.226 -0.4987  0.4256 -1.0056
32078SOL     OW99635   6.968   2.127   3.867 -0.2270  0.2985  0.0894
32078SOL    HW199636   7.020   2.207   3.868  0.0072  0.1429  0.6616
32078SOL    HW299637   7.024   2.062   3.910 -1.3176  0.4011  1.7616
32079SOL     OW99638   7.996   8.469   0.602  0.2966  0.2745  0.5494
32079SOL    HW199639   7.915   8.420   0.614  2.5665 -4.2785 -0.5170
32079SOL    HW299640   8.026   8.490   0.691 -1.1985  0.6349  0.9911
32080SOL     OW99641   1.204   6.917   3.641  0.3557 -0.1764  0.5065
32080SOL    HW199642   1.187   6.991   3.582  4.1619 -0.8682 -1.7855
32080SOL    HW299643   1.259   6.954   3.710  0.2463 -0.4070  0.7196
32081SOL     OW99644   5.772   1.920   3.204 -0.6451 -0.4341  0.4078
32081SOL    HW199645   5.696   1.974   3.226 -1.1819 -0.5543 -1.0051
32081SOL    HW299646   5.822   1.972   3.141  0.2625 -0.5052  1.0503
32082SOL     OW99647  10.620   0.160   7.528  0.2900  0.3245  0.2015
32082SOL    HW199648  10.572   0.168   7.446 -0.0935 -2.5481  0.0541
32082SOL    HW299649  10.711   0.178   7.504  0.0154  0.7180 -0.5844
32083SOL     OW99650   6.648  10.282   3.916 -1.1056  0.3753  0.0572
32083SOL    HW199651   6.572  10.254   3.966 -0.8591 -0.5827 -0.0672
32083SOL    HW299652   6.722  10.240   3.960 -0.9947 -1.6390 -1.8321
32084SOL     OW99653   7.350   5.606   4.999 -0.7556 -0.1694 -0.1712
32084SOL    HW199654   7.394   5.528   5.033  1.5112  0.9034 -0.4165
32084SOL    HW299655   7.394   5.623   4.916 -0.1655  2.1396  0.5363
32085SOL     OW99656   0.991   3.395   2.442  0.1990 -0.1223  0.0034
32085SOL    HW199657   0.976   3.451   2.518  0.7812 -0.4315  0.3549
32085SOL    HW299658   1.086   3.385   2.438  0.2121  0.3145 -1.0837
32086SOL     OW99659   4.327   0.126  10.897 -0.4448 -0.6079  0.0853
32086SOL    HW199660   4.374   0.170  10.826 -0.7832  1.3392  1.0285
32086SOL    HW299661   4.355   0.034  10.890  0.7878 -0.1576 -1.5304
32087SOL     OW99662   5.166   2.718   9.323  0.3715  0.0957  0.4943
32087SOL    HW199663   5.180   2.640   9.268 -0.2506  1.3460 -1.5404
32087SOL    HW299664   5.072   2.720   9.339  0.4320  0.2498  0.8421
32088SOL     OW99665  10.745   7.573   3.449 -0.5976  0.2437 -0.7796
32088SOL    HW199666  10.730   7.592   3.542 -2.2369  0.1565 -0.9959
32088SOL    HW299667  10.772   7.481   3.447 -2.3001 -0.3135 -0.4808
32089SOL     OW99668   2.483   9.957   1.695 -0.0770 -0.5335 -0.0326
32089SOL    HW199669   2.509   9.869   1.666 -1.4168 -0.8193 -0.4682
32089SOL    HW299670   2.453  10.000   1.615  1.5050  0.7139 -0.0107
32090SOL     OW99671   7.149   2.404   2.412  0.8802  0.0468 -0.3020
32090SOL    HW199672   7.205   2.362   2.347 -0.6891 -3.5559  0.4230
32090SOL    HW299673   7.064   2.412   2.370  1.0120  2.3450 -0.2598
32091SOL     OW99674   1.859  10.320   1.890 -0.5059  0.4036  0.1451
32091SOL    HW199675   1.770  10.347   1.915 -0.4875  0.2377  0.3939
32091SOL    HW299676   1.880  10.250   1.951  0.9744  2.4593  2.1691
32092SOL     OW99677   5.902   3.547   6.182  0.4196 -0.5180 -0.9933
32092SOL    HW199678   5.831   3.494   6.217  0.2598  0.3244 -0.0078
32092SOL    HW299679   5.864   3.591   6.106  0.2218 -0.9062 -1.1244
32093SOL     OW99680   3.083   8.148   9.314 -0.7220  0.3156  0.0834
32093SOL    HW199681   3.037   8.081   9.263  0.3319  0.2035 -0.7666
32093SOL    HW299682   3.101   8.218   9.251 -1.2243  1.1197  0.8060
32094SOL     OW99683   6.917   8.563   3.737  0.3735 -0.6269  0.2169
32094SOL    HW199684   6.983   8.611   3.689 -0.6414 -1.9046 -2.6755
32094SOL    HW299685   6.966   8.506   3.796  1.7487  0.0497 -0.2511
32095SOL     OW99686   0.856   0.858   2.837  0.0870  0.4290  0.2633
32095SOL    HW199687   0.797   0.789   2.807  0.1677 -0.5775  2.2560
32095SOL    HW299688   0.938   0.813   2.857  0.4102  1.2281  0.8049
32096SOL     OW99689   6.426   6.625   9.883  0.1172  0.2446  0.4441
32096SOL    HW199690   6.452   6.685   9.814  0.9406 -0.0165  0.5161
32096SOL    HW299691   6.464   6.541   9.857 -0.8185 -0.2034  0.4633
32097SOL     OW99692   9.924   8.930   5.763 -0.4382 -0.1170  0.2986
32097SOL    HW199693   9.960   9.011   5.800  0.9351 -1.4000  1.9269
32097SOL    HW299694   9.837   8.922   5.804 -0.0268 -0.1358  1.1984
32098SOL     OW99695   6.054   3.875  10.739 -0.1297  0.0281  0.0995
32098SOL    HW199696   6.048   3.797  10.683 -1.3919  0.0404  0.1881
32098SOL    HW299697   5.963   3.904  10.750 -0.0284 -0.3974  2.7546
32099SOL     OW99698   1.492   4.850   2.096  0.1195  0.0280  0.3797
32099SOL    HW199699   1.493   4.946   2.090  1.2410  0.0024 -0.0001
32099SOL    HW299700   1.454   4.833   2.182 -2.8580  0.7195 -0.6759
32100SOL     OW99701   6.672  10.733   0.127  0.3009  0.4244  0.0915
32100SOL    HW199702   6.587  10.688   0.123 -1.0515  2.7453  0.5583
32100SOL    HW299703   6.657  10.816   0.081  2.3357  0.8929  0.1953
32101SOL     OW99704   5.813   8.085   2.857  0.4593  0.2562  0.1778
32101SOL    HW199705   5.815   8.086   2.952  0.4635  1.4152  0.1824
32101SOL    HW299706   5.725   8.056   2.834  0.6467 -0.6050  0.5165
32102SOL     OW99707   3.432   7.676   1.853 -0.3359  0.4941 -0.7938
32102SOL    HW199708   3.465   7.748   1.907 -1.6189  0.7260 -0.2718
32102SOL    HW299709   3.386   7.619   1.915  0.0175 -0.3870 -1.3253
32103SOL     OW99710   8.115   1.811   5.877  0.0331 -0.7523  0.1075
32103SOL    HW199711   8.107   1.727   5.923  1.7755 -0.3466  1.2186
32103SOL    HW299712   8.071   1.874   5.934  0.5070 -0.5716  0.2745
32104SOL     OW99713   7.784   9.665   4.838 -0.7349 -0.1227 -0.5820
32104SOL    HW199714   7.754   9.582   4.876 -2.0304 -0.0675 -1.4304
32104SOL    HW299715   7.869   9.679   4.878 -0.3854 -1.9679 -0.5684
32105SOL     OW99716  10.106   5.220   5.722 -0.0260  0.1573  0.7247
32105SOL    HW199717  10.098   5.173   5.805  1.0624 -1.5380 -0.0634
32105SOL    HW299718  10.191   5.263   5.727 -0.3970  0.8861  0.8695
32106SOL     OW99719   3.964   1.226   3.293  0.4924  0.0552 -0.2299
32106SOL    HW199720   3.934   1.279   3.368  0.1886 -0.9492  0.3773
32106SOL    HW299721   3.912   1.146   3.298  2.5601 -1.3304  0.2682
32107SOL     OW99722   9.666   5.797   4.590 -0.0831  0.5668 -0.3643
32107SOL    HW199723   9.644   5.732   4.524 -0.0521  1.7216 -1.5392
32107SOL    HW299724   9.581   5.826   4.624 -0.2863  2.2019 -2.1302
32108SOL     OW99725   8.477   3.034   0.853 -0.6048 -0.3339  0.6927
32108SOL    HW199726   8.519   3.113   0.885  0.2812 -1.0183  1.2380
32108SOL    HW299727   8.548   2.973   0.837 -1.1725 -0.6602 -0.8092
32109SOL     OW99728   1.551   5.707   0.814 -0.1208  0.1312  0.1562
32109SOL    HW199729   1.629   5.716   0.869 -0.8077  0.0564  1.1572
32109SOL    HW299730   1.509   5.793   0.817 -0.0700  0.1848 -0.4203
32110SOL     OW99731   9.840   3.810   9.876  0.4150  0.2342  0.2759
32110SOL    HW199732   9.770   3.788   9.938  0.5398 -1.6185 -0.1960
32110SOL    HW299733   9.874   3.894   9.908 -0.9779  0.4036  1.4251
32111SOL     OW99734   0.924   4.374   5.270 -0.4211 -0.4506  0.4243
32111SOL    HW199735   0.980   4.342   5.341 -1.9678 -3.6422  0.3679
32111SOL    HW299736   0.986   4.398   5.201  1.0019  0.2303  1.8615
32112SOL     OW99737   9.424   2.477   6.376 -0.2986  0.0104 -0.1144
32112SOL    HW199738   9.416   2.386   6.406  0.8449 -0.4978 -1.2716
32112SOL    HW299739   9.334   2.511   6.377 -1.0063 -1.6920 -1.3584
32113SOL     OW99740  10.284   4.775  10.801  0.5292  0.2975 -0.2048
32113SOL    HW199741  10.285   4.730  10.716  3.0639 -1.9546  0.8638
32113SOL    HW299742  10.343   4.849  10.789  0.4053  0.3390 -0.5829
32114SOL     OW99743   4.385   9.092   8.310 -0.3826  0.5647  0.3211
32114SOL    HW199744   4.392   9.147   8.388 -0.1747  0.9250  0.0529
32114SOL    HW299745   4.415   9.148   8.239 -0.3209  0.1507  0.0191
32115SOL     OW99746   6.221   6.433   3.539  0.1944  0.5552  0.7590
32115SOL    HW199747   6.305   6.394   3.563  0.0681 -1.8129 -2.0788
32115SOL    HW299748   6.157   6.363   3.551 -0.4847  0.5816 -1.9231
32116SOL     OW99749   9.225   1.326   3.944 -0.0424  0.5247  0.0638
32116SOL    HW199750   9.191   1.332   3.854  1.2437 -0.0863 -0.4863
32116SOL    HW299751   9.285   1.252   3.942  0.8349  1.1689  1.1550
32117SOL     OW99752   7.231   3.529   6.352  0.8301  0.5947  0.2816
32117SOL    HW199753   7.156   3.550   6.408  0.9353  1.9151 -0.0474
32117SOL    HW299754   7.192   3.509   6.267  0.7051 -0.9785  0.6741
32118SOL     OW99755   1.823   3.356   6.882 -0.2439  0.1988 -0.1199
32118SOL    HW199756   1.742   3.407   6.890 -1.5512 -1.7922 -0.0149
32118SOL    HW299757   1.892   3.420   6.899 -1.8736  1.4597  2.5482
32119SOL     OW99758   1.080   9.109  10.846  0.1282 -0.0628  0.2263
32119SOL    HW199759   1.063   9.203  10.837 -0.1141 -0.1027  0.2387
32119SOL    HW299760   1.089   9.096  10.941  1.2864  0.1290  0.1545
32120SOL     OW99761   8.880   6.907   5.802 -0.9376 -0.0059  0.4148
32120SOL    HW199762   8.924   6.862   5.874 -0.5509  1.8452  1.3831
32120SOL    HW299763   8.850   6.836   5.745 -0.1150 -1.4686  1.7163
32121SOL     OW99764   1.394   3.333   2.161  0.1088  0.5217  0.0767
32121SOL    HW199765   1.342   3.405   2.197  0.0743 -0.2198  1.5454
32121SOL    HW299766   1.472   3.330   2.215 -0.1891 -0.9580  0.4650
32122SOL     OW99767   3.131  10.424   4.513 -0.7813 -0.2828 -0.1238
32122SOL    HW199768   3.220  10.454   4.530 -0.7281 -1.4569  2.0350
32122SOL    HW299769   3.131  10.399   4.421  1.2708 -0.7231 -0.0525
32123SOL     OW99770   9.380   9.911   1.247  0.0109 -0.4492 -0.4140
32123SOL    HW199771   9.451   9.880   1.303  0.2891 -0.5053 -0.8016
32123SOL    HW299772   9.384   9.856   1.170 -0.7996 -0.8152 -0.2037
32124SOL     OW99773   5.804   3.992  10.703 -0.0663 -0.4055  0.1296
32124SOL    HW199774   5.819   4.083  10.728 -1.0172 -0.4752  1.0383
32124SOL    HW299775   5.751   3.997  10.623 -0.7127 -0.1463  0.5673
32125SOL     OW99776   0.240   2.609   6.701  0.4954  0.3049  0.6539
32125SOL    HW199777   0.160   2.631   6.749  1.8082  2.0067  2.2178
32125SOL    HW299778   0.211   2.594   6.611 -1.8647 -1.5207  1.6270
32126SOL     OW99779   6.988   1.344   0.896 -0.3305 -0.5907 -0.4522
32126SOL    HW199780   7.027   1.297   0.970  1.2334 -0.2411 -1.0281
32126SOL    HW299781   7.020   1.299   0.819 -2.6770 -1.5234 -0.9844
32127SOL     OW99782   0.419   1.740   5.123  0.3690 -0.1586 -0.1118
32127SOL    HW199783   0.437   1.649   5.147 -0.2855 -0.0411  0.8968
32127SOL    HW299784   0.381   1.778   5.202  0.0072  0.8140 -0.7390
32128SOL     OW99785   3.945   9.118  10.843 -0.0812  0.2304 -0.7326
32128SOL    HW199786   3.908   9.106  10.931 -2.0574 -2.6375 -1.8073
32128SOL    HW299787   3.935   9.212  10.825  0.4327  0.9165  2.0642
32129SOL     OW99788   9.699   0.218   1.987  0.0099 -0.0039  0.1155
32129SOL    HW199789   9.636   0.237   1.918 -0.2527 -1.0348  0.0528
32129SOL    HW299790   9.669   0.136   2.025  1.3964 -0.6073 -0.0222
32130SOL     OW99791   6.405   6.909   0.558 -0.1419  0.4957 -0.0375
32130SOL    HW199792   6.356   6.919   0.639 -1.6830 -0.5194 -0.7943
32130SOL    HW299793   6.489   6.872   0.585 -0.9578 -0.6604  1.0382
32131SOL     OW99794   4.140   2.924   5.697  0.1932 -0.4034 -0.6518
32131SOL    HW199795   4.232   2.908   5.715  0.1110  0.2684  0.4900
32131SOL    HW299796   4.125   3.014   5.726 -1.3305 -1.2476  1.4374
32132SOL     OW99797   3.824   4.011   7.152  0.6346 -0.2691  0.5200
32132SOL    HW199798   3.880   3.956   7.098  0.9162  1.0837 -0.6271
32132SOL    HW299799   3.867   4.011   7.238  1.0257 -1.2232  0.3357
32133SOL     OW99800  10.364   2.879   6.359  0.1671 -0.1702  0.2339
32133SOL    HW199801  10.433   2.832   6.313  0.7380 -0.0283  0.9216
32133SOL    HW299802  10.292   2.816   6.364  1.0197 -1.1182  1.3753
32134SOL     OW99803   2.500   3.835   5.961  0.3412 -0.2281 -0.2000
32134SOL    HW199804   2.518   3.876   5.876  0.2721 -1.1902 -0.6877
32134SOL    HW299805   2.448   3.900   6.008 -0.1548  0.0623 -1.1316
32135SOL     OW99806   3.534   8.207   0.254  0.3771 -0.3247 -0.1033
32135SOL    HW199807   3.556   8.115   0.269  0.6002 -0.4401 -1.0476
32135SOL    HW299808   3.575   8.228   0.170  1.2903  0.9553  0.6202
32136SOL     OW99809   5.707  10.142   3.929 -0.1559 -0.1875  0.3634
32136SOL    HW199810   5.737  10.215   3.984  3.1526 -0.4276 -0.8990
32136SOL    HW299811   5.660  10.085   3.989 -0.1401  1.4768  2.0643
32137SOL     OW99812   7.327   9.895  10.850 -0.7705 -0.1243  0.5027
32137SOL    HW199813   7.419   9.918  10.867 -0.9283  1.8945 -0.9012
32137SOL    HW299814   7.332   9.821  10.789 -0.0423  0.1197  0.2515
32138SOL     OW99815   3.366   7.869   3.514 -0.1258 -0.3098 -0.2521
32138SOL    HW199816   3.300   7.918   3.562 -0.4303 -0.9721  0.0158
32138SOL    HW299817   3.437   7.932   3.499  0.2653 -0.2513  1.6447
32139SOL     OW99818   5.977   6.505   4.461  0.3750  0.0482  0.3880
32139SOL    HW199819   5.912   6.477   4.396  1.2047 -0.8222 -0.0756
32139SOL    HW299820   6.031   6.569   4.414  0.1584  0.4078  0.6265
32140SOL     OW99821   4.904   8.370   4.996  0.0002 -0.7042 -0.0479
32140SOL    HW199822   4.958   8.449   4.983  0.6786 -1.4250 -1.9380
32140SOL    HW299823   4.959   8.312   5.049  0.4961 -0.8460 -0.7048
32141SOL     OW99824  10.914   4.553   6.421 -0.4610 -0.3927  0.1674
32141SOL    HW199825  10.838   4.610   6.430 -0.4775 -0.1824 -1.0806
32141SOL    HW299826  10.960   4.587   6.344 -0.4556 -2.0300 -0.5928
32142SOL     OW99827   4.946   3.466   5.968 -0.1896  0.3748  0.2923
32142SOL    HW199828   4.950   3.531   5.898  0.0079 -0.7712 -0.7876
32142SOL    HW299829   4.969   3.383   5.926 -1.4726 -0.5969  1.3903
32143SOL     OW99830   8.279  10.013   2.670 -0.5560 -0.0374  0.4456
32143SOL    HW199831   8.375  10.016   2.671 -0.4163 -2.8116  1.0683
32143SOL    HW299832   8.253  10.020   2.762 -1.0594  1.4978  0.2287
32144SOL     OW99833   8.709   7.045   1.421 -0.2606 -0.5152 -0.3923
32144SOL    HW199834   8.622   7.075   1.394  0.4087  0.9253 -1.0293
32144SOL    HW299835   8.703   7.039   1.517 -0.4274  1.8384 -0.1940
32145SOL     OW99836   2.118   2.030   7.493 -0.1449 -0.4144  0.1244
32145SOL    HW199837   2.030   2.022   7.456 -0.9305  1.5191  1.4346
32145SOL    HW299838   2.169   2.073   7.424 -0.5714 -0.3224 -0.1385
32146SOL     OW99839   2.900   3.967   4.952  0.2297  0.4727  0.0107
32146SOL    HW199840   2.888   3.983   5.045 -0.0898 -1.2887  0.3170
32146SOL    HW299841   2.989   3.996   4.933 -0.0739  1.8473  0.6041
32147SOL     OW99842   1.806   9.521   4.127 -0.0214 -0.2008  0.4474
32147SOL    HW199843   1.777   9.430   4.115  2.6652 -0.8852 -1.8982
32147SOL    HW299844   1.887   9.513   4.177  0.5863  0.8220 -0.3416
32148SOL     OW99845   6.325   0.538   8.786  0.1227 -0.3071  0.8166
32148SOL    HW199846   6.234   0.545   8.757  0.3390  1.7375  0.4307
32148SOL    HW299847   6.320   0.503   8.875 -0.9942 -0.6679  0.6235
32149SOL     OW99848   2.294   2.514   2.465  0.5425 -0.4913  0.2424
32149SOL    HW199849   2.255   2.587   2.417  0.9293  0.3037  1.1236
32149SOL    HW299850   2.231   2.494   2.534  0.4056 -1.0492 -0.0361
32150SOL     OW99851   4.193   3.492   5.086 -0.3412  0.3881 -0.2820
32150SOL    HW199852   4.187   3.421   5.149 -0.9653  1.7842  1.2984
32150SOL    HW299853   4.148   3.459   5.008  0.4227 -1.3632 -0.0265
32151SOL     OW99854   2.635   9.552   2.492 -0.6547 -0.0829  0.5561
32151SOL    HW199855   2.646   9.641   2.525 -0.2781 -0.2717  0.9485
32151SOL    HW299856   2.634   9.497   2.570  0.1316 -0.5206  0.2727
32152SOL     OW99857   1.834   2.529   1.284  0.6006 -0.3351  0.3452
32152SOL    HW199858   1.779   2.607   1.285  1.4034  0.2419  1.8557
32152SOL    HW299859   1.792   2.471   1.220 -0.6703  0.8427  0.0666
32153SOL     OW99860   6.639   7.224   0.690 -0.1282 -0.0190 -0.1053
32153SOL    HW199861   6.644   7.137   0.731  0.2170 -1.0543 -2.2285
32153SOL    HW299862   6.713   7.272   0.728 -0.2811 -0.6437  1.0442
32154SOL     OW99863   8.509   0.881   6.704  0.3426  0.1661 -0.0806
32154SOL    HW199864   8.489   0.829   6.626  0.0422  0.8663 -0.4870
32154SOL    HW299865   8.555   0.958   6.669 -1.4315  1.4047  0.2043
32155SOL     OW99866   4.945   5.639   2.047  0.2876  0.0836  0.2025
32155SOL    HW199867   5.035   5.656   2.075  0.6408 -0.6334 -0.4484
32155SOL    HW299868   4.906   5.726   2.038  1.6175  0.5570 -1.7194
32156SOL     OW99869   7.560   6.257   5.085  0.0883 -0.2494  0.0033
32156SOL    HW199870   7.653   6.237   5.094 -0.0074 -1.3468 -1.2006
32156SOL    HW299871   7.556   6.326   5.018 -0.0579 -1.4772 -1.2886
32157SOL     OW99872   0.083   7.407   2.239 -0.1018 -0.2862  0.2269
32157SOL    HW199873   0.025   7.366   2.304 -1.6657  1.2573 -0.1143
32157SOL    HW299874   0.068   7.357   2.159  0.4603 -1.0538  0.5896
32158SOL     OW99875   8.875   7.825   5.243 -0.4342  0.2878 -0.1422
32158SOL    HW199876   8.912   7.782   5.165  1.1517 -0.5282  1.0030
32158SOL    HW299877   8.895   7.918   5.232 -0.6987  0.2518 -0.9583
32159SOL     OW99878   5.653  10.650   9.094  0.5190  0.0043  0.4952
32159SOL    HW199879   5.644  10.630   9.001 -2.7121 -1.2432  0.9227
32159SOL    HW299880   5.586  10.716   9.111 -0.4224 -1.2762  2.2306
32160SOL     OW99881   5.732   8.302   2.360 -0.1105 -0.5427 -0.0116
32160SOL    HW199882   5.820   8.294   2.322  0.0100 -0.7856  0.3172
32160SOL    HW299883   5.687   8.223   2.332 -0.8117  0.3868 -1.6752
32161SOL     OW99884   8.778   3.958  10.389 -0.1944  0.1393 -0.2623
32161SOL    HW199885   8.730   3.959  10.472 -1.5498  0.9589 -1.0213
32161SOL    HW299886   8.784   3.865  10.366 -0.6324 -0.0332  0.3041
32162SOL     OW99887   4.079   2.669  10.550 -0.1489  0.2318  0.0242
32162SOL    HW199888   4.141   2.681  10.622 -0.0399  0.4787 -0.1103
32162SOL    HW299889   4.064   2.575  10.547  0.1232  0.1841  0.1357
32163SOL     OW99890   8.777   2.959   6.454 -0.0122  0.5558 -0.3117
32163SOL    HW199891   8.827   2.902   6.394  1.0218 -0.4688  1.4424
32163SOL    HW299892   8.825   3.042   6.453 -0.1531  0.6374 -1.0791
32164SOL     OW99893   9.584   6.563   0.158  0.2511  0.2469 -0.1137
32164SOL    HW199894   9.504   6.524   0.122  0.2009 -0.1025  0.3560
32164SOL    HW299895   9.632   6.594   0.082  1.2901 -2.6151 -0.7630
32165SOL     OW99896   9.727   2.446   4.344  0.4401  0.6479 -0.1684
32165SOL    HW199897   9.705   2.511   4.277 -0.9486  0.2283 -0.1529
32165SOL    HW299898   9.782   2.494   4.407  2.5831  0.8087 -2.0382
32166SOL     OW99899   5.371  10.478   2.423  0.1720 -0.0216  0.5320
32166SOL    HW199900   5.441  10.511   2.367 -2.3251  2.0439 -1.6292
32166SOL    HW299901   5.334  10.403   2.376  0.4990 -0.7280  1.3646
32167SOL     OW99902   2.333   9.930   2.895 -0.0397 -0.3439 -0.7229
32167SOL    HW199903   2.290   9.919   2.980  0.7603  0.0715 -0.2504
32167SOL    HW299904   2.287   9.870   2.837  0.8930 -2.4150  0.5422
32168SOL     OW99905   1.718   4.713   4.596 -0.1597 -0.1063  0.3182
32168SOL    HW199906   1.749   4.706   4.506 -2.2937 -0.8405 -0.4011
32168SOL    HW299907   1.724   4.807   4.616  0.1793  0.0813 -0.6170
32169SOL     OW99908   9.185  10.569   0.919 -0.7658 -0.2066  0.3055
32169SOL    HW199909   9.277  10.570   0.892 -0.5650  1.6074  0.9165
32169SOL    HW299910   9.153  10.484   0.890  1.4582 -1.4944  1.3118
32170SOL     OW99911   9.349   4.253   2.380  0.7659 -0.2098  0.1972
32170SOL    HW199912   9.390   4.226   2.462  0.5412  1.1344  0.7686
32170SOL    HW299913   9.397   4.331   2.353 -2.5145  2.7154  1.9597
32171SOL     OW99914   6.846   9.235   6.423 -0.1838  0.7928  0.3615
32171SOL    HW199915   6.856   9.162   6.362  1.5492  0.8617  0.5112
32171SOL    HW299916   6.839   9.194   6.509 -0.3475  0.7573  0.3307
32172SOL     OW99917   7.100   1.289   2.145 -0.3803 -0.0836  0.0792
32172SOL    HW199918   7.100   1.374   2.188  0.6708  0.3970 -0.8387
32172SOL    HW299919   7.009   1.259   2.152 -0.3609  0.2174  2.1140
32173SOL     OW99920   2.103   5.388   1.063  0.2116  0.2868  0.4293
32173SOL    HW199921   2.077   5.360   0.975  0.3373  1.8945 -0.1478
32173SOL    HW299922   2.116   5.306   1.111 -0.8528 -0.6086 -0.7474
32174SOL     OW99923   6.484  10.173  10.726  0.2234 -0.2271  0.4308
32174SOL    HW199924   6.501  10.258  10.766  0.1790  0.3642 -0.7575
32174SOL    HW299925   6.395  10.181  10.692  0.5013 -0.4725 -0.3667
32175SOL     OW99926  10.887   9.749   9.017 -0.3447 -0.5698 -0.3902
32175SOL    HW199927  10.907   9.773   9.107  1.5718 -1.6765 -0.4486
32175SOL    HW299928  10.973   9.736   8.976 -1.1033  1.1448 -2.7675
32176SOL     OW99929   6.928   4.941   8.716 -0.0158 -0.2864 -0.0954
32176SOL    HW199930   6.944   5.028   8.678 -0.0717  0.1931  0.9319
32176SOL    HW299931   6.833   4.931   8.716  0.0215 -0.6481 -0.8575
32177SOL     OW99932   1.925   4.891   7.447  0.3084  0.1620 -0.3391
32177SOL    HW199933   1.895   4.962   7.391  0.7585  1.5577  1.0985
32177SOL    HW299934   1.938   4.817   7.388 -1.0354  0.9919 -1.7540
32178SOL     OW99935   2.450   5.973   5.341  0.0197  0.2468 -0.1716
32178SOL    HW199936   2.439   5.885   5.377 -1.0864  1.2602  2.1458
32178SOL    HW299937   2.369   5.990   5.294 -0.4805  0.6196  0.7996
32179SOL     OW99938   4.839   7.736   5.168  0.7333 -0.5225 -0.5707
32179SOL    HW199939   4.847   7.831   5.178 -0.8852 -0.5500  1.5933
32179SOL    HW299940   4.855   7.721   5.075  0.2553  1.9612 -1.1308
32180SOL     OW99941   0.231   0.439  10.331 -0.1247  0.4551 -0.0062
32180SOL    HW199942   0.288   0.392  10.393  0.2119  1.4786  0.4837
32180SOL    HW299943   0.172   0.372  10.298  0.6273 -0.4031  0.3437
32181SOL     OW99944   7.835   4.256   6.402 -0.8170  0.0863  1.0199
32181SOL    HW199945   7.745   4.277   6.377 -0.8646 -0.8224  0.3789
32181SOL    HW299946   7.860   4.325   6.463 -2.0637  0.1697  1.4611
32182SOL     OW99947   1.555   2.193   9.907  0.5543 -0.0637 -0.3773
32182SOL    HW199948   1.479   2.251   9.909 -0.3925 -1.2729 -0.6399
32182SOL    HW299949   1.629   2.252   9.892 -0.3047  1.1453 -0.0346
32183SOL     OW99950   2.607   2.496   1.289 -0.0868  0.6145  0.0982
32183SOL    HW199951   2.516   2.518   1.307 -0.9757 -0.2771 -2.8684
32183SOL    HW299952   2.624   2.532   1.202  1.9452 -0.4774 -0.0245
32184SOL     OW99953   5.688   5.824  10.801 -0.5884  0.5300 -0.3942
32184SOL    HW199954   5.698   5.789  10.889 -0.3649  0.6483 -0.3716
32184SOL    HW299955   5.606   5.873  10.803  0.6264  2.6444  0.4643
32185SOL     OW99956   9.992   6.712  10.876  0.5978 -0.3066 -0.2972
32185SOL    HW199957   9.994   6.801  10.841  3.1701 -0.1335  0.1209
32185SOL    HW299958   9.990   6.724  10.971  2.1348 -0.6581 -0.2085
32186SOL     OW99959   7.110   5.718   1.146 -0.2952 -0.5908 -0.6111
32186SOL    HW199960   7.187   5.708   1.091 -0.2632  0.8316 -0.8708
32186SOL    HW299961   7.046   5.764   1.091 -0.2261  0.9489  0.5092
32187SOL     OW99962   2.496   0.428  10.416  0.9090 -0.1028  0.0110
32187SOL    HW199963   2.509   0.350  10.361  1.7467 -0.4920  0.7421
32187SOL    HW299964   2.552   0.494  10.377  0.1584  0.1676 -0.6416
32188SOL     OW99965   6.184   6.744   3.554 -0.4570 -0.0301 -0.1139
32188SOL    HW199966   6.096   6.705   3.556 -0.1937 -0.6006  1.0467
32188SOL    HW299967   6.243   6.672   3.576  0.4375  0.0848 -1.8932
32189SOL     OW99968   6.640  10.666   8.578  0.0349  0.1198 -0.1270
32189SOL    HW199969   6.595  10.621   8.507  0.5879 -0.1674 -0.3013
32189SOL    HW299970   6.654  10.599   8.645  0.5531  0.1150 -0.2410
32190SOL     OW99971   4.866   9.111   1.471  0.1494 -0.2517 -0.1482
32190SOL    HW199972   4.947   9.064   1.453 -0.0357 -0.4365 -0.5121
32190SOL    HW299973   4.804   9.077   1.407  0.0524  0.5918 -0.5038
32191SOL     OW99974   9.450   0.951   7.758 -0.5936 -0.2341 -0.0530
32191SOL    HW199975   9.410   0.865   7.747  0.0903 -0.3108 -2.4072
32191SOL    HW299976   9.537   0.933   7.792 -1.1005 -0.3059  1.2850
32192SOL     OW99977   9.315   9.942   2.803 -0.0364  0.3845 -0.4634
32192SOL    HW199978   9.405   9.974   2.798  0.6362 -1.5189 -1.3727
32192SOL    HW299979   9.322   9.854   2.841 -1.5014  0.1120 -0.7429
32193SOL     OW99980   9.913   8.820   3.221 -0.3261 -0.3473  0.4091
32193SOL    HW199981  10.003   8.832   3.252  0.2780 -0.3548 -1.2167
32193SOL    HW299982   9.881   8.908   3.205 -0.3449 -0.3745  0.2961
32194SOL     OW99983   1.689   9.378  10.511 -0.6483  0.2720 -0.2455
32194SOL    HW199984   1.682   9.285  10.491 -0.1182 -0.2739  1.8480
32194SOL    HW299985   1.766   9.385  10.567 -0.3701  2.0608 -0.7748
32195SOL     OW99986   3.656  10.493   8.447  0.3020 -0.6356 -0.3891
32195SOL    HW199987   3.661  10.511   8.540  0.7762 -3.1213  0.1445
32195SOL    HW299988   3.745  10.470   8.421 -0.2882 -2.8622 -0.7134
32196SOL     OW99989   7.226   3.535   6.723  0.1827  0.1498  0.0327
32196SOL    HW199990   7.143   3.561   6.682  0.4919  0.8262 -0.1867
32196SOL    HW299991   7.249   3.453   6.679 -0.1246  0.2155 -0.2605
32197SOL     OW99992   4.620   1.571   5.168  0.0889  0.1685  0.0324
32197SOL    HW199993   4.593   1.594   5.257 -0.3688 -1.6851  0.4163
32197SOL    HW299994   4.545   1.595   5.114  0.4268  1.4460  0.1105
32198SOL     OW99995   1.106   2.024   8.174  0.5507  0.4648 -0.2174
32198SOL    HW199996   1.046   2.029   8.100  0.0655 -1.8817 -0.0714
32198SOL    HW299997   1.163   2.100   8.164 -2.5360  3.0065 -0.2117
32199SOL     OW99998   7.047   1.047   8.707  0.0655 -0.2448 -0.2660
32199SOL    HW199999   7.005   0.972   8.750  0.9353 -0.8871 -0.5073
32199SOL    HW2    0   6.977   1.085   8.653 -0.5605 -0.4922  0.3521
32200SOL     OW    1   7.641   5.642   6.560 -0.4399  0.2672 -0.2449
32200SOL    HW1    2   7.726   5.662   6.598 -1.2758  1.3163  1.2011
32200SOL    HW2    3   7.639   5.691   6.477 -0.1244  1.3159  0.3510
32201SOL     OW    4   3.877   5.781   9.928  0.4101 -0.0566 -0.4195
32201SOL    HW1    5   3.808   5.719   9.954 -0.1091  0.6295 -0.1518
32201SOL    HW2    6   3.854   5.806   9.839 -0.4546  1.2013  0.1361
32202SOL     OW    7   7.183   5.874   3.213  0.1029  0.0982  0.8377
32202SOL    HW1    8   7.165   5.840   3.300 -3.0629  0.8842  0.6105
32202SOL    HW2    9   7.216   5.963   3.227 -0.4597  0.2451  1.2260
32203SOL     OW   10  10.275   0.914   1.265 -0.1802  0.7920  0.2182
32203SOL    HW1   11  10.282   1.000   1.223  0.0876  0.4910 -0.3724
32203SOL    HW2   12  10.187   0.884   1.242  0.5279 -0.0883 -1.5901
32204SOL     OW   13   5.670   4.546   6.711  0.3162  1.0385  0.4920
32204SOL    HW1   14   5.621   4.541   6.629 -0.5187 -0.2798  1.0366
32204SOL    HW2   15   5.610   4.513   6.778  0.4512  3.4302  1.9152
32205SOL     OW   16   1.398   2.608   6.702 -0.2751 -0.5930 -0.1687
32205SOL    HW1   17   1.357   2.613   6.616  0.0440 -1.5558 -0.3846
32205SOL    HW2   18   1.471   2.548   6.691  0.3143 -0.0300  0.5646
32206SOL     OW   19   7.768   6.157   7.127 -0.5750  0.3004  0.1856
32206SOL    HW1   20   7.841   6.149   7.188  0.4554  1.2518 -0.8734
32206SOL    HW2   21   7.708   6.219   7.170 -0.6002 -0.2152  0.9022
32207SOL     OW   22   6.919   1.147   1.370 -0.4014 -0.1997 -0.2923
32207SOL    HW1   23   6.936   1.070   1.423 -2.1069 -3.2053 -3.6607
32207SOL    HW2   24   6.824   1.154   1.367 -0.3595  0.2312 -2.2870
32208SOL     OW   25   3.934   7.879   5.145  0.0617  0.2554  0.2250
32208SOL    HW1   26   3.975   7.854   5.228 -2.7880  0.9219  1.9708
32208SOL    HW2   27   3.945   7.802   5.088  2.4333 -0.0645  1.0102
32209SOL     OW   28   2.989   9.140   5.914 -0.1299  0.0362 -0.0399
32209SOL    HW1   29   2.953   9.096   5.991 -0.3859 -0.3377 -0.3661
32209SOL    HW2   30   2.913   9.179   5.871  0.3599  2.9912  1.5696
32210SOL     OW   31   2.085   0.862   6.947 -0.6681  0.1195  0.1874
32210SOL    HW1   32   1.991   0.857   6.964 -1.3799  4.9816 -0.7433
32210SOL    HW2   33   2.120   0.909   7.023  0.6568  0.0209 -0.3400
32211SOL     OW   34   8.978   5.844   2.960 -0.1097  0.8314  0.3882
32211SOL    HW1   35   8.961   5.778   3.028  2.7279  2.1794  2.6595
32211SOL    HW2   36   9.026   5.796   2.892 -0.3614  0.0232  0.7670
32212SOL     OW   37   7.022   8.008   4.669 -0.1084 -0.0499 -0.4223
32212SOL    HW1   38   7.023   8.002   4.765 -1.2197  0.0328 -0.3994
32212SOL    HW2   39   6.931   7.993   4.644  0.4276 -1.6112 -1.5925
32213SOL     OW   40   9.917   4.911   9.752 -0.7526  0.3261  0.2822
32213SOL    HW1   41   9.857   4.985   9.755 -1.5232 -0.2680 -0.2474
32213SOL    HW2   42   9.996   4.943   9.796 -2.2689  0.3396  3.2690
32214SOL     OW   43  10.304   1.438   9.031  0.0020  0.8049  0.0063
32214SOL    HW1   44  10.264   1.354   9.008 -0.3574  1.1229 -0.5331
32214SOL    HW2   45  10.298   1.491   8.952 -0.6273  1.6728  0.6062
32215SOL     OW   46   2.708   6.689   4.574  0.0904  0.3178  0.3296
32215SOL    HW1   47   2.659   6.768   4.551 -0.4503  0.5556  2.1824
32215SOL    HW2   48   2.787   6.693   4.520 -0.3740  1.6328 -0.2794
32216SOL     OW   49   4.060   5.582   1.777  0.1614 -0.6207 -0.2745
32216SOL    HW1   50   4.066   5.522   1.852 -0.1074  0.8076  0.9413
32216SOL    HW2   51   4.069   5.526   1.701  3.3624 -1.8656  0.8208
32217SOL     OW   52  10.219   7.156  10.662 -0.1235 -0.4676 -0.3424
32217SOL    HW1   53  10.252   7.161  10.572  1.7449  1.0805  0.3624
32217SOL    HW2   54  10.287   7.112  10.711 -0.3993  0.1210  0.6081
32218SOL     OW   55   4.251   9.219   0.248  0.3275  0.0935  0.0090
32218SOL    HW1   56   4.273   9.137   0.203  0.0974 -0.2574  0.5151
32218SOL    HW2   57   4.326   9.236   0.305  0.2211  0.0350  0.1694
32219SOL     OW   58  10.035   2.285   2.714 -0.1379 -0.1674 -0.1030
32219SOL    HW1   59   9.991   2.369   2.723 -1.2352 -0.7754  0.4208
32219SOL    HW2   60  10.116   2.295   2.765  0.4786  1.0317 -1.2579
32220SOL     OW   61   2.963   6.579   4.902 -0.1344 -0.9832 -0.0812
32220SOL    HW1   62   2.918   6.623   4.831 -1.5000  0.7550  1.7496
32220SOL    HW2   63   3.052   6.614   4.899 -0.5665  0.1661 -0.1097
32221SOL     OW   64   2.635   8.408   8.015  0.0638 -0.2043 -0.2234
32221SOL    HW1   65   2.569   8.474   8.035  2.0059  1.0760  2.7972
32221SOL    HW2   66   2.718   8.457   8.013  1.2657 -2.1521 -0.6733
32222SOL     OW   67   8.948   3.056   7.430 -0.2490  0.4048  0.2520
32222SOL    HW1   68   8.864   3.100   7.441 -0.3372  0.5483 -0.8575
32222SOL    HW2   69   8.998   3.081   7.507 -0.4808  2.0701 -0.0939
32223SOL     OW   70  10.877  10.331   5.240  0.5432 -0.0042 -0.3807
32223SOL    HW1   71  10.823  10.255   5.262  1.3017 -1.2548 -2.5264
32223SOL    HW2   72  10.891  10.323   5.146 -1.2418  4.0605 -1.2089
32224SOL     OW   73  10.210   3.108  10.247  0.0902 -0.3656 -0.2764
32224SOL    HW1   74  10.230   3.021  10.281  0.5613  0.0916  0.6639
32224SOL    HW2   75  10.118   3.123  10.271  0.1089 -0.4718 -0.1402
32225SOL     OW   76   3.840   5.268   3.413 -0.4540  0.0499 -0.1368
32225SOL    HW1   77   3.909   5.220   3.366 -0.0258  1.0319 -0.5500
32225SOL    HW2   78   3.790   5.200   3.458 -0.1810 -0.8245 -1.1063
32226SOL     OW   79   3.095   2.462  10.611 -0.2467 -0.6014 -0.1631
32226SOL    HW1   80   3.057   2.416  10.536  0.3282 -0.9217 -0.2585
32226SOL    HW2   81   3.168   2.512  10.575  0.1682 -0.9264  0.2164
32227SOL     OW   82   7.255  10.653   3.678 -0.3135  0.8310  0.5722
32227SOL    HW1   83   7.169  10.619   3.704 -1.1158  1.5712 -0.9117
32227SOL    HW2   84   7.265  10.735   3.727 -0.5012  0.7890  0.6809
32228SOL     OW   85   0.660   8.455   6.261  0.4498 -0.2340 -0.5446
32228SOL    HW1   86   0.732   8.403   6.296  0.7584 -0.0094 -0.8337
32228SOL    HW2   87   0.583   8.424   6.308  0.9917  0.7837  1.0820
32229SOL     OW   88   8.453   4.559   6.540 -0.4809  0.1540  0.8471
32229SOL    HW1   89   8.428   4.507   6.464 -1.2976  1.6314  0.0573
32229SOL    HW2   90   8.384   4.625   6.548  1.8826  2.9754 -0.0000
32230SOL     OW   91   4.701   1.921   9.497  0.0328 -0.3409  0.3558
32230SOL    HW1   92   4.675   1.855   9.561  0.8524 -1.0378 -0.0020
32230SOL    HW2   93   4.788   1.893   9.468 -0.3180 -0.0498 -1.0497
32231SOL     OW   94   9.744   5.261   3.766  0.3896 -0.2486  0.0154
32231SOL    HW1   95   9.713   5.227   3.682 -2.2105  2.5279 -0.3192
32231SOL    HW2   96   9.829   5.299   3.747  0.4135 -0.7893 -1.0510
32232SOL     OW   97   5.641   9.685   6.249 -0.9723  0.6211 -0.4447
32232SOL    HW1   98   5.617   9.626   6.321  0.1024  0.5977 -0.0943
32232SOL    HW2   99   5.652   9.627   6.173  2.0799  0.0133  0.3397
32233SOL     OW  100   9.246   9.357   1.961 -0.4073  0.0793  0.4397
32233SOL    HW1  101   9.153   9.350   1.983 -0.4681  1.9666  0.9798
32233SOL    HW2  102   9.246   9.398   1.874 -0.0768 -2.3251 -0.7658
32234SOL     OW  103   7.848   5.669   0.320  0.4773  0.0287  0.0985
32234SOL    HW1  104   7.869   5.754   0.283  2.9681  0.2773  1.8043
32234SOL    HW2  105   7.759   5.678   0.353  0.4878  1.7584 -0.2542
32235SOL     OW  106   0.032   9.026   8.676  0.0986  0.4985  0.2672
32235SOL    HW1  107  -0.029   8.966   8.633 -2.4986  3.4163 -0.4682
32235SOL    HW2  108   0.119   8.998   8.645 -1.1301 -1.6009 -1.5910
32236SOL     OW  109   3.376   4.098   4.884  0.2999 -0.2977  0.5323
32236SOL    HW1  110   3.415   4.017   4.917  1.6723  0.2031  0.2158
32236SOL    HW2  111   3.408   4.106   4.794 -0.1084  0.4171  0.4372
32237SOL     OW  112  10.658   2.026   2.096 -0.0864 -0.2513  0.2034
32237SOL    HW1  113  10.566   2.040   2.072  0.0404  0.2873  0.0166
32237SOL    HW2  114  10.654   1.987   2.184 -0.4889 -0.0610  0.2737
32238SOL     OW  115   5.853   5.651   3.565  0.1193 -0.5516  0.4921
32238SOL    HW1  116   5.764   5.652   3.529  0.4358  1.0277 -0.3610
32238SOL    HW2  117   5.856   5.727   3.623  0.8351 -0.7567  0.7329
32239SOL     OW  118   6.959   4.492   3.011 -0.5633  0.3317  0.6630
32239SOL    HW1  119   7.042   4.539   3.012 -0.5475  0.3294 -0.1249
32239SOL    HW2  120   6.982   4.403   2.985 -0.9803  0.6879 -1.0055
32240SOL     OW  121   9.579   8.392   4.785  0.6342  0.3695  0.2616
32240SOL    HW1  122   9.665   8.388   4.744  0.6610  1.8012  0.1188
32240SOL    HW2  123   9.523   8.432   4.719 -0.2686 -0.9537  0.1940
32241SOL     OW  124  10.861   4.661   1.172  0.3530 -0.3713 -0.1957
32241SOL    HW1  125  10.918   4.696   1.103  0.4270 -1.1409 -0.5439
32241SOL    HW2  126  10.888   4.708   1.251  0.7785 -0.0011 -0.5506
32242SOL     OW  127   0.216   2.995   7.972 -0.0464 -0.6744  0.6935
32242SOL    HW1  128   0.236   2.903   7.991  2.3280 -0.1369  1.0039
32242SOL    HW2  129   0.143   2.990   7.910 -0.5570 -2.7315  1.3722
32243SOL     OW  130   2.976   2.439   6.066 -0.5200 -0.3133  0.5360
32243SOL    HW1  131   3.021   2.504   6.012  0.1424  1.4365  3.0246
32243SOL    HW2  132   3.045   2.382   6.098 -0.8768 -1.1838 -0.2071
32244SOL     OW  133   0.690   5.416   6.472 -0.3881 -0.2245 -0.2234
32244SOL    HW1  134   0.752   5.372   6.413  0.9591  3.1238 -1.5576
32244SOL    HW2  135   0.728   5.403   6.560 -0.4580 -2.2082 -0.4328
32245SOL     OW  136  10.529   7.623   3.080 -0.1724  0.1672  0.4540
32245SOL    HW1  137  10.451   7.666   3.113 -0.9319  1.5655 -2.7325
32245SOL    HW2  138  10.503   7.532   3.067 -0.3000 -0.0561  2.0997
32246SOL     OW  139   2.904   9.146   6.703  0.2332 -0.1136 -0.0232
32246SOL    HW1  140   2.882   9.053   6.708 -0.6405  0.0350 -0.7445
32246SOL    HW2  141   2.977   9.151   6.643 -0.1831 -0.2737 -0.5500
32247SOL     OW  142   4.381  10.765   4.645  0.2881 -0.3192 -0.1027
32247SOL    HW1  143   4.296  10.773   4.687  0.0270  0.2963 -0.7303
32247SOL    HW2  144   4.440  10.736   4.715 -0.7272 -2.2858  0.0133
32248SOL     OW  145   6.111   2.320   2.357  0.7923 -0.2837  0.8244
32248SOL    HW1  146   6.179   2.379   2.389  0.1527  0.9701 -0.0870
32248SOL    HW2  147   6.058   2.301   2.435  0.5871  0.9240  1.0011
32249SOL     OW  148   1.759   8.581  10.884  0.1241 -0.1358  0.5708
32249SOL    HW1  149   1.772   8.511  10.820 -0.4177 -1.4432  1.8411
32249SOL    HW2  150   1.738   8.535  10.965  0.5481  1.4860  1.6342
32250SOL     OW  151   8.115   2.908   6.700  0.7107 -0.6468 -0.3494
32250SOL    HW1  152   8.144   2.956   6.778 -3.1421  1.5478  0.0155
32250SOL    HW2  153   8.172   2.937   6.630  1.1987  1.2009  0.7562
32251SOL     OW  154   5.494  10.161   5.494 -0.3225  0.0268 -0.2228
32251SOL    HW1  155   5.470  10.207   5.414 -1.1053  2.9217  1.5033
32251SOL    HW2  156   5.578  10.200   5.520 -0.3007 -0.5407  0.5931
32252SOL     OW  157   8.037   0.871   2.680  0.1562 -0.2340 -0.0946
32252SOL    HW1  158   8.062   0.789   2.636  1.5374 -0.4467  1.0215
32252SOL    HW2  159   7.970   0.909   2.623 -0.3180 -1.9966 -0.7859
32253SOL     OW  160   9.059   7.878   9.724 -0.1776 -0.2350  0.5939
32253SOL    HW1  161   9.140   7.835   9.750 -1.0522 -0.7781  2.5986
32253SOL    HW2  162   9.078   7.972   9.734  1.0215 -0.1448 -1.6717
32254SOL     OW  163   5.353   4.557   8.663  0.0652  0.4834  0.0440
32254SOL    HW1  164   5.271   4.516   8.692  0.4791  0.6274  1.5330
32254SOL    HW2  165   5.339   4.650   8.677  0.7463  0.4482  1.0983
32255SOL     OW  166   1.089   1.919   3.208 -0.3960 -0.7640 -0.4547
32255SOL    HW1  167   1.159   1.984   3.203 -0.6264 -0.1538  2.6116
32255SOL    HW2  168   1.133   1.835   3.198  0.7698 -0.3644  1.0522
32256SOL     OW  169   8.758   7.577   6.605 -0.0676 -0.2607  0.8549
32256SOL    HW1  170   8.798   7.523   6.537  1.8047 -0.0304  1.7109
32256SOL    HW2  171   8.794   7.665   6.589  0.4980 -0.2353  2.1961
32257SOL     OW  172   8.629   0.299   5.381  0.4522 -0.3249  0.3440
32257SOL    HW1  173   8.548   0.257   5.352 -0.3418 -0.6553  2.7766
32257SOL    HW2  174   8.676   0.320   5.301 -1.7414 -0.7279 -1.1213
32258SOL     OW  175   9.745   5.379   7.810 -0.0204 -0.6569 -0.7079
32258SOL    HW1  176   9.765   5.428   7.890 -1.1761 -3.5863  1.5511
32258SOL    HW2  177   9.705   5.444   7.752  0.0452  1.4217  1.3991
32259SOL     OW  178   2.062   9.259   7.266 -0.0521 -0.1876  0.5429
32259SOL    HW1  179   2.144   9.305   7.247 -0.3370  0.7472  1.4722
32259SOL    HW2  180   2.004   9.283   7.194  0.3562 -0.5269  0.0929
32260SOL     OW  181   5.849   6.202   4.566 -0.1580 -0.0283  0.1188
32260SOL    HW1  182   5.889   6.158   4.642  0.1337 -0.3190 -0.1988
32260SOL    HW2  183   5.888   6.289   4.567  1.9578 -0.8869 -1.2596
32261SOL     OW  184   6.406   4.433   1.451  0.1460 -0.0394 -0.2641
32261SOL    HW1  185   6.470   4.377   1.496  0.6953  0.4809 -0.3837
32261SOL    HW2  186   6.459   4.495   1.401 -0.3282  2.4681  2.1038
32262SOL     OW  187  10.290   7.250   3.321  0.4821 -0.0598  0.2761
32262SOL    HW1  188  10.263   7.166   3.358  1.4935  0.5210  2.5382
32262SOL    HW2  189  10.378   7.234   3.287  1.0684  0.2416  1.5655
32263SOL     OW  190   2.577   1.025   2.283 -0.2919 -0.2724  0.3788
32263SOL    HW1  191   2.532   1.050   2.202  1.0497 -0.7716 -0.5682
32263SOL    HW2  192   2.510   1.030   2.351 -1.3019  0.7926 -0.6514
32264SOL     OW  193   9.861  10.075   1.072 -0.2248  0.3086 -0.4784
32264SOL    HW1  194   9.950  10.046   1.089 -0.5877  0.0333  1.1363
32264SOL    HW2  195   9.822  10.006   1.018 -0.2059 -0.8407  0.9236
32265SOL     OW  196   4.238   7.015   4.068  0.1763 -0.7481  0.7534
32265SOL    HW1  197   4.200   6.949   4.011  1.8215 -0.8012 -0.3350
32265SOL    HW2  198   4.286   6.965   4.135  3.0477 -0.8052 -1.1604
32266SOL     OW  199   2.946   4.520   9.333 -0.1436 -0.0823 -0.4955
32266SOL    HW1  200   3.029   4.473   9.334  0.3668  0.7979 -0.0162
32266SOL    HW2  201   2.970   4.611   9.315 -0.9946  0.1950 -0.2825
32267SOL     OW  202   4.585   1.844   7.278  0.3098  0.3681  0.0670
32267SOL    HW1  203   4.613   1.901   7.206 -1.5072  2.0755  0.6234
32267SOL    HW2  204   4.626   1.882   7.355  1.7171 -1.0722  0.0757
32268SOL     OW  205   3.843   1.673   5.935  0.5619  0.7279 -0.4757
32268SOL    HW1  206   3.842   1.599   5.997  0.9748 -1.4922 -2.9275
32268SOL    HW2  207   3.935   1.697   5.929  0.4119  1.5887  0.4213
32269SOL     OW  208   3.549   5.094   0.116 -0.0959  0.1018 -0.0519
32269SOL    HW1  209   3.640   5.090   0.087 -0.0304  0.7162  0.0505
32269SOL    HW2  210   3.520   5.182   0.091 -0.5785  0.0042  0.1576
32270SOL     OW  211   7.989   2.964   5.342 -0.2607 -0.2991  0.0788
32270SOL    HW1  212   7.946   2.879   5.328 -1.4394  0.3799 -0.6377
32270SOL    HW2  213   7.924   3.015   5.390  0.6449  0.0378  0.9546
32271SOL     OW  214   4.729   8.849   4.806 -0.4455  0.2718  0.0476
32271SOL    HW1  215   4.796   8.821   4.868 -0.4019 -0.3033 -0.2559
32271SOL    HW2  216   4.700   8.768   4.764 -1.7216  0.4269  0.5680
32272SOL     OW  217   4.134   8.169   7.596 -0.3418 -0.1695 -0.5071
32272SOL    HW1  218   4.119   8.131   7.683 -1.8381 -0.1356 -0.7301
32272SOL    HW2  219   4.227   8.151   7.578 -0.5928 -2.3947  0.0522
32273SOL     OW  220  10.732   2.023   7.588  0.3536 -0.3088  0.0499
32273SOL    HW1  221  10.711   2.105   7.633  0.2792 -1.1852  1.6915
32273SOL    HW2  222  10.673   2.021   7.513  0.4683  1.2024 -0.1119
32274SOL     OW  223   2.070   3.052   1.033  0.0432  0.4694 -0.4801
32274SOL    HW1  224   2.127   2.994   1.085 -0.9294 -1.6292 -1.6529
32274SOL    HW2  225   1.982   3.037   1.068 -0.4013  0.2385 -1.6653
32275SOL     OW  226   6.726   1.636   5.559  0.2935  0.0607 -0.0629
32275SOL    HW1  227   6.774   1.712   5.594  0.2421  1.1317 -2.1666
32275SOL    HW2  228   6.725   1.650   5.464 -0.1076 -2.3746 -0.4786
32276SOL     OW  229   1.705   9.736   8.928 -0.1755  0.1038  0.8233
32276SOL    HW1  230   1.774   9.672   8.911 -1.4471 -0.7987 -1.4992
32276SOL    HW2  231   1.749   9.808   8.972  2.0426 -0.8426  0.2904
32277SOL     OW  232   1.160   3.183  10.387  1.0629  0.6262  0.5706
32277SOL    HW1  233   1.253   3.205  10.393  1.3304 -0.4688  0.5937
32277SOL    HW2  234   1.145   3.121  10.459  0.7128 -0.5116 -0.4544
32278SOL     OW  235   6.330   4.278   8.684 -0.6845 -0.3033 -0.0545
32278SOL    HW1  236   6.371   4.242   8.763  1.1738 -1.3568 -1.3986
32278SOL    HW2  237   6.249   4.319   8.715  1.3122  1.8973  2.8197
32279SOL     OW  238   7.714   1.421   0.354 -0.3762  0.4537  0.0565
32279SOL    HW1  239   7.716   1.510   0.319  0.2773  0.9416  1.2824
32279SOL    HW2  240   7.710   1.365   0.277 -0.2153  1.5247 -0.7509
32280SOL     OW  241   1.955   5.459   3.069 -0.1454  0.1661 -0.5021
32280SOL    HW1  242   1.885   5.518   3.097  0.9559  0.7586  1.1409
32280SOL    HW2  243   1.916   5.372   3.070 -0.7977  0.4598  0.6452
32281SOL     OW  244   5.779   8.306   1.837  0.4560  0.0616  0.3477
32281SOL    HW1  245   5.805   8.379   1.781 -0.1461 -0.9733 -1.3558
32281SOL    HW2  246   5.844   8.306   1.907  0.0519  2.6648  0.8507
32282SOL     OW  247   9.371   4.182   7.352 -0.0824  0.8442 -0.2407
32282SOL    HW1  248   9.430   4.151   7.421 -1.8873  0.6164  1.2617
32282SOL    HW2  249   9.326   4.103   7.321 -0.9475  1.2505 -0.0473
32283SOL     OW  250   4.414   3.661   5.121 -0.2118  0.4483 -0.3711
32283SOL    HW1  251   4.454   3.627   5.201  1.1174  0.3086 -1.0602
32283SOL    HW2  252   4.348   3.597   5.097 -2.8286  1.9355  2.2147
32284SOL     OW  253   8.376   2.444   4.675 -0.2306 -0.6454  0.1234
32284SOL    HW1  254   8.417   2.400   4.750  0.7443 -0.8380 -0.4969
32284SOL    HW2  255   8.328   2.376   4.630 -1.1444 -0.4518  0.7655
32285SOL     OW  256   3.645   9.604   2.177 -0.0466  0.1652  0.4066
32285SOL    HW1  257   3.692   9.578   2.256 -0.7772  0.4445  0.9475
32285SOL    HW2  258   3.649   9.528   2.120  2.1429  0.5948 -0.1069
32286SOL     OW  259   3.696   3.305  10.626  0.3744  0.2430  0.3266
32286SOL    HW1  260   3.678   3.331  10.716 -0.3564  0.0553  0.2383
32286SOL    HW2  261   3.692   3.386  10.576  0.8881  0.3642  0.4710
32287SOL     OW  262   6.776   9.481   4.719  0.4642 -0.4009 -0.2791
32287SOL    HW1  263   6.704   9.494   4.781 -0.5166 -1.9375 -1.0276
32287SOL    HW2  264   6.854   9.471   4.774 -0.1713 -0.3921  0.6328
32288SOL     OW  265  10.912   0.256   6.190 -0.0151  0.2929  0.2156
32288SOL    HW1  266  10.838   0.208   6.227 -1.2214  0.4725 -1.8473
32288SOL    HW2  267  10.873   0.332   6.148  1.5607  1.4122  0.6932
32289SOL     OW  268   8.770   7.650   3.934 -0.3635 -0.1917  0.4040
32289SOL    HW1  269   8.737   7.670   3.846  0.8712  2.4852  0.4555
32289SOL    HW2  270   8.695   7.668   3.992 -0.3739  0.7710  0.1074
32290SOL     OW  271   0.957  10.674   3.940 -0.4617  0.4463  0.0001
32290SOL    HW1  272   0.999  10.588   3.931 -0.5964  0.3544  0.2506
32290SOL    HW2  273   1.014  10.722   4.000 -1.8040 -0.4000  2.0678
32291SOL     OW  274   9.004   2.830   3.429  0.1945  0.1094  0.1078
32291SOL    HW1  275   9.037   2.865   3.511 -0.7379  0.1271  0.4911
32291SOL    HW2  276   9.055   2.750   3.414  0.9215  0.5387  0.2842
32292SOL     OW  277   7.687   2.737   9.507  0.7722 -0.5531  0.2600
32292SOL    HW1  278   7.728   2.759   9.424 -1.3813 -0.5721 -0.8784
32292SOL    HW2  279   7.609   2.793   9.511 -0.5802 -2.3758  0.9996
32293SOL     OW  280   0.220  10.424   8.889  0.4444  0.4205  0.0171
32293SOL    HW1  281   0.219  10.371   8.969 -1.9207 -0.9808 -0.8295
32293SOL    HW2  282   0.183  10.508   8.915  1.1536  0.5333  0.6978
32294SOL     OW  283   6.947  10.090   4.399  0.4884  0.1472 -0.4871
32294SOL    HW1  284   7.043  10.097   4.401  0.4202  1.5842 -0.7217
32294SOL    HW2  285   6.917  10.159   4.458 -0.4173  0.9435 -1.8167
32295SOL     OW  286   2.169   7.173   2.142  0.0554 -0.0530  0.6399
32295SOL    HW1  287   2.156   7.264   2.169 -0.4098 -0.4983  1.9565
32295SOL    HW2  288   2.240   7.178   2.077  0.4709  1.1731  1.1513
32296SOL     OW  289   8.093   6.857   3.642 -0.3442 -0.0883 -0.0040
32296SOL    HW1  290   7.998   6.862   3.655 -0.3366 -0.1217  0.0601
32296SOL    HW2  291   8.117   6.943   3.607 -0.7049 -0.7272 -1.9253
32297SOL     OW  292   3.190   2.360   8.535 -0.3262  0.7848  0.7998
32297SOL    HW1  293   3.159   2.309   8.610 -1.7217 -1.3890 -1.1239
32297SOL    HW2  294   3.126   2.431   8.527 -0.0696  1.1429  1.7076
32298SOL     OW  295   3.954   0.349   6.178 -0.1848 -0.1106 -0.1414
32298SOL    HW1  296   3.911   0.396   6.249 -0.5112  0.1768 -0.5222
32298SOL    HW2  297   4.036   0.317   6.216 -0.7463 -0.6966  0.6074
32299SOL     OW  298   7.817   1.306   7.157 -0.0086 -0.4111  0.0262
32299SOL    HW1  299   7.777   1.384   7.118 -0.6068  0.2598  1.8897
32299SOL    HW2  300   7.833   1.248   7.082  1.0741  1.7310 -1.5052
32300SOL     OW  301   8.189   5.355   5.209 -0.0161  0.4085 -0.1919
32300SOL    HW1  302   8.264   5.412   5.231  0.7646 -1.1220  1.3041
32300SOL    HW2  303   8.119   5.386   5.266  0.4206 -0.1364  0.6561
32301SOL     OW  304   8.594  10.754   8.880  0.1158 -0.1140  0.0869
32301SOL    HW1  305   8.588  10.753   8.975  1.8414  1.9420  0.3079
32301SOL    HW2  306   8.517  10.803   8.851 -0.1605 -0.3249  0.4641
32302SOL     OW  307   3.438  10.536   1.818 -0.4035  0.2861 -0.4187
32302SOL    HW1  308   3.367  10.568   1.874  0.0266  0.1510  0.2117
32302SOL    HW2  309   3.516  10.542   1.873  0.0092  0.0764 -0.9824
32303SOL     OW  310   2.579   6.540   2.552  0.5529 -0.3536 -0.0237
32303SOL    HW1  311   2.603   6.509   2.465 -1.1713  1.7808 -1.3846
32303SOL    HW2  312   2.625   6.623   2.561  2.2579 -1.4410  2.0010
32304SOL     OW  313   3.618   2.823   1.558 -0.0701 -0.3810  0.1252
32304SOL    HW1  314   3.690   2.776   1.516 -0.4937  0.6533 -1.8951
32304SOL    HW2  315   3.552   2.831   1.489 -1.4683  0.0786  1.4732
32305SOL     OW  316  10.737   7.029   4.542  0.1318  0.7722  0.0731
32305SOL    HW1  317  10.828   7.031   4.571  0.0884  0.5107  0.2325
32305SOL    HW2  318  10.728   7.105   4.484  0.0950  1.6051  1.1268
32306SOL     OW  319  10.306   4.854  10.050 -0.5414  0.0768 -0.0180
32306SOL    HW1  320  10.251   4.889   9.980  0.1960  2.3363  0.4590
32306SOL    HW2  321  10.250   4.791  10.095 -0.8984 -1.8317 -2.8546
32307SOL     OW  322  10.387   0.426   8.130 -0.3825 -0.1037  0.5209
32307SOL    HW1  323  10.450   0.384   8.072  0.2778 -0.1715  1.2670
32307SOL    HW2  324  10.302   0.393   8.101 -0.1960  0.7967 -1.1881
32308SOL     OW  325   9.893   2.231   4.301  0.4301  0.1379 -0.1652
32308SOL    HW1  326   9.872   2.219   4.393 -1.6230  1.0266 -0.4542
32308SOL    HW2  327   9.833   2.299   4.271  0.5185 -0.6396 -2.3321
32309SOL     OW  328   4.950   3.118   5.865  0.2126 -0.5420  0.6543
32309SOL    HW1  329   4.865   3.130   5.907  0.6838  0.5348  1.3899
32309SOL    HW2  330   4.953   3.026   5.840 -1.1176 -0.6134  0.7106
32310SOL     OW  331   9.525   3.199  10.397  0.0329 -0.3070 -0.3317
32310SOL    HW1  332   9.528   3.169  10.488  0.2161 -0.0821 -0.2626
32310SOL    HW2  333   9.473   3.133  10.351  0.4618 -0.7476 -0.1888
32311SOL     OW  334   7.904   5.152   7.394 -0.5304  0.3374  0.4605
32311SOL    HW1  335   7.992   5.130   7.365 -0.5792  0.9337 -0.1854
32311SOL    HW2  336   7.870   5.072   7.435  0.9949  0.6367  2.4694
32312SOL     OW  337   4.965   8.757   2.008 -0.8404  0.1352 -0.5047
32312SOL    HW1  338   5.030   8.703   2.052 -0.4276  1.4314  0.5638
32312SOL    HW2  339   4.967   8.840   2.056 -1.9133  0.8677 -1.6645
32313SOL     OW  340   7.147   3.962   7.516 -0.5928  0.2060 -0.1619
32313SOL    HW1  341   7.192   3.930   7.437  1.0918  0.4666  0.6536
32313SOL    HW2  342   7.109   3.884   7.555 -0.4211 -0.1020 -0.6015
32314SOL     OW  343   8.808   4.855   5.779 -0.0899  0.2047  0.7180
32314SOL    HW1  344   8.788   4.806   5.700 -1.1718 -0.8198  1.5773
32314SOL    HW2  345   8.902   4.869   5.776 -0.1341  0.3204 -0.8074
32315SOL     OW  346   8.407   1.298   7.453  0.2539 -0.2785  0.4937
32315SOL    HW1  347   8.425   1.208   7.426 -0.0600 -0.4705  0.9091
32315SOL    HW2  348   8.311   1.304   7.453  0.2794  0.1397  0.1885
32316SOL     OW  349   7.054   1.297   9.229 -0.1166  0.1056 -0.1421
32316SOL    HW1  350   6.991   1.336   9.169  0.4655 -0.1571 -0.9449
32316SOL    HW2  351   7.004   1.278   9.308 -1.0220 -0.0182 -0.7306
32317SOL     OW  352   1.261   1.596   4.181 -0.4008 -0.0788 -0.1475
32317SOL    HW1  353   1.261   1.510   4.222 -0.4366  0.3591  0.7818
32317SOL    HW2  354   1.192   1.645   4.226 -0.3573  0.4500 -0.6368
32318SOL     OW  355   3.816   3.047   5.665  0.2018  0.1496 -0.2714
32318SOL    HW1  356   3.890   2.990   5.642  0.8988  1.0921 -0.4435
32318SOL    HW2  357   3.795   3.023   5.755 -0.2336 -1.1173 -0.6772
32319SOL     OW  358   6.123   3.742   6.054  0.0816 -0.3377  0.3839
32319SOL    HW1  359   6.197   3.780   6.102  0.7459 -0.9460 -0.1208
32319SOL    HW2  360   6.102   3.662   6.102 -0.2437 -0.1659  0.5245
32320SOL     OW  361   0.266  10.800   7.265 -0.4054 -0.1185 -0.2114
32320SOL    HW1  362   0.293  10.710   7.246  0.8516 -0.3142  2.0805
32320SOL    HW2  363   0.221  10.794   7.350  0.5002  1.4973  0.4353
32321SOL     OW  364   0.044   7.485   3.774 -0.2440  0.3706 -0.0759
32321SOL    HW1  365   0.097   7.507   3.697  0.5762 -0.1380  0.3260
32321SOL    HW2  366  -0.034   7.539   3.766 -1.3634 -1.4319 -2.5683
32322SOL     OW  367  10.009   9.858   2.065  0.2936  0.1158  0.3460
32322SOL    HW1  368   9.943   9.928   2.060  0.3042  0.0500 -2.1088
32322SOL    HW2  369   9.958   9.778   2.080  0.1244  0.4253  1.4955
32323SOL     OW  370   8.050   6.193   7.596  0.3374  0.3178 -0.6189
32323SOL    HW1  371   8.094   6.278   7.598 -0.6502  0.8240 -0.0552
32323SOL    HW2  372   8.114   6.133   7.635  1.3729  0.6169 -1.7742
32324SOL     OW  373   2.648  10.164   5.978 -0.5239  0.6424 -0.6389
32324SOL    HW1  374   2.627  10.073   6.002 -1.0938  0.1606 -2.7297
32324SOL    HW2  375   2.704  10.195   6.048  0.4901 -1.6556 -0.3392
32325SOL     OW  376   1.895   1.467   7.237  0.1241 -0.3991 -0.1066
32325SOL    HW1  377   1.804   1.436   7.243 -0.8761  2.0058 -1.4753
32325SOL    HW2  378   1.917   1.457   7.145  1.3868 -1.1600  0.2484
32326SOL     OW  379   3.237   9.273   6.766 -0.7466  0.1307 -0.4877
32326SOL    HW1  380   3.274   9.207   6.824  0.5164  0.5542 -0.7791
32326SOL    HW2  381   3.175   9.225   6.710  2.6571 -1.6214 -3.1012
32327SOL     OW  382   5.258   5.930   2.472  0.0454 -0.5176  0.0180
32327SOL    HW1  383   5.348   5.922   2.439  0.1710 -1.3663  0.5581
32327SOL    HW2  384   5.268   5.972   2.557 -0.2171  0.8983 -0.6129
32328SOL     OW  385   1.797   8.219   4.659  0.6734  0.0860 -0.2856
32328SOL    HW1  386   1.807   8.306   4.698 -2.0623 -0.2995  1.5304
32328SOL    HW2  387   1.783   8.236   4.566  1.5027  1.4510 -0.1989
32329SOL     OW  388   1.865   4.847   1.175 -0.0256 -0.8024 -0.3227
32329SOL    HW1  389   1.777   4.825   1.207  0.8517 -0.0993  3.0159
32329SOL    HW2  390   1.923   4.787   1.222  1.4271  0.0373 -0.9690
32330SOL     OW  391   3.119   8.605   4.619 -0.1918  0.5378  0.3142
32330SOL    HW1  392   3.148   8.685   4.575  2.1518  0.2037  1.0771
32330SOL    HW2  393   3.170   8.535   4.577 -1.2980 -0.3879  0.4871
32331SOL     OW  394   5.833   2.919   0.070  0.2137 -0.3973 -0.2680
32331SOL    HW1  395   5.918   2.964   0.066  0.6541 -1.2755 -1.5730
32331SOL    HW2  396   5.828   2.871  -0.012 -1.4190 -0.6354 -0.0594
32332SOL     OW  397   8.525   3.943   5.317 -0.4688 -0.1236  0.3076
32332SOL    HW1  398   8.604   3.946   5.372 -0.5559  0.4656  0.4144
32332SOL    HW2  399   8.454   3.967   5.377 -0.6012  0.2563 -0.0007
32333SOL     OW  400   7.262   8.683   8.111  0.6575  0.1443 -0.0614
32333SOL    HW1  401   7.322   8.740   8.063  0.7300 -1.3661 -1.8953
32333SOL    HW2  402   7.187   8.739   8.132  0.9064  1.0394 -1.4249
32334SOL     OW  403   4.307   0.772   6.775 -0.2323  0.1677 -0.4386
32334SOL    HW1  404   4.338   0.849   6.823  0.2722 -0.2671 -0.0560
32334SOL    HW2  405   4.258   0.808   6.701  0.4568  0.8578 -0.5667
32335SOL     OW  406   8.895   8.664   5.984 -0.0311 -0.2217 -0.0369
32335SOL    HW1  407   8.912   8.571   6.000  1.1233  0.1761  1.2432
32335SOL    HW2  408   8.826   8.685   6.047  2.1422  0.5467  2.2626
32336SOL     OW  409   1.327   5.546   6.248 -0.3355  0.6920 -0.0402
32336SOL    HW1  410   1.282   5.478   6.198 -0.0221  0.5365 -0.1110
32336SOL    HW2  411   1.320   5.625   6.193  0.5363  0.3805 -0.6183
32337SOL     OW  412   6.860   6.099   8.533  0.6095 -0.0216  0.1205
32337SOL    HW1  413   6.769   6.069   8.530  0.7117 -0.4859  1.1291
32337SOL    HW2  414   6.910   6.019   8.548  1.1535  0.2832 -0.0676
32338SOL     OW  415   8.313   1.266   3.035  0.4697  0.2414 -0.2204
32338SOL    HW1  416   8.247   1.280   2.967  1.6293 -0.9706 -1.6687
32338SOL    HW2  417   8.263   1.232   3.110 -0.6441  0.1005 -1.0077
32339SOL     OW  418   4.465   6.229   0.294 -0.2527  0.3364 -0.4571
32339SOL    HW1  419   4.472   6.211   0.387 -0.9969 -1.5191 -0.7124
32339SOL    HW2  420   4.377   6.266   0.283 -0.1206  0.6691 -0.4249
32340SOL     OW  421   8.773   7.765   2.603 -0.3647 -0.0378  0.2608
32340SOL    HW1  422   8.722   7.746   2.524 -0.1093 -0.4463  0.1890
32340SOL    HW2  423   8.827   7.687   2.616 -0.0448  0.2299  0.5612
32341SOL     OW  424   5.249   7.836   6.130  0.1394  0.1087 -0.2062
32341SOL    HW1  425   5.166   7.800   6.162  0.1450 -0.3419 -0.6832
32341SOL    HW2  426   5.315   7.797   6.188  0.1258 -0.5093 -0.5943
32342SOL     OW  427   5.059   5.943   2.029  0.5906 -0.0653 -0.2359
32342SOL    HW1  428   5.101   5.857   2.032 -1.1353 -0.9390  0.3887
32342SOL    HW2  429   4.991   5.934   1.962  0.1743  0.7073  0.0742
32343SOL     OW  430   9.432   2.252   1.679 -0.2259  0.1663  0.4509
32343SOL    HW1  431   9.381   2.323   1.716 -0.2343 -0.1831  1.1282
32343SOL    HW2  432   9.497   2.294   1.622 -2.4316  0.5549 -1.9601
32344SOL     OW  433   1.389   5.222   5.135  0.1058  0.3467  0.5531
32344SOL    HW1  434   1.448   5.174   5.192  0.2962 -0.3943 -0.2452
32344SOL    HW2  435   1.312   5.166   5.127  0.8982 -0.5151 -1.5038
32345SOL     OW  436   4.196   1.677   9.504  0.0080 -0.1927 -0.0228
32345SOL    HW1  437   4.206   1.707   9.594 -0.1622 -0.0089 -0.0621
32345SOL    HW2  438   4.134   1.604   9.509  2.2025 -2.1522  0.3794
32346SOL     OW  439   1.672   5.205   2.633 -0.0977  0.0856  0.2888
32346SOL    HW1  440   1.666   5.109   2.631 -0.0076  0.0627  0.8382
32346SOL    HW2  441   1.581   5.235   2.626 -0.2679 -0.0836  1.5276
32347SOL     OW  442  10.066   0.940   0.387  0.0182 -0.3611  0.0792
32347SOL    HW1  443   9.993   0.999   0.405  0.5976  1.0298 -1.8649
32347SOL    HW2  444  10.128   0.957   0.458 -1.0174 -0.7265  1.1058
32348SOL     OW  445   6.210   4.773   3.631 -0.0530 -0.3163  0.3461
32348SOL    HW1  446   6.153   4.796   3.558  0.5612  0.0436 -0.0266
32348SOL    HW2  447   6.278   4.718   3.592  0.2275 -0.1958  0.6562
32349SOL     OW  448   5.410   2.010   4.873  0.1751  0.3018  0.3919
32349SOL    HW1  449   5.377   2.096   4.898  1.2433  1.2102 -1.1688
32349SOL    HW2  450   5.371   1.950   4.937 -4.0882  1.2866 -0.9119
32350SOL     OW  451   9.651   2.028   8.973 -0.3710 -0.2137 -0.7840
32350SOL    HW1  452   9.665   1.957   8.911  0.5698 -0.8620  0.1457
32350SOL    HW2  453   9.675   2.107   8.924 -0.6609 -0.6035 -1.5753
32351SOL     OW  454   6.962   2.905  10.156 -0.1219  0.0080  0.3686
32351SOL    HW1  455   6.867   2.912  10.157 -0.1734 -0.3902  2.4776
32351SOL    HW2  456   6.980   2.814  10.180  0.8092 -0.3249 -1.3939
32352SOL     OW  457   5.262   9.934   3.839  0.1022 -1.1091  0.5589
32352SOL    HW1  458   5.180   9.978   3.862  0.2252 -0.9949  0.7914
32352SOL    HW2  459   5.310   9.929   3.922  1.3704  0.9879  0.0530
32353SOL     OW  460   9.784   7.818   6.741  0.3805 -0.3430  0.4765
32353SOL    HW1  461   9.760   7.786   6.828  0.2349  1.3066  1.0786
32353SOL    HW2  462   9.701   7.847   6.703  0.2596 -2.0523 -0.6982
32354SOL     OW  463   6.114   7.281   4.108  0.2713  0.2590 -0.0949
32354SOL    HW1  464   6.171   7.358   4.102  0.3907  0.0595 -3.3023
32354SOL    HW2  465   6.028   7.313   4.080 -0.0754 -0.4341  0.1649
32355SOL     OW  466   9.530   3.765   8.691  0.0401  0.3978 -0.1691
32355SOL    HW1  467   9.460   3.788   8.630  0.5843  2.1123 -0.1954
32355SOL    HW2  468   9.489   3.770   8.777 -0.3821 -0.6781 -0.2944
32356SOL     OW  469   7.355   2.315   7.223  0.7002 -0.1005 -1.2107
32356SOL    HW1  470   7.396   2.360   7.150 -0.1371 -0.9417 -2.2396
32356SOL    HW2  471   7.410   2.238   7.238  1.1523  0.3292 -0.6038
32357SOL     OW  472   6.945   8.141   9.380  0.3107 -0.0764 -0.0477
32357SOL    HW1  473   6.962   8.203   9.451 -0.3020 -1.5053  1.4076
32357SOL    HW2  474   6.905   8.194   9.311  1.6976  1.5124  0.2904
32358SOL     OW  475   1.136   8.994   2.995  0.0930  0.5474 -0.3293
32358SOL    HW1  476   1.045   9.003   2.964  0.1118  0.9761 -0.2725
32358SOL    HW2  477   1.168   9.084   2.998 -0.3055  0.6758  2.1050
32359SOL     OW  478   3.860   0.924   6.617 -0.1566  0.2760  0.0514
32359SOL    HW1  479   3.818   0.897   6.535 -0.3258  0.0855  0.1995
32359SOL    HW2  480   3.887   0.842   6.659 -0.8298  0.3167  0.5882
32360SOL     OW  481   3.574   4.743   4.880 -0.2048  0.2086  0.6463
32360SOL    HW1  482   3.628   4.738   4.801 -3.2439  0.3450 -1.5933
32360SOL    HW2  483   3.552   4.836   4.888 -0.4603  0.0977  1.2839
32361SOL     OW  484   6.033   5.906   5.280  0.2756 -0.3244 -0.3693
32361SOL    HW1  485   5.962   5.923   5.217 -0.1906  1.2873  0.5315
32361SOL    HW2  486   6.017   5.817   5.311 -0.6783 -0.3946 -1.0181
32362SOL     OW  487   7.337   0.887   7.599 -0.6805  0.4651  0.4892
32362SOL    HW1  488   7.432   0.897   7.593 -0.8271  1.8653 -0.0179
32362SOL    HW2  489   7.306   0.887   7.508 -1.0381 -1.8478  0.5683
32363SOL     OW  490   7.454   5.877   0.616  0.2144 -0.7220 -0.1937
32363SOL    HW1  491   7.485   5.827   0.692  3.0386  0.9683 -0.0695
32363SOL    HW2  492   7.414   5.956   0.653 -2.9270 -2.0540 -0.4343
32364SOL     OW  493   8.108   0.933   0.073  0.4366 -0.1526  0.5110
32364SOL    HW1  494   8.055   0.979   0.138  1.0205  1.7318 -0.2695
32364SOL    HW2  495   8.083   0.972  -0.011 -0.7095 -2.9135 -0.5345
32365SOL     OW  496   1.707   8.696  10.069  0.0963 -0.6160 -0.3777
32365SOL    HW1  497   1.785   8.641  10.081 -0.6103 -2.0237 -1.7571
32365SOL    HW2  498   1.687   8.687   9.976 -3.3154 -2.5856  0.4039
32366SOL     OW  499   8.887   8.245   6.041 -0.2355  0.9295  0.3692
32366SOL    HW1  500   8.839   8.319   6.077  0.7166  1.1633  1.2220
32366SOL    HW2  501   8.856   8.237   5.951 -1.7381  1.1531  0.8453
32367SOL     OW  502   5.613   9.846   9.832 -0.3559  0.0023  0.1174
32367SOL    HW1  503   5.600   9.804   9.917 -0.3242 -1.0064 -0.3625
32367SOL    HW2  504   5.696   9.891   9.840 -1.5689  2.1445  1.4886
32368SOL     OW  505   1.697   9.786   4.558  0.3691 -0.2887 -0.1268
32368SOL    HW1  506   1.714   9.756   4.648  1.3276 -1.8359 -0.7725
32368SOL    HW2  507   1.622   9.734   4.530 -1.1574  1.5370  0.3531
32369SOL     OW  508   5.998   9.729   2.630 -0.3773  0.1184  0.0721
32369SOL    HW1  509   6.024   9.656   2.574 -0.0348  0.4386 -0.1891
32369SOL    HW2  510   5.910   9.706   2.659 -0.6788  0.0807 -0.8355
32370SOL     OW  511   0.933   0.003  10.258 -0.7342  0.4350 -0.3303
32370SOL    HW1  512   0.934   0.094  10.288 -1.2963 -0.5232  2.8981
32370SOL    HW2  513   0.864   0.001  10.191 -0.0903  2.5018 -1.1410
32371SOL     OW  514   9.773   4.239   4.983 -0.6088  0.1784  0.3524
32371SOL    HW1  515   9.854   4.232   5.034 -0.3017 -1.8378 -0.3222
32371SOL    HW2  516   9.787   4.315   4.925  0.6556  0.0626  0.4907
32372SOL     OW  517   4.245   4.685   4.797 -0.0540 -0.1966  0.4786
32372SOL    HW1  518   4.300   4.615   4.763 -0.8814  0.0718 -1.5506
32372SOL    HW2  519   4.166   4.683   4.743 -0.6601  1.4783  1.2142
32373SOL     OW  520   1.622   9.012   6.969 -0.5633  0.2495  0.2133
32373SOL    HW1  521   1.679   8.992   6.895 -0.6865  0.1437  0.1464
32373SOL    HW2  522   1.672   9.075   7.021 -0.1952 -0.1807  0.3936
32374SOL     OW  523   1.863   2.626   4.231  0.8685  0.1280  0.6144
32374SOL    HW1  524   1.769   2.615   4.242  0.7504  1.0503  0.5436
32374SOL    HW2  525   1.882   2.589   4.145 -0.0924  3.5235 -1.1985
32375SOL     OW  526  10.657   1.736   0.093  0.3191 -0.8702 -0.0571
32375SOL    HW1  527  10.651   1.819   0.046 -0.5227 -1.3272 -0.8076
32375SOL    HW2  528  10.574   1.692   0.073  0.2660 -1.4046  1.2544
32376SOL     OW  529   3.612   7.149   1.457  0.1515 -0.2008 -0.0482
32376SOL    HW1  530   3.666   7.072   1.477 -0.3814 -0.8831 -1.1303
32376SOL    HW2  531   3.620   7.160   1.362 -1.1350  0.0416 -0.1493
32377SOL     OW  532  10.063  10.071  10.138  0.2759 -0.0149  0.4257
32377SOL    HW1  533  10.050  10.009  10.067 -0.8424 -0.0288  0.6249
32377SOL    HW2  534  10.150  10.107  10.123 -0.4002  0.9101 -1.6741
32378SOL     OW  535   5.955   0.897   9.481 -0.0896 -0.1358 -1.0134
32378SOL    HW1  536   5.927   0.921   9.569  1.3991  1.6429 -0.9504
32378SOL    HW2  537   5.875   0.900   9.429 -0.6963  0.6946 -0.0717
32379SOL     OW  538   2.960   3.237   8.886  0.0040  0.5712  0.1114
32379SOL    HW1  539   2.878   3.224   8.934  0.5036 -0.7829  0.6548
32379SOL    HW2  540   2.968   3.159   8.831  0.9687  0.6382  0.1439
32380SOL     OW  541   2.322   6.713   5.088 -0.3432  0.3425  0.3065
32380SOL    HW1  542   2.287   6.656   5.020 -1.5772 -0.1891  1.3434
32380SOL    HW2  543   2.262   6.787   5.091 -0.2409  0.4126  0.7384
32381SOL     OW  544   6.046   3.273   5.990  0.0348  0.2680  0.0987
32381SOL    HW1  545   5.994   3.221   6.051 -0.6865  0.6138 -0.2133
32381SOL    HW2  546   6.057   3.357   6.034 -1.9377  1.1166 -0.9331
32382SOL     OW  547   1.539   5.954   9.060  0.2590  0.2302 -0.1886
32382SOL    HW1  548   1.573   5.885   9.004 -1.4839 -1.5911  0.8683
32382SOL    HW2  549   1.541   5.918   9.149  0.5304  2.0484  0.5971
32383SOL     OW  550   7.160   1.746  10.081  0.0667 -0.3740  0.4802
32383SOL    HW1  551   7.090   1.755  10.017 -0.6133  0.2105  1.2896
32383SOL    HW2  552   7.124   1.689  10.149  0.3855 -0.0882  0.8932
32384SOL     OW  553  10.252   4.071   5.322  0.1767 -0.1815  0.2626
32384SOL    HW1  554  10.230   3.979   5.316 -0.4910  0.0257 -0.8164
32384SOL    HW2  555  10.341   4.077   5.288  0.4782 -0.5151  0.9909
32385SOL     OW  556   6.572  10.511   8.361 -0.3869 -0.3041  0.0391
32385SOL    HW1  557   6.511  10.504   8.287 -0.5352 -0.1641  0.1473
32385SOL    HW2  558   6.548  10.437   8.417  1.3821 -1.9634 -1.2528
32386SOL     OW  559   5.682   3.686   5.035 -0.1086 -0.2103  0.3689
32386SOL    HW1  560   5.680   3.645   4.949 -0.2179 -1.0012  0.7299
32386SOL    HW2  561   5.593   3.673   5.069 -0.8951  2.4166 -0.4165
32387SOL     OW  562   7.122   6.970   3.685  0.0693  0.1362 -0.4954
32387SOL    HW1  563   7.170   6.897   3.724  0.5104 -0.6177 -2.3523
32387SOL    HW2  564   7.045   6.980   3.741  0.9696 -0.4512  0.9145
32388SOL     OW  565  10.474   2.103   2.463 -0.3341 -0.1401 -0.1259
32388SOL    HW1  566  10.390   2.114   2.420  0.1775  0.6599 -0.9534
32388SOL    HW2  567  10.452   2.092   2.556 -1.2764  2.4040  0.0401
32389SOL     OW  568   9.755   2.319   2.060 -0.2361 -0.2617  0.3444
32389SOL    HW1  569   9.791   2.267   1.988  0.6998  0.7138  0.0716
32389SOL    HW2  570   9.829   2.335   2.118 -0.4199  1.0363  0.2448
32390SOL     OW  571   9.422  10.293   6.534  0.3044 -0.4007 -0.0413
32390SOL    HW1  572   9.486  10.230   6.567 -0.3374  0.0218  2.1563
32390SOL    HW2  573   9.416  10.275   6.440  1.8161 -2.0568  0.1384
32391SOL     OW  574   9.696   4.171   6.653  0.3601  0.2560 -0.1449
32391SOL    HW1  575   9.700   4.091   6.705  1.0612 -1.5054 -2.6780
32391SOL    HW2  576   9.773   4.221   6.679 -1.0320  1.1011  2.7828
32392SOL     OW  577   2.511   7.877  10.387 -0.3029 -0.3595  0.0321
32392SOL    HW1  578   2.481   7.808  10.328  0.6826 -0.5988 -0.2043
32392SOL    HW2  579   2.449   7.949  10.373 -0.4715 -0.6552 -0.8085
32393SOL     OW  580   7.388   5.207   9.367  0.3512  0.5390 -0.4028
32393SOL    HW1  581   7.396   5.278   9.430 -0.5919  1.6598 -1.4956
32393SOL    HW2  582   7.294   5.191   9.360  0.5301 -0.6054 -0.4217
32394SOL     OW  583   9.287   1.447   6.824  0.3831  0.1107  0.2966
32394SOL    HW1  584   9.383   1.452   6.829  0.3541  0.6581  0.3571
32394SOL    HW2  585   9.260   1.532   6.788  0.0878 -0.9573 -2.2109
32395SOL     OW  586   0.759  10.013   7.842 -0.0968 -0.0659  0.4673
32395SOL    HW1  587   0.806  10.092   7.869 -0.2106  0.2225 -0.1626
32395SOL    HW2  588   0.703   9.992   7.916  0.1134  0.3050  0.7333
32396SOL     OW  589   3.720   7.621   0.791 -0.0213  0.1743  0.1235
32396SOL    HW1  590   3.793   7.579   0.744 -0.8448 -0.0941 -0.9547
32396SOL    HW2  591   3.763   7.684   0.849  1.0372  0.6694 -1.1417
32397SOL     OW  592  10.051   0.501   8.928 -0.2890 -0.0814  0.2195
32397SOL    HW1  593  10.050   0.590   8.892 -5.8873 -0.3756 -1.3810
32397SOL    HW2  594  10.069   0.446   8.852 -0.5756 -0.3749  0.3630
32398SOL     OW  595   3.943   3.761   1.814 -0.5015 -0.0525  0.8080
32398SOL    HW1  596   3.988   3.692   1.766 -1.5464 -0.5569  0.5312
32398SOL    HW2  597   3.905   3.718   1.890 -1.5670  0.1005  0.3837
32399SOL     OW  598   2.953   2.505   2.249 -0.0908  0.3288  0.1488
32399SOL    HW1  599   2.878   2.467   2.203 -0.2428  0.2543  0.4571
32399SOL    HW2  600   2.919   2.586   2.286 -0.6329 -0.7190  2.0987
32400SOL     OW  601   8.200   3.463   1.162 -0.1863 -0.3584  0.2406
32400SOL    HW1  602   8.284   3.451   1.117 -0.8432  0.7861 -1.3733
32400SOL    HW2  603   8.212   3.541   1.215  0.2976 -1.1956  1.4090
32401SOL     OW  604   8.961   9.811   9.461 -0.2920 -0.2128  0.3741
32401SOL    HW1  605   9.004   9.890   9.426  1.9600 -1.4056  0.2795
32401SOL    HW2  606   9.008   9.791   9.541 -0.6318 -1.6264  0.2496
32402SOL     OW  607   8.668   1.636   0.366  0.4378  0.3354  0.1534
32402SOL    HW1  608   8.596   1.599   0.417  0.8633 -1.0631 -0.2257
32402SOL    HW2  609   8.651   1.607   0.276  1.4694 -0.0182  0.0558
32403SOL     OW  610   8.351   8.398   0.485 -0.0335 -0.6704 -0.3298
32403SOL    HW1  611   8.350   8.485   0.525  0.6283 -0.9390  0.2925
32403SOL    HW2  612   8.266   8.391   0.440  0.5278  0.9066 -1.7403
32404SOL     OW  613   5.914   2.603   5.096 -0.2765 -0.0363 -0.5436
32404SOL    HW1  614   5.824   2.570   5.101 -0.3926  0.3701  0.0842
32404SOL    HW2  615   5.955   2.575   5.178  0.4872 -1.1025 -1.2539
32405SOL     OW  616  10.462   3.492   8.999 -0.4428  0.2668 -0.1780
32405SOL    HW1  617  10.434   3.513   9.088  1.7162  1.8868  0.2158
32405SOL    HW2  618  10.410   3.415   8.974 -0.9920 -0.3329  2.5376
32406SOL     OW  619  10.893   8.175   1.328 -0.0564 -0.1125  0.0071
32406SOL    HW1  620  10.931   8.183   1.416 -1.5451 -1.3519  0.8163
32406SOL    HW2  621  10.936   8.243   1.277  1.7647 -0.1712  1.3694
32407SOL     OW  622  10.624   7.852   1.851  0.4132 -0.3996  0.1455
32407SOL    HW1  623  10.656   7.775   1.804  3.0520  0.9367 -0.4753
32407SOL    HW2  624  10.638   7.832   1.943  0.6167 -0.8442  0.0198
32408SOL     OW  625   1.537   9.109   2.624  0.4282  0.2425 -0.0163
32408SOL    HW1  626   1.555   9.090   2.716  0.9637 -0.6484 -0.2889
32408SOL    HW2  627   1.570   9.198   2.610 -0.6513  0.8002  0.9117
32409SOL     OW  628   9.938   7.058   7.390  0.0637 -0.6515  0.7472
32409SOL    HW1  629   9.993   7.054   7.311 -0.9919 -1.0117  0.0065
32409SOL    HW2  630   9.999   7.079   7.461  1.0710 -0.5310 -0.1297
32410SOL     OW  631  10.219   0.604   4.944 -0.3610  0.4115 -0.7419
32410SOL    HW1  632  10.310   0.603   4.913  0.1560  0.8874  0.6990
32410SOL    HW2  633  10.208   0.690   4.985 -0.3698 -0.8531  2.1307
32411SOL     OW  634   9.589   6.918   2.998 -0.0252 -0.2307  0.2071
32411SOL    HW1  635   9.575   6.845   2.937 -0.8973  1.6763 -2.0743
32411SOL    HW2  636   9.683   6.937   2.991  0.2356 -1.1934  0.9318
32412SOL     OW  637   0.996   7.374   9.729  0.2749  0.2136  0.2833
32412SOL    HW1  638   0.992   7.306   9.661  2.5141 -0.0986  0.3938
32412SOL    HW2  639   1.040   7.332   9.802  0.9745  1.5343  0.6519
32413SOL     OW  640   1.250   5.978   9.775  0.0476 -0.5830  0.0539
32413SOL    HW1  641   1.241   6.026   9.693 -0.1374 -0.0278  0.3892
32413SOL    HW2  642   1.272   6.046   9.840  0.2340 -1.0172  0.4544
32414SOL     OW  643   2.812   5.535   8.120 -0.0471  0.2420  0.2910
32414SOL    HW1  644   2.841   5.621   8.091 -0.5844  0.0386 -0.9201
32414SOL    HW2  645   2.717   5.541   8.120 -0.1311 -0.6642 -0.8954
32415SOL     OW  646   8.715   3.559   0.671  0.0104  0.2735  0.7650
32415SOL    HW1  647   8.627   3.582   0.702  1.0272  2.1788  2.4784
32415SOL    HW2  648   8.741   3.485   0.725 -0.0005  0.6215  1.2521
32416SOL     OW  649  10.079   0.112   6.948  0.2209  0.1692  0.2583
32416SOL    HW1  650   9.986   0.096   6.934  0.3709 -0.4840 -0.0496
32416SOL    HW2  651  10.120   0.087   6.865  0.6677  0.4582  0.3918
32417SOL     OW  652  10.161   7.150   4.031  0.7794 -0.2958  0.1318
32417SOL    HW1  653  10.097   7.109   3.972 -0.1905  0.4121  0.6735
32417SOL    HW2  654  10.157   7.098   4.111  0.3058  0.2367  0.4502
32418SOL     OW  655  10.759   9.203   9.472  0.4280 -0.0712 -0.1318
32418SOL    HW1  656  10.836   9.252   9.500  1.0144 -1.1833  0.2778
32418SOL    HW2  657  10.794   9.133   9.416 -0.4828  0.6176 -1.6372
32419SOL     OW  658   4.790   9.794   5.074  0.4764 -0.1151 -0.0893
32419SOL    HW1  659   4.695   9.784   5.074  0.4862 -0.3176 -1.2469
32419SOL    HW2  660   4.821   9.728   5.135 -0.0628 -0.7722 -0.5162
32420SOL     OW  661   8.617   5.841   7.092 -0.3211 -0.4577  0.2936
32420SOL    HW1  662   8.537   5.798   7.063  0.1661 -1.3664  0.2584
32420SOL    HW2  663   8.606   5.933   7.068 -0.9612 -0.7484 -0.5381
32421SOL     OW  664   0.129  10.394   4.137  0.0980 -0.1773 -0.3945
32421SOL    HW1  665   0.079  10.468   4.101 -2.1161 -0.7494  1.2712
32421SOL    HW2  666   0.213  10.432   4.162 -1.0844  1.9324  0.7339
32422SOL     OW  667   7.854  10.545   3.630 -0.5416  0.3145 -0.1268
32422SOL    HW1  668   7.888  10.564   3.718  0.0738  1.0580 -0.5081
32422SOL    HW2  669   7.853  10.631   3.587  1.5332 -0.3422 -1.6646
32423SOL     OW  670   3.864   4.651   4.466  0.6736  0.1497 -0.2805
32423SOL    HW1  671   3.952   4.672   4.435  0.1004 -0.5072 -2.5708
32423SOL    HW2  672   3.863   4.555   4.473 -0.4073 -0.0649 -2.3924
32424SOL     OW  673   2.208   7.521  10.771  0.1901 -0.3401 -0.0111
32424SOL    HW1  674   2.285   7.516  10.828 -0.8153 -1.4491  1.3034
32424SOL    HW2  675   2.145   7.574  10.820 -0.6124 -1.1204 -0.1804
32425SOL     OW  676   4.626   0.354   7.362  0.0688  0.5870  0.1544
32425SOL    HW1  677   4.686   0.416   7.320  0.4086  0.3320  0.2636
32425SOL    HW2  678   4.682   0.299   7.416  0.3445 -2.4441 -2.9479
32426SOL     OW  679  10.890   3.620   3.290 -0.3208  0.4829 -0.2543
32426SOL    HW1  680  10.952   3.674   3.339 -0.5193 -1.7380  2.7910
32426SOL    HW2  681  10.945   3.572   3.228  0.7427  0.1217  0.9051
32427SOL     OW  682   0.533   9.109   4.336  0.0557 -0.0439  0.4287
32427SOL    HW1  683   0.477   9.071   4.269  0.7451  0.7732 -0.6593
32427SOL    HW2  684   0.548   9.038   4.399  0.1274 -1.1091 -0.7653
32428SOL     OW  685  10.246   9.520   9.733 -0.5620  0.0978 -0.4661
32428SOL    HW1  686  10.296   9.557   9.661 -2.0775 -1.8696 -2.6990
32428SOL    HW2  687  10.155   9.539   9.711 -1.0632 -0.6309  0.8761
32429SOL     OW  688  10.250   9.655   8.950 -0.2796  0.1734 -0.0984
32429SOL    HW1  689  10.189   9.720   8.915 -1.4116 -0.8000  0.0139
32429SOL    HW2  690  10.204   9.618   9.026 -0.4358 -2.0069 -1.2119
32430SOL     OW  691   6.211   3.403   8.044  0.1040 -0.1788  0.9133
32430SOL    HW1  692   6.267   3.339   8.001  0.5766 -0.0313  1.3064
32430SOL    HW2  693   6.226   3.484   7.997 -0.4753 -0.3408  0.4318
32431SOL     OW  694   6.580   8.242   2.008  0.0925 -0.1154  0.5244
32431SOL    HW1  695   6.529   8.162   1.995  0.9151 -0.3944 -1.3729
32431SOL    HW2  696   6.640   8.221   2.080  0.4529 -1.2963 -0.0999
32432SOL     OW  697   6.066   3.140  10.396 -0.1424 -0.1089  0.1845
32432SOL    HW1  698   6.154   3.105  10.377 -0.4176 -0.8968  0.3364
32432SOL    HW2  699   6.007   3.065  10.382 -0.7523  0.3213  0.4323
32433SOL     OW  700   7.794   1.482   9.327 -0.0837  0.5631 -0.0835
32433SOL    HW1  701   7.884   1.491   9.358 -0.0581  1.4264 -0.3891
32433SOL    HW2  702   7.741   1.472   9.407  0.4757 -2.1411  0.0568
32434SOL     OW  703   3.035   6.558   3.878 -0.0582  0.4198  0.1893
32434SOL    HW1  704   3.036   6.641   3.831 -0.6392 -0.3612 -1.2814
32434SOL    HW2  705   3.124   6.548   3.913 -0.0700  1.7729  0.6301
32435SOL     OW  706   9.519   0.819  10.721 -0.4640 -0.8198 -0.2065
32435SOL    HW1  707   9.516   0.734  10.765 -1.1151 -0.2006  0.9939
32435SOL    HW2  708   9.427   0.847  10.717 -0.1988  0.1399  0.0580
32436SOL     OW  709   5.958   4.130   7.400 -0.3851 -0.4478 -0.4707
32436SOL    HW1  710   5.969   4.040   7.370  2.8674 -0.1794 -0.3820
32436SOL    HW2  711   5.940   4.121   7.494 -0.8876 -1.0034 -0.6121
32437SOL     OW  712   5.354   3.450   9.339  0.2077  0.2155  0.0666
32437SOL    HW1  713   5.286   3.383   9.347  1.8820 -1.8049 -1.4315
32437SOL    HW2  714   5.377   3.450   9.246  0.8730  2.3283  0.1707
32438SOL     OW  715   0.828   3.780   5.022  0.4806  0.4446 -0.0264
32438SOL    HW1  716   0.775   3.766   4.944  1.4600  0.8875 -0.7941
32438SOL    HW2  717   0.789   3.857   5.064 -1.0422 -0.7527  0.8222
32439SOL     OW  718   4.831   1.443   0.701 -0.1784 -0.3218  0.7917
32439SOL    HW1  719   4.876   1.480   0.777  0.2690  0.7571  0.0222
32439SOL    HW2  720   4.741   1.471   0.710  0.3211  1.7817 -0.2321
32440SOL     OW  721   1.696   6.826   0.571  0.5817 -0.3549  0.2988
32440SOL    HW1  722   1.619   6.882   0.583 -0.1080 -1.2286  0.1405
32440SOL    HW2  723   1.740   6.862   0.494  0.3243  0.1515  0.3825
32441SOL     OW  724   0.066   7.616   4.089  0.2500 -0.8913 -0.6156
32441SOL    HW1  725   0.063   7.602   3.995 -0.1976  2.2730 -1.1693
32441SOL    HW2  726  -0.025   7.632   4.114  0.6134  0.4264 -0.0708
32442SOL     OW  727   2.346   9.082   0.205  0.8444  0.5057  0.6513
32442SOL    HW1  728   2.372   9.020   0.136  2.1821  0.1917  1.3966
32442SOL    HW2  729   2.263   9.048   0.238 -0.4652  1.3358 -1.5907
32443SOL     OW  730   9.701   0.102   2.696  0.3307 -0.0887  0.4467
32443SOL    HW1  731   9.613   0.115   2.658  0.1796  0.3409  0.9418
32443SOL    HW2  732   9.696   0.016   2.738  0.3911 -0.4139 -0.1960
32444SOL     OW  733   9.110   8.880   7.964  0.3619 -0.2126  0.0445
32444SOL    HW1  734   9.122   8.880   8.059  0.7470  0.2113  0.0014
32444SOL    HW2  735   9.049   8.953   7.948 -0.6614 -1.0456  0.0716
32445SOL     OW  736   2.667   0.579   2.230  0.2874 -0.3610  0.3486
32445SOL    HW1  737   2.604   0.508   2.217 -0.0530  0.1776 -1.0794
32445SOL    HW2  738   2.753   0.535   2.227  0.1113 -0.6454 -1.2215
32446SOL     OW  739   6.415   5.609   9.187 -0.3180 -0.0498  0.0827
32446SOL    HW1  740   6.378   5.597   9.099  2.6167  0.8807 -1.4094
32446SOL    HW2  741   6.448   5.523   9.210  1.2225  0.2174 -0.9540
32447SOL     OW  742   8.704   8.486   4.876  0.2684  0.5691 -0.0683
32447SOL    HW1  743   8.678   8.471   4.967  2.3949  1.0982  0.6986
32447SOL    HW2  744   8.646   8.430   4.825  0.4290 -1.4220  1.7844
32448SOL     OW  745  10.911  10.271   2.627 -0.5087  0.2197  0.2302
32448SOL    HW1  746  10.823  10.242   2.603 -0.7580  1.0420  0.1173
32448SOL    HW2  747  10.963  10.191   2.625 -1.5432 -0.5433  1.7285
32449SOL     OW  748   0.586   6.559  10.010 -0.4016  0.2201  0.4283
32449SOL    HW1  749   0.626   6.500  10.074 -0.9374 -1.3491 -0.6423
32449SOL    HW2  750   0.541   6.624  10.063  0.2694 -0.2645  1.6444
32450SOL     OW  751   9.285   3.618   1.866 -0.0993  0.5766 -0.5048
32450SOL    HW1  752   9.236   3.662   1.797  0.4805  0.5126 -0.9647
32450SOL    HW2  753   9.360   3.578   1.821 -0.6722 -0.9905 -0.1142
32451SOL     OW  754   9.676  10.191   4.443  0.0744  0.4130  0.1599
32451SOL    HW1  755   9.637  10.108   4.417 -0.8912  1.0153 -0.3669
32451SOL    HW2  756   9.688  10.184   4.537  1.4485 -0.9096 -0.0836
32452SOL     OW  757   7.488   3.989   8.352 -0.6239  0.3085 -0.1882
32452SOL    HW1  758   7.463   3.920   8.413  0.5582 -1.0740 -1.1979
32452SOL    HW2  759   7.583   3.984   8.347 -0.4626  2.2607 -0.0594
32453SOL     OW  760   4.493   0.452   4.907 -0.3983 -0.4688  0.6684
32453SOL    HW1  761   4.465   0.361   4.912 -1.5379 -0.0876  1.7434
32453SOL    HW2  762   4.411   0.502   4.900  0.2370  0.3733 -2.7528
32454SOL     OW  763  10.339   5.046  10.246 -0.3576  0.2809  0.3093
32454SOL    HW1  764  10.353   4.989  10.171 -0.2430 -0.7366  1.0730
32454SOL    HW2  765  10.250   5.080  10.234  0.0371  0.9594 -0.8030
32455SOL     OW  766  10.360   1.218   4.365  0.1215 -0.3447 -0.2233
32455SOL    HW1  767  10.446   1.178   4.375  0.3670  0.2242 -0.0166
32455SOL    HW2  768  10.319   1.169   4.293  0.9716 -0.0333 -0.9391
32456SOL     OW  769   0.245   7.097   3.060 -0.2112 -0.5490  0.2423
32456SOL    HW1  770   0.242   7.149   3.141 -0.9277 -1.7102  0.9879
32456SOL    HW2  771   0.215   7.010   3.086  3.4112 -2.1503 -0.4020
32457SOL     OW  772   4.618   1.465   9.505  0.2448  0.2677  0.2458
32457SOL    HW1  773   4.702   1.510   9.510  2.2479 -2.6533 -2.9885
32457SOL    HW2  774   4.560   1.528   9.462  0.7575  2.1877  2.1910
32458SOL     OW  775  10.432   6.751   2.705  0.0847 -0.2404  0.4706
32458SOL    HW1  776  10.414   6.675   2.650 -1.1247 -1.0957  1.9826
32458SOL    HW2  777  10.461   6.715   2.788  0.1725  0.9696  0.9968
32459SOL     OW  778   5.062   0.736   2.939  0.0485 -0.6341  0.0453
32459SOL    HW1  779   5.110   0.774   2.865 -0.5961  0.2934  0.0860
32459SOL    HW2  780   5.124   0.741   3.012  0.0749  0.1068 -0.0154
32460SOL     OW  781   6.842   3.803   4.774  0.0434 -0.1324 -0.2676
32460SOL    HW1  782   6.755   3.786   4.737  0.8811 -2.4210 -1.3702
32460SOL    HW2  783   6.844   3.898   4.789 -2.7735 -0.0774  0.2162
32461SOL     OW  784   4.032   9.239   9.120  0.0404 -0.1352  0.3901
32461SOL    HW1  785   4.027   9.257   9.214 -0.8868 -1.1429  0.5445
32461SOL    HW2  786   3.961   9.290   9.081 -0.3049 -0.6250  0.3787
32462SOL     OW  787   7.790   1.331   4.784 -0.4591  0.7369 -0.2943
32462SOL    HW1  788   7.741   1.413   4.788 -0.3281  0.7735  1.6293
32462SOL    HW2  789   7.871   1.350   4.832 -0.7687 -0.7150  0.8696
32463SOL     OW  790   5.061   4.169   4.190 -0.0554 -0.1359  0.1158
32463SOL    HW1  791   5.149   4.159   4.154 -0.9904 -2.4134 -1.8264
32463SOL    HW2  792   5.025   4.245   4.144  0.8315  0.7840  0.8924
32464SOL     OW  793   4.610   0.861   7.349 -0.0717 -0.0054  0.5167
32464SOL    HW1  794   4.618   0.810   7.269 -1.1240 -0.6536  0.8095
32464SOL    HW2  795   4.648   0.806   7.418  0.8387  0.5530  0.4811
32465SOL     OW  796   9.706   8.359   5.648  0.3143 -0.4464  0.0360
32465SOL    HW1  797   9.639   8.395   5.706 -0.8002 -2.3272  0.0024
32465SOL    HW2  798   9.763   8.433   5.627 -1.6261  1.1704  0.2351
32466SOL     OW  799   9.615   9.262   5.743  0.2978 -0.5553 -0.0389
32466SOL    HW1  800   9.596   9.303   5.658  0.3755  1.7129  0.9802
32466SOL    HW2  801   9.531   9.260   5.788  0.8598  1.9185  1.2934
32467SOL     OW  802   3.598   7.026   3.854 -0.3631 -0.2830  0.2631
32467SOL    HW1  803   3.690   6.999   3.848 -0.8331 -1.6795 -1.7158
32467SOL    HW2  804   3.585   7.082   3.777 -0.9425  0.7589  1.0866
32468SOL     OW  805   2.719   8.333   3.058 -0.1805  0.4300  0.2671
32468SOL    HW1  806   2.714   8.261   2.995 -1.3130 -0.6557  1.5409
32468SOL    HW2  807   2.768   8.401   3.012  1.1120 -1.1963 -0.9282
32469SOL     OW  808   9.309   3.338   8.451 -0.0982 -0.0486  0.5935
32469SOL    HW1  809   9.307   3.406   8.519  2.1567  1.1387 -0.4255
32469SOL    HW2  810   9.376   3.276   8.480 -0.3256 -0.4484  0.2760
32470SOL     OW  811   9.388   6.548   1.539 -0.0819 -0.0777  0.1450
32470SOL    HW1  812   9.464   6.602   1.562  0.8442 -0.4911 -1.7218
32470SOL    HW2  813   9.317   6.610   1.526  0.6557  0.5978 -0.7802
32471SOL     OW  814   8.614  10.739   6.053  0.1923 -0.2749 -0.4599
32471SOL    HW1  815   8.654  10.821   6.025 -1.3685  0.3542 -0.9408
32471SOL    HW2  816   8.571  10.705   5.975 -1.9497  0.1526  0.4539
32472SOL     OW  817   9.724   9.364   5.026 -0.0448  0.3262  0.3820
32472SOL    HW1  818   9.774   9.398   4.952  1.0403 -0.2070  0.8443
32472SOL    HW2  819   9.789   9.355   5.096 -1.1521  1.4016  1.6032
32473SOL     OW  820   4.359   5.567   2.090 -0.5909 -0.2539  0.0975
32473SOL    HW1  821   4.429   5.536   2.032 -1.2745 -4.8758  1.3316
32473SOL    HW2  822   4.398   5.566   2.177 -0.7686  2.6096  0.3200
32474SOL     OW  823   3.084   7.800   6.751  0.1719  0.2168 -0.5363
32474SOL    HW1  824   3.098   7.708   6.729 -0.4069  0.0754 -0.3452
32474SOL    HW2  825   2.993   7.803   6.783  0.6786  0.5637  0.9703
32475SOL     OW  826   0.589   1.591   3.307  0.5232  0.2904 -0.5641
32475SOL    HW1  827   0.578   1.647   3.230  0.6844 -0.4965 -1.1700
32475SOL    HW2  828   0.680   1.603   3.333  0.9572 -0.7562 -1.5512
32476SOL     OW  829   9.438   3.202   2.223  0.2204  0.1248  0.1700
32476SOL    HW1  830   9.517   3.150   2.239  0.7794  0.5784 -1.0014
32476SOL    HW2  831   9.470   3.284   2.186 -0.7466  0.7321  0.6286
32477SOL     OW  832   8.974   1.841   0.602  0.4392  0.1935 -0.1118
32477SOL    HW1  833   9.031   1.835   0.525  0.6478  1.5472 -0.0807
32477SOL    HW2  834   9.015   1.906   0.658  1.7745 -2.6069  2.4755
32478SOL     OW  835  10.583   9.096   9.685 -0.1441  0.5360 -0.0606
32478SOL    HW1  836  10.641   9.146   9.628 -0.9029  0.6404 -0.7759
32478SOL    HW2  837  10.636   9.022   9.716  0.1867  0.2619 -1.2238
32479SOL     OW  838   7.280   6.217   2.911  0.4224  0.4436  0.8437
32479SOL    HW1  839   7.215   6.282   2.882  0.5692  0.6071  0.8740
32479SOL    HW2  840   7.309   6.176   2.830 -0.7869 -0.6750  0.9464
32480SOL     OW  841   1.394   1.135   4.781  0.4588  0.2407  0.3230
32480SOL    HW1  842   1.398   1.230   4.767 -0.6471  0.3400  0.5845
32480SOL    HW2  843   1.397   1.125   4.876 -3.3400  0.3293  0.6281
32481SOL     OW  844  10.859   8.314   4.362  0.0394 -0.2701  0.5306
32481SOL    HW1  845  10.853   8.403   4.396 -1.3330  0.8830 -2.3115
32481SOL    HW2  846  10.952   8.296   4.357  0.5026  2.0717 -1.1078
32482SOL     OW  847   7.922   9.764   9.316 -0.5986  0.7796 -0.7509
32482SOL    HW1  848   7.860   9.720   9.373 -0.3626 -0.1510 -1.2016
32482SOL    HW2  849   7.889   9.854   9.310 -1.7468  0.3738 -0.7565
32483SOL     OW  850   5.409   8.546  10.209  0.1785  0.2507  0.1762
32483SOL    HW1  851   5.422   8.461  10.252 -0.4201  1.2477  2.5056
32483SOL    HW2  852   5.498   8.575  10.186  0.5162 -0.3902  0.6288
32484SOL     OW  853   1.118   1.304   7.132  0.6127 -0.4642  0.2260
32484SOL    HW1  854   1.121   1.279   7.039  1.7035  1.0379 -0.1841
32484SOL    HW2  855   1.033   1.345   7.143  1.3293  1.3859 -0.7209
32485SOL     OW  856   9.624   7.701   0.847 -0.2221 -0.4052  0.0728
32485SOL    HW1  857   9.679   7.623   0.859 -0.8768 -0.9912 -0.6645
32485SOL    HW2  858   9.611   7.706   0.753  1.4330  1.7409 -0.1161
32486SOL     OW  859   0.569   4.097  10.715 -0.0598  0.7543  0.3399
32486SOL    HW1  860   0.477   4.109  10.738 -0.5752  1.2015 -1.6769
32486SOL    HW2  861   0.602   4.186  10.704  0.5617  0.5891  0.8398
32487SOL     OW  862   4.295   2.282   7.924  0.5097 -0.3671 -0.3336
32487SOL    HW1  863   4.386   2.272   7.952  0.1413 -0.5974  0.8330
32487SOL    HW2  864   4.244   2.271   8.004 -0.5934 -0.9695 -1.0980
32488SOL     OW  865   8.598   1.666   2.693  0.2198 -0.4718  0.2087
32488SOL    HW1  866   8.651   1.586   2.693  0.0373 -0.6055 -0.6478
32488SOL    HW2  867   8.540   1.656   2.769  1.4066 -0.3204  1.1594
32489SOL     OW  868   9.292  10.545   0.329 -0.1651  0.4255 -0.5440
32489SOL    HW1  869   9.304  10.554   0.424 -0.2686 -0.6039 -0.4151
32489SOL    HW2  870   9.279  10.451   0.316  0.3014  0.4939 -1.6319
32490SOL     OW  871   8.561  10.063   2.774 -0.1324  0.2439 -0.1409
32490SOL    HW1  872   8.602  10.045   2.690  0.8943  0.4181  0.3058
32490SOL    HW2  873   8.545  10.157   2.774  0.3168  0.3207  0.0537
32491SOL     OW  874   2.964  10.351   2.105 -0.3922 -0.4391 -0.9615
32491SOL    HW1  875   2.954  10.260   2.132 -1.1726 -0.5263 -1.5198
32491SOL    HW2  876   2.980  10.398   2.187  0.1566 -1.0932 -0.6868
32492SOL     OW  877   7.799   7.132  10.230  0.2292  0.1019  0.1828
32492SOL    HW1  878   7.784   7.220  10.194 -1.3014  0.0368  0.5832
32492SOL    HW2  879   7.890   7.113  10.210 -0.0935  0.7564 -2.1407
32493SOL     OW  880   9.830   1.028   2.061 -0.3419  0.4912  0.0006
32493SOL    HW1  881   9.880   0.984   1.993 -1.3459 -0.8664  0.1046
32493SOL    HW2  882   9.896   1.061   2.123  0.4339 -1.8317  0.4912
32494SOL     OW  883   1.886   9.682   2.826 -0.0721 -0.1807 -0.1166
32494SOL    HW1  884   1.840   9.679   2.910 -1.3324  0.0810 -0.7806
32494SOL    HW2  885   1.849   9.758   2.781  0.2093 -0.6273 -1.1191
32495SOL     OW  886   5.202   8.122   5.942 -0.5750 -0.5566  0.6260
32495SOL    HW1  887   5.110   8.105   5.961 -1.3958  0.8798 -1.6518
32495SOL    HW2  888   5.232   8.045   5.895 -1.0695 -0.4128  0.0623
32496SOL     OW  889   8.082   4.799   7.612 -0.5409  0.4549 -0.1982
32496SOL    HW1  890   8.129   4.796   7.696 -1.2489 -0.2455  0.1857
32496SOL    HW2  891   8.038   4.714   7.606  0.0877  0.1883 -1.6286
32497SOL     OW  892   1.490   3.886   8.898  0.5045 -0.1518  0.2334
32497SOL    HW1  893   1.465   3.794   8.910 -3.2334  0.9027  2.1467
32497SOL    HW2  894   1.490   3.922   8.987  1.5717  1.7913 -0.5129
32498SOL     OW  895   3.903   4.768   2.459 -0.7958  0.2592  0.2047
32498SOL    HW1  896   3.907   4.821   2.539  0.8128  0.3668  0.0702
32498SOL    HW2  897   3.920   4.679   2.488 -0.8440  0.2051  0.0639
32499SOL     OW  898   7.652   2.469   4.163 -0.0797 -0.3221  0.2679
32499SOL    HW1  899   7.651   2.423   4.247 -0.6101  0.1947  0.5570
32499SOL    HW2  900   7.560   2.468   4.134  0.0856 -0.4214 -0.2643
32500SOL     OW  901   4.803   8.510  10.861 -0.5259 -0.6302 -0.3145
32500SOL    HW1  902   4.804   8.491  10.955  2.2278 -0.5210 -0.2303
32500SOL    HW2  903   4.767   8.431  10.820 -1.9018 -0.6140  0.8055
32501SOL     OW  904   5.217   0.818   7.530  0.3829  0.1703 -0.0845
32501SOL    HW1  905   5.279   0.841   7.600  1.0773  0.0135 -0.6373
32501SOL    HW2  906   5.178   0.902   7.504  0.7375  0.3369 -0.0846
32502SOL     OW  907  10.410   1.511   7.312  0.7349  0.3705  0.4212
32502SOL    HW1  908  10.324   1.538   7.279  0.7428  0.4373  0.4548
32502SOL    HW2  909  10.454   1.593   7.333  1.0550  0.3644 -0.2137
32503SOL     OW  910   8.067   1.263   1.029  0.1401  0.8315 -0.0023
32503SOL    HW1  911   8.135   1.196   1.029 -0.9198 -0.3170 -1.2847
32503SOL    HW2  912   8.090   1.321   0.956  0.1557  0.8951  0.0529
32504SOL     OW  913   2.777  10.178   0.956  0.0730  0.3581 -0.0885
32504SOL    HW1  914   2.872  10.170   0.969 -0.1354  0.6365  1.7528
32504SOL    HW2  915   2.754  10.100   0.904  1.2025 -0.0549 -0.0032
32505SOL     OW  916   5.880   4.217   8.032  0.1798  0.0273 -0.2456
32505SOL    HW1  917   5.817   4.236   7.963  0.4774 -0.7176 -0.7321
32505SOL    HW2  918   5.901   4.302   8.070 -0.7896  0.3251 -0.3605
32506SOL     OW  919   5.064   8.360   9.639 -0.4301 -0.8371 -0.4577
32506SOL    HW1  920   4.990   8.373   9.579 -1.1877 -0.9414  0.4338
32506SOL    HW2  921   5.087   8.449   9.668 -1.2673 -0.9105  0.4947
32507SOL     OW  922   0.438   1.281   3.699 -0.3668 -0.3211 -0.3382
32507SOL    HW1  923   0.508   1.304   3.759 -0.0223 -0.7037 -0.5877
32507SOL    HW2  924   0.387   1.361   3.688 -0.7712 -0.3828  0.8997
32508SOL     OW  925   5.812   0.644   8.280 -0.3435  0.5381 -0.4204
32508SOL    HW1  926   5.825   0.668   8.371  1.8030 -0.6222 -0.3346
32508SOL    HW2  927   5.763   0.562   8.283 -0.9261  0.8812 -0.3676
32509SOL     OW  928   4.315   3.087   8.374 -0.0700  0.1557 -0.3055
32509SOL    HW1  929   4.229   3.046   8.369  0.8274 -1.7539 -1.3501
32509SOL    HW2  930   4.297   3.180   8.388 -2.2331 -0.4474  1.3554
32510SOL     OW  931   0.076   6.672   6.774 -0.1673  0.3018  0.5134
32510SOL    HW1  932   0.080   6.706   6.864 -2.4998 -1.2654  1.2966
32510SOL    HW2  933   0.011   6.727   6.730  0.3548  0.5313  0.0173
32511SOL     OW  934   1.480   0.619   1.341  0.4857 -0.8536  0.7504
32511SOL    HW1  935   1.391   0.644   1.363  0.6796  0.1951  0.3926
32511SOL    HW2  936   1.475   0.582   1.253  0.3807 -0.9841  0.8107
32512SOL     OW  937  10.198  10.284   8.805  0.0922 -0.5656 -0.1865
32512SOL    HW1  938  10.212  10.360   8.748 -0.7340 -0.1893  0.0872
32512SOL    HW2  939  10.116  10.303   8.850 -0.9282 -2.3117 -1.2177
32513SOL     OW  940   1.751   7.444   5.730  0.1933 -0.1365 -0.4988
32513SOL    HW1  941   1.779   7.446   5.638 -1.4359  1.4714 -1.0057
32513SOL    HW2  942   1.766   7.353   5.757  1.9455 -0.3331 -1.9317
32514SOL     OW  943   8.562   5.362   6.894  0.7226  0.0069 -0.4242
32514SOL    HW1  944   8.641   5.381   6.944  0.6639  0.3193 -0.4518
32514SOL    HW2  945   8.573   5.410   6.812  0.7986 -0.4670 -0.6970
32515SOL     OW  946   0.008   9.949   5.341  0.5689 -0.2885 -0.0600
32515SOL    HW1  947  -0.056  10.018   5.361 -1.2821 -1.8699 -0.2182
32515SOL    HW2  948   0.020   9.954   5.246  1.7830  0.8668  0.1152
32516SOL     OW  949  10.096   7.210   3.081 -0.4819 -0.5501  0.0872
32516SOL    HW1  950  10.146   7.230   3.160 -0.9992  1.5952 -0.0694
32516SOL    HW2  951  10.006   7.233   3.102 -0.4669  1.0863 -1.4019
32517SOL     OW  952   3.034   1.432   9.861  0.2599  0.4205 -0.0035
32517SOL    HW1  953   3.026   1.393   9.949  0.0896  0.5690  0.0489
32517SOL    HW2  954   3.083   1.367   9.811 -1.8346 -0.8650 -0.5201
32518SOL     OW  955   9.477   7.102   7.932  0.1031 -0.5314 -0.1419
32518SOL    HW1  956   9.482   7.053   7.849  0.3555  1.0949 -1.1247
32518SOL    HW2  957   9.402   7.063   7.978 -0.7821 -0.7058 -1.6581
32519SOL     OW  958   4.695   0.154   2.926  0.1686  0.3716  0.6290
32519SOL    HW1  959   4.608   0.187   2.952 -1.5838 -0.2130 -3.6911
32519SOL    HW2  960   4.733   0.226   2.875  0.3936 -0.8154 -0.9406
32520SOL     OW  961   4.790   1.364   7.711 -0.2782  0.2378  0.1010
32520SOL    HW1  962   4.868   1.317   7.740 -0.0383  0.8336  0.4349
32520SOL    HW2  963   4.823   1.431   7.652 -0.4370  1.1015  0.9758
32521SOL     OW  964   8.768   5.916   9.505 -0.3985 -0.1858 -0.2674
32521SOL    HW1  965   8.738   6.007   9.507 -0.5736 -0.2188 -1.0964
32521SOL    HW2  966   8.688   5.865   9.488 -0.4995 -0.6033  1.3167
32522SOL     OW  967   7.922   0.145   6.633  0.4516 -0.4298 -0.6699
32522SOL    HW1  968   7.846   0.158   6.576  0.3210 -0.5617 -0.5268
32522SOL    HW2  969   7.944   0.052   6.622 -0.8045 -0.9782  0.9968
32523SOL     OW  970   2.748   6.888   0.803 -0.7919  0.6281  0.4492
32523SOL    HW1  971   2.694   6.943   0.859 -0.3668  0.1957  1.3156
32523SOL    HW2  972   2.771   6.943   0.729  1.0261  2.2177  2.0950
32524SOL     OW  973   6.781   2.874   6.425  0.3113  0.3916 -0.5247
32524SOL    HW1  974   6.869   2.897   6.396  1.6963 -3.6158 -0.1274
32524SOL    HW2  975   6.726   2.883   6.347  2.2463 -2.0580 -2.3402
32525SOL     OW  976   2.733   9.437   0.165  0.4534  0.9817  0.3692
32525SOL    HW1  977   2.653   9.487   0.149 -0.6755 -1.0548 -0.7831
32525SOL    HW2  978   2.703   9.350   0.188  2.2619 -0.6228 -2.6664
32526SOL     OW  979   9.672   5.789   5.060  0.8574 -1.2144 -0.6744
32526SOL    HW1  980   9.618   5.717   5.027 -2.1419  0.9363 -0.8261
32526SOL    HW2  981   9.746   5.793   4.999 -0.2187 -2.5619 -2.1493
32527SOL     OW  982   9.699   2.006   3.285 -0.5155  0.5179  0.0790
32527SOL    HW1  983   9.637   2.064   3.329 -1.1827  0.5912 -0.9042
32527SOL    HW2  984   9.691   1.922   3.331  1.5375  1.5269  2.4809
32528SOL     OW  985   3.457   8.481   2.546 -0.6059  0.2522  0.1505
32528SOL    HW1  986   3.469   8.553   2.607 -2.0219  0.1865  0.5462
32528SOL    HW2  987   3.430   8.523   2.464  0.2617  0.2669 -0.1417
32529SOL     OW  988   2.850   8.578   0.220 -0.2493  0.5576  0.7426
32529SOL    HW1  989   2.862   8.617   0.133  0.1813  1.6799  1.2943
32529SOL    HW2  990   2.815   8.648   0.274  1.9635  0.6722  2.1455
32530SOL     OW  991   2.641   7.527   2.373  0.3003 -0.2254 -0.2527
32530SOL    HW1  992   2.714   7.475   2.406  1.3389 -0.4988 -2.7916
32530SOL    HW2  993   2.616   7.484   2.291 -1.0642  1.3138 -0.6974
32531SOL     OW  994   9.317   7.466   3.683  0.1200  0.4141  0.1683
32531SOL    HW1  995   9.367   7.416   3.746 -1.7776  0.8277  2.1351
32531SOL    HW2  996   9.260   7.402   3.641  0.1015  0.3967  0.2189
32532SOL     OW  997   0.236   1.344   3.156 -0.0763  0.0713  0.0737
32532SOL    HW1  998   0.142   1.332   3.144 -0.0102 -2.2574  1.3592
32532SOL    HW2  999   0.270   1.353   3.067 -1.4995  1.2153 -0.3962
32533SOL     OW 1000  10.849   6.506   4.191  0.0632 -0.1583 -0.1520
32533SOL    HW1 1001  10.943   6.501   4.205  0.3141  0.2272 -1.5169
32533SOL    HW2 1002  10.829   6.599   4.189 -0.5594 -0.2387  1.3018
32534SOL     OW 1003   7.304   7.119   0.935 -0.2166 -0.8626  0.2868
32534SOL    HW1 1004   7.367   7.110   1.007  0.3066 -0.5420 -0.1358
32534SOL    HW2 1005   7.237   7.178   0.970 -1.1514 -2.4535  1.3282
32535SOL     OW 1006   9.956   6.454   7.530  0.1075 -0.0805 -0.1192
32535SOL    HW1 1007   9.915   6.491   7.608  1.7360  0.8133  0.3579
32535SOL    HW2 1008   9.977   6.530   7.476  0.7820 -0.5333 -0.5079
32536SOL     OW 1009   9.464   0.657  10.249 -0.2687 -0.0417  0.0255
32536SOL    HW1 1010   9.454   0.666  10.344 -0.3849  0.5429 -0.0389
32536SOL    HW2 1011   9.444   0.744  10.214  0.0895 -0.1689 -0.5129
32537SOL     OW 1012   5.359  10.842   8.489  0.0486  0.3074 -0.3095
32537SOL    HW1 1013   5.293  10.809   8.551  0.3367 -0.6440 -0.4960
32537SOL    HW2 1014   5.348  10.937   8.491 -0.0517  0.2994  1.1076
32538SOL     OW 1015  10.773   3.364   5.780  0.2285  0.0875 -0.0714
32538SOL    HW1 1016  10.714   3.438   5.789 -1.3116 -1.2582  2.0015
32538SOL    HW2 1017  10.860   3.402   5.779 -0.5452  1.9654  0.2341
32539SOL     OW 1018   3.199   3.521   8.137  0.1345  0.2449  0.0202
32539SOL    HW1 1019   3.217   3.597   8.192  1.0123  0.7233 -0.9088
32539SOL    HW2 1020   3.276   3.465   8.148 -0.5290 -0.5582  0.7420
32540SOL     OW 1021   5.262   8.150   1.712  0.2215  0.0452  0.6008
32540SOL    HW1 1022   5.355   8.169   1.713  0.1474  0.4300  1.2990
32540SOL    HW2 1023   5.232   8.173   1.801 -0.9115  1.8097 -0.1786
32541SOL     OW 1024   1.836   1.282   2.872  0.5238 -0.3396  0.3469
32541SOL    HW1 1025   1.841   1.373   2.842  1.4921 -0.9472 -1.5427
32541SOL    HW2 1026   1.743   1.262   2.874  0.2020  1.1022  2.2719
32542SOL     OW 1027   8.241  10.737   5.153 -0.1399  0.3305  0.0145
32542SOL    HW1 1028   8.233  10.741   5.248 -1.7355 -3.0826  0.1845
32542SOL    HW2 1029   8.300  10.663   5.138  0.9663  1.4922 -1.6946
32543SOL     OW 1030   4.313   1.795   9.023 -0.3661 -0.1407  0.1019
32543SOL    HW1 1031   4.276   1.783   9.110 -0.0308 -0.4812  0.2019
32543SOL    HW2 1032   4.241   1.778   8.963  0.3157 -4.3745  0.1304
32544SOL     OW 1033   0.202   7.454   0.052  0.3582  0.1505  0.5428
32544SOL    HW1 1034   0.174   7.520  -0.011 -0.7530  0.7612  1.6330
32544SOL    HW2 1035   0.240   7.384  -0.002  0.9093  1.3353 -0.6764
32545SOL     OW 1036   3.282   0.534   6.348 -0.2467  0.1156 -0.1055
32545SOL    HW1 1037   3.345   0.524   6.419  0.3577 -0.7168 -0.7399
32545SOL    HW2 1038   3.216   0.593   6.383 -0.2201 -0.6531  1.3293
32546SOL     OW 1039   2.661   8.259   9.603 -0.2661 -0.3805  0.1162
32546SOL    HW1 1040   2.678   8.351   9.583  0.4691 -0.6136 -0.3739
32546SOL    HW2 1041   2.741   8.228   9.644 -0.8685 -0.5560  1.1996
32547SOL     OW 1042   4.659   4.529   6.246 -0.5407  0.3031  0.0780
32547SOL    HW1 1043   4.687   4.453   6.197 -0.2997  0.2140  0.3477
32547SOL    HW2 1044   4.570   4.509   6.274 -0.1363 -0.2999  0.9755
32548SOL     OW 1045   9.462   4.249   1.991 -0.6651 -0.1862  0.3845
32548SOL    HW1 1046   9.470   4.156   2.010 -3.1706 -0.4978  0.2945
32548SOL    HW2 1047   9.404   4.282   2.060  0.0230  1.2804  0.2944
32549SOL     OW 1048   6.174   6.887   5.912 -0.3675 -0.2167  0.3638
32549SOL    HW1 1049   6.219   6.968   5.890  1.3428 -1.3786 -0.6876
32549SOL    HW2 1050   6.149   6.897   6.004 -1.8548  2.1867 -0.2299
32550SOL     OW 1051   6.216   6.967   4.468  0.2577 -0.1814 -0.2138
32550SOL    HW1 1052   6.279   6.923   4.526 -0.4384 -1.7790 -0.6258
32550SOL    HW2 1053   6.157   7.014   4.528  1.5539  1.0150  0.1910
32551SOL     OW 1054   9.984   2.118  10.139  0.1161  0.4525  0.0875
32551SOL    HW1 1055   9.959   2.204  10.172 -0.8907 -0.1551  0.9930
32551SOL    HW2 1056  10.056   2.090  10.196 -0.3834  0.1899  0.6039
32552SOL     OW 1057   8.999   0.499   4.547 -0.3591  0.1343  0.2009
32552SOL    HW1 1058   8.914   0.537   4.565 -0.2696  0.5443 -0.2066
32552SOL    HW2 1059   9.056   0.574   4.531 -0.7154 -0.1415 -3.0541
32553SOL     OW 1060   0.506   2.091  10.411  0.3181 -0.1481 -0.4202
32553SOL    HW1 1061   0.525   2.082  10.505 -0.4129  2.6778  0.1146
32553SOL    HW2 1062   0.410   2.095  10.407  0.3818  1.0101 -1.0900
32554SOL     OW 1063   3.010   5.600   7.051  0.7032  0.3886  0.0771
32554SOL    HW1 1064   2.916   5.584   7.053  0.5255  1.3965 -0.0200
32554SOL    HW2 1065   3.021   5.673   6.991  1.6665 -0.4270 -0.7823
32555SOL     OW 1066   9.124   5.480   4.656 -0.0421 -0.1769 -0.3939
32555SOL    HW1 1067   9.088   5.568   4.661  1.6728  0.4803  1.6755
32555SOL    HW2 1068   9.162   5.475   4.568  1.4889  1.8856  0.0708
32556SOL     OW 1069   8.721   7.497   0.569 -0.2989 -0.4533 -0.2736
32556SOL    HW1 1070   8.748   7.513   0.659 -0.8544 -0.7130 -0.0534
32556SOL    HW2 1071   8.692   7.583   0.538 -2.8359 -0.8313  0.7589
32557SOL     OW 1072   2.069   3.779   3.450  0.2889  0.1834 -0.4390
32557SOL    HW1 1073   2.094   3.687   3.438  0.6640  0.3808 -1.3319
32557SOL    HW2 1074   1.974   3.777   3.455  0.3431 -0.3517  0.5631
32558SOL     OW 1075   6.329   2.979   4.229 -0.5682 -0.0152  0.3979
32558SOL    HW1 1076   6.274   2.999   4.305 -0.9896 -0.4501  0.2122
32558SOL    HW2 1077   6.332   2.884   4.225 -0.5602  0.0020 -0.1376
32559SOL     OW 1078   2.306   6.547  10.665 -0.0910  0.0961 -0.7174
32559SOL    HW1 1079   2.321   6.467  10.716 -2.8751  0.7546  1.3770
32559SOL    HW2 1080   2.259   6.518  10.588 -0.4683 -0.3704 -0.3173
32560SOL     OW 1081   5.630   6.146   9.867  0.2815  0.4461  0.5301
32560SOL    HW1 1082   5.714   6.112   9.837  0.0248  1.7253 -1.9610
32560SOL    HW2 1083   5.565   6.095   9.818 -0.2388  1.5869 -0.0077
32561SOL     OW 1084   1.884   2.853   9.874  0.1914  0.3026 -0.2579
32561SOL    HW1 1085   1.963   2.802   9.858 -0.6649 -1.2058  0.1367
32561SOL    HW2 1086   1.916   2.936   9.911  1.6676  0.4445 -1.7116
32562SOL     OW 1087   1.012   4.566   4.909 -0.3264 -0.1497 -0.2907
32562SOL    HW1 1088   0.949   4.563   4.837 -0.9185  0.8695  0.1748
32562SOL    HW2 1089   1.047   4.655   4.907  0.3967 -0.4162  0.0644
32563SOL     OW 1090   6.383   0.004   8.108  0.8731 -0.4516  0.1750
32563SOL    HW1 1091   6.462   0.031   8.155  0.5606 -1.1761  1.1399
32563SOL    HW2 1092   6.416  -0.041   8.030  1.4675 -1.9006  1.2106
32564SOL     OW 1093   6.692   0.504   1.144 -0.1477 -0.0415  0.1026
32564SOL    HW1 1094   6.621   0.563   1.170  0.8088  0.0010  3.0232
32564SOL    HW2 1095   6.659   0.417   1.162 -0.8422 -0.3763 -2.3855
32565SOL     OW 1096   6.357   6.609   4.906  0.1068 -0.4819  0.1236
32565SOL    HW1 1097   6.446   6.584   4.881 -0.2460 -0.7164 -0.9654
32565SOL    HW2 1098   6.304   6.589   4.829 -1.0089 -0.9669  0.9876
32566SOL     OW 1099   2.096   6.953   9.124 -0.1512  0.3405  0.0693
32566SOL    HW1 1100   2.042   6.909   9.189 -0.9355  0.2916 -0.5990
32566SOL    HW2 1101   2.125   7.033   9.168 -0.6377  0.2893  0.4960
32567SOL     OW 1102   2.652   5.552   9.602 -0.3146 -0.4604 -0.1823
32567SOL    HW1 1103   2.638   5.604   9.682  0.5136 -0.3732 -0.0912
32567SOL    HW2 1104   2.712   5.605   9.549 -1.5736 -0.0791 -1.2850
32568SOL     OW 1105   4.247   5.149   2.719 -0.1642 -0.2357 -0.3461
32568SOL    HW1 1106   4.185   5.078   2.702 -2.7441  1.1504  2.2379
32568SOL    HW2 1107   4.309   5.111   2.781 -0.7398 -0.6240  0.0085
32569SOL     OW 1108   2.816   0.822   7.405  0.2722  0.2091 -0.0347
32569SOL    HW1 1109   2.835   0.877   7.481  0.4568  0.2236 -0.0902
32569SOL    HW2 1110   2.895   0.828   7.351  0.0175  0.4628 -0.3860
32570SOL     OW 1111  10.744   0.528   3.204 -0.2743 -0.3709 -0.1332
32570SOL    HW1 1112  10.811   0.594   3.223 -0.0184 -1.0781  1.5753
32570SOL    HW2 1113  10.679   0.538   3.273 -1.4822 -0.3538 -1.2216
32571SOL     OW 1114   0.146   4.595   9.146  0.1739  0.1928 -0.4946
32571SOL    HW1 1115   0.092   4.561   9.217  0.7006 -1.8134 -1.0034
32571SOL    HW2 1116   0.168   4.684   9.173  0.0427 -0.3834  1.6792
32572SOL     OW 1117   2.929   8.247   6.136  0.1130  0.3974 -0.7685
32572SOL    HW1 1118   2.847   8.218   6.177  0.5623 -0.4116 -0.4129
32572SOL    HW2 1119   2.997   8.197   6.181  0.7938  0.9583 -1.1548
32573SOL     OW 1120   7.407   6.075   4.894 -0.2674 -0.1228 -0.0583
32573SOL    HW1 1121   7.430   6.130   4.970 -1.3211  1.3149 -0.7358
32573SOL    HW2 1122   7.359   6.002   4.931  0.5033 -0.2251  0.7970
32574SOL     OW 1123   7.809   6.214   7.718 -0.6000  0.2216  0.2532
32574SOL    HW1 1124   7.756   6.135   7.711  0.0660 -0.1984 -0.1649
32574SOL    HW2 1125   7.880   6.201   7.655 -0.7258  1.3484 -0.1526
32575SOL     OW 1126   9.110   7.098   4.533  0.8069 -0.1152 -0.1424
32575SOL    HW1 1127   9.157   7.180   4.516  0.5436  0.0128 -0.2621
32575SOL    HW2 1128   9.090   7.101   4.627  1.9812 -0.6737  0.1508
32576SOL     OW 1129   1.896   6.947   2.603  0.4057  0.0271 -0.2915
32576SOL    HW1 1130   1.803   6.945   2.627  0.8316 -1.7204  1.4001
32576SOL    HW2 1131   1.896   6.930   2.508 -0.9900  0.4782 -0.4030
32577SOL     OW 1132   2.757   2.544   3.111  0.4967  0.1369 -0.0353
32577SOL    HW1 1133   2.697   2.608   3.150 -1.6664 -1.4480 -0.6384
32577SOL    HW2 1134   2.831   2.597   3.080 -0.1201  2.0386  1.5596
32578SOL     OW 1135   6.569   1.246   5.128 -0.3080  0.7652  1.1634
32578SOL    HW1 1136   6.484   1.220   5.092  0.1678  3.1031 -2.1024
32578SOL    HW2 1137   6.553   1.330   5.170  0.0234  0.0924  2.7113
32579SOL     OW 1138   8.117   5.006   9.701 -0.0495  1.3047 -0.0088
32579SOL    HW1 1139   8.045   5.066   9.684  0.4404  2.6104  2.1245
32579SOL    HW2 1140   8.076   4.928   9.737 -0.4476  1.7454  0.4996
32580SOL     OW 1141   6.932   3.816   5.331  0.5504 -0.6955  0.1293
32580SOL    HW1 1142   6.950   3.909   5.321 -0.0591 -0.2360  2.7043
32580SOL    HW2 1143   6.875   3.795   5.257  0.8038  0.9275 -0.5740
32581SOL     OW 1144   2.713   2.725   5.866  0.1768  0.6115 -0.3194
32581SOL    HW1 1145   2.804   2.720   5.836  0.2391  2.6515 -0.6093
32581SOL    HW2 1146   2.669   2.654   5.820  1.4833 -0.0219 -0.6643
32582SOL     OW 1147   8.192   0.257   6.638  0.0225 -0.0823 -0.1406
32582SOL    HW1 1148   8.134   0.186   6.665  0.9266 -1.0129 -0.6412
32582SOL    HW2 1149   8.132   0.328   6.612 -0.8841 -0.0674  1.8245
32583SOL     OW 1150  10.289   2.033   7.358  0.5142 -0.4483 -0.4286
32583SOL    HW1 1151  10.201   1.998   7.375 -0.1996  0.9282 -1.1078
32583SOL    HW2 1152  10.282   2.075   7.272  1.7230  0.0622 -0.2993
32584SOL     OW 1153   9.760   2.193   9.227 -0.0236 -0.2957 -0.3624
32584SOL    HW1 1154   9.814   2.148   9.162  1.6438  1.0048  0.0766
32584SOL    HW2 1155   9.806   2.180   9.310 -0.5085  0.6537  0.0656
32585SOL     OW 1156  10.247   4.706   2.282 -0.9195  0.1860 -0.0845
32585SOL    HW1 1157  10.184   4.670   2.219  1.5825 -4.4622 -0.3351
32585SOL    HW2 1158  10.321   4.733   2.228 -0.2125 -0.3425  0.6131
32586SOL     OW 1159   1.950   6.449   3.659 -0.3121 -0.6345  0.5229
32586SOL    HW1 1160   1.981   6.359   3.669  0.3321 -0.4367  0.3905
32586SOL    HW2 1161   2.027   6.503   3.680 -0.7762 -0.1122  0.8899
32587SOL     OW 1162   5.369   9.320   9.731  0.0705 -0.1364 -0.0601
32587SOL    HW1 1163   5.352   9.232   9.697 -2.6380  0.2650  0.0359
32587SOL    HW2 1164   5.446   9.350   9.684  0.1515 -1.9906 -1.1858
32588SOL     OW 1165   5.828   4.124   7.630  0.7378  0.0275  0.0165
32588SOL    HW1 1166   5.896   4.073   7.675  0.0722 -1.1853 -0.3065
32588SOL    HW2 1167   5.748   4.103   7.677  0.3500  0.2971 -0.5194
32589SOL     OW 1168   7.191  10.509   0.834 -0.3911 -0.3037 -0.1686
32589SOL    HW1 1169   7.095  10.505   0.844 -0.1161 -1.4890  2.9242
32589SOL    HW2 1170   7.219  10.569   0.903  1.0887  1.2041 -1.9657
32590SOL     OW 1171  10.643   2.978   0.404 -0.6127  0.1146 -0.2918
32590SOL    HW1 1172  10.720   3.025   0.371 -0.1470  0.0378  0.6683
32590SOL    HW2 1173  10.580   3.048   0.426 -1.0535  0.1560 -1.6037
32591SOL     OW 1174   3.353   4.786   1.055  0.6546 -0.1905 -0.0201
32591SOL    HW1 1175   3.271   4.803   1.102  1.4749 -0.1039  1.4524
32591SOL    HW2 1176   3.381   4.700   1.087  2.2442  0.7419  1.2140
32592SOL     OW 1177   1.021   7.489   5.415 -0.4261  0.4135 -0.1670
32592SOL    HW1 1178   0.951   7.433   5.449  0.0358  0.4148  0.8216
32592SOL    HW2 1179   1.061   7.527   5.493 -0.8149  2.2439 -0.8099
32593SOL     OW 1180   3.393   7.874   8.562 -0.0409  0.5285 -0.4970
32593SOL    HW1 1181   3.382   7.917   8.476  0.4731  1.0784 -0.2929
32593SOL    HW2 1182   3.421   7.945   8.620  0.2963  0.0147 -0.0323
32594SOL     OW 1183   8.267   3.326   1.749  0.1966  0.1048  0.3540
32594SOL    HW1 1184   8.253   3.313   1.655 -2.1123 -0.2195  0.6703
32594SOL    HW2 1185   8.258   3.238   1.787  0.3622  0.3371  0.9405
32595SOL     OW 1186   2.342   1.536   4.187  0.4449 -0.5631 -0.1102
32595SOL    HW1 1187   2.392   1.611   4.156 -0.1825 -0.3406 -0.6033
32595SOL    HW2 1188   2.261   1.538   4.136  0.0445 -1.0659  0.4885
32596SOL     OW 1189   3.749   4.570   0.197 -0.1930 -0.1251  0.2643
32596SOL    HW1 1190   3.713   4.582   0.285  0.2092 -1.3732  0.6252
32596SOL    HW2 1191   3.736   4.477   0.179 -1.0692  0.2761 -1.3636
32597SOL     OW 1192   2.049   6.783   7.493 -0.6096 -0.4781  0.1641
32597SOL    HW1 1193   2.057   6.795   7.399  1.0449 -2.9942 -0.1285
32597SOL    HW2 1194   1.957   6.798   7.512 -0.6852  1.7631 -1.5047
32598SOL     OW 1195   1.889  10.726   8.053  0.3090 -0.3809  0.4525
32598SOL    HW1 1196   1.821  10.659   8.047 -0.5161  0.5325 -1.5812
32598SOL    HW2 1197   1.865  10.790   7.986  2.3485  0.7641  0.7286
32599SOL     OW 1198   3.449   9.323   7.538  0.4949  0.1779  0.5604
32599SOL    HW1 1199   3.442   9.417   7.521  1.6745  0.6118  2.2043
32599SOL    HW2 1200   3.542   9.308   7.556  0.1037 -1.0125  1.7886
32600SOL     OW 1201   3.660   4.995   9.919 -0.5554 -0.3581  0.1602
32600SOL    HW1 1202   3.724   4.975   9.850 -0.4286  0.5683 -0.0104
32600SOL    HW2 1203   3.712   5.032   9.990 -0.8089 -0.3243  0.3305
32601SOL     OW 1204   3.117   0.595   2.087 -0.2602  0.1259  0.0796
32601SOL    HW1 1205   3.178   0.623   2.018  0.8813  0.2763  1.1243
32601SOL    HW2 1206   3.036   0.640   2.065 -0.9884 -2.3366 -3.0397
32602SOL     OW 1207   8.250   8.760   9.591 -0.2042 -0.2961  0.1373
32602SOL    HW1 1208   8.159   8.786   9.591  0.2458  1.4084 -0.9945
32602SOL    HW2 1209   8.286   8.795   9.509  1.8130  0.4022  1.2354
32603SOL     OW 1210  10.156   7.180   8.660  0.2786 -0.1622  0.2681
32603SOL    HW1 1211  10.062   7.193   8.666 -0.0253 -0.9211 -1.8234
32603SOL    HW2 1212  10.194   7.256   8.703 -1.2958  0.4648  0.6092
32604SOL     OW 1213   2.045   2.321   2.198  0.1694 -0.3082  0.4193
32604SOL    HW1 1214   2.051   2.238   2.150 -0.4698 -1.3321  2.0294
32604SOL    HW2 1215   1.954   2.326   2.225  0.1907  0.9661  0.3041
32605SOL     OW 1216   9.443   0.355   0.436 -0.4430 -0.0260 -0.0371
32605SOL    HW1 1217   9.354   0.339   0.469 -0.2784  0.2210  0.5347
32605SOL    HW2 1218   9.442   0.321   0.347 -0.8039 -1.0151  0.3317
32606SOL     OW 1219   0.593   9.210   3.483 -0.4910  0.1088 -0.1044
32606SOL    HW1 1220   0.645   9.278   3.442 -1.1662  0.6710 -0.0437
32606SOL    HW2 1221   0.649   9.175   3.553  0.1336  0.0893 -0.6065
32607SOL     OW 1222   2.326   2.539   1.296  0.3557  0.7135  0.0570
32607SOL    HW1 1223   2.261   2.527   1.227  0.4801  0.3786 -0.0039
32607SOL    HW2 1224   2.280   2.516   1.376  0.2593  0.9464  0.0711
32608SOL     OW 1225   5.163   7.224   2.908  0.1565  0.0726  0.3231
32608SOL    HW1 1226   5.070   7.210   2.926  0.1967  0.5307  0.9058
32608SOL    HW2 1227   5.178   7.180   2.824 -0.7968  0.8022 -0.2425
32609SOL     OW 1228   5.052   6.487   2.404  0.1861 -0.3819  0.8019
32609SOL    HW1 1229   5.089   6.523   2.484  0.9470  1.8623 -0.4571
32609SOL    HW2 1230   5.118   6.426   2.371  1.1922  0.8709  0.4400
32610SOL     OW 1231   2.105   1.463   1.203  0.0470  0.5221  0.0015
32610SOL    HW1 1232   2.158   1.385   1.221 -0.0081  0.5437  0.2621
32610SOL    HW2 1233   2.145   1.502   1.126  1.5968  1.5718  1.2684
32611SOL     OW 1234   1.399   7.579   0.896  0.5265  0.2203 -0.2249
32611SOL    HW1 1235   1.307   7.595   0.875  0.6721  1.7347  0.1787
32611SOL    HW2 1236   1.431   7.523   0.825 -0.6588 -0.1763 -0.4560
32612SOL     OW 1237   9.964   1.682   0.374  0.2607 -0.1644 -0.0625
32612SOL    HW1 1238  10.056   1.705   0.357  0.1728  0.3176  0.1054
32612SOL    HW2 1239   9.950   1.602   0.323  1.4721 -1.6415  1.7687
32613SOL     OW 1240   3.908   5.972   6.802  0.1623  0.0038  0.0286
32613SOL    HW1 1241   3.885   6.024   6.725  1.3950 -1.0621 -1.0918
32613SOL    HW2 1242   3.941   6.037   6.865 -0.5699  0.8506 -0.4410
32614SOL     OW 1243   0.218   7.883   3.413  0.5708  0.4091  0.0442
32614SOL    HW1 1244   0.223   7.903   3.507  1.0192  0.7690 -0.0538
32614SOL    HW2 1245   0.285   7.938   3.373  0.7641 -0.1508 -0.4210
32615SOL     OW 1246   7.864  10.593   9.176  0.0498  0.2198 -0.3297
32615SOL    HW1 1247   7.769  10.581   9.171  0.3564 -2.4280 -1.2815
32615SOL    HW2 1248   7.900  10.533   9.111  2.3966  1.4575 -0.3075
32616SOL     OW 1249   2.656   1.550   8.617  0.0570  0.0389  0.5070
32616SOL    HW1 1250   2.700   1.551   8.702 -0.3601 -0.3374  0.7317
32616SOL    HW2 1251   2.727   1.543   8.554  0.3250 -0.7996  0.8753
32617SOL     OW 1252   3.385   8.677   1.066 -0.2031  0.5739 -0.3111
32617SOL    HW1 1253   3.423   8.611   1.125  2.1022  1.4244 -0.7331
32617SOL    HW2 1254   3.393   8.638   0.979 -2.6997 -0.2642 -0.2475
32618SOL     OW 1255  10.916   0.064   4.035  0.2765  0.0815 -0.8399
32618SOL    HW1 1256  10.920   0.112   3.952 -0.1037  0.4819 -0.6270
32618SOL    HW2 1257  10.972   0.114   4.094  3.6789 -2.1917 -1.8275
32619SOL     OW 1258   2.957   0.300  10.712 -0.6998  0.1530 -0.0492
32619SOL    HW1 1259   2.904   0.245  10.654 -1.0857 -0.1737  0.6138
32619SOL    HW2 1260   2.903   0.314  10.789  0.8461 -1.7621  1.4893
32620SOL     OW 1261   1.523   0.058   4.784 -0.2041  0.2919  0.3748
32620SOL    HW1 1262   1.560   0.093   4.865  1.3455  0.5093 -0.3838
32620SOL    HW2 1263   1.528   0.131   4.722 -1.1293  0.0537  0.0116
32621SOL     OW 1264   5.036   7.880   0.592 -0.1614 -0.6956 -0.3331
32621SOL    HW1 1265   4.992   7.874   0.677  0.4013 -0.4294 -0.0151
32621SOL    HW2 1266   4.975   7.929   0.537 -1.4203 -2.5691 -0.7000
32622SOL     OW 1267   3.138   6.614  10.100 -0.1131 -0.6161  0.8617
32622SOL    HW1 1268   3.120   6.673  10.173  0.6750 -1.3971  1.7015
32622SOL    HW2 1269   3.184   6.668  10.036  2.5528 -0.7646  2.5228
32623SOL     OW 1270   5.747   9.767   9.206  0.4524  0.9360 -0.1356
32623SOL    HW1 1271   5.671   9.772   9.263  1.2159 -1.6148  1.2612
32623SOL    HW2 1272   5.822   9.768   9.265  1.3987  0.5161 -1.2759
32624SOL     OW 1273   9.565   2.550  10.456 -0.4349 -0.1702  0.4317
32624SOL    HW1 1274   9.596   2.462  10.476  1.3511  0.1425 -0.7190
32624SOL    HW2 1275   9.638   2.591  10.410 -2.2825  0.9400 -1.7185
32625SOL     OW 1276  10.567   1.426   9.320 -0.8204 -0.0586  0.5851
32625SOL    HW1 1277  10.631   1.387   9.380 -0.3844 -2.4040 -1.2392
32625SOL    HW2 1278  10.581   1.520   9.328  0.4781 -0.3605  2.7393
32626SOL     OW 1279   9.638   4.011   3.607  0.1216 -0.0018 -0.0027
32626SOL    HW1 1280   9.672   3.967   3.685  1.6702 -3.0230 -2.1695
32626SOL    HW2 1281   9.668   4.102   3.615 -0.3480 -0.0087  3.1324
32627SOL     OW 1282   3.250   3.581   9.794  0.0610 -0.3668  0.3456
32627SOL    HW1 1283   3.309   3.539   9.732  1.5645  2.4516 -0.2844
32627SOL    HW2 1284   3.250   3.524   9.870  0.8990 -2.1632 -0.9406
32628SOL     OW 1285   9.692   4.530   9.933  0.0409 -0.1430 -0.1817
32628SOL    HW1 1286   9.772   4.570   9.899  0.9999 -1.6842  0.2077
32628SOL    HW2 1287   9.668   4.465   9.867 -0.0083 -0.7788  0.4592
32629SOL     OW 1288   6.559   9.537   4.875  0.4902  0.3249 -0.5901
32629SOL    HW1 1289   6.533   9.446   4.890  1.1059  0.0752 -0.9947
32629SOL    HW2 1290   6.513   9.587   4.942 -1.2231 -0.0686 -1.4091
32630SOL     OW 1291   7.121   8.914   1.213 -0.4573 -0.7380 -0.2199
32630SOL    HW1 1292   7.209   8.952   1.215 -1.1435  0.8776  0.0536
32630SOL    HW2 1293   7.091   8.918   1.303 -0.4465 -2.2621 -0.1171
32631SOL     OW 1294   3.815   9.567   3.396  0.1178  0.4695 -0.6549
32631SOL    HW1 1295   3.745   9.516   3.439 -0.6767  2.9205  1.2026
32631SOL    HW2 1296   3.848   9.509   3.328 -0.4371 -2.6942  1.5070
32632SOL     OW 1297   6.544   4.105   1.956 -0.0307  0.0225 -0.0815
32632SOL    HW1 1298   6.592   4.089   2.037 -0.3577  1.6224  0.4629
32632SOL    HW2 1299   6.452   4.089   1.979  0.1525 -4.9379 -1.5904
32633SOL     OW 1300   3.139   3.232   9.775  0.3475  0.4506 -0.3644
32633SOL    HW1 1301   3.060   3.229   9.828  1.5819  1.5233  1.6879
32633SOL    HW2 1302   3.206   3.268   9.834  2.4468 -0.7107 -1.8992
32634SOL     OW 1303   8.772   6.994   7.671 -0.3299 -0.2741  0.2694
32634SOL    HW1 1304   8.765   6.900   7.687 -0.1511 -0.4275 -0.4913
32634SOL    HW2 1305   8.732   7.006   7.585  1.6233 -0.0162 -0.6709
32635SOL     OW 1306   4.839   5.149   9.184 -0.7073  0.0489  0.4398
32635SOL    HW1 1307   4.790   5.216   9.137  0.1774  0.0504 -0.5241
32635SOL    HW2 1308   4.777   5.114   9.247 -1.9925 -0.0476 -0.8203
32636SOL     OW 1309   0.015   2.095   7.274 -0.1492  0.1440 -0.0513
32636SOL    HW1 1310   0.043   2.169   7.221  0.5972 -0.0826  0.0206
32636SOL    HW2 1311   0.050   2.018   7.228 -2.5995 -0.3637 -1.2593
32637SOL     OW 1312   8.639   2.055   9.798  0.3047  0.1253  0.1628
32637SOL    HW1 1313   8.610   1.972   9.836  2.8202 -1.4310 -1.0037
32637SOL    HW2 1314   8.607   2.054   9.708 -0.7050  1.0525  0.4893
32638SOL     OW 1315   0.206   3.443   8.670 -0.2633 -0.6015  0.7455
32638SOL    HW1 1316   0.296   3.442   8.704 -0.0226 -0.9128  0.1073
32638SOL    HW2 1317   0.205   3.374   8.604 -1.3358 -1.5057  1.6600
32639SOL     OW 1318   4.699   2.680   1.586 -0.3386 -0.5115 -0.3917
32639SOL    HW1 1319   4.795   2.687   1.578 -0.1990  0.1588  1.3349
32639SOL    HW2 1320   4.685   2.637   1.671 -1.5665  0.0776 -0.2732
32640SOL     OW 1321   8.879   3.263   8.285  0.3738 -1.1601  0.2285
32640SOL    HW1 1322   8.796   3.231   8.321 -0.6415  0.3768 -0.6248
32640SOL    HW2 1323   8.941   3.253   8.356 -0.7867 -1.3866  1.2533
32641SOL     OW 1324   3.495   5.643   1.962 -0.3717 -0.6370 -0.2546
32641SOL    HW1 1325   3.411   5.687   1.950  0.6497  1.0470 -1.8252
32641SOL    HW2 1326   3.532   5.682   2.041 -0.7537 -0.8717  0.0428
32642SOL     OW 1327   2.043   1.758   6.885  0.0553 -0.1927 -0.4130
32642SOL    HW1 1328   2.031   1.664   6.876  0.5866 -0.2634 -0.3884
32642SOL    HW2 1329   2.045   1.773   6.980  2.3722 -0.4823 -0.3651
32643SOL     OW 1330   2.299   5.413   3.921 -0.3718  0.3564 -0.1293
32643SOL    HW1 1331   2.372   5.438   3.978 -0.8606 -2.2846  1.8325
32643SOL    HW2 1332   2.330   5.335   3.875 -1.0433  0.7651 -1.3219
32644SOL     OW 1333  10.614   3.732   1.753 -0.1847  0.0373  0.3547
32644SOL    HW1 1334  10.570   3.672   1.693  0.2885 -0.3285  0.3648
32644SOL    HW2 1335  10.584   3.819   1.726 -0.0571 -0.1272 -0.3502
32645SOL     OW 1336   1.703   4.071   0.948 -0.2284 -0.2062 -0.5271
32645SOL    HW1 1337   1.688   4.020   1.028  0.7918  2.0619  1.2460
32645SOL    HW2 1338   1.758   4.015   0.894  1.9101 -0.6370  1.8654
32646SOL     OW 1339   4.466   7.055   2.220  0.1102  0.0293  0.2426
32646SOL    HW1 1340   4.493   6.964   2.213 -0.5235 -0.1477  0.1159
32646SOL    HW2 1341   4.513   7.099   2.149  1.0407 -0.0409  0.7941
32647SOL     OW 1342  10.476   8.287   1.674  0.0056  0.4014  0.4315
32647SOL    HW1 1343  10.435   8.314   1.592 -1.8894 -0.5960  0.9835
32647SOL    HW2 1344  10.568   8.312   1.665 -0.1123  0.1630 -2.0579
32648SOL     OW 1345   6.036   2.483   1.879 -0.0269 -0.3779  0.1956
32648SOL    HW1 1346   5.996   2.496   1.965 -0.2921 -2.2370  0.3846
32648SOL    HW2 1347   5.996   2.550   1.824 -0.4462  0.3270  1.3125
32649SOL     OW 1348   7.818   0.508   8.416  0.2062 -0.1948 -0.0821
32649SOL    HW1 1349   7.791   0.597   8.441 -2.6690 -1.0419  0.2906
32649SOL    HW2 1350   7.909   0.502   8.443 -0.3521  1.7031  2.7107
32650SOL     OW 1351   2.092   6.618   6.527 -0.8076  0.3970  0.2140
32650SOL    HW1 1352   2.001   6.638   6.552 -0.4923  0.7803  1.0789
32650SOL    HW2 1353   2.101   6.524   6.543 -0.5211  0.6799  1.9255
32651SOL     OW 1354   0.046   3.725  10.507  0.4804 -0.0056 -0.5107
32651SOL    HW1 1355  -0.009   3.673  10.448 -2.4021  0.0658  1.8964
32651SOL    HW2 1356   0.082   3.662  10.569  0.4609  0.3444 -0.1378
32652SOL     OW 1357   3.455  10.721   4.602  0.4912  0.9063  0.2286
32652SOL    HW1 1358   3.470  10.737   4.695  1.1812  0.0773  0.2648
32652SOL    HW2 1359   3.425  10.806   4.568 -0.0802  1.1280  1.2594
32653SOL     OW 1360   1.391   0.373   5.507  0.1421 -0.3338 -0.1561
32653SOL    HW1 1361   1.319   0.315   5.530 -0.7111  0.3769 -0.9745
32653SOL    HW2 1362   1.466   0.339   5.556 -0.7736 -1.0075  0.8053
32654SOL     OW 1363   0.945   0.506   3.184  0.1795  0.1738  0.1955
32654SOL    HW1 1364   0.955   0.558   3.263  0.3546 -0.1654  0.4004
32654SOL    HW2 1365   0.906   0.424   3.214  0.2265  0.0522 -0.0719
32655SOL     OW 1366   0.758   4.148   1.811 -0.5137  0.6818 -0.0732
32655SOL    HW1 1367   0.677   4.132   1.763 -0.4049 -0.7126  0.1675
32655SOL    HW2 1368   0.741   4.114   1.899 -0.0458  1.4337  0.3243
32656SOL     OW 1369   1.879   7.287   3.289  0.1436 -0.0598 -0.0134
32656SOL    HW1 1370   1.952   7.228   3.268  0.7799  0.4361  0.7367
32656SOL    HW2 1371   1.903   7.371   3.251 -0.9110 -0.3325 -1.3540
32657SOL     OW 1372   7.398   8.348   1.553  0.1241 -0.3614 -0.4187
32657SOL    HW1 1373   7.382   8.286   1.482  1.8965  0.2565 -1.4090
32657SOL    HW2 1374   7.381   8.434   1.514  1.2491 -0.0088 -0.1672
32658SOL     OW 1375   6.644   4.736   4.176 -0.0681  0.5741 -0.0181
32658SOL    HW1 1376   6.590   4.689   4.240  2.4587 -1.0744  1.0526
32658SOL    HW2 1377   6.622   4.828   4.189 -0.0802  0.2547  2.8818
32659SOL     OW 1378   8.729   2.294   6.445  0.8049  0.5178 -0.6755
32659SOL    HW1 1379   8.637   2.302   6.471  0.7700 -0.3658 -0.4981
32659SOL    HW2 1380   8.725   2.281   6.350  0.8421  1.9737 -0.9037
32660SOL     OW 1381   6.838   1.822   3.557 -0.2275 -0.3870  0.3691
32660SOL    HW1 1382   6.776   1.754   3.529  0.0718  0.4249 -2.6999
32660SOL    HW2 1383   6.906   1.822   3.488  0.8078  1.7055  1.2968
32661SOL     OW 1384   6.709   5.805   0.045 -0.1373 -0.0428 -0.3030
32661SOL    HW1 1385   6.650   5.879   0.060 -0.2752 -0.0378 -0.8755
32661SOL    HW2 1386   6.721   5.802  -0.050  0.1118 -0.5669 -0.2588
32662SOL     OW 1387  10.666   1.475   8.277 -0.8973  0.3209  0.3510
32662SOL    HW1 1388  10.718   1.420   8.337 -0.3416  1.5918  1.0843
32662SOL    HW2 1389  10.676   1.433   8.192 -0.8155 -0.9304  0.9528
32663SOL     OW 1390   4.275   9.593  10.425 -0.9051  0.1966 -0.1136
32663SOL    HW1 1391   4.307   9.515  10.379  0.9195  1.0012 -0.2955
32663SOL    HW2 1392   4.309   9.584  10.514 -3.0466 -0.5424  0.7009
32664SOL     OW 1393   1.553   3.168   4.156 -0.5414  0.1177  0.1675
32664SOL    HW1 1394   1.510   3.097   4.110 -0.5295  0.6795 -0.7262
32664SOL    HW2 1395   1.639   3.133   4.180  0.6321  0.7086 -2.8000
32665SOL     OW 1396   7.090   9.501   9.474  0.7351 -0.4720 -0.5585
32665SOL    HW1 1397   7.141   9.443   9.530  2.0547 -0.0356 -1.2429
32665SOL    HW2 1398   7.023   9.538   9.531 -0.6630 -3.2112 -0.2693
32666SOL     OW 1399   8.506   2.595   2.926 -0.1549 -0.7477  0.4446
32666SOL    HW1 1400   8.569   2.608   2.854 -0.7481 -1.0862 -0.1533
32666SOL    HW2 1401   8.448   2.670   2.921  1.6095  0.8901  2.5586
32667SOL     OW 1402   0.306   6.542   7.521  0.2780 -0.2149 -0.2738
32667SOL    HW1 1403   0.361   6.483   7.469 -0.0979 -0.6680 -0.1632
32667SOL    HW2 1404   0.244   6.484   7.566  1.4779  0.0066  1.7883
32668SOL     OW 1405   6.275   3.543   8.830 -0.1908  0.4936 -0.4804
32668SOL    HW1 1406   6.279   3.492   8.749  0.4795  0.9550 -0.7475
32668SOL    HW2 1407   6.194   3.594   8.822 -0.8924 -0.5493 -0.1880
32669SOL     OW 1408   6.234   9.411   0.761  0.5248 -0.0946  0.2006
32669SOL    HW1 1409   6.166   9.455   0.709  1.9177 -1.1563 -2.7915
32669SOL    HW2 1410   6.312   9.463   0.747  1.4828 -1.7255 -0.8528
32670SOL     OW 1411   1.114   8.042   5.730  0.7639  0.1228  0.3271
32670SOL    HW1 1412   1.134   7.968   5.788 -0.1940 -0.5020 -0.0977
32670SOL    HW2 1413   1.139   8.119   5.780 -0.4496 -0.3724  1.7855
32671SOL     OW 1414   8.756   7.820   8.943 -0.1789 -0.6456  0.1996
32671SOL    HW1 1415   8.817   7.876   8.991  1.0067 -1.5370 -0.2173
32671SOL    HW2 1416   8.748   7.861   8.857  0.7441 -1.1161 -0.1290
32672SOL     OW 1417   5.388   5.285   5.018  0.3068 -0.0061  0.0240
32672SOL    HW1 1418   5.379   5.198   5.056 -0.9522 -1.1936 -2.7691
32672SOL    HW2 1419   5.309   5.332   5.047 -0.2263 -0.6193 -0.4128
32673SOL     OW 1420   6.302   4.628   5.932  0.0697 -0.4416  0.3188
32673SOL    HW1 1421   6.260   4.692   5.989  1.4514  0.4911  0.3435
32673SOL    HW2 1422   6.268   4.648   5.844  0.3952  0.2516  0.3451
32674SOL     OW 1423   4.444   9.749   3.883  0.4206  0.1847  0.2986
32674SOL    HW1 1424   4.527   9.754   3.930  0.3078 -0.9714  0.6434
32674SOL    HW2 1425   4.382   9.714   3.946 -0.3638  1.1096  0.0664
32675SOL     OW 1426   1.948   5.522  10.033 -0.1821  0.2407 -0.1158
32675SOL    HW1 1427   1.950   5.431  10.003  1.8722  0.8389 -2.0051
32675SOL    HW2 1428   1.875   5.562   9.985 -1.5034 -0.5026  1.1957
32676SOL     OW 1429   8.795   2.323   1.686 -0.5972 -0.7881 -0.3412
32676SOL    HW1 1430   8.724   2.323   1.750  1.2449 -0.5935  1.8262
32676SOL    HW2 1431   8.859   2.262   1.722  1.2629  0.6485 -1.0959
32677SOL     OW 1432   2.645   6.286   5.593  0.2907  0.0352 -0.3965
32677SOL    HW1 1433   2.678   6.229   5.524 -1.4455 -1.9660  0.3326
32677SOL    HW2 1434   2.558   6.312   5.563  0.1578  0.4529  0.3345
32678SOL     OW 1435  10.746   3.344   1.289  0.5575 -0.2831 -0.1956
32678SOL    HW1 1436  10.728   3.397   1.212  0.4844  0.8470  0.5822
32678SOL    HW2 1437  10.838   3.319   1.281  0.9126  0.9227 -0.0068
32679SOL     OW 1438   5.124   6.967   2.150  0.3201 -0.1453  0.1476
32679SOL    HW1 1439   5.138   6.875   2.175 -0.6554 -0.1715  0.6537
32679SOL    HW2 1440   5.113   7.013   2.233  0.9801  0.4764 -0.0953
32680SOL     OW 1441   5.846   8.377   9.722  0.0207 -0.3418  0.2412
32680SOL    HW1 1442   5.927   8.421   9.745  0.3259 -0.7143 -0.1206
32680SOL    HW2 1443   5.783   8.408   9.788  0.2099  0.6643 -0.0350
32681SOL     OW 1444  10.806   9.855   7.515  0.0205 -0.3421 -0.2032
32681SOL    HW1 1445  10.885   9.868   7.567  0.8579 -1.7252 -1.0355
32681SOL    HW2 1446  10.749   9.928   7.537  0.8766 -0.1858  1.6351
32682SOL     OW 1447  10.167  10.242   9.625  0.9725  0.5856  0.1925
32682SOL    HW1 1448  10.228  10.246   9.699  0.4124  1.3428  0.6304
32682SOL    HW2 1449  10.220  10.208   9.553  1.7644  0.6764  0.7142
32683SOL     OW 1450  10.351   1.399   1.621  0.3124  0.1662  0.2163
32683SOL    HW1 1451  10.439   1.416   1.588  0.6651 -1.8019  0.0328
32683SOL    HW2 1452  10.365   1.346   1.700 -0.6856 -2.6144 -1.3137
32684SOL     OW 1453   9.657   4.474   7.902  0.2711 -0.2862  0.1508
32684SOL    HW1 1454   9.674   4.474   7.996 -1.4032 -0.3047  0.4733
32684SOL    HW2 1455   9.569   4.437   7.893  1.3520 -2.7609 -1.6286
32685SOL     OW 1456   5.490   0.005   5.185 -0.5670  0.0610  0.3797
32685SOL    HW1 1457   5.465   0.067   5.254  0.6681  0.0483  0.8563
32685SOL    HW2 1458   5.584   0.017   5.175 -0.8254  0.5199 -1.7916
32686SOL     OW 1459   2.873   8.716   9.805 -0.8795  0.2805 -0.2079
32686SOL    HW1 1460   2.859   8.646   9.869  0.9359 -0.7499 -0.8579
32686SOL    HW2 1461   2.794   8.769   9.810 -1.7609 -1.0727  1.2425
32687SOL     OW 1462   3.877   8.287   6.791  0.1235  0.1543  0.2258
32687SOL    HW1 1463   3.811   8.310   6.857  0.3390  3.2328 -0.4972
32687SOL    HW2 1464   3.826   8.251   6.719 -0.2682 -1.6051  1.2995
32688SOL     OW 1465   0.811   8.167   8.562  0.5097 -0.3036 -0.1450
32688SOL    HW1 1466   0.880   8.156   8.628  1.2795  0.5841 -0.7720
32688SOL    HW2 1467   0.832   8.101   8.495  0.7474 -0.0488 -0.3251
32689SOL     OW 1468   7.312   3.234   2.996 -0.5516  0.1989  0.2295
32689SOL    HW1 1469   7.372   3.216   3.069  0.9028  1.7524 -0.5141
32689SOL    HW2 1470   7.228   3.250   3.039  0.3481  1.4392  1.6399
32690SOL     OW 1471   6.744   6.441   0.755  0.3459 -0.0654 -0.6462
32690SOL    HW1 1472   6.680   6.505   0.789  0.2172 -0.8441  0.6451
32690SOL    HW2 1473   6.758   6.380   0.828  1.9457 -0.3951 -1.1894
32691SOL     OW 1474   6.349   0.099   0.632 -0.5273 -0.6156  0.4353
32691SOL    HW1 1475   6.291   0.056   0.569 -0.8395 -1.2481  1.1399
32691SOL    HW2 1476   6.301   0.177   0.659 -0.6701 -0.6742  0.3553
32692SOL     OW 1477   7.882   7.280  10.688 -0.0326  0.9432  0.4353
32692SOL    HW1 1478   7.890   7.257  10.781  1.5907  3.0376  0.8803
32692SOL    HW2 1479   7.812   7.345  10.686  0.2836  1.2760  0.2660
32693SOL     OW 1480   8.399   9.159   2.117 -0.5312 -1.2768  0.1633
32693SOL    HW1 1481   8.352   9.082   2.086 -2.1007 -0.2768 -0.0949
32693SOL    HW2 1482   8.418   9.209   2.038  1.1217 -1.6908  0.2516
32694SOL     OW 1483   6.542   2.617   5.726 -0.4015 -0.1931 -0.0082
32694SOL    HW1 1484   6.471   2.667   5.767 -1.7273 -0.9407 -1.2673
32694SOL    HW2 1485   6.547   2.536   5.776 -0.8086 -0.3577 -0.2290
32695SOL     OW 1486   0.029  10.224   4.372 -0.0015  0.2659 -0.4843
32695SOL    HW1 1487   0.036  10.289   4.441  3.8241  1.1227 -1.4559
32695SOL    HW2 1488   0.029  10.275   4.291 -4.2640 -0.7054 -1.3766
32696SOL     OW 1489   1.517   3.467   1.753  0.3684 -0.1877 -0.4349
32696SOL    HW1 1490   1.441   3.519   1.728 -0.1864 -1.3479 -1.2910
32696SOL    HW2 1491   1.521   3.475   1.848 -0.4866  0.3576 -0.4300
32697SOL     OW 1492  10.203   9.420   7.511  0.2347  0.1458 -0.2355
32697SOL    HW1 1493  10.142   9.407   7.437 -0.9046  1.7508  0.3564
32697SOL    HW2 1494  10.180   9.351   7.573 -0.7034  0.4671 -0.2112
32698SOL     OW 1495   4.284   6.517   5.077 -0.0416  0.0288  0.3306
32698SOL    HW1 1496   4.333   6.568   5.141 -1.3526  0.1627  1.2529
32698SOL    HW2 1497   4.316   6.548   4.992  0.8074  0.7437  0.8978
32699SOL     OW 1498   3.129   5.279   8.853 -0.0414  0.4031  0.2929
32699SOL    HW1 1499   3.126   5.208   8.918  0.0487  1.0325  0.9912
32699SOL    HW2 1500   3.123   5.234   8.768 -0.1511 -0.4275  0.7330
32700SOL     OW 1501   1.083   4.050   3.560  0.6731 -0.1393  0.2084
32700SOL    HW1 1502   1.077   4.033   3.466  0.2190 -1.3046  0.4268
32700SOL    HW2 1503   1.099   3.964   3.598  1.6844  0.4489  1.1366
32701SOL     OW 1504   2.498   2.655  10.759  0.1678 -0.2986  0.1341
32701SOL    HW1 1505   2.513   2.684  10.669  0.0247  0.8592  0.4766
32701SOL    HW2 1506   2.412   2.689  10.782  1.0376  1.2217  1.3924
32702SOL     OW 1507  10.182   1.521   0.671 -0.1620 -0.1292 -0.1549
32702SOL    HW1 1508  10.234   1.598   0.649  1.1070 -0.7705  0.4768
32702SOL    HW2 1509  10.092   1.545   0.648  0.5344  0.6350 -2.2867
32703SOL     OW 1510   0.475   2.964   1.321 -0.2211 -0.1220 -0.0032
32703SOL    HW1 1511   0.519   2.958   1.236  0.6730 -0.4740  0.4708
32703SOL    HW2 1512   0.382   2.951   1.301 -0.0999  0.4780 -1.0050
32704SOL     OW 1513   7.191   1.498   6.733 -0.5007 -0.4527 -0.1273
32704SOL    HW1 1514   7.285   1.510   6.747 -0.3223 -1.5114 -0.2933
32704SOL    HW2 1515   7.186   1.435   6.661 -1.3213 -1.5683  0.8704
32705SOL     OW 1516   7.264   0.770   1.625 -0.5040 -0.6324 -0.2226
32705SOL    HW1 1517   7.283   0.804   1.538 -0.6703 -0.2576 -0.1137
32705SOL    HW2 1518   7.187   0.819   1.654 -1.5409 -1.9710 -0.5737
32706SOL     OW 1519   3.133   1.793   6.276 -0.0877 -1.1411  0.5764
32706SOL    HW1 1520   3.117   1.829   6.363  0.1335 -1.9652  0.9727
32706SOL    HW2 1521   3.056   1.739   6.258  0.2856 -1.7195  0.6709
32707SOL     OW 1522   6.045   8.563   9.777  0.0700 -0.8547  0.1946
32707SOL    HW1 1523   5.986   8.637   9.795  2.2731  0.9810  0.3997
32707SOL    HW2 1524   6.111   8.600   9.719  0.9871 -2.8490 -0.0848
32708SOL     OW 1525   4.522   7.116   7.403 -0.1435 -0.5243  0.2573
32708SOL    HW1 1526   4.437   7.080   7.430 -0.3201 -1.3750 -1.2924
32708SOL    HW2 1527   4.584   7.046   7.420  0.2327  0.0072  1.1507
32709SOL     OW 1528   1.988   1.861  10.259  0.1525 -0.2006  0.4054
32709SOL    HW1 1529   2.041   1.878  10.337  0.1610  0.2406  0.3026
32709SOL    HW2 1530   2.044   1.804  10.205  0.1997 -0.3946  0.6552
32710SOL     OW 1531   2.771   4.848   5.587  0.2585 -0.2085 -0.7298
32710SOL    HW1 1532   2.729   4.824   5.671  2.2898 -0.6661  0.2087
32710SOL    HW2 1533   2.762   4.943   5.583  0.5084 -0.1316  0.2319
32711SOL     OW 1534   8.284   2.138   7.260  0.4345  0.1737  0.1705
32711SOL    HW1 1535   8.264   2.100   7.174  2.8196 -1.2672  0.1659
32711SOL    HW2 1536   8.271   2.066   7.322  0.5042  0.6952  0.7990
32712SOL     OW 1537   0.855   9.711   6.317  0.3787 -0.4294 -0.0476
32712SOL    HW1 1538   0.902   9.663   6.386  0.8949 -0.9392 -0.7396
32712SOL    HW2 1539   0.813   9.783   6.363  1.7000 -0.0584  0.6394
32713SOL     OW 1540   2.585   8.964   1.937 -0.3148 -0.0539  0.3787
32713SOL    HW1 1541   2.543   8.885   1.903  0.5118 -0.6184  0.6425
32713SOL    HW2 1542   2.535   8.985   2.016 -0.9729  0.0942 -0.0683
32714SOL     OW 1543   2.278   2.983   5.603 -0.3740 -0.3277  0.2048
32714SOL    HW1 1544   2.201   3.039   5.592 -0.1661 -0.1502 -0.3669
32714SOL    HW2 1545   2.352   3.040   5.583 -0.1876 -0.9398 -0.8887
32715SOL     OW 1546   4.953   9.527   3.214  0.2001 -0.2925  0.1372
32715SOL    HW1 1547   4.953   9.434   3.190  1.5356 -0.6541  1.3767
32715SOL    HW2 1548   4.953   9.573   3.131 -1.9637 -1.3462 -0.5254
32716SOL     OW 1549   6.304  10.858   5.382 -0.3113 -0.0751  0.2635
32716SOL    HW1 1550   6.249  10.926   5.343  1.3643  0.7659 -0.7192
32716SOL    HW2 1551   6.324  10.799   5.310  1.1928  0.3928  0.2778
32717SOL     OW 1552   7.800   1.594   1.509 -0.0854 -0.0043 -0.2889
32717SOL    HW1 1553   7.813   1.539   1.432 -0.7562  1.9054 -1.8500
32717SOL    HW2 1554   7.706   1.589   1.526 -0.1985  0.8497 -0.6194
32718SOL     OW 1555   7.239   3.772   0.016  0.0316 -0.4348 -0.1364
32718SOL    HW1 1556   7.179   3.793  -0.056 -0.1250 -0.9678 -0.1692
32718SOL    HW2 1557   7.224   3.841   0.080  0.2803  0.1299 -0.6750
32719SOL     OW 1558   2.582   0.976   8.882 -0.5733 -0.0781 -0.6041
32719SOL    HW1 1559   2.543   1.040   8.823 -1.3317 -0.7412 -0.8456
32719SOL    HW2 1560   2.651   0.935   8.831  0.5453  1.1704 -0.1433
32720SOL     OW 1561   8.809   4.817   8.878  0.1316 -0.4888 -0.2103
32720SOL    HW1 1562   8.805   4.841   8.971 -0.9170 -1.6701  0.0866
32720SOL    HW2 1563   8.884   4.757   8.873  1.9470  1.6855 -0.7098
32721SOL     OW 1564   1.930   1.129   4.889  0.2135 -0.3126  0.0496
32721SOL    HW1 1565   2.004   1.180   4.922 -0.2013 -0.0708  0.6174
32721SOL    HW2 1566   1.919   1.160   4.799  0.8641 -0.4289 -0.0794
32722SOL     OW 1567   4.758  10.080   8.245  0.3845 -0.3219  1.0175
32722SOL    HW1 1568   4.665  10.102   8.253  0.1758 -1.2497  1.2659
32722SOL    HW2 1569   4.789  10.073   8.335  0.6157 -0.3354  0.9384
32723SOL     OW 1570   7.475   8.150   3.162  0.1259  0.2485 -0.1074
32723SOL    HW1 1571   7.486   8.148   3.067  0.7179  0.3316 -0.0394
32723SOL    HW2 1572   7.564   8.150   3.197 -0.0894  0.5238  0.4436
32724SOL     OW 1573   7.176  10.415   8.043  0.8524 -0.5004  0.6890
32724SOL    HW1 1574   7.082  10.420   8.027  1.0505  0.3759 -0.2968
32724SOL    HW2 1575   7.192  10.322   8.060  0.1661 -1.0672 -1.4989
32725SOL     OW 1576   5.843   4.178   2.677 -0.5076  0.1686  0.3117
32725SOL    HW1 1577   5.762   4.228   2.686  0.6074  1.9105  1.3555
32725SOL    HW2 1578   5.856   4.169   2.583 -0.5119  2.3344  0.0593
32726SOL     OW 1579  10.762   6.770   9.545 -0.5925 -0.0267 -0.0348
32726SOL    HW1 1580  10.788   6.830   9.615 -0.4968 -0.4537  0.3026
32726SOL    HW2 1581  10.666   6.765   9.552 -0.5809 -0.0872  0.0856
32727SOL     OW 1582   9.308  10.460   9.691 -0.6293  0.4992 -0.8433
32727SOL    HW1 1583   9.343  10.547   9.674  0.5632  0.6275  1.7878
32727SOL    HW2 1584   9.214  10.473   9.704 -0.2594  1.7155  1.0127
32728SOL     OW 1585   3.005  10.132   3.229 -0.0056 -0.3641 -0.3260
32728SOL    HW1 1586   3.093  10.141   3.265 -0.0674  1.2859 -0.5136
32728SOL    HW2 1587   2.997  10.204   3.166 -1.0227 -1.2956 -1.3039
32729SOL     OW 1588  10.174   3.708   2.207  0.5003  0.2347  0.0770
32729SOL    HW1 1589  10.151   3.629   2.256 -1.1378  0.5455 -0.1208
32729SOL    HW2 1590  10.234   3.755   2.265 -0.6118  0.1240  1.3784
32730SOL     OW 1591   8.515  10.315   1.334  0.6965 -0.2337  0.1187
32730SOL    HW1 1592   8.597  10.361   1.313  0.2780 -0.0245 -1.1169
32730SOL    HW2 1593   8.456  10.383   1.365  0.7556 -0.2731  0.3205
32731SOL     OW 1594   8.106   7.720   2.583 -0.0226 -0.1666  0.0777
32731SOL    HW1 1595   8.116   7.716   2.678 -0.4917  1.5412  0.2431
32731SOL    HW2 1596   8.150   7.642   2.550  0.5684 -0.5362  1.6695
32732SOL     OW 1597   2.980   7.952   4.743 -0.0510  0.3303  0.2308
32732SOL    HW1 1598   2.909   7.890   4.760  0.4031 -0.1402  0.4601
32732SOL    HW2 1599   2.994   7.996   4.827 -0.8521  1.2688 -0.1110
32733SOL     OW 1600   3.011  10.618  10.075 -0.2159  0.2129 -0.4411
32733SOL    HW1 1601   3.032  10.589   9.987 -2.4954 -1.0863 -0.6323
32733SOL    HW2 1602   3.035  10.711  10.076 -0.8136  0.4541 -2.7053
32734SOL     OW 1603   9.319   6.752  10.372 -0.1514 -0.0238  0.3682
32734SOL    HW1 1604   9.394   6.802  10.405  0.5204 -1.2696  0.7629
32734SOL    HW2 1605   9.295   6.694  10.444 -0.9088 -0.2946 -0.0878
32735SOL     OW 1606   0.890   0.765   2.493  0.2928 -0.0061 -0.0687
32735SOL    HW1 1607   0.851   0.696   2.439 -1.5012  0.7099  0.2712
32735SOL    HW2 1608   0.982   0.767   2.465  0.2579 -2.1032 -0.5188
32736SOL     OW 1609   5.446   0.415   2.186  0.3881 -0.0637 -0.0186
32736SOL    HW1 1610   5.465   0.483   2.122 -0.4087  1.6854  1.5025
32736SOL    HW2 1611   5.362   0.378   2.158  0.1411  0.5577 -0.1129
32737SOL     OW 1612  10.059   5.295   6.849  0.4264  0.2334  0.3573
32737SOL    HW1 1613  10.134   5.237   6.838 -0.5923 -1.1187  0.2715
32737SOL    HW2 1614  10.057   5.314   6.943  0.7388  0.0859  0.3940
32738SOL     OW 1615   3.514   6.953   0.765 -0.1341 -0.0139 -0.0956
32738SOL    HW1 1616   3.459   6.879   0.788 -0.3226 -0.2358 -1.2027
32738SOL    HW2 1617   3.561   6.925   0.686  1.3942  0.2560  0.6694
32739SOL     OW 1618  10.092   0.757   8.862 -0.7493  0.1742  0.0642
32739SOL    HW1 1619  10.127   0.757   8.951  2.0891 -3.3065 -0.8405
32739SOL    HW2 1620  10.159   0.800   8.810 -0.8249 -0.7791 -0.8432
32740SOL     OW 1621   8.467   9.565   1.445  0.3108 -0.0549 -0.5467
32740SOL    HW1 1622   8.418   9.629   1.496  2.1350 -0.3494  1.7565
32740SOL    HW2 1623   8.432   9.573   1.356 -0.7037  2.8902  0.0111
32741SOL     OW 1624   5.941  10.445   5.198 -0.4328  0.1642  0.1097
32741SOL    HW1 1625   5.875  10.384   5.230 -1.6622  1.5976  0.4074
32741SOL    HW2 1626   5.891  10.514   5.153  0.8505  1.2523  0.2865
32742SOL     OW 1627   8.528   2.325   4.889  0.1067 -0.5056 -0.3614
32742SOL    HW1 1628   8.496   2.245   4.932 -3.1490  1.2286  0.7390
32742SOL    HW2 1629   8.548   2.384   4.961  0.9181  0.2415 -1.1841
32743SOL     OW 1630   7.335   0.836  10.829  0.1524  0.0093 -0.7587
32743SOL    HW1 1631   7.281   0.912  10.852  1.6979  0.6481  1.0816
32743SOL    HW2 1632   7.343   0.786  10.910  1.6092 -0.4956 -1.1648
32744SOL     OW 1633   8.515   4.240   4.244 -0.0462 -0.3851 -0.9008
32744SOL    HW1 1634   8.573   4.219   4.318 -1.1879  0.4088  0.2757
32744SOL    HW2 1635   8.506   4.158   4.196  1.5279 -0.6770 -0.7607
32745SOL     OW 1636  10.027   8.709   0.925 -0.2869 -0.1610 -0.0214
32745SOL    HW1 1637  10.019   8.789   0.874  0.1369  0.5831  1.0358
32745SOL    HW2 1638   9.960   8.651   0.890 -0.4667  0.5778 -0.9334
32746SOL     OW 1639   0.888   0.065   3.620  0.2861  0.5608  0.0045
32746SOL    HW1 1640   0.976   0.075   3.656 -0.9712 -0.2347  3.7433
32746SOL    HW2 1641   0.830   0.093   3.691 -2.5051  0.3772 -2.0602
32747SOL     OW 1642   1.254   1.550   6.134  0.0510  0.3219 -0.2038
32747SOL    HW1 1643   1.215   1.557   6.221  1.3614 -1.4724  0.5890
32747SOL    HW2 1644   1.180   1.557   6.074 -0.7406  2.7953  0.9564
32748SOL     OW 1645   3.096   8.571  10.456  0.4137  0.0093  0.4024
32748SOL    HW1 1646   3.172   8.547  10.509  0.4494 -1.1014 -0.1177
32748SOL    HW2 1647   3.079   8.663  10.478  1.7949  0.2287  0.6665
32749SOL     OW 1648   1.799   9.844   5.281  0.1106 -0.1403  0.3682
32749SOL    HW1 1649   1.771   9.790   5.355  1.7320  2.0007  2.6777
32749SOL    HW2 1650   1.844   9.782   5.223 -3.2169 -2.3304 -0.1739
32750SOL     OW 1651   4.374   1.276   9.924 -0.4986 -0.0175  0.0332
32750SOL    HW1 1652   4.327   1.194   9.937  2.0670 -1.7505 -0.8980
32750SOL    HW2 1653   4.444   1.274   9.988  0.6374  0.6034 -1.1533
32751SOL     OW 1654  10.518  10.724   7.154  0.0910  0.6480  0.7725
32751SOL    HW1 1655  10.489  10.643   7.197  0.1014  1.0219  1.4983
32751SOL    HW2 1656  10.438  10.761   7.118  0.5224 -1.6261 -3.0798
32752SOL     OW 1657   0.316   4.696   1.147 -0.0611 -0.0726  0.5467
32752SOL    HW1 1658   0.278   4.763   1.091 -0.0742  0.1147  0.7783
32752SOL    HW2 1659   0.274   4.615   1.119  1.9657 -0.4714 -1.6488
32753SOL     OW 1660   3.610   1.384   2.010 -0.1278 -0.0220 -0.0780
32753SOL    HW1 1661   3.643   1.429   1.933  0.5358 -0.3722 -0.0132
32753SOL    HW2 1662   3.523   1.421   2.025 -0.4390 -0.2514 -1.2368
32754SOL     OW 1663   3.303   4.711   4.719 -0.2903 -0.3488 -0.2582
32754SOL    HW1 1664   3.267   4.638   4.769 -1.9060 -0.0174 -0.8693
32754SOL    HW2 1665   3.376   4.743   4.772 -1.1074 -0.8618  1.2338
32755SOL     OW 1666   4.197   2.090   9.351  1.2239 -0.0007 -0.0434
32755SOL    HW1 1667   4.152   2.095   9.435  0.0526 -0.2564 -0.6297
32755SOL    HW2 1668   4.138   2.038   9.295  0.9732  1.8551 -1.6122
32756SOL     OW 1669   9.332   1.223   5.345  0.2374  0.1282  0.6940
32756SOL    HW1 1670   9.267   1.213   5.414  0.0215 -1.1225  0.3300
32756SOL    HW2 1671   9.281   1.237   5.266  0.3581 -1.4613  0.3042
32757SOL     OW 1672   7.253   7.605   1.972 -0.2150 -0.0100 -0.2295
32757SOL    HW1 1673   7.162   7.596   1.944  0.3349 -1.1158 -1.7669
32757SOL    HW2 1674   7.304   7.559   1.905  1.2746 -1.9369  2.0716
32758SOL     OW 1675   8.257   7.199   7.538  0.2238  0.6911  0.0353
32758SOL    HW1 1676   8.335   7.173   7.587  0.0620  0.2889  0.0808
32758SOL    HW2 1677   8.291   7.257   7.469  0.5030  0.8990  0.3415
32759SOL     OW 1678   3.478   1.618   9.869 -0.2902  0.1583  0.0637
32759SOL    HW1 1679   3.531   1.631   9.791 -0.4988  0.8675  0.0297
32759SOL    HW2 1680   3.533   1.648   9.941  0.3532 -1.6016  0.3394
32760SOL     OW 1681   9.351   1.412   5.623  0.1882  0.5452 -0.0482
32760SOL    HW1 1682   9.388   1.433   5.538 -0.5587 -0.4185 -0.6346
32760SOL    HW2 1683   9.297   1.334   5.607 -0.8365  0.9876  1.0738
32761SOL     OW 1684   5.182   0.900   1.822  0.1568 -0.3122 -0.4448
32761SOL    HW1 1685   5.194   0.945   1.905  1.9708  0.5399 -1.1173
32761SOL    HW2 1686   5.113   0.950   1.778 -1.7699 -1.5446  1.0019
32762SOL     OW 1687   7.939   0.860   5.857 -0.2416  0.0066 -0.6148
32762SOL    HW1 1688   8.017   0.807   5.842  1.0664  1.2826  1.2316
32762SOL    HW2 1689   7.901   0.824   5.938  1.6305  2.7472  1.6845
32763SOL     OW 1690   6.634  10.809   6.908  0.4367  0.0746 -0.3095
32763SOL    HW1 1691   6.588  10.876   6.858  0.3012  0.3487  0.1778
32763SOL    HW2 1692   6.723  10.841   6.916  0.4014  0.1425 -0.1801
32764SOL     OW 1693   8.414   2.765   1.465 -0.4846 -0.8005 -0.1617
32764SOL    HW1 1694   8.432   2.714   1.543 -0.8038 -0.1073  0.3815
32764SOL    HW2 1695   8.325   2.799   1.478 -0.1366  0.2017 -0.3166
32765SOL     OW 1696   6.402   8.245   0.552  0.5651 -0.0324  0.2067
32765SOL    HW1 1697   6.325   8.208   0.509  0.8866 -0.7849  0.2461
32765SOL    HW2 1698   6.443   8.300   0.486  2.2600 -2.8524 -1.2874
32766SOL     OW 1699   3.488   6.411   6.633 -0.0012 -0.1888  0.0117
32766SOL    HW1 1700   3.458   6.330   6.591  0.0505 -0.2082  0.0133
32766SOL    HW2 1701   3.463   6.401   6.725 -0.0732 -0.1655 -0.0052
32767SOL     OW 1702   4.879   2.224   6.950  0.8804 -0.1792  0.0467
32767SOL    HW1 1703   4.817   2.250   7.018  0.1254 -1.0173 -0.3009
32767SOL    HW2 1704   4.909   2.137   6.977  0.4690 -0.5782 -0.7646
32768SOL     OW 1705   0.705   5.465  10.434  0.5329 -0.3239  0.0521
32768SOL    HW1 1706   0.738   5.381  10.401  1.8848 -0.5045  1.7224
32768SOL    HW2 1707   0.782   5.507  10.472 -0.1642  1.6072 -0.5598
32769SOL     OW 1708   9.783   1.406  10.425  0.3581  0.7199 -0.1291
32769SOL    HW1 1709   9.850   1.422  10.359 -0.3644 -0.2900 -1.1617
32769SOL    HW2 1710   9.702   1.398  10.374 -0.0745 -1.0616  0.7399
32770SOL     OW 1711   1.951   7.081   3.607 -0.2385  0.3606 -0.1806
32770SOL    HW1 1712   1.974   6.990   3.622  0.6656  0.6942  0.5246
32770SOL    HW2 1713   1.872   7.095   3.659 -1.4583 -0.4811 -1.7116
32771SOL     OW 1714   4.175   8.791   1.315 -0.4364  0.1425 -0.2487
32771SOL    HW1 1715   4.178   8.883   1.342 -1.3513  0.1134  0.0061
32771SOL    HW2 1716   4.247   8.750   1.363 -0.8756  0.4621  0.7197
32772SOL     OW 1717   3.400   5.974   3.849  0.3309  0.0499 -0.1153
32772SOL    HW1 1718   3.488   6.007   3.870 -0.2405  1.7910 -0.3066
32772SOL    HW2 1719   3.344   6.051   3.855 -1.7475 -1.4818  2.9819
32773SOL     OW 1720   1.831   1.727   0.550 -0.1060 -0.6928 -0.6713
32773SOL    HW1 1721   1.920   1.753   0.530  1.0257 -1.7134  2.3755
32773SOL    HW2 1722   1.798   1.794   0.610 -1.0717 -0.7522 -1.1117
32774SOL     OW 1723   5.256  10.461   7.229  0.3097 -0.0148  0.0889
32774SOL    HW1 1724   5.160  10.455   7.235  0.3477 -2.1499 -0.5627
32774SOL    HW2 1725   5.275  10.554   7.239 -1.8129  0.4249  0.5132
32775SOL     OW 1726   9.854   0.690   0.776 -0.2436  0.1232 -0.1347
32775SOL    HW1 1727   9.881   0.777   0.747  2.4054 -0.3196  0.7685
32775SOL    HW2 1728   9.910   0.670   0.851 -1.2634 -2.0788  0.1345
32776SOL     OW 1729   7.011  10.608   8.797  0.0857  0.3371  0.0232
32776SOL    HW1 1730   6.918  10.591   8.814 -0.2644  1.0727 -1.0270
32776SOL    HW2 1731   7.014  10.631   8.704  1.5001 -0.8388 -0.2574
32777SOL     OW 1732   1.201   6.341   2.672  0.3439 -0.2406  0.3736
32777SOL    HW1 1733   1.191   6.380   2.585 -1.9620 -0.2056  0.6007
32777SOL    HW2 1734   1.286   6.297   2.668  1.0830  1.2096 -1.3041
32778SOL     OW 1735   0.384   6.353   8.368 -0.5581  0.4709 -0.0672
32778SOL    HW1 1736   0.394   6.268   8.409  0.2303 -0.5315 -2.2078
32778SOL    HW2 1737   0.463   6.401   8.391 -1.1751  0.8148  1.4545
32779SOL     OW 1738   4.109   0.919   1.420 -0.8513  0.2351 -0.4861
32779SOL    HW1 1739   4.126   0.851   1.355  1.0657 -0.9927  1.1576
32779SOL    HW2 1740   4.066   0.989   1.372 -2.2112 -1.7952 -2.4358
32780SOL     OW 1741   7.725  10.483   2.888  0.2010 -0.3814  0.9258
32780SOL    HW1 1742   7.768  10.567   2.903  0.3255 -0.2797  0.0684
32780SOL    HW2 1743   7.633  10.500   2.908  0.2395 -0.0546  0.8375
32781SOL     OW 1744   3.650   5.733   2.182  0.7030  0.4875 -0.0793
32781SOL    HW1 1745   3.728   5.686   2.153  0.2873 -0.6589  0.5836
32781SOL    HW2 1746   3.663   5.744   2.276  0.1370  0.4195  0.0081
32782SOL     OW 1747  10.140   6.801   7.925  0.2849 -0.1359 -0.0824
32782SOL    HW1 1748  10.113   6.792   7.834 -0.0301 -2.8073  0.2101
32782SOL    HW2 1749  10.088   6.736   7.972  1.7849 -0.1118  1.7187
32783SOL     OW 1750   5.414   9.109   6.586  0.2345 -0.1152 -0.0151
32783SOL    HW1 1751   5.340   9.170   6.580  0.0929 -0.3423 -0.6640
32783SOL    HW2 1752   5.390   9.050   6.658 -0.1883 -0.1383 -0.1682
32784SOL     OW 1753   9.799   0.839   6.296  1.0461  0.0312 -0.5184
32784SOL    HW1 1754   9.742   0.862   6.223  1.5701 -1.0693 -1.3077
32784SOL    HW2 1755   9.836   0.754   6.271  1.7240 -0.0605  0.7422
32785SOL     OW 1756   8.969   0.574  10.024 -0.0443  0.3526 -0.0177
32785SOL    HW1 1757   8.937   0.547   9.938  1.8354 -0.4445 -0.5302
32785SOL    HW2 1758   8.960   0.495  10.079  1.9760 -0.2698 -0.4880
32786SOL     OW 1759   9.194   2.109   5.777  0.0392  0.1467  0.4372
32786SOL    HW1 1760   9.194   2.038   5.842 -2.4170 -0.4970 -0.1380
32786SOL    HW2 1761   9.135   2.175   5.814 -0.1958  0.4452 -0.4622
32787SOL     OW 1762   0.634   4.366   2.946  0.4048  0.3387 -0.2305
32787SOL    HW1 1763   0.562   4.409   2.992  2.6085  1.6821  2.2219
32787SOL    HW2 1764   0.645   4.282   2.991  2.3559  1.5204  1.6940
32788SOL     OW 1765   7.288   4.974   9.438 -0.2766  0.1214  0.0459
32788SOL    HW1 1766   7.361   5.012   9.389 -0.4005 -0.8171 -0.9122
32788SOL    HW2 1767   7.306   4.880   9.437 -0.6077  0.0335  1.2922
32789SOL     OW 1768  10.875   3.150   7.537 -0.6255  0.1559 -0.1515
32789SOL    HW1 1769  10.800   3.152   7.478 -0.1892 -1.1913 -0.8024
32789SOL    HW2 1770  10.951   3.135   7.480 -0.2880 -2.0472  0.7627
32790SOL     OW 1771   5.563   8.582   9.035  0.0824  0.1951  0.1365
32790SOL    HW1 1772   5.570   8.509   9.097  1.0337  0.1934  0.0391
32790SOL    HW2 1773   5.613   8.653   9.076  0.1343  0.4171 -0.3044
32791SOL     OW 1774   0.941   2.680  10.650  0.2442 -0.0230  0.9394
32791SOL    HW1 1775   0.920   2.615  10.717 -1.4968  1.3093  1.7762
32791SOL    HW2 1776   0.876   2.667  10.582 -0.6376  1.2789  1.4786
32792SOL     OW 1777   2.000   3.338   6.016  0.1323 -0.9161  0.2748
32792SOL    HW1 1778   2.026   3.354   6.106  2.2881 -0.8054 -0.3038
32792SOL    HW2 1779   1.956   3.419   5.989  0.9585 -0.2896  0.7507
32793SOL     OW 1780   9.069   6.079   7.833  0.7114  0.4575  0.0355
32793SOL    HW1 1781   9.057   6.166   7.797  0.1975 -0.0064 -0.9449
32793SOL    HW2 1782   9.115   6.030   7.765 -1.0213 -0.6743 -0.3995
32794SOL     OW 1783   6.509   2.091   7.262  0.5222  0.1224 -0.0645
32794SOL    HW1 1784   6.535   2.014   7.314 -2.5221  0.2082  1.8193
32794SOL    HW2 1785   6.454   2.055   7.193 -0.8519  0.5238  0.7783
32795SOL     OW 1786   8.906   6.513   8.909 -0.0185  0.1571  0.0254
32795SOL    HW1 1787   8.903   6.601   8.870  1.7783  0.8021  1.2149
32795SOL    HW2 1788   8.881   6.527   9.000 -1.6206 -0.9133 -0.2260
32796SOL     OW 1789   5.822   2.872   4.437  0.0019  0.1915 -0.2713
32796SOL    HW1 1790   5.895   2.902   4.382 -1.9747  1.3226 -2.4620
32796SOL    HW2 1791   5.823   2.931   4.512  0.2469  1.3980 -1.1902
32797SOL     OW 1792   2.572   8.664   9.404  0.3239  0.4852 -0.2850
32797SOL    HW1 1793   2.478   8.660   9.421  0.3384  2.6670  0.6116
32797SOL    HW2 1794   2.579   8.669   9.309 -0.4159 -0.2096 -0.3880
32798SOL     OW 1795   1.482   3.649   1.165  0.2121  0.3109 -0.6007
32798SOL    HW1 1796   1.429   3.713   1.213  0.5688  1.8761 -2.1934
32798SOL    HW2 1797   1.418   3.601   1.113  0.1102  0.5271 -0.6781
32799SOL     OW 1798   9.833   0.185   4.823 -0.7114  0.0068  0.1625
32799SOL    HW1 1799   9.922   0.208   4.848 -1.1575  0.8996  1.0357
32799SOL    HW2 1800   9.784   0.267   4.832 -1.3819 -0.1756 -1.5060
32800SOL     OW 1801   5.014   8.821   1.257  0.3297  0.2863  0.0048
32800SOL    HW1 1802   5.054   8.866   1.332  1.1139 -1.0251  0.4008
32800SOL    HW2 1803   4.965   8.890   1.211  1.1414  1.4461  0.8233
32801SOL     OW 1804   0.228   5.460   9.098 -0.2132 -0.1167 -0.1599
32801SOL    HW1 1805   0.216   5.508   9.179  0.0635  0.8165 -0.6620
32801SOL    HW2 1806   0.322   5.460   9.083 -0.3577  0.8508 -1.1474
32802SOL     OW 1807   0.133   8.899   3.457 -1.0834  0.0734 -0.1819
32802SOL    HW1 1808   0.212   8.848   3.476 -1.3747 -1.0460 -1.7755
32802SOL    HW2 1809   0.070   8.871   3.523 -0.1309  1.0724  1.1875
32803SOL     OW 1810   2.886   9.220   5.332 -0.1385 -0.4017  0.0796
32803SOL    HW1 1811   2.916   9.141   5.377  0.7546  0.5225  1.1483
32803SOL    HW2 1812   2.791   9.210   5.327 -0.1171 -1.1777  0.9178
32804SOL     OW 1813   1.374   1.094   0.691 -0.0635  0.5221  0.6509
32804SOL    HW1 1814   1.307   1.040   0.733 -1.2176  1.6996  0.3957
32804SOL    HW2 1815   1.414   1.143   0.764 -0.1225  0.5058  0.6939
32805SOL     OW 1816   6.212   1.229   5.988 -0.2676  0.1096 -0.3123
32805SOL    HW1 1817   6.256   1.285   6.051  0.4290  0.9151 -1.4706
32805SOL    HW2 1818   6.119   1.250   5.997 -0.0853  0.8811 -0.1726
32806SOL     OW 1819   7.325   3.314   2.342  0.7147 -0.1703 -0.4620
32806SOL    HW1 1820   7.255   3.378   2.353  0.5645 -0.4548  0.2796
32806SOL    HW2 1821   7.319   3.288   2.250  3.7251  4.2682 -2.2347
32807SOL     OW 1822   6.729  10.098   0.918  0.0557  0.5809 -0.2925
32807SOL    HW1 1823   6.661  10.144   0.869 -2.0733 -1.1522  0.9031
32807SOL    HW2 1824   6.723  10.132   1.007 -1.7690 -2.0201  0.6987
32808SOL     OW 1825   8.282   0.809   6.889  0.5957  0.1759  0.2847
32808SOL    HW1 1826   8.204   0.831   6.837  1.0197  0.8534 -0.0847
32808SOL    HW2 1827   8.356   0.826   6.830  1.0151 -0.6841  0.5519
32809SOL     OW 1828   7.202   9.482   4.021  0.7159 -0.3446  0.2156
32809SOL    HW1 1829   7.287   9.510   3.988  0.4071 -0.4208 -0.7036
32809SOL    HW2 1830   7.155   9.454   3.942  0.9835 -3.4346  1.0358
32810SOL     OW 1831   9.049   0.515   3.457 -0.5370  0.5273 -0.0900
32810SOL    HW1 1832   9.001   0.597   3.468  0.0793  1.0539 -1.1352
32810SOL    HW2 1833   9.012   0.456   3.522 -1.8212  1.2568 -0.1307
32811SOL     OW 1834   9.610   2.309   6.178 -0.1493 -0.2454  0.0061
32811SOL    HW1 1835   9.547   2.272   6.239 -1.7069  2.0428 -0.0928
32811SOL    HW2 1836   9.559   2.370   6.124  2.0232  1.2836 -0.4718
32812SOL     OW 1837   0.404   8.212   8.097  0.1126 -0.3707 -0.1528
32812SOL    HW1 1838   0.364   8.142   8.149 -0.5447  0.8558  1.0307
32812SOL    HW2 1839   0.448   8.268   8.161 -1.2307  1.5155 -0.7942
32813SOL     OW 1840   5.981   1.829   7.602 -0.8088 -0.4212 -0.6721
32813SOL    HW1 1841   5.995   1.783   7.519 -0.3479  1.1083 -1.4781
32813SOL    HW2 1842   6.061   1.881   7.614 -2.2126  1.9677 -1.0249
32814SOL     OW 1843   7.146   0.025   0.901 -0.1941 -1.1387  0.9924
32814SOL    HW1 1844   7.114  -0.050   0.851  1.4483 -1.4876  0.4132
32814SOL    HW2 1845   7.099   0.020   0.984 -0.6830 -2.3573  0.6674
32815SOL     OW 1846   1.034   4.215   1.570 -0.6912  0.3906  0.0271
32815SOL    HW1 1847   1.028   4.230   1.664 -3.4285  1.0596 -0.1787
32815SOL    HW2 1848   1.008   4.298   1.531  2.3923  0.8098 -1.4301
32816SOL     OW 1849   4.885   3.922   3.002  0.0068 -0.0173 -0.1799
32816SOL    HW1 1850   4.941   3.932   2.925 -0.6730 -2.5590 -1.1225
32816SOL    HW2 1851   4.945   3.912   3.075  0.8036 -1.6462 -1.0146
32817SOL     OW 1852   8.093   1.336   0.026  0.0945 -0.0546 -0.6386
32817SOL    HW1 1853   8.105   1.333   0.121  2.0355  0.9032 -0.8092
32817SOL    HW2 1854   8.021   1.276   0.009 -0.2133 -0.3292  1.4277
32818SOL     OW 1855   1.465   2.647   3.314 -0.2220  0.0042 -0.3896
32818SOL    HW1 1856   1.413   2.695   3.378  0.0096  0.9692 -0.9169
32818SOL    HW2 1857   1.553   2.644   3.351 -0.2989 -0.2797 -0.2230
32819SOL     OW 1858   2.360  10.654   9.039  0.1835 -0.5512 -0.3010
32819SOL    HW1 1859   2.334  10.563   9.053 -1.7631  0.2041  1.4809
32819SOL    HW2 1860   2.433  10.668   9.099  0.8209 -1.0310 -0.9398
32820SOL     OW 1861   1.332   6.211  10.254 -0.3935 -0.2653 -0.1568
32820SOL    HW1 1862   1.355   6.133  10.305  1.7417  0.0821 -0.4623
32820SOL    HW2 1863   1.278   6.264  10.313  0.2340 -0.8455  0.9729
32821SOL     OW 1864   2.941   0.358   3.254  0.4504 -0.3743 -0.1605
32821SOL    HW1 1865   2.868   0.370   3.193  1.0954 -0.0120 -0.8868
32821SOL    HW2 1866   2.999   0.432   3.237  0.9813 -0.6446  0.4151
32822SOL     OW 1867  10.163   6.382   9.637 -0.0735  0.5425 -0.1036
32822SOL    HW1 1868  10.186   6.379   9.544 -1.9528 -0.2311 -0.5832
32822SOL    HW2 1869  10.185   6.472   9.664  1.8207  0.3456 -0.9007
32823SOL     OW 1870   7.517   8.890   1.234  0.0273 -0.1322 -0.3507
32823SOL    HW1 1871   7.550   8.841   1.159 -0.8776 -1.5348  0.1300
32823SOL    HW2 1872   7.588   8.887   1.298 -0.2434 -1.3733 -0.0930
32824SOL     OW 1873   9.008   1.957   0.192 -0.0069  0.1079 -0.0951
32824SOL    HW1 1874   9.060   1.892   0.144  0.6266 -1.1370  2.1725
32824SOL    HW2 1875   8.926   1.913   0.213 -0.0354  0.4211  0.4792
32825SOL     OW 1876   1.887   0.771   9.103  0.1855 -0.0265  0.1487
32825SOL    HW1 1877   1.817   0.815   9.151 -0.0775  0.4995 -0.6903
32825SOL    HW2 1878   1.954   0.753   9.169 -0.6947 -0.4670  0.9509
32826SOL     OW 1879   2.873   5.950  10.859  0.2267 -0.2252 -0.3249
32826SOL    HW1 1880   2.917   5.976  10.940 -1.5694  1.4253  0.2143
32826SOL    HW2 1881   2.782   5.978  10.872 -0.4593 -1.3689 -2.2995
32827SOL     OW 1882   6.834   8.683   8.796 -0.9319 -0.7069  0.8880
32827SOL    HW1 1883   6.906   8.619   8.786 -0.5214 -0.2135  0.6492
32827SOL    HW2 1884   6.849   8.722   8.882 -1.6650 -1.5104  1.3975
32828SOL     OW 1885   8.009   4.031   0.249  0.0916  0.2976  0.1554
32828SOL    HW1 1886   8.100   4.036   0.280  0.2082 -0.8016  0.0258
32828SOL    HW2 1887   8.013   3.974   0.173 -1.0138 -1.5088  1.3878
32829SOL     OW 1888   4.768   2.265   8.178  0.3916 -0.4296  0.2443
32829SOL    HW1 1889   4.775   2.312   8.261  1.4153  0.1567 -0.1565
32829SOL    HW2 1890   4.844   2.294   8.127 -2.7509  3.5037 -3.0521
32830SOL     OW 1891  10.217   2.907   1.492  0.4092  0.0384 -0.2425
32830SOL    HW1 1892  10.272   2.948   1.426  0.2110  1.3933  0.4030
32830SOL    HW2 1893  10.273   2.900   1.570  0.1552 -0.0643 -0.0638
32831SOL     OW 1894   2.361   7.185  10.247 -0.2322  0.3588  0.0057
32831SOL    HW1 1895   2.390   7.145  10.165  0.7775  0.1144  0.4631
32831SOL    HW2 1896   2.272   7.215  10.229 -0.5909 -1.0532 -0.7107
32832SOL     OW 1897   9.609   9.072   7.890  0.1501  0.0312  0.4189
32832SOL    HW1 1898   9.582   9.157   7.925 -1.1217  0.2240 -0.9239
32832SOL    HW2 1899   9.528   9.023   7.882  0.9443 -1.5937  1.8024
32833SOL     OW 1900   5.619   5.225   6.621 -0.0895 -0.0504  0.2735
32833SOL    HW1 1901   5.536   5.183   6.645  0.1163 -0.8001 -0.2897
32833SOL    HW2 1902   5.595   5.316   6.603 -0.6884 -0.1174  0.7060
32834SOL     OW 1903   8.924  10.533   2.942 -0.0005  0.0317  0.2631
32834SOL    HW1 1904   8.909  10.524   3.036 -0.6706  0.8263  0.2422
32834SOL    HW2 1905   8.957  10.447   2.915 -0.5265 -0.4450  1.0859
32835SOL     OW 1906   2.624   7.129   7.982 -0.3660  0.3734  0.0133
32835SOL    HW1 1907   2.678   7.155   8.057 -0.6507  3.0606 -0.6028
32835SOL    HW2 1908   2.549   7.189   7.985 -0.3242  0.6526 -2.4300
32836SOL     OW 1909   2.596  10.093   9.964 -0.3339 -0.0802  0.0186
32836SOL    HW1 1910   2.669  10.092  10.026 -1.5731  1.2745  1.5562
32836SOL    HW2 1911   2.518  10.078  10.017 -1.2116 -2.0532 -1.6563
32837SOL     OW 1912   8.429   4.717  10.711  0.3954  0.5822 -0.5857
32837SOL    HW1 1913   8.455   4.759  10.793 -1.4599 -0.2754  0.5214
32837SOL    HW2 1914   8.472   4.631  10.712  0.5036  0.6366 -0.5922
32838SOL     OW 1915   3.086  10.765   9.562  0.8219  0.0836  0.2743
32838SOL    HW1 1916   3.132  10.769   9.646  1.6609  0.8512 -0.2137
32838SOL    HW2 1917   3.023  10.693   9.573 -0.0578  1.0513  2.0492
32839SOL     OW 1918   3.329   8.579   3.274  0.2086 -0.2178 -0.9754
32839SOL    HW1 1919   3.421   8.554   3.273 -0.0889 -1.3890 -2.0205
32839SOL    HW2 1920   3.302   8.577   3.182 -0.7146  0.7290 -0.7586
32840SOL     OW 1921   4.541   0.525   1.781 -0.0091  0.0258 -0.0316
32840SOL    HW1 1922   4.466   0.582   1.794  0.2177  0.5257 -0.8314
32840SOL    HW2 1923   4.508   0.437   1.794 -1.5826 -0.0845 -3.6217
32841SOL     OW 1924   2.048   8.531   4.509 -0.3075 -0.5137 -0.4052
32841SOL    HW1 1925   1.994   8.471   4.457 -0.5006 -1.4520  0.8474
32841SOL    HW2 1926   2.131   8.534   4.461 -0.6821 -0.8698 -1.1067
32842SOL     OW 1927   1.164   1.339   3.738 -0.2330 -0.1616 -0.4150
32842SOL    HW1 1928   1.107   1.407   3.701  0.0723  0.5128  0.3271
32842SOL    HW2 1929   1.200   1.379   3.817 -0.5825 -1.4614  0.4082
32843SOL     OW 1930   2.210   0.172   0.041 -0.3681  0.1971  0.3067
32843SOL    HW1 1931   2.174   0.119   0.113 -1.4608 -3.3814 -2.5352
32843SOL    HW2 1932   2.301   0.145   0.034 -1.3040 -3.1283 -2.1993
32844SOL     OW 1933  10.194   1.174  10.669  0.3900  0.3666 -0.3658
32844SOL    HW1 1934  10.195   1.131  10.754  0.6707 -0.0673 -0.5868
32844SOL    HW2 1935  10.278   1.219  10.664 -0.2023  1.6033  0.1862
32845SOL     OW 1936   9.493  10.408   1.574 -0.6465  0.2950 -0.1082
32845SOL    HW1 1937   9.435  10.384   1.502 -1.6218  0.0024  0.7649
32845SOL    HW2 1938   9.567  10.347   1.566 -1.2560 -0.4329 -0.2271
32846SOL     OW 1939   5.401   7.012   0.229 -0.0485  0.3647  0.0983
32846SOL    HW1 1940   5.428   6.958   0.155 -2.5984 -1.1804  0.1753
32846SOL    HW2 1941   5.383   7.098   0.191 -1.6625 -0.5060 -1.2016
32847SOL     OW 1942   4.640   5.134   7.799 -0.9365  0.1405 -0.7570
32847SOL    HW1 1943   4.659   5.129   7.893 -0.9335  1.6651 -0.6471
32847SOL    HW2 1944   4.726   5.125   7.757 -1.1275 -2.4662 -0.7618
32848SOL     OW 1945   9.176   6.160   5.117  0.6307  0.1240 -0.3794
32848SOL    HW1 1946   9.247   6.137   5.177  0.8198  2.3807  0.3546
32848SOL    HW2 1947   9.178   6.256   5.112 -0.5559  0.1111 -2.5934
32849SOL     OW 1948   9.127   4.747   4.314  0.2175  0.0791  0.3228
32849SOL    HW1 1949   9.052   4.708   4.268  0.2818 -1.7866  1.6816
32849SOL    HW2 1950   9.181   4.784   4.244 -0.9645 -0.3314 -0.8536
32850SOL     OW 1951   0.438   7.984   5.754  0.4783  0.0427 -0.5853
32850SOL    HW1 1952   0.387   7.912   5.792  0.9800  0.0844  0.1838
32850SOL    HW2 1953   0.431   7.970   5.659 -0.1688 -0.5008 -0.4659
32851SOL     OW 1954   6.671   2.559   0.703 -0.1237  0.2757  0.2422
32851SOL    HW1 1955   6.599   2.573   0.641  0.2979  1.4207 -0.0198
32851SOL    HW2 1956   6.729   2.634   0.689  2.1796 -1.6336 -1.0008
32852SOL     OW 1957   2.116   3.130   1.958 -0.0872 -0.6683  0.0449
32852SOL    HW1 1958   2.193   3.134   2.015 -1.3264  0.4360  1.7467
32852SOL    HW2 1959   2.050   3.084   2.011 -0.9276 -0.6876 -0.9826
32853SOL     OW 1960   4.758   4.197  10.088 -0.7603  0.1790  0.0115
32853SOL    HW1 1961   4.745   4.102  10.084  0.0598 -0.0363  1.6490
32853SOL    HW2 1962   4.852   4.208  10.074 -0.9988  0.8642 -1.2051
32854SOL     OW 1963   0.051   7.866   1.015  0.1623  0.1890  0.6654
32854SOL    HW1 1964  -0.030   7.909   0.989 -0.0424 -0.9884 -0.7887
32854SOL    HW2 1965   0.091   7.837   0.933  2.9621  2.1989  1.1710
32855SOL     OW 1966   3.995   0.429  10.406 -0.2177  0.0926 -0.3049
32855SOL    HW1 1967   4.079   0.455  10.368 -1.5002  1.5026 -2.4186
32855SOL    HW2 1968   3.973   0.347  10.361 -0.4375  0.2942 -0.5759
32856SOL     OW 1969   5.068   6.405   0.034  0.0300  0.1630 -0.3000
32856SOL    HW1 1970   5.112   6.470   0.088  0.1934  1.5513 -2.0125
32856SOL    HW2 1971   4.976   6.432   0.035  0.0913  0.4299 -0.9713
32857SOL     OW 1972   2.639   0.949   6.623  0.3979  0.2749 -0.3403
32857SOL    HW1 1973   2.698   1.022   6.605 -1.4776  2.0732  0.4156
32857SOL    HW2 1974   2.668   0.914   6.707 -0.5410  2.2260  0.8678
32858SOL     OW 1975   3.358   8.321   6.551  0.1124  0.2415  0.2378
32858SOL    HW1 1976   3.294   8.377   6.507 -1.6966 -2.4829 -0.8859
32858SOL    HW2 1977   3.337   8.328   6.644 -1.0502  0.3007 -0.0224
32859SOL     OW 1978   5.778   9.593   9.006 -0.0449  0.0975  0.1764
32859SOL    HW1 1979   5.728   9.646   8.944 -1.1984 -2.6465 -1.4193
32859SOL    HW2 1980   5.779   9.645   9.086 -0.8985  2.5673 -1.2963
32860SOL     OW 1981   2.814   7.807   4.951  0.2668 -0.2973  1.0867
32860SOL    HW1 1982   2.741   7.831   5.008 -0.4209 -1.9563  0.9507
32860SOL    HW2 1983   2.845   7.723   4.985  0.2445 -1.0245 -0.5829
32861SOL     OW 1984   4.972   6.069   9.713 -0.2226 -0.5350  0.1285
32861SOL    HW1 1985   4.989   5.988   9.666 -2.0633 -1.7053  1.3745
32861SOL    HW2 1986   5.003   6.052   9.802  0.5987  0.6296  0.0887
32862SOL     OW 1987   9.569   8.266   9.235 -0.2483 -0.4530  0.4125
32862SOL    HW1 1988   9.570   8.188   9.290  1.1389 -0.6698  0.1264
32862SOL    HW2 1989   9.593   8.337   9.294  1.8593 -0.7758  0.0346
32863SOL     OW 1990   4.048  10.263   0.101 -0.2986 -0.0440 -0.8357
32863SOL    HW1 1991   4.107  10.320   0.052  1.5346  1.4076  2.6904
32863SOL    HW2 1992   4.095  10.180   0.109  1.6509  1.1876  2.1888
32864SOL     OW 1993   2.924   3.941   7.480  0.2706  0.0155 -0.3344
32864SOL    HW1 1994   3.010   3.937   7.438 -0.1950 -1.2202 -1.2377
32864SOL    HW2 1995   2.936   3.898   7.565  0.8108  0.9497  0.0750
32865SOL     OW 1996   8.778   5.754   1.916 -0.3233 -0.0124 -0.4076
32865SOL    HW1 1997   8.769   5.689   1.846  1.6297 -1.6142  0.6888
32865SOL    HW2 1998   8.856   5.725   1.964 -0.9534  1.6561  1.7524
32866SOL     OW 1999   0.890   4.258   0.832  0.1472 -0.4893 -0.2140
32866SOL    HW1 2000   0.947   4.184   0.813  0.9136  0.0328 -0.0138
32866SOL    HW2 2001   0.887   4.262   0.928 -0.8371 -0.9600 -0.2108
32867SOL     OW 2002   0.851   8.553   2.370  0.4234 -0.2600 -0.0026
32867SOL    HW1 2003   0.819   8.463   2.363  1.8559 -0.7619 -0.5535
32867SOL    HW2 2004   0.907   8.553   2.447 -0.0091  0.3188  0.3195
32868SOL     OW 2005   6.890   5.936   1.597  0.0414 -0.0599  0.3368
32868SOL    HW1 2006   6.936   6.002   1.546 -0.3325 -0.0315  0.0381
32868SOL    HW2 2007   6.831   5.987   1.654  0.0477 -0.1172  0.3950
32869SOL     OW 2008   2.533   0.227   5.528  0.0214 -0.4016 -0.2660
32869SOL    HW1 2009   2.445   0.224   5.492 -0.6028 -0.1290  1.1712
32869SOL    HW2 2010   2.580   0.289   5.471 -0.5753 -0.8557 -1.2843
32870SOL     OW 2011   7.485   4.638   2.890 -0.2987 -0.1636  0.1753
32870SOL    HW1 2012   7.557   4.667   2.833 -0.6630 -0.0567 -0.2399
32870SOL    HW2 2013   7.473   4.711   2.951 -0.4820  0.0963 -0.1664
32871SOL     OW 2014   9.479   2.208   2.078 -0.2095  0.2359 -0.1765
32871SOL    HW1 2015   9.535   2.266   2.027 -0.4415  0.2397 -0.4293
32871SOL    HW2 2016   9.466   2.253   2.161 -0.9498  0.8748 -0.6257
32872SOL     OW 2017   1.045   4.286   3.692 -0.2369 -0.1543  0.2053
32872SOL    HW1 2018   1.075   4.206   3.649  1.6874  0.6820 -0.1087
32872SOL    HW2 2019   0.960   4.303   3.652 -1.0168 -2.3689  0.7644
32873SOL     OW 2020   1.428  10.141   0.065 -0.2170 -0.2904  0.2218
32873SOL    HW1 2021   1.336  10.122   0.049 -0.2340 -0.2969  0.3212
32873SOL    HW2 2022   1.437  10.235   0.054 -0.3888 -0.1833  0.9340
32874SOL     OW 2023   4.695   6.364   3.726  0.0009  0.4117  0.3401
32874SOL    HW1 2024   4.609   6.330   3.700 -1.0436  2.6523  0.5856
32874SOL    HW2 2025   4.746   6.286   3.748 -2.3859 -0.9764  1.4477
32875SOL     OW 2026   5.148   5.399   5.087  0.2654  0.2179  0.2056
32875SOL    HW1 2027   5.085   5.466   5.064 -1.1723 -1.2859 -0.4287
32875SOL    HW2 2028   5.099   5.338   5.143  0.5971 -1.8416 -1.5918
32876SOL     OW 2029   9.712   9.258   2.581  0.3699 -0.6886 -0.3969
32876SOL    HW1 2030   9.807   9.248   2.585  0.4227  0.0111  0.1557
32876SOL    HW2 2031   9.692   9.253   2.487  0.8994 -1.2227 -0.4922
32877SOL     OW 2032   3.335   3.638   3.037 -0.1848 -0.5009 -0.3044
32877SOL    HW1 2033   3.426   3.609   3.042 -0.3859 -1.0773  0.2315
32877SOL    HW2 2034   3.290   3.584   3.103 -0.8075  0.1522 -0.1881
32878SOL     OW 2035   7.439  10.445   4.640 -0.1273 -0.0343  0.8256
32878SOL    HW1 2036   7.506  10.381   4.617 -0.4720 -0.1651  0.1441
32878SOL    HW2 2037   7.484  10.530   4.636  0.3560 -0.2321  1.8303
32879SOL     OW 2038   2.744   0.006   4.027 -0.2605 -0.2810 -0.6312
32879SOL    HW1 2039   2.819   0.039   3.979 -0.3409 -1.2145 -1.4280
32879SOL    HW2 2040   2.668   0.034   3.976 -0.3494 -1.2228 -1.0345
32880SOL     OW 2041   8.020   2.967   3.510  0.0955 -0.0892 -0.0205
32880SOL    HW1 2042   8.115   2.959   3.505  0.1732  1.3005 -1.9707
32880SOL    HW2 2043   8.005   3.059   3.534 -0.7544 -0.0118 -0.7938
32881SOL     OW 2044   3.748   0.647   2.371 -0.5797  0.1163 -0.1544
32881SOL    HW1 2045   3.744   0.573   2.431  0.6537  0.0998 -0.0591
32881SOL    HW2 2046   3.677   0.705   2.398 -2.5330 -1.6875 -1.1691
32882SOL     OW 2047   3.767   4.040  10.430 -0.0656  0.4121  0.7435
32882SOL    HW1 2048   3.675   4.035  10.458 -0.1269 -1.3319  0.3593
32882SOL    HW2 2049   3.784   3.955  10.389  0.9491  1.6674 -1.6363
32883SOL     OW 2050   6.457  10.126   6.511 -0.2051  0.3874  0.2181
32883SOL    HW1 2051   6.417  10.059   6.456  2.8737 -0.7731 -0.8349
32883SOL    HW2 2052   6.479  10.198   6.451  1.2397  0.0290  0.2656
32884SOL     OW 2053   1.724   5.285   8.747  0.5944 -0.9914 -0.0678
32884SOL    HW1 2054   1.766   5.274   8.833 -1.1014  0.5735  1.0158
32884SOL    HW2 2055   1.642   5.236   8.754  0.8536 -1.6169 -1.1570
32885SOL     OW 2056   9.924   7.610   8.180  0.2359  0.1025  0.2722
32885SOL    HW1 2057   9.943   7.669   8.107  0.5139  1.2656  1.2694
32885SOL    HW2 2058  10.010   7.593   8.220  0.2558 -1.5167 -0.3815
32886SOL     OW 2059   6.708   9.785   8.645  0.3363 -0.2753  0.4885
32886SOL    HW1 2060   6.623   9.821   8.617  0.0691 -0.6146  0.8635
32886SOL    HW2 2061   6.770   9.818   8.579 -0.4179 -1.8373 -1.0941
32887SOL     OW 2062  10.858   6.310   0.211  0.0084  0.4331  0.0679
32887SOL    HW1 2063  10.847   6.223   0.172  0.7644  0.6956 -0.7714
32887SOL    HW2 2064  10.867   6.293   0.305 -2.6893 -0.1461  0.2869
32888SOL     OW 2065   8.401   6.546   2.786  0.9907 -0.4823  0.4122
32888SOL    HW1 2066   8.415   6.486   2.713 -1.4755  0.6882 -1.1611
32888SOL    HW2 2067   8.382   6.630   2.744 -0.2998  0.2805  2.4117
32889SOL     OW 2068   5.783   3.993   3.373  0.0924  0.3068 -0.2353
32889SOL    HW1 2069   5.851   4.019   3.311  0.1734 -1.0325 -0.7426
32889SOL    HW2 2070   5.755   4.075   3.414  0.6850  1.1047 -1.3792
32890SOL     OW 2071   7.080   1.173   0.684 -0.0676 -0.1182 -0.5051
32890SOL    HW1 2072   7.006   1.209   0.636 -1.3376 -1.8378  0.0741
32890SOL    HW2 2073   7.145   1.153   0.616 -1.0669 -0.7316 -1.3089
32891SOL     OW 2074   7.890   8.902   0.477 -0.6847  0.0777 -0.3834
32891SOL    HW1 2075   7.897   8.946   0.562 -0.2765  0.0968 -0.4287
32891SOL    HW2 2076   7.804   8.859   0.480 -0.5748 -0.1119  0.1294
32892SOL     OW 2077   2.176   7.676   4.826 -0.1530  0.1670  0.1560
32892SOL    HW1 2078   2.211   7.714   4.745 -0.5504  0.0467 -0.0751
32892SOL    HW2 2079   2.089   7.644   4.802  0.0760 -0.6783  0.4000
32893SOL     OW 2080   0.346   9.160   2.242 -0.7772  0.0749 -0.1755
32893SOL    HW1 2081   0.285   9.231   2.263  0.4782  1.2424 -0.3567
32893SOL    HW2 2082   0.411   9.162   2.312  0.1120  0.0976 -0.9806
32894SOL     OW 2083   0.413   0.886   8.196 -0.6397 -0.1380 -0.3357
32894SOL    HW1 2084   0.476   0.872   8.125  0.7002 -0.2428  0.8186
32894SOL    HW2 2085   0.402   0.981   8.199  0.0673 -0.0523 -0.0771
32895SOL     OW 2086   7.109  10.866   0.180  0.3366  0.5633 -0.5299
32895SOL    HW1 2087   7.030  10.911   0.150 -0.5786 -0.5888  0.0806
32895SOL    HW2 2088   7.145  10.925   0.247 -0.9697  0.3218  0.4218
32896SOL     OW 2089   2.326   7.022   3.126 -0.0019  0.0723 -0.3276
32896SOL    HW1 2090   2.250   7.075   3.150  0.9553  0.9616  0.8583
32896SOL    HW2 2091   2.289   6.947   3.078 -1.7885 -0.4100  1.6696
32897SOL     OW 2092   3.682   3.440   0.535 -0.8324  0.4204  0.3136
32897SOL    HW1 2093   3.670   3.389   0.615  0.5214 -1.0462 -0.3710
32897SOL    HW2 2094   3.690   3.531   0.566 -1.4129  0.0237  1.7207
32898SOL     OW 2095   6.922   3.712   2.796  0.2494 -0.1842 -0.0892
32898SOL    HW1 2096   6.999   3.658   2.812  0.1803 -0.4902 -0.7358
32898SOL    HW2 2097   6.927   3.782   2.861  1.9897  0.7901 -1.1990
32899SOL     OW 2098   4.481   5.329   6.659 -0.3502  0.0276  0.4682
32899SOL    HW1 2099   4.560   5.373   6.691 -1.1623 -1.0259  4.3989
32899SOL    HW2 2100   4.418   5.336   6.730 -2.8185 -1.7597 -1.3440
32900SOL     OW 2101   8.753   3.433   1.444  0.1088 -0.4264 -0.3437
32900SOL    HW1 2102   8.793   3.475   1.520 -1.6120  0.2930  0.2084
32900SOL    HW2 2103   8.687   3.375   1.480 -1.5795  0.8223 -1.2702
32901SOL     OW 2104   1.403   9.237   0.672 -0.3117 -0.3484 -0.0688
32901SOL    HW1 2105   1.362   9.162   0.628  0.7315 -2.3070  2.0535
32901SOL    HW2 2106   1.368   9.235   0.761  1.2813  0.3718  0.6276
32902SOL     OW 2107   4.925   8.137   5.986  0.1287 -0.4856  0.5298
32902SOL    HW1 2108   4.935   8.210   6.048 -1.1580 -0.0496  0.2634
32902SOL    HW2 2109   4.831   8.119   5.986  0.1828 -0.8468 -0.8842
32903SOL     OW 2110   6.650   4.881   2.713  0.3431  0.4220  0.1402
32903SOL    HW1 2111   6.580   4.925   2.664  0.5694  1.5141  0.7780
32903SOL    HW2 2112   6.604   4.828   2.777  0.0847  1.1727  0.5880
32904SOL     OW 2113   2.475   7.369   1.576 -0.9363 -0.0176  0.0342
32904SOL    HW1 2114   2.565   7.338   1.571 -0.9568 -0.5942  2.2471
32904SOL    HW2 2115   2.460   7.386   1.669 -2.8369  0.9345 -0.3848
32905SOL     OW 2116   3.443   8.394  10.885  0.9220  0.1884  0.1293
32905SOL    HW1 2117   3.355   8.366  10.909  0.0215  1.4222 -1.5686
32905SOL    HW2 2118   3.479   8.320  10.836  0.5908 -0.0667  0.2693
32906SOL     OW 2119   2.829   2.534   6.973 -0.0671 -0.0049 -0.3161
32906SOL    HW1 2120   2.738   2.561   6.965 -0.2659 -0.9729 -1.5538
32906SOL    HW2 2121   2.866   2.550   6.886  0.3759 -1.5931 -0.4420
32907SOL     OW 2122   9.417  10.792  10.092  0.5233  0.2517  0.4210
32907SOL    HW1 2123   9.414  10.726  10.023 -0.8473  0.7524 -0.0395
32907SOL    HW2 2124   9.506  10.788  10.127  0.0421 -3.0474  1.6136
32908SOL     OW 2125   7.571   8.183   2.898  0.2699  0.2034 -0.9286
32908SOL    HW1 2126   7.651   8.134   2.883 -1.0501 -2.0429 -1.0501
32908SOL    HW2 2127   7.526   8.183   2.814  0.4766  2.2397 -1.1070
32909SOL     OW 2128  10.617   6.909   5.721 -0.0096 -0.4027  0.9484
32909SOL    HW1 2129  10.635   7.000   5.696 -0.4134 -0.4007  0.6614
32909SOL    HW2 2130  10.602   6.913   5.816  1.1798 -0.3589  1.1533
32910SOL     OW 2131   0.854  10.756   3.131  0.3355  0.5444 -0.2456
32910SOL    HW1 2132   0.936  10.735   3.177  0.3012  0.8017 -0.0619
32910SOL    HW2 2133   0.855  10.852   3.123 -0.2368  0.6015  0.2985
32911SOL     OW 2134  10.689   2.280   6.349  0.1935 -0.3762  0.4328
32911SOL    HW1 2135  10.655   2.292   6.260  0.4642 -2.8691 -0.0632
32911SOL    HW2 2136  10.753   2.350   6.360 -0.7444  0.7443 -0.8333
32912SOL     OW 2137   4.271   5.350   8.941 -0.1639  0.1946  0.0219
32912SOL    HW1 2138   4.232   5.408   9.007  1.2333  2.5281 -1.0575
32912SOL    HW2 2139   4.202   5.286   8.921 -2.0976  1.9226  0.7860
32913SOL     OW 2140   4.372   4.222   5.081  0.4795 -0.4495  0.3056
32913SOL    HW1 2141   4.384   4.219   5.175 -0.4201  0.3941  0.4726
32913SOL    HW2 2142   4.350   4.314   5.063  0.1043 -0.7124 -0.6424
32914SOL     OW 2143   8.994   8.350   9.338  0.4553 -0.3703  0.2553
32914SOL    HW1 2144   8.976   8.405   9.415 -1.7115 -0.9146  0.2050
32914SOL    HW2 2145   8.939   8.386   9.269  2.5278  0.2360 -1.1754
32915SOL     OW 2146   2.110   6.333   6.620 -0.6063 -0.2912  0.5059
32915SOL    HW1 2147   2.154   6.264   6.670 -0.1453  0.3245  0.9746
32915SOL    HW2 2148   2.041   6.365   6.678 -0.5345 -0.0646  0.4689
32916SOL     OW 2149   0.450   2.572  10.042  0.2174 -0.8311  0.1924
32916SOL    HW1 2150   0.520   2.628  10.010  0.6935 -1.3117  0.3600
32916SOL    HW2 2151   0.462   2.571  10.137  0.1571 -1.1272  0.1993
32917SOL     OW 2152   0.109   4.361   7.335 -0.1329  0.2008  0.0655
32917SOL    HW1 2153   0.157   4.374   7.253  0.0001  1.2388  0.2838
32917SOL    HW2 2154   0.067   4.446   7.351  1.0103  0.4937  1.8028
32918SOL     OW 2155   2.846   7.487   1.559 -0.0874  0.0502 -0.4233
32918SOL    HW1 2156   2.801   7.506   1.642 -0.6691 -1.8778 -0.2627
32918SOL    HW2 2157   2.939   7.484   1.582 -0.3132 -1.3762  0.3615
32919SOL     OW 2158   4.094   6.873   3.884  0.1264 -0.2397 -0.3984
32919SOL    HW1 2159   4.164   6.877   3.819 -0.9221  1.2534 -1.4972
32919SOL    HW2 2160   4.031   6.939   3.856 -0.1285  0.8653  2.4280
32920SOL     OW 2161   4.528   2.088   0.317  0.4363 -0.1135  0.1011
32920SOL    HW1 2162   4.501   2.179   0.314 -0.7168 -0.4579 -0.8474
32920SOL    HW2 2163   4.622   2.091   0.336  0.7199  1.3367 -1.3524
32921SOL     OW 2164   4.178   4.234   2.539  0.1667 -0.2994 -0.3485
32921SOL    HW1 2165   4.150   4.144   2.556 -2.3898  0.2293 -1.4504
32921SOL    HW2 2166   4.106   4.274   2.491  1.5653  2.1416 -0.5922
32922SOL     OW 2167   9.743   6.994   0.469  0.5677  0.4910 -0.2719
32922SOL    HW1 2168   9.714   6.904   0.453 -1.1136  0.3051  2.9624
32922SOL    HW2 2169   9.665   7.047   0.452  1.0914  1.1423 -0.6476
32923SOL     OW 2170  10.917  10.822   6.715 -0.0567  0.4210  0.0666
32923SOL    HW1 2171  10.834  10.806   6.759  0.0613  0.9147  0.4764
32923SOL    HW2 2172  10.983  10.788   6.774 -0.0162 -0.9485 -0.7408
32924SOL     OW 2173   2.685   5.050  10.164 -0.2796 -0.5919 -0.1418
32924SOL    HW1 2174   2.729   5.073  10.246 -0.6201 -3.4314  0.9506
32924SOL    HW2 2175   2.592   5.059  10.183 -0.3911 -1.9766  0.0932
32925SOL     OW 2176   1.201   3.229   1.676  0.0075  0.6187 -0.0477
32925SOL    HW1 2177   1.180   3.138   1.656 -0.9988  1.0266 -0.9256
32925SOL    HW2 2178   1.270   3.223   1.742 -0.7557 -0.7830  0.6920
32926SOL     OW 2179   8.447   9.138   9.724  0.2404 -0.2811 -0.1080
32926SOL    HW1 2180   8.390   9.128   9.647  1.1784 -0.3421 -0.8124
32926SOL    HW2 2181   8.454   9.049   9.760  1.7315 -0.7301 -1.3880
32927SOL     OW 2182   7.023   9.759   2.693 -0.2683 -0.9502  0.4570
32927SOL    HW1 2183   7.098   9.773   2.636  0.1768 -2.3717  0.6526
32927SOL    HW2 2184   7.024   9.834   2.753  0.4382 -0.4916 -0.1142
32928SOL     OW 2185   9.499   8.369   5.865  0.3140  0.2551 -0.4255
32928SOL    HW1 2186   9.503   8.423   5.943 -2.3738  1.0958 -0.7575
32928SOL    HW2 2187   9.500   8.279   5.898 -0.4374  0.5977  0.5674
32929SOL     OW 2188   0.565  10.119   6.228 -0.2865  0.4141  0.2655
32929SOL    HW1 2189   0.640  10.093   6.282 -0.9114 -1.3937  0.3309
32929SOL    HW2 2190   0.563  10.055   6.157 -2.3110 -0.1750  0.7947
32930SOL     OW 2191  10.446   6.682   8.470 -0.5385 -0.5505  0.2583
32930SOL    HW1 2192  10.372   6.623   8.458 -1.1500  0.6386 -2.4008
32930SOL    HW2 2193  10.499   6.672   8.391 -0.1896  1.7826  0.1197
32931SOL     OW 2194  10.276   5.109   7.228 -0.0368  0.2928  0.0760
32931SOL    HW1 2195  10.332   5.099   7.306  3.3175  1.4172 -1.9646
32931SOL    HW2 2196  10.266   5.020   7.195 -0.0447 -0.0083  0.8545
32932SOL     OW 2197   5.093   5.753   6.174  0.1934  0.0696  0.1663
32932SOL    HW1 2198   5.097   5.787   6.263 -0.6994  1.4693 -0.3076
32932SOL    HW2 2199   5.067   5.661   6.184  2.2547 -0.4372  1.4459
32933SOL     OW 2200   7.703   9.880   6.703  0.1186  0.2344 -0.0450
32933SOL    HW1 2201   7.784   9.930   6.707 -1.3235  2.8113 -0.4796
32933SOL    HW2 2202   7.704   9.839   6.617  0.6377  0.9093 -0.3729
32934SOL     OW 2203   2.399   2.356   0.216 -0.0945  0.4409 -0.1060
32934SOL    HW1 2204   2.464   2.339   0.283  0.8187 -0.9928 -1.2794
32934SOL    HW2 2205   2.439   2.422   0.159 -0.6405  1.2554  0.4421
32935SOL     OW 2206   7.857   2.167   3.084 -0.1857  0.2942  0.3471
32935SOL    HW1 2207   7.826   2.101   3.023 -0.8425  0.6088  0.3295
32935SOL    HW2 2208   7.777   2.201   3.125  0.2533 -0.1451  1.6244
32936SOL     OW 2209   2.290   0.603   2.440 -0.2580 -0.1412  0.2920
32936SOL    HW1 2210   2.209   0.649   2.463  0.7470  1.3545  0.9757
32936SOL    HW2 2211   2.261   0.529   2.387 -2.2020 -0.5051  1.7467
32937SOL     OW 2212   4.887   0.660   4.126 -0.7139  0.1647  0.4262
32937SOL    HW1 2213   4.846   0.573   4.116 -3.2924  1.3031  0.1630
32937SOL    HW2 2214   4.814   0.721   4.114  1.2716  2.4354 -0.7592
32938SOL     OW 2215   7.468   3.019   6.415  0.6452 -0.1276  0.6009
32938SOL    HW1 2216   7.451   3.070   6.494  1.1779 -0.6582  1.0634
32938SOL    HW2 2217   7.524   2.947   6.444 -2.4236 -2.7350  0.5615
32939SOL     OW 2218   6.468   6.716   4.375  0.7562 -0.1109 -1.2577
32939SOL    HW1 2219   6.413   6.750   4.304 -0.0549  0.7781 -0.2299
32939SOL    HW2 2220   6.517   6.645   4.334 -2.1479 -1.9031 -1.8938
32940SOL     OW 2221   2.340   4.714   2.225 -0.6165  0.1319  0.6240
32940SOL    HW1 2222   2.420   4.762   2.202 -2.3233  3.0255  0.2604
32940SOL    HW2 2223   2.318   4.744   2.313  0.2658 -3.0627  2.1035
32941SOL     OW 2224   4.080   3.668   7.612  0.4546 -0.0073 -0.0602
32941SOL    HW1 2225   4.160   3.618   7.597 -1.0710 -2.7438  0.4017
32941SOL    HW2 2226   4.046   3.685   7.524  1.1940  0.6532 -0.2340
32942SOL     OW 2227  10.353  10.354   7.506  0.2459 -0.4611  0.5546
32942SOL    HW1 2228  10.448  10.358   7.494  0.0990 -0.8549 -0.9333
32942SOL    HW2 2229  10.339  10.281   7.566  0.8383 -1.1334 -0.1055
32943SOL     OW 2230   3.739   4.998   4.889 -0.1553  0.0906  0.2709
32943SOL    HW1 2231   3.727   5.021   4.982  1.7289  2.7156 -0.0055
32943SOL    HW2 2232   3.651   5.003   4.852 -1.1847 -2.3350  2.0721
32944SOL     OW 2233   9.884   7.253   4.473 -0.1386  0.0348 -0.0199
32944SOL    HW1 2234   9.914   7.277   4.561 -0.9051  0.6634  0.0816
32944SOL    HW2 2235   9.829   7.327   4.446 -0.5255 -0.5021 -0.7140
32945SOL     OW 2236   5.575   0.240   5.467  1.0064 -0.2676  0.6206
32945SOL    HW1 2237   5.660   0.227   5.425  0.3487 -1.4808 -0.3963
32945SOL    HW2 2238   5.574   0.333   5.491  2.4212 -0.1343  0.2236
32946SOL     OW 2239   9.507   3.607   9.156 -0.3270 -0.3143 -0.1346
32946SOL    HW1 2240   9.475   3.600   9.246 -0.1305 -0.6799 -0.0932
32946SOL    HW2 2241   9.567   3.534   9.145 -1.6820 -1.3410 -1.1232
32947SOL     OW 2242   9.503   8.237   1.487 -0.3178 -0.0615  0.5182
32947SOL    HW1 2243   9.510   8.142   1.476  1.7945 -0.1442  1.9248
32947SOL    HW2 2244   9.427   8.248   1.545  0.3602 -1.0706  1.6669
32948SOL     OW 2245   3.522   8.024   9.883 -0.2672 -0.0329 -0.3169
32948SOL    HW1 2246   3.575   8.104   9.874  1.9727 -1.5440 -1.6809
32948SOL    HW2 2247   3.540   7.976   9.802  1.7430 -3.7312  2.0626
32949SOL     OW 2248   4.801   3.895   5.441 -0.5468  0.1912  0.2714
32949SOL    HW1 2249   4.742   3.970   5.453  0.4591  0.8935  0.9622
32949SOL    HW2 2250   4.889   3.933   5.445 -0.0178 -1.0630  0.9316
32950SOL     OW 2251   3.853   0.170   8.965  0.3682 -0.1778  0.1532
32950SOL    HW1 2252   3.887   0.129   8.886  1.8360 -0.7711  1.0353
32950SOL    HW2 2253   3.777   0.118   8.989  1.0681 -1.2044  0.1906
32951SOL     OW 2254   3.057   0.173   6.160 -0.5231  0.4501 -0.4318
32951SOL    HW1 2255   3.010   0.142   6.082 -0.6845  0.0077 -0.1660
32951SOL    HW2 2256   3.103   0.095   6.192 -2.9204 -0.2270  1.6923
32952SOL     OW 2257   8.288  10.471   9.170 -0.4341 -0.1053  0.1271
32952SOL    HW1 2258   8.234  10.414   9.225 -0.1986  0.4989  0.9906
32952SOL    HW2 2259   8.370  10.422   9.158 -0.3963 -0.1325  0.5068
32953SOL     OW 2260   3.883   1.600   8.248 -0.1125 -0.0226 -0.1584
32953SOL    HW1 2261   3.889   1.547   8.168 -1.2352 -0.0249 -0.2510
32953SOL    HW2 2262   3.967   1.586   8.291 -0.3830 -1.9301 -0.1649
32954SOL     OW 2263   6.126   3.765   7.968  0.7942 -0.1569 -0.0191
32954SOL    HW1 2264   6.099   3.847   8.011 -1.3941 -0.4500 -0.7064
32954SOL    HW2 2265   6.131   3.788   7.875  3.5068 -0.0309  0.0751
32955SOL     OW 2266   1.847   0.330   5.193  0.2778  0.4803 -0.0001
32955SOL    HW1 2267   1.810   0.361   5.275  2.8030  0.5569  1.2130
32955SOL    HW2 2268   1.815   0.392   5.127 -3.3913 -0.7062  0.4791
32956SOL     OW 2269   2.009   7.800   2.883  1.0791 -0.7465  0.7039
32956SOL    HW1 2270   2.000   7.887   2.921  0.7501  0.1293 -1.2357
32956SOL    HW2 2271   2.095   7.769   2.912  1.1353  0.1510  1.5302
32957SOL     OW 2272   5.877   7.303   3.094 -0.1917  0.0521  0.2441
32957SOL    HW1 2273   5.951   7.243   3.107 -0.1259  0.3784  1.5049
32957SOL    HW2 2274   5.812   7.252   3.046  0.8110 -0.2618 -0.8333
32958SOL     OW 2275   1.375   2.135  10.242  0.2542 -0.0992 -0.4424
32958SOL    HW1 2276   1.435   2.062  10.223  0.5590 -0.0889  0.4213
32958SOL    HW2 2277   1.408   2.207  10.189  2.2597  0.5001  1.4357
32959SOL     OW 2278   3.758   1.035   9.682  0.1322 -0.1535 -0.5510
32959SOL    HW1 2279   3.734   1.082   9.602 -0.6290 -1.2405 -0.9805
32959SOL    HW2 2280   3.691   0.967   9.691  1.2119 -1.1733  0.0452
32960SOL     OW 2281   7.090   8.668  10.094 -0.5710 -0.4857  0.3570
32960SOL    HW1 2282   7.173   8.690  10.052 -0.8223 -0.9049 -0.3748
32960SOL    HW2 2283   7.105   8.686  10.187 -0.6925  2.6703 -0.1022
32961SOL     OW 2284   7.535   0.919   6.160 -0.8437  0.1989  0.2717
32961SOL    HW1 2285   7.565   1.001   6.119 -0.2327 -0.0710  0.1679
32961SOL    HW2 2286   7.548   0.852   6.093 -0.9466 -0.0533  0.5036
32962SOL     OW 2287   9.323   7.293   0.026 -0.8880 -0.0196  0.4484
32962SOL    HW1 2288   9.412   7.258   0.022 -1.0132 -0.2707 -0.5133
32962SOL    HW2 2289   9.332   7.379   0.067 -0.4946 -0.9312  2.3642
32963SOL     OW 2290   5.086   1.518   4.155  0.0301  0.8590  0.2620
32963SOL    HW1 2291   5.022   1.479   4.096 -0.4256 -0.8907  1.8027
32963SOL    HW2 2292   5.107   1.603   4.116 -3.1298  1.4759 -0.3851
32964SOL     OW 2293   3.827   2.305   3.651  0.2803 -0.3094 -0.0766
32964SOL    HW1 2294   3.870   2.317   3.566 -1.8836  0.9694 -1.0790
32964SOL    HW2 2295   3.881   2.357   3.712  0.4876  0.8320 -1.1784
32965SOL     OW 2296   0.226   1.853   5.713  0.1813  0.0960  0.2974
32965SOL    HW1 2297   0.309   1.845   5.665  0.3177 -0.1615  0.5696
32965SOL    HW2 2298   0.159   1.858   5.645  0.5107  1.4923  0.0340
32966SOL     OW 2299   5.599   3.211   4.549  0.2723  0.1742 -0.4037
32966SOL    HW1 2300   5.636   3.211   4.638 -0.5995  0.0120 -0.0339
32966SOL    HW2 2301   5.671   3.242   4.494  0.0695  2.8451  0.6713
32967SOL     OW 2302   2.528   0.398   3.466 -0.1684 -0.0205 -0.4832
32967SOL    HW1 2303   2.597   0.465   3.471 -0.3823  0.1728  0.0065
32967SOL    HW2 2304   2.516   0.370   3.557 -1.8496  1.1002 -0.3278
32968SOL     OW 2305  10.468   4.498  10.084  0.4229 -0.2519  0.5755
32968SOL    HW1 2306  10.444   4.556  10.157 -1.6274  0.1642 -0.3496
32968SOL    HW2 2307  10.545   4.538  10.046  0.3462  0.6342  1.3108
32969SOL     OW 2308   6.040   5.613   4.127  0.4067 -0.3066 -0.1398
32969SOL    HW1 2309   6.037   5.702   4.162 -1.7743 -0.6792  0.8208
32969SOL    HW2 2310   5.961   5.607   4.072  2.2555 -0.6411 -2.9512
32970SOL     OW 2311   4.522   3.232   7.332  0.4683 -0.1592  0.1250
32970SOL    HW1 2312   4.507   3.320   7.297 -0.6575 -1.1256 -2.1066
32970SOL    HW2 2313   4.613   3.212   7.309  0.2930 -0.0828 -0.6811
32971SOL     OW 2314   4.517   7.511   8.179  0.2526  0.0540 -0.4290
32971SOL    HW1 2315   4.585   7.451   8.149 -0.7424 -0.6601 -1.3479
32971SOL    HW2 2316   4.490   7.477   8.264  0.5726 -0.0487 -0.3683
32972SOL     OW 2317   2.182   0.743   4.753  0.7084 -0.2816 -0.2968
32972SOL    HW1 2318   2.259   0.795   4.776  0.3432  0.2434 -0.2174
32972SOL    HW2 2319   2.160   0.696   4.833 -1.2782  2.4615  0.9290
32973SOL     OW 2320   9.120   7.363   4.042 -0.1757 -0.7895 -0.7509
32973SOL    HW1 2321   9.174   7.443   4.047 -0.2924 -0.7261 -0.4261
32973SOL    HW2 2322   9.183   7.292   4.052 -0.2127 -0.6992  0.2877
32974SOL     OW 2323   7.627   0.644   4.377 -0.2085 -0.0583 -0.0095
32974SOL    HW1 2324   7.596   0.659   4.466 -0.8499  1.3635 -0.4425
32974SOL    HW2 2325   7.703   0.588   4.387 -0.5664 -0.3260  1.3918
32975SOL     OW 2326   9.645   6.667   9.800 -0.2485  0.1393  0.2890
32975SOL    HW1 2327   9.577   6.627   9.855  0.5483  0.0125  1.2049
32975SOL    HW2 2328   9.711   6.698   9.862  0.3269  0.6585 -0.5628
32976SOL     OW 2329   3.057   5.201   5.727  0.1713  0.3053 -0.8953
32976SOL    HW1 2330   3.110   5.197   5.647  0.8465 -0.9286 -0.4140
32976SOL    HW2 2331   3.114   5.165   5.795 -0.2401  1.7204  0.2507
32977SOL     OW 2332   4.019   4.040   8.793 -0.0120  0.2229  0.3135
32977SOL    HW1 2333   4.004   3.994   8.876 -1.4375 -1.0312 -0.5955
32977SOL    HW2 2334   3.976   4.125   8.805  0.7853  0.5192  1.2433
32978SOL     OW 2335   2.154   6.702   2.309 -0.2432  0.2607 -0.2522
32978SOL    HW1 2336   2.205   6.660   2.378 -1.0123 -0.6073 -0.1892
32978SOL    HW2 2337   2.185   6.660   2.228 -0.5438  0.0334 -0.2536
32979SOL     OW 2338   2.168   4.395   5.279  0.0592 -0.5514 -0.1003
32979SOL    HW1 2339   2.261   4.378   5.261 -0.0165 -0.5536 -0.4981
32979SOL    HW2 2340   2.161   4.490   5.280  0.6458 -0.4282  2.9500
32980SOL     OW 2341   7.734   0.236   1.313  0.0401  0.3330 -0.0165
32980SOL    HW1 2342   7.752   0.329   1.321 -0.7663  0.4062  1.1664
32980SOL    HW2 2343   7.805   0.193   1.361 -0.1883  0.3966  0.3835
32981SOL     OW 2344   7.623   7.186   4.051  0.2035  0.1206  0.2804
32981SOL    HW1 2345   7.707   7.229   4.039  0.7252 -0.2278  2.3349
32981SOL    HW2 2346   7.608   7.187   4.145 -0.2143 -3.2566  0.3949
32982SOL     OW 2347   5.275   2.706   0.824 -0.0189  0.1366  0.4813
32982SOL    HW1 2348   5.300   2.698   0.732  0.7153  0.3857  0.6477
32982SOL    HW2 2349   5.327   2.780   0.856  0.2461 -0.3802  1.2661
32983SOL     OW 2350   0.326   6.616   4.547 -0.0571  0.0839 -0.0302
32983SOL    HW1 2351   0.335   6.621   4.452 -2.2573  1.8844 -0.2255
32983SOL    HW2 2352   0.301   6.704   4.574  0.8526 -0.2822  2.3124
32984SOL     OW 2353   0.774   2.965   9.190  0.1126  0.3720  0.0945
32984SOL    HW1 2354   0.714   2.914   9.135  1.1493 -2.8073  1.6891
32984SOL    HW2 2355   0.859   2.958   9.146  0.2874  0.6352  0.3857
32985SOL     OW 2356   6.826   7.940   9.175 -0.1147  0.1751  0.6191
32985SOL    HW1 2357   6.893   7.961   9.240  0.4557 -0.7033  0.3134
32985SOL    HW2 2358   6.743   7.949   9.224  0.2517  0.5219  1.1931
32986SOL     OW 2359   1.990   5.689   7.210  0.4094 -0.0410  0.2552
32986SOL    HW1 2360   2.078   5.723   7.192 -0.5968  1.5458 -2.1434
32986SOL    HW2 2361   1.964   5.646   7.129 -1.3962  0.3820  0.5732
32987SOL     OW 2362   9.158   1.595   8.455 -0.3355  0.1549 -0.5054
32987SOL    HW1 2363   9.207   1.545   8.389 -1.6959 -2.9611  0.6651
32987SOL    HW2 2364   9.131   1.530   8.519 -2.0462  2.5138  1.3427
32988SOL     OW 2365   1.150   6.757   2.129  0.5178 -0.2353  0.4375
32988SOL    HW1 2366   1.059   6.744   2.101  0.4227 -0.7195  0.9490
32988SOL    HW2 2367   1.169   6.848   2.105 -0.2778  0.0441  0.7948
32989SOL     OW 2368   1.598   6.292  10.623 -0.1858  0.3996  0.6244
32989SOL    HW1 2369   1.595   6.378  10.665 -2.6471 -0.1455  1.7011
32989SOL    HW2 2370   1.515   6.251  10.645 -0.3294 -1.1457 -2.2979
32990SOL     OW 2371  10.359   1.824   7.009  0.0243  0.3512 -0.1850
32990SOL    HW1 2372  10.279   1.872   7.032  0.7525  1.7118 -0.3708
32990SOL    HW2 2373  10.331   1.760   6.944 -1.5722 -1.7181  2.3512
32991SOL     OW 2374   6.665  10.410   9.630  0.3926  0.2727  0.1580
32991SOL    HW1 2375   6.728  10.357   9.680 -1.2921 -1.3829  0.6553
32991SOL    HW2 2376   6.659  10.492   9.679 -1.5556 -1.4553  3.1291
32992SOL     OW 2377   4.303   6.826   5.301  0.4237 -0.6989 -0.5271
32992SOL    HW1 2378   4.310   6.832   5.396 -0.5544  0.2275 -0.5036
32992SOL    HW2 2379   4.365   6.756   5.277 -2.0785 -3.8006  1.1819
32993SOL     OW 2380   3.414  10.439   4.595  0.3803  0.2345  0.2071
32993SOL    HW1 2381   3.434  10.530   4.619  0.1514  0.0171  1.2834
32993SOL    HW2 2382   3.450  10.387   4.666  1.9152 -0.6677 -1.1566
32994SOL     OW 2383   3.789   6.308   2.989 -0.0386  0.2546  0.2181
32994SOL    HW1 2384   3.782   6.279   3.080 -2.1562 -0.6244 -0.1571
32994SOL    HW2 2385   3.784   6.227   2.938 -1.2562  0.8773 -0.7120
32995SOL     OW 2386   8.913   7.654   4.903 -0.2184 -0.0440 -0.1309
32995SOL    HW1 2387   8.982   7.658   4.970  0.7351  0.5187 -1.0971
32995SOL    HW2 2388   8.945   7.590   4.840 -1.5202 -1.2159  0.3634
32996SOL     OW 2389   1.513   6.198   5.146 -0.0093 -0.5657 -0.3342
32996SOL    HW1 2390   1.511   6.280   5.196  0.2359  0.2874 -1.6856
32996SOL    HW2 2391   1.422   6.170   5.142 -0.4216  0.8382 -1.7469
32997SOL     OW 2392   6.318   7.824   8.669  0.7891 -0.2216  0.6749
32997SOL    HW1 2393   6.226   7.796   8.669  0.5003  0.6649  0.4187
32997SOL    HW2 2394   6.363   7.759   8.721  0.1324 -1.0612  0.2229
32998SOL     OW 2395   2.677  10.523   4.957 -0.0815 -0.4825  0.3959
32998SOL    HW1 2396   2.655  10.541   5.048 -0.4806 -1.9570  0.6293
32998SOL    HW2 2397   2.648  10.432   4.943  1.0962 -0.7081 -0.8416
32999SOL     OW 2398   2.579   1.043   3.334  0.3623 -0.3259 -0.6166
32999SOL    HW1 2399   2.654   1.056   3.393  0.5004  0.1052 -0.8861
32999SOL    HW2 2400   2.504   1.080   3.381  0.3264 -0.6984 -0.3748
33000SOL     OW 2401   6.979   4.494   9.921 -0.7896 -0.0779  0.1629
33000SOL    HW1 2402   7.064   4.455   9.943 -1.4310 -0.2582  2.5680
33000SOL    HW2 2403   6.989   4.586   9.944 -1.3741 -0.1871  0.8535
33001SOL     OW 2404   7.562   3.051   8.046 -0.6379  0.0934  0.0261
33001SOL    HW1 2405   7.506   3.055   7.968 -0.5511  0.2238 -0.0304
33001SOL    HW2 2406   7.651   3.050   8.011 -0.6115 -0.6323  0.0988
33002SOL     OW 2407   5.453   9.771   2.978 -0.5596 -0.2141 -0.3008
33002SOL    HW1 2408   5.455   9.782   3.073  0.7030 -1.1693 -0.1947
33002SOL    HW2 2409   5.505   9.845   2.945  1.3889 -1.3946 -0.0439
33003SOL     OW 2410   4.623   6.041   2.537 -0.4962 -0.0387  0.2456
33003SOL    HW1 2411   4.682   5.998   2.476 -0.5318 -0.1276  0.2736
33003SOL    HW2 2412   4.575   5.970   2.578 -1.5205  0.0879 -0.6825
33004SOL     OW 2413   4.651   9.489   8.272 -0.3133  0.6618  0.6762
33004SOL    HW1 2414   4.686   9.564   8.318  2.3064 -0.8234  1.3203
33004SOL    HW2 2415   4.677   9.502   8.181  1.0518  0.0865  0.9666
33005SOL     OW 2416   2.462   7.426   3.799 -0.6421 -0.1257  0.3287
33005SOL    HW1 2417   2.488   7.380   3.719 -1.1752  0.0301  0.0640
33005SOL    HW2 2418   2.367   7.428   3.796 -0.6544  0.1569  0.8140
33006SOL     OW 2419   2.166   5.756   0.560 -0.2219 -0.4508  0.6777
33006SOL    HW1 2420   2.075   5.779   0.538  0.2011  1.0389  0.3662
33006SOL    HW2 2421   2.185   5.681   0.504 -1.3456 -0.9766  0.9630
33007SOL     OW 2422  10.904  10.408  10.858  0.0712 -0.4623 -0.6355
33007SOL    HW1 2423  10.943  10.349  10.922 -3.2038 -1.3436  0.7590
33007SOL    HW2 2424  10.940  10.494  10.880  0.5773 -1.0698  1.0810
33008SOL     OW 2425   0.454   8.573   3.595 -0.4833  0.5922  0.0676
33008SOL    HW1 2426   0.520   8.511   3.625  0.0480  0.2926 -1.6425
33008SOL    HW2 2427   0.372   8.524   3.597  0.0234 -0.4469 -1.8923
33009SOL     OW 2428   3.013   5.239   9.659  0.0252 -0.2688  0.0528
33009SOL    HW1 2429   3.027   5.297   9.733  0.4999 -0.0825 -0.1749
33009SOL    HW2 2430   2.918   5.235   9.648 -0.0069  2.0375 -1.1295
33010SOL     OW 2431   4.675  10.110   5.253  0.2030  0.4044  0.3541
33010SOL    HW1 2432   4.628  10.098   5.336  0.9712 -2.2479  0.5045
33010SOL    HW2 2433   4.752  10.054   5.261  1.0867  1.2615 -1.5886
33011SOL     OW 2434   6.782   3.673  10.340 -0.4411  0.0139  0.4407
33011SOL    HW1 2435   6.789   3.767  10.355 -0.2305  0.5516 -2.4322
33011SOL    HW2 2436   6.693   3.651  10.368 -2.0592  2.0053 -2.5335
33012SOL     OW 2437   1.407   1.777   3.327 -0.2177 -0.1019  0.0505
33012SOL    HW1 2438   1.425   1.761   3.235  0.4464  0.4297  0.0795
33012SOL    HW2 2439   1.491   1.804   3.364 -0.9067  1.7916  0.3473
33013SOL     OW 2440   0.391  10.529   6.403  0.1052  0.1367 -0.1064
33013SOL    HW1 2441   0.319  10.471   6.376 -0.6714  1.5610 -1.2527
33013SOL    HW2 2442   0.359  10.572   6.482  0.7794 -1.1122  0.8877
33014SOL     OW 2443   3.786   2.439   2.900  0.1223  0.3541  0.2411
33014SOL    HW1 2444   3.769   2.356   2.855 -0.7363  0.5970  0.1000
33014SOL    HW2 2445   3.722   2.499   2.863  1.0729  1.2227 -0.0292
33015SOL     OW 2446   2.076   9.881   6.784 -0.2440  0.3314 -0.8755
33015SOL    HW1 2447   2.016   9.912   6.852  0.1411  0.3752 -0.5511
33015SOL    HW2 2448   2.149   9.841   6.832  0.2050  0.6792 -1.2483
33016SOL     OW 2449   0.193   3.931   9.984  0.5703 -0.0963  0.1707
33016SOL    HW1 2450   0.221   3.940  10.075  0.2712 -1.7770  0.4615
33016SOL    HW2 2451   0.247   3.994   9.936  2.6813 -1.0611  1.1349
33017SOL     OW 2452   0.141   4.178   7.704 -0.1645 -0.3080 -0.7921
33017SOL    HW1 2453   0.119   4.130   7.784  0.1478  2.0155  0.7955
33017SOL    HW2 2454   0.237   4.177   7.701 -0.0570  1.8144  0.3866
33018SOL     OW 2455   7.742   6.154   4.718  0.1447  0.7652  0.0049
33018SOL    HW1 2456   7.793   6.230   4.747 -0.0231  0.7532  0.3349
33018SOL    HW2 2457   7.666   6.191   4.673 -0.3991  0.8145  0.9406
33019SOL     OW 2458   5.194   2.954   7.798 -0.3464  0.3456  0.0327
33019SOL    HW1 2459   5.246   3.024   7.836 -0.6681 -1.1137  3.5438
33019SOL    HW2 2460   5.109   2.961   7.841 -1.0365 -0.9732 -1.0473
33020SOL     OW 2461  10.040   6.288   3.016  0.0192  0.5666 -0.0172
33020SOL    HW1 2462  10.084   6.235   3.083  0.7346 -0.3777 -1.1666
33020SOL    HW2 2463  10.044   6.233   2.937 -0.4828  1.7754 -0.9124
33021SOL     OW 2464   3.044   1.873   7.825  0.1796  0.2088  1.1874
33021SOL    HW1 2465   3.009   1.933   7.759 -1.7052 -2.0939 -0.0857
33021SOL    HW2 2466   3.114   1.826   7.779 -1.3304 -1.6042  0.6342
33022SOL     OW 2467   7.547   9.177   9.448  0.1590  0.1852 -0.0491
33022SOL    HW1 2468   7.530   9.270   9.464  0.4777  0.1934  0.2622
33022SOL    HW2 2469   7.547   9.169   9.353  1.2864  0.7344 -0.1154
33023SOL     OW 2470   5.788   4.259   4.384  0.0876  0.0024  0.0514
33023SOL    HW1 2471   5.828   4.245   4.471  1.7972  0.6554 -0.5807
33023SOL    HW2 2472   5.837   4.201   4.326 -1.2716 -0.6773 -0.4443
33024SOL     OW 2473   2.014   1.421   0.857 -0.4757  0.5247  0.0323
33024SOL    HW1 2474   2.046   1.331   0.870 -0.6830  0.3437 -0.6684
33024SOL    HW2 2475   2.081   1.476   0.898 -2.0206 -0.0440  3.7364
33025SOL     OW 2476   6.010   7.304   9.364  0.8552 -0.1816  0.0402
33025SOL    HW1 2477   6.059   7.223   9.347 -0.5556 -0.8161 -1.2228
33025SOL    HW2 2478   6.034   7.328   9.454  0.0443 -2.9599  1.1158
33026SOL     OW 2479   3.569   4.381   8.214 -0.3636 -0.3357  0.1941
33026SOL    HW1 2480   3.637   4.425   8.264 -0.6784  1.4478 -0.8421
33026SOL    HW2 2481   3.487   4.422   8.243 -0.8007 -1.0771  0.0437
33027SOL     OW 2482   5.184  10.638   6.133 -0.3945 -0.0841  0.0157
33027SOL    HW1 2483   5.201  10.731   6.126  1.8586 -0.3695  0.8870
33027SOL    HW2 2484   5.119  10.620   6.066 -0.3913  1.9861 -0.6010
33028SOL     OW 2485   0.233   4.279   9.684 -0.0137  0.3280 -0.0917
33028SOL    HW1 2486   0.207   4.205   9.630 -0.7201 -0.1100  0.8086
33028SOL    HW2 2487   0.161   4.341   9.678 -1.5983 -1.0486  2.7040
33029SOL     OW 2488   7.293   1.326   1.943  0.1103  0.7475 -0.9224
33029SOL    HW1 2489   7.322   1.417   1.938 -0.6099  1.2149  1.7743
33029SOL    HW2 2490   7.223   1.326   2.009  0.4348 -1.8132 -0.4540
33030SOL     OW 2491   2.191   9.252   4.759 -0.0596  0.1078  0.0806
33030SOL    HW1 2492   2.236   9.328   4.722 -0.5917  0.8334  0.8795
33030SOL    HW2 2493   2.243   9.177   4.730  1.5894  0.8973  0.8340
33031SOL     OW 2494   2.850   8.994   0.184 -0.1017  0.2212 -0.4292
33031SOL    HW1 2495   2.856   8.917   0.127  2.4954  0.5169 -0.6731
33031SOL    HW2 2496   2.807   9.060   0.130  0.2727 -0.1955 -1.2619
33032SOL     OW 2497   7.238   5.947   0.303  0.1989  0.3033  0.3487
33032SOL    HW1 2498   7.167   5.897   0.263 -0.1718  0.9710  0.1589
33032SOL    HW2 2499   7.226   6.037   0.272  2.1852  0.1293 -1.1445
33033SOL     OW 2500   9.660   1.128   2.560  0.2605 -0.0644 -0.5060
33033SOL    HW1 2501   9.646   1.188   2.487  4.4564 -0.0782 -1.5437
33033SOL    HW2 2502   9.623   1.174   2.636  1.0573  2.7576 -1.6918
33034SOL     OW 2503   8.531   9.994   4.815 -0.0561  0.4634 -0.2041
33034SOL    HW1 2504   8.512   9.910   4.773  1.8423  1.0849 -2.5805
33034SOL    HW2 2505   8.593   9.974   4.884 -1.0893 -0.2703  0.5431
33035SOL     OW 2506  10.880   8.016   4.994 -0.1622  0.6064  0.3077
33035SOL    HW1 2507  10.844   8.088   5.045  0.4627 -0.4281  2.2813
33035SOL    HW2 2508  10.873   7.940   5.050  2.1556 -0.2651 -0.4438
33036SOL     OW 2509   3.425   0.544   9.462 -0.7737  0.0483  0.3396
33036SOL    HW1 2510   3.390   0.485   9.530 -1.0238 -0.0647  0.1153
33036SOL    HW2 2511   3.361   0.538   9.391 -0.5685  0.2534  0.1392
33037SOL     OW 2512   7.486   9.816   9.163  0.0240  0.1810 -0.0853
33037SOL    HW1 2513   7.406   9.780   9.202 -0.5756 -0.6060 -1.9673
33037SOL    HW2 2514   7.481   9.792   9.071  2.3659  0.2593 -0.2885
33038SOL     OW 2515  10.080   3.950   3.972  0.1574 -0.3547 -0.0288
33038SOL    HW1 2516   9.995   3.963   3.930  0.8323 -1.7649 -2.0316
33038SOL    HW2 2517  10.136   4.018   3.934  0.5168 -0.9945 -0.6766
33039SOL     OW 2518   3.448   2.362   4.213  0.2528 -0.1726  0.2508
33039SOL    HW1 2519   3.394   2.286   4.232  0.3066 -0.8057 -1.8574
33039SOL    HW2 2520   3.520   2.327   4.159  0.5504  1.2746 -0.3308
33040SOL     OW 2521   7.393   5.260   3.189  0.1583  0.7062 -0.0095
33040SOL    HW1 2522   7.343   5.200   3.136  1.5138 -1.1247  0.6748
33040SOL    HW2 2523   7.388   5.344   3.143  0.6546 -0.6040 -2.6331
33041SOL     OW 2524   9.809   3.663   6.946 -0.3438 -0.1772  0.1697
33041SOL    HW1 2525   9.889   3.701   6.911 -1.2372  1.6322  0.0141
33041SOL    HW2 2526   9.764   3.626   6.870  0.5798 -1.7359  0.3386
33042SOL     OW 2527   5.050   6.639   9.416  0.0613  0.4515 -0.1622
33042SOL    HW1 2528   5.070   6.617   9.507  1.4080  1.0471 -0.2862
33042SOL    HW2 2529   5.015   6.728   9.420  1.7330  1.1640 -0.3450
33043SOL     OW 2530   3.488   6.416   1.256  0.4911 -0.1195 -0.5406
33043SOL    HW1 2531   3.526   6.463   1.330  1.7087 -1.1034 -0.5056
33043SOL    HW2 2532   3.401   6.390   1.287  0.5668  0.4138  0.1467
33044SOL     OW 2533   0.685   5.412   7.166  0.6469  0.0683 -0.5470
33044SOL    HW1 2534   0.756   5.416   7.101  0.4182 -2.0860 -0.9821
33044SOL    HW2 2535   0.638   5.495   7.154  1.9166  0.6930 -1.5831
33045SOL     OW 2536   1.937   7.543   3.142  0.8722  0.1626  0.4429
33045SOL    HW1 2537   1.875   7.550   3.070 -0.9722 -1.6431  1.7412
33045SOL    HW2 2538   1.923   7.622   3.194 -0.9774 -0.5962  1.1496
33046SOL     OW 2539   3.484   5.738   1.581  0.4839 -0.5561  0.1687
33046SOL    HW1 2540   3.438   5.756   1.662 -0.3401 -2.6603  0.2313
33046SOL    HW2 2541   3.575   5.761   1.599  0.3574 -1.1959  1.7865
33047SOL     OW 2542   5.150   3.185   9.423  0.3121 -0.1561  0.1984
33047SOL    HW1 2543   5.173   3.143   9.505  1.3547 -1.0323 -0.5122
33047SOL    HW2 2544   5.162   3.117   9.356 -0.5248  0.5242 -0.6831
33048SOL     OW 2545   2.673   7.182  10.076  0.4491  0.1872  0.3236
33048SOL    HW1 2546   2.633   7.096  10.066  0.7070  0.2391 -1.3138
33048SOL    HW2 2547   2.651   7.229   9.995  3.5533  0.3237 -0.5630
33049SOL     OW 2548   8.977   8.917   1.107  0.0587 -0.6133 -0.0625
33049SOL    HW1 2549   9.021   8.907   1.191  0.9838 -1.5403 -0.6293
33049SOL    HW2 2550   9.000   9.005   1.077 -1.0496  0.0853  1.0626
33050SOL     OW 2551   6.595   1.364   3.219  0.2758  0.1144  0.0368
33050SOL    HW1 2552   6.618   1.335   3.307  1.3624  0.7144 -0.0185
33050SOL    HW2 2553   6.501   1.350   3.212  0.3771 -1.0761  0.8504
33051SOL     OW 2554   9.264   6.910   4.125  0.0532  0.1783  0.1954
33051SOL    HW1 2555   9.302   6.828   4.155 -0.5657  0.1267  0.8703
33051SOL    HW2 2556   9.184   6.920   4.177 -1.7748 -0.5270 -2.2766
33052SOL     OW 2557   3.239   3.335   0.355  0.3375  0.0697 -0.0616
33052SOL    HW1 2558   3.294   3.264   0.389 -1.0080 -0.2615  1.5334
33052SOL    HW2 2559   3.276   3.414   0.394  1.1310  0.1514 -0.9302
33053SOL     OW 2560   3.542   4.259  10.487  0.1328  0.1491  0.2300
33053SOL    HW1 2561   3.601   4.310  10.431  0.2167 -1.5476 -1.3288
33053SOL    HW2 2562   3.547   4.302  10.572  2.3307  1.0627 -0.2749
33054SOL     OW 2563   4.453   6.991  10.701 -0.2062 -0.1369 -0.1890
33054SOL    HW1 2564   4.534   6.966  10.657  0.3779 -1.2911  1.4804
33054SOL    HW2 2565   4.385   6.975  10.635  0.7274 -0.8561 -1.0045
33055SOL     OW 2566   1.897   7.763   6.432 -0.1869 -0.0207  0.1997
33055SOL    HW1 2567   1.959   7.754   6.360 -0.7208 -2.1305 -0.0700
33055SOL    HW2 2568   1.811   7.765   6.390 -0.4614 -0.4638  0.7130
33056SOL     OW 2569   4.968   1.090  10.270 -0.4219 -0.4968  0.4951
33056SOL    HW1 2570   5.044   1.120  10.320 -0.1383  0.3375 -0.4187
33056SOL    HW2 2571   5.003   1.026  10.209 -0.2521  0.6383 -0.6335
33057SOL     OW 2572   6.933   1.515   2.897 -0.6834  0.2130  0.2816
33057SOL    HW1 2573   6.945   1.607   2.923  0.6219  0.3402 -0.6865
33057SOL    HW2 2574   6.996   1.502   2.826 -0.4895 -1.5753  0.7436
33058SOL     OW 2575   3.900   8.494   6.355  0.3589  0.2929  0.2950
33058SOL    HW1 2576   3.955   8.421   6.327  2.2805  2.4624 -2.1765
33058SOL    HW2 2577   3.931   8.514   6.444 -0.0713 -1.7020  0.9302
33059SOL     OW 2578   4.906   9.411   2.704 -0.1185  0.4647 -0.0558
33059SOL    HW1 2579   4.942   9.323   2.700  0.0128  0.5727 -1.8612
33059SOL    HW2 2580   4.919   9.447   2.616 -0.8910  1.9978  0.4181
33060SOL     OW 2581   1.848   4.474   6.581 -0.5740 -0.0285  0.0086
33060SOL    HW1 2582   1.770   4.471   6.635 -0.5713 -0.8203 -0.0200
33060SOL    HW2 2583   1.828   4.418   6.507 -0.9988  1.8919 -1.4169
33061SOL     OW 2584   9.515   2.460   0.900  0.4909 -0.3880  0.3788
33061SOL    HW1 2585   9.545   2.400   0.968  2.2517 -0.6988 -0.6139
33061SOL    HW2 2586   9.427   2.430   0.878 -0.0609 -0.3907  2.3399
33062SOL     OW 2587   8.459  10.494   1.937 -0.2561 -0.5394 -0.3711
33062SOL    HW1 2588   8.458  10.515   2.030 -1.7106  0.9754 -0.6810
33062SOL    HW2 2589   8.476  10.400   1.934 -2.9934 -1.2344  1.5926
33063SOL     OW 2590   4.310   8.071   3.178 -0.6684  0.0710 -0.4482
33063SOL    HW1 2591   4.340   7.999   3.122  1.1353  0.7676 -0.4473
33063SOL    HW2 2592   4.353   8.148   3.142 -0.9779  0.8291  0.7630
33064SOL     OW 2593   9.822   7.853   1.641 -0.6403  0.2439 -0.7298
33064SOL    HW1 2594   9.802   7.931   1.589  0.1125  0.7759 -0.2532
33064SOL    HW2 2595   9.782   7.781   1.593 -1.2924  0.9162 -1.2214
33065SOL     OW 2596   8.065   7.736   3.335 -0.3112  0.7214 -0.1639
33065SOL    HW1 2597   8.080   7.658   3.388  0.3354  1.0893  0.2241
33065SOL    HW2 2598   7.973   7.759   3.350 -0.3523  0.3477  0.1549
33066SOL     OW 2599   6.804   4.919   0.344  0.4631  0.2281 -0.2260
33066SOL    HW1 2600   6.819   4.951   0.255  1.0041  0.0443 -0.2053
33066SOL    HW2 2601   6.878   4.952   0.394  0.9745 -0.9289 -0.1747
33067SOL     OW 2602   7.225   0.223   1.941 -0.3867  0.6435 -0.0166
33067SOL    HW1 2603   7.172   0.287   1.989 -2.2905 -0.4725 -0.5264
33067SOL    HW2 2604   7.188   0.223   1.853 -0.4909 -1.1958 -0.0043
33068SOL     OW 2605   7.826  10.384   5.197 -0.3764 -0.4181  0.5609
33068SOL    HW1 2606   7.842  10.291   5.216  1.6210 -0.1530  0.4126
33068SOL    HW2 2607   7.801  10.422   5.281 -1.8966 -1.1953  0.4902
33069SOL     OW 2608   1.482   6.583   0.595  0.6695  0.1033  0.1436
33069SOL    HW1 2609   1.534   6.657   0.626 -1.0098  1.4270 -0.0879
33069SOL    HW2 2610   1.420   6.565   0.666  0.9697 -1.0264  0.1444
33070SOL     OW 2611   4.688   4.968   1.538  0.6228 -0.0422  0.2431
33070SOL    HW1 2612   4.645   5.054   1.537  0.6008  0.0730 -3.5161
33070SOL    HW2 2613   4.616   4.905   1.545  0.3947  0.2175  0.2554
33071SOL     OW 2614   0.227   2.861   3.093  0.6240 -0.2724 -0.3350
33071SOL    HW1 2615   0.153   2.846   3.153  0.1676 -1.5474 -1.1778
33071SOL    HW2 2616   0.258   2.949   3.115 -1.9445  0.8449 -0.7692
33072SOL     OW 2617   5.170   4.351   9.770  0.1054 -0.0586  0.7445
33072SOL    HW1 2618   5.143   4.301   9.694 -2.0475 -2.0582  2.6780
33072SOL    HW2 2619   5.108   4.423   9.775  0.5804  0.3879  0.3471
33073SOL     OW 2620   6.748  10.912   2.858  0.4175  0.0606  0.2605
33073SOL    HW1 2621   6.693  10.907   2.779  0.9302  1.8215 -0.2529
33073SOL    HW2 2622   6.696  10.961   2.921  1.9479  3.4087 -0.8501
33074SOL     OW 2623   5.113   0.065   0.509 -0.4279 -0.3528 -0.7260
33074SOL    HW1 2624   5.127  -0.018   0.464  0.0125  0.6469 -2.5443
33074SOL    HW2 2625   5.022   0.089   0.487 -0.8064 -0.6858  0.4109
33075SOL     OW 2626   3.329   6.380   4.427  0.1908  0.0071 -0.0704
33075SOL    HW1 2627   3.392   6.393   4.356  2.3083 -1.3827  1.4197
33075SOL    HW2 2628   3.351   6.448   4.491  0.2374 -0.5279  0.4937
33076SOL     OW 2629  10.769   0.473   7.995 -0.1250  0.1799  0.1090
33076SOL    HW1 2630  10.812   0.396   7.958  1.9357  0.1886  2.1699
33076SOL    HW2 2631  10.733   0.442   8.078 -3.7334  0.3625 -1.2213
33077SOL     OW 2632  10.327   8.712   0.306  0.1535 -0.1881  0.0307
33077SOL    HW1 2633  10.276   8.711   0.387 -0.2073  0.3964 -0.1843
33077SOL    HW2 2634  10.263   8.692   0.238 -0.1061  1.8821 -0.4040
33078SOL     OW 2635   2.080   4.966   8.325 -0.0252 -0.0178  0.5068
33078SOL    HW1 2636   2.163   4.921   8.310 -0.0654  0.1387 -0.2296
33078SOL    HW2 2637   2.027   4.903   8.374  1.6003  1.0171  3.8768
33079SOL     OW 2638  10.782  10.136   5.703  0.0120  0.0838 -0.3266
33079SOL    HW1 2639  10.775  10.042   5.685 -0.5844  0.3045 -1.3168
33079SOL    HW2 2640  10.699  10.159   5.743  0.1721  0.1926 -0.0507
33080SOL     OW 2641   8.458   0.017   2.348 -0.7418  0.4144  0.6090
33080SOL    HW1 2642   8.396   0.055   2.410 -0.3449  0.8382  0.7564
33080SOL    HW2 2643   8.404  -0.016   2.276 -1.1151  1.1040  0.5681
33081SOL     OW 2644   4.641   9.356  10.191  0.7600  0.4543  0.3720
33081SOL    HW1 2645   4.690   9.274  10.194  1.4378  0.7562 -1.2426
33081SOL    HW2 2646   4.661   9.394  10.105 -0.6203  1.6491  0.5125
33082SOL     OW 2647   3.416   7.696   5.038 -0.1644 -0.0466 -0.1537
33082SOL    HW1 2648   3.478   7.739   5.097  0.0216  2.9591 -2.3121
33082SOL    HW2 2649   3.335   7.691   5.089  0.8059 -0.5705  1.4131
33083SOL     OW 2650   6.094   3.907   1.944 -0.7731  0.5463 -0.0738
33083SOL    HW1 2651   6.009   3.913   1.899 -0.4309 -2.1692 -1.2289
33083SOL    HW2 2652   6.113   3.814   1.947  1.5592  1.0077  1.4221
33084SOL     OW 2653   6.522  10.443   6.303 -1.0245 -0.2686  0.3181
33084SOL    HW1 2654   6.516  10.537   6.322 -0.3606 -0.2867  0.6476
33084SOL    HW2 2655   6.547  10.404   6.387 -0.9314 -0.6986  0.0909
33085SOL     OW 2656   8.187   1.695   7.696 -0.1012  0.2631  0.0068
33085SOL    HW1 2657   8.211   1.787   7.699  0.1984  0.2515 -1.3010
33085SOL    HW2 2658   8.125   1.683   7.767 -0.3368  1.5275  0.0249
33086SOL     OW 2659   8.740   6.312   7.365  0.1552  0.4379  0.4293
33086SOL    HW1 2660   8.829   6.330   7.396 -0.1402  0.4669  1.2919
33086SOL    HW2 2661   8.752   6.280   7.276  1.1964 -1.4011  1.1588
33087SOL     OW 2662   1.617  10.756   8.692 -0.0772  0.1444  0.1288
33087SOL    HW1 2663   1.646  10.804   8.770 -0.8253 -0.8355  1.0344
33087SOL    HW2 2664   1.590  10.670   8.725 -1.5820  0.1314 -1.0280
33088SOL     OW 2665   7.698   2.595  10.233  0.2667 -0.2627  0.0185
33088SOL    HW1 2666   7.705   2.582  10.327  0.2404 -0.5683 -0.0203
33088SOL    HW2 2667   7.697   2.507  10.197  0.6126 -0.1414 -0.2924
33089SOL     OW 2668   5.403  10.395   3.545  0.5049  0.0801 -0.1244
33089SOL    HW1 2669   5.351  10.476   3.544  0.2965 -0.0429  0.4234
33089SOL    HW2 2670   5.393  10.359   3.457  1.4652  1.1961 -0.7230
33090SOL     OW 2671   3.097   2.839   6.795 -0.1194 -0.0217  0.9121
33090SOL    HW1 2672   3.175   2.832   6.851  1.3690  0.5484 -0.9619
33090SOL    HW2 2673   3.072   2.749   6.777  1.6724 -0.3278 -0.4012
33091SOL     OW 2674   4.586  10.528   0.060 -0.0044  0.1981 -0.0770
33091SOL    HW1 2675   4.572  10.434   0.075  0.9628 -0.0553 -0.6237
33091SOL    HW2 2676   4.605  10.534  -0.034 -0.7185  1.0318 -0.1696
33092SOL     OW 2677  10.740  10.773   3.193 -0.0696 -0.1129 -0.1443
33092SOL    HW1 2678  10.824  10.727   3.196 -0.6281 -1.2072 -0.5013
33092SOL    HW2 2679  10.677  10.709   3.227 -0.8888  0.3645 -0.7296
33093SOL     OW 2680   1.937   5.710   9.603  0.5700 -0.6001 -0.2799
33093SOL    HW1 2681   2.013   5.724   9.659  0.6767  2.9382 -1.0842
33093SOL    HW2 2682   1.861   5.726   9.659  0.5110 -0.9755 -0.2457
33094SOL     OW 2683   7.822   6.346   8.794  0.3102 -0.4525  0.8394
33094SOL    HW1 2684   7.823   6.357   8.890  1.5289 -0.5900  0.8513
33094SOL    HW2 2685   7.824   6.251   8.781  2.7737 -0.4323  0.6954
33095SOL     OW 2686   8.239   1.150   7.008  0.2269 -0.1626  0.1094
33095SOL    HW1 2687   8.187   1.196   6.942 -0.2691 -1.0658 -0.1356
33095SOL    HW2 2688   8.329   1.177   6.988  0.0085  0.2033 -0.4333
33096SOL     OW 2689   9.421   7.248   2.789 -0.3248  0.4127 -0.2269
33096SOL    HW1 2690   9.442   7.341   2.784  1.0094  0.0914 -0.9379
33096SOL    HW2 2691   9.481   7.206   2.727 -2.7279 -0.6376 -1.9976
33097SOL     OW 2692   6.184   0.410   4.985 -0.1332  0.0178 -0.0166
33097SOL    HW1 2693   6.119   0.409   4.914  0.2172 -0.3369 -0.3370
33097SOL    HW2 2694   6.261   0.369   4.947  0.1208 -0.0006  0.5166
33098SOL     OW 2695   7.530   8.956  10.389  0.2122 -0.1549  0.0644
33098SOL    HW1 2696   7.559   9.047  10.399  1.8544 -0.7391  0.9555
33098SOL    HW2 2697   7.453   8.962  10.332  0.3307  1.7769  0.0296
33099SOL     OW 2698   1.254   9.872   9.711  0.3316 -0.1196 -0.2011
33099SOL    HW1 2699   1.184   9.904   9.767  0.4552 -0.2280  0.0147
33099SOL    HW2 2700   1.227   9.783   9.688  0.7821 -0.4523  0.5303
33100SOL     OW 2701   8.470   6.562  10.348 -0.5184 -0.4066  0.3071
33100SOL    HW1 2702   8.561   6.555  10.319 -0.2272  4.3476 -0.6371
33100SOL    HW2 2703   8.467   6.642  10.400 -4.1750 -0.3764  0.3084
33101SOL     OW 2704   5.085   2.716  10.743 -0.4948  0.1720 -0.2577
33101SOL    HW1 2705   5.103   2.641  10.687  1.7478 -0.2428  0.8958
33101SOL    HW2 2706   5.073   2.679  10.830 -1.7522  0.9781 -0.0630
33102SOL     OW 2707   3.410   5.057   0.729  0.2024  0.1685  0.0980
33102SOL    HW1 2708   3.417   4.962   0.733  0.8887  0.2346  0.8547
33102SOL    HW2 2709   3.324   5.077   0.767 -0.9267 -0.2403 -2.0645
33103SOL     OW 2710   4.015  10.390   5.587  0.5726 -0.5952  0.2588
33103SOL    HW1 2711   4.032  10.350   5.502 -0.6958  0.7426 -0.6755
33103SOL    HW2 2712   3.970  10.323   5.638 -1.0566 -0.5662 -1.0847
33104SOL     OW 2713   1.856   1.511   1.111 -0.1810  0.1976  0.5323
33104SOL    HW1 2714   1.938   1.478   1.149 -1.1464 -1.5960  1.1639
33104SOL    HW2 2715   1.879   1.532   1.021  1.1649  0.5143  0.9180
33105SOL     OW 2716   0.319   7.772   5.334  0.0886 -0.2605 -0.1275
33105SOL    HW1 2717   0.268   7.803   5.409 -1.2870  0.5823 -1.3416
33105SOL    HW2 2718   0.384   7.713   5.371 -0.5566  0.1255  1.7137
33106SOL     OW 2719   2.133   4.778   0.539 -0.3576  0.1002  0.3292
33106SOL    HW1 2720   2.188   4.776   0.461 -0.9981 -0.8239 -0.1252
33106SOL    HW2 2721   2.179   4.723   0.602  0.3116  1.0928  0.7176
33107SOL     OW 2722  10.810   4.341   9.963  0.0042 -0.1221  0.4883
33107SOL    HW1 2723  10.877   4.278   9.987  1.3118  0.5108 -1.2403
33107SOL    HW2 2724  10.742   4.289   9.920  1.1804 -0.4061 -1.1492
33108SOL     OW 2725   7.458   9.906   7.150 -0.2804 -0.9453 -0.3762
33108SOL    HW1 2726   7.461   9.958   7.069  0.9122  0.2133  0.3657
33108SOL    HW2 2727   7.369   9.873   7.153 -0.4777 -0.6690 -1.9530
33109SOL     OW 2728   0.510   2.312   1.233 -0.4212 -0.2108  0.0332
33109SOL    HW1 2729   0.543   2.230   1.195 -1.5851 -1.1948  1.0385
33109SOL    HW2 2730   0.526   2.303   1.327 -0.3752  0.8240  0.1362
33110SOL     OW 2731   8.349   7.521   0.234  0.1352  0.1063  0.7372
33110SOL    HW1 2732   8.400   7.603   0.232 -0.6401  0.6120  1.0676
33110SOL    HW2 2733   8.337   7.499   0.142  1.7500 -0.5518  0.6459
33111SOL     OW 2734   0.457   7.207   2.284  0.1247  0.1425 -0.4831
33111SOL    HW1 2735   0.367   7.222   2.314  0.2876  0.1676  0.0123
33111SOL    HW2 2736   0.512   7.235   2.358  0.6292  1.9776 -1.4881
33112SOL     OW 2737   1.487   7.480   0.644  0.9212 -0.3415  0.2328
33112SOL    HW1 2738   1.432   7.447   0.573  0.5918 -0.6667  0.6334
33112SOL    HW2 2739   1.577   7.464   0.614  0.8261  0.7950 -0.7049
33113SOL     OW 2740   3.859   7.090   9.205 -0.8452 -0.5612  0.5550
33113SOL    HW1 2741   3.821   7.004   9.185 -1.1336 -0.9227  2.5024
33113SOL    HW2 2742   3.902   7.117   9.123 -0.6601 -2.5925 -0.0660
33114SOL     OW 2743   0.866  10.306   0.756 -0.0756  0.1529 -0.5718
33114SOL    HW1 2744   0.919  10.380   0.726  0.5620  0.0451  0.2466
33114SOL    HW2 2745   0.920  10.229   0.737  1.2202  0.1823  2.4673
33115SOL     OW 2746   6.510   1.330   6.774 -0.1372  0.2838 -0.4608
33115SOL    HW1 2747   6.563   1.382   6.714  1.0810 -0.9793 -0.5380
33115SOL    HW2 2748   6.574   1.291   6.834 -1.2632  1.0491  1.3202
33116SOL     OW 2749   4.225   7.486   6.717  0.4889  0.6727  0.2697
33116SOL    HW1 2750   4.166   7.490   6.641 -0.8714 -3.4060  0.9018
33116SOL    HW2 2751   4.301   7.438   6.685  0.4381 -0.0140  1.1495
33117SOL     OW 2752   3.735   9.935   0.584 -0.1079  0.1501 -0.6585
33117SOL    HW1 2753   3.717   9.870   0.651  1.5931 -0.2068 -0.4933
33117SOL    HW2 2754   3.667  10.001   0.595 -0.4754 -0.4244  0.7305
33118SOL     OW 2755   2.782   7.572   5.141 -0.1255  0.4047 -0.3258
33118SOL    HW1 2756   2.691   7.592   5.163  0.0397  1.1579 -0.2850
33118SOL    HW2 2757   2.829   7.583   5.224  0.0690  0.4360 -0.4412
33119SOL     OW 2758   4.663   3.272   0.380  1.2232  0.2104 -0.1772
33119SOL    HW1 2759   4.599   3.202   0.373  0.4408  0.9320 -0.4724
33119SOL    HW2 2760   4.623   3.335   0.441  2.5072 -0.2117  1.1735
33120SOL     OW 2761   5.783   7.687   9.184  0.0607 -0.7410  0.2712
33120SOL    HW1 2762   5.843   7.709   9.255 -0.8357 -0.3090  0.9192
33120SOL    HW2 2763   5.753   7.598   9.205 -1.7008  0.0946  1.5593
33121SOL     OW 2764   1.491   6.305   0.709 -0.8175 -0.3408  0.0559
33121SOL    HW1 2765   1.432   6.370   0.748 -0.7933 -0.2269 -0.0935
33121SOL    HW2 2766   1.554   6.358   0.658 -1.0939 -0.5107 -0.4652
33122SOL     OW 2767   7.399   0.438   8.811  0.1565  0.0260  0.0993
33122SOL    HW1 2768   7.420   0.346   8.795 -1.7340 -0.1562 -1.6508
33122SOL    HW2 2769   7.443   0.485   8.740  0.5428  0.4437  0.5963
33123SOL     OW 2770   6.402   1.327   4.068  0.0348 -1.3161 -0.4974
33123SOL    HW1 2771   6.354   1.326   3.986  0.1857  0.3029 -0.6348
33123SOL    HW2 2772   6.494   1.336   4.042 -0.0461  1.2822 -0.1927
33124SOL     OW 2773   8.556   4.338   9.334  0.2551 -0.2118  0.4011
33124SOL    HW1 2774   8.531   4.391   9.410 -0.8754  1.5732 -1.1342
33124SOL    HW2 2775   8.651   4.340   9.334  0.2568  0.3531  1.3583
33125SOL     OW 2776   5.984   2.405   7.520  0.2413  0.1704  0.4780
33125SOL    HW1 2777   5.929   2.476   7.553 -0.9152 -0.5857  0.2213
33125SOL    HW2 2778   6.041   2.447   7.455 -0.0762  0.9562  0.7007
33126SOL     OW 2779   0.129   0.779   5.659 -0.0525 -0.5107  0.0785
33126SOL    HW1 2780   0.097   0.859   5.701 -0.7545 -0.9249  0.3473
33126SOL    HW2 2781   0.179   0.810   5.584 -0.8873  0.1649 -0.2146
33127SOL     OW 2782   1.714   9.723   5.497  0.3578  0.7279 -0.0366
33127SOL    HW1 2783   1.782   9.763   5.552 -0.3809  1.7004  0.1928
33127SOL    HW2 2784   1.686   9.646   5.545 -0.8491  2.0074  1.3828
33128SOL     OW 2785  10.749   8.787   2.592 -0.6506  0.1016  0.3176
33128SOL    HW1 2786  10.689   8.814   2.661 -0.1912 -1.1537  1.2562
33128SOL    HW2 2787  10.836   8.809   2.626 -0.5132  1.0767 -0.6324
33129SOL     OW 2788   7.677   3.105   5.968 -1.1521  0.6841  0.1165
33129SOL    HW1 2789   7.692   3.117   6.062  0.0718  0.5947 -0.0402
33129SOL    HW2 2790   7.716   3.020   5.948 -1.0571  0.8737 -0.5341
33130SOL     OW 2791   7.264   9.090   5.287  0.0275 -0.5041 -0.4254
33130SOL    HW1 2792   7.254   9.177   5.248 -2.0074 -0.4588  0.0877
33130SOL    HW2 2793   7.205   9.090   5.363  1.5831 -1.6291  0.8479
33131SOL     OW 2794  10.246   6.062   7.774 -0.4736 -0.2190  0.5243
33131SOL    HW1 2795  10.195   6.143   7.770 -1.6180 -0.9281  0.2070
33131SOL    HW2 2796  10.250   6.041   7.868  0.4127  0.5442  0.6711
33132SOL     OW 2797   0.560   1.988  10.660 -0.0087 -0.0066 -0.6407
33132SOL    HW1 2798   0.530   1.912  10.609  1.9345  0.1491 -2.1579
33132SOL    HW2 2799   0.522   1.975  10.747 -2.0052 -1.2301 -1.6226
33133SOL     OW 2800   7.160   8.861   8.541 -0.8426 -0.8572 -0.0362
33133SOL    HW1 2801   7.197   8.781   8.504 -0.0897 -1.0697  1.1323
33133SOL    HW2 2802   7.164   8.924   8.469 -0.8681 -1.6945 -0.7851
33134SOL     OW 2803  10.044   9.551   5.924  0.4693 -0.8653  0.4174
33134SOL    HW1 2804  10.024   9.551   6.018 -0.7472 -0.8865  0.1810
33134SOL    HW2 2805   9.964   9.518   5.883  0.8826 -0.5889 -0.6477
33135SOL     OW 2806   5.754   2.731   8.214  0.3411  0.0135  0.0937
33135SOL    HW1 2807   5.702   2.651   8.224  0.2096  0.1315  0.3483
33135SOL    HW2 2808   5.709   2.796   8.267  0.0472  0.4554 -0.6795
33136SOL     OW 2809   8.947   7.936   0.579  0.5155  0.1781 -0.1542
33136SOL    HW1 2810   8.976   7.919   0.669  0.6595 -0.4949 -0.3203
33136SOL    HW2 2811   8.954   7.851   0.536 -1.3784  0.0546 -0.2984
33137SOL     OW 2812   4.220  10.576   5.085  0.2295 -0.1990  0.5498
33137SOL    HW1 2813   4.237  10.485   5.063 -1.5897 -1.0419  2.2064
33137SOL    HW2 2814   4.135  10.595   5.044 -0.3970  0.0372  1.8960
33138SOL     OW 2815   2.247   4.670   5.335 -0.1025 -0.8600 -0.1802
33138SOL    HW1 2816   2.163   4.716   5.327  0.2133 -0.3165 -0.3836
33138SOL    HW2 2817   2.312   4.731   5.300  0.5415 -0.7904  1.0712
33139SOL     OW 2818   4.252   7.585   8.026  0.0104  0.1468  0.4918
33139SOL    HW1 2819   4.338   7.556   7.997 -1.0567 -1.0586 -1.7688
33139SOL    HW2 2820   4.220   7.512   8.081 -0.2134 -0.1800 -0.0628
33140SOL     OW 2821   1.515  10.814   7.947  0.1513 -0.4579  0.3968
33140SOL    HW1 2822   1.591  10.832   7.892 -0.9720  0.4509 -0.8986
33140SOL    HW2 2823   1.544  10.836   8.036  1.2279  0.4183 -0.1557
33141SOL     OW 2824   9.476  10.467   5.933  0.0743 -0.7063 -0.1254
33141SOL    HW1 2825   9.404  10.470   5.871 -0.7106  0.5317  0.7884
33141SOL    HW2 2826   9.534  10.397   5.901 -1.0531 -1.0900 -1.3836
33142SOL     OW 2827   2.278  10.241   9.231 -0.2093  0.1213  0.1118
33142SOL    HW1 2828   2.294  10.149   9.211  0.9464  0.2374  0.4287
33142SOL    HW2 2829   2.295  10.287   9.149  0.3373  0.1672  0.2501
33143SOL     OW 2830   6.337   0.457   9.083 -0.2377 -0.4839 -0.3686
33143SOL    HW1 2831   6.259   0.495   9.125  0.0776  0.0012 -0.2226
33143SOL    HW2 2832   6.411   0.502   9.124  0.2284 -2.3975  0.9972
33144SOL     OW 2833   1.134   7.323   2.738 -0.1129  0.2300 -0.3380
33144SOL    HW1 2834   1.153   7.230   2.738  0.1119  0.2761 -0.7729
33144SOL    HW2 2835   1.084   7.338   2.658  1.6578  0.8443 -1.3860
33145SOL     OW 2836   5.493   4.485   6.902 -0.5090  0.1919 -0.0475
33145SOL    HW1 2837   5.450   4.437   6.973 -1.4048  3.1744  1.6070
33145SOL    HW2 2838   5.422   4.517   6.848  0.0198  0.3153 -0.6867
33146SOL     OW 2839   2.951   1.738   8.150  0.2199  0.6995  0.1876
33146SOL    HW1 2840   2.981   1.829   8.155  0.0204  0.7103  1.6335
33146SOL    HW2 2841   3.031   1.686   8.159  0.1533  0.7391  1.1018
33147SOL     OW 2842   7.851   6.962   3.738 -0.1286  0.6001  0.1006
33147SOL    HW1 2843   7.891   6.953   3.825  1.0145  1.1915 -0.3338
33147SOL    HW2 2844   7.780   7.025   3.750 -0.5815 -0.0356  0.7881
33148SOL     OW 2845   5.479   1.295   9.870 -0.5350 -0.2116 -0.0137
33148SOL    HW1 2846   5.574   1.296   9.856 -0.6857 -0.0234 -1.1112
33148SOL    HW2 2847   5.464   1.216   9.922  0.1836 -0.4631 -0.1695
33149SOL     OW 2848  10.886   7.929   2.184  0.7121  0.0240 -0.1594
33149SOL    HW1 2849  10.958   7.937   2.121  2.2290 -0.1269  1.4957
33149SOL    HW2 2850  10.889   7.837   2.212  0.4791  0.2453  0.6163
33150SOL     OW 2851   9.807   2.280   5.416  0.2951  0.1497 -0.2754
33150SOL    HW1 2852   9.851   2.248   5.494  0.2037  1.3215  0.2747
33150SOL    HW2 2853   9.841   2.225   5.345  0.2001 -1.0782  0.6061
33151SOL     OW 2854   1.108   6.621   9.727 -0.0443 -0.1028  0.7128
33151SOL    HW1 2855   1.083   6.649   9.816 -1.3091  1.7124 -0.1540
33151SOL    HW2 2856   1.035   6.566   9.698  0.6409 -1.1816  0.9730
33152SOL     OW 2857   2.329   2.327   8.594 -0.5422  0.4920  0.2801
33152SOL    HW1 2858   2.258   2.317   8.530 -0.9448  0.3793  0.7438
33152SOL    HW2 2859   2.336   2.421   8.608  1.2085  0.7540 -1.7812
33153SOL     OW 2860   4.332   1.564   4.565  0.0212  0.7168  0.4720
33153SOL    HW1 2861   4.406   1.622   4.582  0.7025 -0.8175  3.4092
33153SOL    HW2 2862   4.360   1.511   4.490  1.2282  1.2338  0.5317
33154SOL     OW 2863   5.376   5.698   8.433  0.4329 -0.5779 -0.2436
33154SOL    HW1 2864   5.427   5.769   8.394 -0.1804 -0.4177 -0.7690
33154SOL    HW2 2865   5.441   5.640   8.473  1.0104 -0.2845 -0.7534
33155SOL     OW 2866   9.470   3.603   7.294 -0.1346  0.6948  1.2701
33155SOL    HW1 2867   9.536   3.578   7.229 -0.3766  0.0547  1.2624
33155SOL    HW2 2868   9.401   3.646   7.243 -0.0200  0.7860  1.1920
33156SOL     OW 2869   8.659   8.199   6.949 -0.8584 -0.0434 -0.1535
33156SOL    HW1 2870   8.682   8.284   6.909 -1.1080  0.9959  1.8160
33156SOL    HW2 2871   8.652   8.139   6.874  0.5018  1.3782 -1.5133
33157SOL     OW 2872  10.412   4.616   3.963  0.3034 -0.1018  0.5145
33157SOL    HW1 2873  10.403   4.709   3.984  1.2071  0.0773  0.1499
33157SOL    HW2 2874  10.404   4.611   3.868  1.4775 -0.2203  0.4021
33158SOL     OW 2875  10.055  10.046   6.984  0.2053 -0.2138 -0.0495
33158SOL    HW1 2876  10.090  10.027   7.072 -0.3492  0.5090  0.3374
33158SOL    HW2 2877  10.125  10.096   6.941  0.2798 -0.1288  0.1655
33159SOL     OW 2878   6.602  10.094   9.813 -0.0517 -0.1016  0.2120
33159SOL    HW1 2879   6.572  10.142   9.890  1.0168  1.2822 -0.1896
33159SOL    HW2 2880   6.529  10.037   9.790 -1.0128  0.6625  1.2697
33160SOL     OW 2881   7.319   7.669   9.230 -0.3307  0.2534  0.7998
33160SOL    HW1 2882   7.284   7.643   9.315  3.7464 -2.1322  2.0321
33160SOL    HW2 2883   7.312   7.590   9.176  1.2104  0.3001  0.4849
33161SOL     OW 2884   1.542  10.180   1.724  0.0185  0.4217  0.3869
33161SOL    HW1 2885   1.509  10.134   1.647  0.6467 -0.2585  0.5170
33161SOL    HW2 2886   1.637  10.180   1.713  0.2106 -0.8065  1.7822
33162SOL     OW 2887   5.909   8.859   2.107 -0.2726 -0.1780  0.5536
33162SOL    HW1 2888   5.904   8.856   2.012 -0.1173 -1.2540  0.5769
33162SOL    HW2 2889   5.952   8.943   2.126 -1.1496  0.4790 -0.2752
33163SOL     OW 2890   1.405   3.980   8.469 -0.1343 -0.1863  0.1477
33163SOL    HW1 2891   1.375   3.889   8.459  2.2808 -1.2159  1.2319
33163SOL    HW2 2892   1.501   3.972   8.471  0.1521  2.4903 -0.3500
33164SOL     OW 2893   0.365   1.229   5.276  0.0284 -0.3366  0.1293
33164SOL    HW1 2894   0.426   1.156   5.276  0.1123 -0.2706 -0.5192
33164SOL    HW2 2895   0.281   1.191   5.302  0.5874 -0.2013  2.3545
33165SOL     OW 2896   6.853   3.411   2.136 -0.1980 -0.0125  0.0705
33165SOL    HW1 2897   6.899   3.327   2.131  0.4488  0.3686 -0.9359
33165SOL    HW2 2898   6.843   3.437   2.044 -1.8064  0.2731  0.3003
33166SOL     OW 2899   9.016   7.304   9.276  0.6003 -0.3841 -0.2005
33166SOL    HW1 2900   9.083   7.362   9.312  0.8184 -0.1315 -0.9789
33166SOL    HW2 2901   8.992   7.345   9.193 -0.1951 -0.7166 -0.1392
33167SOL     OW 2902   2.647   2.231   8.566 -0.0259 -0.4986 -0.0959
33167SOL    HW1 2903   2.609   2.186   8.490  0.2391  0.1765 -0.6387
33167SOL    HW2 2904   2.571   2.261   8.616 -0.3045  2.1042 -1.9187
33168SOL     OW 2905   9.330   4.349   9.883 -0.1068  0.4223 -0.1640
33168SOL    HW1 2906   9.352   4.429   9.930  0.2638  0.7348 -0.8621
33168SOL    HW2 2907   9.263   4.376   9.820  1.4788  0.6407 -1.8189
33169SOL     OW 2908   4.750   3.767   1.199  0.0190  0.0851  0.7239
33169SOL    HW1 2909   4.764   3.758   1.105  0.7139  1.8212  0.6231
33169SOL    HW2 2910   4.727   3.679   1.229 -0.3697 -0.4613 -1.0843
33170SOL     OW 2911   3.513   4.121   8.257 -0.0947 -0.1590 -0.8083
33170SOL    HW1 2912   3.493   4.198   8.205  3.3191 -0.0008 -2.0801
33170SOL    HW2 2913   3.607   4.126   8.274 -0.5024 -1.7509  2.9279
33171SOL     OW 2914   5.279   8.773   9.677  0.2184  0.5652  0.3682
33171SOL    HW1 2915   5.303   8.777   9.584  2.0927 -0.5443  0.7463
33171SOL    HW2 2916   5.185   8.757   9.677  0.4062 -0.9110 -1.3882
33172SOL     OW 2917  10.812   8.427   7.915  0.2236 -0.1785  0.0867
33172SOL    HW1 2918  10.722   8.399   7.932  0.3476 -1.9112 -1.7757
33172SOL    HW2 2919  10.866   8.354   7.943  0.9196  0.1126 -0.4608
33173SOL     OW 2920   3.895   5.614  10.369 -0.2741 -0.0208  0.3097
33173SOL    HW1 2921   3.821   5.674  10.364  0.5219  1.0926  1.3917
33173SOL    HW2 2922   3.879   5.562  10.448 -0.3132 -0.3510  0.0859
33174SOL     OW 2923   8.575   6.801   1.473 -0.1041  0.4616 -0.0673
33174SOL    HW1 2924   8.631   6.876   1.453  0.6758 -0.6737 -2.6137
33174SOL    HW2 2925   8.632   6.725   1.460 -1.2491 -0.6261  1.0455
33175SOL     OW 2926   4.097   8.361   8.833  0.4923 -0.1498  0.5313
33175SOL    HW1 2927   4.111   8.456   8.829 -1.2652  0.0903 -1.2068
33175SOL    HW2 2928   4.148   8.333   8.910  2.3100  1.9331  0.1994
33176SOL     OW 2929   4.048   8.454   7.851  0.2079 -0.0466  0.3708
33176SOL    HW1 2930   4.092   8.369   7.856 -0.8497 -0.5647  3.2052
33176SOL    HW2 2931   3.964   8.435   7.810  0.3637 -0.1523  0.0940
33177SOL     OW 2932   7.602   5.180   1.169 -0.6547  0.1598  0.2007
33177SOL    HW1 2933   7.675   5.243   1.168 -1.5299  1.2859  1.8333
33177SOL    HW2 2934   7.568   5.185   1.258 -1.4415 -1.8850  0.0565
33178SOL     OW 2935   8.301   0.987   4.847 -0.9111  0.3373  0.1830
33178SOL    HW1 2936   8.257   0.929   4.785 -0.3648  1.1857 -1.0378
33178SOL    HW2 2937   8.381   1.014   4.801 -1.2678  2.2499  0.5883
33179SOL     OW 2938   5.609   4.931   6.611  0.0660 -0.3609 -0.4763
33179SOL    HW1 2939   5.698   4.932   6.643 -0.3527  2.0560  0.8768
33179SOL    HW2 2940   5.555   4.916   6.688 -0.7889  1.8459 -0.5505
33180SOL     OW 2941   1.085  10.545   0.412 -0.0578 -0.2040  0.3381
33180SOL    HW1 2942   1.118  10.469   0.365 -1.6934 -1.2141  0.7377
33180SOL    HW2 2943   1.000  10.564   0.372 -0.8487 -0.2218  1.9242
33181SOL     OW 2944  10.250   1.909   8.823 -0.5540  0.3147  0.0902
33181SOL    HW1 2945  10.303   1.899   8.902 -0.1826 -1.2033 -0.3227
33181SOL    HW2 2946  10.177   1.849   8.835  1.1771 -2.4919 -2.0207
33182SOL     OW 2947   0.956   7.360   1.122  0.3945 -0.4620 -0.1824
33182SOL    HW1 2948   0.965   7.266   1.109 -1.7352 -0.6102 -1.0627
33182SOL    HW2 2949   1.027   7.399   1.072 -0.6523 -1.5292 -2.6401
33183SOL     OW 2950  10.213  10.505   9.552  0.0657  0.0143  0.0474
33183SOL    HW1 2951  10.182  10.419   9.578  1.2024 -0.0175  1.4253
33183SOL    HW2 2952  10.309  10.499   9.558  0.1687  1.3844  0.2426
33184SOL     OW 2953   5.276   1.579   2.303  0.2524 -0.4018 -0.6951
33184SOL    HW1 2954   5.346   1.527   2.264  1.3802  1.5644 -1.4246
33184SOL    HW2 2955   5.229   1.616   2.229  0.0262  0.3236 -0.2038
33185SOL     OW 2956   2.966   2.284  10.349 -0.1211 -0.2835  0.3118
33185SOL    HW1 2957   2.890   2.287  10.407  0.7904 -1.5981  1.6371
33185SOL    HW2 2958   2.946   2.348  10.280 -3.1309 -1.7115 -0.3071
33186SOL     OW 2959   1.577   4.780   4.829  0.7288  0.2618 -0.0837
33186SOL    HW1 2960   1.523   4.846   4.785  1.6072  0.1725 -1.3490
33186SOL    HW2 2961   1.579   4.707   4.768 -0.6465 -1.1980  1.5172
33187SOL     OW 2962   9.454   0.556   3.218  0.2200 -0.2000  0.1575
33187SOL    HW1 2963   9.456   0.595   3.130  1.5237  2.1983  1.1612
33187SOL    HW2 2964   9.486   0.466   3.205  2.9561  0.9044 -1.4952
33188SOL     OW 2965   4.642   5.503   5.230  0.2107 -0.0600  0.0129
33188SOL    HW1 2966   4.549   5.516   5.249  0.2031  1.8430 -1.0609
33188SOL    HW2 2967   4.653   5.408   5.227 -2.3353 -0.4209 -2.6562
33189SOL     OW 2968   3.037   7.587   8.202 -0.0277  0.2066  0.5261
33189SOL    HW1 2969   2.965   7.533   8.234 -0.4692  1.0006  0.9154
33189SOL    HW2 2970   3.040   7.569   8.108  0.0321 -0.7078  0.6944
33190SOL     OW 2971   6.004   6.177   0.565 -0.2002 -0.5570 -0.5025
33190SOL    HW1 2972   5.940   6.236   0.525 -0.7312 -2.1951 -2.2384
33190SOL    HW2 2973   6.065   6.156   0.494  0.9366 -0.7934  0.5220
33191SOL     OW 2974  10.245   9.116   5.715  0.1524  0.1639 -0.1789
33191SOL    HW1 2975  10.318   9.064   5.748  0.4129  0.1810 -0.7258
33191SOL    HW2 2976  10.179   9.110   5.784  0.8276  0.4982  0.5107
33192SOL     OW 2977   3.969   8.605   4.225  0.3780  0.4495  0.1071
33192SOL    HW1 2978   3.908   8.638   4.291 -1.5120 -0.6546 -0.9997
33192SOL    HW2 2979   4.011   8.530   4.266  1.9261  1.8862  1.2857
33193SOL     OW 2980   5.203   1.880   5.120 -0.2964  0.7554 -0.2628
33193SOL    HW1 2981   5.114   1.845   5.117 -0.7962  1.6169  2.2055
33193SOL    HW2 2982   5.192   1.975   5.126  0.7994  0.8908 -0.0302
33194SOL     OW 2983   8.916   4.133   9.876 -0.4470  0.1290  0.0677
33194SOL    HW1 2984   8.911   4.221   9.915 -0.3025 -0.9043  2.6373
33194SOL    HW2 2985   8.833   4.092   9.901 -0.2362 -0.6710 -0.5301
33195SOL     OW 2986   1.922   4.727   4.393 -0.2128  0.1120 -0.8205
33195SOL    HW1 2987   2.005   4.679   4.394 -0.4235 -0.2935  1.6001
33195SOL    HW2 2988   1.949   4.819   4.400  0.0431  0.0542 -0.9926
33196SOL     OW 2989   1.510   3.060   7.863 -0.1254 -0.4263  0.6414
33196SOL    HW1 2990   1.516   3.119   7.788 -4.0652 -0.8557 -0.2531
33196SOL    HW2 2991   1.516   3.117   7.939  1.2330  0.3833 -0.0400
33197SOL     OW 2992   8.847   7.951  10.617 -0.0831 -0.0446  0.0599
33197SOL    HW1 2993   8.878   7.886  10.681 -1.7555 -1.8113 -0.8287
33197SOL    HW2 2994   8.861   8.035  10.660 -1.0311 -1.1501  2.7345
33198SOL     OW 2995  10.099  10.807   8.919 -0.3509 -0.0482  0.5395
33198SOL    HW1 2996  10.118  10.856   8.839  1.4836  0.8462  1.4674
33198SOL    HW2 2997  10.178  10.756   8.936 -1.5127 -1.9181  0.6561
33199SOL     OW 2998  10.245   7.061   7.968  0.0749 -0.0008  0.4944
33199SOL    HW1 2999  10.186   6.986   7.962  0.2386 -0.1043  0.1234
33199SOL    HW2 3000  10.295   7.047   8.048  0.2769 -0.4183  0.2990
33200SOL     OW 3001  10.107   2.688   5.798  0.8002  0.2946 -0.5439
33200SOL    HW1 3002  10.086   2.597   5.817  0.6486  0.3708 -0.3476
33200SOL    HW2 3003  10.197   2.685   5.765  0.4830 -0.0374 -1.4117
33201SOL     OW 3004  10.005   1.762   1.492  0.0378  0.3016  0.5032
33201SOL    HW1 3005  10.072   1.695   1.477 -0.2189 -0.0315  0.8360
33201SOL    HW2 3006  10.030   1.802   1.576 -0.1376  0.2321  0.5872
33202SOL     OW 3007   0.839   3.754   5.896  0.2660 -0.1773  0.1900
33202SOL    HW1 3008   0.860   3.823   5.833 -0.0889  0.3774  0.6663
33202SOL    HW2 3009   0.757   3.716   5.865 -1.8898  2.4714  2.1623
33203SOL     OW 3010  10.664   4.376   6.735 -0.6375 -0.2283 -0.2551
33203SOL    HW1 3011  10.582   4.422   6.722 -0.1774  0.7399  0.1604
33203SOL    HW2 3012  10.654   4.331   6.819 -0.9574 -0.5995 -0.4909
33204SOL     OW 3013   4.073   4.840   7.303  0.6183  0.2230 -0.3459
33204SOL    HW1 3014   4.079   4.918   7.357 -1.1021  0.7495 -0.8429
33204SOL    HW2 3015   4.048   4.872   7.216 -1.4570 -0.9106 -0.2448
33205SOL     OW 3016   7.553   5.362   2.430  0.3193 -0.3561  0.6419
33205SOL    HW1 3017   7.551   5.327   2.341  0.1033  0.2323  0.4094
33205SOL    HW2 3018   7.505   5.298   2.482 -1.7428  0.4570 -0.1110
33206SOL     OW 3019   3.611   7.379   3.859  0.1297  0.1825  0.0690
33206SOL    HW1 3020   3.705   7.367   3.867  0.3976  1.1997 -1.2036
33206SOL    HW2 3021   3.573   7.313   3.916  1.5678 -1.8344 -1.1861
33207SOL     OW 3022   4.577   7.721   4.463  0.0554  0.3780 -0.0074
33207SOL    HW1 3023   4.545   7.640   4.504  0.8481  1.1572  2.3570
33207SOL    HW2 3024   4.526   7.728   4.382 -0.0656 -2.4255 -0.2906
33208SOL     OW 3025   8.439   0.905   1.968 -0.2420 -0.2415  0.1041
33208SOL    HW1 3026   8.492   0.946   1.900 -0.2757 -0.8300 -0.2927
33208SOL    HW2 3027   8.438   0.968   2.040 -0.9627  0.7972 -0.7908
33209SOL     OW 3028   8.497   6.443   7.978  0.2141 -0.2267 -0.1185
33209SOL    HW1 3029   8.463   6.371   8.032 -1.3485  0.3912 -0.2291
33209SOL    HW2 3030   8.434   6.514   7.991  1.2505  0.8329 -0.7058
33210SOL     OW 3031   6.491   1.092   3.467  0.1999  0.7775  0.3610
33210SOL    HW1 3032   6.517   1.003   3.442  3.4539  1.4144  0.9214
33210SOL    HW2 3033   6.401   1.084   3.497  0.9154 -2.6936  2.0774
33211SOL     OW 3034   6.319   7.747   1.117 -0.2320 -0.4512 -0.1407
33211SOL    HW1 3035   6.329   7.753   1.022 -1.2128  1.0586 -0.1671
33211SOL    HW2 3036   6.326   7.653   1.135  0.9778 -0.6785 -1.5681
33212SOL     OW 3037  10.128   9.547  10.853 -0.5219 -0.2819  0.0641
33212SOL    HW1 3038  10.155   9.537  10.944 -1.0526  1.0892  0.3920
33212SOL    HW2 3039  10.103   9.459  10.826  1.1886 -1.0050  0.7164
33213SOL     OW 3040   4.616   5.829   0.506 -0.1497 -0.1792  0.2448
33213SOL    HW1 3041   4.708   5.850   0.522 -0.2647 -1.4197  3.1357
33213SOL    HW2 3042   4.568   5.879   0.572 -1.2715 -1.6725  0.6101
33214SOL     OW 3043   9.345   4.862   0.336 -0.0664  0.4050 -0.1185
33214SOL    HW1 3044   9.275   4.867   0.401 -0.1677 -2.3803  0.1149
33214SOL    HW2 3045   9.304   4.893   0.255 -1.3272 -0.2887  0.2199
33215SOL     OW 3046   6.898   1.296   5.422 -0.6020 -0.0540 -0.1550
33215SOL    HW1 3047   6.934   1.345   5.495  1.6065 -0.5926 -0.7969
33215SOL    HW2 3048   6.911   1.353   5.346 -0.0910 -0.7025 -0.5638
33216SOL     OW 3049   5.528   3.729   3.712 -0.0290 -0.0146  0.0097
33216SOL    HW1 3050   5.485   3.701   3.793  1.3696  0.4060  0.9480
33216SOL    HW2 3051   5.462   3.779   3.665 -0.4178  1.0732  1.6431
33217SOL     OW 3052   2.727   5.578   0.935  0.7495  0.0461 -0.1449
33217SOL    HW1 3053   2.671   5.515   0.891  0.3988 -0.8007  1.4369
33217SOL    HW2 3054   2.672   5.615   1.005  1.0885  1.7945 -0.7354
33218SOL     OW 3055   9.664   1.603   8.104 -0.5418  0.4883 -0.0567
33218SOL    HW1 3056   9.708   1.539   8.160 -1.6539 -0.3463 -0.1035
33218SOL    HW2 3057   9.615   1.658   8.163 -0.3725  0.6829 -0.0951
33219SOL     OW 3058   6.037   4.910   3.489 -0.0163 -0.1092 -0.4140
33219SOL    HW1 3059   6.083   4.967   3.427  1.6836 -1.0999 -0.1250
33219SOL    HW2 3060   5.986   4.851   3.434  0.5462 -0.2203 -0.8226
33220SOL     OW 3061   8.749   3.218   7.449 -0.3124  0.2034  0.1789
33220SOL    HW1 3062   8.761   3.265   7.532 -1.8205  0.3179  0.3600
33220SOL    HW2 3063   8.730   3.286   7.385 -0.7942 -0.0194  0.0825
33221SOL     OW 3064   2.199   5.413   9.165  0.2101  0.7007  0.0262
33221SOL    HW1 3065   2.158   5.410   9.251  0.7765 -0.4840  0.2775
33221SOL    HW2 3066   2.167   5.494   9.126 -1.7159  0.2226  0.5199
33222SOL     OW 3067   6.961   0.398   5.348  0.1526 -0.1902  0.4318
33222SOL    HW1 3068   6.928   0.441   5.427 -0.5033  0.2898 -0.0850
33222SOL    HW2 3069   6.886   0.349   5.314 -0.5403  2.0147 -1.5233
33223SOL     OW 3070   6.113   3.356   1.457 -0.2150  0.4707 -0.0990
33223SOL    HW1 3071   6.111   3.378   1.550 -0.1123  1.2421 -0.2730
33223SOL    HW2 3072   6.110   3.441   1.412  1.2199  0.1782 -0.7844
33224SOL     OW 3073   7.266   6.561   3.396 -0.2596 -0.4034 -0.3582
33224SOL    HW1 3074   7.215   6.566   3.315  0.1082 -0.2334 -0.5805
33224SOL    HW2 3075   7.252   6.472   3.427 -0.4745 -0.4432 -0.5612
33225SOL     OW 3076   4.805   1.726   6.762 -0.0391 -0.0935  0.5579
33225SOL    HW1 3077   4.876   1.676   6.723  0.5484  0.2463  1.1721
33225SOL    HW2 3078   4.752   1.662   6.809  1.0134 -0.0938  1.7946
33226SOL     OW 3079   9.346   3.852   5.019  0.2938  0.1878 -0.2353
33226SOL    HW1 3080   9.376   3.903   4.943  1.1111  0.2988  0.1451
33226SOL    HW2 3081   9.427   3.830   5.066 -0.0004 -1.8046 -0.5890
33227SOL     OW 3082   7.929   7.129   1.317  0.0035 -0.1598  0.0123
33227SOL    HW1 3083   7.873   7.183   1.261 -2.5117 -0.2781  2.1773
33227SOL    HW2 3084   7.885   7.044   1.319  0.5561 -0.4361  1.3682
33228SOL     OW 3085   1.163   4.093   8.467  0.4620  0.4481  0.3297
33228SOL    HW1 3086   1.116   4.043   8.400  1.2450  0.2084 -0.0551
33228SOL    HW2 3087   1.252   4.057   8.466  0.3639  0.1038  1.8468
33229SOL     OW 3088   2.758   3.223   9.071 -0.3163 -0.0157 -0.3220
33229SOL    HW1 3089   2.757   3.319   9.074  1.8512  0.0987 -1.0546
33229SOL    HW2 3090   2.666   3.197   9.069 -0.9631  2.1336 -2.2541
33230SOL     OW 3091  10.574   2.589   5.897 -0.3095  0.6696 -0.1999
33230SOL    HW1 3092  10.494   2.604   5.948  0.0076  1.6191  0.0451
33230SOL    HW2 3093  10.611   2.509   5.933  0.0427  1.4449  1.2552
33231SOL     OW 3094   1.248   3.986   6.331 -0.4238  0.1732  0.2239
33231SOL    HW1 3095   1.287   3.911   6.289 -0.3027  0.1676  0.3450
33231SOL    HW2 3096   1.304   4.004   6.407  0.0762  0.9527 -0.3162
33232SOL     OW 3097   2.363   5.802   9.399  0.2666  0.1883 -0.2005
33232SOL    HW1 3098   2.355   5.710   9.426  3.4040 -0.6604 -1.6620
33232SOL    HW2 3099   2.432   5.837   9.455  1.2810  0.7021 -1.7250
33233SOL     OW 3100   9.597  10.385   8.482  0.2169  0.0672 -0.2598
33233SOL    HW1 3101   9.508  10.419   8.495 -0.7572 -1.1582 -2.8656
33233SOL    HW2 3102   9.591  10.293   8.506  0.6621 -0.1023 -0.7669
33234SOL     OW 3103   6.589   4.079   0.064  0.3461  0.8496 -0.0311
33234SOL    HW1 3104   6.612   4.088   0.157  0.7253  1.9070 -0.2151
33234SOL    HW2 3105   6.621   4.160   0.024  0.4924  0.2439 -1.1483
33235SOL     OW 3106   2.849   3.119   3.351 -0.3463  0.1910  0.0791
33235SOL    HW1 3107   2.839   3.149   3.442 -0.8109 -0.3096  0.2014
33235SOL    HW2 3108   2.846   3.024   3.357  0.5121  0.1311 -0.3700
33236SOL     OW 3109   6.599   3.233   6.718 -0.0162 -0.0142  0.2825
33236SOL    HW1 3110   6.606   3.283   6.799 -1.8249 -1.2370  1.2528
33236SOL    HW2 3111   6.617   3.142   6.743 -0.7693 -0.4349 -0.6297
33237SOL     OW 3112   4.990   7.479   1.366 -0.0768 -0.6842  0.3041
33237SOL    HW1 3113   5.052   7.465   1.294  0.0786  0.7694  0.1160
33237SOL    HW2 3114   5.042   7.521   1.435 -0.8840  0.9386 -0.0085
33238SOL     OW 3115  10.525   3.831   9.590 -0.5038 -0.1016  0.1568
33238SOL    HW1 3116  10.534   3.911   9.642 -1.2611 -1.5115  2.6185
33238SOL    HW2 3117  10.503   3.861   9.502  1.9800  2.4609  0.2728
33239SOL     OW 3118   4.302   3.125   1.454 -0.0722 -0.3220  0.2143
33239SOL    HW1 3119   4.376   3.149   1.510 -0.2895 -1.3587  0.9909
33239SOL    HW2 3120   4.264   3.048   1.497 -1.0445 -0.3575 -0.6705
33240SOL     OW 3121   3.634   3.053   3.112  0.4450 -0.0351  0.0028
33240SOL    HW1 3122   3.710   3.020   3.064  1.0830  0.5888  0.5696
33240SOL    HW2 3123   3.671   3.103   3.185 -0.5131 -0.3326  0.7059
33241SOL     OW 3124   7.610   5.638   4.524 -0.7539  0.5593  0.4988
33241SOL    HW1 3125   7.599   5.703   4.594  2.5424  2.3554 -0.4476
33241SOL    HW2 3126   7.670   5.574   4.561  1.1115  1.5878 -0.6356
33242SOL     OW 3127   6.487   4.349   1.037  0.1884 -0.4663 -0.0170
33242SOL    HW1 3128   6.556   4.285   1.023 -0.3610 -2.0727  3.4368
33242SOL    HW2 3129   6.525   4.414   1.096 -0.6977 -0.4390  0.5526
33243SOL     OW 3130   5.450   8.199   2.167 -0.1790 -0.9550  0.7103
33243SOL    HW1 3131   5.513   8.270   2.176 -1.0307 -0.0930  0.1068
33243SOL    HW2 3132   5.498   8.129   2.124  0.3779 -0.3317  0.3093
33244SOL     OW 3133   9.325  10.399   2.913 -0.0179  0.0337 -0.2099
33244SOL    HW1 3134   9.412  10.388   2.951  0.7258  0.7202 -1.6343
33244SOL    HW2 3135   9.327  10.344   2.834 -0.7479  0.3276 -0.4375
33245SOL     OW 3136   3.925   4.434   5.495  0.3621  0.1552 -0.0517
33245SOL    HW1 3137   3.855   4.381   5.532 -0.7625  1.6535  0.0435
33245SOL    HW2 3138   3.942   4.395   5.409  0.5125 -1.1664  0.5545
33246SOL     OW 3139   0.067   1.019   1.715 -0.1084  0.2505  0.2097
33246SOL    HW1 3140  -0.023   0.984   1.713  0.3139 -0.8677 -1.4090
33246SOL    HW2 3141   0.119   0.948   1.752  0.3680  0.1609 -0.6079
33247SOL     OW 3142   9.843   8.304   2.437 -0.1295 -0.0914 -0.6028
33247SOL    HW1 3143   9.934   8.331   2.425 -0.3987  0.0514 -2.9302
33247SOL    HW2 3144   9.792   8.377   2.402 -1.2698  0.6335  2.3156
33248SOL     OW 3145   7.679   2.710   1.462  0.7964 -0.6212  0.0838
33248SOL    HW1 3146   7.589   2.679   1.457  0.8438 -0.6821 -0.5666
33248SOL    HW2 3147   7.718   2.683   1.378  1.9431 -2.2422  1.0819
33249SOL     OW 3148   8.942   2.172   6.562 -0.1106 -0.5856  0.5067
33249SOL    HW1 3149   8.880   2.211   6.500 -0.0753  2.6313  2.2718
33249SOL    HW2 3150   8.892   2.160   6.643  1.2628  1.2791  1.7119
33250SOL     OW 3151   6.094   8.191   1.608  0.6767  0.1252 -0.4139
33250SOL    HW1 3152   6.185   8.216   1.596  0.6978  0.5729  0.5829
33250SOL    HW2 3153   6.045   8.250   1.549  0.9537  0.5871 -0.1863
33251SOL     OW 3154   4.867   7.555   2.189 -0.1175  0.0432 -0.9098
33251SOL    HW1 3155   4.918   7.541   2.109  1.7239  0.4766  0.1141
33251SOL    HW2 3156   4.911   7.501   2.255 -1.4584 -0.1355 -0.1239
33252SOL     OW 3157   6.484   9.391   5.261 -0.0330 -0.4522  0.0132
33252SOL    HW1 3158   6.400   9.345   5.265  0.9063 -2.1591  2.1459
33252SOL    HW2 3159   6.521   9.380   5.349  1.8335  1.4323 -0.4717
33253SOL     OW 3160   4.633   0.015   5.084 -0.1309 -0.2092 -0.1281
33253SOL    HW1 3161   4.718  -0.002   5.124 -0.2977  0.1657  0.4036
33253SOL    HW2 3162   4.584  -0.066   5.095 -0.5345  0.1982  1.3823
33254SOL     OW 3163   6.412  10.139   0.097  0.1185 -0.2662  0.0481
33254SOL    HW1 3164   6.423  10.086   0.018 -0.2799  0.3862 -0.4629
33254SOL    HW2 3165   6.492  10.125   0.147  0.0596 -1.2651 -0.1180
33255SOL     OW 3166   5.348   1.779   0.398 -0.2922  0.0206 -0.5406
33255SOL    HW1 3167   5.371   1.743   0.312  0.3393 -0.0957 -0.3225
33255SOL    HW2 3168   5.404   1.856   0.407 -0.3584  0.0314 -0.2291
33256SOL     OW 3169   7.654   4.278   5.081 -0.6640 -0.2930 -0.2237
33256SOL    HW1 3170   7.711   4.203   5.066 -1.0248 -0.3671 -1.3117
33256SOL    HW2 3171   7.714   4.352   5.090 -0.2227 -0.8768  2.2801
33257SOL     OW 3172   5.964   7.755   5.431  0.5107  0.0827 -0.2534
33257SOL    HW1 3173   6.016   7.836   5.436  0.4326  0.3035 -2.2563
33257SOL    HW2 3174   5.917   7.762   5.348 -0.8176 -1.2643  0.3482
33258SOL     OW 3175   3.220   5.922   4.976 -0.9349  0.1216 -0.0999
33258SOL    HW1 3176   3.158   5.863   5.019 -1.6664 -0.8261 -2.3027
33258SOL    HW2 3177   3.246   5.984   5.044  0.3256 -3.0255  2.5317
33259SOL     OW 3178  10.735   9.026   3.933  0.0460  0.1451 -0.4937
33259SOL    HW1 3179  10.652   9.068   3.956  0.4306  1.6758 -1.6758
33259SOL    HW2 3180  10.800   9.095   3.943  0.8984 -0.5066 -1.3570
33260SOL     OW 3181   7.765   8.138  10.144 -0.3126  0.2041  0.1381
33260SOL    HW1 3182   7.733   8.195  10.073  1.2915  1.1243  0.0922
33260SOL    HW2 3183   7.794   8.059  10.099 -0.8943  0.0740 -0.0194
33261SOL     OW 3184   1.732  10.277   8.956 -0.5661  0.3147 -0.4651
33261SOL    HW1 3185   1.746  10.255   9.048 -1.2514  1.1117 -0.1624
33261SOL    HW2 3186   1.651  10.232   8.932 -0.0197 -0.4597 -0.8815
33262SOL     OW 3187   9.925   1.609   2.688  0.5187  0.0154 -0.7870
33262SOL    HW1 3188  10.011   1.630   2.725  0.3268  0.3222 -0.5050
33262SOL    HW2 3189   9.944   1.577   2.600  0.9336 -0.0903 -0.6613
33263SOL     OW 3190   1.528   6.731   7.249 -0.1223  0.2618  0.3658
33263SOL    HW1 3191   1.585   6.657   7.229 -1.7700 -0.8141 -0.5724
33263SOL    HW2 3192   1.464   6.696   7.311 -0.5871  1.0660  0.3543
33264SOL     OW 3193   2.195   1.431   7.894  0.4866 -0.8973 -0.5197
33264SOL    HW1 3194   2.155   1.347   7.868 -0.8088  0.2182 -2.3374
33264SOL    HW2 3195   2.278   1.434   7.846  1.0255 -1.5342  0.3261
33265SOL     OW 3196   1.290   3.418   2.445 -0.0206  0.1352  0.0100
33265SOL    HW1 3197   1.361   3.359   2.469 -1.5672 -0.5788  3.3930
33265SOL    HW2 3198   1.309   3.499   2.492 -0.2782  0.7441 -0.9136
33266SOL     OW 3199   6.271   1.932   0.522 -0.2120  0.0959 -0.2974
33266SOL    HW1 3200   6.229   2.012   0.490  1.6250  1.1618 -0.1986
33266SOL    HW2 3201   6.359   1.935   0.486  0.8004 -0.4518  1.9690
33267SOL     OW 3202   8.678   9.953   8.500 -0.3136 -0.8423 -0.7747
33267SOL    HW1 3203   8.763   9.970   8.459  0.3939 -0.1966  0.8910
33267SOL    HW2 3204   8.618  10.013   8.456  0.7393  0.9820  0.1577
33268SOL     OW 3205   8.708   1.348   4.534  0.3060  0.3610 -0.0493
33268SOL    HW1 3206   8.765   1.412   4.492  0.2331 -0.3414 -1.2754
33268SOL    HW2 3207   8.636   1.399   4.570 -0.0509  0.9285 -1.5040
33269SOL     OW 3208   7.395   9.153   8.384 -0.0021  0.6022 -0.2365
33269SOL    HW1 3209   7.379   9.246   8.399  0.9272  0.6328  0.7323
33269SOL    HW2 3210   7.423   9.120   8.470  0.9336 -0.2791 -0.8586
33270SOL     OW 3211   9.165   2.886   5.352  0.2450  0.0301 -0.1037
33270SOL    HW1 3212   9.222   2.881   5.275 -0.3170  0.3648 -0.5482
33270SOL    HW2 3213   9.225   2.900   5.425  0.6815  1.1522 -0.6530
33271SOL     OW 3214   1.886  10.828   9.519 -0.2758  0.0025 -0.5589
33271SOL    HW1 3215   1.812  10.815   9.460 -0.6816  0.8440 -0.2427
33271SOL    HW2 3216   1.847  10.855   9.602  0.3520 -0.1729 -0.1981
33272SOL     OW 3217   0.863   7.132   8.079  0.9690  0.1028 -0.4459
33272SOL    HW1 3218   0.846   7.041   8.102  2.2538  0.1200  0.6781
33272SOL    HW2 3219   0.831   7.141   7.989 -3.2043 -0.2708  0.8229
33273SOL     OW 3220   1.725   2.826   9.632  0.1750  0.3257 -0.6544
33273SOL    HW1 3221   1.784   2.823   9.708 -1.7367 -1.0626  0.8502
33273SOL    HW2 3222   1.647   2.871   9.664 -0.4923  0.1413 -1.9556
33274SOL     OW 3223   9.909   8.806   6.232  0.2871 -0.0116 -0.2018
33274SOL    HW1 3224   9.982   8.794   6.293  1.4407  0.3513 -1.4459
33274SOL    HW2 3225   9.921   8.895   6.198 -0.4322 -0.1336 -0.8137
33275SOL     OW 3226   1.878   7.474   5.416 -0.2606  0.1109  0.2120
33275SOL    HW1 3227   1.814   7.481   5.345 -1.0121 -0.3280  0.8411
33275SOL    HW2 3228   1.949   7.421   5.378 -1.3484 -1.4440  0.2454
33276SOL     OW 3229  10.706   4.061   6.939  0.1665  0.0089 -0.2349
33276SOL    HW1 3230  10.732   3.984   6.989  0.5035  0.7339  0.7366
33276SOL    HW2 3231  10.746   4.134   6.985 -0.3241  0.7927 -1.0192
33277SOL     OW 3232   0.074   3.255   1.183 -0.1560 -0.8705  1.0215
33277SOL    HW1 3233   0.129   3.333   1.185 -1.6430  0.2083  1.8342
33277SOL    HW2 3234   0.049   3.245   1.091 -1.4378  0.7326  1.1584
33278SOL     OW 3235   5.158   1.575   9.196  0.4422  0.2265  0.0243
33278SOL    HW1 3236   5.180   1.488   9.163  0.2664  0.3920 -0.5405
33278SOL    HW2 3237   5.068   1.567   9.227  0.2603  0.3308 -0.4765
33279SOL     OW 3238   2.489   5.084   3.729  0.4806  0.2580 -0.1028
33279SOL    HW1 3239   2.456   4.995   3.722  0.7213  0.1346  0.3387
33279SOL    HW2 3240   2.517   5.093   3.820  1.6678  0.3525 -0.4513
33280SOL     OW 3241  10.684   8.667   8.347  0.4021 -0.3828  0.1091
33280SOL    HW1 3242  10.595   8.701   8.343  0.7085  0.6147  1.1426
33280SOL    HW2 3243  10.735   8.726   8.290  0.5655 -0.3669  0.2701
33281SOL     OW 3244   1.953   0.238   2.763  0.0524 -0.6147 -0.1438
33281SOL    HW1 3245   1.874   0.291   2.758  0.3790 -0.2396 -1.5499
33281SOL    HW2 3246   2.025   0.299   2.748  0.5778 -1.0767  0.4201
33282SOL     OW 3247   2.641   3.260   0.951  0.0050 -0.2083  0.5048
33282SOL    HW1 3248   2.663   3.208   0.874  0.6357 -0.2360  0.7027
33282SOL    HW2 3249   2.554   3.228   0.977 -0.6893  0.5185 -0.8020
33283SOL     OW 3250   5.064   3.197   3.070 -0.1873  0.3392  0.3121
33283SOL    HW1 3251   4.977   3.226   3.043  0.5944  1.0202 -1.7143
33283SOL    HW2 3252   5.080   3.241   3.154 -1.5962  0.5777  0.4700
33284SOL     OW 3253   9.350   8.432   7.557  0.3550 -0.5009  0.3526
33284SOL    HW1 3254   9.289   8.506   7.564  0.1339 -0.7229  0.8175
33284SOL    HW2 3255   9.435   8.470   7.578  0.5905  0.0718 -1.4696
33285SOL     OW 3256   5.124   3.391   7.328  0.3109  0.0965 -0.0466
33285SOL    HW1 3257   5.166   3.357   7.249 -1.5485  1.9478 -1.9933
33285SOL    HW2 3258   5.146   3.484   7.329 -1.0423  0.4453  0.6633
33286SOL     OW 3259   8.771   9.213   3.812  0.0355 -0.4655  0.3360
33286SOL    HW1 3260   8.803   9.213   3.902  0.7464 -1.8130  0.1193
33286SOL    HW2 3261   8.749   9.121   3.795 -0.6187 -0.1368 -0.6839
33287SOL     OW 3262   1.177  10.761   0.554 -0.4327  0.5956 -0.0751
33287SOL    HW1 3263   1.099  10.816   0.557 -1.9655 -1.4586  2.0481
33287SOL    HW2 3264   1.154  10.689   0.495 -0.1516 -0.0051  0.5296
33288SOL     OW 3265   6.274  10.474   1.849 -0.2102  1.0674  0.6882
33288SOL    HW1 3266   6.194  10.494   1.800  0.1263  0.1692 -0.2572
33288SOL    HW2 3267   6.247  10.410   1.915 -0.6131  2.0951  1.5511
33289SOL     OW 3268   4.511   0.913   7.625 -0.1339 -0.1646  0.2951
33289SOL    HW1 3269   4.480   0.886   7.539  0.0113  0.0159  0.1848
33289SOL    HW2 3270   4.570   0.986   7.607  0.1718 -0.3554  0.5201
33290SOL     OW 3271   8.045  10.838   2.526 -0.1438 -0.5965  0.2977
33290SOL    HW1 3272   8.089  10.785   2.460 -1.7617 -0.9429 -0.5501
33290SOL    HW2 3273   8.111  10.902   2.554  0.1777  0.5142 -2.7113
33291SOL     OW 3274   5.830   3.394   6.771 -0.1952  0.6411  0.6964
33291SOL    HW1 3275   5.881   3.344   6.833  0.1841  1.1479  0.8015
33291SOL    HW2 3276   5.811   3.333   6.700  1.0097  0.5821  0.4008
33292SOL     OW 3277   5.320   2.426   2.497  0.3037 -0.3433  0.6781
33292SOL    HW1 3278   5.271   2.381   2.429 -1.0301  0.0123  1.3668
33292SOL    HW2 3279   5.354   2.355   2.553  2.3332 -0.6984 -0.9010
33293SOL     OW 3280   4.029   5.569   8.913 -0.0840  0.0751  0.0417
33293SOL    HW1 3281   4.056   5.554   9.003  1.9542 -1.3957 -0.7357
33293SOL    HW2 3282   4.003   5.483   8.881 -1.5676  0.7153 -0.5765
33294SOL     OW 3283   2.468   6.880   5.807  0.3737 -0.3643 -0.3844
33294SOL    HW1 3284   2.408   6.899   5.879  1.3293  0.3262  0.2563
33294SOL    HW2 3285   2.419   6.900   5.728 -0.3586 -0.1582  0.1140
33295SOL     OW 3286   0.886   3.878   5.626 -0.1198 -0.2794 -0.3806
33295SOL    HW1 3287   0.803   3.908   5.589  0.8985  1.6029 -1.2654
33295SOL    HW2 3288   0.896   3.789   5.591 -2.1292 -0.9020  0.4418
33296SOL     OW 3289   5.766   5.656   5.539  0.7207 -0.1992 -0.0037
33296SOL    HW1 3290   5.711   5.708   5.597  0.9909  0.8887 -0.6870
33296SOL    HW2 3291   5.718   5.653   5.456  0.5278 -1.3904  0.1354
33297SOL     OW 3292  10.825   5.884   3.804  0.1290 -0.5198  0.1112
33297SOL    HW1 3293  10.807   5.838   3.886 -0.2655 -1.2923 -0.3963
33297SOL    HW2 3294  10.780   5.968   3.812  0.6189 -0.3288  0.9372
33298SOL     OW 3295   8.894   8.302  10.643  0.1757  0.2751  0.1254
33298SOL    HW1 3296   8.916   8.323  10.552  2.3605 -0.9455  0.3010
33298SOL    HW2 3297   8.950   8.360  10.695  1.7329 -1.5456  0.6099
33299SOL     OW 3298   7.536  10.126   4.536  0.1585  0.6253 -0.5391
33299SOL    HW1 3299   7.622  10.150   4.571 -0.1974 -0.3426  1.1046
33299SOL    HW2 3300   7.554  10.056   4.474  0.5046 -0.1282  0.3956
33300SOL     OW 3301   9.693   9.744   9.741 -0.4818  0.3590 -0.1989
33300SOL    HW1 3302   9.712   9.690   9.817  1.0758 -0.0732 -0.8615
33300SOL    HW2 3303   9.768   9.803   9.734 -0.3613  0.0614 -1.6825
33301SOL     OW 3304   4.464   7.608   0.991  0.6201  0.2674  0.4472
33301SOL    HW1 3305   4.539   7.606   1.049  0.6161  0.9971  0.4919
33301SOL    HW2 3306   4.393   7.644   1.045  0.9883  2.4028 -0.3793
33302SOL     OW 3307   0.509   6.786   6.636 -0.1315 -0.1027 -0.7602
33302SOL    HW1 3308   0.484   6.771   6.727 -0.0875  2.1075 -0.3325
33302SOL    HW2 3309   0.442   6.740   6.586 -1.1227 -0.0024  0.4030
33303SOL     OW 3310   0.016   2.557   5.774 -0.2767  0.7246 -0.2658
33303SOL    HW1 3311  -0.038   2.511   5.838 -0.0875  0.4221 -0.3217
33303SOL    HW2 3312   0.106   2.534   5.796 -0.0772  2.1925  0.5784
33304SOL     OW 3313   8.316  10.120   3.987 -0.4410 -0.3872 -0.1997
33304SOL    HW1 3314   8.305  10.053   4.054  0.5341  1.3829  1.8502
33304SOL    HW2 3315   8.312  10.073   3.904 -0.3365 -2.8661  1.1301
33305SOL     OW 3316   7.822   0.080   4.203  0.9464 -0.0638  0.3088
33305SOL    HW1 3317   7.795   0.070   4.112  0.8652 -1.2296  0.4406
33305SOL    HW2 3318   7.741   0.096   4.251  1.0641  1.2164  0.1025
33306SOL     OW 3319   4.062   3.806   3.664 -0.3598 -0.0710  0.5505
33306SOL    HW1 3320   4.154   3.783   3.650 -0.1816 -0.7250  2.5242
33306SOL    HW2 3321   4.021   3.724   3.691 -1.2341  0.5023  1.0006
33307SOL     OW 3322   8.185   3.835   0.696  0.2152 -0.2105 -0.0469
33307SOL    HW1 3323   8.244   3.761   0.712  0.6119  0.2764  0.8923
33307SOL    HW2 3324   8.102   3.795   0.672  0.5465 -0.9524  0.0030
33308SOL     OW 3325   4.570   7.051   6.645  0.7126 -0.6516 -0.7320
33308SOL    HW1 3326   4.570   6.962   6.682  0.6930 -0.6641 -0.7618
33308SOL    HW2 3327   4.488   7.056   6.596  0.7874 -0.6711 -0.8611
33309SOL     OW 3328  10.733   3.100  10.465 -0.5554  0.0037  0.0164
33309SOL    HW1 3329  10.766   3.015  10.494 -2.0039 -0.1473  1.4143
33309SOL    HW2 3330  10.654   3.113  10.518 -0.0424  2.4899  0.2728
33310SOL     OW 3331   3.708   4.310   5.630  0.5729  0.4265  0.2297
33310SOL    HW1 3332   3.747   4.253   5.696  2.0895 -0.4399 -1.3081
33310SOL    HW2 3333   3.642   4.255   5.588  2.7125 -0.7067 -1.9232
33311SOL     OW 3334   7.379   2.271   5.613 -0.0612 -0.2668  0.2789
33311SOL    HW1 3335   7.346   2.322   5.539  0.1192 -0.1769  0.2589
33311SOL    HW2 3336   7.302   2.257   5.668 -0.0626  0.2612  0.4198
33312SOL     OW 3337   0.990   0.256  10.346 -0.1411 -0.0625  0.0064
33312SOL    HW1 3338   1.061   0.282  10.405 -0.7724  1.7058  0.0537
33312SOL    HW2 3339   0.913   0.304  10.379 -0.8764 -0.3195 -1.2743
33313SOL     OW 3340   3.402   6.613   1.744 -0.2930 -0.0092  0.0499
33313SOL    HW1 3341   3.397   6.677   1.814  1.2757  2.4135 -1.8547
33313SOL    HW2 3342   3.489   6.574   1.752 -0.5638 -0.6089  0.1443
33314SOL     OW 3343   5.890   6.027   8.849 -0.4016  0.3853  0.2931
33314SOL    HW1 3344   5.837   6.095   8.889  0.4518  0.5845  1.1230
33314SOL    HW2 3345   5.846   6.008   8.766 -2.0755  0.1258  1.2096
33315SOL     OW 3346   3.058   9.182   0.334  0.2872  0.0802 -0.1107
33315SOL    HW1 3347   2.976   9.155   0.292  1.2458  0.5081 -2.4330
33315SOL    HW2 3348   3.087   9.105   0.382 -0.6966 -0.5910 -0.5654
33316SOL     OW 3349   6.708   8.498   6.437 -0.5935 -0.0927  0.3926
33316SOL    HW1 3350   6.622   8.536   6.419 -0.4588 -0.2480 -0.6128
33316SOL    HW2 3351   6.694   8.444   6.515 -1.0090  1.2239  1.2713
33317SOL     OW 3352   5.673   3.450   0.562  0.1594  0.4600 -0.4461
33317SOL    HW1 3353   5.621   3.490   0.493 -0.3331 -0.5431 -0.6645
33317SOL    HW2 3354   5.712   3.372   0.522 -3.5424 -2.6648  1.3994
33318SOL     OW 3355   3.506   9.783   1.601 -0.0692  0.2309  0.8057
33318SOL    HW1 3356   3.560   9.704   1.609  0.1368  0.2898  0.0896
33318SOL    HW2 3357   3.502   9.819   1.689 -0.2233 -0.6179  1.1444
33319SOL     OW 3358   1.014   5.096  10.223 -0.4897  0.1707 -0.0508
33319SOL    HW1 3359   1.036   5.112  10.131 -0.0383 -0.5380 -0.0757
33319SOL    HW2 3360   1.067   5.159  10.272  1.5080 -1.3575 -0.1243
33320SOL     OW 3361  10.410   8.787   3.760 -0.1014  0.5701 -0.0492
33320SOL    HW1 3362  10.338   8.765   3.702 -0.6759  0.4338  0.7086
33320SOL    HW2 3363  10.374   8.854   3.819  1.2257  2.7326 -1.5155
33321SOL     OW 3364   9.407   7.562   5.807  0.1064  0.6900 -0.0548
33321SOL    HW1 3365   9.325   7.519   5.832  0.5553  0.3047  0.8182
33321SOL    HW2 3366   9.436   7.514   5.730 -0.7356  1.1596 -0.6801
33322SOL     OW 3367   3.054   0.099  10.455 -0.4327  0.0651 -1.0275
33322SOL    HW1 3368   2.981   0.150  10.489  1.8799  2.3369  0.9722
33322SOL    HW2 3369   3.072   0.035  10.524 -1.2147 -1.2746 -2.0362
33323SOL     OW 3370   2.800   0.162   6.302 -0.4859 -1.0398 -0.4724
33323SOL    HW1 3371   2.760   0.207   6.227 -0.7656 -1.8538 -0.8230
33323SOL    HW2 3372   2.884   0.207   6.314 -0.7162 -0.4826 -0.8613
33324SOL     OW 3373   7.997   1.603   0.338  0.3141 -0.3014 -0.0300
33324SOL    HW1 3374   7.931   1.617   0.271 -1.0626  0.0843  1.3694
33324SOL    HW2 3375   8.069   1.558   0.292 -0.6750 -0.2441 -1.6864
33325SOL     OW 3376   1.204  10.838   7.016  0.6173  0.0666  0.0104
33325SOL    HW1 3377   1.130  10.781   6.996 -0.8358  0.7390  2.8403
33325SOL    HW2 3378   1.264  10.827   6.943 -2.7452  0.3864 -3.0942
33326SOL     OW 3379   3.881   0.077   6.417 -0.2343  0.3880  0.2624
33326SOL    HW1 3380   3.920   0.085   6.330 -1.1497  0.6499 -0.1354
33326SOL    HW2 3381   3.933   0.136   6.472  0.4058  0.1549 -0.0736
33327SOL     OW 3382  10.841   8.559   7.241 -0.5156 -0.3453  0.4820
33327SOL    HW1 3383  10.886   8.499   7.301 -0.9894  0.1733  1.3822
33327SOL    HW2 3384  10.774   8.601   7.295 -0.4176  0.7487 -0.2137
33328SOL     OW 3385   0.239   9.933   6.752 -0.1412  0.7675  0.0368
33328SOL    HW1 3386   0.198   9.885   6.823 -1.8411 -0.0161 -1.4039
33328SOL    HW2 3387   0.220  10.025   6.771 -1.1709  0.5209  0.2597
33329SOL     OW 3388   3.210   1.419   0.297 -0.2215  0.5319 -0.1249
33329SOL    HW1 3389   3.145   1.489   0.304 -1.1402 -0.4524  1.9471
33329SOL    HW2 3390   3.194   1.364   0.373  0.0892 -2.2711 -1.9370
33330SOL     OW 3391   3.801   2.187   3.091 -0.2334  0.2364 -0.0823
33330SOL    HW1 3392   3.797   2.259   3.155 -1.4180  0.9930 -0.9667
33330SOL    HW2 3393   3.796   2.230   3.006  0.8088 -0.7972 -0.6905
33331SOL     OW 3394   5.310  10.718  10.616  0.4064 -0.4354  0.4486
33331SOL    HW1 3395   5.318  10.655  10.688  1.0986 -2.2733 -1.1380
33331SOL    HW2 3396   5.381  10.780  10.629 -0.0677 -0.1610  1.8497
33332SOL     OW 3397   0.980   7.961  10.807 -0.1468 -0.3399  0.1674
33332SOL    HW1 3398   1.034   7.921  10.739 -0.3192 -0.6530  0.2138
33332SOL    HW2 3399   0.918   7.893  10.832  0.0436 -0.2917  0.7866
33333SOL     OW 3400   6.150   0.905   5.147  0.5713 -0.6956  0.2394
33333SOL    HW1 3401   6.107   0.947   5.222 -1.3203 -2.2749  0.1082
33333SOL    HW2 3402   6.235   0.879   5.180  1.0914  1.5361  0.8473
33334SOL     OW 3403   2.462   0.672   8.143  0.2620  0.3617  0.4830
33334SOL    HW1 3404   2.451   0.736   8.213 -0.5691  1.6201 -0.7619
33334SOL    HW2 3405   2.522   0.714   8.081  1.1756 -0.8273  0.5261
33335SOL     OW 3406   0.464   6.914   2.897  0.3863  0.3008  0.3271
33335SOL    HW1 3407   0.430   6.828   2.920 -0.4534  0.2390 -1.0507
33335SOL    HW2 3408   0.450   6.967   2.976  1.2762 -0.9059  1.3107
33336SOL     OW 3409   1.715   8.095   7.464  0.1345 -0.2889  0.3187
33336SOL    HW1 3410   1.735   8.062   7.552 -3.8857 -1.1463  1.1174
33336SOL    HW2 3411   1.654   8.030   7.428  1.4947  0.1402 -3.1251
33337SOL     OW 3412   7.806   4.096   5.734 -0.1364  0.1274 -0.4687
33337SOL    HW1 3413   7.742   4.032   5.701  0.6875 -0.3035 -1.2913
33337SOL    HW2 3414   7.863   4.045   5.791  1.0991 -0.1227 -1.8649
33338SOL     OW 3415   3.775   0.046  10.180  0.2000 -0.2681  0.8096
33338SOL    HW1 3416   3.798  -0.047  10.188 -1.1776 -0.8965 -1.4974
33338SOL    HW2 3417   3.696   0.056  10.233  1.2514  0.0163  2.3754
33339SOL     OW 3418   2.204   0.695   2.711  0.4312 -0.0012  0.4000
33339SOL    HW1 3419   2.244   0.750   2.779 -0.8818 -0.3769  1.5238
33339SOL    HW2 3420   2.171   0.758   2.646  1.4429  0.3762  0.2234
33340SOL     OW 3421   9.213   0.038   8.257 -0.5546  0.0343 -0.1122
33340SOL    HW1 3422   9.180  -0.050   8.275 -0.3286 -0.1590 -0.6360
33340SOL    HW2 3423   9.146   0.096   8.294 -1.3625 -0.3519 -0.9208
33341SOL     OW 3424   6.313  10.360   3.182  0.0921  0.2819  0.5284
33341SOL    HW1 3425   6.264  10.439   3.205  1.8532  1.5165  0.1931
33341SOL    HW2 3426   6.281  10.293   3.243 -0.2997  1.6615  1.8931
33342SOL     OW 3427   4.664   8.301   0.731 -0.4589 -0.2642 -0.4107
33342SOL    HW1 3428   4.603   8.233   0.759  1.0947 -1.3869  0.3817
33342SOL    HW2 3429   4.724   8.257   0.670  1.6605 -0.1514  1.4460
33343SOL     OW 3430   5.173   4.852   2.040 -0.4211  0.1214 -0.1615
33343SOL    HW1 3431   5.088   4.813   2.058 -0.3924 -0.4717 -1.2311
33343SOL    HW2 3432   5.236   4.788   2.072 -0.3728  0.5894  0.6886
33344SOL     OW 3433   7.043   1.020   1.989 -0.0516 -0.0983  0.0079
33344SOL    HW1 3434   7.069   0.984   2.074 -2.5582  1.2861  1.4839
33344SOL    HW2 3435   7.060   1.114   1.995 -1.3695  0.2020 -0.5240
33345SOL     OW 3436   3.367   6.912   1.357 -0.4903  0.5749 -0.2911
33345SOL    HW1 3437   3.334   6.992   1.397  1.5220  0.3824  2.0668
33345SOL    HW2 3438   3.334   6.842   1.413  2.2973  0.2807  1.2042
33346SOL     OW 3439   9.836   6.529   3.835 -0.5413  0.0060  0.3311
33346SOL    HW1 3440   9.915   6.479   3.820  0.1003  1.7499 -3.1106
33346SOL    HW2 3441   9.771   6.490   3.777 -0.5664  1.7961 -0.9515
33347SOL     OW 3442   3.508   9.365   2.249  1.0756 -0.1361  0.5513
33347SOL    HW1 3443   3.466   9.304   2.188 -0.6528  0.8672  0.6512
33347SOL    HW2 3444   3.586   9.319   2.280 -0.1318 -2.2769  0.5985
33348SOL     OW 3445   7.559   3.276  10.915  0.0242  1.0178  0.1350
33348SOL    HW1 3446   7.490   3.283  10.981  0.6784  1.0699  0.8271
33348SOL    HW2 3447   7.637   3.308  10.959  0.7385 -0.1255 -0.2656
33349SOL     OW 3448  10.386   0.808   4.743 -0.2253  0.2574 -0.4980
33349SOL    HW1 3449  10.439   0.742   4.787 -1.5343  0.1945  1.0874
33349SOL    HW2 3450  10.367   0.771   4.657 -0.5212 -1.2140  0.1841
33350SOL     OW 3451   7.554   4.277   4.266 -0.1366 -0.5903 -0.3514
33350SOL    HW1 3452   7.480   4.334   4.282  2.2569  1.9938  2.9413
33350SOL    HW2 3453   7.617   4.332   4.219  1.1170 -1.4659  0.2497
33351SOL     OW 3454   7.001   6.694   2.679 -0.4230  0.7039 -0.0533
33351SOL    HW1 3455   7.056   6.722   2.606  1.5330  1.5364  1.6429
33351SOL    HW2 3456   7.052   6.626   2.722 -1.9541 -0.4359  0.0644
33352SOL     OW 3457   7.450   4.060   8.969  0.0747  0.1962 -0.6220
33352SOL    HW1 3458   7.465   4.054   8.875 -1.6040  0.6314 -0.9390
33352SOL    HW2 3459   7.465   4.152   8.991  0.9767 -0.0040 -0.3516
33353SOL     OW 3460   1.432   1.553   7.003 -0.2185 -0.7931 -0.3158
33353SOL    HW1 3461   1.525   1.550   6.978  0.0890 -1.5869  0.8315
33353SOL    HW2 3462   1.385   1.524   6.925  0.4596  0.0694 -1.0641
33354SOL     OW 3463   0.009  10.449   4.531  0.0503 -0.2788 -0.5923
33354SOL    HW1 3464  -0.067  10.503   4.513  0.7863  1.4668  1.2353
33354SOL    HW2 3465   0.083  10.500   4.499  0.6476 -0.9104 -0.2544
33355SOL     OW 3466   6.766   1.439   8.359  0.5774  0.2574  0.3895
33355SOL    HW1 3467   6.673   1.443   8.339  0.4152 -0.8198  0.8548
33355SOL    HW2 3468   6.793   1.351   8.331  1.1588  0.0689  1.4846
33356SOL     OW 3469   6.671   5.927   8.356  0.0567  0.3790  0.6529
33356SOL    HW1 3470   6.648   5.836   8.339 -1.0660  0.8028 -0.1994
33356SOL    HW2 3471   6.603   5.959   8.416 -0.7598  1.2025 -0.6605
33357SOL     OW 3472   4.487   6.133   1.821  0.3536 -0.1832  0.0414
33357SOL    HW1 3473   4.510   6.211   1.870 -1.5041 -0.4907  1.5325
33357SOL    HW2 3474   4.438   6.165   1.745  1.0545  0.1553 -0.2799
33358SOL     OW 3475   7.175   0.202   9.250  0.1660  0.4155 -0.7106
33358SOL    HW1 3476   7.245   0.268   9.242  0.0209  0.5354 -1.0105
33358SOL    HW2 3477   7.222   0.120   9.265  0.3155  0.7140  0.5764
33359SOL     OW 3478  10.393   4.844   8.388  0.1771 -0.0524  0.0922
33359SOL    HW1 3479  10.301   4.824   8.375  0.2918 -1.1346  0.8264
33359SOL    HW2 3480  10.393   4.929   8.433 -0.3939  0.6111 -1.1192
33360SOL     OW 3481   1.218   9.590   5.672 -0.0499  0.6717  0.4318
33360SOL    HW1 3482   1.265   9.510   5.652  2.3472  2.0269  0.2565
33360SOL    HW2 3483   1.141   9.588   5.615  0.6214 -0.8962 -0.4789
33361SOL     OW 3484   3.765   3.069   4.907 -0.0422  0.1358  0.4506
33361SOL    HW1 3485   3.809   3.145   4.868  1.1411 -0.3075  0.8761
33361SOL    HW2 3486   3.836   3.008   4.926 -0.8877 -0.7176  0.9234
33362SOL     OW 3487  10.166   5.469   0.097  0.7986  0.0751  0.0092
33362SOL    HW1 3488  10.132   5.442   0.011  0.3439 -1.8797  0.7585
33362SOL    HW2 3489  10.257   5.439   0.098  0.9491  0.5185  0.0472
33363SOL     OW 3490   6.015   2.426   8.815 -0.2317 -0.0552  0.7901
33363SOL    HW1 3491   5.963   2.384   8.884  0.2912 -0.6724  0.8104
33363SOL    HW2 3492   6.103   2.390   8.826  0.3287  1.3564  1.0650
33364SOL     OW 3493   4.545   1.279   0.167 -0.3095 -0.3749 -0.2337
33364SOL    HW1 3494   4.547   1.279   0.263 -0.7497 -2.4286 -0.1706
33364SOL    HW2 3495   4.455   1.299   0.145 -0.8894 -2.5947 -0.0892
33365SOL     OW 3496   5.742   2.452   2.659 -0.5303  0.3548 -0.0815
33365SOL    HW1 3497   5.755   2.528   2.603 -0.7515  0.0678 -0.5270
33365SOL    HW2 3498   5.724   2.380   2.599 -1.0080  0.0920  0.3663
33366SOL     OW 3499   1.284   2.722   4.237  0.4510  0.4130 -0.2001
33366SOL    HW1 3500   1.337   2.670   4.177  1.2836  1.0473 -0.0314
33366SOL    HW2 3501   1.347   2.770   4.290 -0.2100 -1.0774  2.1028
33367SOL     OW 3502   0.956   0.814  10.725  0.3365  0.5745 -0.0358
33367SOL    HW1 3503   0.911   0.832  10.807 -0.4779 -0.4960 -0.2332
33367SOL    HW2 3504   1.046   0.843  10.740 -0.1336  1.6483  0.7586
33368SOL     OW 3505   4.524   7.791   4.967 -0.3233  0.1923  1.0601
33368SOL    HW1 3506   4.589   7.725   4.990 -0.5759  0.2227  1.8784
33368SOL    HW2 3507   4.540   7.863   5.028  1.9946  2.3037 -1.7332
33369SOL     OW 3508  10.181  10.110   3.976 -0.6231  0.0500  0.3239
33369SOL    HW1 3509  10.235  10.171   3.925 -0.8565  0.2932  0.3636
33369SOL    HW2 3510  10.166  10.036   3.917 -0.0634 -0.1166  0.3914
33370SOL     OW 3511   6.852   7.034   9.682 -0.3582  0.1857  0.0035
33370SOL    HW1 3512   6.907   7.112   9.673  0.9547 -0.7706 -0.4841
33370SOL    HW2 3513   6.762   7.067   9.673  0.0689  1.8503  1.3074
33371SOL     OW 3514   3.486   0.938   8.086  0.1851  0.6638  0.0791
33371SOL    HW1 3515   3.422   1.009   8.080  0.0644  0.6435  0.9509
33371SOL    HW2 3516   3.512   0.920   7.996 -0.6804  1.0029 -0.2404
33372SOL     OW 3517   4.108   5.210   8.146  0.0607  0.0246  0.3917
33372SOL    HW1 3518   4.145   5.136   8.194 -0.4661  0.1740  1.0472
33372SOL    HW2 3519   4.078   5.270   8.214 -0.2346  0.4789 -0.1297
33373SOL     OW 3520   3.765   7.840   8.337  0.1484 -0.1679  0.7287
33373SOL    HW1 3521   3.723   7.926   8.338 -0.4279 -0.4336  0.2556
33373SOL    HW2 3522   3.742   7.803   8.251 -0.2117 -1.0868  1.2107
33374SOL     OW 3523   4.480   9.252   0.438 -0.3180 -0.6087 -0.2256
33374SOL    HW1 3524   4.481   9.204   0.520 -1.0508  0.6530  0.5447
33374SOL    HW2 3525   4.551   9.316   0.447 -1.6362  0.8401  0.2627
33375SOL     OW 3526   2.671   3.026   4.337  0.3151 -0.2675  0.2444
33375SOL    HW1 3527   2.635   3.101   4.291 -0.2901  0.3344  1.6221
33375SOL    HW2 3528   2.672   2.956   4.273 -2.5068 -0.0702 -0.1332
33376SOL     OW 3529   9.508   3.057   7.845 -0.4059  0.4327  0.0417
33376SOL    HW1 3530   9.423   3.081   7.881 -0.9304  0.6225 -1.2426
33376SOL    HW2 3531   9.498   3.071   7.750  0.4161 -1.4283 -0.3552
33377SOL     OW 3532   8.002   3.632   8.416 -0.0338  0.1307 -0.9002
33377SOL    HW1 3533   7.929   3.646   8.356  0.4265  0.6048 -1.3545
33377SOL    HW2 3534   8.027   3.720   8.444  0.8482  0.0180 -1.3269
33378SOL     OW 3535   4.803   2.190   7.870  0.5399 -0.5373  0.5798
33378SOL    HW1 3536   4.779   2.219   7.958  1.8377  0.9189  0.4912
33378SOL    HW2 3537   4.885   2.143   7.881  0.4308 -0.8249  0.2090
33379SOL     OW 3538   0.072  10.901   6.465  0.1679 -0.3775 -0.2005
33379SOL    HW1 3539   0.027  10.955   6.400  0.7811  0.2750 -0.0922
33379SOL    HW2 3540   0.009  10.893   6.537  0.3365  0.8093  0.0967
33380SOL     OW 3541   6.465  10.622   2.251  0.8667 -0.1520  0.1725
33380SOL    HW1 3542   6.430  10.636   2.339  2.1333 -1.9561  1.0276
33380SOL    HW2 3543   6.559  10.607   2.265  1.3408  0.8669 -1.6506
33381SOL     OW 3544   0.327   0.051   7.623 -0.2480  0.0506 -0.1086
33381SOL    HW1 3545   0.416   0.031   7.654 -0.4762 -1.3576 -0.2956
33381SOL    HW2 3546   0.334   0.139   7.586  0.6672  0.6590  1.4131
33382SOL     OW 3547   4.448   0.574   9.682  0.4688 -0.2106  0.5041
33382SOL    HW1 3548   4.428   0.667   9.672 -3.1448 -0.8879  0.2660
33382SOL    HW2 3549   4.543   0.568   9.667  0.3166  2.9359 -3.1211
33383SOL     OW 3550   0.593   6.284   2.290  0.1669  0.5659  0.2609
33383SOL    HW1 3551   0.568   6.376   2.291  0.6114  0.6976 -0.2356
33383SOL    HW2 3552   0.655   6.277   2.217 -0.3349 -0.2515 -0.0951
33384SOL     OW 3553   6.375   6.759  10.784 -0.5365  0.0866  0.4961
33384SOL    HW1 3554   6.422   6.735  10.704 -1.3020 -0.8968  0.3221
33384SOL    HW2 3555   6.334   6.843  10.764 -0.7050 -0.1414 -0.1340
33385SOL     OW 3556  10.434   7.374   7.642  0.3949  0.6243 -0.2838
33385SOL    HW1 3557  10.447   7.436   7.714  3.4737 -0.1276 -0.0633
33385SOL    HW2 3558  10.354   7.404   7.600 -1.8997  0.7987  3.7024
33386SOL     OW 3559   3.597  10.223   8.518 -0.0938  0.3040 -0.2034
33386SOL    HW1 3560   3.584  10.318   8.526 -3.1224  0.0148 -0.6532
33386SOL    HW2 3561   3.580  10.189   8.606 -0.9936  0.0126 -0.4869
33387SOL     OW 3562   4.835   5.271   8.547  0.2319 -0.1250  0.7012
33387SOL    HW1 3563   4.763   5.312   8.499  1.2010  0.5897 -0.1998
33387SOL    HW2 3564   4.914   5.306   8.505  1.1102 -1.9814  0.7133
33388SOL     OW 3565   9.222  10.914   5.065 -0.2742  0.2132  0.2004
33388SOL    HW1 3566   9.131  10.942   5.053 -1.0976 -1.3913  2.1656
33388SOL    HW2 3567   9.252  10.962   5.142  0.1254 -0.2457  0.3315
33389SOL     OW 3568   2.705   4.136   5.368 -0.4640  0.3507  0.3312
33389SOL    HW1 3569   2.720   4.058   5.420  0.8132  0.0415 -0.4574
33389SOL    HW2 3570   2.704   4.208   5.431  0.3668 -0.0913  0.8650
33390SOL     OW 3571   0.185   6.010   9.822  0.2610 -0.4239 -0.4695
33390SOL    HW1 3572   0.258   5.959   9.786  1.9761  0.7546  1.0804
33390SOL    HW2 3573   0.215   6.033   9.911 -2.2559 -0.3078  0.4146
33391SOL     OW 3574   0.594   1.537   6.201  0.9549  0.1472 -0.4374
33391SOL    HW1 3575   0.658   1.607   6.211  1.4107 -0.2995 -0.2018
33391SOL    HW2 3576   0.637   1.459   6.236 -0.3683  0.1823  1.4035
33392SOL     OW 3577   3.235   7.337   0.929  0.1011 -0.0051  0.7457
33392SOL    HW1 3578   3.210   7.315   1.019  0.1255  0.0410  0.7641
33392SOL    HW2 3579   3.330   7.339   0.930  0.0927  1.6640  1.1371
33393SOL     OW 3580   2.987   6.869   4.071  0.6523  0.6002 -0.2639
33393SOL    HW1 3581   2.937   6.822   4.005  1.3599  0.9194 -1.0485
33393SOL    HW2 3582   3.073   6.827   4.071  0.2001 -0.4515  1.6230
33394SOL     OW 3583   4.633   7.822  10.061  0.2044 -0.2386 -0.4365
33394SOL    HW1 3584   4.613   7.905  10.018 -0.2109  0.4051  0.9274
33394SOL    HW2 3585   4.573   7.759  10.022 -0.8980  0.5595 -0.0781
33395SOL     OW 3586   8.999   2.601   8.044 -0.3213  0.3051 -0.3683
33395SOL    HW1 3587   8.991   2.620   8.138  0.1394  0.7516 -0.4182
33395SOL    HW2 3588   8.994   2.687   8.002  0.2774  0.1770 -0.7010
33396SOL     OW 3589  10.290   6.955   8.776 -0.5121  0.2020  0.0866
33396SOL    HW1 3590  10.224   6.929   8.840 -1.1837 -1.6534 -1.2654
33396SOL    HW2 3591  10.242   7.009   8.713  0.0752  1.7421  0.8998
33397SOL     OW 3592   1.676   6.321   2.844  0.5678 -0.0444  0.8531
33397SOL    HW1 3593   1.750   6.355   2.794  0.3384 -0.6639  0.0530
33397SOL    HW2 3594   1.599   6.350   2.795  0.3526 -1.0348  0.5788
33398SOL     OW 3595   1.281   3.127  10.685  0.1313  0.7205 -0.6507
33398SOL    HW1 3596   1.221   3.052  10.695  1.1518 -0.4548 -2.6985
33398SOL    HW2 3597   1.308   3.148  10.774 -0.1841 -1.3603 -0.0121
33399SOL     OW 3598   9.510   0.167   4.976 -0.5386 -0.3568  0.5148
33399SOL    HW1 3599   9.547   0.098   4.921 -0.9417 -0.1854  0.0235
33399SOL    HW2 3600   9.571   0.240   4.966 -0.3433 -0.4908  0.6959
33400SOL     OW 3601   9.582   6.036   1.175  0.4975  0.1775 -0.0760
33400SOL    HW1 3602   9.556   6.123   1.207 -1.4173 -0.0872 -0.8111
33400SOL    HW2 3603   9.521   6.017   1.104  1.2905 -1.5211 -0.3439
33401SOL     OW 3604   3.317   2.496   5.594 -0.5142  0.0940  0.3736
33401SOL    HW1 3605   3.232   2.539   5.583 -0.2509  0.5467  0.0893
33401SOL    HW2 3606   3.333   2.500   5.688 -0.3953  0.8107  0.3248
33402SOL     OW 3607   4.431   4.031  10.505  0.3087  0.3099 -0.0319
33402SOL    HW1 3608   4.373   4.103  10.479  1.2648  0.9424 -0.4761
33402SOL    HW2 3609   4.448   4.047  10.598  2.4465  2.1101 -0.6573
33403SOL     OW 3610   1.636  10.694   6.225  0.0430 -0.1403  0.1377
33403SOL    HW1 3611   1.711  10.690   6.166  1.5026  0.1044  1.8806
33403SOL    HW2 3612   1.565  10.730   6.172  2.0301  2.8120 -0.8047
33404SOL     OW 3613   2.561   8.006   3.305 -0.4031 -0.3972  0.0871
33404SOL    HW1 3614   2.543   7.925   3.258  0.2995 -0.5141 -0.0029
33404SOL    HW2 3615   2.565   8.073   3.237  2.6385 -0.8774 -0.3791
33405SOL     OW 3616   6.658   4.549   7.175  0.5268 -0.8868 -0.2582
33405SOL    HW1 3617   6.709   4.620   7.214 -0.5530 -0.5892  0.6514
33405SOL    HW2 3618   6.626   4.499   7.250 -1.5505 -0.3367 -0.7316
33406SOL     OW 3619   0.178   7.296   7.035  0.3184  0.1121  0.0555
33406SOL    HW1 3620   0.230   7.241   6.976 -0.3356 -0.4248 -0.0304
33406SOL    HW2 3621   0.136   7.359   6.977 -1.3193 -1.1908 -0.2560
33407SOL     OW 3622   2.181  10.105   0.126  0.0924 -0.1468  0.4525
33407SOL    HW1 3623   2.163  10.138   0.037  1.1921  0.7804  0.5441
33407SOL    HW2 3624   2.095  10.095   0.166 -0.3485  1.4245 -0.0382
33408SOL     OW 3625   2.553   9.429   7.105  0.1762 -0.0981  0.5209
33408SOL    HW1 3626   2.613   9.419   7.178  2.2215  0.5936 -0.9591
33408SOL    HW2 3627   2.593   9.378   7.034 -1.4964 -0.4063 -0.2363
33409SOL     OW 3628   9.796  10.023  10.253  0.2130 -0.3299  0.0074
33409SOL    HW1 3629   9.769  10.110  10.223 -0.7996 -1.1569 -1.6408
33409SOL    HW2 3630   9.891  10.023  10.244  0.1239  0.2235 -1.1861
33410SOL     OW 3631   0.114  10.042   6.188 -0.4600 -0.2392  0.1178
33410SOL    HW1 3632   0.138  10.019   6.278 -1.2045 -0.8693  0.1719
33410SOL    HW2 3633   0.027  10.004   6.176 -0.0077 -0.9439 -1.1617
33411SOL     OW 3634   0.231   9.486  10.849  0.3852  0.5496  0.3413
33411SOL    HW1 3635   0.283   9.517  10.923  1.3734  1.4173 -0.6809
33411SOL    HW2 3636   0.295   9.472  10.779 -0.0701 -3.2362  0.4936
33412SOL     OW 3637   7.778   1.387   9.762 -0.3164  0.6664  0.7262
33412SOL    HW1 3638   7.777   1.309   9.707 -0.2647  0.4635  1.0057
33412SOL    HW2 3639   7.688   1.418   9.761 -0.5159  0.1348  1.2571
33413SOL     OW 3640   4.822   2.751   6.457  0.0909  0.2579  0.1230
33413SOL    HW1 3641   4.825   2.736   6.551  0.4834  2.9184  0.6189
33413SOL    HW2 3642   4.899   2.805   6.439  1.3302 -2.0464 -2.1688
33414SOL     OW 3643   8.740   1.718   5.009 -0.1503 -0.1758  0.7287
33414SOL    HW1 3644   8.791   1.795   4.981 -0.2977  0.4038  1.9737
33414SOL    HW2 3645   8.805   1.649   5.022  0.5984  0.8856  3.4853
33415SOL     OW 3646   2.831   6.411   3.005  0.1595  0.0131 -0.0044
33415SOL    HW1 3647   2.785   6.432   2.923  0.8886 -0.7459 -0.6253
33415SOL    HW2 3648   2.772   6.350   3.050 -0.3092  0.5435  0.1123
33416SOL     OW 3649   5.586   2.757   2.397  0.0758 -0.2769  0.5343
33416SOL    HW1 3650   5.560   2.826   2.336 -0.8984 -0.5161  0.6771
33416SOL    HW2 3651   5.677   2.737   2.373 -0.8106 -1.5960 -2.0249
33417SOL     OW 3652   7.314   2.508   4.389 -0.1554 -0.1606 -0.2427
33417SOL    HW1 3653   7.335   2.436   4.330 -0.0250  1.0534 -1.7338
33417SOL    HW2 3654   7.335   2.475   4.476  0.9386 -1.5328 -0.9970
33418SOL     OW 3655   2.388   1.975   9.495  0.0098 -0.1819  0.3210
33418SOL    HW1 3656   2.375   1.962   9.401  0.6207  0.1494  0.1874
33418SOL    HW2 3657   2.479   2.001   9.503  0.9774 -3.3454  1.3129
33419SOL     OW 3658   2.915   0.675   0.375 -0.3004  0.1225  0.2903
33419SOL    HW1 3659   2.930   0.707   0.286 -0.7684  1.0922  0.5457
33419SOL    HW2 3660   2.930   0.752   0.431  1.2060 -0.7628  1.1699
33420SOL     OW 3661   2.557  10.506   9.506  0.3085 -0.0849 -0.2860
33420SOL    HW1 3662   2.578  10.513   9.413  0.9223  0.4525 -0.1108
33420SOL    HW2 3663   2.625  10.450   9.542 -0.0391 -0.4508 -0.1929
33421SOL     OW 3664   3.210   9.443   1.917 -0.3441  0.0039 -0.0382
33421SOL    HW1 3665   3.239   9.364   1.963  1.9421  0.4546 -0.5843
33421SOL    HW2 3666   3.150   9.486   1.979 -0.4403 -1.3660  0.8729
33422SOL     OW 3667   6.664   2.250  10.220 -0.2180  0.3909 -0.6042
33422SOL    HW1 3668   6.699   2.316  10.279 -0.7834 -0.0269  0.2150
33422SOL    HW2 3669   6.601   2.298  10.165  0.5752  0.8506 -1.1329
33423SOL     OW 3670  10.553   2.059   6.840 -0.4865 -0.1245 -0.1957
33423SOL    HW1 3671  10.616   2.021   6.779 -0.0600 -1.5180  1.0488
33423SOL    HW2 3672  10.471   2.063   6.791  0.2710  0.5973 -1.4489
33424SOL     OW 3673   2.696   1.022   8.230 -0.3660 -0.5756  0.3698
33424SOL    HW1 3674   2.616   1.071   8.243  0.5293  0.9435  0.3575
33424SOL    HW2 3675   2.741   1.026   8.315  0.3828 -0.1253 -0.0382
33425SOL     OW 3676   1.674   6.806   5.440  0.6098 -0.1028  0.5668
33425SOL    HW1 3677   1.685   6.743   5.369  0.3810  1.6039 -1.1008
33425SOL    HW2 3678   1.763   6.823   5.471  1.2664  1.8499 -1.9524
33426SOL     OW 3679   7.554   4.614   7.685  0.1518  0.9379  0.2943
33426SOL    HW1 3680   7.574   4.707   7.681 -1.3232  1.2568 -0.0368
33426SOL    HW2 3681   7.490   4.606   7.756  0.7321  0.0804  0.7436
33427SOL     OW 3682   3.160  10.172   5.578 -0.0024  0.3901  0.4656
33427SOL    HW1 3683   3.208  10.127   5.647 -0.0849 -0.1183  0.1946
33427SOL    HW2 3684   3.174  10.119   5.500  2.1095  2.2225 -0.5015
33428SOL     OW 3685   2.009  10.758   2.784 -0.1963  0.0738 -0.0810
33428SOL    HW1 3686   2.104  10.767   2.789 -0.1640 -0.4767  0.3096
33428SOL    HW2 3687   1.994  10.666   2.763 -0.6098  0.4540 -1.6365
33429SOL     OW 3688   2.304   3.493  10.631 -0.3807 -0.2804  0.0281
33429SOL    HW1 3689   2.343   3.413  10.597 -1.2884  0.0757 -2.0087
33429SOL    HW2 3690   2.324   3.492  10.724  2.2494 -1.3492 -0.4687
33430SOL     OW 3691   1.588   0.967   5.749 -0.2099  0.2122 -0.0245
33430SOL    HW1 3692   1.610   1.054   5.717 -2.6871  1.6711  1.8855
33430SOL    HW2 3693   1.643   0.956   5.827 -0.4771  0.4359  0.1984
33431SOL     OW 3694  10.419   7.915  10.820 -0.6764  0.2437  0.2414
33431SOL    HW1 3695  10.344   7.879  10.773  0.4076  0.2649 -1.5788
33431SOL    HW2 3696  10.380   7.958  10.896 -2.4095 -0.6475 -0.0794
33432SOL     OW 3697   4.709   8.262  10.741 -0.0199  0.1605  0.4755
33432SOL    HW1 3698   4.704   8.171  10.773 -0.6338  0.5769  1.6262
33432SOL    HW2 3699   4.638   8.268  10.678 -0.0302 -0.1402  0.4537
33433SOL     OW 3700   3.066   3.197   0.811 -0.0346  0.4591  0.1995
33433SOL    HW1 3701   2.995   3.183   0.873  1.4995  0.1228  1.9877
33433SOL    HW2 3702   3.029   3.176   0.726 -2.5456  1.9597  0.8124
33434SOL     OW 3703   5.816   8.805   9.598 -0.2372 -0.3382  0.4827
33434SOL    HW1 3704   5.771   8.723   9.579 -2.0273  0.6970  0.0026
33434SOL    HW2 3705   5.749   8.861   9.636  0.3393  1.6790 -1.2992
33435SOL     OW 3706   7.582   3.292   2.858 -0.0795 -0.1325 -0.0088
33435SOL    HW1 3707   7.514   3.341   2.903 -0.0416  0.5044 -0.6299
33435SOL    HW2 3708   7.561   3.200   2.876 -0.2463  0.0988  1.0171
33436SOL     OW 3709   3.757   0.174   2.503 -0.0039 -0.0324 -0.2489
33436SOL    HW1 3710   3.840   0.132   2.479  0.6024  0.7345  0.4110
33436SOL    HW2 3711   3.715   0.193   2.420 -0.5864 -2.4422 -0.5661
33437SOL     OW 3712   1.750   8.216   8.108  0.6744 -0.0034 -0.6271
33437SOL    HW1 3713   1.685   8.151   8.135  0.7360  0.7979  1.6691
33437SOL    HW2 3714   1.698   8.287   8.068  0.0982  0.5546  1.0356
33438SOL     OW 3715   0.661  10.448  10.788  0.4385  0.7036 -0.7958
33438SOL    HW1 3716   0.585  10.502  10.768 -0.1455  0.0570 -0.4018
33438SOL    HW2 3717   0.636  10.360  10.759  1.3007  0.6087 -1.2758
33439SOL     OW 3718   7.538   1.000  10.742  0.1952 -0.0005  0.2057
33439SOL    HW1 3719   7.460   0.946  10.757  0.5413 -0.4382  0.4737
33439SOL    HW2 3720   7.586   0.995  10.825  0.2931  0.6175  0.1877
33440SOL     OW 3721   2.416   0.470   8.389 -0.0207 -0.2501  0.0849
33440SOL    HW1 3722   2.427   0.525   8.311  0.7896  0.9096  0.9846
33440SOL    HW2 3723   2.336   0.502   8.430 -0.5995 -1.0459 -0.4018
33441SOL     OW 3724   3.713   1.222  10.202  0.8845 -0.5845  0.1335
33441SOL    HW1 3725   3.767   1.252  10.128  0.6169  0.8697  0.4897
33441SOL    HW2 3726   3.629   1.199  10.162  0.7512  0.1675 -0.0419
33442SOL     OW 3727   6.630   3.454   4.873  0.0677  0.2368 -0.5155
33442SOL    HW1 3728   6.604   3.537   4.833 -1.4282 -0.2429 -0.6064
33442SOL    HW2 3729   6.646   3.396   4.798 -1.2311 -0.2171 -0.4735
33443SOL     OW 3730   5.395   1.193   7.741  0.0235  0.1932  0.1396
33443SOL    HW1 3731   5.402   1.242   7.660  0.9785  2.6756  1.6176
33443SOL    HW2 3732   5.426   1.105   7.718  1.0679  1.0474 -1.9909
33444SOL     OW 3733   1.590   8.446   3.799 -0.6440  0.9635 -0.0507
33444SOL    HW1 3734   1.539   8.471   3.722 -3.2200  0.8312  1.4933
33444SOL    HW2 3735   1.607   8.528   3.844  0.4975  1.0007 -0.5380
33445SOL     OW 3736   1.366   0.846  10.556 -0.0852 -0.4421 -0.0967
33445SOL    HW1 3737   1.378   0.841  10.461  0.5104  0.4082 -0.0701
33445SOL    HW2 3738   1.444   0.804  10.592  0.6572  1.0018  0.0271
33446SOL     OW 3739   1.805   9.571   7.412 -0.0147 -0.0190 -0.1824
33446SOL    HW1 3740   1.744   9.610   7.475 -0.4718 -0.0151 -0.6210
33446SOL    HW2 3741   1.884   9.553   7.463 -1.3819 -2.8454  1.2021
33447SOL     OW 3742  10.767   5.227   8.447  0.4922  0.0320 -0.2130
33447SOL    HW1 3743  10.839   5.191   8.395 -0.1416 -0.6252 -0.6478
33447SOL    HW2 3744  10.810   5.264   8.524  1.3165 -0.1950 -0.5508
33448SOL     OW 3745   1.490   5.654   6.580 -0.6545  0.2810  0.2979
33448SOL    HW1 3746   1.503   5.677   6.488  0.8221  0.0543  0.4190
33448SOL    HW2 3747   1.446   5.569   6.577 -0.1563  0.0338 -0.2144
33449SOL     OW 3748   2.876   6.350   3.774 -0.5439  0.4304 -0.7094
33449SOL    HW1 3749   2.929   6.421   3.810  1.5717  0.6633 -3.9596
33449SOL    HW2 3750   2.848   6.381   3.689  0.8365 -2.6858 -2.4629
33450SOL     OW 3751   0.808   4.007   7.860 -0.7548 -0.0593 -0.0418
33450SOL    HW1 3752   0.841   3.937   7.804 -1.1262 -1.1324  1.0484
33450SOL    HW2 3753   0.842   3.987   7.947  0.8508  2.2762 -0.0412
33451SOL     OW 3754   6.740   5.356   3.755 -0.0940 -0.0620 -0.0754
33451SOL    HW1 3755   6.683   5.432   3.744 -0.1508 -0.2112 -0.8755
33451SOL    HW2 3756   6.828   5.392   3.760  0.2250 -0.0566 -3.4980
33452SOL     OW 3757  10.763  10.362  10.463  0.1682  0.0214 -0.1783
33452SOL    HW1 3758  10.729  10.343  10.551  0.7927 -1.6012 -0.2676
33452SOL    HW2 3759  10.851  10.395  10.478 -0.1040  0.7645 -0.1561
33453SOL     OW 3760   1.492  10.365   8.151 -0.0872  0.5035  0.2757
33453SOL    HW1 3761   1.410  10.342   8.108 -0.2318 -0.5645  1.0765
33453SOL    HW2 3762   1.560  10.327   8.095 -0.1902  0.5138  0.1433
33454SOL     OW 3763   5.730   2.485   6.092  0.2177 -0.0719  0.2309
33454SOL    HW1 3764   5.748   2.392   6.078 -0.5921 -0.3140  0.7788
33454SOL    HW2 3765   5.802   2.530   6.046  0.2704 -0.9441 -0.5682
33455SOL     OW 3766   7.163   7.529   2.480  0.0006 -0.0510 -0.1680
33455SOL    HW1 3767   7.230   7.595   2.462 -2.4847  2.7222 -0.1036
33455SOL    HW2 3768   7.121   7.515   2.395 -0.4402 -0.4159  0.1095
33456SOL     OW 3769   4.434   9.130   9.396 -0.0220 -0.0731  0.2013
33456SOL    HW1 3770   4.374   9.204   9.383  1.1708  0.8569 -0.2237
33456SOL    HW2 3771   4.466   9.141   9.486  0.9847  0.5997 -0.2147
33457SOL     OW 3772   0.226  10.283   4.734  0.6841  0.4121  0.1299
33457SOL    HW1 3773   0.212  10.192   4.709  0.4332  0.5144 -0.1092
33457SOL    HW2 3774   0.193  10.288   4.824  1.9151 -0.0331  0.6150
33458SOL     OW 3775   2.147   6.026   1.098  0.2652  0.2092 -0.0318
33458SOL    HW1 3776   2.217   6.090   1.085 -0.7013  1.2836 -0.0817
33458SOL    HW2 3777   2.088   6.068   1.161 -0.7240 -0.3638 -0.5630
33459SOL     OW 3778   8.178   9.883   7.373 -0.7061 -0.5521 -0.3981
33459SOL    HW1 3779   8.163   9.966   7.418 -1.1985 -0.7950 -0.1034
33459SOL    HW2 3780   8.202   9.908   7.284 -1.0205 -0.0983 -0.3592
33460SOL     OW 3781   6.535   7.633  10.312  0.4054 -0.5874  0.4107
33460SOL    HW1 3782   6.599   7.568  10.339 -0.0560 -0.8789  0.8160
33460SOL    HW2 3783   6.587   7.712  10.296  1.2937 -1.5978 -2.2675
33461SOL     OW 3784   2.574   5.964   4.312 -0.1794 -0.2612  0.0223
33461SOL    HW1 3785   2.540   6.044   4.273  0.3089 -0.5440 -1.0430
33461SOL    HW2 3786   2.557   5.973   4.405  0.1663  1.2410 -0.0269
33462SOL     OW 3787   6.799   5.539  10.044  0.6232 -0.2320  1.1249
33462SOL    HW1 3788   6.716   5.546  10.090  0.8243  0.8483  1.3472
33462SOL    HW2 3789   6.776   5.547   9.951  0.5748  1.1589  1.2405
33463SOL     OW 3790   6.191   9.841   4.897  0.0224 -0.1959 -0.3549
33463SOL    HW1 3791   6.227   9.927   4.916  0.5243 -0.5451  0.3250
33463SOL    HW2 3792   6.160   9.808   4.982  1.6376 -1.4866 -0.2162
33464SOL     OW 3793   2.771   5.110   4.590 -0.3894  0.1681  0.0973
33464SOL    HW1 3794   2.692   5.109   4.536 -0.5946  0.7270  0.3786
33464SOL    HW2 3795   2.802   5.020   4.588 -1.1071 -0.0877  0.0888
33465SOL     OW 3796   6.539   0.805   0.519 -0.7871 -0.1273 -0.4925
33465SOL    HW1 3797   6.475   0.733   0.522 -1.0680  0.1603  1.1693
33465SOL    HW2 3798   6.623   0.764   0.540 -0.6532 -0.2551 -1.2533
33466SOL     OW 3799   2.082  10.435   5.308 -0.1197 -0.4353 -0.2883
33466SOL    HW1 3800   2.119  10.348   5.296  0.6851 -0.0686 -0.4967
33466SOL    HW2 3801   2.033  10.452   5.227  2.5299  0.6667 -1.7767
33467SOL     OW 3802   9.680   1.190   4.542  0.1763 -0.8135 -0.0837
33467SOL    HW1 3803   9.768   1.226   4.556 -0.7148  1.6091 -0.1583
33467SOL    HW2 3804   9.657   1.149   4.625  1.1872 -1.0166  0.1045
33468SOL     OW 3805   4.998   6.413   0.938 -0.6442 -0.5640  0.7772
33468SOL    HW1 3806   5.019   6.412   0.844  0.6109  2.3342  0.9334
33468SOL    HW2 3807   4.911   6.454   0.942 -0.1341  0.5366  0.9156
33469SOL     OW 3808   4.307   3.652   5.838  0.0294 -0.1345 -0.2166
33469SOL    HW1 3809   4.313   3.592   5.764  1.3567 -0.1160 -0.1469
33469SOL    HW2 3810   4.229   3.705   5.819  0.6147  0.2164 -1.8749
33470SOL     OW 3811   9.070   5.706   5.617  0.1226  0.1582 -0.6136
33470SOL    HW1 3812   9.154   5.673   5.650 -0.6422 -0.9814  0.2925
33470SOL    HW2 3813   9.019   5.725   5.695 -1.0356 -0.7394 -1.1070
33471SOL     OW 3814   8.418   5.010  10.032 -0.2661  0.1314 -0.0880
33471SOL    HW1 3815   8.490   4.951  10.057 -0.1917  0.8461  1.4991
33471SOL    HW2 3816   8.429   5.086  10.088 -0.9241  1.2713 -1.4512
33472SOL     OW 3817   6.535   5.058  10.607  0.6444  0.2195  0.3483
33472SOL    HW1 3818   6.461   5.010  10.645  1.8971 -3.1807 -1.1419
33472SOL    HW2 3819   6.612   5.004  10.628  2.1750  1.5453 -1.5566
33473SOL     OW 3820   6.699  10.731   1.883 -0.1678 -0.2213  0.3344
33473SOL    HW1 3821   6.608  10.727   1.913 -0.1449 -0.7998  0.3442
33473SOL    HW2 3822   6.701  10.673   1.807 -0.0372  0.5933 -0.2892
33474SOL     OW 3823   9.402   6.462   7.511  0.1214 -0.1812 -0.5860
33474SOL    HW1 3824   9.309   6.472   7.491 -0.5797 -0.5889  2.0123
33474SOL    HW2 3825   9.418   6.523   7.583  1.4051 -1.3466  0.1796
33475SOL     OW 3826   4.832   6.695   0.639  0.1051  0.5674 -0.1428
33475SOL    HW1 3827   4.909   6.739   0.674  0.1774  0.9584 -0.7677
33475SOL    HW2 3828   4.867   6.626   0.583 -0.0098 -0.4075  0.9622
33476SOL     OW 3829   4.291   6.936   1.635  0.0527  0.1057 -0.2100
33476SOL    HW1 3830   4.304   6.942   1.540  0.3899  0.6333 -0.1365
33476SOL    HW2 3831   4.377   6.908   1.669 -0.1924 -0.5264 -0.1003
33477SOL     OW 3832   6.975   8.148  10.588  0.0920 -0.2317 -0.6969
33477SOL    HW1 3833   7.044   8.087  10.615  0.5471 -0.6080 -2.5906
33477SOL    HW2 3834   7.022   8.225  10.555 -0.4315  0.1356 -0.6104
33478SOL     OW 3835   9.662   9.984   4.672 -0.8758 -0.1635  0.4097
33478SOL    HW1 3836   9.682  10.023   4.757 -0.2609  0.7313 -0.1215
33478SOL    HW2 3837   9.742   9.939   4.647 -2.0324 -3.1879  1.6908
33479SOL     OW 3838   1.215   2.325   5.893  0.5538 -0.1326  0.0683
33479SOL    HW1 3839   1.292   2.359   5.847  0.1770  1.1383  0.3356
33479SOL    HW2 3840   1.228   2.351   5.984 -0.7589  1.2371 -0.0868
33480SOL     OW 3841   4.821   8.016   1.311  0.0210 -0.1379  0.0435
33480SOL    HW1 3842   4.856   8.041   1.226  0.5896 -0.1585  0.2599
33480SOL    HW2 3843   4.763   7.942   1.294 -2.4715  1.8774 -0.7411
33481SOL     OW 3844   6.542   9.468   9.562 -0.4765  0.1719  0.6185
33481SOL    HW1 3845   6.628   9.436   9.589  0.3978  0.9409 -1.1310
33481SOL    HW2 3846   6.509   9.400   9.503  0.6466  1.5588 -1.7487
33482SOL     OW 3847   8.288   1.664   0.043  0.0201  0.1457 -0.3442
33482SOL    HW1 3848   8.333   1.618  -0.028  0.8538 -0.6083  0.6574
33482SOL    HW2 3849   8.289   1.603   0.117  0.0632  1.2961  0.6380
33483SOL     OW 3850   5.087   4.802   4.467 -0.0739 -0.2120  0.1906
33483SOL    HW1 3851   5.028   4.866   4.505  0.9646  0.6539  0.3895
33483SOL    HW2 3852   5.030   4.742   4.418 -1.1108  0.5015  0.5073
33484SOL     OW 3853   6.540   8.698   9.782 -0.1577  0.0908 -0.0845
33484SOL    HW1 3854   6.480   8.631   9.751  0.5728 -0.1181 -1.0870
33484SOL    HW2 3855   6.613   8.695   9.721  1.0445  0.1057  1.2967
33485SOL     OW 3856   2.473   1.981   3.508 -0.3913 -0.0045  0.1308
33485SOL    HW1 3857   2.482   2.024   3.593 -1.4502  0.1029  0.2020
33485SOL    HW2 3858   2.481   2.051   3.444 -0.7888  0.0994  0.1938
33486SOL     OW 3859   0.151   6.664   5.545 -0.0983 -0.4457  0.0396
33486SOL    HW1 3860   0.063   6.702   5.545 -0.4703 -1.1794  2.2792
33486SOL    HW2 3861   0.143   6.586   5.600  1.5359 -1.6217 -1.2874
33487SOL     OW 3862  10.624   9.604   9.046 -0.0368  0.2045  0.2335
33487SOL    HW1 3863  10.570   9.663   8.993  1.0984  0.9568 -0.1392
33487SOL    HW2 3864  10.713   9.619   9.014  0.4556 -0.6323  1.1680
33488SOL     OW 3865   5.486   8.610   4.097  0.8070 -0.0342 -0.2077
33488SOL    HW1 3866   5.443   8.694   4.078  0.2232 -0.3947 -0.5219
33488SOL    HW2 3867   5.527   8.623   4.182 -1.4957 -0.2548  1.0319
33489SOL     OW 3868   8.444   6.258   9.129  0.2533 -0.2198 -0.7066
33489SOL    HW1 3869   8.361   6.265   9.082  0.2442  0.6374 -0.5756
33489SOL    HW2 3870   8.432   6.183   9.187 -0.5766  0.1255 -0.4136
33490SOL     OW 3871   7.010   0.520   3.419 -0.2547 -0.7232 -0.7575
33490SOL    HW1 3872   6.967   0.451   3.469 -2.9294  1.5505  0.3372
33490SOL    HW2 3873   7.100   0.520   3.453 -1.5526 -0.2143  3.3202
33491SOL     OW 3874   0.307   5.869   8.403 -0.3614  0.8185 -0.7429
33491SOL    HW1 3875   0.342   5.791   8.359 -0.7915  0.5703 -0.6548
33491SOL    HW2 3876   0.358   5.942   8.367  1.1848  0.3466  0.3651
33492SOL     OW 3877   7.060   4.789   7.428 -0.0515  0.1509  0.0029
33492SOL    HW1 3878   7.132   4.780   7.365  0.8110  1.0972  0.8220
33492SOL    HW2 3879   7.042   4.700   7.457  0.2444 -0.1799 -0.7905
33493SOL     OW 3880   4.284   1.858   3.779  0.4570  0.4813 -0.0411
33493SOL    HW1 3881   4.367   1.869   3.731  0.3741 -0.1431 -0.3467
33493SOL    HW2 3882   4.285   1.765   3.804  0.7104  0.9001  1.5699
33494SOL     OW 3883   7.609   0.016   0.391 -0.0836 -0.3117 -0.4964
33494SOL    HW1 3884   7.613   0.054   0.479  0.3568 -1.5050  0.0330
33494SOL    HW2 3885   7.516   0.001   0.375 -0.1190 -0.7704  0.0915
33495SOL     OW 3886   9.166   9.258  10.576  0.0480  0.4053 -0.0370
33495SOL    HW1 3887   9.090   9.282  10.522 -0.6489 -0.3699  0.5644
33495SOL    HW2 3888   9.197   9.175  10.537  1.2200  1.2148 -0.8935
33496SOL     OW 3889   6.958   0.113   6.196 -0.6994 -1.1671 -0.0293
33496SOL    HW1 3890   6.982   0.075   6.280 -0.4642 -0.8057  0.0660
33496SOL    HW2 3891   7.034   0.098   6.139 -1.1848 -2.1760 -0.4333
33497SOL     OW 3892   1.912   7.852   3.726 -0.2092 -0.3441 -0.0756
33497SOL    HW1 3893   1.932   7.920   3.790 -0.1080  0.3124 -0.7911
33497SOL    HW2 3894   1.847   7.797   3.770  1.1043 -0.9117  1.2309
33498SOL     OW 3895   5.748   4.016   3.736  0.1007  0.3044 -0.7803
33498SOL    HW1 3896   5.739   3.930   3.696 -1.2483  0.6123 -1.1898
33498SOL    HW2 3897   5.740   4.000   3.830 -0.1773 -0.0183 -0.8573
33499SOL     OW 3898   1.240   6.975   8.850 -0.0477  0.5736  0.2908
33499SOL    HW1 3899   1.295   7.042   8.891  0.2300  0.7653 -0.3833
33499SOL    HW2 3900   1.264   6.894   8.896  0.8766  0.6406 -0.0512
33500SOL     OW 3901   7.312   5.743   0.965  0.3593  0.0405  0.5220
33500SOL    HW1 3902   7.394   5.719   0.922  0.2449 -0.5309  0.6246
33500SOL    HW2 3903   7.256   5.775   0.894 -0.2210 -1.9138  0.0537
33501SOL     OW 3904  10.030   3.407   4.550  0.0071 -0.1760  0.0567
33501SOL    HW1 3905   9.964   3.449   4.605 -0.5971 -1.8271  0.6516
33501SOL    HW2 3906   9.980   3.362   4.482  0.6738  0.6484 -1.0006
33502SOL     OW 3907   4.058   5.704   2.758  0.4176 -0.3406 -0.5603
33502SOL    HW1 3908   4.025   5.615   2.769 -2.1423  0.6863  0.9704
33502SOL    HW2 3909   4.089   5.729   2.845  0.7848  0.3903 -0.8898
33503SOL     OW 3910   1.364   8.582   1.013  1.1078  0.2530  0.5119
33503SOL    HW1 3911   1.346   8.490   1.032  0.6736 -0.0783 -1.2933
33503SOL    HW2 3912   1.449   8.599   1.052  1.5738 -1.1717  0.1712
33504SOL     OW 3913   8.993   3.165   1.389 -0.2885 -0.6003 -0.3867
33504SOL    HW1 3914   8.943   3.119   1.456  1.6718  0.7333  2.1872
33504SOL    HW2 3915   9.046   3.097   1.348  0.7120 -1.1166  1.5960
33505SOL     OW 3916   8.013   7.119   9.594  0.0484  0.2273  0.0075
33505SOL    HW1 3917   8.008   7.180   9.668  2.5162  0.6179 -0.0840
33505SOL    HW2 3918   7.987   7.171   9.518 -0.7040  0.3304  0.3272
33506SOL     OW 3919   5.231   2.156   0.128 -0.0187  0.1280  0.0997
33506SOL    HW1 3920   5.306   2.109   0.165  0.4439  0.5589 -0.2719
33506SOL    HW2 3921   5.261   2.247   0.123  0.1382  0.0041 -1.8439
33507SOL     OW 3922   4.643   7.519   8.941 -0.1475  0.1075  0.1617
33507SOL    HW1 3923   4.563   7.484   8.902 -0.0142  0.0773 -0.0875
33507SOL    HW2 3924   4.710   7.453   8.922  0.1935  0.6709 -0.6621
33508SOL     OW 3925   7.906   9.353   5.380  0.7166  0.2573  0.4641
33508SOL    HW1 3926   7.822   9.310   5.359  0.9696 -0.0166  0.0016
33508SOL    HW2 3927   7.887   9.446   5.375  0.4569  0.1960  0.2811
33509SOL     OW 3928   9.496   5.574   1.895  0.3320 -0.1501  0.3787
33509SOL    HW1 3929   9.557   5.643   1.919  0.4382 -0.5534  1.2833
33509SOL    HW2 3930   9.519   5.500   1.951 -0.6129 -0.4938  0.3373
33510SOL     OW 3931   8.221   3.849   6.457  0.5394  0.5177 -0.1292
33510SOL    HW1 3932   8.188   3.927   6.501 -2.4947 -1.5155  1.5332
33510SOL    HW2 3933   8.203   3.865   6.364  2.3140  2.7341 -0.1854
33511SOL     OW 3934   7.575   9.716   9.399  0.4236 -0.9588 -0.0856
33511SOL    HW1 3935   7.611   9.797   9.434  0.0605 -0.4652 -0.8336
33511SOL    HW2 3936   7.550   9.737   9.309  0.7228 -2.0140 -0.4400
33512SOL     OW 3937   4.254   5.097   6.273  0.0172  0.6115  0.0377
33512SOL    HW1 3938   4.249   5.106   6.368  1.0681  1.3664  0.0322
33512SOL    HW2 3939   4.163   5.104   6.244 -0.4125 -0.4578  1.0393
33513SOL     OW 3940   0.133   9.500   2.854 -0.6027  0.3891 -0.0006
33513SOL    HW1 3941   0.118   9.468   2.943  1.5596  3.3560  1.5987
33513SOL    HW2 3942   0.074   9.574   2.845 -1.7563 -0.6713 -1.6300
33514SOL     OW 3943   1.878   2.434   9.395  0.8805  0.5171 -0.2881
33514SOL    HW1 3944   1.862   2.349   9.355  2.1264 -1.0850  2.3351
33514SOL    HW2 3945   1.909   2.414   9.483 -0.6319  3.7329  1.1626
33515SOL     OW 3946   2.589   5.388   4.429 -0.0890 -0.8218  1.1666
33515SOL    HW1 3947   2.673   5.343   4.434  0.1694 -0.4210  0.5658
33515SOL    HW2 3948   2.543   5.346   4.355  0.2431  0.0234  0.4581
33516SOL     OW 3949   6.896   5.858   4.014  0.5215 -0.2512  0.1457
33516SOL    HW1 3950   6.860   5.771   3.998 -0.6397  0.4487 -1.2981
33516SOL    HW2 3951   6.943   5.850   4.097 -0.7675 -1.8821  0.7695
33517SOL     OW 3952   1.027   3.594   3.453  0.4212  0.5796  0.0084
33517SOL    HW1 3953   0.972   3.571   3.528  0.7224  2.7139  0.9441
33517SOL    HW2 3954   0.966   3.596   3.379 -0.4221  1.1609  0.7018
33518SOL     OW 3955   9.340  10.360  10.877 -0.4140 -0.4021 -0.1104
33518SOL    HW1 3956   9.380  10.349  10.791  0.7993  2.0099  0.0656
33518SOL    HW2 3957   9.396  10.309  10.936 -0.1289 -0.5145 -0.4719
33519SOL     OW 3958   4.184   1.574   8.708  0.3231 -0.0979  0.4562
33519SOL    HW1 3959   4.097   1.576   8.667 -0.5484 -1.7635  2.0545
33519SOL    HW2 3960   4.193   1.659   8.750 -0.2746  0.3206 -0.2375
33520SOL     OW 3961   3.211   2.104   4.961 -1.1649 -0.3739  0.9936
33520SOL    HW1 3962   3.117   2.121   4.951 -0.9774  1.1912  1.5425
33520SOL    HW2 3963   3.243   2.178   5.014  0.4865 -0.5640  0.3238
33521SOL     OW 3964   5.528   3.210   4.210 -0.2810 -0.1116 -0.2699
33521SOL    HW1 3965   5.593   3.273   4.241 -0.8973  0.3914  0.0190
33521SOL    HW2 3966   5.497   3.166   4.289 -0.5509 -0.0899 -0.3600
33522SOL     OW 3967   0.464   6.020   2.199 -0.5860 -0.4682  0.4680
33522SOL    HW1 3968   0.498   6.105   2.228 -1.3052 -0.1176  0.3025
33522SOL    HW2 3969   0.473   5.963   2.276 -2.0098  0.3189  1.2588
33523SOL     OW 3970   2.063   0.380  10.800 -0.1588  0.3092  0.1122
33523SOL    HW1 3971   2.156   0.401  10.798 -0.6615  3.0173  1.0576
33523SOL    HW2 3972   2.054   0.314  10.869  1.0744 -0.2891 -0.2798
33524SOL     OW 3973  10.290   5.851   2.773 -0.0814 -0.0096 -0.7052
33524SOL    HW1 3974  10.222   5.791   2.742  0.3635 -2.3757  2.3873
33524SOL    HW2 3975  10.372   5.801   2.765  0.5005  0.6704  0.6986
33525SOL     OW 3976   4.742   7.693   3.828 -0.8897 -0.3681  0.3062
33525SOL    HW1 3977   4.832   7.695   3.860 -0.6332 -0.3841 -0.3952
33525SOL    HW2 3978   4.712   7.604   3.845 -1.3169  0.0602  1.9716
33526SOL     OW 3979  10.202   5.771   3.328 -0.3845  0.5904 -0.0287
33526SOL    HW1 3980  10.175   5.818   3.248 -0.2452 -0.7056 -0.8722
33526SOL    HW2 3981  10.233   5.686   3.296  0.8725  0.5174  1.3088
33527SOL     OW 3982   2.711   3.483   1.603  0.7089 -0.1914 -0.3491
33527SOL    HW1 3983   2.776   3.417   1.627  2.0483  1.3956  0.6496
33527SOL    HW2 3984   2.644   3.478   1.671  0.2902 -1.1523 -0.8188
33528SOL     OW 3985   5.229   3.445   6.487 -0.1224 -0.5996  0.3460
33528SOL    HW1 3986   5.228   3.435   6.582 -2.6135 -1.7299  0.2822
33528SOL    HW2 3987   5.190   3.531   6.471  0.5888 -0.2745  0.3477
33529SOL     OW 3988   0.864   5.965   2.200  0.5814  0.2453 -0.3532
33529SOL    HW1 3989   0.953   5.931   2.186  0.8171 -0.0425  1.5586
33529SOL    HW2 3990   0.818   5.894   2.245 -0.2992  0.7994 -0.3542
33530SOL     OW 3991   5.442   0.730   5.901 -0.2720  0.0063 -0.6988
33530SOL    HW1 3992   5.485   0.800   5.853 -0.7490 -0.1218 -1.3299
33530SOL    HW2 3993   5.493   0.652   5.880  0.7545  0.2710  0.6525
33531SOL     OW 3994  10.598   1.702   1.422 -0.4323  0.0175 -0.2778
33531SOL    HW1 3995  10.677   1.749   1.449 -0.3982 -0.3423  0.2508
33531SOL    HW2 3996  10.607   1.615   1.461 -1.0330 -0.0600 -0.3073
33532SOL     OW 3997   3.778   9.698   5.930  0.1930 -0.3870  0.2372
33532SOL    HW1 3998   3.872   9.684   5.919  0.0991 -0.4819 -0.4864
33532SOL    HW2 3999   3.766   9.793   5.920 -0.1129 -0.6386 -2.4223
33533SOL     OW 4000   6.197   9.671   9.445 -0.6015  0.6757  0.7720
33533SOL    HW1 4001   6.267   9.639   9.502  0.8492 -0.2684 -1.3926
33533SOL    HW2 4002   6.218   9.763   9.430  0.3656  0.3348 -0.0697
33534SOL     OW 4003   2.470   2.331   3.396  0.4816 -0.4026 -0.2640
33534SOL    HW1 4004   2.530   2.372   3.459  0.8568 -2.4399  0.7997
33534SOL    HW2 4005   2.429   2.405   3.350  0.4586  1.1714  2.0992
33535SOL     OW 4006   3.074  10.492   4.845  0.5840  0.1233 -0.3432
33535SOL    HW1 4007   3.135  10.566   4.853  1.9288 -0.8867 -0.9408
33535SOL    HW2 4008   3.046  10.494   4.753 -3.1469  2.6786  0.5733
33536SOL     OW 4009   1.962   6.841   3.285 -0.5369  0.0605 -0.7916
33536SOL    HW1 4010   1.968   6.752   3.250  0.8738 -0.4470  0.6425
33536SOL    HW2 4011   2.026   6.844   3.356 -1.3885  1.8731 -0.0271
33537SOL     OW 4012   9.101   9.046   7.157 -0.0998  0.6521  0.1115
33537SOL    HW1 4013   9.033   9.063   7.222  0.1479  1.4795  0.1732
33537SOL    HW2 4014   9.127   9.133   7.127  0.3067  0.3058 -0.5594
33538SOL     OW 4015   5.593   1.344   4.433 -0.2811 -0.0104 -0.1706
33538SOL    HW1 4016   5.511   1.313   4.394 -0.0177 -1.1010  0.1058
33538SOL    HW2 4017   5.660   1.324   4.367 -0.5382  3.7819 -1.8498
33539SOL     OW 4018   6.457   0.033   1.520 -0.4809 -0.5916  0.6629
33539SOL    HW1 4019   6.463  -0.062   1.513 -1.1699 -0.6111  0.1409
33539SOL    HW2 4020   6.457   0.051   1.614  0.5848 -1.0301  0.7578
33540SOL     OW 4021   4.680  10.105   2.868  0.7666 -0.2263  0.3343
33540SOL    HW1 4022   4.745  10.174   2.880  1.4768 -0.4297 -1.9482
33540SOL    HW2 4023   4.728  10.033   2.827 -0.8131 -0.5111 -1.1043
33541SOL     OW 4024   6.359   8.248   1.616  0.5022 -0.6551 -0.0583
33541SOL    HW1 4025   6.432   8.232   1.676  2.0885 -0.7548 -1.9177
33541SOL    HW2 4026   6.385   8.325   1.566 -1.6514  0.6019  0.6125
33542SOL     OW 4027   0.700   5.694   1.592  0.5405 -0.1372  0.0428
33542SOL    HW1 4028   0.724   5.782   1.623  1.3172 -0.2341 -0.2713
33542SOL    HW2 4029   0.782   5.646   1.588  0.2842 -0.5239 -0.9320
33543SOL     OW 4030   0.644   5.188   4.788  0.4538 -0.2833  0.3367
33543SOL    HW1 4031   0.671   5.096   4.797 -0.6525 -0.8293 -1.2970
33543SOL    HW2 4032   0.567   5.184   4.730 -0.5830  1.5411  1.4972
33544SOL     OW 4033   4.520   4.505   2.697 -0.1974 -0.2713 -0.4494
33544SOL    HW1 4034   4.431   4.508   2.662 -0.0201  1.3115 -0.8410
33544SOL    HW2 4035   4.516   4.557   2.778  0.3711 -0.1931 -0.4679
33545SOL     OW 4036   4.901   4.048   0.200  0.6278  0.2114  0.0019
33545SOL    HW1 4037   4.901   3.998   0.119 -0.7390  0.3347 -0.0880
33545SOL    HW2 4038   4.992   4.046   0.229  1.3730  1.0209 -2.0559
33546SOL     OW 4039   5.006   7.655   6.422  0.4188 -0.2542  0.1977
33546SOL    HW1 4040   4.953   7.707   6.484  1.3285  0.2275  0.5872
33546SOL    HW2 4041   5.093   7.652   6.462  1.0095  0.0252 -1.0320
33547SOL     OW 4042   9.968  10.299   3.167 -0.3496 -0.1728 -0.0151
33547SOL    HW1 4043   9.988  10.378   3.217  0.3144  0.8992 -1.9105
33547SOL    HW2 4044  10.022  10.305   3.089  0.8288 -3.2311  0.4153
33548SOL     OW 4045   2.248   0.100   9.962 -0.4080  0.4406 -0.2084
33548SOL    HW1 4046   2.208   0.091  10.049 -1.0795  1.2925 -0.4199
33548SOL    HW2 4047   2.343   0.094   9.979 -0.5478 -3.0875  0.1280
33549SOL     OW 4048   5.128   5.536   0.426  0.0252 -0.1003  0.1559
33549SOL    HW1 4049   5.075   5.601   0.474 -0.4159  0.2374 -0.7660
33549SOL    HW2 4050   5.083   5.453   0.442  0.2968 -0.1087  0.9184
33550SOL     OW 4051   2.614   5.717   7.235  0.2937 -0.1811  0.1472
33550SOL    HW1 4052   2.575   5.651   7.292  0.3486 -1.3450 -1.1268
33550SOL    HW2 4053   2.546   5.784   7.227  0.3125  0.0595  1.6114
33551SOL     OW 4054   1.192   1.902   2.202 -0.1735  0.1647 -0.1867
33551SOL    HW1 4055   1.249   1.887   2.278  2.4756 -2.5765 -2.4529
33551SOL    HW2 4056   1.113   1.852   2.222 -0.5554  1.3916  1.6711
33552SOL     OW 4057   2.338   0.641   5.314 -0.4471  0.6462  0.4566
33552SOL    HW1 4058   2.274   0.681   5.373 -1.3086  0.7735 -0.5242
33552SOL    HW2 4059   2.344   0.702   5.240  0.0855  0.1578  0.0872
33553SOL     OW 4060   3.108   7.131   7.744 -0.5141 -0.2537  0.1642
33553SOL    HW1 4061   3.182   7.076   7.719 -0.4178  0.1757 -0.5162
33553SOL    HW2 4062   3.115   7.208   7.688 -1.2151  0.0023  0.4160
33554SOL     OW 4063   2.211   6.577   0.942 -0.1472 -0.1724 -0.6949
33554SOL    HW1 4064   2.278   6.516   0.910  0.1278 -0.5110  0.4551
33554SOL    HW2 4065   2.130   6.546   0.903  0.1716 -0.5550 -1.0684
33555SOL     OW 4066   6.982   0.322  10.816  0.5038 -0.4293 -0.3173
33555SOL    HW1 4067   7.001   0.405  10.860  0.4090 -0.2890 -0.5419
33555SOL    HW2 4068   7.054   0.311  10.754  0.5344 -0.5314 -0.2640
33556SOL     OW 4069   6.889   0.725   9.082 -0.3531  0.5665 -0.3026
33556SOL    HW1 4070   6.912   0.758   9.169  0.1413 -1.3566  0.3406
33556SOL    HW2 4071   6.793   0.721   9.082 -0.3172 -1.1532  0.8764
33557SOL     OW 4072   4.208   7.831   5.606  0.2805  0.0902  0.3559
33557SOL    HW1 4073   4.192   7.922   5.581 -2.3540 -0.3451  0.1573
33557SOL    HW2 4074   4.298   7.830   5.638 -0.1596  3.1257  2.0009
33558SOL     OW 4075   3.182   3.183   7.862 -0.5230  0.3753  0.1894
33558SOL    HW1 4076   3.128   3.155   7.788 -1.2114  1.6082  0.2106
33558SOL    HW2 4077   3.136   3.151   7.939 -0.3560  0.0045  0.1374
33559SOL     OW 4078   8.598  10.461   5.122  0.1201  0.5199 -0.2520
33559SOL    HW1 4079   8.619  10.554   5.134 -0.4770  0.9696 -2.2177
33559SOL    HW2 4080   8.677  10.423   5.086 -0.2693  0.7406 -1.3737
33560SOL     OW 4081   0.840   6.336   9.685 -0.2920  0.4986 -0.4841
33560SOL    HW1 4082   0.847   6.246   9.714  0.2973  0.4962 -0.6259
33560SOL    HW2 4083   0.747   6.357   9.695 -0.1100  0.5529  1.5670
33561SOL     OW 4084   5.626   9.206   9.285 -0.2049  0.1307 -0.1338
33561SOL    HW1 4085   5.608   9.299   9.269 -0.5561 -0.1681 -1.6191
33561SOL    HW2 4086   5.720   9.196   9.267 -0.5529 -0.1590 -2.0148
33562SOL     OW 4087   3.451   0.716   3.589  0.0719 -0.3491  0.2733
33562SOL    HW1 4088   3.443   0.796   3.643  0.9613 -0.1001  0.0475
33562SOL    HW2 4089   3.364   0.677   3.592 -0.6979  1.2309 -0.5461
33563SOL     OW 4090   4.042   1.808   3.657  0.1962  0.0382 -0.6865
33563SOL    HW1 4091   4.130   1.821   3.691 -0.3996  0.6750  0.6699
33563SOL    HW2 4092   4.040   1.861   3.577  0.9121  0.3403 -0.5148
33564SOL     OW 4093   1.984   6.584   3.367  0.6271 -0.4683 -0.3757
33564SOL    HW1 4094   2.074   6.581   3.400  1.3331 -1.1254 -2.2408
33564SOL    HW2 4095   1.953   6.494   3.373 -0.5531  0.0053  1.7775
33565SOL     OW 4096   0.522   5.167   6.707  0.2768 -0.3562  0.6302
33565SOL    HW1 4097   0.550   5.226   6.777  0.6452 -1.5944  1.5531
33565SOL    HW2 4098   0.451   5.215   6.663  0.7723  0.8960  1.1512
33566SOL     OW 4099   4.670   9.863   9.192  0.6094  0.2959 -0.5099
33566SOL    HW1 4100   4.640   9.808   9.264  0.4938 -0.4148 -1.0860
33566SOL    HW2 4101   4.652   9.953   9.221 -1.1465 -0.0460 -0.4038
33567SOL     OW 4102   1.899   4.107   3.571  0.0849 -0.4833 -0.0570
33567SOL    HW1 4103   1.804   4.096   3.580 -0.0864  0.2194 -0.8842
33567SOL    HW2 4104   1.911   4.139   3.482  1.1334 -0.8426 -0.0558
33568SOL     OW 4105   9.058   1.509   2.431  0.3792 -0.3408 -0.2087
33568SOL    HW1 4106   9.126   1.535   2.369  1.4204 -1.5888  0.3649
33568SOL    HW2 4107   9.043   1.416   2.412 -1.7483  0.0775 -0.8462
33569SOL     OW 4108   3.145   7.434   8.470 -0.2764 -0.1347 -0.4339
33569SOL    HW1 4109   3.203   7.452   8.396  0.3001 -0.5600 -0.0900
33569SOL    HW2 4110   3.172   7.497   8.537  0.6974 -1.2088  0.2073
33570SOL     OW 4111   6.439  10.477   0.538  0.2858 -0.0643 -0.3715
33570SOL    HW1 4112   6.385  10.419   0.485  0.1560  0.8595 -1.2860
33570SOL    HW2 4113   6.399  10.564   0.528  2.4890  0.8576 -1.9341
33571SOL     OW 4114   6.846   0.043  10.484 -0.4373  0.1628  0.4043
33571SOL    HW1 4115   6.804  -0.006  10.413 -1.8000  1.0699  0.5500
33571SOL    HW2 4116   6.781   0.109  10.510  1.0927  1.6754  0.6068
33572SOL     OW 4117   0.189   9.031   3.053  0.2880  0.2207 -0.5211
33572SOL    HW1 4118   0.189   9.118   3.093 -0.2786 -0.8884  2.0997
33572SOL    HW2 4119   0.260   9.034   2.989 -0.2429  2.8173 -1.0923
33573SOL     OW 4120   0.594   2.785   8.286 -0.3610 -0.1580  0.4321
33573SOL    HW1 4121   0.669   2.755   8.337  0.1190 -0.7632 -0.5855
33573SOL    HW2 4122   0.627   2.861   8.238 -1.3336  1.5717  2.3610
33574SOL     OW 4123   6.045   5.080   9.251 -0.1945  0.7368  0.4871
33574SOL    HW1 4124   6.058   5.169   9.218 -0.8324  0.9727  0.8644
33574SOL    HW2 4125   6.094   5.025   9.189  0.8433  1.4036  0.6782
33575SOL     OW 4126   9.974   5.837   2.503 -0.1145  0.2610 -0.2250
33575SOL    HW1 4127  10.016   5.790   2.431 -0.9023  0.0457 -0.5552
33575SOL    HW2 4128   9.882   5.843   2.477 -0.0668  1.8344 -0.1137
33576SOL     OW 4129   2.887   5.883   0.625  0.5692 -0.2656  0.6067
33576SOL    HW1 4130   2.880   5.843   0.712 -0.1043  2.0023  1.6793
33576SOL    HW2 4131   2.888   5.977   0.642 -0.2155  0.2720 -1.8961
33577SOL     OW 4132   5.506   6.439   4.828  0.1650  0.5647 -0.0369
33577SOL    HW1 4133   5.504   6.387   4.908 -0.4530  1.8509  0.8211
33577SOL    HW2 4134   5.480   6.378   4.759 -0.9095 -0.1786  0.9857
33578SOL     OW 4135   6.476   0.994   1.976 -0.1792 -0.0194 -0.2932
33578SOL    HW1 4136   6.448   1.086   1.970 -0.0319 -0.0315 -1.3576
33578SOL    HW2 4137   6.562   0.993   1.934  0.9059 -0.2294  1.7839
33579SOL     OW 4138   8.280   2.441   9.645  0.1631  0.3779 -0.1460
33579SOL    HW1 4139   8.299   2.426   9.737  1.5703 -0.3995 -0.5342
33579SOL    HW2 4140   8.199   2.392   9.629 -0.3597  0.9204  0.7732
33580SOL     OW 4141   8.336  10.147   8.583 -0.2687 -0.2949  0.0245
33580SOL    HW1 4142   8.258  10.112   8.626 -0.6114  1.6122  1.1080
33580SOL    HW2 4143   8.409  10.108   8.630 -0.5027 -2.4991 -1.3320
33581SOL     OW 4144   9.983  10.715  10.778  0.1671  0.7437 -0.2423
33581SOL    HW1 4145  10.071  10.740  10.808  0.1842 -0.0622  0.4222
33581SOL    HW2 4146   9.957  10.645  10.838 -1.1594  1.3487 -0.0735
33582SOL     OW 4147   2.327   8.921   3.441  0.2960 -0.1375 -0.6053
33582SOL    HW1 4148   2.281   8.874   3.510  0.9209  1.4560  1.0084
33582SOL    HW2 4149   2.410   8.874   3.431  1.0094  0.6285  1.1423
33583SOL     OW 4150   3.497   5.594   2.696  0.4484 -0.0658 -0.4575
33583SOL    HW1 4151   3.486   5.568   2.787 -0.9914  1.5171 -0.1268
33583SOL    HW2 4152   3.407   5.599   2.662  0.8755  0.8932 -1.4855
33584SOL     OW 4153   7.874   8.745  10.583  0.8002  0.2319  0.2986
33584SOL    HW1 4154   7.940   8.741  10.652  1.3709  0.7535 -0.1989
33584SOL    HW2 4155   7.828   8.827  10.599  1.1964  0.5523 -0.1587
33585SOL     OW 4156   0.228   7.213   1.294  0.3422 -0.2030  0.0938
33585SOL    HW1 4157   0.255   7.299   1.263 -1.0539  0.3829  0.4557
33585SOL    HW2 4158   0.199   7.227   1.384 -0.7668 -0.8648 -0.1383
33586SOL     OW 4159   0.399   9.247   5.392  0.0428  0.0157 -0.4269
33586SOL    HW1 4160   0.482   9.201   5.380  1.0379  1.5377  0.2218
33586SOL    HW2 4161   0.349   9.192   5.452  1.0440 -0.4041  0.0480
33587SOL     OW 4162   0.938   4.462   9.787 -0.3513  0.3602  0.0446
33587SOL    HW1 4163   0.910   4.373   9.810  0.0529 -0.0524 -0.9920
33587SOL    HW2 4164   1.033   4.460   9.793 -0.3665  0.8710  0.5046
33588SOL     OW 4165   0.377   7.779   4.623 -0.5183 -0.4179  0.2468
33588SOL    HW1 4166   0.398   7.717   4.553 -1.1670  0.7676 -1.0387
33588SOL    HW2 4167   0.299   7.742   4.665 -0.6255 -0.7157 -0.2063
33589SOL     OW 4168   5.198   5.508   7.455  0.6753  0.0522 -0.1055
33589SOL    HW1 4169   5.196   5.522   7.360  0.6213 -1.7356 -0.4112
33589SOL    HW2 4170   5.290   5.494   7.475  0.5570 -0.7384 -0.0968
33590SOL     OW 4171   8.960   5.256  10.784  0.1708 -0.5390  0.6814
33590SOL    HW1 4172   8.919   5.172  10.804  2.6291 -2.1050 -0.4091
33590SOL    HW2 4173   9.042   5.255  10.833 -0.3867  1.9608  1.8372
33591SOL     OW 4174   4.837   7.460   5.876  0.5271  0.4691 -0.2100
33591SOL    HW1 4175   4.751   7.459   5.919  0.5491  1.1036 -0.1487
33591SOL    HW2 4176   4.824   7.515   5.798  1.0385  1.0883  0.1380
33592SOL     OW 4177   1.939   0.445   2.357 -0.2713 -0.1975  0.4540
33592SOL    HW1 4178   1.973   0.364   2.395 -0.7240 -0.2171  0.8315
33592SOL    HW2 4179   1.963   0.441   2.265 -0.3760 -0.8028  0.4517
33593SOL     OW 4180   3.503   0.069   5.178  0.3273  0.0302  0.1969
33593SOL    HW1 4181   3.442   0.007   5.138  0.8650 -1.2383  1.2836
33593SOL    HW2 4182   3.523   0.032   5.263  0.1648  2.0577  1.1711
33594SOL     OW 4183   8.679  10.600   3.954  0.1542 -0.4008 -0.0356
33594SOL    HW1 4184   8.635  10.659   3.892  1.6897 -0.1480 -0.9524
33594SOL    HW2 4185   8.620  10.596   4.030 -0.4783  1.5085 -0.3697
33595SOL     OW 4186   1.693   3.969   2.596 -0.8319 -0.1177 -0.9032
33595SOL    HW1 4187   1.761   3.979   2.529  0.1154 -1.6683 -0.2504
33595SOL    HW2 4188   1.643   4.050   2.592  1.2581  1.2335 -1.2106
33596SOL     OW 4189   7.017   9.275   4.125 -0.2991  0.2362  0.1202
33596SOL    HW1 4190   7.048   9.184   4.122 -1.1184 -0.0647  0.5372
33596SOL    HW2 4191   7.074   9.321   4.063  0.7664 -0.3639  0.6055
33597SOL     OW 4192   8.008   3.272  10.838 -0.4261  0.1475  0.1123
33597SOL    HW1 4193   7.937   3.310  10.888 -0.2128  0.3429  0.2681
33597SOL    HW2 4194   8.059   3.347  10.807 -0.5489  0.0303 -0.3868
33598SOL     OW 4195   7.668   5.223   6.659  0.3409 -0.5774 -0.3420
33598SOL    HW1 4196   7.729   5.152   6.643  1.5389  0.3127  0.1261
33598SOL    HW2 4197   7.618   5.195   6.736  0.9569 -0.8124 -0.0267
33599SOL     OW 4198   9.178   5.245  10.300 -0.5081  0.2205  0.2404
33599SOL    HW1 4199   9.175   5.155  10.270 -0.8147  0.1284  0.5355
33599SOL    HW2 4200   9.175   5.239  10.396  0.3635  0.5111  0.2882
33600SOL     OW 4201   2.238   8.725   5.364 -0.8459  0.4338  0.6128
33600SOL    HW1 4202   2.147   8.713   5.392 -0.8802  3.6657  2.2994
33600SOL    HW2 4203   2.248   8.819   5.353  2.1654  0.1335 -0.2126
33601SOL     OW 4204   4.381   1.502   9.000 -0.1253 -0.2924 -0.0785
33601SOL    HW1 4205   4.295   1.479   9.034 -0.8185  1.3922 -0.6169
33601SOL    HW2 4206   4.381   1.598   8.995  2.1739 -0.1426  0.9548
33602SOL     OW 4207  10.324   1.136   5.231  0.0734  0.0943 -0.2630
33602SOL    HW1 4208  10.285   1.052   5.257 -1.7285  0.5390 -1.2964
33602SOL    HW2 4209  10.417   1.118   5.223 -0.0576 -1.4014  1.0440
33603SOL     OW 4210   2.629   4.628  10.605  0.3426 -0.1372  0.2500
33603SOL    HW1 4211   2.607   4.542  10.641  2.4057 -1.2103 -0.8996
33603SOL    HW2 4212   2.723   4.637  10.619  0.9421  0.1671 -3.0948
33604SOL     OW 4213   1.578   6.067   9.607  0.1551  0.5747  0.0008
33604SOL    HW1 4214   1.539   5.980   9.617  1.3979 -0.1443 -1.0955
33604SOL    HW2 4215   1.504   6.127   9.612 -0.9344 -0.6499 -0.8274
33605SOL     OW 4216   5.201   3.078   8.644  0.3770  0.2733  0.5978
33605SOL    HW1 4217   5.212   3.105   8.553 -0.3508 -2.4924 -0.4040
33605SOL    HW2 4218   5.112   3.106   8.667 -0.7200 -1.8677 -0.7260
33606SOL     OW 4219   7.842   4.867   0.108  0.1515 -0.3178 -0.5167
33606SOL    HW1 4220   7.858   4.777   0.136 -2.0849  0.5453  4.8164
33606SOL    HW2 4221   7.781   4.859   0.035 -0.3859 -3.1912  0.1148
33607SOL     OW 4222   8.431   3.291  10.747 -0.3431  0.4532  0.1523
33607SOL    HW1 4223   8.397   3.249  10.826  1.5353  0.4742  1.0262
33607SOL    HW2 4224   8.499   3.231  10.716  0.9925  1.8468  0.2845
33608SOL     OW 4225   9.990   5.672   0.919 -0.4971  0.1156 -0.0377
33608SOL    HW1 4226  10.043   5.752   0.922 -0.5897  0.2411 -1.2793
33608SOL    HW2 4227   9.901   5.701   0.934 -0.4529  0.1658  0.1250
33609SOL     OW 4228   9.089   6.151   2.034 -0.0824  0.3851 -0.0691
33609SOL    HW1 4229   9.133   6.172   2.116 -0.0495  0.3636 -0.0810
33609SOL    HW2 4230   8.996   6.160   2.053 -0.0605  0.8044 -0.1479
33610SOL     OW 4231   5.095   5.678   8.367 -0.5074 -0.1904  0.0291
33610SOL    HW1 4232   5.185   5.649   8.382 -0.5340 -0.9278 -1.1321
33610SOL    HW2 4233   5.076   5.735   8.441  0.5336 -0.9039  0.8843
33611SOL     OW 4234   1.549   3.233  10.190  0.1404 -0.3496 -0.0447
33611SOL    HW1 4235   1.625   3.286  10.212  0.7834 -1.1342 -0.3411
33611SOL    HW2 4236   1.511   3.209  10.275 -0.4363  0.9474  0.0881
33612SOL     OW 4237   3.622   0.544   9.708 -0.4478  0.2168 -0.2221
33612SOL    HW1 4238   3.689   0.500   9.655 -0.6227  1.1449 -1.2648
33612SOL    HW2 4239   3.545   0.488   9.701 -0.7235  0.7111 -1.6820
33613SOL     OW 4240   1.255   1.375   2.918 -0.5469  0.3672  0.3198
33613SOL    HW1 4241   1.319   1.371   2.989 -0.6979 -2.2890  0.3911
33613SOL    HW2 4242   1.304   1.352   2.840 -1.4130 -2.3241  0.4618
33614SOL     OW 4243   8.437   5.067   3.441 -0.2240  0.5051 -0.7384
33614SOL    HW1 4244   8.471   5.151   3.472 -2.6844  0.5549  2.3229
33614SOL    HW2 4245   8.346   5.065   3.472  0.0572 -3.7981  0.4860
33615SOL     OW 4246   7.755   2.461   2.429 -0.1024 -0.0650  0.2088
33615SOL    HW1 4247   7.829   2.412   2.466 -1.9360 -0.3509  3.9737
33615SOL    HW2 4248   7.689   2.395   2.412 -1.3618  0.6277  2.0844
33616SOL     OW 4249   0.904   9.097   1.263  0.2228  0.1061  0.0101
33616SOL    HW1 4250   0.907   9.005   1.240  1.0793  0.3487 -0.9332
33616SOL    HW2 4251   0.986   9.112   1.311  0.1635  0.4069  0.0208
33617SOL     OW 4252   3.025   0.624   3.144 -0.7103  0.2285 -0.2290
33617SOL    HW1 4253   3.049   0.622   3.051 -0.1218  1.5119 -0.1308
33617SOL    HW2 4254   2.930   0.637   3.144 -0.4182  2.9046 -0.7158
33618SOL     OW 4255   7.772   2.553   3.340 -0.6818  1.2622  0.4009
33618SOL    HW1 4256   7.834   2.620   3.310 -0.2819  0.2078 -1.2306
33618SOL    HW2 4257   7.736   2.589   3.421  1.9214  1.9983  1.3286
33619SOL     OW 4258   8.014   8.235   1.886  0.4894  0.0077  0.1594
33619SOL    HW1 4259   7.944   8.203   1.943 -1.5759 -0.8149 -2.6225
33619SOL    HW2 4260   8.054   8.307   1.935 -1.3505 -0.4354  2.4666
33620SOL     OW 4261   9.031   7.036   5.038 -0.0763 -0.3108 -0.0956
33620SOL    HW1 4262   9.021   7.043   5.133  0.9180  0.6290 -0.0436
33620SOL    HW2 4263   9.114   6.990   5.027  0.3475  0.5553 -0.5118
33621SOL     OW 4264   4.644   9.356   3.271 -0.3881 -0.3014  0.2437
33621SOL    HW1 4265   4.663   9.379   3.180  0.6150  0.0564  0.5223
33621SOL    HW2 4266   4.721   9.306   3.299 -0.7162 -0.4587  0.8788
33622SOL     OW 4267   1.085   5.692  10.460  0.4161  1.1637 -0.0718
33622SOL    HW1 4268   1.041   5.744  10.391 -0.0213  0.1645 -0.5653
33622SOL    HW2 4269   1.127   5.620  10.413  1.6112  1.4434  0.5350
33623SOL     OW 4270   4.364   6.942   9.949 -0.0048  0.0467  0.2143
33623SOL    HW1 4271   4.381   7.036   9.944  0.6321 -0.0860 -0.1840
33623SOL    HW2 4272   4.393   6.908   9.864  1.1451 -0.7311  0.9027
33624SOL     OW 4273   1.055   9.082   2.659 -0.2421 -0.7490  0.2801
33624SOL    HW1 4274   1.035   9.058   2.568  0.3621  1.0996 -0.3993
33624SOL    HW2 4275   0.970   9.100   2.698 -0.3904  1.2648 -0.8254
33625SOL     OW 4276   1.400   6.977   7.305 -0.3775  0.6474 -0.1158
33625SOL    HW1 4277   1.461   6.906   7.289  0.0218  0.2046  2.8199
33625SOL    HW2 4278   1.329   6.963   7.242  1.2873 -0.3270 -1.8529
33626SOL     OW 4279   3.778   5.370   1.706 -0.1861  0.0914 -0.0463
33626SOL    HW1 4280   3.802   5.429   1.635 -0.3982  0.2923  0.0458
33626SOL    HW2 4281   3.851   5.309   1.713  0.7117  1.2293  0.8214
33627SOL     OW 4282  10.210   9.243   4.402 -0.2078 -0.2164 -0.1722
33627SOL    HW1 4283  10.296   9.213   4.371 -0.0991  1.8907 -2.2322
33627SOL    HW2 4284  10.221   9.256   4.496  1.6881 -0.1415 -0.3628
33628SOL     OW 4285   7.827   8.453   1.620 -0.1233  1.0933 -0.7136
33628SOL    HW1 4286   7.903   8.434   1.675  0.3570  2.3188 -0.9286
33628SOL    HW2 4287   7.759   8.395   1.654  1.2353 -0.9906 -1.3778
33629SOL     OW 4288   5.398   4.302   5.237 -0.0965  0.1802 -0.5800
33629SOL    HW1 4289   5.429   4.281   5.325 -1.4171  2.4318  0.5124
33629SOL    HW2 4290   5.402   4.219   5.189  0.0630 -1.2547  1.7759
33630SOL     OW 4291   9.277   5.851   6.609 -0.0529 -0.5832 -0.2835
33630SOL    HW1 4292   9.268   5.936   6.652  1.2480 -0.2790 -0.5765
33630SOL    HW2 4293   9.306   5.792   6.679 -0.3316 -0.6392 -0.2157
33631SOL     OW 4294  10.453  10.886   5.140  0.2234  0.3534 -0.2188
33631SOL    HW1 4295  10.509  10.857   5.068  1.5231 -1.8907  1.5640
33631SOL    HW2 4296  10.515  10.910   5.210 -0.9323 -1.6957  1.6412
33632SOL     OW 4297   8.568   1.405   1.244 -0.0547 -0.1913  0.0890
33632SOL    HW1 4298   8.624   1.328   1.246 -2.6126 -2.1932 -0.4644
33632SOL    HW2 4299   8.536   1.415   1.334  2.0625  1.7416  0.7132
33633SOL     OW 4300   1.536   6.682   7.685 -0.4527  0.2830  0.6063
33633SOL    HW1 4301   1.442   6.694   7.674 -0.8036 -0.4234  2.3600
33633SOL    HW2 4302   1.560   6.743   7.755 -0.3048 -1.7894  2.4865
33634SOL     OW 4303   7.841   1.999   9.712  0.0117  0.0566  0.2609
33634SOL    HW1 4304   7.806   1.910   9.719 -2.5023  1.0318  1.2369
33634SOL    HW2 4305   7.829   2.022   9.620 -0.0273 -0.3626  0.1575
33635SOL     OW 4306   6.512   5.926   0.292  0.5951 -0.4240 -0.1938
33635SOL    HW1 4307   6.445   5.922   0.224  1.0265 -3.6267 -0.5993
33635SOL    HW2 4308   6.577   5.987   0.259 -1.9581  2.7849  0.1979
33636SOL     OW 4309   3.727   6.813   0.919  0.5322 -0.4811  0.0140
33636SOL    HW1 4310   3.659   6.876   0.896 -0.2316 -1.1578  0.3546
33636SOL    HW2 4311   3.687   6.759   0.988  1.5366 -0.6770  0.4611
33637SOL     OW 4312   8.017   1.759   1.305  0.6600 -0.3192  0.2120
33637SOL    HW1 4313   8.048   1.813   1.232 -0.5254 -0.7781 -0.6659
33637SOL    HW2 4314   8.011   1.671   1.268  2.3859 -1.0558  1.5726
33638SOL     OW 4315   5.729   5.692   0.133 -0.7524  0.0090  0.5270
33638SOL    HW1 4316   5.726   5.596   0.124 -0.8874  0.0493  0.1191
33638SOL    HW2 4317   5.822   5.711   0.146 -0.4055 -0.0027 -1.6000
33639SOL     OW 4318   5.533   5.459   0.987  0.6617 -0.0938  0.0460
33639SOL    HW1 4319   5.456   5.469   1.044  1.6018 -0.7759  1.4933
33639SOL    HW2 4320   5.582   5.540   0.998  0.8063 -0.1942  0.1465
33640SOL     OW 4321   2.772   4.351   8.342  0.5978 -0.1715 -0.2687
33640SOL    HW1 4322   2.687   4.396   8.337  0.8393  0.4343  0.7060
33640SOL    HW2 4323   2.768   4.304   8.426  1.6451  0.7725  0.3352
33641SOL     OW 4324   3.212   0.417   5.573 -0.3859 -0.2631 -0.2207
33641SOL    HW1 4325   3.182   0.326   5.574 -0.5896 -0.2180 -1.0350
33641SOL    HW2 4326   3.271   0.422   5.498  0.4843  0.0203  0.4727
33642SOL     OW 4327   3.683   4.254   8.681 -0.7322 -0.2109 -0.2413
33642SOL    HW1 4328   3.637   4.337   8.671  1.5934  1.3447  1.0061
33642SOL    HW2 4329   3.775   4.278   8.690  0.1501 -3.0016 -0.6202
33643SOL     OW 4330   0.371   5.997   3.098  0.4053 -0.6132  0.0434
33643SOL    HW1 4331   0.463   5.993   3.070  0.9505  0.1808  1.5786
33643SOL    HW2 4332   0.323   6.024   3.020  1.5592 -0.3998 -0.6235
33644SOL     OW 4333   3.808   8.062   7.095 -0.6657  0.3902 -0.1192
33644SOL    HW1 4334   3.862   7.993   7.135  0.4580  1.0308 -0.4708
33644SOL    HW2 4335   3.832   8.141   7.144 -1.9557  0.5397  0.2959
33645SOL     OW 4336   7.997   7.922   4.160 -0.3141  0.0335  0.6372
33645SOL    HW1 4337   7.960   7.966   4.083 -1.5960 -0.6324  0.8512
33645SOL    HW2 4338   8.082   7.888   4.130 -0.9187 -0.4526 -0.5721
33646SOL     OW 4339  10.579  10.482   3.289  0.1385  0.0532 -0.1186
33646SOL    HW1 4340  10.670  10.462   3.268  0.3715  0.8172  0.1269
33646SOL    HW2 4341  10.566  10.446   3.377  0.2774  0.1472 -0.0592
33647SOL     OW 4342   9.826   3.586   1.979  0.4459 -0.3996 -0.2103
33647SOL    HW1 4343   9.810   3.540   2.061 -0.1187 -0.7019 -0.4898
33647SOL    HW2 4344   9.803   3.523   1.911  3.6503 -1.2410 -0.6919
33648SOL     OW 4345   5.196   6.331   4.755 -0.0798  1.0064 -0.2218
33648SOL    HW1 4346   5.208   6.326   4.850  0.3366 -0.2715 -0.3248
33648SOL    HW2 4347   5.111   6.290   4.740  0.4056  0.0838 -0.5039
33649SOL     OW 4348   2.353   7.205   8.915  0.3078  0.6093  0.5304
33649SOL    HW1 4349   2.288   7.218   8.983  0.1730  0.1077  0.5034
33649SOL    HW2 4350   2.420   7.149   8.955  0.4432  0.6647  0.3872
33650SOL     OW 4351  10.658  10.729   6.558 -0.0377 -0.4162 -0.5300
33650SOL    HW1 4352  10.564  10.735   6.576 -0.1120  2.3934 -1.3078
33650SOL    HW2 4353  10.685  10.820   6.540  2.7839 -1.1561 -0.5924
33651SOL     OW 4354   6.037   4.011   8.061  0.1637  0.0892  0.5768
33651SOL    HW1 4355   5.967   4.077   8.055 -0.0008 -0.1517 -0.3312
33651SOL    HW2 4356   6.108   4.056   8.107 -0.6373  0.2882  1.6499
33652SOL     OW 4357   1.226   5.531   6.502  0.3820  0.2886  0.1280
33652SOL    HW1 4358   1.264   5.547   6.415  0.4228  2.3453  0.4807
33652SOL    HW2 4359   1.242   5.612   6.551  2.0663 -1.4619  2.7277
33653SOL     OW 4360   7.349   1.175  10.114 -0.2053 -0.4458 -0.0305
33653SOL    HW1 4361   7.263   1.138  10.092 -0.5645  0.4268 -0.1462
33653SOL    HW2 4362   7.383   1.209  10.031 -0.6297  0.9629  0.3386
33654SOL     OW 4363   3.329   7.057   9.109 -0.0875 -0.5818  0.6001
33654SOL    HW1 4364   3.319   6.962   9.110 -1.0020 -0.5025  0.1165
33654SOL    HW2 4365   3.239   7.090   9.106  0.2338  0.2860  0.3302
33655SOL     OW 4366   4.316   5.117   5.142  0.2470 -0.3784 -0.2509
33655SOL    HW1 4367   4.294   5.024   5.135  1.5681 -0.7184 -0.0352
33655SOL    HW2 4368   4.397   5.119   5.192 -1.1691  1.0778  2.1989
33656SOL     OW 4369   9.036   6.900   9.842  0.0834  0.8124  0.1468
33656SOL    HW1 4370   8.960   6.843   9.854  1.9209 -2.1593 -1.0237
33656SOL    HW2 4371   9.029   6.966   9.911 -3.1215  0.2274  0.5002
33657SOL     OW 4372   4.093   8.833  10.897  0.2169  0.1456  0.3985
33657SOL    HW1 4373   4.008   8.834  10.941 -0.2397  2.7450 -0.3788
33657SOL    HW2 4374   4.072   8.821  10.805  0.9852 -2.4613  0.4883
33658SOL     OW 4375   9.759   4.440  10.180  0.6257 -0.7067  0.7033
33658SOL    HW1 4376   9.772   4.467  10.089 -0.0596 -1.8602  0.2475
33658SOL    HW2 4377   9.846   4.451  10.220  0.4561  1.8951  0.5158
33659SOL     OW 4378   0.949   7.162   2.597 -0.1674 -0.0132  0.3652
33659SOL    HW1 4379   0.902   7.186   2.677 -0.1073 -0.0043  0.3975
33659SOL    HW2 4380   0.889   7.102   2.552 -0.6294  0.7453 -0.0642
33660SOL     OW 4381   5.096   4.832   4.123  0.0466  0.3672  0.5666
33660SOL    HW1 4382   5.083   4.924   4.148  0.9779  1.0877 -1.3803
33660SOL    HW2 4383   5.087   4.832   4.027 -0.5149 -1.6934  0.5770
33661SOL     OW 4384   3.726   3.441   1.613  0.0274 -0.3432 -0.4036
33661SOL    HW1 4385   3.819   3.465   1.618  0.5428 -2.2516 -0.1571
33661SOL    HW2 4386   3.681   3.510   1.662  1.1160  1.4547 -1.8290
33662SOL     OW 4387   2.478  10.539   5.889 -0.9338  0.2747  0.0209
33662SOL    HW1 4388   2.453  10.611   5.831 -3.6863 -1.9178 -1.7919
33662SOL    HW2 4389   2.512  10.472   5.830 -1.0985 -0.9574  1.2927
33663SOL     OW 4390   1.217   7.325   1.591  0.4121 -0.4270  0.5247
33663SOL    HW1 4391   1.253   7.253   1.644 -0.8465 -0.1295  1.8429
33663SOL    HW2 4392   1.124   7.307   1.586  0.0249  1.2203  1.0855
33664SOL     OW 4393   2.935   5.506   5.386 -0.2035  0.0194 -0.7975
33664SOL    HW1 4394   2.906   5.595   5.367 -1.2745  0.1795  1.3592
33664SOL    HW2 4395   2.861   5.450   5.360 -1.0345  0.1170  1.1473
33665SOL     OW 4396  10.611   0.357   6.663 -0.9288  0.3105  0.4625
33665SOL    HW1 4397  10.657   0.429   6.619  0.1236 -0.6082  0.0201
33665SOL    HW2 4398  10.673   0.326   6.729 -0.9375 -0.8878 -0.0754
33666SOL     OW 4399   6.321   9.682   5.503  0.0266  0.1964 -0.0696
33666SOL    HW1 4400   6.251   9.617   5.502  0.2992 -0.2936  3.0138
33666SOL    HW2 4401   6.280   9.761   5.468 -1.5330 -0.5498 -0.0144
33667SOL     OW 4402   9.530   9.660   3.846 -0.8119  0.2935  0.6197
33667SOL    HW1 4403   9.437   9.682   3.855 -0.2352  2.7946  1.3500
33667SOL    HW2 4404   9.549   9.603   3.920 -2.2266 -2.2754 -0.8732
33668SOL     OW 4405   6.067   9.682   8.709  0.0585  0.1456 -0.4752
33668SOL    HW1 4406   6.021   9.717   8.632 -0.9323 -2.0660 -0.9470
33668SOL    HW2 4407   6.157   9.668   8.678  0.5577  2.3374 -0.2091
33669SOL     OW 4408   7.399   9.047   9.632  0.4665 -0.1201  0.5063
33669SOL    HW1 4409   7.412   9.102   9.709 -1.0866  1.7971 -0.4954
33669SOL    HW2 4410   7.452   9.088   9.563  1.1541 -1.2866  0.3305
33670SOL     OW 4411   4.796   8.052   4.651  0.7345  0.1491 -0.2071
33670SOL    HW1 4412   4.845   8.032   4.571  1.0187  2.5660 -0.7194
33670SOL    HW2 4413   4.754   7.969   4.675  1.8740 -1.0117 -1.9896
33671SOL     OW 4414   6.017   5.981  10.588  0.4807 -0.0864  0.7177
33671SOL    HW1 4415   5.951   6.026  10.640 -0.0844 -1.2426  1.0382
33671SOL    HW2 4416   6.039   5.903  10.639  2.3749  0.4507  0.7963
33672SOL     OW 4417   0.637   5.163   3.987 -0.0189  0.0886 -0.4939
33672SOL    HW1 4418   0.592   5.150   3.904 -1.0962  0.2294  0.0536
33672SOL    HW2 4419   0.727   5.134   3.970 -1.2969 -4.9325 -0.3508
33673SOL     OW 4420   7.825   4.676   9.477 -0.2358 -0.3551  0.3477
33673SOL    HW1 4421   7.743   4.694   9.523  0.5989  0.5455  1.5672
33673SOL    HW2 4422   7.802   4.683   9.384 -1.2734  1.2738  0.6726
33674SOL     OW 4423   6.030   0.474   5.558 -0.2038 -0.1036  0.2528
33674SOL    HW1 4424   6.014   0.527   5.480  0.0811 -0.5563 -0.1124
33674SOL    HW2 4425   6.058   0.538   5.624  0.4107  0.1704 -0.2618
33675SOL     OW 4426   3.436   5.330   8.415 -0.0397  0.3396  0.5454
33675SOL    HW1 4427   3.419   5.413   8.370 -0.8215  0.3434  0.8283
33675SOL    HW2 4428   3.486   5.355   8.493  0.3401  0.4588  0.2680
33676SOL     OW 4429   4.770   1.875   0.003  0.4681 -0.2691 -0.3276
33676SOL    HW1 4430   4.731   1.834   0.080 -1.2227  0.7584 -0.5983
33676SOL    HW2 4431   4.846   1.922   0.037  1.1977 -1.8285  0.3038
33677SOL     OW 4432   4.389   3.395   6.624  0.3878  0.3394 -0.1143
33677SOL    HW1 4433   4.315   3.370   6.680 -1.2871  2.9093 -0.9527
33677SOL    HW2 4434   4.456   3.425   6.686 -0.5873  1.0746  0.6411
33678SOL     OW 4435  10.897   9.731   5.667  0.3008 -0.0740 -0.2875
33678SOL    HW1 4436  10.896   9.670   5.741 -0.9640  0.1917 -0.0525
33678SOL    HW2 4437  10.922   9.815   5.706 -0.4851  0.0921 -0.1251
33679SOL     OW 4438   5.798   2.090  10.355 -0.3533  0.2601 -0.3436
33679SOL    HW1 4439   5.778   2.019  10.417 -1.0356  1.0494  0.3679
33679SOL    HW2 4440   5.859   2.051  10.293 -0.7084 -0.9530  0.0381
33680SOL     OW 4441   3.596   9.282   6.436 -0.3671  0.1366  0.2974
33680SOL    HW1 4442   3.553   9.362   6.403 -1.9647 -0.0810  1.6860
33680SOL    HW2 4443   3.589   9.289   6.531 -0.9739 -1.8655  0.4487
33681SOL     OW 4444   9.373   7.677   8.419 -0.0344 -0.3910 -0.0054
33681SOL    HW1 4445   9.366   7.661   8.325  1.9478 -1.1023 -0.0718
33681SOL    HW2 4446   9.466   7.665   8.439 -0.3023  0.3634  1.9442
33682SOL     OW 4447   0.800   0.802   0.038  0.1007  0.1994  0.5176
33682SOL    HW1 4448   0.771   0.891   0.056 -0.6020  0.3114 -0.9963
33682SOL    HW2 4449   0.722   0.748   0.055  0.3804 -0.0651  0.9610
33683SOL     OW 4450  10.891   7.490   6.424 -0.0575  0.0258 -0.1353
33683SOL    HW1 4451  10.956   7.555   6.453 -0.4782  0.9978 -1.2954
33683SOL    HW2 4452  10.825   7.490   6.493  0.2420  0.3943  0.1592
33684SOL     OW 4453   5.733   1.739   7.688  0.0916  0.7471  0.6610
33684SOL    HW1 4454   5.808   1.779   7.642  1.2652 -1.6279  0.3483
33684SOL    HW2 4455   5.684   1.694   7.619  0.0855 -0.2064  1.2675
33685SOL     OW 4456   6.078   7.451   6.706  0.0339 -1.0962 -0.1100
33685SOL    HW1 4457   6.115   7.447   6.794 -0.9330 -1.2891  0.2973
33685SOL    HW2 4458   5.993   7.492   6.717 -0.0355 -0.9730 -0.9851
33686SOL     OW 4459   3.882   5.102   2.842 -0.0507 -0.5314  0.5588
33686SOL    HW1 4460   3.796   5.135   2.865 -1.5915 -1.9422 -2.5626
33686SOL    HW2 4461   3.897   5.133   2.753  0.8277 -3.5405 -0.4727
33687SOL     OW 4462  10.177   4.879   1.147  0.0088 -0.5574 -0.1278
33687SOL    HW1 4463  10.131   4.806   1.189  0.6940  0.7593  3.2137
33687SOL    HW2 4464  10.110   4.946   1.135  0.2169 -0.1731  0.8301
33688SOL     OW 4465   9.364   7.230   5.774  0.1005 -0.3460 -0.3120
33688SOL    HW1 4466   9.378   7.139   5.800 -0.6846 -1.3314 -2.9558
33688SOL    HW2 4467   9.272   7.247   5.793  0.1454 -0.2344 -0.1906
33689SOL     OW 4468   2.247   0.867   9.114 -0.2113  0.3592  0.1339
33689SOL    HW1 4469   2.186   0.932   9.081 -1.0728  0.3307  1.5692
33689SOL    HW2 4470   2.199   0.822   9.184  1.2207 -0.1115  0.8700
33690SOL     OW 4471   5.200   9.602   4.712 -0.2760  0.5153  0.7154
33690SOL    HW1 4472   5.120   9.556   4.685 -1.4215  0.6685  3.5272
33690SOL    HW2 4473   5.234   9.551   4.785  0.6709  1.9460  1.3249
33691SOL     OW 4474   1.527   0.566   0.017  0.1873  0.0968  0.5796
33691SOL    HW1 4475   1.573   0.486   0.042  0.5015 -0.6478 -2.0139
33691SOL    HW2 4476   1.437   0.537  -0.001  0.1009  0.4622  0.4042
33692SOL     OW 4477   2.548   1.577   9.473  0.0053 -0.6365 -0.2317
33692SOL    HW1 4478   2.465   1.617   9.500  2.0418  2.8171  1.7413
33692SOL    HW2 4479   2.569   1.620   9.390 -0.3774 -1.9275 -1.0211
33693SOL     OW 4480  10.278   0.629   1.023 -0.1071  0.0969 -0.3571
33693SOL    HW1 4481  10.228   0.700   0.983 -1.4840 -0.4376  0.3790
33693SOL    HW2 4482  10.347   0.610   0.958 -1.4770  0.1303 -1.8891
33694SOL     OW 4483   6.399   7.446   9.520 -0.0852 -0.5306 -0.3647
33694SOL    HW1 4484   6.389   7.536   9.491  1.8145 -0.4629 -0.9457
33694SOL    HW2 4485   6.322   7.429   9.574 -0.1202  1.6552  0.3393
33695SOL     OW 4486   7.739   2.421   0.582  0.0627 -0.0017  0.4879
33695SOL    HW1 4487   7.781   2.352   0.531 -0.4904 -0.3081  0.4329
33695SOL    HW2 4488   7.736   2.496   0.523 -0.9105 -0.4626 -0.0915
33696SOL     OW 4489   7.595   5.880   9.559  0.1116 -0.0325 -0.2668
33696SOL    HW1 4490   7.521   5.878   9.497  0.7281 -2.4686 -1.0299
33696SOL    HW2 4491   7.580   5.805   9.616  0.7798  0.8499  1.1132
33697SOL     OW 4492   5.579   4.902   5.215 -0.1527 -0.2219  0.2280
33697SOL    HW1 4493   5.637   4.837   5.257  2.0545  0.9085 -0.8769
33697SOL    HW2 4494   5.633   4.981   5.209 -2.3749  1.3915  0.4706
33698SOL     OW 4495  10.444   3.505   5.615  0.1742  0.4971  0.3793
33698SOL    HW1 4496  10.379   3.517   5.684  1.1308  0.4592  1.3107
33698SOL    HW2 4497  10.525   3.485   5.662  0.8280  0.4061 -0.7616
33699SOL     OW 4498   0.283  10.819   1.212 -0.5134 -0.2193 -1.1150
33699SOL    HW1 4499   0.321  10.844   1.297 -1.2891 -1.6776 -0.3105
33699SOL    HW2 4500   0.243  10.900   1.179 -1.3177  0.0727  0.5068
33700SOL     OW 4501   9.297   3.187   7.994 -0.5044 -0.2284  0.0238
33700SOL    HW1 4502   9.297   3.252   8.064 -0.7857  0.0628 -0.2448
33700SOL    HW2 4503   9.219   3.134   8.011 -0.2799 -0.4905  0.2374
33701SOL     OW 4504   7.155   8.360   9.545  0.0631 -0.3072  0.0200
33701SOL    HW1 4505   7.139   8.325   9.633 -1.0488 -1.5649 -0.6399
33701SOL    HW2 4506   7.248   8.382   9.544  0.1144 -0.3837  1.4676
33702SOL     OW 4507   7.931   7.208   9.904 -0.0801 -0.4346  0.0766
33702SOL    HW1 4508   7.944   7.303   9.901  0.9538 -0.5681 -0.6303
33702SOL    HW2 4509   8.019   7.173   9.917 -0.3676 -1.3169 -0.2958
33703SOL     OW 4510   8.959   1.383   1.280 -0.0805  0.2904 -0.3073
33703SOL    HW1 4511   9.031   1.368   1.341 -0.0430  1.2749 -0.0882
33703SOL    HW2 4512   8.920   1.466   1.309  0.5192  1.2817 -2.1624
33704SOL     OW 4513   3.254  10.450   9.573  0.8697  0.2341  0.2660
33704SOL    HW1 4514   3.248  10.354   9.570  1.2626  0.1758  0.9930
33704SOL    HW2 4515   3.302  10.473   9.494  1.4663 -0.2397  0.4809
33705SOL     OW 4516   4.645   3.676   5.638  0.3660 -0.1226 -0.1323
33705SOL    HW1 4517   4.693   3.728   5.573  0.2817 -1.7020 -1.5258
33705SOL    HW2 4518   4.554   3.678   5.609 -0.0147  0.7174  1.0449
33706SOL     OW 4519   7.902   9.651   1.730 -0.0071 -0.0119  0.1401
33706SOL    HW1 4520   7.977   9.681   1.781 -0.0574 -0.3499  0.4103
33706SOL    HW2 4521   7.898   9.557   1.745 -0.5762  0.0256  0.2466
33707SOL     OW 4522   6.721   5.370   8.032 -0.0651 -0.1536 -0.0471
33707SOL    HW1 4523   6.796   5.405   7.984 -0.5839  0.0909 -0.6923
33707SOL    HW2 4524   6.759   5.327   8.109  0.6504  0.9933  0.2591
33708SOL     OW 4525   9.827   7.453   2.516  0.0897 -0.1645  0.1191
33708SOL    HW1 4526   9.901   7.403   2.480 -0.6046 -0.3724 -1.0753
33708SOL    HW2 4527   9.781   7.390   2.571  0.0221 -0.4445 -0.2479
33709SOL     OW 4528   4.703   6.589  10.334  0.2205  0.7302 -0.0899
33709SOL    HW1 4529   4.639   6.568  10.267  0.5144  1.4515 -0.6050
33709SOL    HW2 4530   4.706   6.511  10.390 -0.4300  0.3452 -0.5875
33710SOL     OW 4531   6.892   3.274   7.214 -0.3134  0.9374 -0.1403
33710SOL    HW1 4532   6.900   3.341   7.146 -0.4839  0.2230 -0.8773
33710SOL    HW2 4533   6.982   3.249   7.233 -0.3106  0.2987 -0.9602
33711SOL     OW 4534   5.639   9.758  10.090 -0.2012  0.5649  1.2094
33711SOL    HW1 4535   5.545   9.774  10.091 -0.4225 -0.6165  1.2452
33711SOL    HW2 4536   5.659   9.725  10.178  0.1399  0.2827  1.0326
33712SOL     OW 4537   7.224  10.046   4.399 -0.9192  0.1293 -0.6004
33712SOL    HW1 4538   7.256   9.998   4.323 -0.4350 -0.0564 -0.2837
33712SOL    HW2 4539   7.252   9.993   4.474  1.0027  1.6824 -0.1524
33713SOL     OW 4540   9.287   4.831   8.897  0.9471  0.3403 -0.4370
33713SOL    HW1 4541   9.216   4.771   8.876  1.3638 -0.4281  0.3131
33713SOL    HW2 4542   9.341   4.833   8.817 -0.0633  1.1682 -1.1197
33714SOL     OW 4543   6.038   3.863   3.590 -0.2924 -0.7840 -0.0147
33714SOL    HW1 4544   6.002   3.917   3.520  1.1077  0.0119 -0.1649
33714SOL    HW2 4545   5.962   3.824   3.632 -1.1933 -1.0996 -1.8104
33715SOL     OW 4546   0.576   9.381   2.823  0.8215 -0.1205  0.5504
33715SOL    HW1 4547   0.624   9.460   2.799  1.5874 -0.5540  0.6121
33715SOL    HW2 4548   0.588   9.373   2.917 -0.3005  0.3559  0.7458
33716SOL     OW 4549   8.291   8.910   2.626 -0.5640 -0.0176  0.1827
33716SOL    HW1 4550   8.289   8.877   2.716 -1.7234  0.1840  0.2506
33716SOL    HW2 4551   8.208   8.957   2.616 -1.6003 -2.0387 -1.7069
33717SOL     OW 4552   7.050  10.604   9.229 -0.2400  0.0895  0.3266
33717SOL    HW1 4553   7.138  10.592   9.263 -0.6525 -1.7390  0.8814
33717SOL    HW2 4554   6.993  10.567   9.296 -1.3258 -0.1289 -0.6775
33718SOL     OW 4555   8.946   7.060   8.433  0.3684  0.0968 -0.0880
33718SOL    HW1 4556   8.901   7.103   8.361 -1.6975 -0.0497  1.0548
33718SOL    HW2 4557   8.932   6.967   8.417 -0.8120  0.0851  0.8963
33719SOL     OW 4558   4.010   5.561   0.131 -0.3578  0.2029  0.7267
33719SOL    HW1 4559   3.947   5.490   0.122 -1.8223  1.1783  2.6234
33719SOL    HW2 4560   4.013   5.601   0.044  0.0031 -1.7266 -0.1978
33720SOL     OW 4561   3.459   4.028   1.585 -0.1221 -0.9129 -0.4333
33720SOL    HW1 4562   3.518   3.976   1.531  0.6961 -0.9052  0.4321
33720SOL    HW2 4563   3.429   3.966   1.652  1.5234 -0.1104  1.1257
33721SOL     OW 4564   7.357   1.685   9.386  0.9185 -0.5221 -0.2296
33721SOL    HW1 4565   7.384   1.680   9.294  0.6929 -1.6001 -0.2536
33721SOL    HW2 4566   7.262   1.699   9.382  1.1768  1.6276 -0.1405
33722SOL     OW 4567   2.715  10.350   8.558 -0.0658  0.1750 -0.4942
33722SOL    HW1 4568   2.802  10.317   8.538 -0.5873 -1.5512 -0.0439
33722SOL    HW2 4569   2.659  10.273   8.556 -1.0893  0.7683  2.0876
33723SOL     OW 4570   6.549   8.218   3.702 -0.0490 -0.0369 -0.0404
33723SOL    HW1 4571   6.636   8.255   3.711 -0.5759  0.7942  2.2036
33723SOL    HW2 4572   6.562   8.124   3.714  0.7219 -0.1337 -1.4176
33724SOL     OW 4573   4.180   3.180   5.824 -0.3069 -0.3374  0.0244
33724SOL    HW1 4574   4.273   3.200   5.832 -0.5208  0.9461 -0.4383
33724SOL    HW2 4575   4.140   3.213   5.904 -0.2579 -1.6798  0.6220
33725SOL     OW 4576   7.280   8.743   9.095 -0.5756  0.0900 -0.1344
33725SOL    HW1 4577   7.195   8.711   9.126  0.0836 -0.8784  0.7740
33725SOL    HW2 4578   7.343   8.698   9.151  0.6343 -0.7684 -2.1030
33726SOL     OW 4579   4.725  10.046   9.867  0.0823  0.0155  0.0657
33726SOL    HW1 4580   4.774   9.964   9.873 -0.9615 -0.6183  0.0595
33726SOL    HW2 4581   4.730  10.084   9.955  0.0595 -0.3462  0.2221
33727SOL     OW 4582   8.724   2.299   0.301 -0.1893 -0.4007 -0.6928
33727SOL    HW1 4583   8.724   2.223   0.360 -0.9183  0.2216  0.1390
33727SOL    HW2 4584   8.631   2.318   0.288 -0.1968  3.1287  2.8337
33728SOL     OW 4585   5.597   0.598   0.840  0.0319  0.1268 -0.1621
33728SOL    HW1 4586   5.617   0.529   0.903 -0.9644 -0.7760 -0.7968
33728SOL    HW2 4587   5.509   0.628   0.865 -0.4183 -0.3180 -1.1691
33729SOL     OW 4588   2.838   0.456   0.555 -0.1980 -0.5056 -0.2986
33729SOL    HW1 4589   2.852   0.494   0.642  2.4189 -0.7874 -0.5049
33729SOL    HW2 4590   2.871   0.523   0.495 -3.0500  0.1890 -1.2471
33730SOL     OW 4591   2.912   6.950  10.918  0.0611  0.1053 -0.1074
33730SOL    HW1 4592   2.923   7.044  10.931 -0.0275  0.0271  0.5475
33730SOL    HW2 4593   2.926   6.912  11.005 -1.6881 -0.3318  0.0211
33731SOL     OW 4594   3.908   5.118   7.442  0.1317 -0.1542 -0.3201
33731SOL    HW1 4595   3.957   5.129   7.523  0.8657 -1.1988 -0.5998
33731SOL    HW2 4596   3.969   5.142   7.372  0.0001 -0.6765 -0.6272
33732SOL     OW 4597   5.512   0.527   9.020 -0.7439  0.1883  0.0056
33732SOL    HW1 4598   5.572   0.571   9.081  1.6559 -3.0578  0.2422
33732SOL    HW2 4599   5.433   0.511   9.072 -0.5272  1.4989  0.7811
33733SOL     OW 4600   7.184   0.499   3.795 -0.3130  0.7155  0.4776
33733SOL    HW1 4601   7.251   0.521   3.860 -0.3007 -1.4193  1.2934
33733SOL    HW2 4602   7.118   0.568   3.804  0.2778  1.1442  1.9176
33734SOL     OW 4603  10.504   2.854   1.612  0.1100  0.4832 -0.5548
33734SOL    HW1 4604  10.482   2.762   1.627  2.2912 -0.3153 -1.8344
33734SOL    HW2 4605  10.592   2.852   1.574  0.2814  3.1228 -0.4632
33735SOL     OW 4606   4.786   7.488   0.476  0.5769  0.3301  0.1611
33735SOL    HW1 4607   4.851   7.494   0.406  0.9855  1.6309  0.6321
33735SOL    HW2 4608   4.813   7.411   0.526  2.3378  1.3517  0.8782
33736SOL     OW 4609   5.287   6.053  10.412  0.0949 -0.2492 -0.9565
33736SOL    HW1 4610   5.330   6.113  10.351 -0.2241  1.7512  0.6451
33736SOL    HW2 4611   5.294   5.967  10.371  1.9334  0.6342 -2.6742
33737SOL     OW 4612   2.191   9.899   1.486 -0.7926  0.0163  0.5686
33737SOL    HW1 4613   2.173   9.849   1.407  1.0851 -1.3662  0.9557
33737SOL    HW2 4614   2.280   9.933   1.474  0.8158 -2.7104  3.1916
33738SOL     OW 4615   0.444   4.138   9.389  0.5302  0.1612 -0.2553
33738SOL    HW1 4616   0.465   4.147   9.296  0.4739 -0.2943 -0.3127
33738SOL    HW2 4617   0.489   4.212   9.431  2.8626 -1.1540 -0.2675
33739SOL     OW 4618   8.119   9.945  10.554  0.5729 -0.2198  0.0841
33739SOL    HW1 4619   8.122  10.040  10.560 -2.6664 -0.1011  1.8532
33739SOL    HW2 4620   8.100   9.928  10.462  1.3586  0.8063 -0.2890
33740SOL     OW 4621   1.175   8.665   2.300 -1.0611 -0.6522 -0.4317
33740SOL    HW1 4622   1.119   8.636   2.372 -0.1978  0.3057  0.6791
33740SOL    HW2 4623   1.174   8.761   2.306  1.9357 -0.5730  0.7143
33741SOL     OW 4624   9.900   6.915   6.414 -0.2558  0.3393  0.2463
33741SOL    HW1 4625   9.933   6.851   6.477  1.5198  0.2210 -0.7269
33741SOL    HW2 4626   9.943   6.997   6.438 -1.7689  0.9853  0.8893
33742SOL     OW 4627  10.708   6.195   8.775  0.2220  0.1481 -0.8023
33742SOL    HW1 4628  10.720   6.101   8.762  0.3929  0.3276 -1.9957
33742SOL    HW2 4629  10.724   6.234   8.689 -0.1522  1.2417 -0.3937
33743SOL     OW 4630   6.132   2.157   5.735 -0.2241 -0.5778  0.2672
33743SOL    HW1 4631   6.177   2.089   5.684  0.7523  0.3975 -0.2377
33743SOL    HW2 4632   6.041   2.153   5.706 -0.0814 -1.3348 -0.1104
33744SOL     OW 4633   3.123   3.957   2.914  0.3414 -0.6010 -0.0522
33744SOL    HW1 4634   3.127   3.880   2.971  0.7248  0.5657  1.5508
33744SOL    HW2 4635   3.073   4.022   2.964  0.7314  0.4783 -1.0183
33745SOL     OW 4636   2.573   8.878   7.788 -0.5119 -0.1177  0.7867
33745SOL    HW1 4637   2.634   8.846   7.722  0.7047  0.4414  1.6024
33745SOL    HW2 4638   2.551   8.967   7.760  0.7551  0.4769  1.5987
33746SOL     OW 4639  10.894   9.695   4.456  0.3401 -0.4614  0.1439
33746SOL    HW1 4640  10.857   9.723   4.373  1.3267 -2.1106 -0.9062
33746SOL    HW2 4641  10.819   9.695   4.517 -0.5222  0.1669 -0.8897
33747SOL     OW 4642   3.909   4.263   8.252  0.1216  0.1356 -0.0494
33747SOL    HW1 4643   3.885   4.185   8.302 -0.0370 -0.2543 -0.7329
33747SOL    HW2 4644   3.843   4.328   8.276  0.5313  0.2238  0.8913
33748SOL     OW 4645   4.755   6.354   8.533 -0.2542 -0.0167  0.4426
33748SOL    HW1 4646   4.802   6.418   8.586 -0.6645 -0.2310  1.0808
33748SOL    HW2 4647   4.792   6.269   8.559 -1.1839 -0.2114  1.1701
33749SOL     OW 4648   0.680   9.490   9.750  0.2163  0.2027  0.1464
33749SOL    HW1 4649   0.650   9.574   9.714 -0.2195  0.8085  1.8579
33749SOL    HW2 4650   0.759   9.470   9.699 -0.2100  1.1622 -0.9372
33750SOL     OW 4651   9.137   8.967   8.246  0.2414  0.5643 -0.0450
33750SOL    HW1 4652   9.111   9.056   8.223 -0.3443  0.3465 -0.2406
33750SOL    HW2 4653   9.165   8.973   8.337  1.0624  1.1213 -0.3323
33751SOL     OW 4654   3.077   1.235   5.033 -0.1346  0.0391  0.1762
33751SOL    HW1 4655   3.055   1.220   5.125  1.2992  0.9413  0.6838
33751SOL    HW2 4656   2.995   1.268   4.995 -1.4272 -2.4870  0.5423
33752SOL     OW 4657   9.194   2.319   5.124  0.1810 -0.1094  0.7418
33752SOL    HW1 4658   9.151   2.353   5.045  2.4957 -0.8189 -0.9031
33752SOL    HW2 4659   9.183   2.224   5.118  2.3809 -0.3628 -0.0469
33753SOL     OW 4660   0.357   2.967   7.547 -0.1942 -0.4132  0.4012
33753SOL    HW1 4661   0.343   2.884   7.501 -1.0847 -0.7656  1.2625
33753SOL    HW2 4662   0.270   2.991   7.579 -0.1399  1.3828 -0.6967
33754SOL     OW 4663   8.749   0.427   4.667 -0.4871  0.6938 -0.2847
33754SOL    HW1 4664   8.837   0.391   4.659 -0.6094  0.2233  0.4313
33754SOL    HW2 4665   8.712   0.385   4.744 -2.2341 -0.9441 -1.9037
33755SOL     OW 4666   0.834   5.031   5.778 -0.1237  0.0787 -0.1581
33755SOL    HW1 4667   0.875   4.945   5.788 -0.9235 -0.2132  0.6669
33755SOL    HW2 4668   0.741   5.012   5.764 -0.2998  0.8044 -0.0050
33756SOL     OW 4669   8.548   9.283   1.404 -0.0177 -0.3540 -0.0173
33756SOL    HW1 4670   8.531   9.376   1.413 -0.4283 -0.3638 -0.6345
33756SOL    HW2 4671   8.516   9.245   1.487  1.2278  0.1737  0.7333
33757SOL     OW 4672   7.634   7.944   4.355  0.6381 -0.1791  0.0142
33757SOL    HW1 4673   7.630   7.936   4.259  1.9810  0.2037 -0.0912
33757SOL    HW2 4674   7.726   7.962   4.374 -0.1303  3.2005  1.1373
33758SOL     OW 4675   6.596   9.980   9.532  0.9701  0.0425 -0.0495
33758SOL    HW1 4676   6.523   9.929   9.566 -0.9498  1.5799 -1.5947
33758SOL    HW2 4677   6.674   9.927   9.549 -0.4345 -1.4567  2.0564
33759SOL     OW 4678   5.818   4.300   0.298 -0.8689 -0.0659  0.1459
33759SOL    HW1 4679   5.830   4.205   0.292 -2.5669 -0.3683  0.9622
33759SOL    HW2 4680   5.730   4.311   0.335 -0.7050  1.8322  0.0726
33760SOL     OW 4681   3.963  10.095   8.473 -0.1407  0.0937  0.1958
33760SOL    HW1 4682   3.960  10.004   8.444  0.4813 -0.1172  0.7595
33760SOL    HW2 4683   3.939  10.092   8.566 -0.6851  0.5787  0.0810
33761SOL     OW 4684   7.508  10.721   6.361  0.3120  0.2376  0.5786
33761SOL    HW1 4685   7.579  10.736   6.425  0.0474  0.5376  0.8077
33761SOL    HW2 4686   7.454  10.800   6.368  0.7410  0.6584 -0.6317
33762SOL     OW 4687   5.783   8.969   3.484 -0.0640 -0.7155  0.4611
33762SOL    HW1 4688   5.782   8.874   3.493  0.0431 -0.6893  0.7838
33762SOL    HW2 4689   5.734   8.987   3.404 -0.8964 -0.9891  0.8968
33763SOL     OW 4690   1.550   8.116   7.731  0.1208 -0.1852  0.1410
33763SOL    HW1 4691   1.457   8.137   7.724 -0.0335 -0.7048  0.5798
33763SOL    HW2 4692   1.592   8.201   7.744  0.0105  0.3649 -2.5969
33764SOL     OW 4693   9.556   3.685   4.798 -0.4529 -0.4743  0.8207
33764SOL    HW1 4694   9.639   3.697   4.845  0.1632  0.1686 -0.3633
33764SOL    HW2 4695   9.500   3.639   4.859  0.9708 -1.4255  1.4724
33765SOL     OW 4696   3.797  10.094   5.392 -0.2188  0.4353  0.2427
33765SOL    HW1 4697   3.874  10.147   5.412 -0.8302  0.8308  1.6906
33765SOL    HW2 4698   3.725  10.137   5.440 -1.1574 -0.4568 -0.3183
33766SOL     OW 4699   5.893  10.349   2.682 -0.5134  0.4258  0.1690
33766SOL    HW1 4700   5.857  10.403   2.753  0.7678  0.3982  0.8753
33766SOL    HW2 4701   5.904  10.263   2.722  0.3317  0.4406 -0.0254
33767SOL     OW 4702   8.890   6.828  10.559 -0.1457 -0.3308  0.5036
33767SOL    HW1 4703   8.895   6.832  10.464  1.1836 -0.5109  0.5447
33767SOL    HW2 4704   8.826   6.895  10.583 -0.1879 -0.0054 -0.4837
33768SOL     OW 4705   1.192   1.003   8.578  0.1870 -0.1751  0.4947
33768SOL    HW1 4706   1.201   0.976   8.487  0.8212 -0.4839  0.6390
33768SOL    HW2 4707   1.182   0.921   8.627 -2.9310  0.0635  0.4644
33769SOL     OW 4708   8.919   4.194   8.995 -0.6771 -0.7687  0.0343
33769SOL    HW1 4709   8.856   4.168   8.928 -0.6818  1.6477 -0.9796
33769SOL    HW2 4710   8.867   4.203   9.075 -1.2424 -0.7484 -0.3316
33770SOL     OW 4711   4.659   0.400   9.127  0.3519 -0.1133  0.2891
33770SOL    HW1 4712   4.675   0.491   9.102 -0.7718  0.7370  2.3925
33770SOL    HW2 4713   4.741   0.372   9.168 -0.0704  0.8007  1.8233
33771SOL     OW 4714   5.411   7.816   9.182  0.4455 -1.2765 -0.3484
33771SOL    HW1 4715   5.370   7.836   9.266 -0.0924 -1.1827 -0.6285
33771SOL    HW2 4716   5.457   7.733   9.197 -0.2616 -1.6418 -0.1676
33772SOL     OW 4717   0.174   1.917  10.071 -0.0128  0.0522 -0.1675
33772SOL    HW1 4718   0.101   1.960  10.026  0.8824  0.8891 -0.8626
33772SOL    HW2 4719   0.238   1.987  10.085  0.8175 -0.7409  0.1002
33773SOL     OW 4720   5.617  10.340   0.011  0.3835  0.2089  0.6838
33773SOL    HW1 4721   5.549  10.287   0.053 -0.3090  0.1876 -0.4263
33773SOL    HW2 4722   5.599  10.331  -0.083  2.3288 -0.3428  0.3261
33774SOL     OW 4723   0.809   5.485   5.067  0.1135 -0.4112 -0.0368
33774SOL    HW1 4724   0.896   5.524   5.068  0.2099 -0.5326  2.0042
33774SOL    HW2 4725   0.762   5.531   5.137 -0.9951 -1.3365 -0.1415
33775SOL     OW 4726   1.539   8.840   4.178  0.4153  0.6127 -0.1407
33775SOL    HW1 4727   1.475   8.897   4.220  0.9715  1.3824 -0.3134
33775SOL    HW2 4728   1.621   8.860   4.222  0.4871 -0.5821  0.2786
33776SOL     OW 4729   7.984   9.413  10.313 -0.2892 -0.2724 -0.0541
33776SOL    HW1 4730   8.074   9.381  10.315 -0.6506 -1.2716  1.7201
33776SOL    HW2 4731   7.958   9.420  10.405 -2.2239 -0.5710 -0.5261
33777SOL     OW 4732   3.254  10.034   7.444 -0.1019 -0.4183  0.3899
33777SOL    HW1 4733   3.192  10.007   7.376  0.2487  0.6013 -0.3664
33777SOL    HW2 4734   3.339  10.030   7.401  0.1712 -0.1821  0.9080
33778SOL     OW 4735   5.094   0.187   1.881 -0.1195 -0.5966  0.1248
33778SOL    HW1 4736   5.025   0.122   1.868  0.1470 -0.7357 -0.6017
33778SOL    HW2 4737   5.047   0.268   1.898 -0.4986 -0.4312 -1.5617
33779SOL     OW 4738   7.273   8.658   2.522  0.6107  0.6791  0.5960
33779SOL    HW1 4739   7.216   8.606   2.579 -0.0495  1.8346  1.0422
33779SOL    HW2 4740   7.286   8.605   2.444  2.1635 -1.2973  2.1002
33780SOL     OW 4741  10.747   3.561   1.516 -0.5175  0.2153 -0.2539
33780SOL    HW1 4742  10.812   3.498   1.484 -0.5678 -0.2896  0.5929
33780SOL    HW2 4743  10.663   3.519   1.499 -0.5192 -0.8753  2.0377
33781SOL     OW 4744   6.183  10.484   3.710  0.3885 -0.6809  0.6405
33781SOL    HW1 4745   6.276  10.486   3.687  0.1060 -0.9382 -0.6086
33781SOL    HW2 4746   6.152  10.572   3.692  0.1443 -0.9089 -0.1057
33782SOL     OW 4747  10.715   9.755   1.783  0.3457 -0.8744 -0.1346
33782SOL    HW1 4748  10.653   9.778   1.713  0.2452 -1.3177 -0.1950
33782SOL    HW2 4749  10.741   9.665   1.763 -0.2264 -1.2625  0.7929
33783SOL     OW 4750   2.609   6.920   0.009 -0.1267  0.1249 -0.2116
33783SOL    HW1 4751   2.558   6.878  -0.061  0.2456  2.8439 -2.3054
33783SOL    HW2 4752   2.700   6.898  -0.011 -0.0678  0.3526 -0.1986
33784SOL     OW 4753   0.025   3.928   7.864 -0.2083 -0.1320 -0.2737
33784SOL    HW1 4754  -0.041   3.880   7.915 -0.2904  1.8365  1.6637
33784SOL    HW2 4755   0.109   3.895   7.896 -0.2649 -0.4868 -0.4950
33785SOL     OW 4756   1.655   2.851   2.001 -0.5277  0.4492 -0.4142
33785SOL    HW1 4757   1.670   2.770   2.050  0.7266  0.3931 -0.8690
33785SOL    HW2 4758   1.627   2.823   1.914 -0.2468  0.5118 -0.5240
33786SOL     OW 4759   6.801   0.219   1.452  0.5595  0.2646  0.0279
33786SOL    HW1 4760   6.706   0.225   1.443  0.2429 -0.0142  2.6128
33786SOL    HW2 4761   6.816   0.144   1.510  2.3948  0.0934 -0.5825
33787SOL     OW 4762   4.748   4.072   3.832  0.4422 -0.0057  0.0697
33787SOL    HW1 4763   4.766   4.025   3.750  0.1462  0.8026 -0.4674
33787SOL    HW2 4764   4.824   4.129   3.844  0.5739 -0.2599  0.4627
33788SOL     OW 4765   7.144   6.079   9.150  0.5829  0.0099  0.5218
33788SOL    HW1 4766   7.169   6.109   9.238 -2.3077  1.2643  1.0208
33788SOL    HW2 4767   7.078   6.142   9.121  0.1504 -1.4156 -1.8208
33789SOL     OW 4768   0.248   5.108   7.340  0.0141  0.1567 -0.4339
33789SOL    HW1 4769   0.314   5.067   7.396  0.2927  0.5160 -0.4964
33789SOL    HW2 4770   0.258   5.066   7.255  1.6116  1.6830 -1.0495
33790SOL     OW 4771   8.936   0.570   5.301  0.5451  0.2748 -0.0716
33790SOL    HW1 4772   8.955   0.486   5.342 -0.1793  0.1451  0.0056
33790SOL    HW2 4773   8.940   0.552   5.207  0.6059  0.2028 -0.0549
33791SOL     OW 4774   1.790   2.199   3.247 -0.0480  0.6173 -0.3362
33791SOL    HW1 4775   1.771   2.130   3.311  1.1821  1.2713  0.7951
33791SOL    HW2 4776   1.805   2.152   3.165  1.9072 -0.6203  0.6488
33792SOL     OW 4777   0.290   7.387   5.523 -0.2040  0.7699 -0.5197
33792SOL    HW1 4778   0.263   7.324   5.589 -1.7014 -0.1941 -1.9656
33792SOL    HW2 4779   0.305   7.334   5.444  0.9373  1.9408 -1.1359
33793SOL     OW 4780   0.741   5.712   3.450 -0.0507 -0.7783  0.4058
33793SOL    HW1 4781   0.730   5.724   3.544 -0.5588  0.7084  0.1869
33793SOL    HW2 4782   0.693   5.785   3.411  1.9328 -0.1228 -0.9466
33794SOL     OW 4783   9.481   1.815   7.724 -0.0588  0.2595  0.2256
33794SOL    HW1 4784   9.486   1.905   7.692  1.8128 -0.2892 -1.1907
33794SOL    HW2 4785   9.566   1.799   7.765 -0.9216 -0.4078  1.8733
33795SOL     OW 4786  10.898   0.732   8.107 -0.1868  0.0822 -0.1993
33795SOL    HW1 4787  10.889   0.648   8.062 -0.4136  1.0958 -2.1800
33795SOL    HW2 4788  10.974   0.773   8.066 -1.2051  1.6071 -0.6761
33796SOL     OW 4789   1.926  10.326   4.468  0.0582  0.0382 -0.4688
33796SOL    HW1 4790   2.002  10.288   4.513 -0.3753  1.5366  1.6636
33796SOL    HW2 4791   1.949  10.321   4.375  1.9827 -1.1578  0.0010
33797SOL     OW 4792   5.553   8.906   5.720 -0.0423  0.5968  0.4585
33797SOL    HW1 4793   5.584   8.916   5.810 -0.7802 -1.2494  0.9704
33797SOL    HW2 4794   5.526   8.994   5.693  0.7251  1.2783  1.8182
33798SOL     OW 4795   0.181   1.511   2.045 -0.1096  0.5983  0.6656
33798SOL    HW1 4796   0.258   1.467   2.081 -1.3150 -2.6336 -0.3124
33798SOL    HW2 4797   0.184   1.492   1.951 -0.3606  3.3835  0.0030
33799SOL     OW 4798   0.748   3.961   9.142  0.4973  0.1826 -0.0248
33799SOL    HW1 4799   0.837   3.925   9.134  0.0116 -0.8390 -1.0852
33799SOL    HW2 4800   0.703   3.900   9.201  0.7533  1.2584  1.3348
33800SOL     OW 4801   4.991   9.323   5.737 -0.0083  0.2097 -0.6285
33800SOL    HW1 4802   5.059   9.285   5.792 -0.2158  0.9018  0.1173
33800SOL    HW2 4803   4.918   9.342   5.797 -0.8720 -0.5148 -1.4098
33801SOL     OW 4804   4.050   9.026   5.041  0.4854  0.1287 -0.2083
33801SOL    HW1 4805   4.122   9.064   4.990  0.2143 -0.0243 -0.7146
33801SOL    HW2 4806   3.981   9.093   5.039  0.9753  0.6976  1.1252
33802SOL     OW 4807   3.641  10.880   4.281 -0.7541 -0.2036  0.6028
33802SOL    HW1 4808   3.606  10.793   4.259 -1.3415 -0.0322  0.8378
33802SOL    HW2 4809   3.697  10.902   4.207  1.3955 -1.8343  1.6207
33803SOL     OW 4810   6.880   1.340   6.301  0.3127  0.4252  0.4155
33803SOL    HW1 4811   6.919   1.262   6.261  0.1377 -0.2975  1.6048
33803SOL    HW2 4812   6.892   1.408   6.236 -0.4036 -0.8075 -1.0804
33804SOL     OW 4813   9.770   5.765   4.249  0.0467 -0.1183  0.3416
33804SOL    HW1 4814   9.711   5.714   4.303  0.2887 -0.2846  0.4509
33804SOL    HW2 4815   9.846   5.782   4.306  0.4885 -0.6552 -0.0816
33805SOL     OW 4816   9.688   6.408   2.223  0.0037  0.1965  0.0200
33805SOL    HW1 4817   9.696   6.333   2.282 -0.3192  0.6712  0.6751
33805SOL    HW2 4818   9.777   6.442   2.216 -0.1172  0.8243  1.1675
33806SOL     OW 4819   2.868   7.743   8.391  0.4340 -0.2074 -0.3293
33806SOL    HW1 4820   2.932   7.704   8.332  1.8666  0.9061  0.4084
33806SOL    HW2 4821   2.830   7.815   8.341  2.5538  1.5450  0.4059
33807SOL     OW 4822   5.542   8.231   1.682  0.2064 -0.1057  0.2714
33807SOL    HW1 4823   5.559   8.250   1.589 -0.3540 -0.9929 -0.0174
33807SOL    HW2 4824   5.627   8.247   1.724  0.2556  1.1544 -0.2363
33808SOL     OW 4825   1.002   8.889   1.777  0.1206 -0.3110  0.1105
33808SOL    HW1 4826   1.041   8.917   1.860 -1.4140 -0.5641  0.9594
33808SOL    HW2 4827   1.037   8.950   1.712 -0.6400  1.5397  1.3640
33809SOL     OW 4828   4.454   8.283   9.691  0.1489  0.0951 -0.0709
33809SOL    HW1 4829   4.387   8.341   9.653  0.5929  0.6288 -0.0561
33809SOL    HW2 4830   4.418   8.195   9.681 -0.1669  0.3023 -0.8797
33810SOL     OW 4831   9.249   9.664   7.133 -0.1483  0.0868  0.1832
33810SOL    HW1 4832   9.297   9.707   7.063 -0.9001 -0.0446 -0.4367
33810SOL    HW2 4833   9.191   9.602   7.088 -1.3640  0.7009  0.8310
33811SOL     OW 4834   6.670   4.810   4.666  0.4299  0.3060 -0.0982
33811SOL    HW1 4835   6.584   4.785   4.699  0.5108 -0.5101 -0.4867
33811SOL    HW2 4836   6.726   4.734   4.686  0.9115  0.5767 -0.3990
33812SOL     OW 4837   5.445   6.638   6.086 -0.5096 -0.6928  0.1199
33812SOL    HW1 4838   5.402   6.580   6.023  0.3742  0.6778 -1.8861
33812SOL    HW2 4839   5.390   6.716   6.089  0.4371  0.0259 -0.4811
33813SOL     OW 4840   9.194   9.326   7.068 -0.6663 -0.0748 -0.0211
33813SOL    HW1 4841   9.278   9.324   7.022 -0.0960  0.5775  0.9552
33813SOL    HW2 4842   9.145   9.396   7.025 -0.0635  0.6625  0.4725
33814SOL     OW 4843   7.089   8.297   8.114  0.8544  0.3784  0.8865
33814SOL    HW1 4844   7.178   8.279   8.144  0.7195 -1.0670  0.5014
33814SOL    HW2 4845   7.091   8.278   8.020 -0.0295 -0.3820  1.0079
33815SOL     OW 4846   3.118   0.599   3.541  0.1728  0.3380  0.0589
33815SOL    HW1 4847   3.097   0.507   3.557 -0.6300  0.6380  0.8028
33815SOL    HW2 4848   3.107   0.641   3.626 -1.1625  1.4378 -0.6254
33816SOL     OW 4849   0.844   0.389   1.862 -0.1147  0.5576  0.5833
33816SOL    HW1 4850   0.937   0.411   1.864  0.3804 -1.3684  1.1633
33816SOL    HW2 4851   0.814   0.401   1.952 -0.5388  1.5529  0.3177
33817SOL     OW 4852  10.126   5.434   8.591 -0.4483  0.2489  0.2999
33817SOL    HW1 4853  10.215   5.404   8.573 -0.5304 -0.0836  0.4331
33817SOL    HW2 4854  10.102   5.486   8.514  0.8783  2.7576  1.4601
33818SOL     OW 4855  10.048   4.039   2.793 -0.0482  0.7042 -0.1434
33818SOL    HW1 4856  10.105   4.013   2.720  0.4311 -0.3212  0.5546
33818SOL    HW2 4857  10.094   4.112   2.835 -0.8294  1.9848 -1.4459
33819SOL     OW 4858   5.289   1.609   3.809 -0.1356  0.0393  0.1334
33819SOL    HW1 4859   5.208   1.632   3.764 -1.2691 -0.2579  1.9246
33819SOL    HW2 4860   5.329   1.543   3.753 -0.1198  1.5680 -1.7465
33820SOL     OW 4861   2.784   6.857   4.910 -0.1720  0.7558  0.4894
33820SOL    HW1 4862   2.709   6.798   4.898 -0.2939  0.8339  0.8566
33820SOL    HW2 4863   2.769   6.928   4.848  1.0624 -0.6469 -1.5063
33821SOL     OW 4864   8.653   3.306   4.211 -0.4367 -0.1282  0.2277
33821SOL    HW1 4865   8.663   3.345   4.297 -3.2825 -0.9357  1.0036
33821SOL    HW2 4866   8.581   3.353   4.170  0.1859 -0.4430 -1.3481
33822SOL     OW 4867   5.939   2.065   6.299  0.2940  0.0575  0.2990
33822SOL    HW1 4868   5.957   2.073   6.205  1.8602  0.9099  0.6307
33822SOL    HW2 4869   5.929   2.156   6.329 -0.8613 -0.2377  0.8581
33823SOL     OW 4870   6.793   9.439   4.463  0.4168  0.2145 -0.3864
33823SOL    HW1 4871   6.731   9.367   4.448  0.9038 -0.3047  0.0390
33823SOL    HW2 4872   6.784   9.458   4.557  0.4063  0.6017 -0.4665
33824SOL     OW 4873   2.587   1.162   9.445 -0.5528 -0.4243  0.1263
33824SOL    HW1 4874   2.622   1.075   9.465  0.7012  0.3043  1.2611
33824SOL    HW2 4875   2.644   1.194   9.375 -0.0956  0.0480  0.7116
33825SOL     OW 4876   4.644  10.101   9.295  0.2418  0.6160  0.0768
33825SOL    HW1 4877   4.650  10.187   9.339 -1.9584  1.1442 -0.5671
33825SOL    HW2 4878   4.651  10.121   9.202  2.5371 -0.2657 -0.0111
33826SOL     OW 4879   8.842   7.630   1.589  0.2849 -0.0381  0.0182
33826SOL    HW1 4880   8.859   7.553   1.535  1.3805 -0.2284  0.6181
33826SOL    HW2 4881   8.754   7.615   1.624 -0.6068  0.2634 -1.9614
33827SOL     OW 4882   6.142   8.843   0.736 -0.5600 -0.6425  0.0157
33827SOL    HW1 4883   6.185   8.839   0.650 -0.1240 -0.8558  0.2411
33827SOL    HW2 4884   6.207   8.808   0.797 -0.7101 -0.0874  0.4991
33828SOL     OW 4885   2.403   3.782   1.796  0.1815 -0.1802 -0.7262
33828SOL    HW1 4886   2.490   3.821   1.784  1.2205 -2.6872 -2.2880
33828SOL    HW2 4887   2.344   3.840   1.749  1.3645  0.4247 -1.5166
33829SOL     OW 4888   2.294   0.579   6.588  0.1205 -0.3854 -0.1537
33829SOL    HW1 4889   2.375   0.625   6.565 -0.1962 -0.0985 -0.7148
33829SOL    HW2 4890   2.266   0.619   6.670 -0.7549  1.2426 -1.2030
33830SOL     OW 4891   0.013   4.123  10.111 -0.2333 -0.2365 -0.4040
33830SOL    HW1 4892  -0.062   4.122  10.171 -0.9071  0.2190 -1.2187
33830SOL    HW2 4893   0.006   4.041  10.063 -0.0658 -0.3056 -0.3118
33831SOL     OW 4894   0.878  10.016   7.257 -0.3409 -0.0814 -0.7050
33831SOL    HW1 4895   0.829  10.085   7.302  0.4665  0.6905 -0.9778
33831SOL    HW2 4896   0.905   9.956   7.327 -0.3613  0.3155 -0.3521
33832SOL     OW 4897   2.753   2.801   1.674 -0.0120 -0.3775  0.2801
33832SOL    HW1 4898   2.659   2.785   1.663 -0.2097  1.5471 -1.6019
33832SOL    HW2 4899   2.795   2.721   1.645 -1.0477 -1.0758  0.6582
33833SOL     OW 4900   1.465   5.738   8.727 -0.2577  0.0690 -0.4601
33833SOL    HW1 4901   1.484   5.658   8.679 -0.5569 -0.1859 -0.1507
33833SOL    HW2 4902   1.536   5.745   8.791 -0.0397  0.2389 -0.7139
33834SOL     OW 4903   1.228   4.352   4.032 -0.3181 -0.1628 -0.5255
33834SOL    HW1 4904   1.226   4.445   4.055  0.5295 -0.3391  0.3360
33834SOL    HW2 4905   1.199   4.307   4.112 -0.3696 -0.6569 -0.8184
33835SOL     OW 4906   0.131   6.411   0.063  0.5294  0.0278 -0.7097
33835SOL    HW1 4907   0.202   6.457   0.109 -0.3475  0.6029  0.1093
33835SOL    HW2 4908   0.079   6.372   0.133 -0.0977 -0.1754 -1.2865
33836SOL     OW 4909  10.732   6.163   7.786  0.2342  0.0026  0.2030
33836SOL    HW1 4910  10.729   6.080   7.835  2.0277 -0.4130 -0.3182
33836SOL    HW2 4911  10.819   6.164   7.746  0.5021  2.4408  0.7065
33837SOL     OW 4912   7.472   1.975   9.132  0.0732  0.5106 -0.2905
33837SOL    HW1 4913   7.556   1.963   9.088 -0.5456 -2.6418 -0.8473
33837SOL    HW2 4914   7.429   1.890   9.125 -1.9043  1.1255  2.6940
33838SOL     OW 4915   1.654   5.698   3.514 -0.0147  0.5909 -0.0940
33838SOL    HW1 4916   1.611   5.659   3.438 -0.6966  1.0475  0.0418
33838SOL    HW2 4917   1.671   5.789   3.488  0.1985  0.6130  0.1183
33839SOL     OW 4918   8.382   4.466   1.837 -0.1348  0.2350 -0.7818
33839SOL    HW1 4919   8.376   4.532   1.906  0.6627  0.0545 -0.5203
33839SOL    HW2 4920   8.378   4.516   1.756 -0.9501  0.4624 -0.6065
33840SOL     OW 4921  10.895   1.694   2.474 -0.4230  0.4932  0.9586
33840SOL    HW1 4922  10.812   1.658   2.506  0.4635 -2.0834  0.5754
33840SOL    HW2 4923  10.908   1.652   2.389  0.7875  1.6547  0.5399
33841SOL     OW 4924   5.063   1.380   6.855 -0.2109 -0.0700 -0.1477
33841SOL    HW1 4925   4.974   1.355   6.879  0.0894  0.0995  1.2293
33841SOL    HW2 4926   5.114   1.299   6.862  0.1958  0.2823  1.4948
33842SOL     OW 4927   1.636   1.277   9.364  0.0775 -0.8907 -1.1533
33842SOL    HW1 4928   1.727   1.251   9.354  0.7136  0.1994  1.1229
33842SOL    HW2 4929   1.595   1.204   9.410  0.9254  0.3286  1.7316
33843SOL     OW 4930   0.109   6.873   0.018  0.2229 -0.2301 -0.4748
33843SOL    HW1 4931   0.049   6.820   0.071  0.7495  1.8613  2.4329
33843SOL    HW2 4932   0.053   6.917  -0.045 -0.6430 -1.6512 -0.7471
33844SOL     OW 4933   5.473   8.371   6.214 -0.0075 -0.1595  0.4644
33844SOL    HW1 4934   5.454   8.324   6.133 -0.1307 -0.9784  0.9478
33844SOL    HW2 4935   5.422   8.325   6.281 -0.5300  0.9856  0.8864
33845SOL     OW 4936   1.825   2.954   5.439  0.3430 -0.1542  0.3779
33845SOL    HW1 4937   1.755   2.920   5.383  0.4069  0.9844 -0.4323
33845SOL    HW2 4938   1.792   2.944   5.528  0.7391 -3.1466  0.2758
33846SOL     OW 4939  10.253   6.143   2.193 -0.0854 -0.5519 -0.1958
33846SOL    HW1 4940  10.169   6.158   2.235 -0.3413 -1.2174 -0.4618
33846SOL    HW2 4941  10.258   6.208   2.124  0.3854  0.6338  0.9050
33847SOL     OW 4942   3.307   2.624   0.447 -0.2408  0.0314 -0.6800
33847SOL    HW1 4943   3.344   2.572   0.376  1.4628  0.1425  0.1024
33847SOL    HW2 4944   3.237   2.675   0.405  0.4807 -0.1785 -2.1965
33848SOL     OW 4945   4.203   5.825   0.071  0.6014 -0.6228 -0.2336
33848SOL    HW1 4946   4.267   5.755   0.057  1.3303 -0.2330  1.0615
33848SOL    HW2 4947   4.252   5.906   0.059  0.2918 -0.3248  0.4633
33849SOL     OW 4948   5.452   3.313  10.371  0.5443 -0.4387  0.0061
33849SOL    HW1 4949   5.437   3.220  10.384  0.3166 -0.4236 -0.1486
33849SOL    HW2 4950   5.432   3.328  10.278 -0.4325 -0.0384  0.2698
33850SOL     OW 4951   7.951   8.812   8.337 -0.3112  0.6085 -0.1634
33850SOL    HW1 4952   7.977   8.893   8.293 -0.2252 -0.2379 -1.7753
33850SOL    HW2 4953   8.030   8.759   8.338 -0.2462  0.7084  1.3206
33851SOL     OW 4954   9.684   1.885   5.395  0.3694  0.3219  0.3035
33851SOL    HW1 4955   9.700   1.926   5.311 -0.1819 -0.2774 -0.1041
33851SOL    HW2 4956   9.637   1.951   5.446  1.3089  0.9406  0.4067
33852SOL     OW 4957   1.849   2.658   2.338  0.1070  0.0336  0.1254
33852SOL    HW1 4958   1.870   2.582   2.392 -0.5798  0.4581  1.0187
33852SOL    HW2 4959   1.854   2.732   2.399 -2.4835  0.3327  0.0940
33853SOL     OW 4960   3.066   1.011   3.737 -0.3478 -0.5160 -0.0830
33853SOL    HW1 4961   3.127   1.077   3.768 -0.2730 -1.2252  1.3722
33853SOL    HW2 4962   3.081   1.005   3.643  0.2653  0.8788 -0.0879
33854SOL     OW 4963   4.523   6.176   0.556  0.0105  0.2465 -0.4016
33854SOL    HW1 4964   4.484   6.098   0.597 -1.4141  1.0376 -0.2111
33854SOL    HW2 4965   4.523   6.242   0.625  1.1385  0.4587 -0.5858
33855SOL     OW 4966   1.139   6.992  10.825  0.1443  0.5328 -0.3955
33855SOL    HW1 4967   1.070   6.994  10.759 -0.0720  0.5581 -0.1674
33855SOL    HW2 4968   1.208   7.048  10.789  0.9531 -1.1422 -1.6394
33856SOL     OW 4969  10.553   1.986   4.602  0.0316  0.1939 -0.0298
33856SOL    HW1 4970  10.597   1.913   4.558 -2.4692 -0.6572 -1.3368
33856SOL    HW2 4971  10.620   2.053   4.612  2.1184 -1.8046  0.0970
33857SOL     OW 4972   0.284   6.161   4.151 -0.0249 -0.3056 -0.0882
33857SOL    HW1 4973   0.223   6.122   4.088 -0.3907 -2.3053  1.3935
33857SOL    HW2 4974   0.368   6.160   4.106 -0.1893 -2.0898 -0.4487
33858SOL     OW 4975   7.311   8.865  10.265 -0.2614 -0.4015 -0.5695
33858SOL    HW1 4976   7.363   8.791  10.297  0.8684  0.2637 -0.8157
33858SOL    HW2 4977   7.306   8.851  10.171  2.2357  1.1940 -1.0009
33859SOL     OW 4978   5.932   8.526   5.158 -0.6395  0.5713 -0.1959
33859SOL    HW1 4979   5.890   8.478   5.086 -3.0737  2.4215 -0.1278
33859SOL    HW2 4980   6.001   8.577   5.116 -1.7687  1.3193 -1.1821
33860SOL     OW 4981   8.020   6.905   9.941  0.4071  0.0218  0.1101
33860SOL    HW1 4982   8.043   6.881   9.851 -0.8917  0.7078 -0.4414
33860SOL    HW2 4983   7.950   6.844   9.965 -1.1301  1.4859 -0.3728
33861SOL     OW 4984   4.546   9.091   4.529 -0.4421 -0.2170  0.3156
33861SOL    HW1 4985   4.511   9.150   4.597 -0.5851  0.8804 -0.6804
33861SOL    HW2 4986   4.626   9.055   4.567  0.2284  1.4434  0.5749
33862SOL     OW 4987   2.686   9.394   3.686 -0.0960 -0.5147  0.2991
33862SOL    HW1 4988   2.641   9.476   3.708 -0.7516 -0.6602 -0.4412
33862SOL    HW2 4989   2.677   9.387   3.591  1.2350 -0.7169  0.1720
33863SOL     OW 4990   6.158  10.345   8.308 -0.1320 -0.5493  0.5616
33863SOL    HW1 4991   6.232  10.348   8.248 -0.1751 -1.6004  0.4351
33863SOL    HW2 4992   6.182  10.279   8.373  0.0026  0.7144  1.8368
33864SOL     OW 4993   9.810   5.613   3.191 -0.2816 -0.1147  0.0720
33864SOL    HW1 4994   9.827   5.562   3.270 -1.6237 -1.2474 -0.3278
33864SOL    HW2 4995   9.725   5.581   3.160 -0.7484  1.7512 -0.7010
33865SOL     OW 4996   3.251  10.003   2.613  0.2761 -0.2273  0.1901
33865SOL    HW1 4997   3.316  10.074   2.609  1.0128 -0.9178 -0.7205
33865SOL    HW2 4998   3.208  10.005   2.527 -0.5784 -0.0907  0.6133
33866SOL     OW 4999   7.538   1.242   3.552  0.5714 -0.3592 -0.1611
33866SOL    HW1 5000   7.480   1.303   3.599  1.1726  0.5573 -0.5827
33866SOL    HW2 5001   7.479   1.176   3.517  0.2326 -2.5025  3.7930
33867SOL     OW 5002   3.211   8.155   0.436  0.3943  0.2682 -0.1217
33867SOL    HW1 5003   3.130   8.193   0.472  0.2399  0.5099 -0.7143
33867SOL    HW2 5004   3.207   8.063   0.462 -0.4485  0.0992 -0.7735
33868SOL     OW 5005   0.836   5.985   4.330 -0.0938 -0.2663  0.5196
33868SOL    HW1 5006   0.798   5.914   4.381 -0.3784 -1.3625 -1.1339
33868SOL    HW2 5007   0.931   5.973   4.339 -0.0084  1.6234  3.4933
33869SOL     OW 5008   2.862  10.256   5.021  0.3893  0.1049  0.2015
33869SOL    HW1 5009   2.875  10.328   5.082  2.0563  0.8328 -0.9478
33869SOL    HW2 5010   2.931  10.193   5.043 -1.3799 -1.5225  1.5744
33870SOL     OW 5011   3.432   8.300   4.351  0.0997 -0.2730  0.2821
33870SOL    HW1 5012   3.510   8.262   4.311 -0.6385 -1.5069 -0.0516
33870SOL    HW2 5013   3.361   8.243   4.322 -0.9157  0.7613  0.6692
33871SOL     OW 5014   1.731   6.821   9.595  0.7733 -0.0322  0.5028
33871SOL    HW1 5015   1.732   6.916   9.583  2.3219 -0.2844 -2.2142
33871SOL    HW2 5016   1.648   6.793   9.557  0.6979  0.1536  0.5289
33872SOL     OW 5017   6.294   9.896  10.117  0.7000  0.3122  1.1568
33872SOL    HW1 5018   6.231   9.936  10.056  0.3128 -0.0447  1.3192
33872SOL    HW2 5019   6.268   9.804  10.121  3.1779 -0.6314 -1.2990
33873SOL     OW 5020   7.680   2.321  10.113  0.2924 -0.2395 -0.3587
33873SOL    HW1 5021   7.710   2.367  10.034 -1.8414  0.4068 -0.8666
33873SOL    HW2 5022   7.670   2.230  10.085  1.4554 -0.4090 -0.2536
33874SOL     OW 5023  10.069   7.538   1.010  0.0558  0.6015  1.2123
33874SOL    HW1 5024  10.024   7.595   1.072 -2.0070  1.3604 -0.8629
33874SOL    HW2 5025  10.022   7.550   0.927  4.0200  1.4504 -1.2161
33875SOL     OW 5026   7.377   7.110   0.239  0.0512 -0.4664 -0.7154
33875SOL    HW1 5027   7.407   7.047   0.305  0.3278  0.5779  0.1854
33875SOL    HW2 5028   7.312   7.163   0.285  0.8308  0.8005 -1.0152
33876SOL     OW 5029   0.391   4.512   4.021 -0.0290  0.7053  0.3835
33876SOL    HW1 5030   0.409   4.418   4.015  2.3593  1.1507 -0.1965
33876SOL    HW2 5031   0.420   4.537   4.108 -1.8105  0.7253  1.0054
33877SOL     OW 5032  10.610   1.141   4.279 -0.3682  0.0666  0.1723
33877SOL    HW1 5033  10.623   1.115   4.188  1.1692  1.3073 -0.0041
33877SOL    HW2 5034  10.688   1.192   4.301 -2.1361  2.6101  1.1486
33878SOL     OW 5035   4.615   5.055   2.648 -0.1542  0.5543  0.5011
33878SOL    HW1 5036   4.586   5.005   2.572  1.1535  2.9762 -1.7813
33878SOL    HW2 5037   4.656   4.991   2.706 -2.4928 -1.6030 -0.0712
33879SOL     OW 5038  10.143   8.724  10.243 -0.3975 -0.3874 -0.0174
33879SOL    HW1 5039  10.049   8.735  10.225 -0.2329  0.1087 -0.5864
33879SOL    HW2 5040  10.186   8.743  10.160  0.3815  1.9944  0.8483
33880SOL     OW 5041   7.019   4.194  10.091 -0.2713 -0.1854  0.2010
33880SOL    HW1 5042   7.081   4.154  10.029 -0.3344 -0.0740  0.0660
33880SOL    HW2 5043   7.064   4.272  10.123 -1.0932  0.9864 -1.3599
33881SOL     OW 5044   1.276   8.649   4.024 -0.0561 -0.3807 -0.3817
33881SOL    HW1 5045   1.220   8.666   3.948 -1.5286  0.7754  0.8963
33881SOL    HW2 5046   1.242   8.706   4.093  0.3950 -2.2955  1.5517
33882SOL     OW 5047   0.943   4.222   9.143  0.7882  0.1843 -0.2371
33882SOL    HW1 5048   0.972   4.132   9.154  0.4439  0.2460  1.5243
33882SOL    HW2 5049   0.860   4.227   9.190  1.0681  1.5330  0.1918
33883SOL     OW 5050   6.294   7.268   0.007  0.0505 -0.0596  0.1150
33883SOL    HW1 5051   6.363   7.209   0.038  0.1034 -0.4938 -0.8159
33883SOL    HW2 5052   6.338   7.325  -0.056 -0.5421 -0.6434 -0.8341
33884SOL     OW 5053  10.530   8.958  10.211  0.0981 -0.3143  0.3471
33884SOL    HW1 5054  10.557   8.878  10.167 -0.2492 -0.7195  0.8654
33884SOL    HW2 5055  10.575   9.028  10.163  1.1747 -0.8876  0.4892
33885SOL     OW 5056   6.262   6.490  10.259  0.2281  0.2217 -0.1036
33885SOL    HW1 5057   6.330   6.424  10.275 -2.1908 -3.0358 -2.0111
33885SOL    HW2 5058   6.213   6.496  10.341  0.2421 -0.6839 -0.0236
33886SOL     OW 5059   4.163  10.694   9.600  0.5477 -0.1369 -0.1628
33886SOL    HW1 5060   4.102  10.650   9.661  1.4319 -2.0926 -0.6039
33886SOL    HW2 5061   4.245  10.699   9.648  1.2821 -1.7798 -1.1497
33887SOL     OW 5062   4.879   5.669   7.335 -0.7403 -0.1383  0.3883
33887SOL    HW1 5063   4.847   5.720   7.261 -2.6602 -0.6105  0.8270
33887SOL    HW2 5064   4.872   5.578   7.307 -0.3219 -0.2813  0.7296
33888SOL     OW 5065   0.120   1.943   6.677  0.5174 -0.5236 -0.1367
33888SOL    HW1 5066   0.084   1.923   6.763 -1.0777 -0.0854 -0.6632
33888SOL    HW2 5067   0.142   1.857   6.640  1.2494 -0.7095  0.7037
33889SOL     OW 5068   4.218   5.527   4.299  0.1912  0.2714  0.1047
33889SOL    HW1 5069   4.291   5.579   4.266  0.3721 -1.0396 -1.6954
33889SOL    HW2 5070   4.145   5.549   4.242  0.4494 -1.8748 -1.1537
33890SOL     OW 5071   8.533   1.916   0.645  0.6783  0.3688 -0.0051
33890SOL    HW1 5072   8.536   1.968   0.726  0.1409 -0.1034  0.3233
33890SOL    HW2 5073   8.440   1.913   0.622  0.9681  1.9130 -1.5770
33891SOL     OW 5074   7.005   3.392   1.628  0.6243 -0.1758 -0.1006
33891SOL    HW1 5075   6.978   3.480   1.602  0.6960  0.0632  0.6009
33891SOL    HW2 5076   7.062   3.406   1.703  1.5409 -0.7654 -0.6721
33892SOL     OW 5077   0.249   7.183   4.447 -0.0098  1.0597 -0.3687
33892SOL    HW1 5078   0.215   7.239   4.517  2.1278  0.0418  1.6058
33892SOL    HW2 5079   0.226   7.230   4.367 -2.1113  2.5449  0.9911
33893SOL     OW 5080   2.063   5.342   3.366  0.3322 -0.0287  0.5517
33893SOL    HW1 5081   2.148   5.361   3.326 -0.1206  0.2686 -0.2927
33893SOL    HW2 5082   2.019   5.286   3.301 -1.1302  1.9336 -0.2214
33894SOL     OW 5083   3.196   0.532   0.554  0.7319 -0.1229  0.1043
33894SOL    HW1 5084   3.123   0.561   0.609  0.4543  0.8753 -0.7535
33894SOL    HW2 5085   3.198   0.594   0.482  0.8918 -1.5655 -1.1890
33895SOL     OW 5086   3.191   8.923   5.400  0.4433 -0.1063 -0.5871
33895SOL    HW1 5087   3.184   8.828   5.409  0.2466 -0.1677 -1.3446
33895SOL    HW2 5088   3.103   8.956   5.418  0.8938  0.1053  1.5005
33896SOL     OW 5089   1.875   3.532   5.655  0.6727 -0.3312  0.1067
33896SOL    HW1 5090   1.846   3.543   5.745  0.9546  1.4378  0.0140
33896SOL    HW2 5091   1.795   3.515   5.606  0.2731  0.5693  0.4315
33897SOL     OW 5092   9.438   5.959   2.380 -0.3480  0.0075 -0.2744
33897SOL    HW1 5093   9.421   5.979   2.472 -1.3576 -0.5947 -0.3149
33897SOL    HW2 5094   9.447   5.864   2.378  2.8168  0.2102 -0.3272
33898SOL     OW 5095   4.148   7.213   7.655 -0.0852 -0.4019 -0.0525
33898SOL    HW1 5096   4.151   7.119   7.670  1.0486 -0.4842 -0.6914
33898SOL    HW2 5097   4.239   7.238   7.638  0.0151  1.2413  2.4838
33899SOL     OW 5098   7.540   8.931   1.531 -0.2714 -0.1902 -0.5506
33899SOL    HW1 5099   7.455   8.903   1.497 -0.7727  0.4005  0.2145
33899SOL    HW2 5100   7.572   8.855   1.579 -0.4592 -0.3388 -0.6577
33900SOL     OW 5101   5.281  10.252   9.701  0.3057 -0.6906  0.0662
33900SOL    HW1 5102   5.233  10.169   9.694  1.6277 -1.3879 -1.1884
33900SOL    HW2 5103   5.368  10.233   9.667  1.0760  0.8952  1.0204
33901SOL     OW 5104   1.767   7.332   8.354 -0.7445  0.4827  0.0145
33901SOL    HW1 5105   1.674   7.348   8.337 -0.8554 -0.3240 -0.1979
33901SOL    HW2 5106   1.782   7.369   8.441 -1.1942  0.8753 -0.0666
33902SOL     OW 5107   7.668   4.137  10.212  0.3801 -0.1836  0.6083
33902SOL    HW1 5108   7.622   4.053  10.215 -0.5063  0.2019 -0.9230
33902SOL    HW2 5109   7.694   4.154  10.303  1.3483 -2.4914  0.8222
33903SOL     OW 5110  10.626   5.605   3.815  0.8898  0.7176 -0.5168
33903SOL    HW1 5111  10.569   5.640   3.747  2.1632  2.4614 -0.7670
33903SOL    HW2 5112  10.629   5.675   3.881  0.7309 -0.3987  0.7183
33904SOL     OW 5113   5.906   2.516   3.213  0.0192  0.5302  0.3649
33904SOL    HW1 5114   5.979   2.465   3.251  0.4791 -1.4056 -2.7214
33904SOL    HW2 5115   5.841   2.450   3.189 -1.0971  1.8456 -0.3723
33905SOL     OW 5116  10.845   9.342   8.409  0.2698 -0.2444 -0.1449
33905SOL    HW1 5117  10.916   9.400   8.382 -0.5122  0.6496 -0.3102
33905SOL    HW2 5118  10.852   9.339   8.505 -0.5478  1.2907 -0.0017
33906SOL     OW 5119   3.360   9.558   0.246 -0.5079  0.9212 -0.1049
33906SOL    HW1 5120   3.415   9.511   0.308 -0.2717 -0.5850 -1.3880
33906SOL    HW2 5121   3.272   9.556   0.285 -0.4959 -0.6013 -0.1095
33907SOL     OW 5122   4.201   6.012   2.125  0.0469 -0.0100 -0.0425
33907SOL    HW1 5123   4.213   5.935   2.070  1.2881 -0.2024  0.4558
33907SOL    HW2 5124   4.195   6.085   2.064  1.8487 -0.1686 -0.4612
33908SOL     OW 5125   4.343   4.038   2.314 -0.5346  0.0260 -0.2891
33908SOL    HW1 5126   4.296   4.081   2.386  0.7009  0.2157  0.4434
33908SOL    HW2 5127   4.375   3.956   2.352 -1.9880 -1.0965 -1.3755
33909SOL     OW 5128   8.748   3.716   9.327 -0.3468 -0.1166  0.0336
33909SOL    HW1 5129   8.711   3.663   9.398 -1.8741  1.0514  0.1581
33909SOL    HW2 5130   8.788   3.791   9.371 -0.5006  0.1548 -0.2876
33910SOL     OW 5131   9.491   2.914   5.523  0.7300 -0.5525 -0.0482
33910SOL    HW1 5132   9.462   2.867   5.445  0.7367 -1.4283  0.4616
33910SOL    HW2 5133   9.414   2.914   5.580  0.8826 -0.3831  0.1595
33911SOL     OW 5134   1.609  10.035   6.066  0.3580  0.6824  0.2089
33911SOL    HW1 5135   1.615   9.940   6.066  0.4182  0.6630  1.6645
33911SOL    HW2 5136   1.603  10.059   5.973  0.6240 -0.7078 -0.1873
33912SOL     OW 5137   9.855   7.297   1.052 -0.1906  0.7358 -0.2630
33912SOL    HW1 5138   9.912   7.254   1.115  1.2689  1.0925 -1.2949
33912SOL    HW2 5139   9.811   7.225   1.006  1.7457  0.3167 -1.5417
33913SOL     OW 5140   1.431   3.332   6.744 -0.2138 -0.0578  0.2839
33913SOL    HW1 5141   1.341   3.311   6.719 -0.5665 -1.0114  2.1231
33913SOL    HW2 5142   1.481   3.254   6.720  0.4739  1.0137 -2.0693
33914SOL     OW 5143   5.491  10.006   5.052 -0.0324  0.2181 -0.9165
33914SOL    HW1 5144   5.498   9.913   5.029 -0.2992 -0.2380  0.7039
33914SOL    HW2 5145   5.522  10.052   4.975  1.5895 -1.2609 -1.2295
33915SOL     OW 5146   1.345   8.246  10.210  1.0034  0.4822  0.2915
33915SOL    HW1 5147   1.292   8.185  10.260  1.9243 -1.2268 -0.6927
33915SOL    HW2 5148   1.432   8.239  10.249  1.6592 -0.6423 -1.2445
33916SOL     OW 5149  10.048   5.013   2.917 -0.1477  0.2014  0.1458
33916SOL    HW1 5150  10.039   5.099   2.958 -0.0808 -0.2290  1.1001
33916SOL    HW2 5151  10.015   4.952   2.983  0.3142 -0.5453 -0.3014
33917SOL     OW 5152   9.548   3.801   1.249 -0.0743 -0.1126 -0.6667
33917SOL    HW1 5153   9.613   3.731   1.245  0.3078  0.1730  0.3346
33917SOL    HW2 5154   9.515   3.799   1.339 -0.2449  0.8332 -0.6985
33918SOL     OW 5155   3.524   8.493   7.361  0.7625 -0.4723 -0.3942
33918SOL    HW1 5156   3.437   8.495   7.322  0.6648  1.3224 -0.1680
33918SOL    HW2 5157   3.513   8.537   7.445  1.4432 -2.2643  0.6959
33919SOL     OW 5158  10.762   0.189  10.387 -0.1172 -0.6319  0.1947
33919SOL    HW1 5159  10.758   0.261  10.450  1.5073 -1.6749  1.6236
33919SOL    HW2 5160  10.725   0.224  10.306 -1.6298  0.9969  1.5235
33920SOL     OW 5161  10.225   1.518   1.001 -0.1966  0.0817  0.7237
33920SOL    HW1 5162  10.135   1.543   1.023  0.1746  0.2589  2.1500
33920SOL    HW2 5163  10.246   1.568   0.922 -1.2379  0.2898  0.5717
33921SOL     OW 5164   7.357  10.697   8.026 -0.4099  0.5623  0.3819
33921SOL    HW1 5165   7.424  10.749   7.981 -0.5218  0.4454  0.0747
33921SOL    HW2 5166   7.379  10.704   8.119 -0.6960  1.5391  0.3787
33922SOL     OW 5167   7.504  10.115   2.341 -0.0046  0.9757 -0.4685
33922SOL    HW1 5168   7.466  10.032   2.311  0.1779  1.0396 -0.8726
33922SOL    HW2 5169   7.450  10.183   2.301 -0.6590  1.0521  0.5149
33923SOL     OW 5170   3.426   0.760  10.609  0.5933 -0.0444 -0.3371
33923SOL    HW1 5171   3.499   0.819  10.628 -0.9563  1.9288 -0.2373
33923SOL    HW2 5172   3.409   0.715  10.692  1.2790 -0.0650 -0.1988
33924SOL     OW 5173   4.788   7.324   3.087  0.3875  0.0812  0.4558
33924SOL    HW1 5174   4.762   7.358   3.001  0.4123  0.1077  0.4586
33924SOL    HW2 5175   4.723   7.359   3.147 -0.2375 -0.7774  0.3016
33925SOL     OW 5176   2.464   2.554   9.360 -0.1229 -0.0823 -0.1526
33925SOL    HW1 5177   2.526   2.506   9.416 -1.3304 -0.0945  1.2426
33925SOL    HW2 5178   2.497   2.540   9.271  0.7048 -1.8159  0.3633
33926SOL     OW 5179   4.159   5.463   6.784  1.1418  1.1527  0.1965
33926SOL    HW1 5180   4.064   5.459   6.775  1.0438 -0.6805  1.3706
33926SOL    HW2 5181   4.192   5.472   6.695 -0.0575 -1.4966 -0.6126
33927SOL     OW 5182   2.899   6.522   8.384 -0.3229 -0.3843  0.3022
33927SOL    HW1 5183   2.813   6.533   8.425  0.0346 -1.5001  1.3902
33927SOL    HW2 5184   2.961   6.524   8.456  0.6523  0.9601 -0.5208
33928SOL     OW 5185   8.743   6.558  10.262  0.0102 -0.1380  0.2740
33928SOL    HW1 5186   8.797   6.487  10.296  3.4397  1.9286 -0.4087
33928SOL    HW2 5187   8.781   6.637  10.300 -0.4843  1.7181 -2.7672
33929SOL     OW 5188   7.298   0.809   2.383 -0.1765 -0.5627 -0.0061
33929SOL    HW1 5189   7.375   0.799   2.326 -1.1167 -1.3804 -1.1686
33929SOL    HW2 5190   7.303   0.734   2.443 -0.3592 -0.9253 -0.4400
33930SOL     OW 5191   8.469   2.794   5.740  0.1977 -0.5044  0.3049
33930SOL    HW1 5192   8.401   2.824   5.800 -0.7968  0.8051 -1.3688
33930SOL    HW2 5193   8.421   2.773   5.659  1.8001  0.8204 -1.0587
33931SOL     OW 5194   6.533   1.239   5.896 -0.4205  0.6321  0.2017
33931SOL    HW1 5195   6.605   1.276   5.845 -1.5599  2.3233 -0.2525
33931SOL    HW2 5196   6.476   1.198   5.830 -0.0222 -0.4900  0.5345
33932SOL     OW 5197  10.646   2.643   7.140 -0.7428  0.4364  0.3789
33932SOL    HW1 5198  10.662   2.643   7.046 -2.5653 -0.7677  0.0113
33932SOL    HW2 5199  10.560   2.685   7.150  1.2286  4.6476  1.9897
33933SOL     OW 5200   5.932   4.883   2.094 -0.4699  0.2511  0.8235
33933SOL    HW1 5201   5.860   4.937   2.063  1.0747  1.7365 -0.3325
33933SOL    HW2 5202   5.935   4.897   2.189 -0.2193  2.0935  0.5681
33934SOL     OW 5203  10.664   9.280   7.139  0.1201  0.0669 -0.2149
33934SOL    HW1 5204  10.590   9.321   7.184 -0.5660  0.1415 -1.3721
33934SOL    HW2 5205  10.629   9.254   7.054  1.2570 -0.5105 -0.5260
33935SOL     OW 5206   0.944   2.597   7.852 -0.4558 -0.3704 -0.0265
33935SOL    HW1 5207   1.007   2.660   7.816  0.8922 -1.1801  0.8088
33935SOL    HW2 5208   0.898   2.646   7.920 -0.2032  0.0277 -0.1383
33936SOL     OW 5209   4.288  10.558   2.162  0.6146  0.5411  1.0607
33936SOL    HW1 5210   4.248  10.586   2.079  0.0248 -0.3147  1.0388
33936SOL    HW2 5211   4.254  10.619   2.227 -1.0015 -0.3479  1.0887
33937SOL     OW 5212   7.882   7.733   0.325  0.2669  0.4000 -0.0835
33937SOL    HW1 5213   7.922   7.653   0.289  1.1644  0.7324  0.1604
33937SOL    HW2 5214   7.790   7.709   0.339  0.6403 -0.7804  0.5144
33938SOL     OW 5215   8.702   2.386   9.296  0.2930  0.2003  0.2288
33938SOL    HW1 5216   8.738   2.370   9.383  3.2687 -2.3330 -1.2885
33938SOL    HW2 5217   8.607   2.381   9.308  0.6449 -2.2030  2.9855
33939SOL     OW 5218   4.466   5.142   1.521  0.0807 -0.9965 -0.0245
33939SOL    HW1 5219   4.405   5.068   1.520 -1.9676  0.5664  1.3575
33939SOL    HW2 5220   4.467   5.171   1.612  0.3965  1.0101 -0.6227
33940SOL     OW 5221  10.124  10.093   5.753  0.1033 -0.0813 -0.5579
33940SOL    HW1 5222  10.186  10.158   5.721  1.2512 -0.5836  0.5594
33940SOL    HW2 5223  10.038  10.125   5.725  0.8546  0.6438 -2.0942
33941SOL     OW 5224   6.604   3.635   2.771  0.3233 -0.0184 -0.6723
33941SOL    HW1 5225   6.530   3.669   2.721 -0.9289  0.2893  1.2735
33941SOL    HW2 5226   6.590   3.540   2.774  0.4365 -0.0442 -0.9545
33942SOL     OW 5227   3.608  10.086   4.663 -0.7974 -0.6211 -0.1941
33942SOL    HW1 5228   3.567  10.159   4.709 -2.0173 -0.8038 -0.9379
33942SOL    HW2 5229   3.536  10.043   4.617  0.2674 -0.7548 -1.8424
33943SOL     OW 5230   2.986   5.973   1.020  0.3929 -0.5744 -0.2686
33943SOL    HW1 5231   2.962   5.914   0.948  0.0880 -0.2664 -0.4223
33943SOL    HW2 5232   3.006   5.915   1.093 -0.8902 -0.8458 -0.1154
33944SOL     OW 5233   1.955  10.593   4.355 -0.2638  0.0515 -0.3192
33944SOL    HW1 5234   2.020  10.540   4.309 -0.7748 -0.2624 -0.6751
33944SOL    HW2 5235   1.933  10.542   4.433  0.7806  0.6919  0.4212
33945SOL     OW 5236   4.559   3.124   8.304 -0.5322 -0.1612  0.4094
33945SOL    HW1 5237   4.614   3.047   8.322 -1.3969 -1.4298 -1.9789
33945SOL    HW2 5238   4.471   3.096   8.327 -1.0255 -0.3483 -1.5834
33946SOL     OW 5239  10.347  10.477   1.990 -0.0862 -0.4456  0.1532
33946SOL    HW1 5240  10.359  10.383   1.977  1.8204 -0.3225  0.6700
33946SOL    HW2 5241  10.288  10.484   2.065 -1.2680 -1.2005 -0.6829
33947SOL     OW 5242   7.773   2.145   1.620  0.4767 -0.7492  0.3667
33947SOL    HW1 5243   7.734   2.180   1.539 -0.7749 -1.2267  0.7437
33947SOL    HW2 5244   7.769   2.050   1.609 -1.6274 -0.9001  1.8142
33948SOL     OW 5245   9.003   2.599   9.452 -0.4536 -0.0492  0.0981
33948SOL    HW1 5246   8.966   2.672   9.502 -1.2787  0.0047 -0.5712
33948SOL    HW2 5247   8.992   2.522   9.509 -0.2986  0.2072  0.4783
33949SOL     OW 5248   2.266   8.940   1.686  0.3622  0.1934  0.3035
33949SOL    HW1 5249   2.199   8.889   1.640  0.9059  0.5580 -0.9422
33949SOL    HW2 5250   2.293   8.883   1.759 -1.7178  0.2996  1.2385
33950SOL     OW 5251   7.556   0.387   3.251 -0.2324  0.3092  0.4055
33950SOL    HW1 5252   7.481   0.330   3.233 -0.5939  0.4678  1.3744
33950SOL    HW2 5253   7.632   0.335   3.224 -0.7084  0.4258 -1.2746
33951SOL     OW 5254  10.036   0.185   5.240 -0.1865  0.3794  0.0714
33951SOL    HW1 5255  10.102   0.126   5.203  0.8570  1.6624 -0.1937
33951SOL    HW2 5256  10.034   0.260   5.181 -2.5791 -0.0017 -0.4295
33952SOL     OW 5257   8.989   3.233  10.404 -0.4081  0.4758  0.0210
33952SOL    HW1 5258   9.020   3.192  10.484  0.6995  1.7517  0.2807
33952SOL    HW2 5259   9.002   3.327  10.418 -4.1494  1.1677  0.0566
33953SOL     OW 5260   1.335   6.017  10.445  0.1744  0.0147 -0.1622
33953SOL    HW1 5261   1.416   6.023  10.494  1.5969  0.7716 -2.4520
33953SOL    HW2 5262   1.266   6.034  10.510  1.7917 -0.7043  1.8402
33954SOL     OW 5263   1.071  10.826   4.119  0.4244  0.2272  0.2002
33954SOL    HW1 5264   1.142  10.869   4.071  0.2784 -0.3255 -0.5083
33954SOL    HW2 5265   1.026  10.898   4.163 -0.9313  1.0787 -2.3935
33955SOL     OW 5266   8.318   0.239   3.864 -0.4437  0.3157 -0.3885
33955SOL    HW1 5267   8.264   0.316   3.886 -0.4742  0.2756 -0.3252
33955SOL    HW2 5268   8.318   0.238   3.768  0.5288  1.0863 -0.4178
33956SOL     OW 5269   2.960   5.294   8.508 -0.4984 -0.7886 -0.0716
33956SOL    HW1 5270   2.867   5.318   8.501 -0.0426  1.6857  1.3422
33956SOL    HW2 5271   3.002   5.339   8.435 -0.3487 -1.7665 -0.6082
33957SOL     OW 5272   9.931   1.534   1.148 -0.7575  0.2443 -0.0029
33957SOL    HW1 5273   9.883   1.494   1.076 -1.2362  1.5781 -0.4563
33957SOL    HW2 5274   9.948   1.461   1.209  0.8809 -1.1981 -2.0358
33958SOL     OW 5275   9.705   6.387   9.751 -0.1934  0.2471 -0.2436
33958SOL    HW1 5276   9.727   6.478   9.732 -0.1805  0.0612 -1.1411
33958SOL    HW2 5277   9.774   6.358   9.810 -0.1936  0.8100  0.0433
33959SOL     OW 5278  10.323   2.551   6.979  0.6051 -0.2148  0.7653
33959SOL    HW1 5279  10.260   2.548   7.051  1.2207 -1.1626  1.2910
33959SOL    HW2 5280  10.280   2.603   6.911 -0.2887  0.0754  1.5306
33960SOL     OW 5281   4.452   0.000   7.141  0.6803  0.2126  0.1497
33960SOL    HW1 5282   4.437   0.036   7.229 -0.8223  4.2642 -1.5379
33960SOL    HW2 5283   4.367   0.007   7.098  0.0442 -6.1346 -0.4812
33961SOL     OW 5284   9.800   0.184   7.531  0.1667  0.2534  0.0549
33961SOL    HW1 5285   9.877   0.168   7.477  0.1978  0.9026 -0.0973
33961SOL    HW2 5286   9.830   0.244   7.599 -0.0811  0.0973  0.3095
33962SOL     OW 5287   9.533   7.958   6.091 -0.0754  0.4967  0.1028
33962SOL    HW1 5288   9.512   7.870   6.062 -3.3598 -0.1075  3.4281
33962SOL    HW2 5289   9.504   8.015   6.019  1.0010 -1.0331 -1.6033
33963SOL     OW 5290   2.571   6.978   1.546  0.2125 -0.0977 -0.6017
33963SOL    HW1 5291   2.514   7.031   1.489  0.2453 -0.0402 -0.5813
33963SOL    HW2 5292   2.512   6.914   1.586 -0.1766  1.1009  0.8089
33964SOL     OW 5293   6.223   1.060   0.500  0.5214 -0.2933  0.6125
33964SOL    HW1 5294   6.204   0.992   0.436  2.1668 -0.9590  0.7905
33964SOL    HW2 5295   6.257   1.133   0.447 -0.1208 -0.0392  0.5397
33965SOL     OW 5296   3.128   3.195   1.256 -0.9574 -0.2245 -0.6689
33965SOL    HW1 5297   3.098   3.111   1.290  0.4510 -0.2076  0.7097
33965SOL    HW2 5298   3.211   3.175   1.213  0.5931  0.7466  1.6858
33966SOL     OW 5299   4.482   5.627   0.851  0.1775 -0.4493 -0.2378
33966SOL    HW1 5300   4.419   5.626   0.924 -0.7420  1.4217 -0.9395
33966SOL    HW2 5301   4.456   5.703   0.799 -0.0923 -2.5285 -3.3473
33967SOL     OW 5302   8.340   4.698   1.353  0.3176 -0.1886  0.0717
33967SOL    HW1 5303   8.379   4.766   1.409 -0.1564 -0.1697  0.3896
33967SOL    HW2 5304   8.257   4.736   1.325 -0.1894 -0.8264  0.6645
33968SOL     OW 5305   1.598   3.536   5.528 -0.2175 -0.4466 -0.2213
33968SOL    HW1 5306   1.561   3.584   5.602  1.7330  1.1145 -0.1761
33968SOL    HW2 5307   1.570   3.585   5.450  1.4647  0.6584 -0.1944
33969SOL     OW 5308   1.533   2.616   1.053 -0.0186 -0.5307 -0.2065
33969SOL    HW1 5309   1.507   2.545   0.994 -0.2900 -1.0152  0.4784
33969SOL    HW2 5310   1.463   2.682   1.044  0.4126 -0.1803 -1.1045
33970SOL     OW 5311   8.768   9.971   7.198  0.2282 -0.1543 -0.2914
33970SOL    HW1 5312   8.717   9.956   7.278  1.1881  1.1010  0.5933
33970SOL    HW2 5313   8.857   9.988   7.229  0.6474  0.2524 -1.6428
33971SOL     OW 5314   0.494   2.266  10.820 -0.0318  0.8837  0.3482
33971SOL    HW1 5315   0.560   2.326  10.784 -0.1751  1.2495  0.6895
33971SOL    HW2 5316   0.426   2.263  10.752  0.7093 -0.1630 -0.3925
33972SOL     OW 5317   6.739   0.415   9.071 -0.3667  0.2685  0.3887
33972SOL    HW1 5318   6.658   0.456   9.101 -0.4127  1.3164 -1.0447
33972SOL    HW2 5319   6.736   0.326   9.106 -1.6983  0.5734  1.1078
33973SOL     OW 5320   6.601   9.343   3.942 -0.0169  0.2255  0.3585
33973SOL    HW1 5321   6.606   9.256   3.980 -0.0164 -0.1458 -0.4755
33973SOL    HW2 5322   6.515   9.346   3.900  0.2349  0.3895 -0.1615
33974SOL     OW 5323   1.309   2.477   0.938 -0.6272  0.3050 -0.5891
33974SOL    HW1 5324   1.301   2.384   0.915 -2.8068 -0.0514  1.2221
33974SOL    HW2 5325   1.302   2.523   0.855 -0.8863 -1.1043 -1.3878
33975SOL     OW 5326   9.386   6.900   1.402  0.0185  0.0463 -0.4437
33975SOL    HW1 5327   9.471   6.908   1.443 -0.3927  1.7341  0.1455
33975SOL    HW2 5328   9.324   6.931   1.468 -0.8511  0.7698 -1.5560
33976SOL     OW 5329   3.921   4.624   5.158 -0.2256 -0.2161 -0.0377
33976SOL    HW1 5330   3.932   4.559   5.089  0.8607  0.2884 -0.3612
33976SOL    HW2 5331   3.832   4.610   5.190  0.0886 -2.1240  0.1679
33977SOL     OW 5332   0.001   2.833   8.981 -0.1476 -0.4385 -0.5245
33977SOL    HW1 5333  -0.070   2.788   8.936 -1.4759  2.5966 -1.7860
33977SOL    HW2 5334   0.054   2.871   8.910  1.2474 -0.5009  0.4392
33978SOL     OW 5335   0.993   7.873   9.169 -0.6153  0.2588  0.1026
33978SOL    HW1 5336   0.950   7.931   9.107 -2.0354  0.6514  1.4130
33978SOL    HW2 5337   1.064   7.833   9.118 -1.3261  1.0361 -1.5842
33979SOL     OW 5338   9.311  10.861   6.914 -0.2076 -0.6222  0.0984
33979SOL    HW1 5339   9.251  10.839   6.985 -0.0847 -0.8131  0.1444
33979SOL    HW2 5340   9.375  10.790   6.914 -1.4760 -1.8597 -1.6289
33980SOL     OW 5341   7.972   8.847   2.216 -0.5976  0.0437 -0.2625
33980SOL    HW1 5342   7.984   8.793   2.294  0.7527  1.3463  0.4843
33980SOL    HW2 5343   7.877   8.846   2.200 -0.7632 -1.1920  0.6845
33981SOL     OW 5344   9.534   7.681   0.582  0.2658 -0.5200  0.3358
33981SOL    HW1 5345   9.609   7.669   0.524 -0.4213  0.8338 -0.9121
33981SOL    HW2 5346   9.509   7.773   0.570 -1.4273 -0.8691  0.9047
33982SOL     OW 5347   8.580   4.261   2.887 -0.0150 -0.3582  0.1289
33982SOL    HW1 5348   8.649   4.200   2.912 -0.1373  0.1372  1.7948
33982SOL    HW2 5349   8.518   4.258   2.960 -1.6223 -0.5636 -1.1868
33983SOL     OW 5350   9.294   7.799  10.490 -0.4296 -0.2788 -0.1618
33983SOL    HW1 5351   9.364   7.735  10.492 -0.2411 -0.0621  0.5619
33983SOL    HW2 5352   9.222   7.755  10.445  0.3829 -0.2685 -1.4937
33984SOL     OW 5353   2.929   9.609   5.969  0.0336 -0.6477 -0.3359
33984SOL    HW1 5354   2.880   9.597   5.887 -0.3902 -0.6745 -0.0852
33984SOL    HW2 5355   3.015   9.572   5.951  0.1656 -0.0557 -0.9839
33985SOL     OW 5356   0.286   6.879   2.056  0.0385  0.5859 -0.4751
33985SOL    HW1 5357   0.325   6.878   2.144 -1.0867  2.1357  0.0912
33985SOL    HW2 5358   0.324   6.957   2.014  0.6360 -0.1928 -1.4170
33986SOL     OW 5359   4.675   4.213   0.181 -0.0213  0.3148 -0.3538
33986SOL    HW1 5360   4.753   4.158   0.178 -0.4017 -0.2319 -0.5870
33986SOL    HW2 5361   4.673   4.257   0.096 -0.1484  0.0664 -0.4801
33987SOL     OW 5362   4.637   1.805   3.292 -0.5879 -0.5392  0.1771
33987SOL    HW1 5363   4.700   1.749   3.247 -0.6276 -1.5784  1.3684
33987SOL    HW2 5364   4.670   1.894   3.279  0.8347 -1.0251  0.3070
33988SOL     OW 5365   6.239   9.762   6.076  0.2971  0.2512 -0.4525
33988SOL    HW1 5366   6.229   9.719   6.161  3.0135 -0.9574 -0.6519
33988SOL    HW2 5367   6.216   9.854   6.093  2.8711  0.5396  2.2074
33989SOL     OW 5368   0.154   0.392   1.786  0.4167 -0.3536 -0.3722
33989SOL    HW1 5369   0.102   0.470   1.767  2.4021  0.7594 -1.5929
33989SOL    HW2 5370   0.117   0.324   1.730 -0.2023  0.1924 -0.6367
33990SOL     OW 5371   0.451   3.989   0.773 -0.1415 -0.4257 -0.6878
33990SOL    HW1 5372   0.546   3.979   0.770 -0.1595 -1.0320  0.3324
33990SOL    HW2 5373   0.435   4.078   0.740  1.1393  1.4180  3.1382
33991SOL     OW 5374  10.396  10.501   7.285 -0.6016 -0.1369 -0.0338
33991SOL    HW1 5375  10.372  10.460   7.201  0.1253 -0.3631 -0.1363
33991SOL    HW2 5376  10.371  10.436   7.351 -0.3929 -0.3152 -0.1293
33992SOL     OW 5377   9.438  10.494   0.819 -0.4637  0.3462  0.1305
33992SOL    HW1 5378   9.441  10.533   0.731 -0.0115 -0.1293 -0.0717
33992SOL    HW2 5379   9.511  10.433   0.820 -0.9375 -0.2246  0.5724
33993SOL     OW 5380   3.150   2.175   8.971 -0.5837 -0.2583  0.0491
33993SOL    HW1 5381   3.144   2.217   9.057  1.0702 -0.8674  0.5021
33993SOL    HW2 5382   3.128   2.083   8.988  0.0076 -0.4329 -0.1315
33994SOL     OW 5383   2.505   3.538   2.368  0.1000  0.6527 -0.6256
33994SOL    HW1 5384   2.556   3.619   2.368 -0.2202  0.8638  0.0367
33994SOL    HW2 5385   2.562   3.475   2.413  0.2251  0.5919 -0.8692
33995SOL     OW 5386   5.276  10.773   6.504 -0.8274 -0.4433  0.1234
33995SOL    HW1 5387   5.341  10.762   6.435 -1.6343 -0.1197 -0.7039
33995SOL    HW2 5388   5.287  10.864   6.532 -0.8497 -0.4242  0.0692
33996SOL     OW 5389   2.180   8.316   9.068 -0.6046  0.1440  0.1213
33996SOL    HW1 5390   2.172   8.411   9.084  2.1054  0.6595 -0.9683
33996SOL    HW2 5391   2.148   8.276   9.149  0.0897  2.1088  1.4698
33997SOL     OW 5392   2.648   8.834   9.713 -0.1910  0.5575  0.2596
33997SOL    HW1 5393   2.568   8.804   9.670 -0.3151 -0.0349  0.8861
33997SOL    HW2 5394   2.630   8.925   9.737  0.5788  1.5908 -2.6288
33998SOL     OW 5395   8.467   3.902   4.256  0.2018  0.0957 -0.1873
33998SOL    HW1 5396   8.378   3.936   4.260  0.7075  1.3900  0.5448
33998SOL    HW2 5397   8.465   3.824   4.312  0.0243  1.3320  1.5969
33999SOL     OW 5398   8.158   1.179   9.428 -0.0760  0.6191  0.2365
33999SOL    HW1 5399   8.223   1.226   9.479 -0.1337  0.7822  0.1631
33999SOL    HW2 5400   8.090   1.244   9.410  0.4704  0.8896 -1.0014
34000SOL     OW 5401   9.070   4.479   0.734  0.2990 -0.0412 -0.0261
34000SOL    HW1 5402   9.130   4.446   0.667  0.0977  0.2195 -0.3387
34000SOL    HW2 5403   9.123   4.480   0.814  0.6044 -0.1598 -0.2215
34001SOL     OW 5404   1.271   4.220   8.676  0.2940  0.2506  0.0183
34001SOL    HW1 5405   1.212   4.162   8.627 -0.8935  1.8427 -0.5068
34001SOL    HW2 5406   1.359   4.191   8.651 -0.2642 -0.9927 -0.5962
34002SOL     OW 5407   7.820   5.438   2.421  0.4051  0.2638 -0.3082
34002SOL    HW1 5408   7.870   5.368   2.380  0.3709 -1.2102  2.0131
34002SOL    HW2 5409   7.729   5.417   2.402  0.4576  0.6604 -1.0471
34003SOL     OW 5410   8.466   0.577   9.626  0.0945 -0.1609  0.0559
34003SOL    HW1 5411   8.545   0.526   9.643 -0.4740 -0.8777  0.6035
34003SOL    HW2 5412   8.395   0.515   9.638 -0.4889 -0.1113 -2.6254
34004SOL     OW 5413   2.980   4.284   8.059  0.3843  0.2580  0.2838
34004SOL    HW1 5414   3.021   4.197   8.052  1.4806  0.7146  0.7050
34004SOL    HW2 5415   2.931   4.281   8.141 -0.4575 -0.2947 -0.2235
34005SOL     OW 5416   1.101   8.505   6.974 -0.0080  0.5613 -0.3889
34005SOL    HW1 5417   1.150   8.521   6.893 -1.8713  1.8040 -1.3392
34005SOL    HW2 5418   1.112   8.411   6.990  0.6981  0.3570 -1.8804
34006SOL     OW 5419   9.644   8.466   8.727 -0.3333 -0.2840  0.1109
34006SOL    HW1 5420   9.733   8.462   8.693 -0.6522 -0.3919 -0.7494
34006SOL    HW2 5421   9.639   8.397   8.793  0.7873  0.9885  1.5980
34007SOL     OW 5422   0.091   0.623   1.380  0.3241 -0.3441 -0.1028
34007SOL    HW1 5423   0.008   0.576   1.373  0.6335 -1.2350  1.5203
34007SOL    HW2 5424   0.067   0.706   1.421  0.1863 -0.5365  0.2212
34008SOL     OW 5425   6.915   2.691   7.513  0.2037 -0.2480 -0.3906
34008SOL    HW1 5426   6.929   2.598   7.501  0.3289 -0.4419  1.1147
34008SOL    HW2 5427   6.883   2.722   7.428  1.4862 -1.3805 -1.3187
34009SOL     OW 5428   7.739   6.195   5.347 -0.2362 -0.5240  0.6386
34009SOL    HW1 5429   7.681   6.262   5.384  0.1105  0.7527 -0.9831
34009SOL    HW2 5430   7.819   6.202   5.398  0.1391  1.0048 -0.0916
34010SOL     OW 5431   4.006   6.028   2.324  0.3735 -0.4198  0.0796
34010SOL    HW1 5432   3.966   5.946   2.351  1.2641 -0.9201 -0.0782
34010SOL    HW2 5433   4.052   6.008   2.243 -2.3198  1.0799 -1.9973
34011SOL     OW 5434   8.012  10.664   0.684 -0.0403 -0.1051  0.1409
34011SOL    HW1 5435   8.003  10.724   0.610 -0.0168  0.0490  0.2635
34011SOL    HW2 5436   7.999  10.718   0.761 -1.4659 -0.5224  0.2214
34012SOL     OW 5437   4.795   0.858   4.354  0.2697  0.0584  0.2099
34012SOL    HW1 5438   4.709   0.854   4.312 -0.3874 -0.1319  1.5187
34012SOL    HW2 5439   4.796   0.942   4.400  1.2235  0.5472 -0.6603
34013SOL     OW 5440   5.338   2.075   3.683 -0.4099  0.2466 -0.2828
34013SOL    HW1 5441   5.259   2.122   3.657 -1.0332 -1.1626 -1.0261
34013SOL    HW2 5442   5.407   2.113   3.629 -0.6032  1.3200  0.1988
34014SOL     OW 5443   4.731   8.958   2.668 -0.0775 -0.3341  0.2216
34014SOL    HW1 5444   4.682   9.000   2.597  0.6992  1.2328  0.5611
34014SOL    HW2 5445   4.778   8.886   2.625  0.4368  0.6325 -0.8947
34015SOL     OW 5446   6.126   8.507   3.816 -0.7938  0.0628 -0.4507
34015SOL    HW1 5447   6.116   8.591   3.772  0.2258  0.7571  0.5823
34015SOL    HW2 5448   6.217   8.483   3.801  0.3829  1.5752  3.2900
34016SOL     OW 5449   0.416   3.057   5.932  0.5086 -0.6243 -0.1440
34016SOL    HW1 5450   0.358   3.054   6.008 -0.4570  1.7231 -0.7189
34016SOL    HW2 5451   0.462   2.973   5.934 -1.1491 -1.5661  1.7076
34017SOL     OW 5452   5.974   6.992   3.565  0.0172  0.2861 -0.5377
34017SOL    HW1 5453   6.059   7.027   3.539  0.9727 -1.4799  0.1048
34017SOL    HW2 5454   5.993   6.927   3.632 -1.6732 -1.3003 -1.4856
34018SOL     OW 5455   8.494   9.192   8.661  0.0522 -0.1672  0.1383
34018SOL    HW1 5456   8.398   9.196   8.669 -0.1341 -2.1134 -0.6528
34018SOL    HW2 5457   8.525   9.181   8.751 -0.4753  0.3827  0.3920
34019SOL     OW 5458   5.094   2.166  10.787  0.1557 -0.1590  0.0327
34019SOL    HW1 5459   5.153   2.128  10.852 -2.3188 -0.5539  2.2040
34019SOL    HW2 5460   5.085   2.098  10.720  0.5815 -0.8946  0.7055
34020SOL     OW 5461   9.697   0.708   9.798 -0.2822 -0.4708 -0.0824
34020SOL    HW1 5462   9.674   0.630   9.849 -1.2211 -0.8836 -1.1079
34020SOL    HW2 5463   9.621   0.765   9.805  0.1623  0.1028  0.1621
34021SOL     OW 5464  10.515   8.272   4.094  0.2230  0.0582 -0.4024
34021SOL    HW1 5465  10.472   8.211   4.035  2.9451  0.1019 -2.6385
34021SOL    HW2 5466  10.463   8.352   4.087 -0.6471 -0.5413 -1.1725
34022SOL     OW 5467   3.340   0.782  10.331  0.1505 -0.1688  0.4260
34022SOL    HW1 5468   3.397   0.854  10.303  0.6615 -0.4237  0.7793
34022SOL    HW2 5469   3.367   0.764  10.422 -0.4619 -0.3279  0.5820
34023SOL     OW 5470   0.573   9.805   9.196 -0.2055 -0.0821 -0.0134
34023SOL    HW1 5471   0.644   9.869   9.199 -0.3015  0.0286 -0.1333
34023SOL    HW2 5472   0.615   9.723   9.225 -0.4497  0.3569  1.6893
34024SOL     OW 5473   1.788   7.160   5.726  0.2294  0.0435  0.1006
34024SOL    HW1 5474   1.759   7.072   5.701 -0.9064  0.5199 -0.3706
34024SOL    HW2 5475   1.882   7.160   5.710  0.1893 -0.9747 -0.2228
34025SOL     OW 5476   7.403   1.494   0.071  0.1624 -0.7489 -0.0028
34025SOL    HW1 5477   7.405   1.573   0.124 -1.6969 -0.3353 -0.4927
34025SOL    HW2 5478   7.430   1.523  -0.016  2.9995 -1.3874  0.5521
34026SOL     OW 5479   4.942   9.889   1.771  0.7780  0.1076  0.1341
34026SOL    HW1 5480   4.963   9.883   1.678  2.6140  0.6986  0.4582
34026SOL    HW2 5481   5.023   9.863   1.816  0.8803  2.4817  1.5319
34027SOL     OW 5482  10.304   8.940   6.109  0.6612 -0.2628  0.1977
34027SOL    HW1 5483  10.228   8.933   6.167  1.7835  0.4450  1.8267
34027SOL    HW2 5484  10.356   8.862   6.128 -0.0185 -1.1899 -1.5286
34028SOL     OW 5485   8.506   8.458   2.017 -0.0638 -0.2016 -0.0054
34028SOL    HW1 5486   8.492   8.476   2.110 -0.8940 -0.3640 -0.0927
34028SOL    HW2 5487   8.574   8.520   1.990 -0.9025  0.8899  0.3512
34029SOL     OW 5488   5.674   7.000   3.550 -0.6862  0.8904  0.0910
34029SOL    HW1 5489   5.758   6.992   3.596 -0.9123 -0.6243  0.2774
34029SOL    HW2 5490   5.647   7.091   3.566 -0.0579  0.8267  1.7489
34030SOL     OW 5491   4.752   8.009   0.715  0.5849 -0.0785  0.2209
34030SOL    HW1 5492   4.730   7.926   0.672  0.0330  0.9596 -1.6101
34030SOL    HW2 5493   4.718   7.999   0.804  0.1956 -1.6716 -0.0721
34031SOL     OW 5494   8.791   7.123   8.173 -0.1709 -0.1896  0.7971
34031SOL    HW1 5495   8.747   7.202   8.204  0.4390 -0.1219  1.4991
34031SOL    HW2 5496   8.808   7.140   8.080 -0.4284  0.3232  0.8403
34032SOL     OW 5497   1.828   6.354   8.277  0.4912 -0.1827  0.0516
34032SOL    HW1 5498   1.899   6.348   8.342  0.1885  1.0504  0.5234
34032SOL    HW2 5499   1.812   6.448   8.268  1.5615 -0.2143 -2.9755
34033SOL     OW 5500   0.997   7.395   8.064  0.0759  0.4815  0.1594
34033SOL    HW1 5501   0.970   7.421   7.976  0.1765  0.4264  0.1121
34033SOL    HW2 5502   0.963   7.306   8.073  0.4963  0.2998 -0.0118
34034SOL     OW 5503   2.163   3.869   2.776 -0.4873 -0.1398  0.1231
34034SOL    HW1 5504   2.101   3.801   2.802  0.8406 -0.7229  1.8786
34034SOL    HW2 5505   2.202   3.836   2.695  0.3271 -1.6125  1.0920
34035SOL     OW 5506  10.756   3.426  10.904 -0.0543  0.3232  0.2524
34035SOL    HW1 5507  10.693   3.492  10.934  2.1974  2.9463 -0.3898
34035SOL    HW2 5508  10.828   3.432  10.967  0.5002 -1.1038 -0.2148
34036SOL     OW 5509   5.758  10.572   9.978 -0.5042  0.0820 -0.8838
34036SOL    HW1 5510   5.695  10.595   9.910  0.0092 -0.7640 -1.6639
34036SOL    HW2 5511   5.841  10.608   9.947 -0.2561 -0.3520 -0.7262
34037SOL     OW 5512   1.337   6.257   4.302 -0.0790  0.6123  0.5218
34037SOL    HW1 5513   1.362   6.192   4.237 -1.7038  1.1719 -0.7137
34037SOL    HW2 5514   1.364   6.219   4.386  0.1280 -1.0892 -0.2873
34038SOL     OW 5515   3.255   2.706   1.483  0.7001 -0.1880  0.1671
34038SOL    HW1 5516   3.164   2.682   1.499  0.4830  0.8549  0.6324
34038SOL    HW2 5517   3.253   2.752   1.399  0.5492  1.0125  0.8025
34039SOL     OW 5518   4.512   2.680   9.111  0.2888 -0.0809 -0.0888
34039SOL    HW1 5519   4.536   2.746   9.047 -1.7164 -2.4960 -3.6503
34039SOL    HW2 5520   4.420   2.695   9.129  0.3750 -0.5548  0.8507
34040SOL     OW 5521   0.554   6.224   0.351  0.1856 -0.1469  0.0952
34040SOL    HW1 5522   0.461   6.246   0.356  0.2691  0.0878  0.6910
34040SOL    HW2 5523   0.562   6.174   0.269 -0.7636 -1.5719  0.8188
34041SOL     OW 5524   6.910   0.859   0.245  0.3258  0.1148  0.3908
34041SOL    HW1 5525   6.862   0.779   0.224 -0.2651  0.0509  1.8903
34041SOL    HW2 5526   7.002   0.832   0.250  0.9030  0.5187 -4.0410
34042SOL     OW 5527   2.720   2.393  10.766  0.2301 -0.2195 -0.2522
34042SOL    HW1 5528   2.669   2.439  10.833  0.6974 -0.0389 -0.0123
34042SOL    HW2 5529   2.786   2.345  10.815  0.1930 -0.5820 -0.5498
34043SOL     OW 5530   2.563   2.091   8.353 -0.6541 -0.1279  0.6937
34043SOL    HW1 5531   2.644   2.047   8.327 -0.3564 -1.3343  3.3488
34043SOL    HW2 5532   2.496   2.050   8.298  0.3449  0.1232 -0.7807
34044SOL     OW 5533   9.003   9.479   0.108  0.1051  0.4399  0.6202
34044SOL    HW1 5534   9.079   9.444   0.062  0.9472  2.1968  0.5758
34044SOL    HW2 5535   8.937   9.490   0.039 -0.0518 -0.6557  0.5775
34045SOL     OW 5536   5.468   3.099   1.458  0.0934 -0.4242  0.5066
34045SOL    HW1 5537   5.495   3.011   1.485 -0.1746 -0.3698  0.9512
34045SOL    HW2 5538   5.380   3.088   1.424  0.0638 -0.3253  0.5522
34046SOL     OW 5539   5.430   3.469   1.089  0.1802  0.4698  0.8562
34046SOL    HW1 5540   5.432   3.483   0.994 -0.8934 -0.2238  0.7048
34046SOL    HW2 5541   5.398   3.379   1.099 -0.1634  0.6930  1.8844
34047SOL     OW 5542   2.320   6.212   0.252 -0.0458  0.6804 -0.2802
34047SOL    HW1 5543   2.242   6.157   0.258  0.2988  0.2176  0.0592
34047SOL    HW2 5544   2.307   6.281   0.317  0.3361 -0.0550  0.5959
34048SOL     OW 5545   8.398   3.231   2.286 -0.0897 -0.0699 -0.0892
34048SOL    HW1 5546   8.422   3.252   2.196 -2.1902 -0.5158 -0.8019
34048SOL    HW2 5547   8.459   3.162   2.312  1.2842  0.8638 -0.7399
34049SOL     OW 5548   9.479   3.332   3.021 -0.3927  0.0832 -0.1623
34049SOL    HW1 5549   9.473   3.332   3.117  0.5761  2.8716 -0.0210
34049SOL    HW2 5550   9.526   3.251   3.000  0.1360 -0.1645  1.7798
34050SOL     OW 5551   0.943   5.790   0.218 -0.3607  0.1731  0.0946
34050SOL    HW1 5552   0.850   5.768   0.214 -0.2902 -0.1364  0.0943
34050SOL    HW2 5553   0.955   5.832   0.303 -0.5148  0.2797  0.0631
34051SOL     OW 5554   8.778   4.459   6.405  0.2832 -0.0190  0.0773
34051SOL    HW1 5555   8.772   4.553   6.386 -0.1389  0.3119  1.7001
34051SOL    HW2 5556   8.862   4.432   6.368 -0.5147  0.4906 -2.3077
34052SOL     OW 5557   6.747   1.695   8.496  0.1039  0.4135  0.1282
34052SOL    HW1 5558   6.754   1.625   8.431  2.4613 -0.7912  1.5603
34052SOL    HW2 5559   6.834   1.735   8.497 -0.2078  1.1323  1.7380
34053SOL     OW 5560   2.881   5.801   1.231 -0.6241  0.2927 -0.6186
34053SOL    HW1 5561   2.875   5.706   1.231  0.7314  0.1775  0.4355
34053SOL    HW2 5562   2.875   5.826   1.323  0.3153  1.1211 -0.7627
34054SOL     OW 5563   4.367   4.423   3.122 -0.0714  0.2917  0.0053
34054SOL    HW1 5564   4.371   4.502   3.176 -0.9764 -0.1819  0.7968
34054SOL    HW2 5565   4.458   4.408   3.095  0.2520  1.0770  0.6125
34055SOL     OW 5566   0.976   7.175   7.068  0.4542  0.1324  0.6503
34055SOL    HW1 5567   1.062   7.217   7.064  0.3633  0.2842  0.2702
34055SOL    HW2 5568   0.921   7.227   7.009  0.2455 -0.2865  0.4703
34056SOL     OW 5569   7.121   1.846   1.391  0.3468  0.1949  0.0121
34056SOL    HW1 5570   7.199   1.798   1.364 -0.3083 -0.9706  0.1123
34056SOL    HW2 5571   7.128   1.852   1.486  0.1472 -0.2365  0.0579
34057SOL     OW 5572   2.237   5.349   5.157 -0.3287  0.2595 -0.4195
34057SOL    HW1 5573   2.249   5.391   5.242  1.9346  0.7076 -0.9096
34057SOL    HW2 5574   2.230   5.422   5.095 -1.2717 -0.0750 -0.7265
34058SOL     OW 5575   0.585   3.985   9.559  0.4045  0.3191  0.4438
34058SOL    HW1 5576   0.519   4.011   9.495 -1.2725  0.7603  2.2369
34058SOL    HW2 5577   0.657   4.046   9.545  1.5695 -1.6104 -3.1043
34059SOL     OW 5578   3.207   5.881   4.260  0.2166  0.0590  0.0100
34059SOL    HW1 5579   3.143   5.875   4.190  1.6869 -0.4129 -1.3610
34059SOL    HW2 5580   3.277   5.821   4.235  1.2739  0.6475  1.3574
34060SOL     OW 5581   4.627   7.032   1.607  0.3931 -0.3345 -0.2505
34060SOL    HW1 5582   4.579   6.974   1.547 -0.4132 -0.0498  0.0978
34060SOL    HW2 5583   4.670   6.972   1.668 -0.2984 -0.5897  0.0045
34061SOL     OW 5584   2.324   5.553   9.498  0.1246 -0.0558 -0.1209
34061SOL    HW1 5585   2.244   5.508   9.471 -0.7577  1.8293 -0.8241
34061SOL    HW2 5586   2.392   5.486   9.494 -1.3128 -1.5842  0.0215
34062SOL     OW 5587   3.945   2.981   0.664  0.5091 -0.1027  0.2670
34062SOL    HW1 5588   3.922   2.947   0.577 -2.9466  0.4620  0.8123
34062SOL    HW2 5589   3.959   3.075   0.650  0.2226 -0.0597  0.2575
34063SOL     OW 5590   6.206   2.319   0.147  0.6467 -0.6764  0.2544
34063SOL    HW1 5591   6.129   2.335   0.093  0.6063  0.1717  0.5467
34063SOL    HW2 5592   6.274   2.375   0.109  1.4137 -2.1145 -0.5860
34064SOL     OW 5593   3.056   3.694   7.166  0.4608 -0.1684 -0.0569
34064SOL    HW1 5594   3.130   3.688   7.227  0.9478 -0.7550 -0.6866
34064SOL    HW2 5595   2.979   3.678   7.219  0.5495  2.6397  1.0699
34065SOL     OW 5596   3.138   2.840   0.068  0.4392  0.0138  0.1558
34065SOL    HW1 5597   3.206   2.876   0.011 -0.7801  0.3728 -1.1175
34065SOL    HW2 5598   3.104   2.764   0.020  0.9640 -1.0971  1.4765
34066SOL     OW 5599   5.260   2.019   3.985 -0.3825  0.1242  0.0517
34066SOL    HW1 5600   5.177   1.978   4.010  0.2456 -2.3593 -1.4997
34066SOL    HW2 5601   5.256   2.026   3.890  0.9624  0.4312 -0.0067
34067SOL     OW 5602  10.692   2.272   2.612  0.2901  0.1830 -0.2092
34067SOL    HW1 5603  10.703   2.191   2.661  0.6534  0.2954 -0.1044
34067SOL    HW2 5604  10.745   2.336   2.659 -1.1979  0.8755  0.6107
34068SOL     OW 5605   4.913   7.811  10.132  0.3239  0.5464 -0.2296
34068SOL    HW1 5606   4.955   7.886  10.090  0.2823 -0.9083 -3.1469
34068SOL    HW2 5607   4.829   7.802  10.088  0.2695 -1.0761  0.1211
34069SOL     OW 5608   9.384   0.237   5.538 -0.1814 -0.2874 -0.0149
34069SOL    HW1 5609   9.304   0.185   5.542 -0.8202  0.6186 -0.7494
34069SOL    HW2 5610   9.455   0.172   5.545 -0.9637 -1.1021  0.5852
34070SOL     OW 5611   3.308   2.571   4.118  0.3763  0.5148 -0.5074
34070SOL    HW1 5612   3.368   2.600   4.049  2.8909  1.6777  1.9757
34070SOL    HW2 5613   3.351   2.496   4.158 -0.9401 -0.0274 -0.0558
34071SOL     OW 5614   3.200   9.269   6.051 -0.1197  0.5042 -0.1848
34071SOL    HW1 5615   3.283   9.223   6.041  0.6522  1.7406  0.2524
34071SOL    HW2 5616   3.137   9.216   6.003  0.9858 -0.2837 -0.8148
34072SOL     OW 5617  10.500   1.196   8.566 -0.0665 -0.3761  0.9505
34072SOL    HW1 5618  10.562   1.124   8.556  0.4570  0.1274  0.5548
34072SOL    HW2 5619  10.535   1.249   8.637  0.4521  0.4058  0.1276
34073SOL     OW 5620   0.579   4.769   0.284 -0.4765  0.2975  1.0424
34073SOL    HW1 5621   0.670   4.798   0.283 -0.3006 -0.2116 -0.4221
34073SOL    HW2 5622   0.581   4.683   0.243 -2.0304  1.7031 -2.3341
34074SOL     OW 5623   8.883   9.817   6.671  0.6834 -0.0601 -0.0251
34074SOL    HW1 5624   8.911   9.818   6.579 -0.4230  0.2926 -0.3798
34074SOL    HW2 5625   8.788   9.810   6.667  0.4537  1.6318  1.0393
34075SOL     OW 5626   5.210   5.887   5.145  0.1498  0.0669 -0.6607
34075SOL    HW1 5627   5.151   5.924   5.079  0.1905 -0.9115 -1.2661
34075SOL    HW2 5628   5.294   5.930   5.129 -0.3230  1.3070  0.0627
34076SOL     OW 5629   2.261   2.913   7.760  0.4557  0.0498  0.5259
34076SOL    HW1 5630   2.253   2.961   7.677  2.3080 -1.8076 -0.8473
34076SOL    HW2 5631   2.179   2.929   7.805 -0.1422  2.1346 -1.0991
34077SOL     OW 5632   8.730   1.761   0.719 -0.0712  0.1801 -0.7974
34077SOL    HW1 5633   8.658   1.797   0.669 -0.3535  1.1818  0.2735
34077SOL    HW2 5634   8.807   1.775   0.664 -0.7330 -1.5169 -2.2492
34078SOL     OW 5635   1.566   5.093   9.622  0.0286 -0.3328  0.0541
34078SOL    HW1 5636   1.577   5.171   9.567 -0.8968 -0.9941 -1.1111
34078SOL    HW2 5637   1.565   5.020   9.561 -1.8380 -1.0439  0.8369
34079SOL     OW 5638   4.518   7.178   4.471  0.3329  0.6953  0.0939
34079SOL    HW1 5639   4.540   7.198   4.562 -0.9901  1.5264  0.2574
34079SOL    HW2 5640   4.455   7.106   4.477 -1.4868  2.2083  0.0101
34080SOL     OW 5641   9.248   1.042   2.446  0.6820 -0.0208 -0.7280
34080SOL    HW1 5642   9.248   0.968   2.505  2.3215  1.5392  1.3790
34080SOL    HW2 5643   9.320   1.025   2.385  0.0597 -0.8259 -1.2727
34081SOL     OW 5644   0.750   5.576   4.003 -0.7149  0.3424  0.2148
34081SOL    HW1 5645   0.817   5.508   4.015 -1.3113  0.0359  2.2183
34081SOL    HW2 5646   0.671   5.529   3.978 -0.5602  0.5517 -0.6874
34082SOL     OW 5647   0.898   6.143   5.174  0.2559  0.1030  0.6100
34082SOL    HW1 5648   0.921   6.057   5.209  0.2515  0.5537  1.7863
34082SOL    HW2 5649   0.866   6.126   5.086  2.4756 -0.8394 -0.0731
34083SOL     OW 5650   8.975   5.412   2.509 -0.4202  0.2184 -0.6580
34083SOL    HW1 5651   8.948   5.364   2.587  0.4284  0.4006 -0.2496
34083SOL    HW2 5652   8.893   5.427   2.461 -1.2071  1.6198  1.0242
34084SOL     OW 5653   9.526   7.117   0.388  0.1665  0.1095 -0.2115
34084SOL    HW1 5654   9.442   7.076   0.409 -0.5314  1.2702 -0.6405
34084SOL    HW2 5655   9.505   7.210   0.377  1.6821  0.5745  0.6402
34085SOL     OW 5656   6.956  10.385   7.670  0.4131  0.2281 -0.8372
34085SOL    HW1 5657   6.881  10.444   7.662  0.4068  0.4789  0.6747
34085SOL    HW2 5658   7.028  10.441   7.699  1.5062  0.1774 -3.2403
34086SOL     OW 5659   3.521   7.925   7.859  1.1099  0.0635 -0.2602
34086SOL    HW1 5660   3.435   7.890   7.836  0.8723  1.0214 -0.8540
34086SOL    HW2 5661   3.533   8.000   7.801  0.8624  2.0676  2.0977
34087SOL     OW 5662   5.003   4.184   5.225  0.1555 -0.5642 -0.1056
34087SOL    HW1 5663   5.057   4.256   5.195  1.7036 -1.5704  0.1557
34087SOL    HW2 5664   4.934   4.176   5.159 -0.5882  1.6780  0.3111
34088SOL     OW 5665  10.714   4.068   0.835 -0.4168  0.0859  0.1594
34088SOL    HW1 5666  10.647   4.033   0.777 -0.5814 -0.7801  0.8499
34088SOL    HW2 5667  10.665   4.095   0.913  0.1306 -1.4532  1.0651
34089SOL     OW 5668   9.891   6.295   7.979 -0.1917  0.5283 -0.2020
34089SOL    HW1 5669   9.893   6.205   8.013  0.7145  0.5174 -0.2556
34089SOL    HW2 5670   9.983   6.319   7.970 -0.3628  2.1829  1.7306
34090SOL     OW 5671   6.941   1.356  10.484  0.0810  0.3732  0.9415
34090SOL    HW1 5672   6.880   1.288  10.453  0.6465 -0.5245  1.7520
34090SOL    HW2 5673   6.885   1.418  10.530 -0.3662  0.1004  0.7806
34091SOL     OW 5674   2.701   7.646   1.387 -0.4614 -0.2905 -0.1588
34091SOL    HW1 5675   2.626   7.672   1.440 -1.5736 -0.4512 -1.5892
34091SOL    HW2 5676   2.756   7.595   1.447 -0.8023  0.9479  1.2792
34092SOL     OW 5677   4.030   2.645   8.562  0.2655  0.3108 -0.7712
34092SOL    HW1 5678   4.076   2.671   8.642  0.5937 -0.0804 -0.8312
34092SOL    HW2 5679   3.967   2.579   8.592 -0.6937  1.2893 -0.5901
34093SOL     OW 5680   2.845   5.327   2.463 -0.2430 -0.1210 -0.0090
34093SOL    HW1 5681   2.869   5.236   2.479 -0.0758 -0.2672 -1.0193
34093SOL    HW2 5682   2.795   5.353   2.541 -1.8018 -1.6124 -0.4468
34094SOL     OW 5683   3.419   2.038   4.717 -0.2290  0.2821  0.3157
34094SOL    HW1 5684   3.487   1.988   4.672 -1.2928  0.8829 -2.1757
34094SOL    HW2 5685   3.461   2.071   4.796  1.2787 -2.2515  0.6565
34095SOL     OW 5686   0.156  10.773   3.417 -0.2541 -0.2137  0.9714
34095SOL    HW1 5687   0.183  10.760   3.326 -1.1469 -1.3026  0.8493
34095SOL    HW2 5688   0.207  10.708   3.466  0.8480  0.9217  1.3851
34096SOL     OW 5689   0.453   3.787   3.586 -0.1938  0.3570  0.0232
34096SOL    HW1 5690   0.524   3.832   3.632 -1.0877 -0.4494  2.3291
34096SOL    HW2 5691   0.459   3.697   3.616 -1.9439  0.1976 -0.0373
34097SOL     OW 5692   7.555   3.075   8.537 -0.3510  0.5296 -0.0436
34097SOL    HW1 5693   7.611   3.146   8.570 -0.9816  1.1884 -0.3608
34097SOL    HW2 5694   7.606   3.034   8.468  1.7443 -1.9874  2.7278
34098SOL     OW 5695   0.561   7.024   8.915 -0.3605  0.5835  0.7585
34098SOL    HW1 5696   0.531   7.113   8.899  0.3111  0.5011 -1.1827
34098SOL    HW2 5697   0.522   6.972   8.845  2.5416  0.1270 -0.7079
34099SOL     OW 5698   7.945   0.544   1.789  0.1084 -0.0113  0.3905
34099SOL    HW1 5699   7.955   0.587   1.704 -0.6373 -0.8841 -0.1555
34099SOL    HW2 5700   7.983   0.457   1.776  0.9820  0.2164  1.2838
34100SOL     OW 5701  10.614  10.383   5.360 -0.0941  0.0341  0.3605
34100SOL    HW1 5702  10.680  10.427   5.414  2.1701 -1.3709 -1.0609
34100SOL    HW2 5703  10.573  10.453   5.311  0.5571  0.9459  1.0629
34101SOL     OW 5704   3.554   8.330   5.961  0.5537  0.4335  0.5277
34101SOL    HW1 5705   3.604   8.294   6.034  0.9349  0.7144  0.4091
34101SOL    HW2 5706   3.482   8.268   5.947  1.5706 -0.6387 -0.1025
34102SOL     OW 5707   5.741   8.197   9.532  0.0493  0.5018  0.1224
34102SOL    HW1 5708   5.824   8.172   9.491 -0.2838 -0.2132 -0.1336
34102SOL    HW2 5709   5.766   8.258   9.601  0.7080  0.9652 -0.5166
34103SOL     OW 5710   5.531   3.138   5.063  0.0794 -0.5776 -0.5088
34103SOL    HW1 5711   5.450   3.129   5.113 -1.3419  0.2160 -2.5313
34103SOL    HW2 5712   5.559   3.228   5.078 -0.4524 -0.2803 -1.2572
34104SOL     OW 5713   7.685   0.647   8.172 -0.1221 -0.4380  0.4833
34104SOL    HW1 5714   7.712   0.558   8.154 -0.1606 -0.3715  0.0892
34104SOL    HW2 5715   7.599   0.655   8.131 -0.2537 -0.3120  0.7768
34105SOL     OW 5716   9.500   5.512   6.613 -0.3831 -0.5045  0.1468
34105SOL    HW1 5717   9.470   5.545   6.529  2.1920  0.4744 -0.4740
34105SOL    HW2 5718   9.526   5.422   6.596 -0.9531 -0.6870  0.2054
34106SOL     OW 5719   6.369   4.609   2.372 -0.0665 -0.1045 -0.1781
34106SOL    HW1 5720   6.310   4.671   2.329 -1.4191 -0.5948  0.9132
34106SOL    HW2 5721   6.362   4.530   2.320  2.2327  0.7848 -2.0219
34107SOL     OW 5722   5.002   6.579   3.757  0.4807 -0.2532  0.5207
34107SOL    HW1 5723   4.956   6.524   3.694  1.8142  0.0594 -0.7896
34107SOL    HW2 5724   5.084   6.533   3.774  1.3728  1.0221 -0.1635
34108SOL     OW 5725   3.197   8.612   7.905  0.1790  0.1510 -0.0710
34108SOL    HW1 5726   3.291   8.626   7.917  0.1929 -0.8606  1.1495
34108SOL    HW2 5727   3.170   8.558   7.979 -1.1392 -0.5986 -1.0359
34109SOL     OW 5728   5.824   8.285   3.300  0.5410  0.4027  0.2898
34109SOL    HW1 5729   5.877   8.342   3.356  1.2987  0.1563 -0.1593
34109SOL    HW2 5730   5.807   8.338   3.222 -0.2883  0.6504  0.6279
34110SOL     OW 5731   9.919   6.706   0.239 -0.0059 -0.5092  0.0301
34110SOL    HW1 5732   9.932   6.611   0.240 -1.1593 -0.6858  0.5034
34110SOL    HW2 5733   9.824   6.717   0.250 -0.1261  0.6701 -1.8108
34111SOL     OW 5734   3.075   4.779   0.933 -0.3898 -0.2434  0.3394
34111SOL    HW1 5735   2.991   4.798   0.973  0.0568 -1.6128  2.0353
34111SOL    HW2 5736   3.103   4.697   0.973  1.4903 -0.1215 -0.6093
34112SOL     OW 5737   3.525   6.399   5.259  0.4748 -0.2071 -0.0567
34112SOL    HW1 5738   3.455   6.374   5.319  0.6976 -0.0865  0.2564
34112SOL    HW2 5739   3.485   6.396   5.173  0.3718 -1.1662  0.0161
34113SOL     OW 5740  10.792   1.820   4.790 -0.0661  0.3598 -0.2340
34113SOL    HW1 5741  10.841   1.849   4.714 -1.2962 -0.2903 -1.3227
34113SOL    HW2 5742  10.712   1.782   4.754 -0.1756 -1.0033  1.3086
34114SOL     OW 5743   3.449   5.426   2.937  0.3213 -0.3262 -0.1941
34114SOL    HW1 5744   3.387   5.360   2.906 -0.8692  1.0973 -1.0312
34114SOL    HW2 5745   3.393   5.499   2.965  1.5875  0.4312  0.4337
34115SOL     OW 5746   6.608   2.496   8.546 -0.0201  0.1556  0.4918
34115SOL    HW1 5747   6.611   2.406   8.579  1.4922  0.2286  0.6395
34115SOL    HW2 5748   6.690   2.535   8.577 -0.8673  1.7253  0.7990
34116SOL     OW 5749   1.420   3.490   1.482 -0.3956 -0.3585  0.3702
34116SOL    HW1 5750   1.467   3.464   1.561  0.5800 -0.7317 -0.3129
34116SOL    HW2 5751   1.467   3.566   1.449  0.4893 -1.4440 -0.9689
34117SOL     OW 5752   1.098   1.916   6.110 -0.1829  0.1103  0.4560
34117SOL    HW1 5753   1.066   1.847   6.168  2.6674 -2.1207 -0.3702
34117SOL    HW2 5754   1.135   1.982   6.168  0.4903 -0.9428  1.2506
34118SOL     OW 5755  10.810   1.794   7.029 -0.0436  0.6550 -0.0859
34118SOL    HW1 5756  10.811   1.718   7.088 -0.4492  0.4464 -0.3450
34118SOL    HW2 5757  10.742   1.774   6.965 -0.5702  1.5020  0.1872
34119SOL     OW 5758   9.693   9.933   3.339 -0.0072  0.3814  0.3667
34119SOL    HW1 5759   9.637   9.999   3.297 -1.7409 -0.4148  1.3071
34119SOL    HW2 5760   9.642   9.904   3.415  0.2732 -2.6957 -0.5103
34120SOL     OW 5761   0.178   5.679   9.841  0.1002 -0.1447 -0.6652
34120SOL    HW1 5762   0.257   5.732   9.835  1.2228 -1.8104 -1.3255
34120SOL    HW2 5763   0.120   5.713   9.774  0.9402  0.0247 -1.3142
34121SOL     OW 5764   8.663   0.355   9.012 -0.7454 -0.3404 -0.0346
34121SOL    HW1 5765   8.747   0.319   8.983 -0.6971  0.8632 -1.4907
34121SOL    HW2 5766   8.621   0.282   9.059  0.2860 -1.5699 -0.9435
34122SOL     OW 5767  10.142   5.130   4.788 -0.6508  0.3871 -0.1868
34122SOL    HW1 5768  10.096   5.050   4.762  0.3323 -1.0143  2.0170
34122SOL    HW2 5769  10.100   5.156   4.870  1.5378 -0.2414  1.2514
34123SOL     OW 5770   8.294   1.827   5.152 -0.1193 -0.1762 -0.2102
34123SOL    HW1 5771   8.257   1.748   5.190 -0.2510  0.9512  2.1720
34123SOL    HW2 5772   8.352   1.796   5.083 -0.4817 -2.3064  0.3868
34124SOL     OW 5773   1.788  10.169   6.751 -0.1644  0.3689 -0.0993
34124SOL    HW1 5774   1.848  10.189   6.678  1.3990 -0.7341  0.8378
34124SOL    HW2 5775   1.723  10.110   6.713  0.5703 -0.1120 -0.6310
34125SOL     OW 5776   8.074   5.244   1.646  0.6035 -0.4195 -0.2501
34125SOL    HW1 5777   8.007   5.312   1.638  1.1873  0.3383  1.0285
34125SOL    HW2 5778   8.155   5.286   1.620  1.0621 -0.4291  1.0504
34126SOL     OW 5779   7.979   1.564   9.687  0.3164  0.2177 -0.1942
34126SOL    HW1 5780   8.070   1.559   9.715 -0.0380 -0.5504  0.8738
34126SOL    HW2 5781   7.937   1.488   9.728 -0.5750 -0.0514 -1.5354
34127SOL     OW 5782   0.411   7.512   0.212  0.3042 -0.1385  0.3556
34127SOL    HW1 5783   0.340   7.496   0.150 -0.6311  0.9987  1.1066
34127SOL    HW2 5784   0.473   7.440   0.196 -1.8661 -2.2899  0.9349
34128SOL     OW 5785   2.285   9.405   7.195 -0.0991 -0.1456 -0.1500
34128SOL    HW1 5786   2.299   9.456   7.275  0.6381 -0.7404  0.1097
34128SOL    HW2 5787   2.369   9.409   7.149 -0.6471  0.5617 -1.1233
34129SOL     OW 5788  10.435   0.996   9.471  0.2476 -0.3055 -0.2549
34129SOL    HW1 5789  10.388   0.913   9.462 -1.1489  0.2644  1.1875
34129SOL    HW2 5790  10.518   0.972   9.512  0.0917 -1.0528 -0.3604
34130SOL     OW 5791   9.816   5.016   4.638 -0.1990 -0.3611 -0.3626
34130SOL    HW1 5792   9.895   5.033   4.587 -0.9745 -0.5754 -1.6829
34130SOL    HW2 5793   9.819   5.081   4.708  0.1728  0.9748 -1.5506
34131SOL     OW 5794   7.764   1.709   9.628  0.4782  0.2490 -0.0008
34131SOL    HW1 5795   7.836   1.648   9.644  0.2570 -0.4356 -1.4926
34131SOL    HW2 5796   7.692   1.654   9.597 -0.6749  0.9335  1.3418
34132SOL     OW 5797   4.310   0.362   5.590  0.0003  0.1844 -0.7157
34132SOL    HW1 5798   4.374   0.293   5.606 -0.3513 -0.2123 -0.9952
34132SOL    HW2 5799   4.322   0.423   5.662  0.5486  0.0069 -0.6515
34133SOL     OW 5800   1.506   6.556   1.062  0.0004  0.3520  0.2217
34133SOL    HW1 5801   1.534   6.647   1.075  0.0413  0.3280  0.3047
34133SOL    HW2 5802   1.577   6.504   1.098  0.6377  0.2567 -1.1270
34134SOL     OW 5803   2.265   6.016   0.577  0.4266  0.1736  0.5935
34134SOL    HW1 5804   2.232   5.939   0.530 -1.4266 -0.3102  2.5421
34134SOL    HW2 5805   2.360   6.010   0.567  0.2002 -0.7511 -1.6870
34135SOL     OW 5806   5.110  10.381   3.327  0.0144 -0.3069 -0.4080
34135SOL    HW1 5807   5.061  10.353   3.404 -0.9306 -0.1104 -0.9337
34135SOL    HW2 5808   5.053  10.363   3.253  0.5152  0.4218 -0.9931
34136SOL     OW 5809   8.123   6.303   2.647  0.3972  0.4179  0.0287
34136SOL    HW1 5810   8.169   6.293   2.730  1.4135 -1.4853 -0.7109
34136SOL    HW2 5811   8.031   6.290   2.669  0.9219 -3.8075  0.4188
34137SOL     OW 5812   0.370   6.565   4.275  0.1313 -0.5026  0.1708
34137SOL    HW1 5813   0.308   6.509   4.229 -0.8492 -1.5684  2.6100
34137SOL    HW2 5814   0.455   6.546   4.234 -0.7184 -1.1136 -1.3636
34138SOL     OW 5815   2.591   7.675  10.769 -0.1886 -0.4542 -0.5435
34138SOL    HW1 5816   2.508   7.638  10.797 -1.0629  2.4502  1.0665
34138SOL    HW2 5817   2.639   7.691  10.850  1.4369 -0.8953 -1.3757
34139SOL     OW 5818   9.609   9.061   0.210  0.4476 -0.6588 -0.1585
34139SOL    HW1 5819   9.685   9.044   0.154 -0.4162 -1.6928 -1.0789
34139SOL    HW2 5820   9.540   9.004   0.174 -0.4285 -0.5917  1.3520
34140SOL     OW 5821  10.559   8.406   2.951 -0.3927 -0.0363 -0.2302
34140SOL    HW1 5822  10.473   8.431   2.917 -0.4041  0.6331  0.2739
34140SOL    HW2 5823  10.621   8.444   2.890 -0.4488 -1.6052 -1.3309
34141SOL     OW 5824   0.665   3.252   0.177  0.2892  0.9655 -0.2705
34141SOL    HW1 5825   0.628   3.183   0.231  0.3293  1.9714  1.0832
34141SOL    HW2 5826   0.597   3.320   0.174 -0.5150  0.1879 -3.1010
34142SOL     OW 5827   0.409   2.563   4.726 -0.8393  0.0189  0.5380
34142SOL    HW1 5828   0.495   2.580   4.688 -0.5073 -0.7659  0.9065
34142SOL    HW2 5829   0.412   2.471   4.752 -1.9517 -0.1460  0.1410
34143SOL     OW 5830  10.440  10.533   8.187 -0.6585  0.0176  0.2068
34143SOL    HW1 5831  10.468  10.448   8.220 -0.8979  0.0873  0.5968
34143SOL    HW2 5832  10.419  10.517   8.095 -0.4038 -0.2752  0.1973
34144SOL     OW 5833   5.719  10.670   7.091 -0.5858  0.7442  0.1226
34144SOL    HW1 5834   5.750  10.579   7.087  0.0584  0.9879 -0.8941
34144SOL    HW2 5835   5.658  10.671   7.164 -0.4058 -0.4519  0.3184
34145SOL     OW 5836   7.679   5.486  10.427  0.3583  0.8727 -0.2654
34145SOL    HW1 5837   7.729   5.500  10.507 -1.8925 -2.9221  2.1588
34145SOL    HW2 5838   7.588   5.507  10.451 -0.3860 -0.4329 -1.7139
34146SOL     OW 5839   8.655   8.945   4.212  0.5723 -0.2715 -0.3093
34146SOL    HW1 5840   8.664   8.885   4.286  2.4249  0.2950 -0.0076
34146SOL    HW2 5841   8.569   8.984   4.222  0.6036 -0.5506  1.2968
34147SOL     OW 5842   7.837   9.575   9.546 -0.5718 -0.6634  0.3679
34147SOL    HW1 5843   7.766   9.566   9.609 -0.3200 -1.1388  0.5884
34147SOL    HW2 5844   7.819   9.509   9.479 -1.8637  1.0580 -1.0729
34148SOL     OW 5845   6.491   3.242   9.888 -0.0497  0.0485  0.5136
34148SOL    HW1 5846   6.506   3.313   9.950 -0.7885  0.9430 -0.2947
34148SOL    HW2 5847   6.395   3.240   9.877  0.1180  0.5899 -1.3441
34149SOL     OW 5848   8.314   4.885   4.047  0.1666 -0.5530 -0.2134
34149SOL    HW1 5849   8.225   4.892   4.013  0.0239 -0.8509  0.0980
34149SOL    HW2 5850   8.368   4.874   3.968 -0.0739 -0.3918 -0.4017
34150SOL     OW 5851   2.974   8.418   7.814  0.1794 -0.0098 -0.2595
34150SOL    HW1 5852   3.023   8.361   7.873  0.5225  0.2622 -0.2811
34150SOL    HW2 5853   2.973   8.504   7.858 -0.2961 -0.0167 -0.2480
34151SOL     OW 5854   9.460   0.823   9.887 -0.2330  0.3875  0.2475
34151SOL    HW1 5855   9.463   0.918   9.897 -2.7594  0.7706 -1.5581
34151SOL    HW2 5856   9.385   0.796   9.940 -0.8526 -0.2701 -0.9200
34152SOL     OW 5857   3.292   5.938   9.027 -0.2440  0.3368 -0.0875
34152SOL    HW1 5858   3.363   5.976   8.975 -0.6772 -0.9185 -1.7048
34152SOL    HW2 5859   3.336   5.891   9.097  0.5283  0.0275 -0.7569
34153SOL     OW 5860   8.147   6.600   7.341 -0.3101  0.0075  0.4501
34153SOL    HW1 5861   8.174   6.625   7.429 -0.3332 -0.1920  0.5130
34153SOL    HW2 5862   8.082   6.666   7.316 -0.1358  0.1960  0.4933
34154SOL     OW 5863   9.469   0.165   6.982 -0.0324 -0.0763  0.0076
34154SOL    HW1 5864   9.412   0.094   6.952  0.1677 -1.1353  1.9543
34154SOL    HW2 5865   9.471   0.155   7.077  3.2444 -0.0074  0.0518
34155SOL     OW 5866   8.725   9.136   0.797  0.0379  0.3270 -0.2336
34155SOL    HW1 5867   8.796   9.085   0.760 -1.0043 -0.4064 -1.2819
34155SOL    HW2 5868   8.706   9.095   0.882  0.3400  0.0517 -0.3014
34156SOL     OW 5869   8.946   5.629  10.293  0.7429 -0.2275  0.2812
34156SOL    HW1 5870   8.867   5.641  10.345  0.1772 -0.1437 -0.5718
34156SOL    HW2 5871   8.946   5.535  10.271 -0.8779  0.2860 -2.3705
34157SOL     OW 5872   1.499   6.549   1.897 -0.5336  0.1304  0.0775
34157SOL    HW1 5873   1.526   6.608   1.826 -1.3729  0.1010 -0.2821
34157SOL    HW2 5874   1.581   6.519   1.935 -0.0539 -0.1086 -1.0956
34158SOL     OW 5875   8.307   5.825   6.825 -0.3787 -0.0738 -0.2083
34158SOL    HW1 5876   8.381   5.864   6.778  0.6779 -1.5961  0.1155
34158SOL    HW2 5877   8.348   5.766   6.889 -1.8738 -0.9260  0.0133
34159SOL     OW 5878   1.794   2.299   9.786 -0.2487  0.5047  0.3100
34159SOL    HW1 5879   1.836   2.312   9.871 -1.8462  1.8887  0.9472
34159SOL    HW2 5880   1.864   2.311   9.722  1.2615 -1.7442  1.3949
34160SOL     OW 5881   6.640   2.138   4.112  0.1233 -0.6381  0.2378
34160SOL    HW1 5882   6.587   2.201   4.161  0.7595 -1.4271  2.0284
34160SOL    HW2 5883   6.730   2.154   4.140  0.4655 -1.3959 -0.3741
34161SOL     OW 5884   7.490   4.821   8.623 -0.0810  0.1342  0.4204
34161SOL    HW1 5885   7.438   4.855   8.696 -2.9138 -0.2037 -1.2730
34161SOL    HW2 5886   7.525   4.899   8.580  0.5516  0.3875  1.3548
34162SOL     OW 5887   6.056   0.175   2.613  0.5013  0.7880 -0.4816
34162SOL    HW1 5888   5.997   0.190   2.539 -1.3009  0.5116  0.8344
34162SOL    HW2 5889   6.121   0.245   2.607 -0.5395  1.6962 -1.4226
34163SOL     OW 5890   4.448   7.265   7.138  0.3996 -0.0250  0.4834
34163SOL    HW1 5891   4.463   7.188   7.192 -1.8044 -0.9407 -0.0964
34163SOL    HW2 5892   4.462   7.234   7.048 -0.4404  0.2548  0.2527
34164SOL     OW 5893   1.128   9.030   5.414 -0.1525  0.8580 -0.5285
34164SOL    HW1 5894   1.168   9.116   5.414  0.1225  0.7398 -1.3303
34164SOL    HW2 5895   1.159   8.989   5.333  0.8134 -0.5141  0.4982
34165SOL     OW 5896   7.495   3.808   2.763  0.0422  0.1847  0.1569
34165SOL    HW1 5897   7.508   3.879   2.826 -0.8190 -0.6881  1.3861
34165SOL    HW2 5898   7.554   3.739   2.793 -1.0374 -0.5806  0.6006
34166SOL     OW 5899   1.498   3.839   0.806  0.1753 -0.5187 -0.2739
34166SOL    HW1 5900   1.536   3.751   0.796  0.0499 -0.5407 -0.5646
34166SOL    HW2 5901   1.574   3.897   0.808  0.2078 -0.4725 -1.8114
34167SOL     OW 5902   1.751   4.556   0.094  0.5756  0.0152 -0.5480
34167SOL    HW1 5903   1.739   4.639   0.140  2.3621  0.5563 -0.9652
34167SOL    HW2 5904   1.724   4.490   0.157 -1.3956  0.9054 -0.3923
34168SOL     OW 5905   7.233   5.738   4.712 -0.3469 -0.5557 -0.1573
34168SOL    HW1 5906   7.170   5.791   4.663  1.5702  1.1313 -0.9550
34168SOL    HW2 5907   7.269   5.677   4.648  0.4816  0.0775 -0.3162
34169SOL     OW 5908   2.003   8.857  10.347  0.0010 -0.0930  0.2762
34169SOL    HW1 5909   2.087   8.824  10.379 -0.3357  0.1827  1.4826
34169SOL    HW2 5910   2.025   8.901  10.265  0.4377 -3.3611 -1.5025
34170SOL     OW 5911   9.416   1.976   4.802 -0.6614 -0.2566 -0.0660
34170SOL    HW1 5912   9.404   1.915   4.729 -0.7999 -0.4153  0.0882
34170SOL    HW2 5913   9.327   2.008   4.822 -0.4122  1.3083 -1.2615
34171SOL     OW 5914   7.507   5.626   2.701 -0.3153  0.4515 -0.1839
34171SOL    HW1 5915   7.592   5.633   2.659  0.1374 -0.2693  0.5861
34171SOL    HW2 5916   7.446   5.611   2.629  0.5529 -1.5844 -0.5544
34172SOL     OW 5917   6.762   6.699   2.325 -0.2616  0.2831 -0.0683
34172SOL    HW1 5918   6.811   6.760   2.270 -1.0818  1.4187  0.4310
34172SOL    HW2 5919   6.743   6.749   2.405 -0.1080 -0.9454  0.7633
34173SOL     OW 5920   8.271   5.022   0.957  0.4359 -0.1485 -0.6187
34173SOL    HW1 5921   8.201   5.084   0.978  0.7096 -0.3495  0.9801
34173SOL    HW2 5922   8.227   4.951   0.911 -0.1026  0.5553 -1.2237
34174SOL     OW 5923   2.566   6.105   1.758 -0.0263  0.1302 -0.0876
34174SOL    HW1 5924   2.491   6.153   1.724 -0.9971 -0.9986  0.3872
34174SOL    HW2 5925   2.603   6.162   1.826 -1.4528  0.0136  0.8145
34175SOL     OW 5926   7.878   0.602  10.641 -0.1025 -0.0541 -0.7463
34175SOL    HW1 5927   7.868   0.540  10.569 -2.2833 -0.6791 -0.0005
34175SOL    HW2 5928   7.814   0.670  10.624 -0.0235  0.2537  0.1195
34176SOL     OW 5929   5.445   3.822   9.333 -0.9085  0.3306  0.2029
34176SOL    HW1 5930   5.511   3.871   9.382  0.2293 -0.1226 -0.8334
34176SOL    HW2 5931   5.381   3.796   9.399 -2.0681  3.8796  0.7099
34177SOL     OW 5932   3.740   3.902   7.895  0.0104 -0.1621  0.3845
34177SOL    HW1 5933   3.723   3.823   7.843 -1.0173 -0.7371  1.5238
34177SOL    HW2 5934   3.740   3.871   7.985  1.5549  0.8428  0.7618
34178SOL     OW 5935   9.687   6.967   7.440  0.0152 -0.0765  0.3824
34178SOL    HW1 5936   9.657   6.954   7.350  0.2189 -1.2485  0.4675
34178SOL    HW2 5937   9.767   7.018   7.431 -1.2330  1.9175  0.0685
34179SOL     OW 5938   3.276   9.674   7.840 -0.4015  0.3814 -0.6341
34179SOL    HW1 5939   3.274   9.767   7.816  1.5636  1.2690  2.0973
34179SOL    HW2 5940   3.368   9.657   7.860 -1.2433 -0.9367  2.9119
34180SOL     OW 5941   5.471   3.400   2.431 -0.0138  0.2832  0.7561
34180SOL    HW1 5942   5.444   3.419   2.521 -0.9558 -2.6192  1.1977
34180SOL    HW2 5943   5.396   3.424   2.377  0.0492  0.7939  0.8933
34181SOL     OW 5944   0.051   5.719   1.172 -0.0511 -0.1216  0.2684
34181SOL    HW1 5945   0.026   5.802   1.132  1.8024  0.0825 -0.5431
34181SOL    HW2 5946   0.067   5.740   1.264  0.0333  0.3418  0.1495
34182SOL     OW 5947   2.068   3.731   0.405 -0.3405  0.6279 -0.3175
34182SOL    HW1 5948   2.136   3.747   0.340  1.0796 -0.5251  0.8319
34182SOL    HW2 5949   2.002   3.799   0.388  0.8845  1.5147 -1.7224
34183SOL     OW 5950   2.764   5.689   3.931  0.1557  0.5803 -0.6405
34183SOL    HW1 5951   2.728   5.745   4.000 -0.3030 -1.8332  1.2216
34183SOL    HW2 5952   2.701   5.694   3.860 -0.9843  0.8007  0.3510
34184SOL     OW 5953   3.267   9.338   4.362  0.4592 -0.4647  0.0968
34184SOL    HW1 5954   3.350   9.378   4.336 -0.4016  1.1046 -0.3854
34184SOL    HW2 5955   3.204   9.370   4.297 -0.7639 -0.6332  1.1634
34185SOL     OW 5956   2.312   0.036   5.648  0.5793 -0.3209  0.4941
34185SOL    HW1 5957   2.272  -0.025   5.709 -0.3263 -1.0218 -0.7403
34185SOL    HW2 5958   2.322  -0.014   5.567  1.0170  0.7914 -0.1677
34186SOL     OW 5959   7.179   3.460   9.367  0.2619 -0.3245  0.0954
34186SOL    HW1 5960   7.273   3.451   9.383  0.2394 -0.0044  0.4177
34186SOL    HW2 5961   7.158   3.548   9.397 -0.3873 -0.8504  1.2333
34187SOL     OW 5962   4.512   5.438   7.928  0.1970  0.2509  0.5189
34187SOL    HW1 5963   4.457   5.403   7.858 -0.4707 -1.0175  1.6337
34187SOL    HW2 5964   4.490   5.531   7.933  0.2387  0.3575 -0.9151
34188SOL     OW 5965   8.900   5.799   8.917  0.3175  0.3564  0.1835
34188SOL    HW1 5966   8.905   5.821   9.010  1.5708 -1.3470  0.5555
34188SOL    HW2 5967   8.957   5.862   8.874  1.0531  0.1107  0.7872
34189SOL     OW 5968  10.593   0.465   6.306  0.0211  0.1152 -0.4832
34189SOL    HW1 5969  10.540   0.466   6.227  0.4586  1.9373 -0.7766
34189SOL    HW2 5970  10.529   0.473   6.378 -0.5637 -3.3108 -0.4297
34190SOL     OW 5971   5.654   9.993  10.734  0.6491  0.2598  0.6355
34190SOL    HW1 5972   5.745   9.963  10.728 -0.2602 -2.5097 -1.5201
34190SOL    HW2 5973   5.624   9.962  10.820  1.0661 -1.1017  0.3195
34191SOL     OW 5974   0.998   5.222   5.319  0.3910  0.5583  0.2058
34191SOL    HW1 5975   1.001   5.184   5.406  0.5729  0.7380  0.2777
34191SOL    HW2 5976   1.011   5.316   5.333 -1.4888  0.8778  0.1818
34192SOL     OW 5977   3.327   5.833   1.792  0.2235  0.2806 -0.6942
34192SOL    HW1 5978   3.245   5.876   1.817 -0.5187 -1.3778 -0.1713
34192SOL    HW2 5979   3.395   5.884   1.837 -0.6631  0.6201  0.3183
34193SOL     OW 5980  10.558   2.430  10.270  0.5574 -0.0707  0.1371
34193SOL    HW1 5981  10.567   2.482  10.190  0.2566  0.6076  0.5459
34193SOL    HW2 5982  10.647   2.421  10.302  0.4975  1.1937  0.6982
34194SOL     OW 5983   7.969   0.720   7.453  0.0007 -0.5742  0.3124
34194SOL    HW1 5984   7.982   0.701   7.360 -0.3656 -3.2658  0.7298
34194SOL    HW2 5985   8.032   0.663   7.498  1.2604  1.7937  1.7279
34195SOL     OW 5986   0.852   3.772   3.789 -0.3727  0.1803 -0.1672
34195SOL    HW1 5987   0.932   3.817   3.760  0.6235 -1.4449 -0.0712
34195SOL    HW2 5988   0.781   3.818   3.745  0.7409  0.6867 -1.5073
34196SOL     OW 5989   7.835   4.422   5.426  0.1832 -0.1199  0.3417
34196SOL    HW1 5990   7.777   4.465   5.489  0.1031 -0.5539  0.5678
34196SOL    HW2 5991   7.829   4.476   5.348 -0.7993 -0.3445  0.2470
34197SOL     OW 5992   8.513   6.104   7.007 -0.2392 -0.6307 -0.3780
34197SOL    HW1 5993   8.477   6.184   7.046  0.6874 -0.8886  1.1154
34197SOL    HW2 5994   8.606   6.124   6.994 -0.6020 -0.3807 -3.0407
34198SOL     OW 5995   2.283   6.093  10.228  0.6396 -0.4351  0.2352
34198SOL    HW1 5996   2.235   6.175  10.239 -0.5888 -1.2419  1.1208
34198SOL    HW2 5997   2.242   6.051  10.152 -0.1899 -1.1954  1.0852
34199SOL     OW 5998   8.019   0.595   7.191  0.1450  0.3958 -0.0054
34199SOL    HW1 5999   8.072   0.553   7.123 -1.5281 -0.3638 -0.8817
34199SOL    HW2 6000   7.933   0.605   7.151 -1.1520 -0.9063  2.2859
34200SOL     OW 6001   9.971   5.478   2.147  0.0055 -0.7748 -0.3796
34200SOL    HW1 6002   9.903   5.426   2.103 -1.2431  0.3030  0.2287
34200SOL    HW2 6003  10.037   5.414   2.172 -1.1652 -1.9735 -0.2641
34201SOL     OW 6004   8.108   7.023   5.783  0.2615  0.2232  0.1160
34201SOL    HW1 6005   8.048   7.064   5.845 -0.5162  0.7987 -0.9828
34201SOL    HW2 6006   8.194   7.060   5.804 -0.2571  1.6472 -0.2014
34202SOL     OW 6007   2.581   5.883   9.537  0.2309  0.1390  0.1094
34202SOL    HW1 6008   2.585   5.976   9.559  1.0957  0.5357 -1.5846
34202SOL    HW2 6009   2.672   5.856   9.528  0.1390 -1.5724  3.0988
34203SOL     OW 6010   7.072  10.332   1.998  0.0826  0.6429  0.4588
34203SOL    HW1 6011   7.084  10.325   2.093 -1.4909  0.0430  0.6355
34203SOL    HW2 6012   7.074  10.426   1.981  0.1451  0.7661  1.1046
34204SOL     OW 6013   3.167   8.488   6.377 -0.2365 -0.0539  0.2684
34204SOL    HW1 6014   3.077   8.482   6.408  0.3838  0.0419  2.2486
34204SOL    HW2 6015   3.172   8.573   6.334 -0.8015  0.5165  1.2797
34205SOL     OW 6016   6.796   4.856   1.296 -0.5063  0.1422  0.3801
34205SOL    HW1 6017   6.752   4.916   1.357 -0.3194 -0.6012  1.2767
34205SOL    HW2 6018   6.768   4.769   1.325 -0.4715 -0.2302 -0.6651
34206SOL     OW 6019   3.170   8.733   7.451 -0.5817 -0.5120 -0.1607
34206SOL    HW1 6020   3.138   8.725   7.541 -0.4565  1.3255  0.0775
34206SOL    HW2 6021   3.095   8.768   7.402 -0.6942 -1.6283 -0.8165
34207SOL     OW 6022   7.136   9.247   0.803 -0.8172 -0.0503  0.7726
34207SOL    HW1 6023   7.043   9.229   0.816 -0.7087 -1.7541 -0.4270
34207SOL    HW2 6024   7.141   9.286   0.715 -0.3240 -0.7579  0.4790
34208SOL     OW 6025  10.166   1.640   2.832 -0.0356  0.0531 -0.0018
34208SOL    HW1 6026  10.239   1.631   2.771  0.2206  1.7730 -0.0078
34208SOL    HW2 6027  10.182   1.723   2.877 -0.8630 -0.5870  1.5586
34209SOL     OW 6028   4.826   3.917   7.180  0.1673  0.5785 -0.4192
34209SOL    HW1 6029   4.859   3.867   7.105  0.5934 -2.0652  1.3915
34209SOL    HW2 6030   4.731   3.906   7.177  0.2386 -0.1488 -0.1978
34210SOL     OW 6031   0.497   7.589  10.183  0.1754 -0.0711 -0.1695
34210SOL    HW1 6032   0.584   7.588  10.222 -0.5198 -1.2080  1.4736
34210SOL    HW2 6033   0.487   7.503  10.143  0.3310  0.5778 -1.6626
34211SOL     OW 6034   7.671   4.011   7.569 -0.0126 -0.8036  0.1776
34211SOL    HW1 6035   7.691   4.038   7.479 -0.3025  0.6160  0.5126
34211SOL    HW2 6036   7.617   3.933   7.559  0.5800 -1.0947 -0.8665
34212SOL     OW 6037   5.742   7.103   2.946 -0.4479  0.1672 -0.2154
34212SOL    HW1 6038   5.817   7.045   2.959  1.0200  1.5504 -1.9165
34212SOL    HW2 6039   5.667   7.052   2.975  1.1320 -1.2158  1.7780
34213SOL     OW 6040   5.564   4.083   1.595 -0.0223 -0.5766 -0.8821
34213SOL    HW1 6041   5.529   4.074   1.506 -0.6425 -1.6530 -0.5496
34213SOL    HW2 6042   5.528   4.166   1.626 -2.1686 -1.5374 -0.6316
34214SOL     OW 6043   9.276   2.859   0.208 -0.3986 -0.1637  0.2184
34214SOL    HW1 6044   9.185   2.833   0.196  0.3235 -2.5336 -0.6270
34214SOL    HW2 6045   9.298   2.830   0.296 -0.0622 -0.9074 -0.1075
34215SOL     OW 6046   3.644   5.810   0.370  0.3813  0.1633  0.4860
34215SOL    HW1 6047   3.573   5.793   0.307 -1.1541 -1.2441  2.4755
34215SOL    HW2 6048   3.607   5.874   0.431 -0.0721 -2.1000  2.7597
34216SOL     OW 6049  10.715   1.861   2.887 -0.1904  0.3107 -0.0855
34216SOL    HW1 6050  10.741   1.771   2.866 -1.0516  0.5100 -2.2579
34216SOL    HW2 6051  10.789   1.915   2.858  0.0446  0.3767  0.6073
34217SOL     OW 6052   5.391   4.383   9.909 -0.5722 -0.3845  0.6651
34217SOL    HW1 6053   5.369   4.452   9.971 -1.2616  2.4700 -2.4722
34217SOL    HW2 6054   5.308   4.357   9.870 -0.0561 -1.2499  0.0882
34218SOL     OW 6055   3.266   9.535   6.607 -0.1971  0.7753  0.4059
34218SOL    HW1 6056   3.268   9.441   6.625  1.3865  0.8378  0.6868
34218SOL    HW2 6057   3.178   9.563   6.633 -0.6187 -0.5860  0.4934
34219SOL     OW 6058   2.183   0.233   0.989  0.0420  0.4223 -0.1439
34219SOL    HW1 6059   2.094   0.262   0.969 -1.1163 -1.6760  1.6064
34219SOL    HW2 6060   2.209   0.285   1.065 -0.8932 -0.9114  1.1562
34220SOL     OW 6061   2.275   4.083   7.397 -0.2566  0.3432 -0.1586
34220SOL    HW1 6062   2.320   4.137   7.331  0.6073  2.2125  1.8355
34220SOL    HW2 6063   2.341   4.066   7.463 -1.1542 -1.3243  0.3514
34221SOL     OW 6064   0.711  10.914   9.542  0.4228  0.2434 -0.1134
34221SOL    HW1 6065   0.785  10.853   9.536 -0.0055 -0.4345  1.1206
34221SOL    HW2 6066   0.701  10.930   9.635 -0.4335  1.0265 -0.3279
34222SOL     OW 6067   3.763   8.122   0.714 -0.5206  0.1168  0.4070
34222SOL    HW1 6068   3.850   8.128   0.674 -1.5599  1.6216 -1.8126
34222SOL    HW2 6069   3.752   8.204   0.761 -0.2656 -0.6498  1.8878
34223SOL     OW 6070   9.225   2.228   6.119 -0.1697 -0.4021  0.4825
34223SOL    HW1 6071   9.265   2.272   6.044  2.3925  0.5927  2.3017
34223SOL    HW2 6072   9.227   2.135   6.095  1.0185 -0.1492 -0.5252
34224SOL     OW 6073   9.501   1.610   5.017 -0.0214 -0.2619  0.6790
34224SOL    HW1 6074   9.505   1.696   5.058 -1.9148  0.0573  0.2628
34224SOL    HW2 6075   9.518   1.549   5.089 -0.3202  0.4045  1.3317
34225SOL     OW 6076   2.850   3.717   2.671 -0.2981  0.2204  0.0550
34225SOL    HW1 6077   2.887   3.805   2.679 -0.3826  0.2830 -0.2278
34225SOL    HW2 6078   2.899   3.664   2.734  3.0668 -0.6192 -2.9556
34226SOL     OW 6079   0.573   0.091   5.295 -0.1819  0.3342 -0.7620
34226SOL    HW1 6080   0.667   0.087   5.313 -0.6901  1.0196  2.6583
34226SOL    HW2 6081   0.556   0.015   5.238  1.9926 -1.5915  0.9716
34227SOL     OW 6082   1.052   3.609   0.535 -0.0418  0.1701  0.4996
34227SOL    HW1 6083   1.147   3.621   0.530 -0.4152  3.4766 -2.1782
34227SOL    HW2 6084   1.025   3.591   0.444 -1.9263 -1.9006  1.3750
34228SOL     OW 6085   9.362   4.197  10.721 -0.3894  0.6133 -0.2260
34228SOL    HW1 6086   9.407   4.205  10.805 -0.1861  2.6027 -0.4789
34228SOL    HW2 6087   9.270   4.184  10.744 -0.4026  1.6103  0.3061
34229SOL     OW 6088   0.890  10.211   8.882  0.2917  0.2767 -0.5812
34229SOL    HW1 6089   0.829  10.283   8.865 -1.1209 -0.7266  0.0694
34229SOL    HW2 6090   0.885  10.197   8.976  0.8213 -0.4429 -0.6512
34230SOL     OW 6091   8.167   1.135   9.995 -0.2380  0.5408  0.3317
34230SOL    HW1 6092   8.116   1.055  10.011 -0.5004  0.0974 -2.2923
34230SOL    HW2 6093   8.254   1.115  10.029  0.0166 -1.3478 -1.2585
34231SOL     OW 6094   5.859   0.723   9.980  0.1963 -0.1278 -0.1617
34231SOL    HW1 6095   5.780   0.776   9.989  0.3530  0.0877 -0.0619
34231SOL    HW2 6096   5.871   0.682  10.066  0.4942  0.2600 -0.0172
34232SOL     OW 6097   4.559   3.634   2.249 -0.2997  0.1476 -0.0229
34232SOL    HW1 6098   4.472   3.610   2.218 -0.1164  0.6491 -0.9718
34232SOL    HW2 6099   4.581   3.713   2.199 -0.0384  1.0859  1.5256
34233SOL     OW 6100   7.700   4.748   9.242  0.0926 -0.5160  0.4469
34233SOL    HW1 6101   7.659   4.833   9.256  2.3729  0.7033  0.1535
34233SOL    HW2 6102   7.718   4.745   9.148 -0.4727 -1.6037  0.3479
34234SOL     OW 6103   7.112   2.099   0.776  0.1300 -0.0179  0.2933
34234SOL    HW1 6104   7.027   2.140   0.788  0.7119  1.1066  0.7600
34234SOL    HW2 6105   7.132   2.059   0.861  0.1460 -0.1238  0.2402
34235SOL     OW 6106   4.529   4.026   1.352 -0.5264  0.4706 -0.3443
34235SOL    HW1 6107   4.620   4.016   1.377 -0.6514 -1.0243 -0.4321
34235SOL    HW2 6108   4.490   4.076   1.424  0.6943  2.6672 -1.1170
34236SOL     OW 6109   2.697   5.897   4.086  0.5861  0.2311  0.0486
34236SOL    HW1 6110   2.643   5.908   4.164  0.8270 -1.0077  0.4111
34236SOL    HW2 6111   2.763   5.966   4.093 -0.8514  1.7212 -0.3625
34237SOL     OW 6112  10.425   7.410   5.358 -0.3787 -0.3638 -0.0945
34237SOL    HW1 6113  10.500   7.373   5.312 -0.7979 -2.0299  0.4680
34237SOL    HW2 6114  10.385   7.471   5.296  1.2211  0.2970 -0.5139
34238SOL     OW 6115   4.112   9.823   7.811 -0.2543  0.6628  0.1666
34238SOL    HW1 6116   4.169   9.892   7.777 -0.3412 -0.2309 -1.9454
34238SOL    HW2 6117   4.172   9.751   7.833 -0.3659  0.5583  0.1293
34239SOL     OW 6118   8.663   6.469   5.983 -0.1107  0.6204  0.3572
34239SOL    HW1 6119   8.733   6.431   5.929 -1.1105  0.0600 -0.5729
34239SOL    HW2 6120   8.701   6.550   6.017  1.3152 -0.1188  0.6388
34240SOL     OW 6121   4.506   9.904   9.774 -0.5247 -0.0130  0.1366
34240SOL    HW1 6122   4.596   9.936   9.786 -0.6843  0.9678 -1.0802
34240SOL    HW2 6123   4.479   9.940   9.689 -2.0123 -0.4370  0.4043
34241SOL     OW 6124   3.185   0.281   0.656 -0.0665  0.0571 -0.3710
34241SOL    HW1 6125   3.165   0.372   0.633  0.0732  0.6305  1.6154
34241SOL    HW2 6126   3.280   0.279   0.663 -0.0996 -0.1447 -0.0037
34242SOL     OW 6127   5.182   9.257  10.405  0.0156 -0.2739  0.1861
34242SOL    HW1 6128   5.224   9.281  10.488  0.1937 -1.1314  0.3598
34242SOL    HW2 6129   5.220   9.172  10.383  0.2654  0.1219 -0.9907
34243SOL     OW 6130   7.425  10.739   8.915 -0.0551  0.4583 -0.3859
34243SOL    HW1 6131   7.346  10.705   8.957  0.0205  0.2050 -0.4419
34243SOL    HW2 6132   7.449  10.670   8.852  0.5904  0.2247  0.1084
34244SOL     OW 6133   3.470   5.734   4.589 -0.1401  0.2522  0.0770
34244SOL    HW1 6134   3.420   5.739   4.670  1.8961 -1.8812  1.5732
34244SOL    HW2 6135   3.478   5.641   4.571  0.3920  0.6498 -2.0386
34245SOL     OW 6136   1.828   5.262   2.946  0.3121  0.3838 -0.1157
34245SOL    HW1 6137   1.803   5.171   2.928  2.6345  0.0923 -2.4843
34245SOL    HW2 6138   1.747   5.311   2.938 -0.9043 -1.4054  0.6742
34246SOL     OW 6139   7.226   2.930   0.030  0.0578 -0.0275 -0.1575
34246SOL    HW1 6140   7.163   2.862   0.006 -0.1314  0.6667 -1.7494
34246SOL    HW2 6141   7.300   2.916  -0.029  0.3022  0.7199 -0.0342
34247SOL     OW 6142   2.791   8.605   5.536  0.0451 -0.3533 -0.0438
34247SOL    HW1 6143   2.777   8.511   5.543 -1.6986 -0.0907  0.4943
34247SOL    HW2 6144   2.883   8.614   5.512  0.1216 -2.1986 -0.5769
34248SOL     OW 6145   2.963  10.647   6.332 -0.6957  0.9693 -0.7251
34248SOL    HW1 6146   2.919  10.714   6.385  2.3018  0.2798  3.0690
34248SOL    HW2 6147   3.047  10.687   6.308  0.2294 -0.6374 -0.2811
34249SOL     OW 6148   5.338   3.618   9.559  0.0049  0.3842 -0.1967
34249SOL    HW1 6149   5.282   3.589   9.631  1.8825  0.5353  1.4325
34249SOL    HW2 6150   5.324   3.553   9.490 -0.9629 -0.4856  0.7710
34250SOL     OW 6151  10.641   0.148   8.397 -0.3207  0.0129  0.3947
34250SOL    HW1 6152  10.597   0.177   8.477  1.0850 -1.0655  1.6189
34250SOL    HW2 6153  10.570   0.138   8.334 -1.5920  0.1457  1.7270
34251SOL     OW 6154  10.119   5.818   5.830  0.5032 -0.0838  0.0507
34251SOL    HW1 6155  10.078   5.826   5.916 -1.1108 -1.1054 -0.5663
34251SOL    HW2 6156  10.203   5.863   5.838  0.4927 -0.3758  2.2210
34252SOL     OW 6157   6.281   3.935   2.559 -0.0803  0.2403  0.0599
34252SOL    HW1 6158   6.358   3.992   2.552  0.4557 -0.4949 -0.2895
34252SOL    HW2 6159   6.222   3.967   2.491  0.4036  0.1079 -0.4355
34253SOL     OW 6160   0.783  10.602   0.905 -0.1703  0.0393 -0.1372
34253SOL    HW1 6161   0.734  10.616   0.986  1.9681  1.1631  1.0338
34253SOL    HW2 6162   0.725  10.635   0.836 -1.6470 -0.0748  0.9928
34254SOL     OW 6163   5.945   8.779   1.122  0.2703 -0.3721 -0.9447
34254SOL    HW1 6164   5.902   8.862   1.101 -0.4435 -0.5442 -0.1982
34254SOL    HW2 6165   5.928   8.766   1.215  1.4679 -0.7303 -0.7625
34255SOL     OW 6166   5.034   5.185   2.003  0.2113 -0.3847  0.3992
34255SOL    HW1 6167   5.026   5.095   1.972  0.4704 -1.0943  2.2640
34255SOL    HW2 6168   4.954   5.201   2.053  0.7652 -0.0754  1.2139
34256SOL     OW 6169   4.592   2.333   0.958 -0.5231  0.4327 -0.0308
34256SOL    HW1 6170   4.500   2.312   0.944 -0.2190  0.2014 -1.9751
34256SOL    HW2 6171   4.605   2.415   0.910  0.3055  0.3806  0.0939
34257SOL     OW 6172   4.827   0.648   6.033  0.2633  0.2680  0.3280
34257SOL    HW1 6173   4.747   0.676   5.989 -0.8444 -2.3564  0.4888
34257SOL    HW2 6174   4.808   0.657   6.126 -1.2487 -3.4394  0.5234
34258SOL     OW 6175   7.458   3.285   8.247 -0.4636 -0.0775 -0.0468
34258SOL    HW1 6176   7.438   3.192   8.232 -1.0542  0.1187 -0.5185
34258SOL    HW2 6177   7.454   3.295   8.342  0.8999 -0.8098  0.1051
34259SOL     OW 6178   7.285   8.919   3.601 -0.4821 -0.8181  0.6325
34259SOL    HW1 6179   7.375   8.934   3.571 -1.3915 -1.0493 -2.5255
34259SOL    HW2 6180   7.269   8.991   3.663  1.0129  0.8620 -0.8075
34260SOL     OW 6181   7.520   9.222   5.073 -0.4034 -0.2054  0.9273
34260SOL    HW1 6182   7.437   9.215   5.119 -0.4118  0.9796  1.1188
34260SOL    HW2 6183   7.517   9.153   5.007 -2.3285  0.9671 -0.2827
34261SOL     OW 6184   1.539   0.956   7.265 -0.1534  0.9724 -0.4581
34261SOL    HW1 6185   1.602   1.020   7.295  0.3173 -0.0534  0.8438
34261SOL    HW2 6186   1.479   1.005   7.208  0.6149  2.3746 -0.0869
34262SOL     OW 6187   5.096   0.833   0.023  0.0528  0.0397 -0.2166
34262SOL    HW1 6188   5.171   0.809   0.077  0.1492  1.2438  0.2077
34262SOL    HW2 6189   5.020   0.795   0.068  0.0475  1.6053  1.1823
34263SOL     OW 6190   8.518   3.107   3.566 -0.7599 -0.4142 -0.5199
34263SOL    HW1 6191   8.531   3.099   3.660 -1.3637  0.0208 -0.3965
34263SOL    HW2 6192   8.462   3.184   3.556  0.0617  0.1021 -1.2961
34264SOL     OW 6193   2.399  10.647   3.483 -0.6395  0.3892 -0.0776
34264SOL    HW1 6194   2.376  10.656   3.390  1.2051  1.3122 -0.4896
34264SOL    HW2 6195   2.444  10.728   3.505  2.2460 -1.2259  0.5671
34265SOL     OW 6196   0.519   1.376   2.590 -0.0824 -0.3222  0.8221
34265SOL    HW1 6197   0.567   1.414   2.516 -1.9251 -0.9346 -0.7758
34265SOL    HW2 6198   0.586   1.328   2.639  1.0267 -1.0148 -1.2153
34266SOL     OW 6199   4.802   8.925   0.105  0.0268 -0.1364 -0.3048
34266SOL    HW1 6200   4.791   8.982   0.029 -0.1389 -0.1144 -0.2654
34266SOL    HW2 6201   4.780   8.980   0.180  2.2239  0.4901 -0.0309
34267SOL     OW 6202   9.163   8.304   8.834  0.4196  0.1422  0.6618
34267SOL    HW1 6203   9.187   8.340   8.920  0.7907  0.2578  0.5129
34267SOL    HW2 6204   9.226   8.343   8.773 -0.5315  0.9307  0.1597
34268SOL     OW 6205  10.192   8.291  10.692  0.0692 -0.0649  0.0630
34268SOL    HW1 6206  10.119   8.345  10.663 -1.3322 -1.3438  1.0476
34268SOL    HW2 6207  10.180   8.208  10.646  1.1044 -0.1890 -0.0068
34269SOL     OW 6208  10.803   9.241   0.567 -0.5617  0.0632 -0.1194
34269SOL    HW1 6209  10.847   9.300   0.505 -0.7601  1.3121  0.8790
34269SOL    HW2 6210  10.732   9.294   0.604 -2.0219 -1.4428 -0.6191
34270SOL     OW 6211  10.806   0.853   7.464 -0.0842  0.3132 -0.5300
34270SOL    HW1 6212  10.877   0.815   7.516 -0.7227 -0.9671 -0.5395
34270SOL    HW2 6213  10.833   0.841   7.373  0.7351  1.9634 -0.5375
34271SOL     OW 6214   0.278   7.997   7.008  0.5994 -0.1146 -0.1146
34271SOL    HW1 6215   0.323   8.003   6.924  1.6910  1.4254  0.5488
34271SOL    HW2 6216   0.232   8.080   7.017  3.0113  1.1248  2.1472
34272SOL     OW 6217   3.964   8.442   6.050  0.3438 -0.2235  0.2291
34272SOL    HW1 6218   3.937   8.534   6.047  0.8049 -0.0580  0.8527
34272SOL    HW2 6219   3.951   8.410   5.961 -2.1601 -0.2453  0.5205
34273SOL     OW 6220   3.960   9.709   0.660 -0.3279  0.4790 -0.1497
34273SOL    HW1 6221   4.038   9.715   0.715 -0.7182 -0.2178  0.5104
34273SOL    HW2 6222   3.890   9.747   0.713 -0.7593 -0.4333 -0.0498
34274SOL     OW 6223   4.051  10.294   5.992 -0.2822 -0.0445  0.2670
34274SOL    HW1 6224   3.993  10.279   5.917  0.6986 -0.3633 -0.4451
34274SOL    HW2 6225   4.108  10.367   5.964  0.7151 -0.7823  0.3237
34275SOL     OW 6226   0.713   1.295   0.368 -0.2457  0.4301 -0.1462
34275SOL    HW1 6227   0.701   1.341   0.285  1.9232  1.0187 -0.1985
34275SOL    HW2 6228   0.736   1.364   0.430  1.1035 -0.3430  0.2375
34276SOL     OW 6229   7.751   1.848   5.838 -0.0780  0.3927 -0.2204
34276SOL    HW1 6230   7.780   1.776   5.894 -1.1472 -3.0359 -3.6238
34276SOL    HW2 6231   7.832   1.884   5.801  0.4112 -0.1034  0.3455
34277SOL     OW 6232   6.204   3.720   5.777  0.6333 -0.3443 -0.2600
34277SOL    HW1 6233   6.136   3.734   5.844  0.4385  1.2319 -0.7528
34277SOL    HW2 6234   6.189   3.630   5.747 -1.2703 -0.0212 -0.3824
34278SOL     OW 6235   4.888   1.060   9.306 -0.3198 -0.1068 -0.0546
34278SOL    HW1 6236   4.813   1.119   9.296  0.6469  1.1782 -0.0023
34278SOL    HW2 6237   4.905   1.027   9.218  1.4388  2.6893 -0.8958
34279SOL     OW 6238   1.934   5.867   4.355 -0.2519  0.4590  0.0456
34279SOL    HW1 6239   1.868   5.905   4.413 -1.3689 -2.1739  0.6752
34279SOL    HW2 6240   1.987   5.812   4.413  0.8105  0.4460 -0.9131
34280SOL     OW 6241   5.061   9.776   8.045 -0.2640  0.3678  0.0808
34280SOL    HW1 6242   5.050   9.864   8.011 -0.9739 -0.0592 -0.8347
34280SOL    HW2 6243   5.065   9.787   8.140 -2.5602  1.2082  0.1467
34281SOL     OW 6244   5.338   0.971   4.438 -0.5993 -0.3897  0.2637
34281SOL    HW1 6245   5.247   0.963   4.410 -0.3763  0.2936 -0.6930
34281SOL    HW2 6246   5.360   1.063   4.424  0.1621 -0.4910  0.7335
34282SOL     OW 6247   5.783   8.211   5.797  0.3107  0.2821 -0.6039
34282SOL    HW1 6248   5.831   8.264   5.860 -0.1502  0.0024 -0.0053
34282SOL    HW2 6249   5.713   8.268   5.765 -0.4708 -0.0957  0.3878
34283SOL     OW 6250   4.811   8.153   7.694 -0.3498  0.3314  0.5686
34283SOL    HW1 6251   4.741   8.090   7.706 -0.7011  0.9941  2.3820
34283SOL    HW2 6252   4.848   8.165   7.782 -0.2636  2.5711  0.3001
34284SOL     OW 6253   8.233   9.506   4.355 -0.2053  0.7829  0.2779
34284SOL    HW1 6254   8.178   9.579   4.326  0.8244  1.7700  0.6736
34284SOL    HW2 6255   8.242   9.519   4.449 -0.0398  0.1153  0.3572
34285SOL     OW 6256   9.081   6.713   9.129 -0.3787 -0.1324  0.7499
34285SOL    HW1 6257   9.044   6.801   9.136 -0.4311 -0.1394  0.5849
34285SOL    HW2 6258   9.009   6.655   9.154 -0.8718 -0.2048 -0.7083
34286SOL     OW 6259   9.644   5.777   7.485 -0.2726  0.0803  0.1660
34286SOL    HW1 6260   9.665   5.793   7.393 -0.6940 -1.2229 -0.1831
34286SOL    HW2 6261   9.680   5.853   7.532  1.2026  0.0814 -0.9010
34287SOL     OW 6262   6.660   8.459   5.368 -0.0765  0.1767  0.0455
34287SOL    HW1 6263   6.609   8.507   5.434  1.1317  1.4382  0.1261
34287SOL    HW2 6264   6.663   8.519   5.293 -2.4626 -1.7201 -1.7158
34288SOL     OW 6265   6.813   2.043   7.804 -0.0052  0.6304 -0.3361
34288SOL    HW1 6266   6.873   1.971   7.821  0.2043  1.3063  2.0589
34288SOL    HW2 6267   6.860   2.122   7.833 -1.2567  1.4162 -0.3519
34289SOL     OW 6268   5.870   9.403   1.385 -0.5241  0.1031 -0.7180
34289SOL    HW1 6269   5.837   9.359   1.307  0.9039 -0.6750 -0.9021
34289SOL    HW2 6270   5.882   9.333   1.449  3.4341 -0.1805 -1.5635
34290SOL     OW 6271   6.976   1.972   8.102 -0.2538 -0.1681  0.1234
34290SOL    HW1 6272   7.050   2.018   8.140 -0.1580 -0.8417  0.7632
34290SOL    HW2 6273   6.899   2.014   8.141 -0.2336  0.5876 -0.6055
34291SOL     OW 6274   5.690   1.074   0.322  0.1752  0.7569 -0.1162
34291SOL    HW1 6275   5.671   1.075   0.416 -0.4131 -0.2689 -0.2077
34291SOL    HW2 6276   5.712   0.983   0.303 -1.9128  0.4502 -1.3683
34292SOL     OW 6277   2.253   3.798   3.665  0.1272 -0.2760  0.0027
34292SOL    HW1 6278   2.204   3.781   3.584 -1.8889  0.0477  1.0961
34292SOL    HW2 6279   2.246   3.717   3.715  2.6544 -1.0243 -0.6765
34293SOL     OW 6280   7.876   2.265  10.529  0.2388 -0.1579 -0.2347
34293SOL    HW1 6281   7.819   2.208  10.477 -0.7432  0.4942  0.1127
34293SOL    HW2 6282   7.905   2.333  10.468 -0.0951  0.0331 -0.1785
34294SOL     OW 6283   9.425   4.491   9.405  0.0951  0.0991 -0.5129
34294SOL    HW1 6284   9.498   4.488   9.343 -0.4854  0.1890 -1.2163
34294SOL    HW2 6285   9.363   4.553   9.366 -0.7130 -0.5797 -0.3328
34295SOL     OW 6286   4.144   3.558   4.621 -0.3087 -0.5860 -0.8137
34295SOL    HW1 6287   4.185   3.636   4.659  0.7815 -1.3548 -0.3608
34295SOL    HW2 6288   4.183   3.549   4.535  0.6752 -1.4389 -0.3005
34296SOL     OW 6289   7.165   7.497   1.482  0.3726  0.4419  0.3893
34296SOL    HW1 6290   7.144   7.588   1.460 -1.9004  0.4018  2.0323
34296SOL    HW2 6291   7.091   7.446   1.448  0.6848 -0.5315  1.1104
34297SOL     OW 6292   3.645   2.581   6.283 -1.0697 -0.3791 -0.0477
34297SOL    HW1 6293   3.581   2.628   6.336  0.8677  1.0118  1.1770
34297SOL    HW2 6294   3.705   2.542   6.346  0.4045 -0.0077 -1.1697
34298SOL     OW 6295   0.253   6.925   6.205 -0.4773  0.3077  0.5604
34298SOL    HW1 6296   0.191   6.852   6.215 -1.0416  0.9756  2.2235
34298SOL    HW2 6297   0.329   6.900   6.258  0.2589 -0.0258 -0.6187
34299SOL     OW 6298   5.308   8.562   1.913 -0.3250  0.0686 -0.6722
34299SOL    HW1 6299   5.396   8.531   1.932 -0.9693 -1.1648  0.4403
34299SOL    HW2 6300   5.317   8.611   1.832  1.1618 -1.1297 -1.2794
34300SOL     OW 6301   7.239   3.448  10.630  0.1771  0.4583  0.0104
34300SOL    HW1 6302   7.228   3.543  10.627 -0.9552  0.5022  2.6364
34300SOL    HW2 6303   7.327   3.435  10.664 -0.2839  0.6547  1.3477
34301SOL     OW 6304   3.994  10.893   9.841 -0.0922  0.5024  0.0168
34301SOL    HW1 6305   4.078  10.931   9.865  0.0646  1.0693 -1.3167
34301SOL    HW2 6306   3.997  10.804   9.875  2.0752 -0.3239 -2.0545
34302SOL     OW 6307   8.522   5.558   1.012 -0.2615 -0.4827 -0.1967
34302SOL    HW1 6308   8.439   5.516   1.033  0.0372 -0.6644  0.7192
34302SOL    HW2 6309   8.567   5.496   0.955 -0.1894 -1.0196  0.4346
34303SOL     OW 6310   0.005   2.016   2.514  0.6722  0.1335 -0.1937
34303SOL    HW1 6311  -0.022   2.089   2.457 -0.7112 -0.5795 -0.4841
34303SOL    HW2 6312  -0.038   1.939   2.477  2.3136 -0.9087 -0.0451
34304SOL     OW 6313   6.781   1.644   7.643 -0.0413  0.2467 -0.2720
34304SOL    HW1 6314   6.791   1.549   7.644 -2.5777 -0.0911  0.5054
34304SOL    HW2 6315   6.868   1.677   7.623  1.2121 -2.1869  0.7543
34305SOL     OW 6316   1.379   4.584   2.582  0.1862 -0.2788 -0.0061
34305SOL    HW1 6317   1.319   4.509   2.587  0.6217 -0.5949  0.7651
34305SOL    HW2 6318   1.346   4.645   2.649  0.8863 -0.5907  0.6416
34306SOL     OW 6319  10.237   7.984   2.172 -0.4244  0.0207 -0.1261
34306SOL    HW1 6320  10.233   8.016   2.081  0.4376  3.1537  0.8212
34306SOL    HW2 6321  10.322   8.013   2.204 -0.6326 -1.2015  1.6692
34307SOL     OW 6322   6.820   3.577   6.130  0.1811 -0.1482 -0.2120
34307SOL    HW1 6323   6.837   3.671   6.127  0.1648 -0.1264  0.2812
34307SOL    HW2 6324   6.755   3.567   6.200  0.7550 -0.6023  0.2704
34308SOL     OW 6325   0.650   0.736   2.190  0.4792  0.0704  0.6674
34308SOL    HW1 6326   0.732   0.740   2.140 -0.1782 -0.8950 -0.5455
34308SOL    HW2 6327   0.658   0.806   2.255  1.7077  0.8610 -0.2880
34309SOL     OW 6328   2.647   4.532  10.916 -0.0061  0.6278 -0.4020
34309SOL    HW1 6329   2.623   4.625  10.919 -1.2496  0.3010  1.1247
34309SOL    HW2 6330   2.613   4.502  10.831 -1.7150  1.0632  0.0829
34310SOL     OW 6331   4.579   1.633   0.347  0.1373 -0.2076  0.8316
34310SOL    HW1 6332   4.665   1.645   0.308 -0.9822 -1.5369 -2.3916
34310SOL    HW2 6333   4.595   1.628   0.441  3.3393  1.1274  0.4699
34311SOL     OW 6334   1.297   0.869   0.245  0.5808  0.1672  0.5014
34311SOL    HW1 6335   1.218   0.823   0.216 -0.5164  2.2062  0.0689
34311SOL    HW2 6336   1.291   0.870   0.340  0.6700 -0.6470  0.5212
34312SOL     OW 6337   6.104   9.040   3.753  0.1687 -0.0378 -0.2393
34312SOL    HW1 6338   6.199   9.049   3.756  0.1653  0.3319 -1.1091
34312SOL    HW2 6339   6.070   9.128   3.764  0.0050  0.2318 -2.3730
34313SOL     OW 6340  10.318   7.562   1.723 -0.0708 -0.4209 -0.0282
34313SOL    HW1 6341  10.310   7.486   1.665 -2.9264 -0.8250  0.7520
34313SOL    HW2 6342  10.300   7.637   1.666 -2.1704 -0.7630  0.1096
34314SOL     OW 6343   9.044   3.128   7.679  0.0236  0.9608 -0.0907
34314SOL    HW1 6344   8.968   3.184   7.696 -0.3422  1.0179 -1.7375
34314SOL    HW2 6345   9.119   3.186   7.685 -0.2716  1.4286 -0.7635
34315SOL     OW 6346   8.751   6.458   4.720 -0.5969  0.1234  0.3905
34315SOL    HW1 6347   8.659   6.456   4.746 -1.3034 -0.9684 -1.9876
34315SOL    HW2 6348   8.798   6.417   4.793 -1.9188  0.9746  1.7728
34316SOL     OW 6349   0.017   2.163   6.307  0.6434  0.4025  0.5303
34316SOL    HW1 6350  -0.076   2.151   6.326  0.5791 -0.1020 -0.0464
34316SOL    HW2 6351   0.052   2.074   6.304  1.0222  0.5617  0.1661
34317SOL     OW 6352   0.340   4.814   1.585 -0.6845  0.5769 -0.1668
34317SOL    HW1 6353   0.398   4.745   1.616 -1.7866 -0.2198  0.1890
34317SOL    HW2 6354   0.391   4.862   1.520  0.0492 -0.6424 -0.5038
34318SOL     OW 6355  10.371   2.508   8.263 -0.0115  0.4840  0.0312
34318SOL    HW1 6356  10.345   2.483   8.351  0.4417  0.1914  0.0853
34318SOL    HW2 6357  10.290   2.502   8.212 -0.6902  2.4740  0.7941
34319SOL     OW 6358   4.453   3.673   9.953  0.5423 -0.1577 -0.0335
34319SOL    HW1 6359   4.492   3.600  10.002 -1.0240 -0.1036  1.3682
34319SOL    HW2 6360   4.487   3.751   9.996  0.4756 -0.0790 -0.1239
34320SOL     OW 6361   7.795   2.563   6.479  0.6158 -0.0342  0.1725
34320SOL    HW1 6362   7.814   2.656   6.474  0.0459  0.0408 -1.1108
34320SOL    HW2 6363   7.881   2.520   6.476  0.8064  0.4076 -1.0414
34321SOL     OW 6364   5.247   9.310   2.762 -0.1848 -0.1030 -0.1173
34321SOL    HW1 6365   5.278   9.373   2.827  1.4894 -0.2817 -0.6910
34321SOL    HW2 6366   5.219   9.234   2.813 -2.9038  1.2632  0.6458
34322SOL     OW 6367   1.693   4.473   2.792 -0.7442 -0.2740 -0.1886
34322SOL    HW1 6368   1.635   4.462   2.716  0.1746 -0.7730 -0.8447
34322SOL    HW2 6369   1.733   4.387   2.804 -1.1392 -0.2924  1.0955
34323SOL     OW 6370   7.425   9.962   3.560  0.4831  0.1072 -0.0353
34323SOL    HW1 6371   7.376  10.004   3.490 -0.1884 -0.2801  0.1938
34323SOL    HW2 6372   7.365   9.960   3.634  1.2325  0.6418  0.6051
34324SOL     OW 6373  10.185   3.591   5.073 -0.0485  0.1578  0.4139
34324SOL    HW1 6374  10.267   3.543   5.070  0.3144  0.6702  1.5692
34324SOL    HW2 6375  10.121   3.529   5.108 -0.3125 -0.4071 -0.9734
34325SOL     OW 6376   9.641   8.319   8.954  0.0358  0.1103 -0.1873
34325SOL    HW1 6377   9.652   8.414   8.967  1.7286 -0.1570  0.5693
34325SOL    HW2 6378   9.579   8.293   9.022 -0.3056  0.6476 -0.2835
34326SOL     OW 6379   6.811  10.794   1.535 -0.4293  0.1425  0.4256
34326SOL    HW1 6380   6.744  10.777   1.470  0.8725  2.3938 -1.6860
34326SOL    HW2 6381   6.822  10.711   1.581 -2.2520 -1.2176 -1.4251
34327SOL     OW 6382   7.895   6.441   1.555  0.1699  0.0939  0.0645
34327SOL    HW1 6383   7.806   6.408   1.568 -0.1262  1.2342  1.2241
34327SOL    HW2 6384   7.947   6.363   1.537 -0.7529 -0.8329  1.1689
34328SOL     OW 6385   4.704   7.355   6.425  0.0858 -0.4350 -0.2842
34328SOL    HW1 6386   4.716   7.399   6.509  0.2038 -0.1030 -0.4679
34328SOL    HW2 6387   4.723   7.424   6.360 -2.7040  0.1274 -0.6139
34329SOL     OW 6388   9.208   5.712   8.140 -0.7964 -0.2952  0.1482
34329SOL    HW1 6389   9.211   5.678   8.230 -0.2838 -2.2693 -0.5741
34329SOL    HW2 6390   9.189   5.806   8.151 -0.0404 -0.3353  2.3398
34330SOL     OW 6391   8.289   6.951   7.830  0.3327  0.0537 -0.2757
34330SOL    HW1 6392   8.351   6.958   7.757 -0.8566 -0.6408 -1.4013
34330SOL    HW2 6393   8.323   6.879   7.883  1.3729  0.7516  0.0368
34331SOL     OW 6394   0.043   4.396   4.101  0.3717 -0.5851 -0.8698
34331SOL    HW1 6395   0.105   4.461   4.134  0.0002 -0.9851  0.6969
34331SOL    HW2 6396   0.097   4.321   4.077  0.5793 -0.6572 -0.2029
34332SOL     OW 6397   1.050  10.226   1.708 -0.2877  1.0630  0.1149
34332SOL    HW1 6398   1.110  10.271   1.648 -0.1280  0.5205 -0.1457
34332SOL    HW2 6399   1.106  10.165   1.756 -0.6566  0.4206 -0.2600
34333SOL     OW 6400  10.356   2.089   4.088  0.2219  0.1038 -0.3672
34333SOL    HW1 6401  10.367   2.160   4.151 -0.1639 -0.8256  0.7880
34333SOL    HW2 6402  10.421   2.024   4.114 -0.9375 -0.9360  0.0447
34334SOL     OW 6403   0.007   7.940   9.437 -0.6422 -0.2195  0.2766
34334SOL    HW1 6404   0.006   7.863   9.379 -0.8192  0.2478 -0.3498
34334SOL    HW2 6405   0.084   7.927   9.492 -0.7408 -0.9095  0.2657
34335SOL     OW 6406   8.009   4.799   2.071 -0.2612 -0.4196 -0.3143
34335SOL    HW1 6407   8.003   4.893   2.085 -0.1270 -0.3769 -0.5349
34335SOL    HW2 6408   7.918   4.770   2.068 -0.3933 -0.9122  3.6191
34336SOL     OW 6409  10.885   4.686   0.261  0.0271 -0.1998 -0.1236
34336SOL    HW1 6410  10.961   4.686   0.319  0.1927  0.7171 -0.3263
34336SOL    HW2 6411  10.864   4.779   0.249  0.1930 -0.3508 -1.7778
34337SOL     OW 6412   0.207   0.754   0.957 -0.0270  0.8600 -0.0089
34337SOL    HW1 6413   0.228   0.808   1.033 -0.4538  1.0776 -0.0397
34337SOL    HW2 6414   0.221   0.664   0.986 -0.0199  0.9528  0.2756
34338SOL     OW 6415   5.418   5.191   3.160 -0.6065  0.1639 -0.5212
34338SOL    HW1 6416   5.374   5.180   3.244  0.5547 -1.1354 -0.0445
34338SOL    HW2 6417   5.509   5.209   3.183 -0.1667 -0.7313 -1.4838
34339SOL     OW 6418   0.746   9.709   1.044 -0.5228 -0.3826 -0.2239
34339SOL    HW1 6419   0.808   9.727   1.114 -0.4742 -0.3877 -0.2653
34339SOL    HW2 6420   0.770   9.770   0.975  0.8998 -1.8940 -1.1455
34340SOL     OW 6421   4.259   5.802   5.527 -0.1725  0.3182  0.7047
34340SOL    HW1 6422   4.178   5.794   5.476  0.1777  1.1659 -0.0193
34340SOL    HW2 6423   4.259   5.892   5.558 -0.8599 -0.4433  3.0880
34341SOL     OW 6424   0.093   8.341   2.291  0.1848 -0.2769 -0.0036
34341SOL    HW1 6425   0.135   8.357   2.376  2.3227 -0.2886 -1.0020
34341SOL    HW2 6426   0.150   8.279   2.246 -1.4649 -1.1012 -1.0813
34342SOL     OW 6427   4.704   2.318   4.006  0.6298  0.3484  0.2008
34342SOL    HW1 6428   4.764   2.276   4.068  0.2524  0.5582  0.7119
34342SOL    HW2 6429   4.618   2.281   4.026  0.9306 -2.1250 -2.3997
34343SOL     OW 6430   0.851   3.820   2.455 -0.3001 -0.1308  0.1864
34343SOL    HW1 6431   0.790   3.748   2.476  0.3405 -1.1955 -1.3987
34343SOL    HW2 6432   0.803   3.874   2.393 -0.4664  0.3298  0.7158
34344SOL     OW 6433   2.894   3.495   5.993  0.3548  0.0176 -0.0929
34344SOL    HW1 6434   2.852   3.447   5.922  0.9019  0.2698 -0.5926
34344SOL    HW2 6435   2.901   3.585   5.961  0.7719  0.0962  0.2069
34345SOL     OW 6436   8.704   4.189   0.150  0.1097 -0.0346  0.2963
34345SOL    HW1 6437   8.708   4.128   0.224  1.3175  1.1124  1.2357
34345SOL    HW2 6438   8.612   4.215   0.144 -0.1957 -0.9882  0.6647
34346SOL     OW 6439  10.757   2.225   4.048  0.6974 -0.0413 -0.0469
34346SOL    HW1 6440  10.811   2.186   3.980  1.2927 -2.4030  1.6596
34346SOL    HW2 6441  10.819   2.259   4.112  0.1469  0.7248  0.0963
34347SOL     OW 6442   0.962   1.471   0.292  0.0473 -0.6450  0.3657
34347SOL    HW1 6443   0.971   1.560   0.257  0.4296 -1.8319 -2.8372
34347SOL    HW2 6444   0.889   1.478   0.355 -0.0784  1.8539  0.0602
34348SOL     OW 6445   5.686   9.586   2.253  0.5143  0.0096 -0.2582
34348SOL    HW1 6446   5.616   9.580   2.189 -0.1612  2.1906  0.1848
34348SOL    HW2 6447   5.680   9.676   2.287  3.3775  0.2308 -0.0554
34349SOL     OW 6448   4.769   7.049   8.882  0.1130  0.0212 -0.0223
34349SOL    HW1 6449   4.698   7.041   8.946  0.5109 -0.8397  0.3257
34349SOL    HW2 6450   4.783   7.143   8.874  1.5462  0.1655  2.8512
34350SOL     OW 6451   8.665   6.553   9.479  0.1818 -0.2439  0.0634
34350SOL    HW1 6452   8.701   6.478   9.527 -0.5016 -1.3481 -1.0914
34350SOL    HW2 6453   8.742   6.596   9.442  0.6811  0.3522  1.6971
34351SOL     OW 6454   3.206   0.297   4.232  0.0803  0.2689 -0.0484
34351SOL    HW1 6455   3.270   0.327   4.296  0.2086 -0.8306  0.3499
34351SOL    HW2 6456   3.220   0.354   4.156 -0.2090  1.7248  0.9513
34352SOL     OW 6457   3.100   2.762   0.340 -0.2536 -0.0523 -0.3708
34352SOL    HW1 6458   3.082   2.799   0.253 -1.0295 -0.0493 -0.2220
34352SOL    HW2 6459   3.039   2.688   0.347  1.9012 -1.9900 -1.0436
34353SOL     OW 6460   8.341   0.515   1.422  0.1244 -0.5956  0.0691
34353SOL    HW1 6461   8.374   0.597   1.383  2.5788 -1.3235  0.4498
34353SOL    HW2 6462   8.382   0.511   1.508  0.0916 -2.2318  0.0430
34354SOL     OW 6463   4.129   2.421   2.936  0.5810  0.4837 -0.1399
34354SOL    HW1 6464   4.129   2.333   2.897 -0.6402  1.7576 -3.3509
34354SOL    HW2 6465   4.041   2.430   2.973  0.6440  0.4510  0.0209
34355SOL     OW 6466   8.243   3.252   8.285  0.0743 -0.0760 -0.6557
34355SOL    HW1 6467   8.236   3.246   8.380  1.6013 -0.5218 -0.5530
34355SOL    HW2 6468   8.283   3.169   8.259 -1.1589 -0.3444 -1.7988
34356SOL     OW 6469   0.491   6.945   2.537 -0.3052  0.0142 -0.4451
34356SOL    HW1 6470   0.423   6.999   2.576 -0.4467  0.6140 -1.5093
34356SOL    HW2 6471   0.493   6.866   2.592  1.2676  1.8466  2.3870
34357SOL     OW 6472   9.367   6.267   8.973 -0.3170  0.2832  0.2334
34357SOL    HW1 6473   9.289   6.288   9.024 -0.4959  0.3304 -0.0570
34357SOL    HW2 6474   9.338   6.205   8.907 -0.1242  0.3514  0.0805
34358SOL     OW 6475   9.554   4.778   4.177  0.2688 -0.1707  0.0949
34358SOL    HW1 6476   9.535   4.817   4.262  2.0788  0.1596  0.3816
34358SOL    HW2 6477   9.581   4.851   4.122 -3.9463  0.2223 -1.8896
34359SOL     OW 6478   5.417   3.919   3.243 -0.1740 -0.1620  0.4422
34359SOL    HW1 6479   5.465   3.979   3.186 -0.8661 -1.4331 -1.5791
34359SOL    HW2 6480   5.484   3.863   3.281  0.2352  0.1705  0.2267
34360SOL     OW 6481   8.989   1.018   5.429 -0.4893  0.1088 -0.0042
34360SOL    HW1 6482   9.008   0.967   5.349  0.4351 -0.0576  0.3143
34360SOL    HW2 6483   8.901   0.989   5.455 -0.4980 -0.3799 -0.5493
34361SOL     OW 6484   5.292  10.034   5.278 -0.1371 -0.1948  0.2304
34361SOL    HW1 6485   5.241   9.989   5.210  0.1184 -0.0835 -0.0367
34361SOL    HW2 6486   5.382  10.027   5.248  0.0025 -0.3481  0.6777
34362SOL     OW 6487   8.079   0.896  10.154 -0.3803  0.0847 -0.1473
34362SOL    HW1 6488   8.151   0.836  10.132  0.6669  1.5398 -0.8509
34362SOL    HW2 6489   8.096   0.922  10.244  1.7444  2.6391 -1.1355
34363SOL     OW 6490   7.966   0.401   9.677  0.4722  0.0056 -0.6540
34363SOL    HW1 6491   8.052   0.443   9.683  0.5881 -0.3916  0.6368
34363SOL    HW2 6492   7.904   0.468   9.703  0.6631 -0.5831  1.4889
34364SOL     OW 6493   8.563   5.498   8.506 -0.0428 -0.6258  0.6059
34364SOL    HW1 6494   8.533   5.432   8.568 -0.0043 -0.1603  1.1246
34364SOL    HW2 6495   8.600   5.567   8.560  0.5856 -0.5049  0.0368
34365SOL     OW 6496   4.460  10.709   5.079  0.3048 -0.1920 -0.3960
34365SOL    HW1 6497   4.508  10.693   4.998 -0.3579  0.1794 -0.8753
34365SOL    HW2 6498   4.403  10.632   5.088 -0.3764  0.2474 -0.8508
34366SOL     OW 6499   1.234   7.419   4.773 -0.0721  0.4418  0.0373
34366SOL    HW1 6500   1.201   7.345   4.822  0.1821 -0.8150 -1.6049
34366SOL    HW2 6501   1.198   7.496   4.817 -0.5985 -0.6564  1.5760
34367SOL     OW 6502   6.018   2.564   7.273  0.3774 -0.1974  0.3006
34367SOL    HW1 6503   5.982   2.477   7.253 -0.4811  0.3143 -0.4627
34367SOL    HW2 6504   5.942   2.622   7.270  0.8731  0.5188  1.2650
34368SOL     OW 6505   7.191   3.101   4.979  0.6482  0.6878  0.4866
34368SOL    HW1 6506   7.237   3.158   4.918  3.0985  0.4993  2.0340
34368SOL    HW2 6507   7.229   3.014   4.966 -2.7087 -0.7051 -1.5156
34369SOL     OW 6508   1.083   8.647   9.093 -0.1103  0.1796 -0.1016
34369SOL    HW1 6509   1.049   8.708   9.028 -0.1891 -0.3063 -0.5136
34369SOL    HW2 6510   1.007   8.596   9.121 -0.1586  0.6402  0.6622
34370SOL     OW 6511   0.638   4.799   2.401  0.3548  0.0953 -0.1326
34370SOL    HW1 6512   0.596   4.753   2.328 -0.3781  2.0236 -1.0003
34370SOL    HW2 6513   0.566   4.837   2.450  0.9631  1.6085 -0.3638
34371SOL     OW 6514   9.266   5.215   3.493  0.4053 -0.3180 -0.2122
34371SOL    HW1 6515   9.215   5.271   3.551  0.9074 -1.1226  1.0571
34371SOL    HW2 6516   9.236   5.237   3.405 -1.6439 -0.2914  0.4381
34372SOL     OW 6517   7.807   6.554  10.564  0.4844  0.1090  0.4505
34372SOL    HW1 6518   7.776   6.479  10.512 -0.5681  0.3024  0.7824
34372SOL    HW2 6519   7.899   6.562  10.540  0.3463 -0.6211 -0.4115
34373SOL     OW 6520   4.337   9.991   4.857  0.4156  0.2416  0.7924
34373SOL    HW1 6521   4.306   9.914   4.905  2.1496 -1.0572 -0.0495
34373SOL    HW2 6522   4.430   9.996   4.878  0.5492  1.4955 -0.0102
34374SOL     OW 6523   0.702   4.567   0.872 -0.7928  0.0833 -0.3721
34374SOL    HW1 6524   0.764   4.503   0.908 -0.6942  0.5917  0.3821
34374SOL    HW2 6525   0.751   4.611   0.803 -0.3710  0.3367  0.0779
34375SOL     OW 6526   9.092   4.798   1.849  0.3382  0.4935  0.2392
34375SOL    HW1 6527   9.024   4.731   1.861 -1.0815  1.7740 -0.2365
34375SOL    HW2 6528   9.060   4.851   1.776  1.3971  1.7184  0.6280
34376SOL     OW 6529   2.373   1.505   6.815 -0.7389  0.3849  0.1892
34376SOL    HW1 6530   2.420   1.431   6.777  0.1776  0.8158  0.4702
34376SOL    HW2 6531   2.311   1.531   6.746 -0.4177 -0.0444 -0.2703
34377SOL     OW 6532  10.477   4.892   4.046  0.0302 -0.1633  0.3760
34377SOL    HW1 6533  10.551   4.833   4.059 -0.1793 -0.2409  1.2839
34377SOL    HW2 6534  10.482   4.953   4.120  0.6801  1.4358 -0.9263
34378SOL     OW 6535   2.910   5.794   2.290 -0.4654  0.3056 -0.0918
34378SOL    HW1 6536   2.963   5.732   2.339 -2.1858 -1.5622 -0.4763
34378SOL    HW2 6537   2.921   5.768   2.199 -3.4860 -1.4914 -0.0824
34379SOL     OW 6538   4.527  10.564   9.368 -0.3444 -1.0217  0.4064
34379SOL    HW1 6539   4.502  10.518   9.287 -0.1771  1.7764 -1.3794
34379SOL    HW2 6540   4.463  10.636   9.375  0.8214 -0.0601  1.6820
34380SOL     OW 6541   5.715   5.776   4.676  0.1454  0.6917  0.6614
34380SOL    HW1 6542   5.803   5.786   4.640  0.5749  0.9670  1.7510
34380SOL    HW2 6543   5.706   5.682   4.692 -0.0516  0.5655 -0.1284
34381SOL     OW 6544   8.031   1.399   2.888  0.5874  0.2994  0.2004
34381SOL    HW1 6545   7.948   1.366   2.924  0.9956 -0.4421  0.4632
34381SOL    HW2 6546   8.058   1.467   2.951  1.3907 -1.1198  1.4393
34382SOL     OW 6547   7.966   4.514   7.014 -0.2680  0.2261  0.0844
34382SOL    HW1 6548   8.044   4.555   7.053 -0.7323 -0.0670  1.3818
34382SOL    HW2 6549   7.893   4.568   7.045 -0.7570 -0.7259  0.6380
34383SOL     OW 6550   4.276   4.887   7.031  0.3015  0.3516 -0.4505
34383SOL    HW1 6551   4.309   4.920   7.114 -0.5497  0.4504 -0.1416
34383SOL    HW2 6552   4.256   4.795   7.049 -2.4713  1.0068  0.2906
34384SOL     OW 6553   7.914   3.632   1.256 -0.5377  0.3319  0.8751
34384SOL    HW1 6554   7.933   3.592   1.341 -2.6184 -0.8198  0.8654
34384SOL    HW2 6555   7.848   3.699   1.275  2.0664  3.1554  0.7164
34385SOL     OW 6556   7.200   0.978   8.019 -0.0307  0.1861 -0.5626
34385SOL    HW1 6557   7.272   0.926   8.055 -0.4775 -0.7531 -1.0077
34385SOL    HW2 6558   7.188   0.945   7.930 -1.0128  0.3310 -0.4986
34386SOL     OW 6559   2.838   8.318   3.293 -0.5635 -0.3441 -0.5005
34386SOL    HW1 6560   2.804   8.303   3.205  0.1881 -0.4989 -0.7759
34386SOL    HW2 6561   2.909   8.254   3.302 -0.2332  0.0793 -0.0121
34387SOL     OW 6562   0.548   3.123   7.678  0.3820 -0.2062  0.2967
34387SOL    HW1 6563   0.489   3.091   7.611  1.5035  0.2246 -0.9413
34387SOL    HW2 6564   0.523   3.076   7.757 -0.9764 -0.7150 -0.4136
34388SOL     OW 6565   5.234   9.833   0.731 -0.4643 -0.2196 -0.2788
34388SOL    HW1 6566   5.209   9.741   0.737 -0.6667 -0.1177  0.5798
34388SOL    HW2 6567   5.315   9.839   0.782 -0.7154  0.1578  0.0881
34389SOL     OW 6568   1.204   4.084   2.861 -0.1911  0.0776  0.0902
34389SOL    HW1 6569   1.242   4.071   2.773  0.9337  0.3111  0.5204
34389SOL    HW2 6570   1.189   4.179   2.867  2.2890  0.4908  1.1020
34390SOL     OW 6571   9.515   1.044   3.500  0.4631 -0.2124  0.3192
34390SOL    HW1 6572   9.426   1.064   3.529  0.5634 -0.5738  0.8884
34390SOL    HW2 6573   9.514   1.059   3.406 -0.0310  0.4059  0.4194
34391SOL     OW 6574   3.774   0.590   4.364 -0.5735  0.1437  0.0765
34391SOL    HW1 6575   3.737   0.599   4.452  0.9210  0.6747  0.6710
34391SOL    HW2 6576   3.820   0.672   4.348  1.0042 -0.7835 -0.3194
34392SOL     OW 6577   3.713   1.937   2.313 -0.1458  0.5409  0.0649
34392SOL    HW1 6578   3.658   1.999   2.265 -0.0789  0.3009 -0.3297
34392SOL    HW2 6579   3.687   1.851   2.278  1.0303  0.4776 -0.6847
34393SOL     OW 6580   9.867   9.734   6.941 -0.4024  0.1482 -0.0647
34393SOL    HW1 6581   9.934   9.801   6.922  2.3655 -1.9019  1.6223
34393SOL    HW2 6582   9.795   9.783   6.981  1.2525  2.2160  0.5839
34394SOL     OW 6583   2.112  10.834   1.548 -0.1162  0.1866 -0.1053
34394SOL    HW1 6584   2.084  10.911   1.598  1.5469  2.0282 -1.8934
34394SOL    HW2 6585   2.070  10.760   1.594 -1.2042  2.0385  2.0824
34395SOL     OW 6586   4.853   2.509   7.841 -0.1662 -0.1980 -0.5803
34395SOL    HW1 6587   4.778   2.465   7.802  0.0220 -0.8424 -0.2369
34395SOL    HW2 6588   4.893   2.443   7.898  0.4946  0.2203 -0.5414
34396SOL     OW 6589   2.765   9.157   3.028  0.2774 -0.3906  0.5950
34396SOL    HW1 6590   2.725   9.196   2.950  1.5078 -0.5576 -0.1468
34396SOL    HW2 6591   2.842   9.211   3.046  2.5597 -2.8236 -1.0000
34397SOL     OW 6592   0.113   5.412   5.815  0.3984  0.3546 -0.1232
34397SOL    HW1 6593   0.105   5.448   5.727 -0.3999  2.1604  0.6425
34397SOL    HW2 6594   0.122   5.489   5.871 -0.2796 -0.7003  1.4922
34398SOL     OW 6595   2.839  10.206   5.315 -0.0425  0.0133  0.3153
34398SOL    HW1 6596   2.874  10.134   5.262  0.3463  0.0909  0.4624
34398SOL    HW2 6597   2.744  10.195   5.311  0.0174 -0.5929  0.4531
34399SOL     OW 6598   4.912   4.925   7.392 -0.2619  0.2299 -0.7765
34399SOL    HW1 6599   4.852   4.924   7.317 -1.5433  0.3780  0.1969
34399SOL    HW2 6600   4.996   4.950   7.356 -1.2139  1.9917 -1.9337
34400SOL     OW 6601   6.316   5.929   0.076 -0.3376 -0.4225 -0.1781
34400SOL    HW1 6602   6.293   5.841   0.048 -1.2985 -0.0834 -0.4965
34400SOL    HW2 6603   6.350   5.972  -0.002  1.2602 -0.8599  0.2469
34401SOL     OW 6604   7.390   3.061   1.883 -0.7534  0.5778  0.1409
34401SOL    HW1 6605   7.399   2.981   1.832  1.2717  2.0102 -1.9657
34401SOL    HW2 6606   7.454   3.053   1.953  0.2737  0.8070 -0.7532
34402SOL     OW 6607   3.876  10.107   3.489  0.2262  0.5275  0.4744
34402SOL    HW1 6608   3.849  10.169   3.420 -0.6563 -0.4548 -0.0875
34402SOL    HW2 6609   3.965  10.082   3.465 -0.0500  0.2419 -0.2982
34403SOL     OW 6610   8.635   7.747   4.910  0.3068 -0.6536 -0.2597
34403SOL    HW1 6611   8.576   7.683   4.950 -0.3010  0.1260  0.1339
34403SOL    HW2 6612   8.723   7.711   4.923 -0.0133 -1.3248  0.0881
34404SOL     OW 6613   4.933  10.514   2.741 -0.2924  0.6152  0.1525
34404SOL    HW1 6614   4.984  10.497   2.662 -0.7378  0.2102 -0.0516
34404SOL    HW2 6615   4.848  10.545   2.709 -0.5898  0.1311  0.4683
34405SOL     OW 6616   8.043   1.296   9.812  0.9462 -0.0829 -0.3712
34405SOL    HW1 6617   8.107   1.248   9.865  1.0566 -0.2697 -0.6681
34405SOL    HW2 6618   7.962   1.293   9.863  1.1375  0.0367 -0.0555
34406SOL     OW 6619   4.290   8.647   6.151  0.4602  0.2871 -0.0170
34406SOL    HW1 6620   4.241   8.703   6.210  0.6292 -1.4175  1.8384
34406SOL    HW2 6621   4.382   8.658   6.178  0.7642  0.8543 -1.1973
34407SOL     OW 6622   8.791   7.479   7.534  0.2046  0.0428 -0.3456
34407SOL    HW1 6623   8.780   7.406   7.473 -0.6148 -0.0876 -0.0526
34407SOL    HW2 6624   8.886   7.488   7.544  0.3302 -0.4053 -1.0700
34408SOL     OW 6625   4.103   1.856   7.845  0.0866  0.1499 -0.0400
34408SOL    HW1 6626   4.132   1.944   7.822  1.4623  0.5430  2.8053
34408SOL    HW2 6627   4.052   1.828   7.769 -0.0234  3.1818 -1.2530
34409SOL     OW 6628   9.394   7.305   4.792  0.2221  0.3796 -0.3388
34409SOL    HW1 6629   9.337   7.277   4.864 -0.8187 -2.2960 -2.0103
34409SOL    HW2 6630   9.338   7.301   4.715  2.0073  0.2162 -1.6931
34410SOL     OW 6631   3.053   5.906   9.914  0.4486 -0.5438 -0.6904
34410SOL    HW1 6632   3.036   5.835   9.975 -2.1126 -0.6223 -1.3624
34410SOL    HW2 6633   3.057   5.864   9.828  0.4497 -0.0601 -0.9356
34411SOL     OW 6634   5.291   8.199   6.301  0.0921 -0.6545 -0.1086
34411SOL    HW1 6635   5.332   8.166   6.381 -0.2102  0.4223  0.5087
34411SOL    HW2 6636   5.198   8.179   6.312  0.1709 -1.3954 -0.6608
34412SOL     OW 6637   7.977   9.353   6.901 -0.4050 -0.6353  0.1842
34412SOL    HW1 6638   8.018   9.342   6.987 -0.0535  1.7345  0.3889
34412SOL    HW2 6639   8.040   9.317   6.839  1.0279  0.9501  0.6697
34413SOL     OW 6640   9.040   3.403   2.690 -0.2664  0.0851  0.0905
34413SOL    HW1 6641   9.107   3.340   2.717 -0.9082 -1.0702 -0.9286
34413SOL    HW2 6642   8.985   3.413   2.768 -1.5236 -2.4531 -0.3811
34414SOL     OW 6643   5.048   8.092   9.813 -0.3535  0.3935 -0.4299
34414SOL    HW1 6644   5.090   8.150   9.749  0.0234  0.8815  0.2562
34414SOL    HW2 6645   5.110   8.020   9.823  0.4556  1.2084  0.7286
34415SOL     OW 6646   0.642   1.082   8.651  0.4658  0.3403 -0.0673
34415SOL    HW1 6647   0.577   1.022   8.613  0.6627  0.0240  0.0952
34415SOL    HW2 6648   0.715   1.026   8.677  0.2959  0.5406  0.8765
34416SOL     OW 6649   5.448   1.782   9.712  0.2912  0.2816 -0.0891
34416SOL    HW1 6650   5.496   1.735   9.644 -0.3060  0.2470 -0.4923
34416SOL    HW2 6651   5.515   1.809   9.774  0.7389 -0.4283 -0.2499
34417SOL     OW 6652  10.221   2.264   3.653 -0.6055 -0.1515 -0.3293
34417SOL    HW1 6653  10.163   2.337   3.631 -1.2046 -0.9045 -1.3604
34417SOL    HW2 6654  10.249   2.229   3.568  0.7455 -0.2904  0.1495
34418SOL     OW 6655   7.056   4.782  10.010  0.0952 -0.9761 -0.3405
34418SOL    HW1 6656   6.972   4.780   9.963 -1.7021 -2.6748  2.6263
34418SOL    HW2 6657   7.051   4.859  10.065  0.1084 -1.5303  0.4459
34419SOL     OW 6658   5.223   7.187  10.744  0.3650  0.3247 -0.5539
34419SOL    HW1 6659   5.194   7.096  10.738  0.3604  0.3217 -0.4857
34419SOL    HW2 6660   5.160   7.228  10.803  0.6814  0.2442 -0.1555
34420SOL     OW 6661  10.482   6.486   5.443 -0.1577 -0.0652  0.2369
34420SOL    HW1 6662  10.467   6.450   5.531  1.4639 -0.2844  0.4542
34420SOL    HW2 6663  10.467   6.580   5.453 -0.0730 -0.1000  0.7433
34421SOL     OW 6664   3.790  10.907   8.244  0.5767 -0.1640  0.4176
34421SOL    HW1 6665   3.707  10.873   8.210  0.7932  0.3514 -0.6870
34421SOL    HW2 6666   3.767  10.942   8.330 -0.3300 -0.1702  0.1968
34422SOL     OW 6667   1.353   1.971   0.604  0.3086  0.1180  0.3616
34422SOL    HW1 6668   1.336   1.924   0.685  0.7070 -0.1475  0.2932
34422SOL    HW2 6669   1.362   1.902   0.538  1.0050  0.2812  0.2832
34423SOL     OW 6670   0.357   2.177  10.046 -0.3193  0.5994  0.0376
34423SOL    HW1 6671   0.357   2.189  10.141  2.2992  0.2088  0.1583
34423SOL    HW2 6672   0.293   2.240  10.014 -0.6506  1.3240  2.0121
34424SOL     OW 6673   0.704   9.921   1.652 -0.6721  0.3007 -0.9060
34424SOL    HW1 6674   0.697   9.965   1.568  1.0487  2.1539 -0.1638
34424SOL    HW2 6675   0.762   9.977   1.704 -3.1483  0.2991  2.1999
34425SOL     OW 6676   6.712   1.987   0.062 -0.2847  0.2047  0.1546
34425SOL    HW1 6677   6.790   2.038   0.043 -0.9572  1.1690 -0.0775
34425SOL    HW2 6678   6.692   1.942  -0.020  0.5138 -0.7508  0.4596
34426SOL     OW 6679   6.602   3.457   3.327  0.0275  0.3659  0.4085
34426SOL    HW1 6680   6.680   3.505   3.355 -0.5758  1.2187  0.6849
34426SOL    HW2 6681   6.636   3.375   3.291  1.1153  1.1233 -0.3572
34427SOL     OW 6682   3.356   0.167  10.823  0.2699 -0.3556 -0.0344
34427SOL    HW1 6683   3.282   0.147  10.880 -0.7448  2.3100 -0.2675
34427SOL    HW2 6684   3.379   0.083  10.783 -1.3543 -1.6112  1.5158
34428SOL     OW 6685   1.029   2.840   8.300 -0.4102 -0.2087  0.0198
34428SOL    HW1 6686   0.983   2.908   8.350  2.1227  1.7096 -0.0532
34428SOL    HW2 6687   1.120   2.845   8.331  0.3320 -2.0444 -1.6391
34429SOL     OW 6688   5.617   3.161   2.378  0.5843  0.1510  0.1933
34429SOL    HW1 6689   5.570   3.241   2.404 -0.3840 -0.1784 -0.5274
34429SOL    HW2 6690   5.551   3.106   2.336  1.8943  0.3283 -2.3051
34430SOL     OW 6691   9.141   6.750   6.337  0.1931  0.5560  0.0197
34430SOL    HW1 6692   9.133   6.661   6.303  1.8968  0.6755 -0.7797
34430SOL    HW2 6693   9.226   6.752   6.382 -0.4623  1.3864  1.2983
34431SOL     OW 6694   9.039   3.989   6.356 -0.4013 -0.5578 -0.5446
34431SOL    HW1 6695   9.127   3.965   6.384  0.0894  0.5083 -1.1005
34431SOL    HW2 6696   8.981   3.938   6.413  0.5682  0.0168  1.0294
34432SOL     OW 6697   2.464  10.737   7.380  0.4339  0.5947 -0.1079
34432SOL    HW1 6698   2.460  10.642   7.391 -1.4623  0.5225 -0.9197
34432SOL    HW2 6699   2.378  10.760   7.344  0.3087  2.8025  1.3879
34433SOL     OW 6700   7.464   1.724   3.569  0.0834  0.3886  0.5945
34433SOL    HW1 6701   7.496   1.737   3.658  1.2365 -1.2250  0.4777
34433SOL    HW2 6702   7.529   1.768   3.513 -0.2319  0.7639  0.5232
34434SOL     OW 6703   2.835   2.498   8.283  0.0997 -0.5885  0.4621
34434SOL    HW1 6704   2.810   2.436   8.215  1.5551 -1.6480  0.8527
34434SOL    HW2 6705   2.905   2.550   8.245 -0.8532  0.6199  0.2712
34435SOL     OW 6706   8.900   5.649   6.792  0.0295 -0.2015 -0.4154
34435SOL    HW1 6707   8.959   5.713   6.831 -1.6733  1.0782  0.1903
34435SOL    HW2 6708   8.892   5.677   6.701  0.9457 -0.8487 -0.7044
34436SOL     OW 6709   1.222   7.251   4.287  0.3885  0.3128  0.7986
34436SOL    HW1 6710   1.288   7.187   4.261  0.7510  0.4396  1.3736
34436SOL    HW2 6711   1.259   7.293   4.364 -0.1569  0.7260  0.8432
34437SOL     OW 6712   2.188   3.540   8.077 -0.7491  0.0664 -0.1523
34437SOL    HW1 6713   2.109   3.589   8.097 -0.6599 -0.3245  1.2620
34437SOL    HW2 6714   2.242   3.547   8.156 -1.2958 -3.4178  0.7142
34438SOL     OW 6715   2.541   9.243   2.084 -0.4646 -0.2694  0.1253
34438SOL    HW1 6716   2.515   9.315   2.027 -0.9641 -0.0946  0.5706
34438SOL    HW2 6717   2.630   9.221   2.055 -0.7176 -0.2055 -0.7392
34439SOL     OW 6718   7.425   6.509   0.908 -0.3439  0.1225 -0.7991
34439SOL    HW1 6719   7.370   6.564   0.852 -1.2017  0.4657  0.3377
34439SOL    HW2 6720   7.512   6.547   0.901 -1.1538  2.5795  1.0283
34440SOL     OW 6721   6.790   5.873   2.945 -0.2344  0.1460  0.0670
34440SOL    HW1 6722   6.870   5.836   2.981 -1.3537 -0.7927  1.6822
34440SOL    HW2 6723   6.743   5.909   3.020 -0.3037  2.8024 -1.1304
34441SOL     OW 6724   3.933   4.718   5.437  0.1099  0.0925  0.1622
34441SOL    HW1 6725   3.938   4.623   5.450 -0.2826  0.0932  0.3297
34441SOL    HW2 6726   4.011   4.740   5.385 -0.3112 -0.4605 -0.7286
34442SOL     OW 6727   9.833   0.262  10.665  0.4837  0.8160  0.4254
34442SOL    HW1 6728   9.777   0.191  10.697 -1.4169  0.9202 -2.3269
34442SOL    HW2 6729   9.914   0.219  10.640 -0.4677 -0.4049 -0.7580
34443SOL     OW 6730   1.539   3.114   5.439 -0.5745  0.1992 -0.0678
34443SOL    HW1 6731   1.557   3.033   5.391  0.6714  1.1058 -1.2078
34443SOL    HW2 6732   1.619   3.165   5.431 -1.1810  1.3765  1.0059
34444SOL     OW 6733   6.049   2.584   1.536 -0.5020  0.5862 -0.5838
34444SOL    HW1 6734   6.066   2.493   1.558 -0.8178  0.4805 -0.7616
34444SOL    HW2 6735   6.049   2.586   1.440  0.0934  0.8890 -0.5826
34445SOL     OW 6736   5.776   0.154   5.751 -0.3570 -0.6629  0.6767
34445SOL    HW1 6737   5.740   0.070   5.722 -2.1510  0.1027  0.5366
34445SOL    HW2 6738   5.708   0.191   5.808  1.5631 -0.5209  3.0486
34446SOL     OW 6739   7.679   4.575   1.452 -0.5076  0.5013 -0.3715
34446SOL    HW1 6740   7.627   4.630   1.393  0.3082  1.4669 -0.2186
34446SOL    HW2 6741   7.760   4.558   1.403 -1.0298 -1.2093 -0.7195
34447SOL     OW 6742   1.153   4.078   4.961 -0.6964  0.2307  0.0122
34447SOL    HW1 6743   1.216   4.020   4.917 -1.0149 -1.3049  1.4800
34447SOL    HW2 6744   1.190   4.090   5.049 -2.4102 -0.6718  0.8910
34448SOL     OW 6745   9.984   7.037   1.502 -0.2456 -0.3362 -0.2123
34448SOL    HW1 6746   9.985   6.951   1.461 -2.5895 -1.6521  2.1125
34448SOL    HW2 6747  10.021   7.023   1.589 -0.2619  1.1030  0.0640
34449SOL     OW 6748   2.647   6.640   3.650 -0.0215  0.2091 -0.1357
34449SOL    HW1 6749   2.725   6.652   3.704 -0.8869  3.0317  0.6685
34449SOL    HW2 6750   2.679   6.640   3.560  0.9100  1.7455  0.1612
34450SOL     OW 6751   3.624   9.400   4.687  0.4412 -0.3244  0.0220
34450SOL    HW1 6752   3.659   9.312   4.703  0.9896 -0.6773 -2.6263
34450SOL    HW2 6753   3.701   9.452   4.666 -0.0679  0.2635 -0.4216
34451SOL     OW 6754   2.041   1.928   0.106  0.6344  0.8181  0.4328
34451SOL    HW1 6755   2.013   2.015   0.135 -0.9091  0.6989 -0.5530
34451SOL    HW2 6756   2.104   1.945   0.036  0.8251  1.1389  0.6827
34452SOL     OW 6757   6.772   2.888   2.128 -0.3575  0.0480 -0.2112
34452SOL    HW1 6758   6.717   2.820   2.165  1.5589 -2.9778 -2.4197
34452SOL    HW2 6759   6.861   2.864   2.155  0.4238  1.4810 -1.3603
34453SOL     OW 6760   0.317   9.275   9.493 -0.2248  0.2535 -1.3504
34453SOL    HW1 6761   0.344   9.195   9.448  2.2324 -0.4986  1.1830
34453SOL    HW2 6762   0.385   9.339   9.472  1.2823 -0.2810  1.5663
34454SOL     OW 6763   1.852   7.833   1.709  0.5207 -0.2037 -0.4684
34454SOL    HW1 6764   1.925   7.771   1.703  0.3238 -0.5667  0.5712
34454SOL    HW2 6765   1.792   7.806   1.640  1.3944  0.1448 -1.3758
34455SOL     OW 6766   7.058   2.923   9.148  0.5526  0.2420 -0.3254
34455SOL    HW1 6767   7.135   2.870   9.166  0.9997  1.0067  0.0725
34455SOL    HW2 6768   7.000   2.906   9.222  1.9653  2.5946  1.4494
34456SOL     OW 6769   7.106   5.425   7.607 -0.9321  0.3212 -0.4182
34456SOL    HW1 6770   7.165   5.501   7.615 -0.2364 -0.0692 -1.5134
34456SOL    HW2 6771   7.164   5.353   7.582 -1.6185 -0.5286  0.3992
34457SOL     OW 6772   9.685   4.542   0.674 -0.5419  0.1319  0.0788
34457SOL    HW1 6773   9.645   4.459   0.647 -1.1361  0.0158  1.2532
34457SOL    HW2 6774   9.654   4.555   0.764 -1.2726  2.1133 -0.4018
34458SOL     OW 6775  10.551   1.334   0.725  0.0269  0.0530  0.9816
34458SOL    HW1 6776  10.472   1.377   0.757 -1.4950 -1.4105 -0.6648
34458SOL    HW2 6777  10.562   1.259   0.783  0.3649  0.3605  1.3293
34459SOL     OW 6778   4.541   0.845   5.054 -0.0839  0.3887  0.4820
34459SOL    HW1 6779   4.608   0.776   5.052  0.3668  0.8055  0.9486
34459SOL    HW2 6780   4.474   0.812   5.114 -1.0844 -0.7245 -1.1699
34460SOL     OW 6781   7.649   8.843   4.555 -0.1914 -0.3030  0.3123
34460SOL    HW1 6782   7.729   8.883   4.590  0.6138 -1.3186 -0.3063
34460SOL    HW2 6783   7.677   8.798   4.475 -1.3243 -0.9596  0.2554
34461SOL     OW 6784  10.714   6.447   8.140  0.3062 -0.3026 -0.7252
34461SOL    HW1 6785  10.766   6.425   8.217 -1.3391 -0.9879  0.2351
34461SOL    HW2 6786  10.776   6.440   8.067  1.3751 -1.9451  0.2626
34462SOL     OW 6787  10.766   4.144   3.968  0.2877  0.0800 -0.2906
34462SOL    HW1 6788  10.776   4.057   4.005  0.0784 -0.3782 -1.2881
34462SOL    HW2 6789  10.849   4.161   3.923 -0.9437 -1.2166 -3.3535
34463SOL     OW 6790   6.363   2.060   5.570  0.1271 -0.1638  0.0977
34463SOL    HW1 6791   6.458   2.053   5.565  0.0963 -0.8338  0.2557
34463SOL    HW2 6792   6.331   1.977   5.534 -0.3551 -0.5099  1.2603
34464SOL     OW 6793   1.090   6.214   1.419 -0.5042  0.0469 -0.0092
34464SOL    HW1 6794   1.173   6.199   1.373  1.0550  0.5153  2.4774
34464SOL    HW2 6795   1.024   6.212   1.349  1.6694  0.7295 -2.2424
34465SOL     OW 6796   9.720   2.172  10.818  0.5461 -0.2224  0.2860
34465SOL    HW1 6797   9.749   2.233  10.886  0.9358 -0.9327  0.7748
34465SOL    HW2 6798   9.748   2.086  10.850  0.3563 -0.6131 -0.5779
34466SOL     OW 6799   5.047   6.560   8.134 -0.0853  0.0383 -0.1016
34466SOL    HW1 6800   5.075   6.479   8.093 -0.9865 -0.5246  0.3553
34466SOL    HW2 6801   5.112   6.578   8.201  0.6065  0.1897 -0.7990
34467SOL     OW 6802   5.557   2.230   3.597 -0.6069  0.5293 -0.6132
34467SOL    HW1 6803   5.505   2.301   3.558 -0.7170  1.0451  0.4546
34467SOL    HW2 6804   5.603   2.271   3.670  0.3889 -0.2027 -0.8120
34468SOL     OW 6805   6.215   5.846   1.937  0.6139  0.1688  0.6494
34468SOL    HW1 6806   6.206   5.852   2.032 -0.2634 -2.5921  0.8108
34468SOL    HW2 6807   6.304   5.815   1.922 -0.0650 -1.9597  0.7712
34469SOL     OW 6808   1.848   2.124   8.275 -0.0955  0.1684 -0.6814
34469SOL    HW1 6809   1.784   2.089   8.213  1.2440 -1.8569 -1.0227
34469SOL    HW2 6810   1.932   2.092   8.243  1.1081  2.4749 -0.0715
34470SOL     OW 6811  10.022   2.120   8.521  0.3834 -0.0106  0.5490
34470SOL    HW1 6812  10.030   2.142   8.429  0.8124 -2.5846 -0.1173
34470SOL    HW2 6813   9.928   2.119   8.538  0.3348  1.6380  0.5012
34471SOL     OW 6814   9.145   5.963   3.201 -0.4972 -0.2675  1.2922
34471SOL    HW1 6815   9.088   5.888   3.220 -0.7036 -0.4970 -0.1277
34471SOL    HW2 6816   9.093   6.040   3.225 -1.8122 -0.4219 -0.8109
34472SOL     OW 6817   0.633   8.388   0.273  0.0792  0.4114 -0.4525
34472SOL    HW1 6818   0.691   8.316   0.299 -0.6902 -0.4487 -1.0523
34472SOL    HW2 6819   0.555   8.345   0.238  0.5467  1.4710 -3.0280
34473SOL     OW 6820   4.448   2.698   3.554 -0.3799 -0.1484 -0.2615
34473SOL    HW1 6821   4.501   2.623   3.527  0.4994 -0.0206  0.9626
34473SOL    HW2 6822   4.499   2.738   3.625 -1.1935  1.1613 -0.3779
34474SOL     OW 6823   8.485   4.742   5.526  0.2877 -0.1929 -0.2074
34474SOL    HW1 6824   8.467   4.650   5.505 -2.0473  0.1907 -0.2355
34474SOL    HW2 6825   8.500   4.743   5.620 -0.2520 -0.5530 -0.1132
34475SOL     OW 6826   0.624   4.907   8.832  0.1948 -0.1464  0.3456
34475SOL    HW1 6827   0.614   4.950   8.746  0.1598  0.8526  0.8287
34475SOL    HW2 6828   0.670   4.825   8.812 -0.7783 -0.4546 -0.7532
34476SOL     OW 6829   2.149   4.307   9.504 -0.5111 -0.2348 -0.3532
34476SOL    HW1 6830   2.190   4.221   9.505  0.3640  0.1672 -1.1071
34476SOL    HW2 6831   2.064   4.293   9.547  2.0349 -0.1904  5.8395
34477SOL     OW 6832  10.437   4.658   6.885  0.0283  0.2729  0.2021
34477SOL    HW1 6833  10.473   4.744   6.863  0.4761 -0.5748 -2.7877
34477SOL    HW2 6834  10.350   4.657   6.845  0.7497 -1.2589 -1.4391
34478SOL     OW 6835   5.743   6.079   9.511 -0.1430 -0.4793  0.3874
34478SOL    HW1 6836   5.787   6.063   9.594  0.6019  1.3463  0.4052
34478SOL    HW2 6837   5.811   6.118   9.455 -1.0443 -0.1666 -0.5247
34479SOL     OW 6838   6.129   0.641   1.450  0.4002 -0.5663 -0.5081
34479SOL    HW1 6839   6.078   0.697   1.392  1.0678 -0.0989 -0.6670
34479SOL    HW2 6840   6.149   0.563   1.398 -0.9547 -1.1954 -0.1208
34480SOL     OW 6841   8.033   5.562   6.015 -0.1871  0.1972  0.1798
34480SOL    HW1 6842   8.022   5.503   5.940 -0.7302 -0.6533  0.9052
34480SOL    HW2 6843   7.947   5.602   6.027  0.2518  1.4116 -0.4924
34481SOL     OW 6844   3.503   8.060   8.775 -0.0793 -0.9476  0.1893
34481SOL    HW1 6845   3.440   8.130   8.794  0.8951 -0.2997  1.2086
34481SOL    HW2 6846   3.498   8.002   8.850  1.7851  0.0949  1.2035
34482SOL     OW 6847   9.099   7.932   5.718 -0.1291  0.1671 -0.0238
34482SOL    HW1 6848   9.174   7.888   5.678  0.1612  0.2645  0.4106
34482SOL    HW2 6849   9.024   7.904   5.665  0.2120  0.0784 -0.4673
34483SOL     OW 6850   5.658   1.978   6.076 -0.0454 -0.3938  0.3370
34483SOL    HW1 6851   5.685   1.892   6.042  1.9600 -0.0692  0.9970
34483SOL    HW2 6852   5.702   1.985   6.161  1.0771  1.9047 -0.3598
34484SOL     OW 6853   3.241   0.661   4.234 -0.5683  0.1400  0.4074
34484SOL    HW1 6854   3.301   0.595   4.270 -1.2152 -0.2003  0.8815
34484SOL    HW2 6855   3.243   0.646   4.140  1.3113  1.1778  0.2346
34485SOL     OW 6856   0.483   4.756   9.285 -0.4125  0.5317  0.5685
34485SOL    HW1 6857   0.392   4.768   9.309 -0.5354 -0.2626  0.5402
34485SOL    HW2 6858   0.514   4.686   9.343 -0.2002 -0.1174 -0.3025
34486SOL     OW 6859   3.832   8.079   8.770 -0.0568  0.0457 -0.2598
34486SOL    HW1 6860   3.755   8.026   8.749  0.3056 -1.3915  1.7372
34486SOL    HW2 6861   3.804   8.135   8.843  0.6304 -0.1251  0.1454
34487SOL     OW 6862   9.265   6.664   8.207 -0.3591  0.2645 -0.3128
34487SOL    HW1 6863   9.183   6.690   8.166 -0.0809 -0.6131 -1.4826
34487SOL    HW2 6864   9.239   6.619   8.287 -0.9595  0.9728 -0.0993
34488SOL     OW 6865   4.928   1.775   5.346  0.1615 -0.0191  0.2596
34488SOL    HW1 6866   4.987   1.701   5.338  2.5017  1.7787 -0.2923
34488SOL    HW2 6867   4.943   1.808   5.435 -0.9494 -0.2364  0.5462
34489SOL     OW 6868   8.384   2.911   9.385  0.5152  0.0123 -0.2709
34489SOL    HW1 6869   8.292   2.928   9.407  0.0968 -1.0808 -1.0506
34489SOL    HW2 6870   8.422   2.878   9.466  0.5577  1.6087  0.3941
34490SOL     OW 6871   8.384   6.874  10.764  0.1804  0.0176 -0.0715
34490SOL    HW1 6872   8.384   6.834  10.851  1.8359 -1.9280 -0.8661
34490SOL    HW2 6873   8.476   6.894  10.747  0.0261 -0.4698 -1.7076
34491SOL     OW 6874   1.185   6.245   1.963 -0.5307 -0.2628  0.1501
34491SOL    HW1 6875   1.235   6.163   1.967 -2.3336 -1.4760 -0.9434
34491SOL    HW2 6876   1.253   6.313   1.959  1.0590 -1.8083 -0.9993
34492SOL     OW 6877   4.352  10.764   9.351  0.6635 -0.0911  0.4744
34492SOL    HW1 6878   4.280  10.734   9.407 -0.4659 -0.8232 -1.3020
34492SOL    HW2 6879   4.330  10.855   9.331  0.9184  0.0812  0.9558
34493SOL     OW 6880   4.828  10.029  10.647  0.3373 -0.8429 -0.6701
34493SOL    HW1 6881   4.852   9.971  10.718 -1.0521 -1.1790 -0.4484
34493SOL    HW2 6882   4.735  10.013  10.633 -0.4620  2.2044  0.2715
34494SOL     OW 6883   5.719   9.273   0.344 -0.5338  0.1128  0.0065
34494SOL    HW1 6884   5.797   9.267   0.399 -1.4266  1.0941  1.4279
34494SOL    HW2 6885   5.715   9.188   0.299  1.0965 -0.1139  0.2077
34495SOL     OW 6886  10.374   1.027   7.507 -0.1969  0.2259  0.5771
34495SOL    HW1 6887  10.367   1.025   7.411  0.0275  3.5415  0.3801
34495SOL    HW2 6888  10.445   0.965   7.527  0.8504  0.6282 -1.5672
34496SOL     OW 6889   9.792   3.159   8.989  0.3551  0.3430  0.1541
34496SOL    HW1 6890   9.829   3.138   8.903 -1.4000  2.3576 -1.1827
34496SOL    HW2 6891   9.764   3.075   9.024  0.4088 -0.4409 -1.5754
34497SOL     OW 6892   1.664   7.750   9.454  0.3063  0.1056 -0.0858
34497SOL    HW1 6893   1.586   7.771   9.505 -1.2830 -0.5256 -2.0731
34497SOL    HW2 6894   1.659   7.808   9.378  1.6818 -0.0942 -0.3638
34498SOL     OW 6895   3.656   3.823   3.311 -0.4958 -0.0370  0.3885
34498SOL    HW1 6896   3.560   3.828   3.311 -0.4991  0.9308 -1.9254
34498SOL    HW2 6897   3.676   3.740   3.267 -0.2774  0.4408 -0.4239
34499SOL     OW 6898   7.611   7.090   9.587 -0.5605 -0.0788 -0.0199
34499SOL    HW1 6899   7.633   7.181   9.607 -0.7596 -0.1827  0.6698
34499SOL    HW2 6900   7.670   7.038   9.642  0.3767 -0.3879 -1.2680
34500SOL     OW 6901   2.770   4.727   4.071  0.2184 -0.9577 -0.1690
34500SOL    HW1 6902   2.865   4.713   4.069  0.0976 -1.8668 -2.0749
34500SOL    HW2 6903   2.735   4.662   4.010 -1.2507  2.1633 -2.9780
34501SOL     OW 6904   8.039   7.793  10.017 -0.1341 -0.1380  0.1486
34501SOL    HW1 6905   8.020   7.834   9.933  0.1787 -1.7384 -0.7427
34501SOL    HW2 6906   8.082   7.710   9.994  1.1617 -0.0119  1.9061
34502SOL     OW 6907   2.663   9.319  10.692  0.1775  0.3465  0.3772
34502SOL    HW1 6908   2.733   9.384  10.694 -0.5492  1.2364 -1.2297
34502SOL    HW2 6909   2.598   9.353  10.753 -0.2290  1.2072 -0.5043
34503SOL     OW 6910   9.947  10.502   0.029 -0.3537 -0.4919  0.1352
34503SOL    HW1 6911   9.931  10.414  -0.006 -1.1628 -0.4297  0.3273
34503SOL    HW2 6912   9.900  10.503   0.113 -0.6787  0.2459 -0.0479
34504SOL     OW 6913   5.583   3.737   2.918 -0.0957  0.7480 -0.2328
34504SOL    HW1 6914   5.595   3.813   2.862 -1.3339  1.5508  0.5548
34504SOL    HW2 6915   5.490   3.718   2.914  0.1835 -0.7499 -0.4053
34505SOL     OW 6916   8.673   1.476   8.184  0.1218  1.3511 -0.0587
34505SOL    HW1 6917   8.722   1.401   8.150  0.3977  1.0667  0.9130
34505SOL    HW2 6918   8.727   1.552   8.163  0.6227  1.1116  0.3329
34506SOL     OW 6919   3.489   0.797   6.765  0.3134 -0.2358  0.4559
34506SOL    HW1 6920   3.399   0.774   6.789  0.0237  0.7733  0.3921
34506SOL    HW2 6921   3.491   0.793   6.670  0.0909  0.5735  0.4109
34507SOL     OW 6922   0.609   2.569   2.297  0.0134 -0.0926 -0.2997
34507SOL    HW1 6923   0.518   2.595   2.316  0.2350  0.7024 -0.2659
34507SOL    HW2 6924   0.642   2.532   2.379 -0.3687 -0.6597 -0.3967
34508SOL     OW 6925   6.696   0.165   6.567  0.2951  0.5033  0.0622
34508SOL    HW1 6926   6.703   0.236   6.502 -1.2137  1.4056  0.8418
34508SOL    HW2 6927   6.603   0.162   6.590  0.8426  0.5913  2.5782
34509SOL     OW 6928   3.962   9.274   6.980 -0.1669 -0.3179  0.1018
34509SOL    HW1 6929   3.986   9.367   6.981  0.7840 -0.5566  0.7939
34509SOL    HW2 6930   3.957   9.252   6.887  1.6096 -0.0430 -0.0990
34510SOL     OW 6931  10.015   6.441   0.824  0.0278  0.4624  0.3415
34510SOL    HW1 6932   9.977   6.519   0.865  2.3381  0.8719  1.8821
34510SOL    HW2 6933  10.023   6.465   0.732  2.0512  2.7674  0.9808
34511SOL     OW 6934   1.192   7.584   9.592  0.2330  1.2750 -0.3096
34511SOL    HW1 6935   1.222   7.586   9.501 -2.5865  1.8048 -1.3103
34511SOL    HW2 6936   1.132   7.510   9.596  1.0162  0.6916  1.4077
34512SOL     OW 6937   4.098   6.924   7.092 -0.1887 -0.4220  0.3230
34512SOL    HW1 6938   4.126   6.894   7.006 -1.6430 -2.8269  0.6060
34512SOL    HW2 6939   4.020   6.976   7.076  0.7148  0.8975  0.0626
34513SOL     OW 6940   6.388   6.946  10.395  0.2384 -0.2448  0.4996
34513SOL    HW1 6941   6.345   6.935  10.480  0.6702 -1.7006  0.5614
34513SOL    HW2 6942   6.478   6.973  10.416  0.1459  0.0793  0.4785
34514SOL     OW 6943   5.804   8.183   6.378  0.5740  0.6174  0.2635
34514SOL    HW1 6944   5.856   8.111   6.414  0.2253 -0.3560 -1.0901
34514SOL    HW2 6945   5.858   8.219   6.307 -1.1409 -1.4822 -2.2867
34515SOL     OW 6946   2.166   0.291   7.203 -0.2767 -0.2267  0.0044
34515SOL    HW1 6947   2.215   0.248   7.132 -1.0260  0.2471 -0.8198
34515SOL    HW2 6948   2.232   0.309   7.270  0.3509 -1.1692 -0.3408
34516SOL     OW 6949   8.743   2.280   2.596 -0.0642  0.4432 -0.7159
34516SOL    HW1 6950   8.750   2.213   2.528  0.8214 -0.5181  0.2800
34516SOL    HW2 6951   8.673   2.248   2.653  1.9622 -0.9949  1.1342
34517SOL     OW 6952   5.996   7.343   1.000 -0.2986  0.0976  0.1203
34517SOL    HW1 6953   6.076   7.369   0.954  0.2746 -2.2895 -0.4100
34517SOL    HW2 6954   6.025   7.273   1.058 -2.1681 -1.7747 -1.0605
34518SOL     OW 6955   8.445  10.273   5.284 -0.2436 -0.2101  0.5019
34518SOL    HW1 6956   8.498  10.214   5.338 -0.0970  0.5808  1.2521
34518SOL    HW2 6957   8.509  10.323   5.233 -0.3293 -0.1204  0.4836
34519SOL     OW 6958   5.865   7.109  10.165 -0.3195 -0.8051  0.2915
34519SOL    HW1 6959   5.824   7.058  10.235 -2.4666 -0.4853 -0.6606
34519SOL    HW2 6960   5.833   7.198  10.178  1.2673 -0.2125  0.3453
34520SOL     OW 6961   3.394   7.166   0.585 -0.1036  0.1056 -0.1486
34520SOL    HW1 6962   3.467   7.228   0.584 -0.4826  0.5473 -0.7178
34520SOL    HW2 6963   3.434   7.082   0.609  0.3715  0.6178  0.9109
34521SOL     OW 6964  10.466   7.247   6.013 -0.3116  0.1031  0.0736
34521SOL    HW1 6965  10.535   7.278   5.954 -0.4747  0.7557  0.2188
34521SOL    HW2 6966  10.462   7.152   5.998  0.4286  0.1027 -0.1255
34522SOL     OW 6967   0.736   0.994   4.066  0.2062  0.2746 -0.2677
34522SOL    HW1 6968   0.796   1.067   4.084  1.6848 -1.0800  0.5727
34522SOL    HW2 6969   0.727   0.949   4.150 -2.2833  0.6040 -0.3034
34523SOL     OW 6970   6.837   4.680   4.376 -0.0547 -0.3328  0.0054
34523SOL    HW1 6971   6.857   4.752   4.436  0.7901 -0.9975  0.5420
34523SOL    HW2 6972   6.793   4.723   4.302 -2.3063  0.3383  1.6287
34524SOL     OW 6973   0.031   5.682   9.288 -0.3692 -0.5476  0.1805
34524SOL    HW1 6974   0.102   5.655   9.347  1.0277 -1.7769 -1.9558
34524SOL    HW2 6975  -0.047   5.684   9.344  0.6277 -2.9853  1.8176
34525SOL     OW 6976   9.483   7.936   1.573 -0.1332 -0.1780  0.5332
34525SOL    HW1 6977   9.516   7.938   1.663 -0.4673 -0.3740  0.6648
34525SOL    HW2 6978   9.391   7.961   1.580 -0.0183  0.3728  0.1692
34526SOL     OW 6979   8.500   4.081   1.454 -0.1183  0.0428 -0.2566
34526SOL    HW1 6980   8.571   4.033   1.496  1.0398  2.7688  1.1790
34526SOL    HW2 6981   8.543   4.155   1.412 -1.9394  0.6962 -1.0659
34527SOL     OW 6982   8.521   4.588   1.110 -0.0081 -0.3587  0.4608
34527SOL    HW1 6983   8.430   4.616   1.099  0.0183 -0.7829 -1.0636
34527SOL    HW2 6984   8.516   4.512   1.169 -0.8197 -1.1896 -0.6232
34528SOL     OW 6985   2.730   4.413   2.179 -0.7476  0.3294  0.1656
34528SOL    HW1 6986   2.689   4.426   2.094  2.2547 -1.2943 -1.6817
34528SOL    HW2 6987   2.763   4.499   2.203  0.4187  0.3994 -1.5241
34529SOL     OW 6988   8.891   3.201   4.884 -0.3438 -0.0801 -0.4510
34529SOL    HW1 6989   8.893   3.256   4.963  1.3864  0.3924 -0.7640
34529SOL    HW2 6990   8.983   3.199   4.855 -0.7784 -1.1282 -1.8434
34530SOL     OW 6991   4.869   5.449   7.173  0.0439  0.2610 -0.1240
34530SOL    HW1 6992   4.918   5.514   7.123  0.1957 -0.5642 -1.0830
34530SOL    HW2 6993   4.833   5.390   7.106 -0.1191 -0.6076  0.7143
34531SOL     OW 6994   6.226   1.336   6.738  0.5137 -0.0061 -0.2203
34531SOL    HW1 6995   6.317   1.314   6.757 -0.0673 -2.9397 -0.3845
34531SOL    HW2 6996   6.214   1.313   6.646 -0.2097  1.1504 -0.4395
34532SOL     OW 6997  10.512   4.319   0.097  0.3017 -0.2585  0.3392
34532SOL    HW1 6998  10.556   4.248   0.050 -1.2581 -0.7985 -0.4095
34532SOL    HW2 6999  10.581   4.380   0.120  1.2988 -0.5040 -1.7726
34533SOL     OW 7000   9.389  10.413   5.568 -0.2656 -0.3255 -0.4491
34533SOL    HW1 7001   9.379  10.386   5.477  0.9028  1.1447 -1.0564
34533SOL    HW2 7002   9.479  10.391   5.590  0.0537  1.0357 -0.2942
34534SOL     OW 7003   5.718   4.762  10.060  0.0813  0.2317  0.4476
34534SOL    HW1 7004   5.659   4.693  10.089  0.4178 -0.5600 -0.7156
34534SOL    HW2 7005   5.704   4.833  10.123  0.9240 -1.4544  2.6600
34535SOL     OW 7006   4.362   3.222   2.382  0.1192  0.4580 -0.3906
34535SOL    HW1 7007   4.322   3.238   2.468  0.7930  1.5743 -0.2697
34535SOL    HW2 7008   4.442   3.173   2.401 -0.1148  0.0392 -0.4602
34536SOL     OW 7009   2.409   8.185   4.278 -0.5628 -0.7043 -0.6733
34536SOL    HW1 7010   2.449   8.216   4.197 -1.1449 -2.0213 -1.4856
34536SOL    HW2 7011   2.483   8.154   4.331 -0.2581 -0.5234 -0.9896
34537SOL     OW 7012   2.905   3.516   4.925 -0.0472 -0.4257  0.1921
34537SOL    HW1 7013   2.945   3.561   4.999 -0.9408 -0.0545  0.4693
34537SOL    HW2 7014   2.816   3.550   4.922  0.0588 -0.2071 -1.2411
34538SOL     OW 7015   6.993  10.645   8.519  0.2299 -0.4741 -0.3273
34538SOL    HW1 7016   6.968  10.577   8.456 -1.5332  0.8398 -1.1396
34538SOL    HW2 7017   7.089  10.648   8.514  0.3256 -2.4701 -0.6755
34539SOL     OW 7018   4.594   7.105   3.219 -0.0790  0.3029  0.5537
34539SOL    HW1 7019   4.543   7.131   3.142  1.0801 -0.0057 -0.3350
34539SOL    HW2 7020   4.542   7.137   3.293 -0.1684  2.5478 -0.3938
34540SOL     OW 7021   5.191  10.430   2.851 -0.0400  0.0797 -0.7215
34540SOL    HW1 7022   5.110  10.468   2.818  0.2955 -1.0097 -2.9227
34540SOL    HW2 7023   5.256  10.499   2.839 -0.7345  1.3587  2.0386
34541SOL     OW 7024   4.704   8.498   3.856  0.2294  0.2575 -0.0857
34541SOL    HW1 7025   4.693   8.452   3.772  0.1029 -0.8617  0.5242
34541SOL    HW2 7026   4.615   8.523   3.881  0.1968  0.0476  0.0098
34542SOL     OW 7027   8.998   4.337   1.837 -0.1144  0.1719  0.7073
34542SOL    HW1 7028   9.047   4.315   1.757  0.7063  1.0590  0.9445
34542SOL    HW2 7029   9.048   4.294   1.907 -0.6456 -0.3246  0.7899
34543SOL     OW 7030   2.424   1.430   3.092 -0.1646 -0.0261 -0.3919
34543SOL    HW1 7031   2.439   1.495   3.023  2.0103  0.8045  0.7401
34543SOL    HW2 7032   2.501   1.373   3.089 -1.5114 -1.9010 -0.6265
34544SOL     OW 7033   8.042   8.936   3.872  0.0047 -0.0305 -0.3763
34544SOL    HW1 7034   8.086   8.853   3.890 -1.5572 -0.7516  0.2340
34544SOL    HW2 7035   8.000   8.959   3.954 -0.9997  0.5006 -1.0256
34545SOL     OW 7036   2.236   8.369   4.376  0.3432  0.2861  0.6802
34545SOL    HW1 7037   2.256   8.345   4.466  0.8665 -0.2292  0.4362
34545SOL    HW2 7038   2.280   8.302   4.323 -0.2473  0.3830  0.0536
34546SOL     OW 7039   7.371   5.304   1.358  0.0033  0.1200  0.3527
34546SOL    HW1 7040   7.365   5.384   1.410 -0.8766  1.0091 -1.0683
34546SOL    HW2 7041   7.282   5.271   1.353 -0.9131  2.4949 -4.1961
34547SOL     OW 7042   8.912   9.144   6.574  0.2878 -0.3130  0.4162
34547SOL    HW1 7043   8.930   9.147   6.668 -1.7791  0.1762  0.8427
34547SOL    HW2 7044   8.994   9.172   6.533  0.6121  1.5144  2.1566
34548SOL     OW 7045   8.174   5.402   6.565 -1.0614 -0.2259 -0.0905
34548SOL    HW1 7046   8.190   5.496   6.575  1.0249 -0.4460 -0.8327
34548SOL    HW2 7047   8.184   5.386   6.471  2.2163 -1.6672  0.3309
34549SOL     OW 7048   3.700   4.373   4.186 -0.7769 -0.4922 -0.4736
34549SOL    HW1 7049   3.794   4.365   4.168 -0.8505 -0.4841 -0.8865
34549SOL    HW2 7050   3.662   4.294   4.145 -0.9203 -0.6194 -0.0966
34550SOL     OW 7051  10.708   8.240   9.714  0.6539  0.3050  0.5447
34550SOL    HW1 7052  10.753   8.192   9.644  1.8195 -1.2735  2.2543
34550SOL    HW2 7053  10.775   8.300   9.748 -0.0899  1.5046 -0.0396
34551SOL     OW 7054  10.370   1.577   3.278 -0.3510 -0.1957 -0.5354
34551SOL    HW1 7055  10.367   1.649   3.214  0.4631 -0.3660 -0.7841
34551SOL    HW2 7056  10.395   1.501   3.227 -1.6783 -0.7769 -0.3530
34552SOL     OW 7057   0.901   8.117   1.585  0.1121 -0.3702 -0.5719
34552SOL    HW1 7058   0.835   8.113   1.517 -1.3766  0.6952  0.7415
34552SOL    HW2 7059   0.852   8.125   1.667  1.8375 -0.6023  0.5537
34553SOL     OW 7060  10.729   8.720   3.907  0.2741 -0.3071 -0.1391
34553SOL    HW1 7061  10.744   8.805   3.949  0.3971  0.5774 -1.8835
34553SOL    HW2 7062  10.640   8.724   3.873  0.3124 -0.8421 -0.3228
34554SOL     OW 7063   0.753   8.848  10.150  0.1318 -0.4818 -0.2991
34554SOL    HW1 7064   0.745   8.768  10.203  0.4015  0.0670  0.5946
34554SOL    HW2 7065   0.772   8.917  10.214 -1.7781  0.6152 -0.8667
34555SOL     OW 7066  10.606   6.944  10.767  0.6004 -0.2149 -0.0994
34555SOL    HW1 7067  10.665   6.920  10.838 -0.8313  1.4410  1.7527
34555SOL    HW2 7068  10.623   7.037  10.752  1.7034 -0.7481 -2.8292
34556SOL     OW 7069   1.188  10.496   4.669 -0.1548 -0.4373  0.0868
34556SOL    HW1 7070   1.123  10.567   4.667 -1.0734 -1.2624 -2.2612
34556SOL    HW2 7071   1.139  10.418   4.694  0.1228 -0.8847 -0.7267
34557SOL     OW 7072   8.281   0.332   5.955  0.0295  0.2870  0.3040
34557SOL    HW1 7073   8.188   0.354   5.966 -0.2991 -1.4975  1.5748
34557SOL    HW2 7074   8.328   0.400   6.003 -0.5726  1.3786 -0.5995
34558SOL     OW 7075   1.684   4.023   6.855 -0.1787 -0.5387  0.2064
34558SOL    HW1 7076   1.663   4.115   6.871  0.1910 -0.5626  0.8468
34558SOL    HW2 7077   1.601   3.977   6.871 -0.2287 -0.3775  0.4199
34559SOL     OW 7078   1.757   3.063   9.218  0.2844 -0.2491  0.4885
34559SOL    HW1 7079   1.721   3.131   9.161 -0.0664 -1.5691 -0.9209
34559SOL    HW2 7080   1.833   3.104   9.259  0.2362  0.9034 -0.5161
34560SOL     OW 7081   1.526   7.074   4.902  0.0706 -0.2268  0.2246
34560SOL    HW1 7082   1.505   7.167   4.912 -0.6238  0.0339 -2.7278
34560SOL    HW2 7083   1.620   7.073   4.881  0.1430 -0.2454  0.5359
34561SOL     OW 7084   9.439  10.468   6.804 -0.6593 -0.5584  0.1037
34561SOL    HW1 7085   9.465  10.547   6.852  0.7899 -1.4295  0.8236
34561SOL    HW2 7086   9.352  10.488   6.771  0.0644  1.7217 -0.5974
34562SOL     OW 7087   5.461  10.812   0.571  0.0973  0.1860 -0.0388
34562SOL    HW1 7088   5.428  10.828   0.483  1.1259  0.4950 -0.3828
34562SOL    HW2 7089   5.552  10.784   0.558  0.4634  0.8489  0.9472
34563SOL     OW 7090   6.504   1.862  10.018  0.0065 -0.1696  0.0580
34563SOL    HW1 7091   6.572   1.795  10.020  0.5042  0.3220 -0.3233
34563SOL    HW2 7092   6.445   1.838  10.090  0.7099 -0.4610  0.5451
34564SOL     OW 7093   2.089   3.271   1.264  0.3977  0.0156 -0.0422
34564SOL    HW1 7094   2.091   3.181   1.295  2.5854  0.2526  0.7189
34564SOL    HW2 7095   2.020   3.273   1.198 -1.1217 -1.6823  1.3927
34565SOL     OW 7096   4.086   7.448   3.923 -0.4598 -0.0394 -0.3043
34565SOL    HW1 7097   4.155   7.382   3.931 -0.5017  0.0075  0.5942
34565SOL    HW2 7098   4.009   7.406   3.961 -0.1905  0.9253  1.3996
34566SOL     OW 7099   8.299   4.639   5.193  0.4055 -0.0566  0.2205
34566SOL    HW1 7100   8.357   4.604   5.125  0.7520  0.9420 -0.0126
34566SOL    HW2 7101   8.339   4.611   5.276  1.1993  0.5559  0.0598
34567SOL     OW 7102   9.742   1.345   2.086 -0.1959  0.3109  0.0360
34567SOL    HW1 7103   9.734   1.277   2.020  0.3661 -0.7946  1.0698
34567SOL    HW2 7104   9.824   1.390   2.064 -0.5187  0.6155 -0.5865
34568SOL     OW 7105   4.680   4.446   1.574 -0.5694 -0.0757  0.1739
34568SOL    HW1 7106   4.619   4.497   1.520 -0.7118 -0.9594 -0.5279
34568SOL    HW2 7107   4.753   4.505   1.590 -1.3263  0.7926  0.4957
34569SOL     OW 7108   0.620   3.245   8.172 -0.3577 -0.1030 -0.1016
34569SOL    HW1 7109   0.559   3.270   8.102  0.7411  0.3285 -0.9364
34569SOL    HW2 7110   0.651   3.328   8.207  0.1775 -0.3201 -0.0603
34570SOL     OW 7111   5.190   5.309   0.747  0.3297 -0.2220 -0.7508
34570SOL    HW1 7112   5.201   5.399   0.777 -0.8859  0.7911 -3.1167
34570SOL    HW2 7113   5.275   5.268   0.762  0.8156  1.1885  0.6730
34571SOL     OW 7114   7.935   4.210   5.266  0.1161 -0.0764 -0.3182
34571SOL    HW1 7115   8.009   4.153   5.283  0.1553  0.1194  0.1699
34571SOL    HW2 7116   7.936   4.273   5.338 -0.6708 -0.2241 -0.1717
34572SOL     OW 7117   5.212   7.599   6.862 -0.8851 -0.6597  0.2427
34572SOL    HW1 7118   5.163   7.526   6.898 -0.9342 -0.9677 -0.4405
34572SOL    HW2 7119   5.234   7.573   6.772 -1.8587  0.5922 -0.4020
34573SOL     OW 7120   9.255   4.002   3.399 -0.2282  0.0196  0.5871
34573SOL    HW1 7121   9.249   4.089   3.359 -2.1649 -0.2041  0.2935
34573SOL    HW2 7122   9.243   4.018   3.492 -0.6402  0.0891  0.5285
34574SOL     OW 7123   4.561   9.565   4.524  0.2385  0.1626  0.0342
34574SOL    HW1 7124   4.569   9.658   4.545 -0.1765  0.2153 -0.0260
34574SOL    HW2 7125   4.638   9.547   4.470 -0.2408  0.7399 -0.8763
34575SOL     OW 7126   4.769   9.336   0.784  0.1390 -0.1054 -0.0886
34575SOL    HW1 7127   4.740   9.245   0.769  0.4223 -0.4061  1.0911
34575SOL    HW2 7128   4.816   9.333   0.868  2.2458  0.6595 -1.1473
34576SOL     OW 7129   5.899   6.700   3.144 -0.4709  0.2746 -0.1861
34576SOL    HW1 7130   5.963   6.648   3.193 -0.4051  0.0416 -0.5156
34576SOL    HW2 7131   5.869   6.766   3.206 -0.5485 -0.1546  0.2372
34577SOL     OW 7132   5.528   8.313   4.148 -0.1581  0.5650 -0.1207
34577SOL    HW1 7133   5.534   8.327   4.054 -1.7089 -0.9457 -0.5003
34577SOL    HW2 7134   5.510   8.400   4.184 -0.6883  0.9784 -1.3498
34578SOL     OW 7135   9.346   2.698   7.148 -0.3635  0.2411  0.1529
34578SOL    HW1 7136   9.251   2.699   7.158 -0.5124  2.4830 -0.9782
34578SOL    HW2 7137   9.366   2.777   7.098  1.9556 -0.9644 -0.9914
34579SOL     OW 7138  10.455   0.798   8.698  0.1979  0.4247  0.8685
34579SOL    HW1 7139  10.515   0.869   8.722 -0.1053  0.8471  0.3842
34579SOL    HW2 7140  10.370   0.840   8.691  0.0623  0.0611  0.3200
34580SOL     OW 7141   5.135   4.891  10.614 -0.1352  0.2744 -0.4527
34580SOL    HW1 7142   5.129   4.819  10.677  0.1767 -1.2799 -2.1142
34580SOL    HW2 7143   5.152   4.968  10.668  0.2578 -1.0017  1.3558
34581SOL     OW 7144   5.791   1.831   6.677 -0.2614 -0.4428  0.0140
34581SOL    HW1 7145   5.706   1.823   6.633  0.2429 -0.3314 -0.9966
34581SOL    HW2 7146   5.830   1.744   6.670 -0.8554 -0.8776  1.6944
34582SOL     OW 7147   7.518  10.432   1.390  0.1546 -0.5301  0.6184
34582SOL    HW1 7148   7.533  10.525   1.376 -2.2057 -0.1235  0.4838
34582SOL    HW2 7149   7.556  10.389   1.313 -1.1786  0.5846 -0.7160
34583SOL     OW 7150   7.884   6.970   9.262  0.3047  0.2194  0.0846
34583SOL    HW1 7151   7.923   7.053   9.290  1.0179 -0.1607  0.2572
34583SOL    HW2 7152   7.954   6.905   9.276 -0.2753 -0.4234  0.0485
34584SOL     OW 7153   7.217  10.075  10.626  0.6285 -0.8667 -0.0999
34584SOL    HW1 7154   7.244  10.035  10.709  1.9524  0.0142 -0.0741
34584SOL    HW2 7155   7.159  10.147  10.652  1.5077 -0.2181  0.1313
34585SOL     OW 7156  10.239   6.253   4.028  0.0580 -0.0256 -0.0316
34585SOL    HW1 7157  10.254   6.232   4.120 -0.3008  1.0280  0.2798
34585SOL    HW2 7158  10.144   6.248   4.017  0.0658  0.2533 -0.2416
34586SOL     OW 7159   2.229   3.689   6.984  0.2238 -0.0168  0.5120
34586SOL    HW1 7160   2.207   3.713   6.894  2.4711 -0.0902 -0.1168
34586SOL    HW2 7161   2.209   3.768   7.035  0.1567  0.4817 -0.2673
34587SOL     OW 7162   6.103   7.862   1.438  0.1371 -0.1432 -0.4440
34587SOL    HW1 7163   6.057   7.802   1.379  2.1757 -2.4287  0.1265
34587SOL    HW2 7164   6.144   7.926   1.380 -1.6505  0.4836 -1.1020
34588SOL     OW 7165   9.456   8.042   8.862 -0.1989 -0.0554 -0.5985
34588SOL    HW1 7166   9.451   8.020   8.955  1.3655 -1.6890 -0.8652
34588SOL    HW2 7167   9.433   8.135   8.858  1.0073  0.3896  1.5790
34589SOL     OW 7168   6.701   5.802   4.544 -0.2346 -0.0935 -0.2579
34589SOL    HW1 7169   6.750   5.745   4.604 -0.1871 -0.4524 -0.6291
34589SOL    HW2 7170   6.610   5.774   4.554 -0.2381 -0.0911 -0.2823
34590SOL     OW 7171   2.492   2.247   7.258 -0.2247 -0.0670 -0.2233
34590SOL    HW1 7172   2.544   2.256   7.179 -0.3212 -0.5600 -0.3442
34590SOL    HW2 7173   2.556   2.240   7.329 -0.1077 -1.2763 -0.4332
34591SOL     OW 7174   2.636   4.387   1.138 -0.2272 -0.0327 -0.5054
34591SOL    HW1 7175   2.689   4.453   1.094 -0.4411  0.4931  0.0073
34591SOL    HW2 7176   2.698   4.317   1.160 -0.0291 -0.0725 -1.1897
34592SOL     OW 7177   2.265   5.966   2.511  0.5892 -0.2037  0.1295
34592SOL    HW1 7178   2.209   5.932   2.580 -0.0812 -0.1203 -0.3688
34592SOL    HW2 7179   2.333   6.015   2.557 -1.0249  1.6166  0.6771
34593SOL     OW 7180   9.768   1.359   1.457  0.3123 -0.1593  1.1479
34593SOL    HW1 7181   9.785   1.441   1.503 -0.6386  0.6985  0.0412
34593SOL    HW2 7182   9.676   1.365   1.431  0.7369 -0.7091 -0.6058
34594SOL     OW 7183   7.976   0.399   9.951 -0.3222 -0.3991  0.0356
34594SOL    HW1 7184   7.957   0.485   9.989 -1.1623 -0.1989 -0.8124
34594SOL    HW2 7185   8.025   0.418   9.871  0.6733 -0.7844  0.5315
34595SOL     OW 7186   8.522   1.871   2.300  0.6310 -1.0090  0.3436
34595SOL    HW1 7187   8.514   1.833   2.388 -1.9143 -1.2483  0.1031
34595SOL    HW2 7188   8.545   1.962   2.315  1.1988 -1.2810  1.2062
34596SOL     OW 7189   1.919   2.929   1.653  0.0681  0.0691 -0.4861
34596SOL    HW1 7190   1.838   2.888   1.623  1.5778 -0.8782 -3.7550
34596SOL    HW2 7191   1.947   2.877   1.729 -2.4661  0.6641  0.9601
34597SOL     OW 7192   3.404   9.059   2.863  0.4838 -1.0886  0.8008
34597SOL    HW1 7193   3.356   9.019   2.936 -1.0415  0.3547  0.6625
34597SOL    HW2 7194   3.377   9.008   2.786 -0.9256 -0.2918  0.7223
34598SOL     OW 7195   8.490   5.965   3.491  0.7489 -0.0011  0.3019
34598SOL    HW1 7196   8.525   5.921   3.413 -1.3948 -0.3279 -0.5508
34598SOL    HW2 7197   8.434   5.899   3.533 -0.0063  0.9119  0.7724
34599SOL     OW 7198   2.904   9.798   1.089 -0.5084 -0.9041  0.5719
34599SOL    HW1 7199   2.865   9.801   1.001 -1.8967  0.1507  1.1799
34599SOL    HW2 7200   2.998   9.790   1.073 -0.2197  3.1767 -1.2015
34600SOL     OW 7201   3.785   2.464   7.486  0.7936  0.2071 -0.0072
34600SOL    HW1 7202   3.823   2.421   7.409 -1.7191 -0.0874 -1.1709
34600SOL    HW2 7203   3.705   2.503   7.454  0.7879  2.0172  2.0292
34601SOL     OW 7204   2.564  10.686   7.972 -0.0993 -0.2885  0.4162
34601SOL    HW1 7205   2.591  10.595   7.962  0.5342 -0.2064  1.3264
34601SOL    HW2 7206   2.644  10.734   7.990 -0.6007  0.2330  1.3553
34602SOL     OW 7207   1.873   3.122   2.585 -0.8225 -0.1803  0.1599
34602SOL    HW1 7208   1.963   3.107   2.615  0.7294  1.6295 -3.0469
34602SOL    HW2 7209   1.847   3.038   2.546  0.6832  0.0459 -1.4678
34603SOL     OW 7210   4.084   7.219   4.409  0.1997  0.1232 -0.1916
34603SOL    HW1 7211   4.084   7.233   4.503 -0.8356  0.4717 -0.2324
34603SOL    HW2 7212   4.172   7.244   4.380  1.3701 -2.2894  0.9878
34604SOL     OW 7213   0.329   1.874   8.408 -0.0802  0.1354 -0.0555
34604SOL    HW1 7214   0.279   1.935   8.462  1.1387  0.3674  0.8774
34604SOL    HW2 7215   0.264   1.831   8.353 -1.6008 -0.9254  2.3609
34605SOL     OW 7216  10.443   1.574   6.807  0.4979 -0.1119  0.6390
34605SOL    HW1 7217  10.415   1.515   6.877  0.0287 -0.0723  0.4852
34605SOL    HW2 7218  10.537   1.560   6.801  0.6228  0.2077  1.5827
34606SOL     OW 7219   3.318   6.247  10.118  0.3177  0.1427  0.2900
34606SOL    HW1 7220   3.262   6.169  10.112  0.9980 -0.4423  1.1530
34606SOL    HW2 7221   3.275   6.302  10.183  1.8346 -1.3412  2.7336
34607SOL     OW 7222   1.311   2.307   1.554 -0.2911 -0.2340  0.7343
34607SOL    HW1 7223   1.401   2.333   1.538 -0.4799  0.0393  0.0655
34607SOL    HW2 7224   1.291   2.342   1.641 -0.1933  0.9391  0.3094
34608SOL     OW 7225   0.015  10.234   7.122  0.0038 -0.0186  0.5347
34608SOL    HW1 7226   0.026  10.248   7.216  1.6030 -0.6703  0.4894
34608SOL    HW2 7227   0.093  10.185   7.097 -0.2994  0.3237 -1.1771
34609SOL     OW 7228   8.587   0.666   1.040 -0.1012 -0.2908  0.5878
34609SOL    HW1 7229   8.638   0.717   0.978 -0.2130 -0.8264  0.0383
34609SOL    HW2 7230   8.648   0.602   1.075 -0.5348 -1.4375 -0.6456
34610SOL     OW 7231   9.329   5.756   1.723  0.0683 -0.0935 -0.1920
34610SOL    HW1 7232   9.370   5.707   1.794  0.7337 -2.1737 -1.9109
34610SOL    HW2 7233   9.375   5.840   1.722  1.2038 -0.6696  0.7733
34611SOL     OW 7234   0.099   3.325   9.594 -0.1701 -0.4218  0.1120
34611SOL    HW1 7235   0.014   3.368   9.594  0.8857  1.9582  1.9181
34611SOL    HW2 7236   0.126   3.324   9.502 -0.5609  2.3522 -0.1129
34612SOL     OW 7237   7.626  10.181   7.403 -0.3286  0.1004  0.6153
34612SOL    HW1 7238   7.689  10.142   7.464  2.4621  2.1247 -0.7397
34612SOL    HW2 7239   7.541  10.165   7.443  1.1872 -0.5443  3.9242
34613SOL     OW 7240  10.403   6.531   2.519 -0.0061  0.2462  0.3912
34613SOL    HW1 7241  10.436   6.455   2.566 -1.4720  0.2490  1.4892
34613SOL    HW2 7242  10.441   6.524   2.432  1.4260 -0.6720  1.0709
34614SOL     OW 7243   3.164   5.459   5.255  0.2280 -0.4458  0.1976
34614SOL    HW1 7244   3.224   5.534   5.254 -1.1656  0.7164 -0.4519
34614SOL    HW2 7245   3.081   5.495   5.288 -0.1647 -1.9777  0.9810
34615SOL     OW 7246   4.405   9.397   2.791  0.9733  0.6508  0.0639
34615SOL    HW1 7247   4.342   9.436   2.730 -0.6569 -2.0488 -0.1358
34615SOL    HW2 7248   4.489   9.433   2.764 -0.0221  1.6301 -2.0270
34616SOL     OW 7249   8.255   2.928   6.284 -0.1649 -0.2415  0.0068
34616SOL    HW1 7250   8.350   2.912   6.289  0.6107  3.2523 -0.7591
34616SOL    HW2 7251   8.238   2.990   6.355 -1.0595  2.0156 -2.0471
34617SOL     OW 7252   5.118   1.267   1.074 -0.0268 -0.1470 -0.5088
34617SOL    HW1 7253   5.072   1.183   1.071  1.1972 -0.9001  0.7912
34617SOL    HW2 7254   5.133   1.282   1.167  0.5087  1.1112 -0.7820
34618SOL     OW 7255   7.192  10.166   1.513  0.6055 -0.1112  0.3279
34618SOL    HW1 7256   7.201  10.224   1.588  1.0976 -2.8364  2.5492
34618SOL    HW2 7257   7.279  10.164   1.474  1.3426 -1.4036  1.9337
34619SOL     OW 7258   6.063   3.929   2.339 -0.1663  0.0547  0.5174
34619SOL    HW1 7259   6.152   3.917   2.305 -0.3942  1.5589 -0.7667
34619SOL    HW2 7260   6.056   4.024   2.353 -2.1048  0.1995 -1.0422
34620SOL     OW 7261   0.102   7.207   6.433 -0.5353 -0.0810  0.1136
34620SOL    HW1 7262   0.027   7.267   6.436 -0.4489  0.0368 -0.0754
34620SOL    HW2 7263   0.103   7.166   6.520  0.1146  1.0714  0.6734
34621SOL     OW 7264   3.380   9.967   0.183 -0.4009  0.0978  0.3310
34621SOL    HW1 7265   3.412   9.933   0.266  0.2262  0.4349  0.2346
34621SOL    HW2 7266   3.373   9.890   0.126  0.6388  0.0568  0.2297
34622SOL     OW 7267   9.098  10.344   1.572 -0.6921  0.1317 -0.1808
34622SOL    HW1 7268   9.129  10.384   1.491  0.9092  0.6633  0.6391
34622SOL    HW2 7269   9.095  10.416   1.634  0.6580 -0.6961  0.9036
34623SOL     OW 7270  10.702   6.505   0.845  0.1515 -0.1481  0.3591
34623SOL    HW1 7271  10.625   6.449   0.857  1.1193 -1.6823 -0.1435
34623SOL    HW2 7272  10.734   6.482   0.758  1.9923 -0.6521  1.1143
34624SOL     OW 7273   5.910   4.738   5.580  0.3974  0.1424  0.1784
34624SOL    HW1 7274   5.930   4.757   5.488 -1.1311 -1.1147 -0.4705
34624SOL    HW2 7275   5.865   4.817   5.611  2.6811  1.3966  0.5092
34625SOL     OW 7276   2.503   5.630   0.526  0.1495 -0.1561 -0.2293
34625SOL    HW1 7277   2.423   5.616   0.476 -0.2313  0.0933  0.2961
34625SOL    HW2 7278   2.489   5.583   0.608  0.3914  0.1790  0.0077
34626SOL     OW 7279   5.659   7.509   3.148 -0.0662  0.2887  0.0319
34626SOL    HW1 7280   5.705   7.468   3.221  1.1315  0.7031 -0.4728
34626SOL    HW2 7281   5.588   7.558   3.190 -0.0204 -0.3020  0.8292
34627SOL     OW 7282   7.900   1.139   3.253 -0.2896  0.7087 -0.1642
34627SOL    HW1 7283   7.922   1.219   3.204  0.4479 -0.8093 -2.5119
34627SOL    HW2 7284   7.904   1.166   3.345  2.4696  2.8205 -0.7246
34628SOL     OW 7285   1.371   3.675   9.649 -0.0945 -0.5087  0.1483
34628SOL    HW1 7286   1.412   3.707   9.569 -1.1800 -1.1994 -0.7257
34628SOL    HW2 7287   1.435   3.693   9.718  0.6793  0.5183 -0.7909
34629SOL     OW 7288   1.510   6.882   5.120  0.7937  0.1951  0.1208
34629SOL    HW1 7289   1.520   6.949   5.053 -1.7852  0.0688 -0.5075
34629SOL    HW2 7290   1.489   6.931   5.200 -2.1141  0.2557 -0.5527
34630SOL     OW 7291   1.447  10.553   4.591  0.1930  0.0969  0.1732
34630SOL    HW1 7292   1.452  10.460   4.610  1.4139  0.1528  0.1816
34630SOL    HW2 7293   1.365  10.582   4.631  1.2426 -0.3644  2.8440
34631SOL     OW 7294   1.250   7.969   0.881  0.5230 -0.2112 -0.1233
34631SOL    HW1 7295   1.270   8.035   0.947 -0.3419 -1.5209  1.5398
34631SOL    HW2 7296   1.165   7.995   0.844  0.4995 -0.0445  0.0507
34632SOL     OW 7297   6.378   5.609   3.337 -0.3268  0.5535  0.0309
34632SOL    HW1 7298   6.453   5.630   3.394  0.7357 -1.3680 -0.5675
34632SOL    HW2 7299   6.415   5.608   3.248 -1.0199 -0.4997 -0.2687
34633SOL     OW 7300   8.104   2.217   0.191 -0.1128  0.5025 -0.0530
34633SOL    HW1 7301   8.037   2.275   0.156  2.0284  2.6766 -0.8427
34633SOL    HW2 7302   8.074   2.129   0.169 -2.5452  1.3900 -0.5609
34634SOL     OW 7303   6.829   9.254   3.737  0.0448 -0.6414 -0.3372
34634SOL    HW1 7304   6.746   9.282   3.776  0.1876  1.3587 -1.3140
34634SOL    HW2 7305   6.817   9.161   3.719 -2.0924 -0.3700 -0.6436
34635SOL     OW 7306   2.107   7.565  10.116 -0.9768  0.3743 -0.0690
34635SOL    HW1 7307   2.024   7.583  10.160 -0.6913 -0.8895  1.0503
34635SOL    HW2 7308   2.103   7.471  10.095  0.4316  0.1488  0.5925
34636SOL     OW 7309   0.677   2.814   4.376  0.2389  0.2643 -0.0242
34636SOL    HW1 7310   0.656   2.850   4.290 -1.5515  0.2517  0.3789
34636SOL    HW2 7311   0.593   2.809   4.422  0.8742 -1.5442  1.0383
34637SOL     OW 7312   0.901  10.424   6.815  0.0991  0.2594 -0.2435
34637SOL    HW1 7313   0.845  10.471   6.753  0.8301 -0.4115 -1.4484
34637SOL    HW2 7314   0.841  10.369   6.865 -0.6874  1.9196  0.7271
34638SOL     OW 7315  10.672   4.355   0.921  0.6110 -0.0866 -0.3967
34638SOL    HW1 7316  10.652   4.417   0.991  1.4490  0.4153 -0.5944
34638SOL    HW2 7317  10.759   4.379   0.891 -0.2560  0.5631 -2.5521
34639SOL     OW 7318   5.561   0.144   8.032 -0.2767 -0.0172  0.0732
34639SOL    HW1 7319   5.509   0.077   8.075  0.9797 -1.3056 -0.3461
34639SOL    HW2 7320   5.652   0.121   8.053  0.1810  1.7768  0.2405
34640SOL     OW 7321   0.958   6.215   8.695  0.0797 -0.5988  0.2190
34640SOL    HW1 7322   0.898   6.213   8.769 -1.5141 -2.0499 -1.0391
34640SOL    HW2 7323   1.040   6.251   8.731 -0.9840 -0.2055  2.3748
34641SOL     OW 7324   9.495   3.376   8.780  0.5454  0.3525 -0.6648
34641SOL    HW1 7325   9.518   3.329   8.860 -0.7932  1.2075  0.2611
34641SOL    HW2 7326   9.521   3.317   8.710  0.0045 -1.2647  0.4328
34642SOL     OW 7327   7.790  10.510   7.505  0.2909 -0.0702  0.3558
34642SOL    HW1 7328   7.808  10.601   7.482 -0.5435 -0.4380 -2.0808
34642SOL    HW2 7329   7.723  10.482   7.442  0.8056 -2.4717  0.7657
34643SOL     OW 7330   5.466   0.442   1.830  0.1043 -0.7571  0.1306
34643SOL    HW1 7331   5.495   0.464   1.919 -0.8609 -0.6884  0.4395
34643SOL    HW2 7332   5.434   0.353   1.837 -2.4793  0.1116  0.5155
34644SOL     OW 7333   7.263   8.308   3.193  0.0605  0.6490 -0.2729
34644SOL    HW1 7334   7.295   8.398   3.203  0.7424  0.6444 -1.9744
34644SOL    HW2 7335   7.342   8.257   3.174 -0.6184  0.2602 -2.3452
34645SOL     OW 7336   0.471   8.303   4.955  0.2354 -0.3768  0.1917
34645SOL    HW1 7337   0.379   8.292   4.980  0.0369  0.6161 -0.0566
34645SOL    HW2 7338   0.520   8.266   5.028 -0.3536 -1.3946  0.1016
34646SOL     OW 7339   2.817   5.773   9.484 -0.2755  0.0459  0.8350
34646SOL    HW1 7340   2.902   5.817   9.491  0.6294 -1.7779  1.9724
34646SOL    HW2 7341   2.816   5.736   9.396 -1.5829  3.1846 -0.6467
34647SOL     OW 7342   1.905   8.774   6.071 -0.3444  0.1215  0.8370
34647SOL    HW1 7343   1.817   8.736   6.066 -0.7314  1.0933 -0.3216
34647SOL    HW2 7344   1.892   8.859   6.112  0.1910 -0.0824  1.4396
34648SOL     OW 7345   3.291   4.388   3.350 -0.0008  0.2426 -0.2907
34648SOL    HW1 7346   3.358   4.455   3.365 -3.0011  3.3586  0.5233
34648SOL    HW2 7347   3.256   4.410   3.263 -0.0054 -1.3270 -0.7020
34649SOL     OW 7348   9.768   7.080   8.021 -0.4606  0.1512 -0.0425
34649SOL    HW1 7349   9.710   7.140   7.974  1.5153  0.5175 -2.2317
34649SOL    HW2 7350   9.853   7.125   8.024  0.2963 -1.2460  1.0276
34650SOL     OW 7351   5.312   3.713  10.428 -0.4801  0.1269  0.4285
34650SOL    HW1 7352   5.299   3.619  10.424 -0.5390  0.1765 -0.7400
34650SOL    HW2 7353   5.337   3.739  10.339  2.0457  0.8638  1.2648
34651SOL     OW 7354   6.965   3.362   3.450 -0.2926  0.9149  0.7942
34651SOL    HW1 7355   7.053   3.399   3.439 -0.5077  1.5602  1.1769
34651SOL    HW2 7356   6.906   3.435   3.432 -0.7454  0.5428  0.7607
34652SOL     OW 7357   0.380   3.102   8.731  0.3706 -0.0007  0.1447
34652SOL    HW1 7358   0.290   3.072   8.730  0.3920 -0.0777  0.5065
34652SOL    HW2 7359   0.402   3.116   8.639 -0.0698  0.1964  0.0704
34653SOL     OW 7360  10.035   6.980  10.838 -0.0575 -0.2213 -0.0245
34653SOL    HW1 7361  10.128   7.001  10.839 -0.5069  2.2129  2.3829
34653SOL    HW2 7362  10.015   6.963  10.745  2.3570  1.2272 -0.9009
34654SOL     OW 7363   9.480   3.786  10.370  0.1978  0.0521  0.3084
34654SOL    HW1 7364   9.467   3.875  10.403  1.1770  0.6275 -0.7786
34654SOL    HW2 7365   9.569   3.786  10.335  0.5080 -1.5941  0.9657
34655SOL     OW 7366   2.136   8.562   7.655  0.6659 -0.6509 -0.4864
34655SOL    HW1 7367   2.172   8.600   7.735 -1.5207  0.2450  0.1204
34655SOL    HW2 7368   2.115   8.472   7.679  2.0783 -1.0773 -0.7465
34656SOL     OW 7369   4.560   9.063   1.073 -0.0687 -0.1693  0.5989
34656SOL    HW1 7370   4.473   9.022   1.067  0.0824 -0.5894  1.2909
34656SOL    HW2 7371   4.541   9.156   1.079 -0.5304 -0.3324  1.9640
34657SOL     OW 7372   1.517   8.219   9.345 -0.2077  0.8141  0.2268
34657SOL    HW1 7373   1.573   8.175   9.409  0.6880  2.3763  0.5436
34657SOL    HW2 7374   1.447   8.259   9.398 -1.2789 -0.5300 -0.1016
34658SOL     OW 7375   7.849   3.831   4.442  0.8046 -0.2396  0.2214
34658SOL    HW1 7376   7.920   3.794   4.494 -0.0594 -0.4163  1.3080
34658SOL    HW2 7377   7.849   3.924   4.463 -0.3285 -0.4991  1.5635
34659SOL     OW 7378   7.841   3.653   3.339 -0.6828 -0.3258 -1.1854
34659SOL    HW1 7379   7.764   3.706   3.317 -0.5486 -0.2570 -1.5036
34659SOL    HW2 7380   7.894   3.709   3.395 -1.1298 -0.5795 -0.5034
34660SOL     OW 7381   1.904   2.563   0.585  0.4347 -0.4346  0.2807
34660SOL    HW1 7382   1.859   2.632   0.536 -0.1303 -1.0949 -0.1483
34660SOL    HW2 7383   1.924   2.602   0.669  1.3901  0.7232 -0.4476
34661SOL     OW 7384   6.305   3.398   9.101 -0.4903  0.4462 -0.0462
34661SOL    HW1 7385   6.394   3.402   9.136 -0.3068 -1.5430 -0.1941
34661SOL    HW2 7386   6.313   3.429   9.011  0.4163 -1.2996 -0.6121
34662SOL     OW 7387   9.905   5.925   7.017  0.3928 -0.3522 -0.2306
34662SOL    HW1 7388   9.892   5.998   6.956 -0.4625 -1.4894 -1.4698
34662SOL    HW2 7389   9.885   5.847   6.965  0.8602 -1.4507  1.1820
34663SOL     OW 7390   5.086   4.451   3.948 -0.4467 -0.1610  0.0976
34663SOL    HW1 7391   5.170   4.495   3.942  0.3274 -1.4039  1.2129
34663SOL    HW2 7392   5.027   4.504   3.895  0.4834  2.0433  1.1388
34664SOL     OW 7393   4.556   2.961   3.383  0.0182  0.0759  0.2451
34664SOL    HW1 7394   4.477   2.955   3.329 -0.3593 -0.4468  0.8394
34664SOL    HW2 7395   4.523   2.973   3.472  0.6152 -0.0534  0.4883
34665SOL     OW 7396   5.796   9.431   9.480  0.0728 -0.0323  0.3199
34665SOL    HW1 7397   5.891   9.421   9.481  0.0074 -1.1710 -0.9303
34665SOL    HW2 7398   5.781   9.515   9.436  0.4913  0.9194  1.9005
34666SOL     OW 7399   2.503   7.191   5.042  0.0037 -0.0152 -0.0300
34666SOL    HW1 7400   2.506   7.254   4.970 -2.0638 -0.2140 -0.3692
34666SOL    HW2 7401   2.476   7.109   5.001 -1.8507  0.0171  0.9893
34667SOL     OW 7402   1.295   9.469   3.139  0.4578 -0.2924 -0.0764
34667SOL    HW1 7403   1.267   9.558   3.161 -0.2380 -0.0872 -1.6588
34667SOL    HW2 7404   1.390   9.475   3.134  0.3609  0.8304 -1.8012
34668SOL     OW 7405   6.079   0.225   8.132  0.5009 -0.1321  0.2623
34668SOL    HW1 7406   6.137   0.176   8.190 -0.9557 -1.2861  0.8142
34668SOL    HW2 7407   6.080   0.314   8.167  0.3300 -0.6101  1.5726
34669SOL     OW 7408   4.451   1.643   9.414  0.1500  0.1934 -0.4252
34669SOL    HW1 7409   4.360   1.614   9.422  0.4237 -0.1642  2.2716
34669SOL    HW2 7410   4.447   1.718   9.355 -1.4286 -1.5958 -2.7957
34670SOL     OW 7411   3.918   7.328   8.348 -0.4263 -0.4340 -0.2466
34670SOL    HW1 7412   3.834   7.297   8.313 -0.2178 -1.2821 -0.0146
34670SOL    HW2 7413   3.927   7.417   8.313 -1.5757 -0.2033 -0.0156
34671SOL     OW 7414   0.494   2.378   9.112  0.3777  0.1063 -0.6659
34671SOL    HW1 7415   0.414   2.418   9.145 -0.2583 -0.4276 -1.5217
34671SOL    HW2 7416   0.557   2.389   9.183 -0.0116  1.8407 -0.5449
34672SOL     OW 7417   3.282   7.940   8.237  0.2066  0.1271  0.2338
34672SOL    HW1 7418   3.196   7.977   8.259 -0.6076 -1.8562  0.6468
34672SOL    HW2 7419   3.338   8.016   8.221 -1.8154  1.4752 -0.8414
34673SOL     OW 7420  10.027   2.651   4.258 -0.0766 -0.3736 -0.2628
34673SOL    HW1 7421   9.964   2.722   4.244 -0.8342 -0.7790  0.8601
34673SOL    HW2 7422   9.998   2.610   4.340  0.0763 -2.2565 -1.0988
34674SOL     OW 7423   8.529   7.842   9.412 -0.3984  0.7685 -0.0029
34674SOL    HW1 7424   8.580   7.806   9.339 -2.9004 -0.4627 -1.3271
34674SOL    HW2 7425   8.461   7.894   9.369 -0.3582  2.2254  1.6411
34675SOL     OW 7426   6.498   7.181   3.244  0.1207 -0.4063  0.9572
34675SOL    HW1 7427   6.436   7.226   3.302 -1.8373 -0.9648 -0.5630
34675SOL    HW2 7428   6.584   7.205   3.277 -0.8415  2.6468  1.5843
34676SOL     OW 7429   4.718   3.098   2.767 -0.0512 -0.1259 -0.3812
34676SOL    HW1 7430   4.652   3.112   2.835  0.5039 -0.6342  0.2706
34676SOL    HW2 7431   4.799   3.080   2.815  0.5215  0.3026 -1.1778
34677SOL     OW 7432   2.936   7.276   4.514  0.0356 -0.2569 -0.3748
34677SOL    HW1 7433   2.938   7.368   4.542  0.0639 -0.8305  1.6485
34677SOL    HW2 7434   2.922   7.227   4.594  1.0396 -2.1031 -1.2714
34678SOL     OW 7435   1.959   8.635   2.238  0.3011  0.5043 -0.7356
34678SOL    HW1 7436   1.968   8.712   2.182  2.2332 -0.4200 -1.8219
34678SOL    HW2 7437   1.866   8.614   2.236 -0.5531  3.6101  0.7894
34679SOL     OW 7438   9.039   9.612   5.174  0.1746 -0.4527  0.0746
34679SOL    HW1 7439   9.074   9.527   5.145  0.4379 -0.5098  0.5529
34679SOL    HW2 7440   8.970   9.632   5.111  0.5188 -0.7339 -0.3987
34680SOL     OW 7441   7.801   3.205   2.743 -0.0798  0.4651  0.0949
34680SOL    HW1 7442   7.833   3.136   2.801  0.1522 -1.0886 -1.7820
34680SOL    HW2 7443   7.719   3.233   2.783 -0.0800 -0.7413  1.0166
34681SOL     OW 7444   2.996   3.923   7.032 -0.0665  0.1200  0.0393
34681SOL    HW1 7445   3.049   3.963   7.101 -0.1184  1.7301 -0.7891
34681SOL    HW2 7446   3.008   3.829   7.043  1.2088  0.3928  1.2300
34682SOL     OW 7447   2.824   5.219   5.573  0.4403  0.0028  0.0389
34682SOL    HW1 7448   2.906   5.181   5.605  1.2761  2.6650  1.3839
34682SOL    HW2 7449   2.845   5.251   5.485  1.1855  1.4714  0.7166
34683SOL     OW 7450   5.585   7.442  10.137 -0.2361 -0.5941 -0.2030
34683SOL    HW1 7451   5.599   7.536  10.124  0.5744 -0.7486 -0.5059
34683SOL    HW2 7452   5.587   7.405  10.048 -3.0153 -0.6113 -0.3536
34684SOL     OW 7453   5.726   5.125   5.228  0.0658 -0.0300  0.2422
34684SOL    HW1 7454   5.806   5.173   5.206  0.6371 -1.6705 -1.5149
34684SOL    HW2 7455   5.655   5.184   5.205  0.7430  0.0699 -1.7386
34685SOL     OW 7456   8.202   9.939   7.093 -0.3777  0.1919  0.4315
34685SOL    HW1 7457   8.115   9.903   7.075 -0.6942  1.2704 -0.2585
34685SOL    HW2 7458   8.215  10.006   7.026  1.7530 -1.1758 -0.6337
34686SOL     OW 7459   8.232   0.091   9.737  0.1991 -0.5055  0.3737
34686SOL    HW1 7460   8.141   0.078   9.764  0.6195 -1.5827  1.3843
34686SOL    HW2 7461   8.278   0.014   9.771  0.9855 -1.5159 -2.7048
34687SOL     OW 7462   1.366   9.191   8.005 -0.4876  0.3376 -0.3049
34687SOL    HW1 7463   1.295   9.248   7.974 -1.3693 -1.3098 -1.4603
34687SOL    HW2 7464   1.443   9.220   7.956 -0.7571  0.9968 -0.3488
34688SOL     OW 7465   7.274   1.554   3.311 -0.2813  0.3297 -0.0202
34688SOL    HW1 7466   7.364   1.524   3.323 -0.1127 -0.4521 -2.6360
34688SOL    HW2 7467   7.221   1.474   3.316 -0.8429  0.7658  1.3600
34689SOL     OW 7468   7.032   1.636   8.793 -0.0913  0.1188 -0.2916
34689SOL    HW1 7469   7.080   1.716   8.771 -1.2598  1.3898  1.4694
34689SOL    HW2 7470   7.099   1.569   8.802  0.9417  0.9102 -1.6387
34690SOL     OW 7471   9.005   8.068   8.815 -0.0434 -0.1948  0.0545
34690SOL    HW1 7472   9.011   8.041   8.723 -0.1369 -0.1687  0.0397
34690SOL    HW2 7473   9.068   8.140   8.823 -0.5830  0.3127 -0.1844
34691SOL     OW 7474   4.231   8.654   0.361 -0.2698 -0.1591  0.4743
34691SOL    HW1 7475   4.253   8.603   0.438  0.8308  0.7334  0.7767
34691SOL    HW2 7476   4.249   8.596   0.287  1.2009 -0.1463  0.7987
34692SOL     OW 7477   4.569   6.952   7.043 -0.3087  0.0930  0.1555
34692SOL    HW1 7478   4.554   6.905   6.961 -1.4294 -0.6213  0.7487
34692SOL    HW2 7479   4.640   7.013   7.023  1.2953 -1.9232 -0.6259
34693SOL     OW 7480   6.475   4.126   6.000  0.6145  0.1419 -0.4909
34693SOL    HW1 7481   6.444   4.216   6.007 -1.4437 -0.6032  0.8479
34693SOL    HW2 7482   6.397   4.074   5.982  1.2665 -1.6775  1.4453
34694SOL     OW 7483   0.134   0.363   4.996 -0.3021 -0.4018  0.1618
34694SOL    HW1 7484   0.093   0.449   4.984 -1.1939 -0.7987  0.2506
34694SOL    HW2 7485   0.127   0.346   5.090  0.1236 -0.4564  0.1865
34695SOL     OW 7486   5.994   1.024   1.021  0.1630  0.1389 -0.0596
34695SOL    HW1 7487   5.904   1.015   0.992 -0.0439 -3.0441  1.1703
34695SOL    HW2 7488   6.045   1.037   0.941 -1.2362  0.8011 -0.8682
34696SOL     OW 7489   8.899   0.681   1.221  0.2860 -0.0376  0.0320
34696SOL    HW1 7490   8.853   0.624   1.160  0.5819  0.6793 -0.8859
34696SOL    HW2 7491   8.831   0.737   1.258 -0.2968 -2.0452  2.2378
34697SOL     OW 7492   6.058   7.079   4.669 -0.0307 -0.2751  0.1949
34697SOL    HW1 7493   6.048   7.007   4.732 -0.0538 -1.1055 -0.7378
34697SOL    HW2 7494   6.020   7.155   4.714 -0.2546 -0.8948  1.0896
34698SOL     OW 7495   4.023  10.740   3.115  0.2249  0.1893  0.3293
34698SOL    HW1 7496   4.033  10.833   3.135  0.8289  0.0364  0.7450
34698SOL    HW2 7497   3.934  10.719   3.144  0.1717  0.5776  0.4555
34699SOL     OW 7498   6.287   2.097   0.820  0.2319  0.0096  0.5379
34699SOL    HW1 7499   6.376   2.066   0.835  0.7640  0.5437 -1.1993
34699SOL    HW2 7500   6.266   2.067   0.731 -1.8894 -1.3333  1.3973
34700SOL     OW 7501   9.077   7.388   6.123  0.1636  0.4538  0.1297
34700SOL    HW1 7502   9.000   7.343   6.156 -0.0895  1.1015  0.4400
34700SOL    HW2 7503   9.043   7.462   6.073  0.5523 -0.2682 -1.2643
34701SOL     OW 7504   6.145   5.155   1.899  0.3279 -0.7110  0.2553
34701SOL    HW1 7505   6.195   5.210   1.838 -0.4393 -2.3226 -1.9347
34701SOL    HW2 7506   6.207   5.134   1.969  1.3632  0.8655 -0.1366
34702SOL     OW 7507  10.776   8.968   0.451  0.1921  0.0906 -0.5519
34702SOL    HW1 7508  10.839   8.898   0.465  0.9341  0.7037 -0.7957
34702SOL    HW2 7509  10.825   9.049   0.466 -0.5639  0.5715 -0.6159
34703SOL     OW 7510  10.365   3.302   4.400 -0.3304  0.4928  0.4191
34703SOL    HW1 7511  10.292   3.241   4.416  0.5022 -1.0904 -1.4007
34703SOL    HW2 7512  10.323   3.387   4.387 -1.9235 -0.4291 -0.8906
34704SOL     OW 7513   5.894   4.014   8.349  0.4046  0.0209  0.2760
34704SOL    HW1 7514   5.912   3.920   8.339 -0.0488 -0.1004  0.5317
34704SOL    HW2 7515   5.980   4.055   8.358  0.6856 -0.2164 -1.0744
34705SOL     OW 7516   1.047   3.302   1.448  0.6290  0.4149 -0.4705
34705SOL    HW1 7517   1.078   3.295   1.538 -1.9362  0.2557  0.4855
34705SOL    HW2 7518   1.099   3.238   1.400  2.1200  0.5709  0.8578
34706SOL     OW 7519   9.567   7.846   4.057  0.4073  0.2747  0.4280
34706SOL    HW1 7520   9.518   7.829   4.137  2.2777  0.6887  1.7187
34706SOL    HW2 7521   9.587   7.759   4.022  0.6332  0.0643  1.0804
34707SOL     OW 7522  10.792   7.349   4.425  0.1891 -0.6824  0.2807
34707SOL    HW1 7523  10.709   7.395   4.415 -0.2784 -1.7717 -1.1061
34707SOL    HW2 7524  10.851   7.414   4.463 -0.7238  0.7335 -0.6429
34708SOL     OW 7525   1.609   1.377   2.263 -0.6902  0.2848  0.3944
34708SOL    HW1 7526   1.691   1.331   2.245 -0.3164  1.1786 -0.2331
34708SOL    HW2 7527   1.543   1.307   2.267 -0.3364 -0.2264 -1.7156
34709SOL     OW 7528   5.841   4.529   9.031  0.3318  0.1928  0.1510
34709SOL    HW1 7529   5.835   4.434   9.035 -0.9374  0.3108  1.5684
34709SOL    HW2 7530   5.852   4.548   8.938  2.8471 -1.4179  0.0298
34710SOL     OW 7531   9.288  10.013   2.267 -0.2056 -0.0945 -0.0734
34710SOL    HW1 7532   9.238   9.983   2.343 -0.6660  0.6145 -0.0856
34710SOL    HW2 7533   9.240  10.090   2.236 -0.7079 -1.0504 -1.8078
34711SOL     OW 7534   6.116   2.319   0.860 -0.3471 -0.7611 -0.3361
34711SOL    HW1 7535   6.181   2.250   0.847  0.7413  0.2971 -0.7417
34711SOL    HW2 7536   6.105   2.358   0.773 -0.6481 -0.1770 -0.0380
34712SOL     OW 7537   3.130   9.544   8.730  0.0669 -0.1245 -0.0601
34712SOL    HW1 7538   3.178   9.466   8.704  0.3649 -0.4012  1.2208
34712SOL    HW2 7539   3.056   9.511   8.782  0.1410  0.4342  0.4153
34713SOL     OW 7540   8.360   2.278   8.309  0.0515  0.2725 -0.4363
34713SOL    HW1 7541   8.276   2.324   8.317  0.6297  1.3159 -0.1817
34713SOL    HW2 7542   8.373   2.236   8.394 -0.2801 -0.0246 -0.5296
34714SOL     OW 7543  10.593   9.456   2.009 -0.0356  0.7171 -0.3921
34714SOL    HW1 7544  10.685   9.469   1.985  0.8661  0.6233  2.6673
34714SOL    HW2 7545  10.545   9.474   1.928  2.6242  1.1883 -1.9854
34715SOL     OW 7546   3.311  10.039   5.350  0.8529 -0.8110  0.2591
34715SOL    HW1 7547   3.406  10.043   5.361  0.8521 -1.5445  0.5497
34715SOL    HW2 7548   3.290   9.946   5.350  0.1964 -0.6754 -0.3909
34716SOL     OW 7549   2.905   7.597   5.846 -0.2538  0.0914  0.6300
34716SOL    HW1 7550   2.998   7.614   5.860  0.1708  0.3203 -2.0261
34716SOL    HW2 7551   2.863   7.624   5.928  1.3661  5.2272  0.1221
34717SOL     OW 7552  10.007   3.893   7.643 -0.3769  0.0510  0.0796
34717SOL    HW1 7553  10.100   3.904   7.620 -0.4121  0.2062  0.0108
34717SOL    HW2 7554   9.982   3.977   7.680 -0.9854  0.6473 -1.6031
34718SOL     OW 7555   7.969   0.332   2.522  0.1605 -0.5278 -0.2194
34718SOL    HW1 7556   8.016   0.347   2.440  2.5705 -0.0879  1.1205
34718SOL    HW2 7557   7.893   0.280   2.498  0.6071 -0.1336 -2.7561
34719SOL     OW 7558   1.251   4.945   5.755  0.6025  0.0420  0.1276
34719SOL    HW1 7559   1.167   4.901   5.767  0.8990 -0.4411  0.4785
34719SOL    HW2 7560   1.314   4.873   5.741  1.0494  0.3656  0.4477
34720SOL     OW 7561   9.203   1.135  10.503  0.4572 -0.0781 -0.4133
34720SOL    HW1 7562   9.295   1.113  10.488  0.1197 -0.8989 -1.3742
34720SOL    HW2 7563   9.158   1.051  10.504 -0.1616  0.2439  1.0755
34721SOL     OW 7564   8.872   5.184   7.427 -0.4693 -0.6223  1.3381
34721SOL    HW1 7565   8.786   5.222   7.447  0.2034  0.1793  2.7880
34721SOL    HW2 7566   8.904   5.236   7.353 -0.6016  0.0376  1.7420
34722SOL     OW 7567   5.620   9.336   4.908  0.5499 -0.4207 -0.1444
34722SOL    HW1 7568   5.590   9.407   4.852 -1.7333  1.3357  3.0116
34722SOL    HW2 7569   5.578   9.258   4.873 -2.2741  0.9083  0.0186
34723SOL     OW 7570   5.415   6.983   4.084  0.5820 -0.4753 -0.1697
34723SOL    HW1 7571   5.402   6.899   4.040  1.4298 -0.3120 -0.7626
34723SOL    HW2 7572   5.503   6.976   4.121  1.7498  1.0774 -2.4195
34724SOL     OW 7573   9.560   8.087   7.968 -0.0868 -0.1740 -0.0929
34724SOL    HW1 7574   9.591   8.014   8.020 -0.3859 -2.0727 -2.3939
34724SOL    HW2 7575   9.589   8.067   7.879 -0.6535  2.2504 -0.8953
34725SOL     OW 7576   8.412   5.239   7.472  0.2000 -0.2695 -0.1748
34725SOL    HW1 7577   8.505   5.237   7.453  0.9677  0.7899  2.8720
34725SOL    HW2 7578   8.393   5.331   7.490 -1.0691 -0.6672  0.7145
34726SOL     OW 7579   0.683   2.594   9.835 -0.6468 -0.6080 -0.2046
34726SOL    HW1 7580   0.731   2.511   9.837  1.2450  0.4312 -0.4348
34726SOL    HW2 7581   0.645   2.597   9.747 -1.5384 -1.6270  0.1204
34727SOL     OW 7582   7.214   2.790   3.069  0.1747 -0.4598  0.1124
34727SOL    HW1 7583   7.202   2.878   3.104  0.9965 -0.3199  0.0407
34727SOL    HW2 7584   7.148   2.783   2.999 -2.3281 -1.1544  2.3536
34728SOL     OW 7585  10.726   2.177   4.628  0.1243  0.3062 -0.0557
34728SOL    HW1 7586  10.694   2.259   4.665  0.6622  0.5589 -0.1450
34728SOL    HW2 7587  10.799   2.152   4.684  0.1778  0.0658 -0.2312
34729SOL     OW 7588   3.513   9.228   5.427 -0.1236 -0.2799 -0.1131
34729SOL    HW1 7589   3.598   9.184   5.426 -0.5497 -1.1771  0.8567
34729SOL    HW2 7590   3.506   9.264   5.516 -0.6565 -0.0263 -0.2537
34730SOL     OW 7591   4.715  10.662   2.760  0.1246  0.8868  0.5850
34730SOL    HW1 7592   4.774  10.735   2.776  0.1983  1.0374 -0.3293
34730SOL    HW2 7593   4.634  10.702   2.728  0.6528  0.5261 -1.3270
34731SOL     OW 7594   3.047   8.027   4.490  0.2542 -0.0643 -0.0690
34731SOL    HW1 7595   2.980   8.047   4.425 -0.4952 -1.8755  0.0937
34731SOL    HW2 7596   2.998   8.003   4.569  1.1388  0.8628  0.7821
34732SOL     OW 7597  10.748   3.274   0.375  0.2300  0.5280 -0.0735
34732SOL    HW1 7598  10.716   3.298   0.462  1.7070  1.4332  0.2538
34732SOL    HW2 7599  10.832   3.230   0.392 -0.2738 -0.8332 -0.9511
34733SOL     OW 7600   1.566   2.113   7.334 -0.0021 -0.3228  0.5604
34733SOL    HW1 7601   1.532   2.062   7.261  0.9543 -0.1251 -0.0431
34733SOL    HW2 7602   1.560   2.204   7.304 -0.3647 -0.1812  1.0559
34734SOL     OW 7603   1.214   1.909   8.834  0.1051 -0.5699  0.1410
34734SOL    HW1 7604   1.132   1.861   8.828 -0.6726  0.5486  1.2975
34734SOL    HW2 7605   1.193   1.986   8.886  2.0367 -0.5572  0.9792
34735SOL     OW 7606   0.701   0.797   0.687 -0.1043 -0.6504  0.3314
34735SOL    HW1 7607   0.678   0.784   0.595  0.5941 -1.4301  0.2653
34735SOL    HW2 7608   0.647   0.872   0.714  0.7413  0.5400 -1.1032
34736SOL     OW 7609   6.501   7.404   1.178  0.5389 -0.3485  0.1061
34736SOL    HW1 7610   6.467   7.462   1.246  0.4904 -0.2655  0.0117
34736SOL    HW2 7611   6.468   7.317   1.202 -0.6061 -0.1192 -0.5344
34737SOL     OW 7612   7.329   6.985   4.698  0.0839  0.2330  0.0076
34737SOL    HW1 7613   7.306   7.015   4.786  0.3477 -2.4608  1.0976
34737SOL    HW2 7614   7.421   6.959   4.705 -0.1517 -0.8827 -0.7520
34738SOL     OW 7615   3.474   5.024   4.205 -0.2686 -0.0130  0.3822
34738SOL    HW1 7616   3.527   4.956   4.162  1.0442  1.2723 -0.0973
34738SOL    HW2 7617   3.439   5.076   4.133  0.1190  0.8275  0.7931
34739SOL     OW 7618   9.122   4.080   2.563  0.0300 -0.0636 -0.3692
34739SOL    HW1 7619   9.216   4.098   2.575  0.3644 -2.0332  0.2887
34739SOL    HW2 7620   9.118   4.030   2.481 -0.3094 -0.8195  0.0956
34740SOL     OW 7621   7.024   4.466   8.454  0.5340  0.2330  0.2741
34740SOL    HW1 7622   7.067   4.513   8.382 -0.2914  0.3200 -0.1650
34740SOL    HW2 7623   6.944   4.431   8.416  0.3682 -0.2066  1.0110
34741SOL     OW 7624   2.628   9.373   8.852  0.2899  0.0634 -0.2642
34741SOL    HW1 7625   2.565   9.304   8.828  1.8143 -1.4474 -0.0711
34741SOL    HW2 7626   2.673   9.339   8.929  0.4256  1.7393  0.4367
34742SOL     OW 7627   8.640   7.961   8.115 -0.7476 -0.1816  0.1125
34742SOL    HW1 7628   8.686   7.938   8.196  2.3681  0.4952 -1.3067
34742SOL    HW2 7629   8.622   8.055   8.125  0.6803  0.1766 -0.3583
34743SOL     OW 7630   0.520   8.992   2.980 -0.0455 -0.2490 -0.6368
34743SOL    HW1 7631   0.479   9.058   2.924  0.4033 -0.4958 -1.2659
34743SOL    HW2 7632   0.523   8.913   2.927  0.6657 -0.4052 -0.3727
34744SOL     OW 7633   9.288   6.020   5.780  0.1842  0.0362  0.3030
34744SOL    HW1 7634   9.285   5.940   5.832  0.0896 -0.6461 -0.7397
34744SOL    HW2 7635   9.334   6.083   5.837  0.5476 -0.8393  1.0062
34745SOL     OW 7636   8.343   1.762   3.781  0.0349 -0.8057  0.0310
34745SOL    HW1 7637   8.343   1.728   3.871  0.3485 -1.2667 -0.1429
34745SOL    HW2 7638   8.411   1.712   3.736  0.8910  0.4168 -0.0936
34746SOL     OW 7639   8.084   5.554   3.004  0.0024  0.6023 -0.4516
34746SOL    HW1 7640   8.008   5.601   2.970 -0.1802  1.3492  0.9037
34746SOL    HW2 7641   8.070   5.463   2.977 -1.6261  0.6348  0.1515
34747SOL     OW 7642  10.809   0.896   0.586  0.2179  0.1948 -0.1471
34747SOL    HW1 7643  10.748   0.927   0.653  1.5082  1.4986  0.4743
34747SOL    HW2 7644  10.766   0.818   0.549 -0.9104 -0.0673  1.6003
34748SOL     OW 7645   9.976   4.769   9.488  0.1488 -0.1505  0.2668
34748SOL    HW1 7646  10.071   4.758   9.495  0.5678  1.9861 -1.1468
34748SOL    HW2 7647   9.951   4.812   9.569  0.6317  0.4728  0.0972
34749SOL     OW 7648   9.471   6.551   4.398 -0.7914 -0.2417 -0.6767
34749SOL    HW1 7649   9.505   6.494   4.466 -0.1621  2.3085  1.2996
34749SOL    HW2 7650   9.544   6.608   4.375 -2.1790  1.8395 -0.2138
34750SOL     OW 7651  10.561   6.319   6.266 -0.4699 -0.4594 -0.2385
34750SOL    HW1 7652  10.509   6.265   6.206 -0.2404 -1.2900  0.2822
34750SOL    HW2 7653  10.541   6.284   6.353  0.9001 -0.7853 -0.0194
34751SOL     OW 7654   3.122   2.509   7.249 -0.5638 -0.3012  0.3030
34751SOL    HW1 7655   3.160   2.548   7.170 -2.5281  2.1763  0.4633
34751SOL    HW2 7656   3.188   2.447   7.278  0.2247 -1.4082 -3.2929
34752SOL     OW 7657   6.913   0.269   2.521 -0.1555  0.2564 -0.1797
34752SOL    HW1 7658   6.933   0.359   2.544 -2.5163  0.4065  1.6671
34752SOL    HW2 7659   6.953   0.217   2.591 -0.0613 -0.0241 -0.4375
34753SOL     OW 7660  10.886   1.615  10.903 -0.5797  0.4880  0.6770
34753SOL    HW1 7661  10.795   1.622  10.930 -0.3560  0.3599  1.4843
34753SOL    HW2 7662  10.889   1.537  10.848 -1.0472  0.7697  0.2400
34754SOL     OW 7663   1.640   5.319   6.643 -0.4766 -0.6090 -0.7411
34754SOL    HW1 7664   1.611   5.345   6.556 -0.5536  1.4893 -0.1438
34754SOL    HW2 7665   1.578   5.362   6.702  0.4528 -0.7745  0.3909
34755SOL     OW 7666   3.937   0.321   6.791 -0.1313  0.1692 -0.3130
34755SOL    HW1 7667   3.979   0.252   6.844 -1.3578 -1.4672 -1.3521
34755SOL    HW2 7668   3.950   0.293   6.701  1.4016  2.6074 -0.9203
34756SOL     OW 7669   4.232  10.543   7.538 -0.4202 -0.6561  0.4235
34756SOL    HW1 7670   4.185  10.485   7.599 -1.6311 -1.2181 -0.9602
34756SOL    HW2 7671   4.183  10.625   7.540  1.0146  0.2184  2.0238
34757SOL     OW 7672   5.637   5.639   1.486  0.1296  0.3117 -0.6678
34757SOL    HW1 7673   5.544   5.641   1.508  0.6845  2.0419  1.8870
34757SOL    HW2 7674   5.681   5.615   1.567  1.9036 -2.5772 -2.3067
34758SOL     OW 7675  10.813   1.848   7.382  0.0421 -0.3301  0.0173
34758SOL    HW1 7676  10.735   1.845   7.326  0.1459 -2.0218 -0.0708
34758SOL    HW2 7677  10.834   1.757   7.400  0.9192  0.1409  1.5853
34759SOL     OW 7678   3.744   0.918   1.503  0.3941  0.2805 -0.4155
34759SOL    HW1 7679   3.665   0.904   1.450  1.6151 -0.0260 -2.2526
34759SOL    HW2 7680   3.722   0.883   1.589 -0.3384 -3.1415 -1.8453
34760SOL     OW 7681   2.154   3.411   4.792 -0.1827 -0.4460 -0.1521
34760SOL    HW1 7682   2.111   3.413   4.707 -1.5524 -0.2788  0.5164
34760SOL    HW2 7683   2.179   3.320   4.804 -0.3966 -0.5572 -0.5289
34761SOL     OW 7684  10.388   0.424   6.127  0.5788  0.2026 -0.3935
34761SOL    HW1 7685  10.323   0.428   6.198 -0.3486 -1.2710 -1.1184
34761SOL    HW2 7686  10.351   0.480   6.058 -0.1013 -0.8496 -0.9126
34762SOL     OW 7687   5.644   7.634   4.016  0.3430  0.0063  0.2261
34762SOL    HW1 7688   5.569   7.577   4.001 -0.2549  1.1139 -1.1487
34762SOL    HW2 7689   5.667   7.619   4.108 -1.5951 -0.3210  0.7003
34763SOL     OW 7690   6.808   5.739  10.356  0.2273  0.5600 -0.2616
34763SOL    HW1 7691   6.821   5.801  10.284 -0.7065  2.5454  1.1997
34763SOL    HW2 7692   6.714   5.725  10.359  0.2763  0.3525  0.4679
34764SOL     OW 7693   8.905   1.165   4.609  0.0547 -0.1583 -0.1626
34764SOL    HW1 7694   8.929   1.121   4.527 -0.4035 -0.0080 -0.3843
34764SOL    HW2 7695   8.838   1.228   4.583 -1.2769 -1.2236  0.5650
34765SOL     OW 7696  10.604   2.452   8.973  0.7399  0.2270  0.4294
34765SOL    HW1 7697  10.519   2.492   8.956  1.1709  1.3370  0.7809
34765SOL    HW2 7698  10.585   2.379   9.032 -0.6276 -2.8736 -3.3910
34766SOL     OW 7699   2.465   4.182   1.038  0.2566  0.4417 -0.1458
34766SOL    HW1 7700   2.402   4.233   0.987 -0.8709  0.0066  0.7464
34766SOL    HW2 7701   2.522   4.247   1.079 -0.9552  0.9883  0.7233
34767SOL     OW 7702  10.636   1.701   6.347 -0.3855 -0.5376 -0.0278
34767SOL    HW1 7703  10.676   1.702   6.434  1.8423 -0.4785 -0.9855
34767SOL    HW2 7704  10.594   1.787   6.339  1.5636  0.5120  0.1197
34768SOL     OW 7705   5.989   0.929   2.794 -0.1425 -0.2201  0.3513
34768SOL    HW1 7706   5.945   0.876   2.726  1.1801  1.3378 -1.8574
34768SOL    HW2 7707   6.070   0.882   2.812 -0.4212 -0.5557  0.7252
34769SOL     OW 7708   7.680   0.101   4.632  0.1330 -0.0185 -0.5024
34769SOL    HW1 7709   7.736   0.037   4.676 -0.4180 -1.5442 -1.9287
34769SOL    HW2 7710   7.737   0.176   4.616  1.2215 -0.7454 -0.1393
34770SOL     OW 7711   5.492   0.050   8.796  0.3662 -0.5034  0.1836
34770SOL    HW1 7712   5.560   0.026   8.734 -0.1952  0.6357 -0.9279
34770SOL    HW2 7713   5.532   0.116   8.852  0.9397 -1.6869  1.2059
34771SOL     OW 7714   2.774   2.387   1.072 -0.3003 -0.2040  0.1805
34771SOL    HW1 7715   2.771   2.347   1.158  0.8813 -0.9423 -0.1040
34771SOL    HW2 7716   2.823   2.326   1.018 -0.5146  0.5171 -0.8771
34772SOL     OW 7717   4.359  10.554   6.672 -0.7429  0.5139 -0.2749
34772SOL    HW1 7718   4.419  10.485   6.643  0.8880  1.7572 -0.0282
34772SOL    HW2 7719   4.324  10.522   6.756  0.5407  0.2697  0.1934
34773SOL     OW 7720   7.349   6.697   3.637  0.1403  0.2448 -0.2877
34773SOL    HW1 7721   7.323   6.677   3.547  1.3441  0.3906 -0.6822
34773SOL    HW2 7722   7.289   6.645   3.691 -0.6962  0.2737 -1.1627
34774SOL     OW 7723   2.272   2.349  10.660  0.0610 -0.2446 -0.1604
34774SOL    HW1 7724   2.327   2.337  10.737  1.7112  1.1888 -1.0401
34774SOL    HW2 7725   2.192   2.390  10.694  0.6593  0.1404  0.8271
34775SOL     OW 7726   8.516   1.179   7.095  0.2497 -0.2381 -0.2580
34775SOL    HW1 7727   8.519   1.170   7.190  1.4337  2.1383  0.0169
34775SOL    HW2 7728   8.607   1.170   7.068  0.1733  0.8398 -0.9298
34776SOL     OW 7729   5.967   1.216   3.730  0.1395  0.0431 -0.2250
34776SOL    HW1 7730   5.969   1.139   3.788 -0.8813 -0.2789 -0.5904
34776SOL    HW2 7731   6.005   1.286   3.783  0.5995 -0.5849  0.3033
34777SOL     OW 7732   7.143   1.206   2.882  0.0480  0.2937 -0.5109
34777SOL    HW1 7733   7.154   1.111   2.875  0.3029  0.3968 -1.8247
34777SOL    HW2 7734   7.068   1.225   2.825 -1.0364  0.7128  0.9852
34778SOL     OW 7735   8.685   0.123   4.647 -0.0799 -0.0061 -0.2111
34778SOL    HW1 7736   8.777   0.125   4.619  0.1500 -0.3345  0.4802
34778SOL    HW2 7737   8.685   0.171   4.730 -0.1524 -1.6629  0.8059
34779SOL     OW 7738   5.276   1.377   9.741  0.4097  0.4681 -0.1741
34779SOL    HW1 7739   5.201   1.384   9.800 -0.2728 -0.4166 -0.8905
34779SOL    HW2 7740   5.347   1.343   9.795  0.3036  1.3030  0.5093
34780SOL     OW 7741   9.835   5.696   5.868  0.0759 -0.5747  0.3343
34780SOL    HW1 7742   9.821   5.787   5.843  1.9728 -0.2486  0.3358
34780SOL    HW2 7743   9.748   5.656   5.861 -1.0594  1.4974  1.5321
34781SOL     OW 7744   6.221   0.597   1.733  0.6590 -0.2066  0.3790
34781SOL    HW1 7745   6.199   0.639   1.650 -0.4698 -1.4662 -0.0110
34781SOL    HW2 7746   6.267   0.664   1.783  1.2193  0.6362 -1.1889
34782SOL     OW 7747   6.296   6.467   1.275 -0.2359  0.0527 -0.3410
34782SOL    HW1 7748   6.250   6.441   1.196 -0.8015 -1.1414  0.3611
34782SOL    HW2 7749   6.292   6.391   1.332  0.7640  0.6530  0.5797
34783SOL     OW 7750   1.652   7.615   3.868 -0.5850  0.0295  0.0505
34783SOL    HW1 7751   1.598   7.537   3.881  0.1056 -0.5917 -0.6865
34783SOL    HW2 7752   1.639   7.639   3.777 -0.9062  0.8704  0.3151
34784SOL     OW 7753   0.046   4.596   8.888  0.4745 -0.1874 -0.3991
34784SOL    HW1 7754   0.104   4.581   8.963 -1.9957 -0.0816  1.6634
34784SOL    HW2 7755  -0.028   4.646   8.924 -1.2027 -0.8283 -2.7277
34785SOL     OW 7756   6.800   7.393   2.747 -0.1497  0.2918  0.4210
34785SOL    HW1 7757   6.866   7.401   2.678 -0.8286 -1.8457 -0.5279
34785SOL    HW2 7758   6.733   7.457   2.723  0.0040  0.1367 -0.4501
34786SOL     OW 7759   0.791   1.813   7.405  0.0738  0.0854  0.2004
34786SOL    HW1 7760   0.790   1.751   7.332  0.2363  0.2103  0.0915
34786SOL    HW2 7761   0.845   1.886   7.374 -1.3030  0.9699 -0.2426
34787SOL     OW 7762   5.572   6.482   2.945 -0.5086  0.0896 -0.4041
34787SOL    HW1 7763   5.526   6.454   2.866 -0.7711  1.5978 -0.8231
34787SOL    HW2 7764   5.659   6.507   2.913  0.4112 -2.0598  0.2694
34788SOL     OW 7765   9.972   9.013   3.607 -0.2876  0.1576  0.3446
34788SOL    HW1 7766   9.989   9.095   3.653 -1.7762  1.2184 -0.8797
34788SOL    HW2 7767  10.049   9.000   3.552  0.9385 -0.4634  2.1490
34789SOL     OW 7768   7.536   4.045   4.387  0.2379 -0.6568  0.3772
34789SOL    HW1 7769   7.562   4.067   4.476  2.7304 -0.6955 -0.2608
34789SOL    HW2 7770   7.576   4.113   4.333 -1.4113 -0.5135 -0.7339
34790SOL     OW 7771   5.208   1.295   0.835 -0.7679  0.2771  0.1906
34790SOL    HW1 7772   5.217   1.389   0.817  2.7523  0.3993  1.7097
34790SOL    HW2 7773   5.183   1.291   0.927  3.1381 -0.0607  1.4242
34791SOL     OW 7774   8.866   3.046   0.885 -0.1198  0.1167  0.1464
34791SOL    HW1 7775   8.854   3.023   0.977  1.5370 -0.7651  0.1719
34791SOL    HW2 7776   8.906   2.969   0.845 -0.6180  0.5521 -1.2821
34792SOL     OW 7777   1.070   3.780   2.608  0.1141  0.0109  0.5467
34792SOL    HW1 7778   1.006   3.798   2.539  0.5455 -1.9916 -0.4492
34792SOL    HW2 7779   1.036   3.702   2.652  1.4309 -0.5949  0.5325
34793SOL     OW 7780   6.180   6.669   9.672 -0.4934 -0.0003 -0.1352
34793SOL    HW1 7781   6.225   6.613   9.609 -0.0958  1.8101 -1.5437
34793SOL    HW2 7782   6.232   6.660   9.752  0.9688  0.1474 -1.0238
34794SOL     OW 7783   9.544   4.279   3.161 -0.1001  0.5734  0.2720
34794SOL    HW1 7784   9.538   4.310   3.071  1.3268  0.1121 -0.0103
34794SOL    HW2 7785   9.612   4.334   3.201 -1.5849  1.6298  1.4648
34795SOL     OW 7786   3.301   8.520   6.780  0.0578 -0.2865  0.2354
34795SOL    HW1 7787   3.325   8.477   6.863 -0.1462 -0.7360  0.0653
34795SOL    HW2 7788   3.220   8.476   6.753  0.3559 -0.4455 -0.4227
34796SOL     OW 7789   9.030   4.257   7.852  0.0630 -0.3516 -0.1177
34796SOL    HW1 7790   9.084   4.259   7.931 -1.3176 -0.4506  0.8591
34796SOL    HW2 7791   9.061   4.179   7.804 -0.0430 -1.1229  1.0321
34797SOL     OW 7792   4.148   1.681   6.534  0.7649 -0.8053  0.2012
34797SOL    HW1 7793   4.207   1.725   6.596  1.6349 -0.9662 -0.4976
34797SOL    HW2 7794   4.203   1.618   6.489  0.1088 -0.7910 -0.6459
34798SOL     OW 7795   9.648   1.124   9.005  0.3287 -0.5378 -0.5859
34798SOL    HW1 7796   9.577   1.138   8.941  0.5534  0.6721 -0.5874
34798SOL    HW2 7797   9.622   1.044   9.051 -0.4202 -0.7957 -1.4116
34799SOL     OW 7798   1.101   5.301   9.274  0.0552  0.1078 -0.3758
34799SOL    HW1 7799   1.124   5.394   9.281 -0.3824  0.2522 -0.8105
34799SOL    HW2 7800   1.051   5.295   9.193  1.1084 -0.7240 -0.9885
34800SOL     OW 7801   0.565   0.639   0.472 -0.1210  0.1790 -0.1127
34800SOL    HW1 7802   0.524   0.725   0.466  0.1193  0.5343  2.4122
34800SOL    HW2 7803   0.496   0.583   0.509 -0.6369 -1.0460 -2.7054
34801SOL     OW 7804  10.723  10.246   3.445  0.0045  0.4018 -0.6843
34801SOL    HW1 7805  10.768  10.316   3.397  0.0887  0.4274 -0.5680
34801SOL    HW2 7806  10.790  10.181   3.462  0.1282  0.6964 -0.0229
34802SOL     OW 7807   2.482   2.846   8.180 -0.1015 -0.2615  0.6913
34802SOL    HW1 7808   2.434   2.910   8.233  1.6820  0.4015  1.5934
34802SOL    HW2 7809   2.534   2.796   8.244  1.2657 -0.1794 -0.3143
34803SOL     OW 7810   6.223   0.319   0.710  0.4256 -0.1304  0.1799
34803SOL    HW1 7811   6.214   0.369   0.791 -0.3689  1.7240 -0.9780
34803SOL    HW2 7812   6.135   0.285   0.693  0.5711 -0.4508  0.0735
34804SOL     OW 7813   2.520   8.070   6.250  0.0333  0.2289 -0.0612
34804SOL    HW1 7814   2.555   7.983   6.229 -0.0315  0.3727 -0.8060
34804SOL    HW2 7815   2.476   8.059   6.335  0.3487 -0.3738  0.0280
34805SOL     OW 7816   4.402   7.846   0.731  0.5234 -0.3651  0.1992
34805SOL    HW1 7817   4.378   7.760   0.696 -0.3676 -0.1056  0.1618
34805SOL    HW2 7818   4.469   7.826   0.797 -0.4945 -1.2164  1.0289
34806SOL     OW 7819   9.375   2.322   9.749  0.2285  0.0252  0.3539
34806SOL    HW1 7820   9.428   2.350   9.823  1.1063  0.6496 -0.4878
34806SOL    HW2 7821   9.288   2.359   9.766  0.6813  0.9986  0.5923
34807SOL     OW 7822   7.285   2.047  10.802  0.5008  0.0532  0.2186
34807SOL    HW1 7823   7.256   1.958  10.783 -1.5264  0.7494 -0.1797
34807SOL    HW2 7824   7.241   2.102  10.738  3.2825  1.2114 -0.8631
34808SOL     OW 7825   3.916   3.160   3.926  0.0465  0.9228 -0.1783
34808SOL    HW1 7826   3.873   3.245   3.931  2.5656  2.3135 -0.2003
34808SOL    HW2 7827   3.983   3.171   3.858 -1.3022 -2.0117 -2.2297
34809SOL     OW 7828  10.510   7.796  10.383  0.0650 -0.4079  0.0155
34809SOL    HW1 7829  10.518   7.888  10.409 -0.0816 -0.2161 -0.6028
34809SOL    HW2 7830  10.495   7.799  10.288 -1.4663 -1.0027  0.2150
34810SOL     OW 7831   7.160   9.535   3.570 -0.6211 -0.0595  0.6188
34810SOL    HW1 7832   7.087   9.481   3.540  0.3259  0.0430 -2.1604
34810SOL    HW2 7833   7.132   9.624   3.552 -0.6316  0.1359  1.5639
34811SOL     OW 7834   5.987   5.607   0.521 -0.5023 -0.8637  0.2502
34811SOL    HW1 7835   5.923   5.676   0.501 -0.3460 -0.6372  0.5278
34811SOL    HW2 7836   5.978   5.592   0.615 -0.5708 -1.2616  0.1824
34812SOL     OW 7837   8.306   1.875   5.643  0.2282 -0.1277  0.3243
34812SOL    HW1 7838   8.249   1.826   5.702  0.9504  0.9271  1.9811
34812SOL    HW2 7839   8.374   1.813   5.617 -0.7576 -0.9363 -0.3858
34813SOL     OW 7840   9.856   9.329   9.506 -0.0872  0.0763 -0.0453
34813SOL    HW1 7841   9.792   9.294   9.568 -0.4680  0.1882 -0.3777
34813SOL    HW2 7842   9.835   9.287   9.423  0.5227 -0.1957 -0.0724
34814SOL     OW 7843  10.130   1.294   0.060  0.3854 -0.2975  0.1946
34814SOL    HW1 7844  10.215   1.329   0.087 -0.0553 -0.3913  1.7852
34814SOL    HW2 7845  10.126   1.207   0.100 -0.5909 -0.1661  0.3995
34815SOL     OW 7846   0.699   5.019   9.667 -0.5523 -0.3140 -0.1098
34815SOL    HW1 7847   0.754   4.953   9.624  0.6449 -0.2142  1.2179
34815SOL    HW2 7848   0.749   5.047   9.743 -1.3146  1.6849 -0.2762
34816SOL     OW 7849   2.312   6.875   8.967  0.0184  0.8971  0.3151
34816SOL    HW1 7850   2.316   6.796   9.021 -0.9333  0.4492 -0.2597
34816SOL    HW2 7851   2.254   6.934   9.014  0.2670  1.0353  0.4523
34817SOL     OW 7852   9.332   6.084   6.385 -0.9673  0.8507  0.1542
34817SOL    HW1 7853   9.338   6.074   6.480 -0.9614  1.3990  0.2129
34817SOL    HW2 7854   9.258   6.028   6.360  0.3642 -1.0122  0.2001
34818SOL     OW 7855   9.004   0.784   2.470  0.0207 -0.3676 -0.1106
34818SOL    HW1 7856   8.978   0.769   2.561  0.2694  0.6028  0.1324
34818SOL    HW2 7857   9.094   0.817   2.476 -0.2412  0.4845 -0.6424
34819SOL     OW 7858   4.641   9.076  10.687  0.2026  0.2521 -0.0336
34819SOL    HW1 7859   4.558   9.122  10.674 -0.4064 -1.0098 -0.8080
34819SOL    HW2 7860   4.663   9.092  10.779  0.0243  2.0410 -0.2644
34820SOL     OW 7861   3.169   7.252   4.390 -0.1512 -0.6229  0.0555
34820SOL    HW1 7862   3.091   7.239   4.444 -0.7429 -0.9787 -0.8536
34820SOL    HW2 7863   3.229   7.300   4.446 -0.8991 -0.6279  0.8897
34821SOL     OW 7864   8.520   8.668   5.602 -0.0288  0.2886 -0.3323
34821SOL    HW1 7865   8.441   8.628   5.636 -0.0022 -0.3073 -0.9482
34821SOL    HW2 7866   8.555   8.720   5.674 -1.2371  0.9485 -0.2010
34822SOL     OW 7867   0.275   4.938   5.256 -0.4037  0.5585 -0.0896
34822SOL    HW1 7868   0.190   4.980   5.271 -0.3784  0.7160 -0.3773
34822SOL    HW2 7869   0.329   4.966   5.331 -0.6740  0.2651  0.2189
34823SOL     OW 7870   0.922   6.629   9.446 -0.1650  0.1999 -0.1951
34823SOL    HW1 7871   0.876   6.575   9.381  0.3696  1.2177 -1.4648
34823SOL    HW2 7872   0.968   6.695   9.394  1.9933 -0.2111  1.0695
34824SOL     OW 7873   2.262   9.736   8.508  1.0469  0.0076 -0.2215
34824SOL    HW1 7874   2.218   9.793   8.570  0.6510  0.2481 -0.7152
34824SOL    HW2 7875   2.248   9.777   8.423  0.1038 -1.2131 -0.6820
34825SOL     OW 7876   4.506  10.192   8.259  0.0263 -0.1084  0.6046
34825SOL    HW1 7877   4.428  10.138   8.248  1.1977 -2.3341  2.4223
34825SOL    HW2 7878   4.483  10.251   8.331  0.1030 -1.0293  1.4082
34826SOL     OW 7879   0.431   7.811   7.653 -0.5195 -0.1129  0.1918
34826SOL    HW1 7880   0.441   7.766   7.569 -0.3320  0.7994 -0.2835
34826SOL    HW2 7881   0.410   7.901   7.629  1.5263  0.6439  1.0912
34827SOL     OW 7882   9.926   4.626   2.881 -0.3114  0.0634  0.4568
34827SOL    HW1 7883  10.003   4.680   2.895 -0.5914  0.2526  1.2823
34827SOL    HW2 7884   9.943   4.545   2.929 -1.4918  0.9223  2.4794
34828SOL     OW 7885   0.213   2.989   1.261  0.0523  0.1251  0.6216
34828SOL    HW1 7886   0.164   3.037   1.194 -0.9153 -2.3485 -0.5605
34828SOL    HW2 7887   0.146   2.937   1.306  1.2289 -1.3475  0.7257
34829SOL     OW 7888   7.719   7.009  10.509  0.3183 -0.0188  0.2965
34829SOL    HW1 7889   7.749   7.050  10.428  1.4778 -0.5425  0.4368
34829SOL    HW2 7890   7.798   7.000  10.562 -0.1214 -1.2549  0.7837
34830SOL     OW 7891   7.616   9.369  10.587 -0.2777 -0.1085 -0.3700
34830SOL    HW1 7892   7.539   9.425  10.594  0.6900  1.4274 -1.3812
34830SOL    HW2 7893   7.631   9.361  10.493  0.8969 -0.2212 -0.1882
34831SOL     OW 7894   5.321   0.999   8.575 -0.0488  0.2734 -0.0712
34831SOL    HW1 7895   5.365   1.029   8.654 -0.9804  2.4597 -0.3121
34831SOL    HW2 7896   5.270   0.922   8.603 -0.9167  1.4185  1.6636
34832SOL     OW 7897   3.273  10.244   3.773 -0.5325 -0.0878  0.1595
34832SOL    HW1 7898   3.189  10.258   3.816 -2.3314  2.3098 -3.5760
34832SOL    HW2 7899   3.333  10.303   3.819 -1.3500 -0.3704  1.6525
34833SOL     OW 7900   0.301   0.503   8.133  0.6571  0.0169  0.6267
34833SOL    HW1 7901   0.303   0.545   8.219 -0.0970  0.1244  0.6039
34833SOL    HW2 7902   0.392   0.480   8.115  1.3882  3.0783 -0.0772
34834SOL     OW 7903   3.136   1.155   1.313 -0.3026  0.1276  0.2668
34834SOL    HW1 7904   3.061   1.146   1.254  1.3421  1.1594 -2.1324
34834SOL    HW2 7905   3.150   1.067   1.348 -0.3332 -0.9577 -2.2572
34835SOL     OW 7906   9.652   1.553   0.710  0.1690  0.6729  0.3355
34835SOL    HW1 7907   9.656   1.613   0.636 -1.1296  1.7355  1.0776
34835SOL    HW2 7908   9.589   1.486   0.682  1.2998 -0.1415 -0.3287
34836SOL     OW 7909   0.972   2.160   1.222  0.3938 -0.2528  0.1014
34836SOL    HW1 7910   0.964   2.117   1.307  0.2933 -1.4239 -0.4709
34836SOL    HW2 7911   1.066   2.165   1.206  0.4162  0.1510  0.3773
34837SOL     OW 7912   0.509   6.282   4.386 -0.0553  0.1414  0.7350
34837SOL    HW1 7913   0.487   6.192   4.364 -1.1141  0.6768 -0.4607
34837SOL    HW2 7914   0.432   6.315   4.432 -1.4733  1.6607 -2.4459
34838SOL     OW 7915  10.851   0.737   9.678 -0.3168 -0.4247  0.0030
34838SOL    HW1 7916  10.945   0.741   9.663 -0.2361 -1.6904  0.1043
34838SOL    HW2 7917  10.819   0.674   9.614 -1.1051 -0.0305 -0.0096
34839SOL     OW 7918   2.821   0.374   8.373  0.0181  0.9108 -0.5484
34839SOL    HW1 7919   2.879   0.322   8.316 -0.8275 -0.6617 -0.0252
34839SOL    HW2 7920   2.827   0.331   8.458  0.2414  2.4495  0.2407
34840SOL     OW 7921   0.495   0.914   8.508 -0.1804  0.5556 -0.1074
34840SOL    HW1 7922   0.440   0.843   8.544  1.3595 -0.5830  0.1123
34840SOL    HW2 7923   0.448   0.943   8.430 -1.2325 -0.1896  0.2225
34841SOL     OW 7924   8.679   3.943   1.789  0.5166  0.3223  0.0715
34841SOL    HW1 7925   8.599   3.916   1.835  0.9391 -2.2914 -0.5610
34841SOL    HW2 7926   8.745   3.948   1.858  0.3169  0.1345  0.2831
34842SOL     OW 7927   4.943   3.028   1.211  0.0928 -0.3453  0.0165
34842SOL    HW1 7928   4.903   2.968   1.274  1.9128  0.4608  2.0917
34842SOL    HW2 7929   4.957   3.108   1.261  1.7949  0.2666 -1.3517
34843SOL     OW 7930   0.852   5.489   3.576  0.4853  0.1022  1.0592
34843SOL    HW1 7931   0.814   5.557   3.521  1.8849 -0.9957 -1.4572
34843SOL    HW2 7932   0.899   5.537   3.645 -3.0336  1.4980  2.7166
34844SOL     OW 7933  10.192   9.022   1.661  0.6415 -0.1780  0.2806
34844SOL    HW1 7934  10.211   8.945   1.607 -0.5147  0.6956 -1.4888
34844SOL    HW2 7935  10.098   9.014   1.681  0.2375  1.2675 -0.8557
34845SOL     OW 7936   7.230   4.198   1.349  0.4949 -0.4433  0.4377
34845SOL    HW1 7937   7.264   4.199   1.260  1.1738  0.3313  0.6925
34845SOL    HW2 7938   7.184   4.114   1.357  0.1606 -0.3882 -0.7319
34846SOL     OW 7939   0.592   6.594   2.294  0.3599  0.2051  0.3326
34846SOL    HW1 7940   0.619   6.638   2.374  0.3334 -0.8234  0.9245
34846SOL    HW2 7941   0.603   6.660   2.225  2.4316  0.4710  0.8478
34847SOL     OW 7942   7.052   1.848   1.658  0.3186  0.6456 -0.4959
34847SOL    HW1 7943   7.006   1.833   1.740 -0.5095  2.2316 -0.6461
34847SOL    HW2 7944   7.105   1.926   1.675  0.1712  0.9566 -1.4515
34848SOL     OW 7945   7.054  10.190   6.730 -0.8135 -0.4597  0.2970
34848SOL    HW1 7946   7.113  10.261   6.756 -1.2423  0.1103 -0.2558
34848SOL    HW2 7947   7.066  10.123   6.797 -1.4545  0.7316  1.6720
34849SOL     OW 7948   3.861   3.409   0.342 -0.0859  0.3855 -0.3582
34849SOL    HW1 7949   3.787   3.421   0.401 -0.6845 -1.6871 -0.6383
34849SOL    HW2 7950   3.845   3.473   0.272 -1.4230  0.2045 -0.2449
34850SOL     OW 7951   9.033   9.927   0.476  0.3519  0.0076  0.0049
34850SOL    HW1 7952   9.055   9.851   0.421 -0.3669 -0.2293  0.0269
34850SOL    HW2 7953   8.943   9.949   0.450  0.7502  1.2116 -0.4076
34851SOL     OW 7954   1.745  10.681   3.489 -0.3071 -0.0284 -0.5108
34851SOL    HW1 7955   1.726  10.751   3.551 -1.2702  0.2403 -1.0844
34851SOL    HW2 7956   1.659  10.653   3.458  0.0689 -1.3578 -0.4182
34852SOL     OW 7957   5.570   4.544   3.656  0.0692  0.5534  0.7005
34852SOL    HW1 7958   5.638   4.565   3.719  1.4045 -1.0595 -0.1445
34852SOL    HW2 7959   5.497   4.510   3.709  0.9571 -0.2574  1.4263
34853SOL     OW 7960   6.114   1.309   0.187 -0.2459 -0.1490  0.5228
34853SOL    HW1 7961   6.171   1.265   0.250  1.5000  2.1740  0.7085
34853SOL    HW2 7962   6.137   1.402   0.195 -1.4037  0.4547 -2.1150
34854SOL     OW 7963   7.281   3.612   4.053 -0.1387 -0.0670 -0.5893
34854SOL    HW1 7964   7.321   3.565   3.980 -1.5907 -0.5925 -1.0719
34854SOL    HW2 7965   7.243   3.543   4.108 -0.4474  0.4164 -0.1857
34855SOL     OW 7966   4.701   3.971   4.108  0.3388 -0.2438  0.1655
34855SOL    HW1 7967   4.665   4.005   4.026 -0.8091  1.2391  1.2252
34855SOL    HW2 7968   4.753   4.043   4.143  0.1390 -0.5630  1.1413
34856SOL     OW 7969   8.444   1.924   1.074  0.0135 -0.2004 -0.1527
34856SOL    HW1 7970   8.443   1.828   1.077 -1.1886 -0.2007 -0.0997
34856SOL    HW2 7971   8.450   1.950   1.166 -1.9991 -0.2476  0.0368
34857SOL     OW 7972   0.699   3.635   1.722 -0.4377 -0.3540  1.0351
34857SOL    HW1 7973   0.682   3.541   1.711 -0.5084 -0.2725  0.4348
34857SOL    HW2 7974   0.724   3.665   1.635 -1.9176  0.4969  0.8796
34858SOL     OW 7975   0.950  10.012   8.726  0.0607 -0.2200 -0.1690
34858SOL    HW1 7976   0.922  10.086   8.780  1.0402  1.3549 -1.6957
34858SOL    HW2 7977   0.932   9.935   8.779  0.2593  1.1832  2.0535
34859SOL     OW 7978   1.095   0.964   0.650 -0.3976  0.1084 -0.3024
34859SOL    HW1 7979   1.075   0.875   0.621 -0.1588  0.4576 -1.5945
34859SOL    HW2 7980   1.102   0.957   0.746 -1.2793 -1.0674 -0.3053
34860SOL     OW 7981   1.586   1.652   4.799 -0.0235 -0.2933 -0.5613
34860SOL    HW1 7982   1.662   1.697   4.763  0.5078  0.6769  1.6038
34860SOL    HW2 7983   1.514   1.715   4.791  0.3931  0.4704  1.1327
34861SOL     OW 7984   2.130   0.970   0.005  0.1644 -0.2885  0.1092
34861SOL    HW1 7985   2.207   0.916  -0.008 -0.6926 -1.7922  1.0145
34861SOL    HW2 7986   2.162   1.060  -0.003  1.7974 -0.8965 -0.5299
34862SOL     OW 7987   0.432   1.405   5.490 -0.4977  0.2975 -0.1310
34862SOL    HW1 7988   0.418   1.402   5.395 -0.9854  1.6794 -0.1302
34862SOL    HW2 7989   0.352   1.445   5.525 -0.4369 -0.4570  0.8960
34863SOL     OW 7990   8.505   3.089   6.630  0.2986 -0.3075 -0.3536
34863SOL    HW1 7991   8.483   2.996   6.642  0.2877 -0.4076 -1.0617
34863SOL    HW2 7992   8.568   3.108   6.699 -2.0912  0.0322  1.8623
34864SOL     OW 7993   4.385   0.085   9.772 -0.1730  0.1199 -0.1636
34864SOL    HW1 7994   4.421   0.089   9.684 -0.8119 -0.6147 -0.4639
34864SOL    HW2 7995   4.296   0.117   9.763 -0.9352 -1.9056 -0.1819
34865SOL     OW 7996   9.567   5.637   4.389 -0.0747  0.3533 -0.1788
34865SOL    HW1 7997   9.553   5.548   4.424 -1.1097  0.6221  0.1379
34865SOL    HW2 7998   9.499   5.647   4.322  1.2483  0.2231 -1.5735
34866SOL     OW 7999   4.011  10.127   2.692  0.0228 -0.4415  0.1063
34866SOL    HW1 8000   3.938  10.084   2.738  1.4501 -1.8527  1.1614
34866SOL    HW2 8001   4.013  10.084   2.606 -0.7846  0.0712 -0.1764
34867SOL     OW 8002   2.307   4.027   9.830  0.1231 -0.5211 -0.7901
34867SOL    HW1 8003   2.364   3.952   9.850  0.3897 -0.0565  0.2401
34867SOL    HW2 8004   2.361   4.083   9.774  0.2317 -0.6768 -0.8434
34868SOL     OW 8005   1.205   1.781   8.363  0.3571 -0.1309 -0.6407
34868SOL    HW1 8006   1.236   1.838   8.433  0.7680 -1.2309  0.1001
34868SOL    HW2 8007   1.166   1.841   8.299 -1.4605  0.8193  1.2114
34869SOL     OW 8008   1.352   7.533   9.964 -0.5287  1.0637  0.0249
34869SOL    HW1 8009   1.410   7.479   9.911  0.5191  2.0998  0.0779
34869SOL    HW2 8010   1.328   7.605   9.907 -1.5350  0.8043  0.1096
34870SOL     OW 8011   4.329   0.148   7.726 -0.0029  0.1986 -0.0743
34870SOL    HW1 8012   4.285   0.233   7.727  0.0884  0.2454  0.3815
34870SOL    HW2 8013   4.422   0.168   7.739 -0.0768 -0.0123  0.8917
34871SOL     OW 8014   0.103   1.385   0.946 -0.4748  0.6864  0.3175
34871SOL    HW1 8015   0.073   1.305   0.902 -0.7571  0.4962  0.8433
34871SOL    HW2 8016   0.197   1.385   0.933 -0.5455  0.6003 -0.2305
34872SOL     OW 8017   4.675   7.783   8.109 -0.1445  0.0032 -0.5403
34872SOL    HW1 8018   4.603   7.720   8.106 -0.4405  0.2637  0.5519
34872SOL    HW2 8019   4.725   7.767   8.029  0.2308 -2.1338  0.0655
34873SOL     OW 8020   2.418   4.409   0.509 -0.3923  0.0395 -0.4977
34873SOL    HW1 8021   2.443   4.333   0.561 -1.0089 -1.1888 -1.9309
34873SOL    HW2 8022   2.487   4.417   0.443  1.1880  2.4886  1.2826
34874SOL     OW 8023   7.049   9.540   5.241  0.4325  0.5339  0.7460
34874SOL    HW1 8024   7.069   9.569   5.152 -0.7888 -0.0188  0.2708
34874SOL    HW2 8025   7.050   9.621   5.293  1.6879  0.7947  0.3635
34875SOL     OW 8026   5.546   0.069   0.831  0.9691  0.4955  0.1363
34875SOL    HW1 8027   5.524   0.005   0.763 -2.2950  0.2309  1.2398
34875SOL    HW2 8028   5.568   0.149   0.783 -1.8669  0.5161 -1.3895
34876SOL     OW 8029   8.412   2.874   4.391 -0.0753 -0.7142 -0.2941
34876SOL    HW1 8030   8.377   2.798   4.438  1.5528 -1.7100 -0.6158
34876SOL    HW2 8031   8.349   2.891   4.321 -1.2668 -0.7488  0.7336
34877SOL     OW 8032   8.695   8.055   0.950 -0.0414 -0.4329 -0.0025
34877SOL    HW1 8033   8.736   8.088   1.030  0.2780  1.3893 -0.8598
34877SOL    HW2 8034   8.744   8.097   0.879 -1.1655 -0.9489 -1.1272
34878SOL     OW 8035   5.627   9.156   2.758 -0.0674  0.6355 -0.0432
34878SOL    HW1 8036   5.599   9.231   2.705  1.4188  0.5103 -1.0626
34878SOL    HW2 8037   5.711   9.130   2.719 -0.1477 -1.0191  0.8395
34879SOL     OW 8038  10.450   4.040   7.973  0.1423 -0.4136 -0.5799
34879SOL    HW1 8039  10.376   3.994   8.012 -1.1739  0.6290 -1.7282
34879SOL    HW2 8040  10.411   4.093   7.903  2.1971 -1.3305 -2.5673
34880SOL     OW 8041   0.261   7.978   1.149  0.0943  0.1727 -0.2353
34880SOL    HW1 8042   0.184   7.931   1.116 -0.9290  1.8472 -0.3781
34880SOL    HW2 8043   0.291   8.030   1.074 -0.7809  2.1543  0.7003
34881SOL     OW 8044   1.201  10.883   5.313 -0.6255 -1.0028  0.9953
34881SOL    HW1 8045   1.215  10.789   5.303  0.2083 -0.7783 -0.1951
34881SOL    HW2 8046   1.200  10.916   5.223 -0.8347  0.1366  1.4030
34882SOL     OW 8047   1.745   2.064   2.194  0.7869 -0.3472 -0.3920
34882SOL    HW1 8048   1.815   2.127   2.209  0.9629 -0.3456 -1.1786
34882SOL    HW2 8049   1.725   2.072   2.100 -0.5515 -0.0367 -0.1047
34883SOL     OW 8050   4.072  10.188   4.410  0.8102  0.0921  0.3793
34883SOL    HW1 8051   4.133  10.251   4.449 -0.0711  0.8055  0.6350
34883SOL    HW2 8052   4.068  10.212   4.318  1.7414 -0.6496  0.1308
34884SOL     OW 8053   5.107   6.698   5.103  0.3734  0.4268 -0.1354
34884SOL    HW1 8054   5.196   6.684   5.071 -0.3336 -1.5140 -1.4203
34884SOL    HW2 8055   5.061   6.739   5.030  0.1430  1.2962  0.4718
34885SOL     OW 8056   2.628   6.360   7.457 -0.3696 -0.3430 -0.9568
34885SOL    HW1 8057   2.682   6.321   7.525 -1.5875 -0.8346 -0.2375
34885SOL    HW2 8058   2.675   6.440   7.431 -1.1119  1.3632  2.3490
34886SOL     OW 8059   6.887   7.603   1.475  0.0525 -0.9090 -0.1630
34886SOL    HW1 8060   6.949   7.669   1.506  1.6464 -1.9228 -1.0270
34886SOL    HW2 8061   6.822   7.652   1.425 -0.7056  0.3418  1.9250
34887SOL     OW 8062   4.181   7.741   6.465 -0.1184  0.0208 -0.1231
34887SOL    HW1 8063   4.144   7.708   6.547 -0.6197  0.6825 -0.0750
34887SOL    HW2 8064   4.266   7.697   6.458 -1.2494 -2.2243 -0.6723
34888SOL     OW 8065   4.520   8.249  10.197 -0.0610 -0.5587  0.0747
34888SOL    HW1 8066   4.473   8.278  10.119 -1.8448  1.1431  1.6573
34888SOL    HW2 8067   4.611   8.276  10.181 -0.9263  2.6814 -0.1987
34889SOL     OW 8068   0.637   9.194   3.139  0.7629 -0.5189 -0.5336
34889SOL    HW1 8069   0.595   9.143   3.070  1.1836 -2.8558  0.8196
34889SOL    HW2 8070   0.727   9.206   3.108 -0.1109  2.4228 -2.3445
34890SOL     OW 8071   6.806   1.470   8.812 -0.2923 -0.0525  0.1887
34890SOL    HW1 8072   6.863   1.525   8.758 -0.4501 -0.9266 -0.9221
34890SOL    HW2 8073   6.748   1.532   8.856 -0.8468  0.6698 -1.4636
34891SOL     OW 8074   0.852   1.971   2.635 -0.2934  0.0686  0.5854
34891SOL    HW1 8075   0.823   2.010   2.553  0.4296  0.1850  0.3742
34891SOL    HW2 8076   0.777   1.980   2.694 -0.9349 -0.3033 -0.1500
34892SOL     OW 8077   4.019   6.845  10.802 -0.2886  0.4937  0.0767
34892SOL    HW1 8078   4.024   6.840  10.707  1.4024  0.8439  0.1176
34892SOL    HW2 8079   4.073   6.772  10.833  1.9252  2.2723  0.7111
34893SOL     OW 8080   1.585   2.987  10.808  0.2986 -0.0577 -0.6096
34893SOL    HW1 8081   1.538   2.906  10.785 -2.1024  1.2900 -0.8300
34893SOL    HW2 8082   1.549   3.053  10.749  1.2540  1.4424  0.4198
34894SOL     OW 8083  10.829   6.265   5.475 -0.1645 -0.7328  0.7403
34894SOL    HW1 8084  10.795   6.345   5.515  2.5312  0.5405  0.7159
34894SOL    HW2 8085  10.807   6.274   5.382  2.0455  1.2239  0.3010
34895SOL     OW 8086  10.521   0.616   1.667 -0.5155  0.1901 -0.0868
34895SOL    HW1 8087  10.466   0.684   1.628 -1.7189 -0.8009 -0.1528
34895SOL    HW2 8088  10.496   0.614   1.759 -0.9378 -0.5973 -0.2174
34896SOL     OW 8089   0.526   4.343   6.468 -0.4365  0.4668 -0.3130
34896SOL    HW1 8090   0.606   4.303   6.433 -0.1830 -0.1780  0.9462
34896SOL    HW2 8091   0.468   4.269   6.483  0.1013  0.4522  2.2334
34897SOL     OW 8092   1.982   1.510   6.447 -0.4592  0.0362  0.0917
34897SOL    HW1 8093   1.956   1.449   6.516 -0.1232 -1.0552 -0.7171
34897SOL    HW2 8094   1.900   1.545   6.413 -0.6924 -0.5329  0.0678
34898SOL     OW 8095   2.263  10.315   6.249  0.3079 -0.1393  0.0707
34898SOL    HW1 8096   2.308  10.289   6.169  1.4451 -1.9429  1.2258
34898SOL    HW2 8097   2.306  10.265   6.318 -2.8022 -1.2102  1.4190
34899SOL     OW 8098  10.784   4.633   6.786  0.0198  0.1952 -0.2191
34899SOL    HW1 8099  10.728   4.557   6.770 -1.2233  0.8260  0.8855
34899SOL    HW2 8100  10.873   4.600   6.773 -0.4192 -1.7126  1.1131
34900SOL     OW 8101   8.851   7.372  10.238  0.0624  0.1790  0.1839
34900SOL    HW1 8102   8.905   7.414  10.171  0.2962  2.0429  1.4546
34900SOL    HW2 8103   8.871   7.419  10.319 -0.6611 -1.5867  1.4744
34901SOL     OW 8104   7.721   4.247   6.995 -0.0328  0.5460 -0.2948
34901SOL    HW1 8105   7.645   4.277   6.945  0.1068  0.6425 -0.4468
34901SOL    HW2 8106   7.749   4.167   6.951 -1.1313 -0.4909  0.8003
34902SOL     OW 8107   5.182   6.497   4.327  0.1887 -0.3541  0.2311
34902SOL    HW1 8108   5.213   6.580   4.291  2.1004 -0.9974  0.2455
34902SOL    HW2 8109   5.254   6.436   4.312 -0.5913 -1.6619  1.4809
34903SOL     OW 8110   5.245  10.493   4.171 -0.3556  0.6746 -0.1827
34903SOL    HW1 8111   5.272  10.583   4.192 -2.3545  1.5989 -1.2694
34903SOL    HW2 8112   5.316  10.459   4.116  0.0389  1.8989 -0.4660
34904SOL     OW 8113   0.723   8.301   2.362 -0.1297 -0.5777 -0.3514
34904SOL    HW1 8114   0.750   8.282   2.452 -1.6349 -0.0816  0.2402
34904SOL    HW2 8115   0.729   8.217   2.317 -1.4786 -1.3323  0.7985
34905SOL     OW 8116   2.263   2.497   4.623  0.4582  0.7369  0.2457
34905SOL    HW1 8117   2.244   2.421   4.570 -2.3471 -0.0176  2.0956
34905SOL    HW2 8118   2.260   2.571   4.562 -0.5344 -0.2755 -0.9798
34906SOL     OW 8119  10.234   8.226   4.265  0.0813 -0.1916  0.2346
34906SOL    HW1 8120  10.219   8.264   4.351  0.5046 -2.9975  1.6505
34906SOL    HW2 8121  10.328   8.208   4.262 -0.0384 -0.7777 -0.5197
34907SOL     OW 8122   9.562  10.916   9.647  0.3202  0.5513  0.7634
34907SOL    HW1 8123   9.538  10.983   9.711 -3.0096  1.7725 -1.4757
34907SOL    HW2 8124   9.610  10.963   9.580  1.1609 -0.0999  0.8917
34908SOL     OW 8125   5.755   6.133   1.705  0.4061  0.6517 -0.1125
34908SOL    HW1 8126   5.816   6.182   1.760  0.6008 -0.5271  0.7711
34908SOL    HW2 8127   5.810   6.075   1.653  0.1348  0.7682 -0.5346
34909SOL     OW 8128   6.487   3.873   3.280 -0.4929 -0.0679 -0.2954
34909SOL    HW1 8129   6.407   3.839   3.319 -0.3177 -0.2261 -0.0688
34909SOL    HW2 8130   6.474   3.864   3.186 -0.6081 -0.3911 -0.2481
34910SOL     OW 8131  10.622   3.819   7.720 -0.5359 -1.2039  0.2541
34910SOL    HW1 8132  10.692   3.765   7.757  0.6499  0.2878  0.2577
34910SOL    HW2 8133  10.578   3.857   7.796  1.0784  0.8244  0.2676
34911SOL     OW 8134   7.089   3.727   9.498 -0.3586 -0.2607 -0.0987
34911SOL    HW1 8135   7.157   3.707   9.562 -0.5976 -1.5548 -0.2159
34911SOL    HW2 8136   7.117   3.809   9.458  1.3666 -0.9620 -0.4400
34912SOL     OW 8137   2.461   2.097   7.547 -0.5099 -0.3125 -0.2427
34912SOL    HW1 8138   2.426   2.071   7.461 -0.5134 -0.2056 -0.2737
34912SOL    HW2 8139   2.397   2.065   7.610 -0.5859 -0.2538 -0.2904
34913SOL     OW 8140   2.438   6.859   3.341 -0.6657  0.2216  0.1391
34913SOL    HW1 8141   2.363   6.861   3.401 -0.4220  2.1519  0.4527
34913SOL    HW2 8142   2.425   6.936   3.285 -0.5893 -1.2204 -1.9585
34914SOL     OW 8143   5.827   9.960  10.409  0.5890  0.3266  0.1181
34914SOL    HW1 8144   5.821   9.925  10.498  0.4702  0.2573  0.0837
34914SOL    HW2 8145   5.859  10.049  10.421 -0.6554  0.7744  0.3323
34915SOL     OW 8146   6.300   8.230   2.345 -0.1601 -0.0618  0.2135
34915SOL    HW1 8147   6.365   8.296   2.321 -0.4503  0.6188  1.2194
34915SOL    HW2 8148   6.244   8.274   2.409 -0.2794 -1.3426  1.0203
34916SOL     OW 8149   2.863   8.280   5.474  0.1936 -0.2703 -0.0049
34916SOL    HW1 8150   2.957   8.268   5.466  0.3906  1.5542 -0.9399
34916SOL    HW2 8151   2.838   8.329   5.395 -1.4739 -0.3758  0.4142
34917SOL     OW 8152   7.320   6.371   3.140 -1.0923  0.5324  0.4843
34917SOL    HW1 8153   7.264   6.441   3.107 -0.6765  0.6573  0.0318
34917SOL    HW2 8154   7.305   6.298   3.080 -0.3586  0.7490  0.0244
34918SOL     OW 8155   9.807   2.668   2.133 -0.7588  0.0771 -0.0768
34918SOL    HW1 8156   9.797   2.641   2.042 -0.9645  2.0717 -0.6854
34918SOL    HW2 8157   9.897   2.646   2.155 -0.2546  0.8690 -1.2438
34919SOL     OW 8158   7.250  10.823   5.045 -0.3424 -0.3724 -0.2664
34919SOL    HW1 8159   7.160  10.801   5.023 -0.8759  1.6258 -0.2909
34919SOL    HW2 8160   7.265  10.908   5.003 -0.6874  2.6546  4.9384
34920SOL     OW 8161   3.494   9.309   2.539 -0.1672 -0.0185 -0.1367
34920SOL    HW1 8162   3.485   9.398   2.506 -0.0782  0.0451  0.0123
34920SOL    HW2 8163   3.434   9.304   2.614 -0.1112 -0.0582 -0.0939
34921SOL     OW 8164   8.816   1.796   8.394  0.2215  0.5659  0.1281
34921SOL    HW1 8165   8.898   1.841   8.414  0.5194 -1.0451  3.1444
34921SOL    HW2 8166   8.833   1.751   8.311  1.2717  2.6816 -0.8702
34922SOL     OW 8167   1.046  10.198   6.568 -0.9053  0.0296  0.0654
34922SOL    HW1 8168   1.023  10.235   6.653 -1.5127 -2.5402  1.1044
34922SOL    HW2 8169   1.130  10.238   6.546 -0.5017  0.3931  2.0977
34923SOL     OW 8170   8.832   6.863  10.283  0.2423  0.1454 -0.2275
34923SOL    HW1 8171   8.794   6.940  10.240 -0.9864 -1.8568 -3.0482
34923SOL    HW2 8172   8.889   6.824  10.216 -0.8030 -2.5157  0.3129
34924SOL     OW 8173   7.876   4.830   9.006 -0.6154  0.6751 -0.4908
34924SOL    HW1 8174   7.799   4.783   8.973 -1.7840  0.7428  1.8574
34924SOL    HW2 8175   7.862   4.920   8.979 -1.9477  0.8828  0.7456
34925SOL     OW 8176   9.774   1.200   7.740  0.2117  0.1807 -0.7040
34925SOL    HW1 8177   9.826   1.267   7.785  0.5063 -0.5651  0.1055
34925SOL    HW2 8178   9.746   1.242   7.659 -1.4439  2.0447  0.7317
34926SOL     OW 8179   1.973   1.995   7.092  0.0314 -0.1274 -0.1014
34926SOL    HW1 8180   1.887   1.974   7.057 -0.9377  0.8909  1.5348
34926SOL    HW2 8181   1.984   1.934   7.165 -0.6511  1.6524  1.5637
34927SOL     OW 8182   3.635   1.330   0.499  0.0360  0.7443  0.0219
34927SOL    HW1 8183   3.629   1.412   0.549  0.5135  1.0255 -0.3722
34927SOL    HW2 8184   3.605   1.354   0.411 -0.4575  0.3364  0.0804
34928SOL     OW 8185   1.705   5.195   0.935 -0.4417  0.1361  0.2329
34928SOL    HW1 8186   1.730   5.283   0.907  2.6915  0.0419  2.2481
34928SOL    HW2 8187   1.730   5.139   0.862  0.1538  0.6506  0.0367
34929SOL     OW 8188   4.810   4.632   0.996 -0.1746  0.6172  0.2952
34929SOL    HW1 8189   4.839   4.549   0.958  0.0611  0.3166  1.1178
34929SOL    HW2 8190   4.890   4.685   1.002 -0.5231  1.4217 -1.4430
34930SOL     OW 8191   2.833   0.015  10.073  0.0661 -0.0633 -0.0589
34930SOL    HW1 8192   2.831   0.054   9.986 -0.1211  1.8283  0.7356
34930SOL    HW2 8193   2.796  -0.072  10.062 -0.7806  0.4732 -1.7068
34931SOL     OW 8194   8.872   2.023   1.091  0.0757 -0.3325 -0.1723
34931SOL    HW1 8195   8.900   2.073   1.168  0.1141  0.1870 -0.5198
34931SOL    HW2 8196   8.816   1.955   1.127 -1.0492  0.7489  0.2017
34932SOL     OW 8197   8.547   2.831   9.613 -0.3601  0.3340  0.3886
34932SOL    HW1 8198   8.619   2.767   9.610  0.5611  1.3657 -0.3549
34932SOL    HW2 8199   8.472   2.780   9.642  0.5187 -0.9281  0.5703
34933SOL     OW 8200   7.976  10.514  10.142  0.1693  0.0495 -0.3751
34933SOL    HW1 8201   7.979  10.602  10.106  2.3645 -0.3432 -1.3571
34933SOL    HW2 8202   7.890  10.480  10.118 -1.9283  2.8262  2.5136
34934SOL     OW 8203   9.620   9.265   6.704  0.0538  0.4255 -0.4387
34934SOL    HW1 8204   9.669   9.336   6.747  2.8829 -0.3704 -2.1069
34934SOL    HW2 8205   9.638   9.188   6.758 -0.3503  0.3273 -0.4401
34935SOL     OW 8206   6.823   2.781   9.595 -0.0049 -0.2864 -0.2794
34935SOL    HW1 8207   6.879   2.718   9.641  2.9404  1.3931 -1.2793
34935SOL    HW2 8208   6.764   2.815   9.663  0.1545 -2.1131  0.8490
34936SOL     OW 8209   4.457   2.631   6.481 -0.2308 -0.7802  0.0515
34936SOL    HW1 8210   4.490   2.567   6.418  2.4040 -0.7383  1.2828
34936SOL    HW2 8211   4.380   2.589   6.519 -0.5074 -1.7801 -1.5011
34937SOL     OW 8212   3.624   3.034   0.464 -0.2655 -0.1451 -0.5752
34937SOL    HW1 8213   3.711   3.068   0.440 -0.9409  0.6738 -2.0289
34937SOL    HW2 8214   3.634   3.003   0.554  1.8876 -1.3631 -1.1670
34938SOL     OW 8215   5.560   0.132   4.800  0.3661  0.0026 -0.2515
34938SOL    HW1 8216   5.529   0.215   4.834 -0.9647 -0.8775  0.8106
34938SOL    HW2 8217   5.490   0.103   4.741  1.1174 -0.0792 -1.1370
34939SOL     OW 8218   9.243   3.859   8.837 -0.4967 -0.1627  0.5436
34939SOL    HW1 8219   9.292   3.784   8.871  0.2069  0.4075  0.8031
34939SOL    HW2 8220   9.232   3.916   8.913 -0.7526  0.1467  0.2756
34940SOL     OW 8221   4.790   5.038   8.453 -0.0552 -0.0222 -0.0574
34940SOL    HW1 8222   4.803   5.127   8.485  1.2679 -0.2263  0.0441
34940SOL    HW2 8223   4.709   5.009   8.494 -1.0018  1.4288 -0.7959
34941SOL     OW 8224   9.316  10.160  10.679 -0.2983  0.5620 -0.1924
34941SOL    HW1 8225   9.288  10.213  10.604 -2.2551 -0.0094  0.0556
34941SOL    HW2 8226   9.275  10.203  10.755  1.1316  0.7709  0.4975
34942SOL     OW 8227   2.327   8.213   2.202 -0.1761 -0.3706  0.0193
34942SOL    HW1 8228   2.305   8.304   2.222 -1.6937  0.1367 -3.3639
34942SOL    HW2 8229   2.255   8.162   2.238 -0.4905  0.0035 -0.0782
34943SOL     OW 8230   4.104   0.593   3.733 -0.5014  0.4801  0.5082
34943SOL    HW1 8231   4.146   0.674   3.704 -0.4151  0.7061  1.2346
34943SOL    HW2 8232   4.175   0.530   3.740 -0.5827  0.3100 -0.1503
34944SOL     OW 8233   6.277   2.407   2.750 -0.0989  0.1206 -0.6473
34944SOL    HW1 8234   6.359   2.456   2.753  0.3240 -0.6172  0.2133
34944SOL    HW2 8235   6.273   2.361   2.834 -0.0915 -1.9131 -1.6990
34945SOL     OW 8236   9.176   2.926   3.656 -0.1151 -0.0813  0.1717
34945SOL    HW1 8237   9.229   2.967   3.587  1.1011 -1.9385 -0.0447
34945SOL    HW2 8238   9.198   2.975   3.735 -0.8344  1.4729 -0.5291
34946SOL     OW 8239   7.668   6.739   1.967 -0.3328 -0.2946 -0.6994
34946SOL    HW1 8240   7.583   6.784   1.962 -0.7536 -0.8356  1.0033
34946SOL    HW2 8241   7.678   6.717   2.059  2.1096  0.5712 -0.6787
34947SOL     OW 8242   5.530   0.856   9.771 -0.1203 -0.2296 -0.5159
34947SOL    HW1 8243   5.532   0.812   9.685  0.6144 -1.3051  0.0185
34947SOL    HW2 8244   5.619   0.889   9.782  0.0366 -0.8688  0.2010
34948SOL     OW 8245   8.286   8.875   6.565 -0.5622  0.1796 -0.7874
34948SOL    HW1 8246   8.204   8.903   6.605 -0.0505 -0.1508  0.5736
34948SOL    HW2 8247   8.318   8.953   6.519 -0.9254  0.7508 -0.0944
34949SOL     OW 8248   4.115   3.844   7.064  0.3002  0.1487 -0.5785
34949SOL    HW1 8249   4.208   3.820   7.066  0.1310 -0.4830  0.6016
34949SOL    HW2 8250   4.083   3.809   6.981  0.6614 -1.4632 -0.0662
34950SOL     OW 8251   1.840   0.768  10.181  0.4304  0.0702  0.1328
34950SOL    HW1 8252   1.868   0.792  10.093  2.4565 -1.5278  0.2551
34950SOL    HW2 8253   1.769   0.828  10.201 -0.5598  0.0670 -2.8384
34951SOL     OW 8254   2.217   2.834   1.156  0.5801 -0.4394 -0.5640
34951SOL    HW1 8255   2.210   2.769   1.226 -0.6299 -0.8418 -1.0155
34951SOL    HW2 8256   2.310   2.849   1.145  0.7918 -0.0565  1.4042
34952SOL     OW 8257   8.814   6.716  10.031 -0.3131  0.0053 -0.1238
34952SOL    HW1 8258   8.887   6.673   9.986 -0.8071 -0.8273 -0.1404
34952SOL    HW2 8259   8.773   6.647  10.083 -1.6705  0.2384 -0.8434
34953SOL     OW 8260  10.382   2.652   6.057 -0.2758  0.2693  0.2794
34953SOL    HW1 8261  10.356   2.602   6.135  0.3246 -1.0879 -0.3547
34953SOL    HW2 8262  10.309   2.712   6.042 -2.1947 -2.0709 -0.3096
34954SOL     OW 8263   2.863   9.902   2.352  0.2614 -0.1469 -0.4607
34954SOL    HW1 8264   2.863   9.884   2.446  1.7854  0.9879 -0.1998
34954SOL    HW2 8265   2.771   9.901   2.327 -0.1861 -0.1860  1.0977
34955SOL     OW 8266   0.479   5.912  10.831  0.3300  0.2278  0.1931
34955SOL    HW1 8267   0.423   5.876  10.763  0.1166 -0.1718  0.5759
34955SOL    HW2 8268   0.561   5.863  10.823  0.4349  0.4356 -0.0124
34956SOL     OW 8269   2.052   6.943   6.417  0.0299 -0.6842  0.4380
34956SOL    HW1 8270   1.978   6.914   6.470  0.7120  1.1795  2.5687
34956SOL    HW2 8271   2.129   6.921   6.469  0.7455  0.9046  0.1040
34957SOL     OW 8272   0.494   2.458   3.697 -0.0351  0.1098  0.2200
34957SOL    HW1 8273   0.533   2.517   3.633  0.4459  0.1106  0.5131
34957SOL    HW2 8274   0.510   2.500   3.782 -1.0070  0.3044  0.3257
34958SOL     OW 8275   9.431   3.545   3.627  0.0464 -0.1244 -0.3472
34958SOL    HW1 8276   9.351   3.597   3.622  0.8610  1.1470 -0.6872
34958SOL    HW2 8277   9.485   3.577   3.554  1.2968 -0.1549  0.5296
34959SOL     OW 8278   3.174   4.112   1.107 -0.3578  0.5770  0.5459
34959SOL    HW1 8279   3.087   4.145   1.087 -0.4439 -0.2152 -0.4895
34959SOL    HW2 8280   3.162   4.055   1.183 -0.4120  1.8885  1.5558
34960SOL     OW 8281   6.969  10.106   9.566 -0.2922  0.5101 -0.7804
34960SOL    HW1 8282   7.045  10.050   9.583 -0.2254  0.6962 -0.4488
34960SOL    HW2 8283   6.980  10.134   9.475  0.2511  0.8580 -0.6124
34961SOL     OW 8284  10.130   6.435   3.299  0.0876  0.2499 -0.6697
34961SOL    HW1 8285  10.153   6.405   3.211  0.9957  0.7219 -0.6050
34961SOL    HW2 8286  10.155   6.363   3.356  0.5181  0.3825 -0.6922
34962SOL     OW 8287   5.172   0.002   3.393  0.5384 -0.0080  0.2607
34962SOL    HW1 8288   5.193  -0.088   3.368  1.1001 -0.3928  1.9290
34962SOL    HW2 8289   5.090  -0.005   3.442  0.5034  0.3994  0.2627
34963SOL     OW 8290   9.043   2.340   5.444 -0.3692  0.4908  0.0171
34963SOL    HW1 8291   9.081   2.275   5.503  0.8134  0.1628 -1.0705
34963SOL    HW2 8292   8.990   2.289   5.383  1.4871  0.3470 -1.5669
34964SOL     OW 8293  10.532   5.983   0.672  0.3188  0.1048  0.0979
34964SOL    HW1 8294  10.473   5.913   0.701 -0.6803  1.2647  1.0037
34964SOL    HW2 8295  10.483   6.028   0.603  0.0638  1.1474  0.9364
34965SOL     OW 8296   4.455  10.004   9.468  0.0473  0.1209 -0.5511
34965SOL    HW1 8297   4.528  10.041   9.419  0.4884  0.0541  0.0428
34965SOL    HW2 8298   4.464   9.909   9.458 -1.2147  0.1373 -2.2646
34966SOL     OW 8299   3.476   2.524   8.706  0.2715 -0.2977  0.1694
34966SOL    HW1 8300   3.381   2.525   8.720  0.2127 -2.9299  0.4481
34966SOL    HW2 8301   3.486   2.529   8.611 -0.2384 -1.4641  0.0405
34967SOL     OW 8302   1.486   7.831   8.330 -0.0431 -0.2001 -0.0013
34967SOL    HW1 8303   1.442   7.754   8.293  1.8559 -0.6579 -1.4226
34967SOL    HW2 8304   1.442   7.844   8.415 -0.3980 -2.8792  0.3326
34968SOL     OW 8305   4.683   5.739   8.617 -0.6070 -0.4366 -0.6728
34968SOL    HW1 8306   4.601   5.782   8.638 -0.4215  0.0022 -0.8436
34968SOL    HW2 8307   4.706   5.771   8.530 -1.8949 -3.0310 -2.0994
34969SOL     OW 8308   1.326   7.554   2.194  0.2770 -0.1074 -0.0887
34969SOL    HW1 8309   1.253   7.531   2.137  0.8641 -1.6438 -0.2697
34969SOL    HW2 8310   1.289   7.553   2.282  0.2005 -1.5580 -0.1146
34970SOL     OW 8311  10.287   8.050   8.443  0.1320 -0.0627  0.4782
34970SOL    HW1 8312  10.305   7.963   8.408  0.7328 -0.6782  2.1887
34970SOL    HW2 8313  10.362   8.070   8.499  0.3820  1.9158 -0.4502
34971SOL     OW 8314   0.034   9.051   0.826  0.7863 -0.7824 -0.6598
34971SOL    HW1 8315  -0.048   9.045   0.777  0.7050 -0.7011 -0.5346
34971SOL    HW2 8316   0.071   9.136   0.801 -0.5448  0.5021  1.4010
34972SOL     OW 8317   5.101   2.321   2.661  0.0120  0.5406  0.1757
34972SOL    HW1 8318   5.159   2.384   2.618  0.2352 -0.2341 -0.6870
34972SOL    HW2 8319   5.017   2.368   2.669  0.0066  0.7519 -0.9832
34973SOL     OW 8320   9.524   0.965   8.210 -0.2741  0.1977  0.3415
34973SOL    HW1 8321   9.571   0.999   8.133 -1.0676  0.2724 -0.1197
34973SOL    HW2 8322   9.432   0.976   8.188 -0.5125  0.3525  1.3703
34974SOL     OW 8323   9.157   2.702  10.770  0.7274  0.2191  0.9016
34974SOL    HW1 8324   9.227   2.695  10.835  1.5941 -2.0670 -0.1701
34974SOL    HW2 8325   9.200   2.682  10.687 -0.8739  0.4324 -0.0099
34975SOL     OW 8326   7.500   3.052   0.856  0.7012  0.0409  0.1415
34975SOL    HW1 8327   7.460   3.037   0.942 -0.4464  0.0090 -0.3797
34975SOL    HW2 8328   7.562   3.123   0.871 -0.6352  1.1421  0.6875
34976SOL     OW 8329   0.011   4.501   5.902  0.0285 -0.5613 -0.3716
34976SOL    HW1 8330   0.090   4.480   5.852  0.8627 -0.1155  0.7326
34976SOL    HW2 8331   0.039   4.567   5.965 -1.2348 -0.3883  0.0435
34977SOL     OW 8332   4.070   1.079   9.520  0.0215  0.1198 -0.3972
34977SOL    HW1 8333   4.064   1.027   9.600 -0.4869  0.9271  0.1054
34977SOL    HW2 8334   4.059   1.170   9.549 -1.9615  0.3082 -1.5707
34978SOL     OW 8335   7.712   5.914   1.520 -0.4001 -0.1727 -0.0006
34978SOL    HW1 8336   7.683   5.823   1.528 -0.4260 -0.4001 -2.0627
34978SOL    HW2 8337   7.804   5.913   1.547 -0.4972 -0.7243  0.3283
34979SOL     OW 8338   4.067   0.274   5.233 -0.3917  0.8377 -0.1869
34979SOL    HW1 8339   4.075   0.349   5.175 -1.2558  0.7413 -0.4472
34979SOL    HW2 8340   3.984   0.287   5.279  0.2107  0.8369  0.9282
34980SOL     OW 8341   9.147   1.543   5.019  0.2772 -0.4715  0.3884
34980SOL    HW1 8342   9.111   1.628   5.044 -0.8653 -0.8460  0.0669
34980SOL    HW2 8343   9.071   1.491   4.994  1.1144 -0.9570 -1.3300
34981SOL     OW 8344   6.037   6.267   5.161  0.2255 -0.2638 -0.0486
34981SOL    HW1 8345   5.947   6.275   5.192 -0.5926  0.2824 -2.3883
34981SOL    HW2 8346   6.032   6.285   5.068  2.6299 -1.2459 -0.4330
34982SOL     OW 8347   1.221   3.862   1.689 -0.5022 -0.0448  0.2688
34982SOL    HW1 8348   1.262   3.907   1.615 -1.6476  0.8848  0.1795
34982SOL    HW2 8349   1.158   3.925   1.724 -0.6577 -0.8284  1.4440
34983SOL     OW 8350  10.283   7.771   9.048  0.4751  0.2886  0.1237
34983SOL    HW1 8351  10.369   7.776   9.090  0.9782 -0.3662 -0.7921
34983SOL    HW2 8352  10.281   7.846   8.989  0.1252  0.7071  0.6621
34984SOL     OW 8353   4.562  10.493   8.117  0.4405 -0.7960 -0.1975
34984SOL    HW1 8354   4.568  10.587   8.102 -0.3395 -0.8900 -1.2009
34984SOL    HW2 8355   4.589  10.482   8.208  0.4898  0.3985 -0.0455
34985SOL     OW 8356   7.321   3.215   7.544 -0.0201 -0.4913  0.0062
34985SOL    HW1 8357   7.386   3.179   7.604 -0.0868  2.4674  2.0507
34985SOL    HW2 8358   7.372   3.254   7.474  0.4089  0.7573  0.9786
34986SOL     OW 8359   3.020  10.064   1.066 -0.2038 -0.1258 -0.2536
34986SOL    HW1 8360   3.079   9.989   1.057  0.2466  0.4242 -2.6203
34986SOL    HW2 8361   2.999  10.066   1.159  1.9420 -1.5388  0.3609
34987SOL     OW 8362   3.795   0.151   5.092 -0.5122 -0.5893 -0.3856
34987SOL    HW1 8363   3.790   0.111   5.005  3.4542 -2.8330  0.1721
34987SOL    HW2 8364   3.763   0.082   5.151  1.8723 -1.2597  0.2252
34988SOL     OW 8365  10.763   7.260   7.815  0.2012 -0.0525  0.3552
34988SOL    HW1 8366  10.745   7.333   7.756 -1.7722 -0.6150  0.1949
34988SOL    HW2 8367  10.810   7.197   7.760 -2.3839 -0.9531 -0.9863
34989SOL     OW 8368   6.801  10.827   5.682 -0.2908 -0.1373  0.0544
34989SOL    HW1 8369   6.762  10.740   5.680  0.5305 -0.5228 -2.0785
34989SOL    HW2 8370   6.768  10.870   5.602  0.3156  1.0537  0.4134
34990SOL     OW 8371   8.796   9.854   6.955  0.2772 -0.0846  0.6236
34990SOL    HW1 8372   8.872   9.894   6.913  2.6803 -3.3620  1.4394
34990SOL    HW2 8373   8.788   9.898   7.039  0.9367  0.6793  0.2948
34991SOL     OW 8374   3.993   3.798   4.477 -0.6046  0.2411 -0.0875
34991SOL    HW1 8375   4.029   3.719   4.516 -0.5315  0.1541 -0.3297
34991SOL    HW2 8376   4.008   3.866   4.543 -4.3643 -0.6881  1.9879
34992SOL     OW 8377   0.916   1.335   4.431  0.5236 -0.3212  0.2839
34992SOL    HW1 8378   0.983   1.385   4.476  1.4744 -0.7284 -0.6448
34992SOL    HW2 8379   0.875   1.283   4.500  0.8638  0.2495  0.9287
34993SOL     OW 8380   0.224   9.653   0.203 -0.0591 -0.0978 -0.1843
34993SOL    HW1 8381   0.252   9.698   0.282  0.3271  0.5268 -0.6729
34993SOL    HW2 8382   0.192   9.723   0.145  1.0943 -0.3664 -1.1802
34994SOL     OW 8383   2.190   8.468  10.492  0.2911  0.2305  0.1382
34994SOL    HW1 8384   2.207   8.554  10.529  0.0514  0.2398  0.2270
34994SOL    HW2 8385   2.122   8.430  10.547 -0.0225  0.2192 -0.2495
34995SOL     OW 8386   7.871  10.199  10.015  0.5874 -0.0602  0.2988
34995SOL    HW1 8387   7.955  10.225   9.978  1.6959 -1.7559  1.4630
34995SOL    HW2 8388   7.845  10.122   9.964 -0.7779  0.9876 -0.6716
34996SOL     OW 8389   9.896   7.740   7.930  0.1246 -0.1635 -0.0901
34996SOL    HW1 8390   9.831   7.691   7.880 -0.5250  1.5521 -1.0335
34996SOL    HW2 8391   9.846   7.810   7.972  0.9472 -0.5322  1.5662
34997SOL     OW 8392   4.712   8.089   6.284  0.2466  0.0771  0.5489
34997SOL    HW1 8393   4.769   8.018   6.254 -3.7469 -3.4789  0.3981
34997SOL    HW2 8394   4.680   8.130   6.204  0.5405  0.2738  0.5320
34998SOL     OW 8395   6.411   6.277   9.813  0.1174  0.0124 -0.2243
34998SOL    HW1 8396   6.498   6.267   9.851 -0.1009  2.0393  0.9746
34998SOL    HW2 8397   6.351   6.270   9.888 -0.5722  0.9079 -0.6763
34999SOL     OW 8398   5.076   4.342  10.689  0.2690  0.0158 -0.0704
34999SOL    HW1 8399   5.018   4.394  10.633  1.2886  0.9602 -0.2881
34999SOL    HW2 8400   5.028   4.261  10.705 -1.1037  0.7731 -0.2334
35000SOL     OW 8401   2.124   0.568   0.833  0.3576  0.0053 -0.2381
35000SOL    HW1 8402   2.054   0.633   0.826  0.6765  0.6014  1.5295
35000SOL    HW2 8403   2.084   0.494   0.878  0.5485 -0.1329 -0.2936
35001SOL     OW 8404   4.036  10.043   9.979 -0.3313  0.1864  0.4083
35001SOL    HW1 8405   4.102  10.040  10.048 -1.9527  0.9529  2.0834
35001SOL    HW2 8406   4.026   9.953   9.950  0.5909 -0.1020  0.9707
35002SOL     OW 8407   2.781   2.168   0.025  0.3393  0.3646 -0.0136
35002SOL    HW1 8408   2.774   2.085  -0.023  0.1501  0.5228 -0.2640
35002SOL    HW2 8409   2.873   2.173   0.050  0.4568  0.3156 -0.4281
35003SOL     OW 8410   2.369   0.879   8.287  0.1950  0.5891 -0.7226
35003SOL    HW1 8411   2.416   0.954   8.323  2.7952 -0.8790 -0.7718
35003SOL    HW2 8412   2.292   0.916   8.245  0.7897  3.0802  0.2296
35004SOL     OW 8413   3.251   2.607   3.611  0.5221 -0.1061  0.1394
35004SOL    HW1 8414   3.189   2.606   3.538  0.1871 -1.7668  0.4172
35004SOL    HW2 8415   3.317   2.672   3.585 -0.5417  0.6414 -0.8114
35005SOL     OW 8416  10.382  10.648   9.058  0.7154 -0.4809  0.1194
35005SOL    HW1 8417  10.340  10.632   9.142 -1.3503 -0.1648 -0.7851
35005SOL    HW2 8418  10.476  10.643   9.076  0.3124 -1.7006  2.1623
35006SOL     OW 8419   8.452   4.241   0.296 -0.8965 -0.1006  0.0037
35006SOL    HW1 8420   8.381   4.190   0.333 -0.6385  0.6484  1.6010
35006SOL    HW2 8421   8.485   4.294   0.368  0.6532  0.2933 -0.9282
35007SOL     OW 8422   7.773   0.704   7.024  0.1181  0.4612 -0.5775
35007SOL    HW1 8423   7.803   0.650   6.951  2.5412  0.8139  0.0745
35007SOL    HW2 8424   7.732   0.642   7.084 -1.5003  0.1043 -1.9587
35008SOL     OW 8425   3.401   0.687   5.263 -0.2432 -0.5328 -0.0868
35008SOL    HW1 8426   3.437   0.650   5.183 -0.5707  1.5763 -1.2738
35008SOL    HW2 8427   3.306   0.682   5.253 -0.2996 -1.1561  0.6331
35009SOL     OW 8428   2.397   8.020   1.962 -0.2378  0.0007 -0.3266
35009SOL    HW1 8429   2.461   8.078   1.920  0.1048 -0.3404 -0.2774
35009SOL    HW2 8430   2.389   8.055   2.051  0.3181 -0.2941 -0.1505
35010SOL     OW 8431   7.640   5.196   3.738 -0.4656  0.1621  0.4666
35010SOL    HW1 8432   7.710   5.239   3.787 -2.1559 -0.2100  3.4780
35010SOL    HW2 8433   7.572   5.263   3.732 -0.8937 -0.3081  0.0352
35011SOL     OW 8434   1.044   3.280   7.745  0.5340 -0.4758 -0.1570
35011SOL    HW1 8435   1.044   3.199   7.695 -1.0183 -0.3590 -0.3774
35011SOL    HW2 8436   1.126   3.277   7.795  0.8442 -1.8232 -0.7091
35012SOL     OW 8437   9.219   4.333   0.549  0.2048  0.0880 -0.7949
35012SOL    HW1 8438   9.151   4.267   0.535 -1.1885  0.4218  3.0943
35012SOL    HW2 8439   9.300   4.283   0.557 -0.2354 -0.7460 -1.3692
35013SOL     OW 8440  10.015   9.052   2.747 -0.8541 -0.3584  0.0016
35013SOL    HW1 8441   9.932   9.014   2.720 -1.1196  0.1618  0.0695
35013SOL    HW2 8442  10.064   8.979   2.784 -1.2557 -0.6798 -0.0928
35014SOL     OW 8443   6.464   7.711   3.762 -0.9949 -0.2134 -0.2346
35014SOL    HW1 8444   6.439   7.619   3.757  0.5427 -0.6644 -0.3062
35014SOL    HW2 8445   6.529   7.715   3.832 -0.6139  0.7074 -0.6209
35015SOL     OW 8446   2.532   4.764  10.319 -0.8302  0.1449 -0.0124
35015SOL    HW1 8447   2.623   4.738  10.303 -0.7956  0.4652 -0.3556
35015SOL    HW2 8448   2.480   4.697  10.274 -0.7738 -0.3100  0.5976
35016SOL     OW 8449   9.227   5.484   2.469 -0.0222  0.0609  0.2969
35016SOL    HW1 8450   9.233   5.577   2.448 -0.7699 -0.1006 -0.6909
35016SOL    HW2 8451   9.134   5.468   2.483  0.0919 -0.5563  0.3759
35017SOL     OW 8452   4.102   4.597   7.939  0.6946  0.5856  0.1809
35017SOL    HW1 8453   4.018   4.560   7.966  1.0230 -0.1387  0.2244
35017SOL    HW2 8454   4.168   4.539   7.977  1.2304  1.3713  0.4731
35018SOL     OW 8455   0.958   8.262   9.698  0.5576 -0.0405 -0.0526
35018SOL    HW1 8456   1.025   8.224   9.755 -1.1671 -0.0405  2.1185
35018SOL    HW2 8457   0.908   8.187   9.667 -1.1342  0.1536  1.9925
35019SOL     OW 8458   0.166   9.773   7.529 -0.4436 -0.1265  0.3867
35019SOL    HW1 8459   0.194   9.686   7.559 -0.3156 -0.3891 -0.4556
35019SOL    HW2 8460   0.129   9.815   7.606 -2.0044 -1.5363  0.4587
35020SOL     OW 8461   5.275   3.869   4.279 -0.1018  0.1045 -0.0573
35020SOL    HW1 8462   5.299   3.868   4.187  1.6047  0.4356  0.3289
35020SOL    HW2 8463   5.280   3.777   4.307  0.0752  0.0872 -0.1452
35021SOL     OW 8464   5.658   7.490   2.331  0.3454 -0.7001 -0.0774
35021SOL    HW1 8465   5.577   7.529   2.297  0.6472  1.5806  1.5902
35021SOL    HW2 8466   5.631   7.405   2.365 -1.2585 -0.1739  0.0423
35022SOL     OW 8467   6.561   3.733  10.125 -0.5169  0.3014  0.1234
35022SOL    HW1 8468   6.549   3.739  10.219  0.2544 -0.9545  0.3348
35022SOL    HW2 8469   6.630   3.796  10.105  1.5258 -1.5258  0.9313
35023SOL     OW 8470   7.775   7.775   0.054  0.0438 -0.1854 -0.4529
35023SOL    HW1 8471   7.839   7.788   0.124 -0.8377  2.9922 -0.0413
35023SOL    HW2 8472   7.823   7.794  -0.026  0.6356 -2.1442 -0.5924
35024SOL     OW 8473   3.379   9.831   2.774 -0.2186 -0.2364 -0.4385
35024SOL    HW1 8474   3.407   9.756   2.721 -1.3822 -1.1056  0.1175
35024SOL    HW2 8475   3.340   9.892   2.712  0.3738 -0.2608 -0.8419
35025SOL     OW 8476   4.360   8.316   4.835 -0.1068 -0.3445  0.5082
35025SOL    HW1 8477   4.422   8.385   4.860 -0.7120  0.8425 -1.0791
35025SOL    HW2 8478   4.410   8.262   4.774  0.1496 -0.9207  1.2173
35026SOL     OW 8479   1.634   5.540   2.378  0.1817 -0.0310 -0.0473
35026SOL    HW1 8480   1.618   5.493   2.296 -1.6639  1.2015 -0.4452
35026SOL    HW2 8481   1.565   5.510   2.437  0.7444  0.0244  0.6513
35027SOL     OW 8482   1.130   1.140   6.889  0.5310  0.3691 -0.4439
35027SOL    HW1 8483   1.099   1.186   6.811  1.4265 -0.7574 -1.5056
35027SOL    HW2 8484   1.152   1.052   6.858  1.8968  0.2092  0.8664
35028SOL     OW 8485   6.981   1.615  10.911  0.5873 -0.0938 -0.3438
35028SOL    HW1 8486   7.051   1.553  10.929  0.3376 -0.1423  0.4787
35028SOL    HW2 8487   6.968   1.662  10.993 -1.6617 -1.4039  0.1289
35029SOL     OW 8488   9.143   0.354   8.044  0.2541 -0.0457  0.5984
35029SOL    HW1 8489   9.230   0.364   8.083  0.2151  0.7764  0.4968
35029SOL    HW2 8490   9.151   0.392   7.956  0.4202 -2.1332 -0.3527
35030SOL     OW 8491   5.957   0.697   4.451 -0.4305 -0.0893 -0.6106
35030SOL    HW1 8492   5.872   0.673   4.486  0.7253 -0.4680  2.2070
35030SOL    HW2 8493   5.948   0.789   4.426 -1.6699 -0.1432 -0.3912
35031SOL     OW 8494   2.618   4.006   2.026 -0.4848 -0.0944  0.4128
35031SOL    HW1 8495   2.566   3.928   2.046 -0.9120  0.0423 -0.1231
35031SOL    HW2 8496   2.563   4.056   1.966  0.4595 -0.1774 -0.5597
35032SOL     OW 8497  10.750   8.421   5.014  0.4928  0.2969 -0.1804
35032SOL    HW1 8498  10.791   8.428   4.928 -0.4456 -0.0008 -0.6600
35032SOL    HW2 8499  10.783   8.497   5.063 -0.0680  1.2552 -1.2616
35033SOL     OW 8500   2.613   8.523   4.718 -0.3129 -0.3274 -0.5425
35033SOL    HW1 8501   2.615   8.543   4.812 -1.0430 -1.9065 -0.1513
35033SOL    HW2 8502   2.695   8.477   4.701 -0.6308 -0.9578 -0.4258
35034SOL     OW 8503   3.755  10.198   6.345  0.2101 -0.2086  0.0308
35034SOL    HW1 8504   3.784  10.223   6.433  0.6610  1.4335 -0.5329
35034SOL    HW2 8505   3.765  10.103   6.342 -0.7134 -0.4325  2.0524
35035SOL     OW 8506  10.375   9.809   5.604 -0.1847  0.5877 -0.4397
35035SOL    HW1 8507  10.318   9.766   5.540 -0.3079  0.4998 -0.2720
35035SOL    HW2 8508  10.375   9.750   5.679 -2.1558  1.9302  0.6971
35036SOL     OW 8509   7.872   2.601   3.783 -0.5060  0.6085 -0.4939
35036SOL    HW1 8510   7.947   2.551   3.816 -2.0941 -2.2118 -0.8034
35036SOL    HW2 8511   7.902   2.691   3.780  1.8338  0.0678  2.4087
35037SOL     OW 8512  10.578   7.902   2.435  0.1284  0.2057 -0.3447
35037SOL    HW1 8513  10.546   7.856   2.357 -1.2473 -1.2008  0.9882
35037SOL    HW2 8514  10.673   7.899   2.427  0.0380  1.1992 -2.5505
35038SOL     OW 8515   8.205   4.291   3.449  0.2120 -0.2879  0.0893
35038SOL    HW1 8516   8.258   4.212   3.441  0.0854 -0.2362 -2.1124
35038SOL    HW2 8517   8.134   4.278   3.385  0.2062  1.5838 -0.3523
35039SOL     OW 8518   1.706   1.184   5.073 -0.5804  0.3769 -0.1064
35039SOL    HW1 8519   1.733   1.266   5.116  0.7877  0.1117 -0.3849
35039SOL    HW2 8520   1.779   1.164   5.014 -1.1537 -0.7544 -0.4561
35040SOL     OW 8521   9.373  10.510   3.545  0.3783  0.0733 -0.3456
35040SOL    HW1 8522   9.465  10.484   3.545  0.5241  0.3104 -2.7924
35040SOL    HW2 8523   9.333  10.457   3.614  2.4132  0.3829  1.1501
35041SOL     OW 8524   4.839   2.726   5.086  0.0098 -0.4844 -0.2197
35041SOL    HW1 8525   4.901   2.655   5.106  2.2257  1.3231 -0.2754
35041SOL    HW2 8526   4.852   2.789   5.157 -2.3938 -0.3565  0.1943
35042SOL     OW 8527   0.269   1.603   3.402 -0.2333  0.3580 -0.3418
35042SOL    HW1 8528   0.302   1.682   3.360  0.5308 -0.7595 -1.9930
35042SOL    HW2 8529   0.310   1.531   3.353 -1.0160 -1.0722  0.9818
35043SOL     OW 8530   3.223   3.555   8.523 -0.3408 -0.3057  0.0727
35043SOL    HW1 8531   3.232   3.616   8.596 -1.3597 -0.9486  0.7569
35043SOL    HW2 8532   3.225   3.610   8.445 -0.7960  0.5453  0.6523
35044SOL     OW 8533   0.304   0.320   5.884  0.8147  0.7890 -0.5387
35044SOL    HW1 8534   0.258   0.271   5.816  0.5536 -1.6433  1.2663
35044SOL    HW2 8535   0.397   0.310   5.861  0.8067 -1.1741  0.1134
35045SOL     OW 8536   1.614  10.266   3.469  0.5225  0.4372  0.0078
35045SOL    HW1 8537   1.696  10.303   3.501  0.4940  0.3960  0.1294
35045SOL    HW2 8538   1.640  10.214   3.393  0.4667  1.2827 -0.5960
35046SOL     OW 8539   0.324   8.546  10.852  0.1629 -0.5377  0.0330
35046SOL    HW1 8540   0.300   8.555  10.759 -1.8062 -1.0970  0.4275
35046SOL    HW2 8541   0.241   8.526  10.896  1.4222 -2.7374  1.5891
35047SOL     OW 8542   8.269   7.049   8.648 -0.1087  0.3335 -0.2464
35047SOL    HW1 8543   8.324   7.118   8.610 -0.6585  0.6768 -0.4468
35047SOL    HW2 8544   8.302   7.037   8.736 -0.7735  1.7444  0.2268
35048SOL     OW 8545   4.456   6.415   0.712  0.1204 -0.7723  0.4106
35048SOL    HW1 8546   4.431   6.482   0.775 -1.2059  0.0972 -0.9684
35048SOL    HW2 8547   4.432   6.332   0.753 -2.3125 -0.1371  0.3940
35049SOL     OW 8548  10.168   0.079   0.382  0.5096 -0.3837 -0.4809
35049SOL    HW1 8549  10.219   0.084   0.301  2.1908 -2.6455  0.3111
35049SOL    HW2 8550  10.218   0.132   0.444  1.1668 -1.4113 -0.0925
35050SOL     OW 8551  10.916   0.609  10.726 -0.3704  0.1964  0.0704
35050SOL    HW1 8552  11.008   0.633  10.729 -0.6158  1.1638  0.4352
35050SOL    HW2 8553  10.871   0.691  10.704 -1.1452 -0.2459 -0.0270
35051SOL     OW 8554  10.786   7.903   5.560 -0.3475 -0.2772  0.1714
35051SOL    HW1 8555  10.780   7.897   5.655  2.0745  0.0887  0.4150
35051SOL    HW2 8556  10.773   7.813   5.529  0.1788 -0.6252  0.9523
35052SOL     OW 8557   4.985   5.814   7.540  0.1410 -0.1245 -0.2600
35052SOL    HW1 8558   5.079   5.827   7.553  0.7677 -3.2487 -0.8278
35052SOL    HW2 8559   4.978   5.768   7.456 -1.7815 -0.8343  0.2263
35053SOL     OW 8560  10.404   0.155   6.609  0.0700 -0.0527 -0.7465
35053SOL    HW1 8561  10.415   0.103   6.529 -0.5501 -0.4374 -0.5865
35053SOL    HW2 8562  10.485   0.206   6.615  0.6155 -0.8689 -0.9955
35054SOL     OW 8563   9.415   8.630   6.549  0.0348 -0.4573  0.6942
35054SOL    HW1 8564   9.351   8.640   6.479  0.6238 -0.1892  0.1902
35054SOL    HW2 8565   9.362   8.613   6.628 -0.6246 -0.8312  0.1816
35055SOL     OW 8566   4.686  10.368   4.003  0.6397  0.3157  0.4993
35055SOL    HW1 8567   4.617  10.381   4.068 -0.3902  0.7362 -0.6440
35055SOL    HW2 8568   4.650  10.403   3.922  0.6676 -2.8780 -1.0471
35056SOL     OW 8569  10.473   4.255   9.387 -0.4363 -0.3909 -0.2287
35056SOL    HW1 8570  10.459   4.232   9.295 -1.0032  0.3292 -0.3269
35056SOL    HW2 8571  10.397   4.220   9.432  0.6169 -2.1992  0.2428
35057SOL     OW 8572   3.247   7.659   8.620  0.0055  0.0884 -0.1196
35057SOL    HW1 8573   3.154   7.677   8.634  0.2484  0.4244  1.1528
35057SOL    HW2 8574   3.284   7.743   8.595  0.4276  0.6076  2.0239
35058SOL     OW 8575   5.413   9.585   6.479  0.2538 -0.1711 -0.2201
35058SOL    HW1 8576   5.359   9.513   6.446  1.2330 -0.7965 -0.4994
35058SOL    HW2 8577   5.502   9.552   6.473  0.7610  1.2803 -0.8462
35059SOL     OW 8578   9.399   1.703   7.959 -0.5853 -0.2366  0.3412
35059SOL    HW1 8579   9.416   1.726   7.867 -1.0827 -0.8258  0.0974
35059SOL    HW2 8580   9.426   1.781   8.008  2.7727 -1.0534  0.0251
35060SOL     OW 8581   6.023   8.635   2.736  0.6329  0.1879 -0.1452
35060SOL    HW1 8582   6.102   8.628   2.682  0.9194  1.6416  0.0359
35060SOL    HW2 8583   6.033   8.568   2.803  1.1297 -0.4535 -0.8458
35061SOL     OW 8584   4.427   2.769   6.913 -0.1883 -0.7695 -0.1345
35061SOL    HW1 8585   4.457   2.681   6.934  1.1274 -0.4903 -0.7808
35061SOL    HW2 8586   4.458   2.823   6.986  0.0195 -0.6411 -0.3176
35062SOL     OW 8587   0.481   5.294   9.294 -0.2607 -0.0267 -0.1151
35062SOL    HW1 8588   0.484   5.389   9.287 -1.9294  0.0858  0.1209
35062SOL    HW2 8589   0.566   5.264   9.263  0.2656  1.5401 -0.2401
35063SOL     OW 8590   9.874   9.090   7.358  0.2524 -0.3574  0.3123
35063SOL    HW1 8591   9.968   9.108   7.363  0.3246  0.4144 -2.4600
35063SOL    HW2 8592   9.832   9.174   7.375  0.1159 -0.3975  0.1721
35064SOL     OW 8593  10.353   2.067   6.634 -0.3308 -0.4599  0.5851
35064SOL    HW1 8594  10.414   2.076   6.561 -1.0447  1.0884  0.1394
35064SOL    HW2 8595  10.334   1.973   6.638 -1.8753 -0.3993 -2.5880
35065SOL     OW 8596   5.898   1.582   4.124  0.1516  0.4885  0.2757
35065SOL    HW1 8597   5.873   1.568   4.033  1.9223  0.2580 -0.1999
35065SOL    HW2 8598   5.876   1.674   4.141  0.6382  0.8005 -0.6775
35066SOL     OW 8599   3.500   1.908   4.158  0.2025  0.1005  0.1734
35066SOL    HW1 8600   3.481   1.950   4.074 -2.0115 -1.4187 -0.1959
35066SOL    HW2 8601   3.429   1.937   4.216  2.0800  1.6929  1.8244
35067SOL     OW 8602  10.243   1.807   3.797 -0.3994 -0.0641 -0.1812
35067SOL    HW1 8603  10.217   1.896   3.771  0.3523  0.0801 -0.4644
35067SOL    HW2 8604  10.337   1.814   3.814 -0.6643 -0.3817  1.6315
35068SOL     OW 8605   4.965  10.197   1.818  0.9837 -0.2462 -0.0491
35068SOL    HW1 8606   4.930  10.198   1.907  1.1107 -0.4702  0.0037
35068SOL    HW2 8607   4.991  10.106   1.804  0.5244 -0.3139 -0.4869
35069SOL     OW 8608   1.353   6.184   8.481 -0.1213 -0.2440 -0.1105
35069SOL    HW1 8609   1.439   6.169   8.521 -1.0735 -2.2620  1.3204
35069SOL    HW2 8610   1.313   6.098   8.477 -1.6185  0.4801 -1.9382
35070SOL     OW 8611  10.487   4.401   5.739 -0.5311 -0.2022 -0.2910
35070SOL    HW1 8612  10.579   4.411   5.717 -0.8649  0.1160 -1.6587
35070SOL    HW2 8613  10.463   4.485   5.778 -0.7368  0.5313 -1.9154
35071SOL     OW 8614   3.913   7.556   1.476 -0.4538  0.0739 -0.1781
35071SOL    HW1 8615   3.899   7.610   1.398 -2.4320  2.4483  1.6263
35071SOL    HW2 8616   4.000   7.581   1.506 -0.7784  1.2828 -0.1590
35072SOL     OW 8617   9.294   3.240   2.823 -0.0067 -0.3485 -0.0692
35072SOL    HW1 8618   9.237   3.195   2.885 -0.7639  0.9304  0.1984
35072SOL    HW2 8619   9.342   3.304   2.876  1.4261 -1.1543 -0.3539
35073SOL     OW 8620   5.765   6.037   3.302  0.6898 -0.4431 -0.3783
35073SOL    HW1 8621   5.674   6.013   3.320  0.2545  0.5552 -1.1200
35073SOL    HW2 8622   5.766   6.133   3.309  1.2538 -0.2810 -2.2002
35074SOL     OW 8623   8.440   6.709   9.540 -0.4274  0.0487 -0.1476
35074SOL    HW1 8624   8.521   6.658   9.532 -0.7521 -0.3982 -0.6127
35074SOL    HW2 8625   8.450   6.755   9.623  0.8430  0.9481 -0.7724
35075SOL     OW 8626   1.347   1.105   9.316 -0.4167 -0.2326 -0.3423
35075SOL    HW1 8627   1.266   1.078   9.359 -0.0018  0.4586  0.9070
35075SOL    HW2 8628   1.342   1.201   9.314  0.0206 -0.2167 -0.9762
35076SOL     OW 8629   1.981   7.182   7.786 -0.4681  0.1446  0.0999
35076SOL    HW1 8630   2.060   7.192   7.840 -0.1866 -1.2309 -0.0206
35076SOL    HW2 8631   2.014   7.162   7.699 -0.9449  0.9972 -0.2837
35077SOL     OW 8632  10.637   7.273   6.227  0.2117  0.4030 -0.1868
35077SOL    HW1 8633  10.578   7.250   6.155 -0.6543  1.3110  0.2124
35077SOL    HW2 8634  10.680   7.190   6.250  0.4082  0.0773 -1.6500
35078SOL     OW 8635  10.443   5.723   5.688 -0.9961 -0.7815 -0.0962
35078SOL    HW1 8636  10.451   5.790   5.620 -0.6949  2.0664  2.5379
35078SOL    HW2 8637  10.372   5.666   5.657 -0.5153 -0.0018 -2.9775
35079SOL     OW 8638   9.398  10.759   3.270  0.5478 -0.8074  0.5229
35079SOL    HW1 8639   9.443  10.676   3.286  0.1935 -0.7632  1.8125
35079SOL    HW2 8640   9.331  10.738   3.204  1.4131 -1.2008 -0.2556
35080SOL     OW 8641   8.628   3.357   5.951 -0.4173 -0.7430 -0.0630
35080SOL    HW1 8642   8.673   3.345   5.868 -0.8037  1.0081 -0.5760
35080SOL    HW2 8643   8.538   3.327   5.934 -0.6343  0.0908 -0.4667
35081SOL     OW 8644   0.792   8.390   8.967 -0.1488 -0.1336 -0.0259
35081SOL    HW1 8645   0.829   8.331   8.901  0.2861 -0.7619  0.7636
35081SOL    HW2 8646   0.725   8.439   8.920 -1.0272 -1.7728 -0.5558
35082SOL     OW 8647   7.193  10.636   6.204  0.0924  0.1400  0.1283
35082SOL    HW1 8648   7.207  10.543   6.220 -1.5953 -0.2620 -0.5176
35082SOL    HW2 8649   7.116  10.658   6.256 -0.9541  0.5739 -1.5016
35083SOL     OW 8650   4.556   3.910   8.081  0.1410  0.0637  0.5808
35083SOL    HW1 8651   4.599   3.826   8.065 -0.5051 -0.1429 -0.0740
35083SOL    HW2 8652   4.473   3.905   8.034 -0.3120  0.7190  1.2881
35084SOL     OW 8653   0.222   4.977   0.755 -0.3233 -0.4781 -0.0287
35084SOL    HW1 8654   0.255   4.972   0.666  1.5495  1.2876  0.4972
35084SOL    HW2 8655   0.180   5.062   0.761 -2.7267 -1.5929  0.1146
35085SOL     OW 8656   3.669   7.745   2.938  0.1712 -0.1133 -0.1656
35085SOL    HW1 8657   3.761   7.720   2.936  0.3154  0.4299 -0.8335
35085SOL    HW2 8658   3.627   7.678   2.991  0.7083 -1.1785 -1.0367
35086SOL     OW 8659   3.535  10.552  10.651 -0.0415  0.4310 -0.2172
35086SOL    HW1 8660   3.610  10.544  10.592  1.6153 -0.8121  1.9592
35086SOL    HW2 8661   3.567  10.524  10.736 -2.6717  1.0392  1.0790
35087SOL     OW 8662   5.658   2.649   0.076  0.2859  0.3089  0.6684
35087SOL    HW1 8663   5.658   2.639  -0.019 -0.3438 -0.4958  0.7463
35087SOL    HW2 8664   5.748   2.631   0.102  0.5235  0.7854  0.2103
35088SOL     OW 8665   8.981   5.188   2.681  0.2809 -0.4039  0.3157
35088SOL    HW1 8666   8.952   5.155   2.766 -0.6873 -0.7642 -0.1375
35088SOL    HW2 8667   8.913   5.158   2.620  0.5625  0.5082 -0.4588
35089SOL     OW 8668   6.764   9.860   5.475 -0.2004  0.2818  0.1306
35089SOL    HW1 8669   6.778   9.913   5.397 -0.0792  0.5004  0.3002
35089SOL    HW2 8670   6.824   9.896   5.540  1.0225 -1.0581 -0.2044
35090SOL     OW 8671   3.759   3.179   5.404 -0.3030 -0.2417 -0.4037
35090SOL    HW1 8672   3.842   3.162   5.359  0.5773  2.2440  0.1227
35090SOL    HW2 8673   3.771   3.139   5.490  0.1589 -0.2869 -0.4839
35091SOL     OW 8674   0.118   0.041   8.084  0.3709 -0.0126 -0.1137
35091SOL    HW1 8675   0.158   0.045   8.171 -1.9873 -2.0941  1.1895
35091SOL    HW2 8676   0.149  -0.042   8.047 -3.0173 -2.1323  1.2778
35092SOL     OW 8677   4.999  10.043   3.982 -0.0942 -0.9508  0.2028
35092SOL    HW1 8678   4.941   9.996   4.041 -2.0921 -0.9217 -1.6374
35092SOL    HW2 8679   4.968  10.133   3.983  0.7466 -0.6497  0.1633
35093SOL     OW 8680   6.958  10.507   1.448 -0.2338  0.3910  0.0938
35093SOL    HW1 8681   6.974  10.522   1.541  0.7098  0.5174 -0.0819
35093SOL    HW2 8682   6.964  10.412   1.438  0.7288  0.4454 -0.0058
35094SOL     OW 8683   1.827   4.597  10.083 -0.2491  0.3029 -0.2330
35094SOL    HW1 8684   1.920   4.616  10.091 -0.3751  0.6244  0.5807
35094SOL    HW2 8685   1.784   4.669  10.130 -0.8421 -0.7508  0.8738
35095SOL     OW 8686   9.049  10.052   1.324 -0.2151 -0.1114 -0.3429
35095SOL    HW1 8687   9.078  10.053   1.415  0.7022 -1.5767 -0.5764
35095SOL    HW2 8688   9.070   9.963   1.293  0.1604  0.5647 -2.1827
35096SOL     OW 8689  10.652   1.094   1.319 -0.1721 -0.1048  0.3049
35096SOL    HW1 8690  10.579   1.127   1.371 -0.2651  0.5728 -0.2487
35096SOL    HW2 8691  10.621   1.010   1.284 -0.5445  0.0085  0.3632
35097SOL     OW 8692   3.231   4.287  10.077 -0.1216  0.1541 -0.4006
35097SOL    HW1 8693   3.282   4.339  10.139 -0.3149  0.3650 -0.4180
35097SOL    HW2 8694   3.218   4.345  10.002  0.9227 -0.4151 -1.0436
35098SOL     OW 8695   5.047   8.584   3.795  0.2484  0.0664  0.0427
35098SOL    HW1 8696   4.982   8.635   3.844 -0.4808 -1.0916  0.3221
35098SOL    HW2 8697   5.124   8.640   3.791 -0.5902  1.2594  0.1811
35099SOL     OW 8698   2.678   6.711   5.786  0.2189 -0.1730 -0.3231
35099SOL    HW1 8699   2.666   6.617   5.804  2.2230 -0.3271  0.3935
35099SOL    HW2 8700   2.593   6.750   5.807 -0.4134 -1.7200  0.1428
35100SOL     OW 8701   5.427   9.054   1.258 -0.1068  0.2641  0.0260
35100SOL    HW1 8702   5.449   8.971   1.300 -0.9882 -0.0368 -0.0870
35100SOL    HW2 8703   5.333   9.050   1.245 -0.1449  1.2405 -0.0845
35101SOL     OW 8704   6.632   9.067   4.060  0.6872  0.0666 -0.8477
35101SOL    HW1 8705   6.548   9.097   4.026  1.3824  1.0598 -1.7938
35101SOL    HW2 8706   6.638   8.975   4.032 -0.2811 -0.1632 -0.3322
35102SOL     OW 8707   3.135   8.747   6.309 -0.2784 -0.4767 -0.0210
35102SOL    HW1 8708   3.096   8.760   6.396 -1.7154 -0.3473 -0.6507
35102SOL    HW2 8709   3.209   8.807   6.307 -0.1332 -0.5838  1.1587
35103SOL     OW 8710   4.760   1.609   4.004  0.6455  0.8436  0.3631
35103SOL    HW1 8711   4.675   1.651   3.990 -0.3603 -1.8699 -3.2782
35103SOL    HW2 8712   4.739   1.522   4.036  2.1665  0.5414  0.6113
35104SOL     OW 8713   7.903   0.315   4.723  0.2607  0.2527  0.6783
35104SOL    HW1 8714   7.975   0.258   4.697  0.1529 -0.7815  2.5010
35104SOL    HW2 8715   7.946   0.397   4.747  0.5480  0.5205 -0.6624
35105SOL     OW 8716   9.441   1.301   6.379  0.0086 -0.4299  0.2944
35105SOL    HW1 8717   9.442   1.346   6.295 -1.6610 -0.4991  0.1993
35105SOL    HW2 8718   9.445   1.372   6.444  2.0333 -0.4074  0.2057
35106SOL     OW 8719   0.276   8.490   4.595 -0.1478  0.5200 -0.2350
35106SOL    HW1 8720   0.235   8.490   4.508 -1.2461  2.5347  0.2055
35106SOL    HW2 8721   0.366   8.518   4.579  0.0104 -0.3023 -0.8364
35107SOL     OW 8722   8.179   6.070  10.311 -0.7664 -0.3004 -0.6310
35107SOL    HW1 8723   8.236   5.996  10.332  0.9045  1.3061  0.8399
35107SOL    HW2 8724   8.236   6.132  10.265 -1.4981  1.0149  0.1794
35108SOL     OW 8725   2.612   4.709   6.410  0.1608 -0.8549  0.1529
35108SOL    HW1 8726   2.521   4.729   6.434  0.5920  2.2616 -0.3357
35108SOL    HW2 8727   2.659   4.706   6.493 -0.2460 -1.8192  0.3640
35109SOL     OW 8728   5.924   8.608   1.805  0.1433 -0.5564 -0.3396
35109SOL    HW1 8729   5.911   8.702   1.799 -0.2051 -0.4240  1.8313
35109SOL    HW2 8730   5.873   8.572   1.732 -1.1029  0.8284 -0.1886
35110SOL     OW 8731   7.904   7.894   9.386 -0.3896  0.2409  0.5048
35110SOL    HW1 8732   7.816   7.858   9.401 -0.6108  0.2271 -0.7548
35110SOL    HW2 8733   7.888   7.976   9.339  0.3219 -0.4370 -0.9484
35111SOL     OW 8734   1.831   6.601   0.999 -0.2168  0.4839  0.6113
35111SOL    HW1 8735   1.863   6.568   0.916 -1.0194  0.1906  0.4046
35111SOL    HW2 8736   1.870   6.688   1.008 -0.4585  0.6906 -0.2802
35112SOL     OW 8737   5.335   2.628   1.504  0.0748 -0.5641  0.4333
35112SOL    HW1 8738   5.291   2.567   1.444 -0.2466  0.1661 -0.0811
35112SOL    HW2 8739   5.401   2.574   1.547 -0.7801 -1.4941  0.6365
35113SOL     OW 8740   3.322   6.883   7.315  0.7056  0.3578 -0.2975
35113SOL    HW1 8741   3.377   6.808   7.336 -0.2781  0.2214  2.0656
35113SOL    HW2 8742   3.383   6.957   7.311  1.3823 -0.1932 -0.3496
35114SOL     OW 8743   2.313   5.731   0.213  0.2536  0.3579  0.4007
35114SOL    HW1 8744   2.267   5.740   0.129  0.2562  0.7576  0.4382
35114SOL    HW2 8745   2.343   5.820   0.233  0.7200  0.1679  0.5607
35115SOL     OW 8746   5.003   7.016   2.657  0.1751  0.0149 -0.7019
35115SOL    HW1 8747   4.929   6.961   2.631 -0.5468  0.1644  0.8696
35115SOL    HW2 8748   5.056   6.960   2.714 -0.5177  0.8354  0.8320
35116SOL     OW 8749   5.194   6.510   8.662  0.3440  0.2169  0.1409
35116SOL    HW1 8750   5.196   6.511   8.566 -0.8583  1.7894  0.0923
35116SOL    HW2 8751   5.181   6.417   8.684 -1.9011  0.0804 -1.3420
35117SOL     OW 8752   9.165   4.575   0.385 -0.5301 -0.5371 -0.4978
35117SOL    HW1 8753   9.219   4.637   0.337 -0.0465 -1.5982 -1.3830
35117SOL    HW2 8754   9.211   4.562   0.468 -0.2626 -0.2534 -0.6004
35118SOL     OW 8755   0.675   2.098   2.415 -0.3895  0.3314 -0.0167
35118SOL    HW1 8756   0.614   2.150   2.468 -0.1883  1.1296 -0.5504
35118SOL    HW2 8757   0.620   2.030   2.376 -0.9125  0.9143 -0.3214
35119SOL     OW 8758   1.375   7.731   2.599  0.2601 -0.0701 -0.2137
35119SOL    HW1 8759   1.395   7.793   2.670 -0.4168  0.9625 -0.8946
35119SOL    HW2 8760   1.444   7.745   2.535  0.3228 -0.3119 -0.2011
35120SOL     OW 8761   7.561   8.001   8.354  0.0236 -0.4224  0.2262
35120SOL    HW1 8762   7.575   7.989   8.260 -0.7822 -0.0263  0.0481
35120SOL    HW2 8763   7.466   7.989   8.366  0.1452 -0.6636  1.0177
35121SOL     OW 8764  10.079   7.002  10.167  0.0580  0.1987  0.1686
35121SOL    HW1 8765  10.163   6.957  10.176  0.0672  0.3092  0.6767
35121SOL    HW2 8766  10.088   7.080  10.222 -0.7446 -0.3237  1.0718
35122SOL     OW 8767  10.682   6.816   6.212 -0.1605  0.0695  0.3191
35122SOL    HW1 8768  10.643   6.734   6.244 -0.2256  1.0170  2.9212
35122SOL    HW2 8769  10.760   6.828   6.266  0.5030  1.1394 -0.8416
35123SOL     OW 8770   0.474   7.971   0.638 -0.3301 -0.2469 -0.2043
35123SOL    HW1 8771   0.439   7.932   0.558  0.9237  1.1039 -1.4844
35123SOL    HW2 8772   0.565   7.941   0.642 -0.0621  0.5779  0.1043
35124SOL     OW 8773   1.629  10.074   3.220  0.0724  0.0146 -0.1335
35124SOL    HW1 8774   1.573  10.003   3.251  0.8303  0.3468  2.1990
35124SOL    HW2 8775   1.715  10.034   3.209  0.2457  0.3168  0.0909
35125SOL     OW 8776   8.858   4.425   5.407  0.4603  0.1930 -0.1444
35125SOL    HW1 8777   8.937   4.388   5.367  0.4496  0.8774 -0.8318
35125SOL    HW2 8778   8.845   4.508   5.361  0.3463  0.9375  1.1772
35126SOL     OW 8779   7.870   9.131   6.410  0.7118  0.1838 -0.4392
35126SOL    HW1 8780   7.777   9.120   6.387  0.6927  0.0629 -0.3021
35126SOL    HW2 8781   7.898   9.207   6.358  0.5171  0.2667 -0.4234
35127SOL     OW 8782   0.178  10.364   9.172  0.0344  0.1766  0.1524
35127SOL    HW1 8783   0.170  10.272   9.197  0.2070 -0.0082 -0.4643
35127SOL    HW2 8784   0.242  10.400   9.233  0.6211 -0.3249 -0.1487
35128SOL     OW 8785  10.324   4.870   5.707 -0.0992  0.1293 -0.2504
35128SOL    HW1 8786  10.230   4.874   5.726 -0.0988  1.5114 -0.4819
35128SOL    HW2 8787  10.330   4.857   5.613 -0.0412 -1.3817 -0.0726
35129SOL     OW 8788   6.953   8.718   8.124  0.1684 -0.0432 -0.3791
35129SOL    HW1 8789   6.945   8.636   8.173 -0.1018  0.0799 -0.2157
35129SOL    HW2 8790   6.865   8.756   8.127 -0.2401 -0.7336 -2.1976
35130SOL     OW 8791   9.660   1.400   9.083 -0.6659 -0.0657 -0.5620
35130SOL    HW1 8792   9.665   1.306   9.065 -1.6122 -0.6606  1.9491
35130SOL    HW2 8793   9.678   1.408   9.176 -0.4982  2.2853 -0.7293
35131SOL     OW 8794  10.589   6.819   6.587  0.5886  0.0132  0.3899
35131SOL    HW1 8795  10.562   6.830   6.679 -1.4504  1.6260 -0.3142
35131SOL    HW2 8796  10.565   6.730   6.565 -1.6446  0.4916  0.6591
35132SOL     OW 8797   1.305   8.825   0.346 -0.7761  0.5113 -0.5958
35132SOL    HW1 8798   1.283   8.743   0.302 -1.2177  0.9235 -1.1515
35132SOL    HW2 8799   1.380   8.859   0.298 -0.8085  0.6080 -0.5777
35133SOL     OW 8800   1.756  10.467  10.172 -0.2160 -0.3660 -0.4945
35133SOL    HW1 8801   1.831  10.410  10.155  0.1089  0.1132 -0.7114
35133SOL    HW2 8802   1.768  10.498  10.261  0.8969  1.2197 -1.1515
35134SOL     OW 8803   9.977   1.449   3.914 -0.2357 -0.3194  0.0442
35134SOL    HW1 8804   9.969   1.516   3.846  0.2615  0.3108  0.5887
35134SOL    HW2 8805  10.058   1.472   3.960 -2.2063  1.2969  3.0259
35135SOL     OW 8806  10.749   1.813   7.747 -0.2051  0.2178 -0.5011
35135SOL    HW1 8807  10.698   1.812   7.828  0.9217 -1.4876  0.2395
35135SOL    HW2 8808  10.725   1.895   7.705 -3.1372 -0.2329  0.0687
35136SOL     OW 8809   5.576   4.630   4.036 -0.3239  0.0494  0.3051
35136SOL    HW1 8810   5.539   4.717   4.022 -0.8287 -0.0150  1.2115
35136SOL    HW2 8811   5.504   4.579   4.074  0.4024 -0.3455  1.1778
35137SOL     OW 8812  10.671   4.706   2.760 -0.0297 -0.2979 -0.8855
35137SOL    HW1 8813  10.712   4.792   2.751  2.1694 -0.5251  3.7934
35137SOL    HW2 8814  10.738   4.645   2.730  0.0606 -0.4592 -0.3683
35138SOL     OW 8815  10.141   3.713   6.509 -0.3309 -0.3278 -0.2354
35138SOL    HW1 8816  10.229   3.700   6.546 -0.8538 -1.9040  0.5337
35138SOL    HW2 8817  10.138   3.656   6.433 -0.3010  0.6354 -0.9742
35139SOL     OW 8818   2.307   2.491   8.029  0.1759 -0.1374 -0.0996
35139SOL    HW1 8819   2.273   2.428   7.966  0.8434 -1.2524  0.5997
35139SOL    HW2 8820   2.308   2.574   7.983  0.6981 -0.9288 -1.5872
35140SOL     OW 8821   2.956   7.213   6.049 -0.6673 -0.3761  0.1703
35140SOL    HW1 8822   2.862   7.202   6.064 -0.6837 -1.0130 -0.3190
35140SOL    HW2 8823   2.972   7.171   5.964  0.2107 -1.1259  0.6722
35141SOL     OW 8824   4.337   0.070   2.488  0.1706 -0.0548 -0.4139
35141SOL    HW1 8825   4.379   0.015   2.421 -0.5934 -3.0709  1.3713
35141SOL    HW2 8826   4.244   0.048   2.482  0.0576 -0.2315  1.4054
35142SOL     OW 8827   5.207  10.295   6.349  0.9936  0.1077  0.1170
35142SOL    HW1 8828   5.224  10.202   6.341  0.9021  0.2181 -1.9333
35142SOL    HW2 8829   5.240  10.333   6.268  1.4883  1.9487  1.1169
35143SOL     OW 8830   3.533  10.582   7.724 -0.2530 -0.0525 -0.1217
35143SOL    HW1 8831   3.454  10.527   7.722 -1.9388  2.2123 -0.4762
35143SOL    HW2 8832   3.507  10.659   7.776  2.1023  0.2787  0.6640
35144SOL     OW 8833  10.626   9.721   4.005 -0.0218  0.4958 -0.1656
35144SOL    HW1 8834  10.685   9.703   3.932  0.2897 -0.1259  0.2327
35144SOL    HW2 8835  10.575   9.797   3.976  0.6735  0.7778 -0.6886
35145SOL     OW 8836   2.703   5.935  10.121 -0.4158  0.0784 -0.3350
35145SOL    HW1 8837   2.680   6.005  10.181  0.6167 -0.2188  0.4354
35145SOL    HW2 8838   2.727   5.979  10.040 -1.5258  0.4998 -0.4502
35146SOL     OW 8839   1.170   6.395   8.419  0.1956  0.0722  0.5108
35146SOL    HW1 8840   1.237   6.344   8.465 -0.6302 -1.9587 -0.4169
35146SOL    HW2 8841   1.094   6.338   8.416 -1.4080  2.0789  0.9653
35147SOL     OW 8842   9.591   1.150  10.642 -0.1440 -0.3237  0.3044
35147SOL    HW1 8843   9.588   1.225  10.582 -1.3163 -2.2514 -2.2188
35147SOL    HW2 8844   9.680   1.152  10.678  0.1086  1.7756 -0.3012
35148SOL     OW 8845   6.223   0.124   9.280 -0.5874 -0.2340  0.4491
35148SOL    HW1 8846   6.261   0.055   9.334  0.4872  1.2666  1.6856
35148SOL    HW2 8847   6.236   0.204   9.330  0.2973  1.2360 -1.9360
35149SOL     OW 8848   4.005   8.916   6.987 -0.1904  0.0755 -0.0510
35149SOL    HW1 8849   3.922   8.894   7.030 -0.5519  4.3848  2.0241
35149SOL    HW2 8850   4.072   8.886   7.049 -0.3936 -0.1424  0.0643
35150SOL     OW 8851   9.066   2.086   8.976 -0.1341 -0.3560  0.8163
35150SOL    HW1 8852   9.100   2.017   9.032  1.0279 -0.6943 -0.2693
35150SOL    HW2 8853   9.137   2.151   8.972 -0.7114  0.2913  0.7849
35151SOL     OW 8854   2.745   2.907   7.169  0.0946 -0.3205  0.4674
35151SOL    HW1 8855   2.788   2.837   7.217 -1.0628 -0.7826  0.8584
35151SOL    HW2 8856   2.663   2.869   7.137  1.4612 -0.5451 -3.3056
35152SOL     OW 8857   0.648   5.024   8.555  0.3557  0.0760  0.1058
35152SOL    HW1 8858   0.689   4.938   8.566  0.2387 -0.0375 -0.3314
35152SOL    HW2 8859   0.657   5.043   8.462  1.5173  1.1188  0.4070
35153SOL     OW 8860   6.269   8.777   0.527 -0.1609  0.0033 -0.5261
35153SOL    HW1 8861   6.255   8.698   0.475 -0.5055 -0.0811 -0.3047
35153SOL    HW2 8862   6.278   8.847   0.462 -0.5152 -0.1131 -0.7053
35154SOL     OW 8863   8.985   6.397   7.454  0.2355  0.2705 -0.1066
35154SOL    HW1 8864   9.029   6.372   7.536 -1.8270  0.7598  1.2196
35154SOL    HW2 8865   9.052   6.446   7.406  0.9978  1.6181  2.1532
35155SOL     OW 8866   6.007   4.448   8.099 -0.5031  0.0841 -0.0771
35155SOL    HW1 8867   6.092   4.408   8.114 -0.3587 -0.2458 -1.6534
35155SOL    HW2 8868   6.026   4.527   8.048 -0.9035  1.5812  1.9367
35156SOL     OW 8869   1.675   2.960   5.073 -0.6422 -0.6676 -0.4418
35156SOL    HW1 8870   1.679   2.892   5.006 -0.6399  0.1535 -1.3024
35156SOL    HW2 8871   1.766   2.990   5.082 -0.4562 -1.5580  0.7752
35157SOL     OW 8872   6.580   3.978   4.197 -0.7231 -0.2804  0.0705
35157SOL    HW1 8873   6.646   4.044   4.221 -1.2383  0.6214 -0.9243
35157SOL    HW2 8874   6.631   3.907   4.157 -0.2573 -0.0558  0.2534
35158SOL     OW 8875   4.573   2.903  10.844  0.3629 -0.5971 -0.3940
35158SOL    HW1 8876   4.501   2.949  10.800 -0.7309  0.0961  1.9508
35158SOL    HW2 8877   4.543   2.813  10.853  0.5322 -0.7085 -0.8980
35159SOL     OW 8878   1.110  10.181   9.418 -0.2955  0.1433  0.2331
35159SOL    HW1 8879   1.118  10.256   9.359 -0.1505  0.0006  0.0660
35159SOL    HW2 8880   1.140  10.213   9.503 -0.8321  0.4500  0.3141
35160SOL     OW 8881   9.825   6.849   7.858  0.2995  0.1738  0.2912
35160SOL    HW1 8882   9.846   6.775   7.915  0.8969  0.1827  0.0940
35160SOL    HW2 8883   9.772   6.907   7.913 -0.4520 -0.5416  0.3480
35161SOL     OW 8884   0.096   3.381   7.373 -0.3595  0.5367 -0.0666
35161SOL    HW1 8885   0.162   3.407   7.438 -1.2011  0.0345  1.0355
35161SOL    HW2 8886   0.137   3.310   7.324  0.7150  1.6855 -0.8750
35162SOL     OW 8887   5.726   1.275   4.909  0.1371  0.0554  0.3912
35162SOL    HW1 8888   5.652   1.336   4.907 -0.9326 -1.2146 -0.6922
35162SOL    HW2 8889   5.733   1.242   4.820  2.5108  0.6676  0.2844
35163SOL     OW 8890   9.621  10.706   0.286  0.1152  0.1553  0.2724
35163SOL    HW1 8891   9.646  10.798   0.291  0.6118  0.1572 -1.5663
35163SOL    HW2 8892   9.703  10.659   0.271 -0.1382 -0.5853  1.1629
35164SOL     OW 8893   2.467   4.853   5.163 -0.0613 -0.0295  0.2346
35164SOL    HW1 8894   2.428   4.864   5.250  0.6395 -0.6814  0.6447
35164SOL    HW2 8895   2.426   4.921   5.110 -0.6656  0.2389  1.0176
35165SOL     OW 8896   8.583   5.569   7.518  0.1722 -0.0637 -0.2941
35165SOL    HW1 8897   8.601   5.655   7.480 -1.7844  1.7705  2.5167
35165SOL    HW2 8898   8.642   5.564   7.593 -0.3200 -0.7846  0.0573
35166SOL     OW 8899   6.616   4.182   0.883  0.0522  0.4463  0.3228
35166SOL    HW1 8900   6.707   4.194   0.854 -0.3644 -1.0044 -1.8020
35166SOL    HW2 8901   6.566   4.246   0.832 -0.3262 -0.0277  0.0948
35167SOL     OW 8902   2.973   7.963   2.850  0.5429  0.0601  0.7729
35167SOL    HW1 8903   2.989   8.026   2.921 -1.6829  1.0945  0.4732
35167SOL    HW2 8904   2.924   7.892   2.892 -0.3142  0.4217  0.4203
35168SOL     OW 8905   9.707   7.564   7.501  0.3982 -0.1281 -0.1785
35168SOL    HW1 8906   9.723   7.500   7.570  0.9804  0.0682 -0.1297
35168SOL    HW2 8907   9.643   7.522   7.443 -0.6753 -0.0011  0.8736
35169SOL     OW 8908   9.262   8.871   4.657  0.6696 -0.2060  0.8489
35169SOL    HW1 8909   9.167   8.879   4.666  0.7542  0.6339  1.1845
35169SOL    HW2 8910   9.279   8.888   4.565  0.2553 -3.4298  0.0732
35170SOL     OW 8911   7.988   1.787   3.305  0.0130  0.3616  0.6651
35170SOL    HW1 8912   8.026   1.870   3.334 -0.2562  0.6665  0.1544
35170SOL    HW2 8913   7.947   1.807   3.221 -1.9850  0.2371  1.5549
35171SOL     OW 8914   9.306   5.621   4.207  0.3415  0.2875 -0.3517
35171SOL    HW1 8915   9.316   5.685   4.137 -0.2776  0.7263 -0.0478
35171SOL    HW2 8916   9.232   5.653   4.258  0.7687 -0.0305  0.4928
35172SOL     OW 8917   8.961   5.141   1.215 -0.0088 -0.0842 -0.5467
35172SOL    HW1 8918   8.887   5.199   1.231 -0.1596 -0.3034 -0.4517
35172SOL    HW2 8919   8.924   5.065   1.171  0.2039 -0.0718 -0.7524
35173SOL     OW 8920   7.281   0.620   3.137 -0.1763  0.2861  0.6451
35173SOL    HW1 8921   7.371   0.611   3.106 -0.0777 -0.3714  1.1075
35173SOL    HW2 8922   7.288   0.672   3.217 -0.3089  0.9747  0.2232
35174SOL     OW 8923   5.075   8.343   3.636  0.0471  0.2556 -0.1177
35174SOL    HW1 8924   5.037   8.320   3.552  0.9873  0.0162 -0.4924
35174SOL    HW2 8925   5.046   8.433   3.652  0.3664  0.5239 -0.9946
35175SOL     OW 8926   5.414   7.300   5.171  0.4547  0.3909  0.1581
35175SOL    HW1 8927   5.503   7.317   5.201  0.1955  2.1744  0.0204
35175SOL    HW2 8928   5.374   7.251   5.243  1.8520 -1.5488 -0.2854
35176SOL     OW 8929   3.214   5.260   9.957  0.0244 -0.1151  0.1396
35176SOL    HW1 8930   3.214   5.182   9.901  1.2895  1.0324 -1.5456
35176SOL    HW2 8931   3.252   5.229  10.039 -0.3517 -1.4843 -0.1642
35177SOL     OW 8932   1.863   3.941   9.865  0.6169 -0.7788  0.5232
35177SOL    HW1 8933   1.878   4.035   9.851  0.3362 -0.8386 -0.2182
35177SOL    HW2 8934   1.770   3.934   9.885  0.6980 -0.8662  0.8636
35178SOL     OW 8935   0.138  10.329   6.090  0.8648 -0.0111  0.0368
35178SOL    HW1 8936   0.101  10.341   6.177  0.4276  0.5225 -0.2165
35178SOL    HW2 8937   0.124  10.236   6.070 -0.0965  0.1224  0.0602
35179SOL     OW 8938   6.514  10.801   5.830 -0.8010 -0.1781 -0.4881
35179SOL    HW1 8939   6.580  10.870   5.828 -0.6752 -0.2528  0.5571
35179SOL    HW2 8940   6.438  10.840   5.786 -0.3171  0.1723 -1.0271
35180SOL     OW 8941   7.872   7.809   2.464  0.1630  0.2168  0.4251
35180SOL    HW1 8942   7.950   7.777   2.510 -0.6319 -0.8535  1.0727
35180SOL    HW2 8943   7.818   7.848   2.533  0.1989  1.1298 -0.0494
35181SOL     OW 8944   6.787   3.258   7.696 -0.4584  0.6412  0.3180
35181SOL    HW1 8945   6.699   3.225   7.682 -1.3563  2.7766  0.6078
35181SOL    HW2 8946   6.795   3.333   7.636  1.3487  0.1724 -0.0941
35182SOL     OW 8947   3.456  10.801   8.805 -0.3336  0.1170  0.3293
35182SOL    HW1 8948   3.543  10.829   8.776 -0.6359  1.9065  1.0271
35182SOL    HW2 8949   3.423  10.874   8.856 -2.4647 -0.3090 -0.3347
35183SOL     OW 8950   3.898   0.074   3.519  0.1617 -0.6123 -0.0429
35183SOL    HW1 8951   3.944   0.157   3.508  1.0888 -1.1843 -0.6260
35183SOL    HW2 8952   3.848   0.064   3.438 -0.9224 -0.0547  0.5352
35184SOL     OW 8953   2.720   6.422   5.800 -0.1656 -0.1707 -0.0734
35184SOL    HW1 8954   2.673   6.367   5.737 -0.4883  1.4174 -1.2918
35184SOL    HW2 8955   2.808   6.431   5.764 -0.1233  0.1363  0.1027
35185SOL     OW 8956   6.764  10.876   4.219 -0.4967 -0.1808  0.0463
35185SOL    HW1 8957   6.761  10.817   4.295  0.3298 -0.0080  0.2236
35185SOL    HW2 8958   6.799  10.822   4.148  0.7287  0.2018  0.3319
35186SOL     OW 8959   8.508   6.398   4.901  0.4703  0.3457 -0.0892
35186SOL    HW1 8960   8.441   6.363   4.843  2.1245 -0.3474 -1.6535
35186SOL    HW2 8961   8.483   6.490   4.914  0.1539  0.5841 -2.0897
35187SOL     OW 8962   6.944   2.404  10.296  0.3792 -0.6215  0.3789
35187SOL    HW1 8963   6.976   2.316  10.313  1.0114 -0.3411  0.6941
35187SOL    HW2 8964   6.875   2.417  10.361  0.8867 -0.5751  0.9268
35188SOL     OW 8965   4.034   8.088   0.645  0.5457  0.0275  0.9561
35188SOL    HW1 8966   4.064   8.003   0.614 -2.9194 -1.1907  0.4985
35188SOL    HW2 8967   4.051   8.148   0.572  0.3545 -0.9274  0.1033
35189SOL     OW 8968   2.312   1.041   7.242  0.0067 -0.0794 -0.1254
35189SOL    HW1 8969   2.347   1.101   7.176 -0.7388  0.8106  0.2655
35189SOL    HW2 8970   2.388   0.992   7.273  0.3058 -0.8792 -1.9879
35190SOL     OW 8971   7.361   3.215   7.009 -0.4986  0.8113 -0.1390
35190SOL    HW1 8972   7.442   3.265   7.023  0.2213 -0.4518  0.4787
35190SOL    HW2 8973   7.378   3.164   6.929  0.1866 -0.9748  1.0591
35191SOL     OW 8974   0.409   5.966   6.818  0.2323  0.4922 -0.0822
35191SOL    HW1 8975   0.425   6.014   6.736  0.0362 -0.9618 -1.0260
35191SOL    HW2 8976   0.479   5.901   6.821  1.5243  1.8577  2.0568
35192SOL     OW 8977   4.714   2.067   3.303  0.3733 -0.1454  0.0048
35192SOL    HW1 8978   4.678   2.154   3.319  0.0171 -0.2360 -0.2862
35192SOL    HW2 8979   4.718   2.059   3.208  0.3974 -0.4476  0.0286
35193SOL     OW 8980   9.558   3.356   6.839  0.3909  0.3490 -0.1082
35193SOL    HW1 8981   9.637   3.408   6.823  0.0251  0.3964 -2.1035
35193SOL    HW2 8982   9.488   3.421   6.843  0.3155  0.2291  0.6655
35194SOL     OW 8983  10.808   0.115   2.054  0.0254 -0.0473 -0.1205
35194SOL    HW1 8984  10.719   0.089   2.029 -1.1226  2.9057  0.3843
35194SOL    HW2 8985  10.808   0.112   2.150  0.7835 -0.8835 -0.1388
35195SOL     OW 8986   5.444   1.507   4.685  0.2256 -0.0967 -0.0018
35195SOL    HW1 8987   5.507   1.477   4.620 -0.9028  1.1502 -1.7725
35195SOL    HW2 8988   5.497   1.526   4.762  1.6369 -1.5026 -0.5489
35196SOL     OW 8989   7.607   1.547   7.239 -0.0069 -0.1900 -0.4153
35196SOL    HW1 8990   7.659   1.614   7.195  0.6448  0.4937  1.3154
35196SOL    HW2 8991   7.567   1.497   7.168  1.6884  0.3091 -1.7835
35197SOL     OW 8992  10.143   0.088   9.481  0.1915 -0.0230 -0.2522
35197SOL    HW1 8993  10.145   0.170   9.431 -0.7084  0.8403  1.0881
35197SOL    HW2 8994  10.111   0.023   9.419 -0.4136  0.9206 -0.9486
35198SOL     OW 8995   6.340   3.771   1.334 -0.1570  0.6214  0.0277
35198SOL    HW1 8996   6.300   3.766   1.247  0.1488 -1.4074 -0.0226
35198SOL    HW2 8997   6.377   3.859   1.337 -1.5221  1.3046 -1.2818
35199SOL     OW 8998   7.383   3.929   3.749 -0.3526 -0.8668  0.0084
35199SOL    HW1 8999   7.341   3.865   3.691 -1.6481 -0.3523  0.3413
35199SOL    HW2 9000   7.437   3.982   3.690  0.7005 -2.1907 -0.2809
35200SOL     OW 9001   7.533   0.667   9.340  0.4025  0.6136 -0.4367
35200SOL    HW1 9002   7.573   0.581   9.351 -0.0641 -0.2419 -4.1727
35200SOL    HW2 9003   7.603   0.721   9.304 -0.3557  0.6088 -1.9698
35201SOL     OW 9004   1.953   4.211   2.714 -0.2257  0.2304 -0.8350
35201SOL    HW1 9005   2.030   4.192   2.769  0.0839 -2.7265 -2.0745
35201SOL    HW2 9006   1.971   4.297   2.677  1.5275  0.4879  0.4653
35202SOL     OW 9007   5.640   9.854   2.173  0.0166  0.0532  0.7405
35202SOL    HW1 9008   5.641   9.840   2.078  3.5234  1.0877  0.4729
35202SOL    HW2 9009   5.676   9.942   2.184  0.8002 -0.5003  3.0692
35203SOL     OW 9010   5.732   0.057   9.529  0.6019  0.0229 -0.0491
35203SOL    HW1 9011   5.691   0.108   9.459  0.6119 -0.0494 -0.1093
35203SOL    HW2 9012   5.826   0.067   9.514  0.6816  2.1401  1.4979
35204SOL     OW 9013   5.200   2.913   4.255  0.1179  0.1696  0.4886
35204SOL    HW1 9014   5.218   2.981   4.190  0.8609 -0.5153 -0.0376
35204SOL    HW2 9015   5.259   2.934   4.328 -0.9774  1.1547  1.1363
35205SOL     OW 9016   6.386   9.018   4.890  0.2399  0.5620 -0.1098
35205SOL    HW1 9017   6.376   9.003   4.796 -1.5092 -1.2660  0.3076
35205SOL    HW2 9018   6.308   9.066   4.916 -0.5214 -1.0660  0.7749
35206SOL     OW 9019   2.008   9.772   4.176 -0.3257 -0.1095 -0.0688
35206SOL    HW1 9020   1.988   9.789   4.084  0.3289 -2.4396 -0.7266
35206SOL    HW2 9021   1.924   9.752   4.216 -0.3905 -1.2779 -0.7349
35207SOL     OW 9022   9.710   8.246   3.358  0.0306  0.3626 -0.3639
35207SOL    HW1 9023   9.685   8.234   3.267 -1.0207 -1.1854  0.1005
35207SOL    HW2 9024   9.631   8.281   3.400  0.8176  2.0658 -0.2160
35208SOL     OW 9025   7.548   3.040   2.938  0.5201  0.0964  0.4994
35208SOL    HW1 9026   7.492   2.998   2.873  0.0836 -0.1124  1.0068
35208SOL    HW2 9027   7.517   3.007   3.022  1.1549  0.2772  0.8107
35209SOL     OW 9028   4.956   1.205   2.871  0.3772  0.0577 -0.6329
35209SOL    HW1 9029   4.864   1.188   2.850  0.1547 -0.1003  0.3998
35209SOL    HW2 9030   4.955   1.290   2.915  0.4845 -0.6429  0.7961
35210SOL     OW 9031   1.146   1.504   2.507  0.0181 -0.4629  0.1677
35210SOL    HW1 9032   1.161   1.409   2.505  0.2845 -0.4128 -1.2618
35210SOL    HW2 9033   1.228   1.540   2.541  0.4324 -0.6799 -0.5659
35211SOL     OW 9034   2.443   7.701   5.822 -0.4376  0.0934 -0.4452
35211SOL    HW1 9035   2.512   7.768   5.822  0.8057 -1.0201  2.7162
35211SOL    HW2 9036   2.373   7.739   5.769  1.6939  2.2034 -1.9907
35212SOL     OW 9037   9.021   4.197   4.363  0.4950  0.1598  0.0519
35212SOL    HW1 9038   9.093   4.256   4.339  0.8486  0.4389  1.6978
35212SOL    HW2 9039   9.025   4.191   4.458 -0.5039 -1.3295  0.0330
35213SOL     OW 9040   9.150   9.057   4.920  0.0858 -0.0551  0.2163
35213SOL    HW1 9041   9.234   9.011   4.917 -0.5397 -1.2442  0.1285
35213SOL    HW2 9042   9.092   8.997   4.967 -0.2045  1.6308  2.1535
35214SOL     OW 9043   5.055   1.435   9.922 -0.3568  0.5427 -0.0865
35214SOL    HW1 9044   4.969   1.394   9.926  0.3531 -1.2216 -1.5835
35214SOL    HW2 9045   5.040   1.518   9.877 -1.3547  0.5355  0.2159
35215SOL     OW 9046   0.847   9.767   7.388  0.1240 -0.1158  0.0702
35215SOL    HW1 9047   0.756   9.737   7.381 -0.6093  1.2654  2.4329
35215SOL    HW2 9048   0.882   9.717   7.462  0.8000  0.4224  0.1215
35216SOL     OW 9049   0.015   5.900   9.119 -0.1651 -0.2669  0.6076
35216SOL    HW1 9050  -0.046   5.852   9.064  0.6185 -1.2550  0.5582
35216SOL    HW2 9051   0.028   5.843   9.195  1.2486 -0.4345  0.2689
35217SOL     OW 9052   4.766   4.295   3.399  0.7257 -0.1124 -0.7164
35217SOL    HW1 9053   4.819   4.216   3.405 -0.6039 -1.0278 -0.6023
35217SOL    HW2 9054   4.720   4.300   3.483  0.7551  0.7590 -0.7395
35218SOL     OW 9055   9.789   4.755   2.354 -0.1856 -0.3629 -0.2010
35218SOL    HW1 9056   9.869   4.789   2.393 -1.3846 -0.4154  2.5934
35218SOL    HW2 9057   9.780   4.666   2.390 -2.2431  0.2197  0.9351
35219SOL     OW 9058   8.331   6.260  10.222 -0.2750 -0.4319 -0.1394
35219SOL    HW1 9059   8.386   6.320  10.272 -0.0616 -1.0777  0.4161
35219SOL    HW2 9060   8.320   6.303  10.137 -1.2697  1.0448  0.6849
35220SOL     OW 9061   1.126   9.473   6.371 -0.0699  0.3527  0.0618
35220SOL    HW1 9062   1.146   9.471   6.278 -2.4822 -0.1256 -0.5091
35220SOL    HW2 9063   1.160   9.558   6.401  3.4566 -0.7004 -0.4753
35221SOL     OW 9064   2.142   9.466   8.936 -0.5541  0.4162 -0.3481
35221SOL    HW1 9065   2.124   9.433   9.024 -0.7724 -0.3121 -0.6529
35221SOL    HW2 9066   2.171   9.556   8.949 -1.1375  0.5048  0.4247
35222SOL     OW 9067   5.300   6.440   9.352 -0.0257  0.0171 -0.7035
35222SOL    HW1 9068   5.387   6.477   9.367 -0.4071  0.1357  1.5497
35222SOL    HW2 9069   5.240   6.501   9.395 -0.8209 -2.1864  1.5569
35223SOL     OW 9070   9.701   2.929  10.667  0.4675  0.0143 -0.5310
35223SOL    HW1 9071   9.686   2.836  10.681  2.0306  0.1601  2.9811
35223SOL    HW2 9072   9.793   2.935  10.642  0.6471  0.6730  0.2577
35224SOL     OW 9073   4.035   7.504   0.343 -0.8648  0.3007  0.1106
35224SOL    HW1 9074   4.030   7.575   0.280 -0.6773  0.4434  0.2549
35224SOL    HW2 9075   4.129   7.494   0.361 -1.0072  1.3894  1.6318
35225SOL     OW 9076   3.771   7.026   8.559  0.9693 -0.2198 -0.1378
35225SOL    HW1 9077   3.766   6.936   8.527  0.5511  0.5930 -2.5728
35225SOL    HW2 9078   3.683   7.045   8.592  0.2334  0.0721 -2.1054
35226SOL     OW 9079  10.565   5.262   8.690 -0.5576  0.2281 -0.1127
35226SOL    HW1 9080  10.573   5.281   8.784  1.2346  0.7745 -0.3450
35226SOL    HW2 9081  10.654   5.245   8.661 -1.1062 -0.1401 -1.6946
35227SOL     OW 9082   6.854   0.613   7.734 -0.1952  0.1501 -0.2575
35227SOL    HW1 9083   6.910   0.659   7.796  1.3456 -2.1005  0.1638
35227SOL    HW2 9084   6.835   0.529   7.776 -0.1819 -0.9366 -2.2617
35228SOL     OW 9085   9.026   2.377   4.178 -0.0706 -0.1995  0.9428
35228SOL    HW1 9086   8.948   2.341   4.135  0.5747  0.0896 -0.5282
35228SOL    HW2 9087   8.992   2.445   4.235 -1.0642 -1.3194  1.7587
35229SOL     OW 9088   3.401   9.593   4.575  0.2470  0.2407  0.1147
35229SOL    HW1 9089   3.436   9.553   4.495  1.1294  0.5154  0.3578
35229SOL    HW2 9090   3.464   9.662   4.597 -0.6856  1.0438  0.3150
35230SOL     OW 9091  10.633   9.246   1.536  0.2466  0.6654 -0.0394
35230SOL    HW1 9092  10.680   9.205   1.608 -1.2997  0.4604  0.9017
35230SOL    HW2 9093  10.693   9.240   1.461  0.8012 -1.6333  0.5186
35231SOL     OW 9094   3.374   1.860   2.207  0.4256  0.3897 -0.1824
35231SOL    HW1 9095   3.382   1.765   2.221 -0.2374  0.4845  0.9250
35231SOL    HW2 9096   3.373   1.870   2.112  1.7041 -0.6072 -0.3373
35232SOL     OW 9097   7.224   6.108   3.738 -0.1690  0.5422 -0.3530
35232SOL    HW1 9098   7.288   6.114   3.809  0.2985  1.1117 -0.8111
35232SOL    HW2 9099   7.142   6.084   3.781  0.4245 -0.5771  0.2017
35233SOL     OW 9100   9.726   1.232   3.282  0.3201 -0.6402  0.0958
35233SOL    HW1 9101   9.683   1.158   3.240  0.7467 -0.3320 -0.9096
35233SOL    HW2 9102   9.766   1.281   3.210  1.3917 -0.3070  0.8856
35234SOL     OW 9103   3.354   4.463   6.306 -0.5533 -0.1202 -0.6677
35234SOL    HW1 9104   3.412   4.489   6.378 -0.5090 -0.0809 -0.7172
35234SOL    HW2 9105   3.275   4.433   6.349 -1.0965  1.2860 -0.6334
35235SOL     OW 9106   3.060   0.786   7.263 -0.8916 -0.0881 -0.5136
35235SOL    HW1 9107   3.091   0.699   7.288 -0.7073  0.0812 -0.1461
35235SOL    HW2 9108   3.139   0.835   7.240 -1.1920 -1.2908 -5.0658
35236SOL     OW 9109   9.344   1.474   4.809  0.1870 -0.1625 -0.0811
35236SOL    HW1 9110   9.401   1.518   4.871  2.1199 -1.2942 -0.9770
35236SOL    HW2 9111   9.262   1.460   4.858  1.6061 -0.9771  2.2218
35237SOL     OW 9112   2.020   4.740   5.094 -0.1809  0.5960  0.3528
35237SOL    HW1 9113   1.961   4.728   5.019 -2.0895  1.7146  1.5717
35237SOL    HW2 9114   1.961   4.761   5.167  1.7157  1.0487  1.8250
35238SOL     OW 9115  10.512   1.019   3.592  0.3060  0.3856  0.5295
35238SOL    HW1 9116  10.514   1.112   3.617  0.0920  0.4806  0.1988
35238SOL    HW2 9117  10.588   1.008   3.535  0.5104  0.2850  0.8240
35239SOL     OW 9118   2.145   8.203   5.410  0.4331 -0.2018  0.1580
35239SOL    HW1 9119   2.140   8.253   5.492  1.4721 -0.3042  0.2965
35239SOL    HW2 9120   2.225   8.233   5.368  0.6170 -1.1149 -0.1760
35240SOL     OW 9121   2.660   0.932   9.656 -0.3705  0.4531 -0.2851
35240SOL    HW1 9122   2.736   0.987   9.678  0.2933 -0.4503 -0.2520
35240SOL    HW2 9123   2.672   0.912   9.563  0.2963 -0.9690  0.0835
35241SOL     OW 9124   2.476   0.208   8.989 -0.6991  0.4715  0.8180
35241SOL    HW1 9125   2.391   0.164   8.980 -0.6168  0.3192  0.7754
35241SOL    HW2 9126   2.539   0.136   8.987 -0.5566  0.6019  0.6361
35242SOL     OW 9127   1.240   4.148   4.251  0.4185  0.2057  0.0613
35242SOL    HW1 9128   1.206   4.058   4.247 -0.5772  0.5404  0.6169
35242SOL    HW2 9129   1.289   4.152   4.332  0.7121  0.0829 -0.1094
35243SOL     OW 9130   6.397  10.267   9.307 -0.9722  0.5163  0.0738
35243SOL    HW1 9131   6.433  10.252   9.395  0.1756  3.0083  0.1080
35243SOL    HW2 9132   6.377  10.361   9.305 -0.5050  0.6357 -2.4821
35244SOL     OW 9133   5.162   0.728   5.792  0.1041  0.2161 -0.9814
35244SOL    HW1 9134   5.112   0.678   5.857 -0.1508  0.7315 -0.7725
35244SOL    HW2 9135   5.253   0.704   5.808 -0.0594 -0.6535 -1.2974
35245SOL     OW 9136   4.715   5.503   2.190  0.3258 -0.1144  0.3885
35245SOL    HW1 9137   4.693   5.592   2.217  0.0082 -0.0520 -0.0657
35245SOL    HW2 9138   4.759   5.513   2.105 -0.1705 -0.4209  0.0862
35246SOL     OW 9139   6.149   4.661   5.706  0.2246  0.2927  0.3438
35246SOL    HW1 9140   6.194   4.677   5.622 -0.7433 -0.9950 -0.4486
35246SOL    HW2 9141   6.061   4.696   5.693  0.3702  1.0314  1.2183
35247SOL     OW 9142   2.152   1.783   3.050  0.0502  0.3209 -0.3866
35247SOL    HW1 9143   2.198   1.846   3.105  0.3120  0.7684 -1.1064
35247SOL    HW2 9144   2.134   1.709   3.109  2.5684 -0.3244 -0.2830
35248SOL     OW 9145   2.137   1.614   6.162 -0.0663  0.1070  0.2256
35248SOL    HW1 9146   2.085   1.598   6.241 -0.7644  0.0057 -0.2448
35248SOL    HW2 9147   2.225   1.631   6.194 -0.2084 -0.5483  0.9910
35249SOL     OW 9148   4.904   0.236   9.179 -0.1161  0.3170 -0.2124
35249SOL    HW1 9149   4.990   0.271   9.202 -0.6926  0.8207  1.3095
35249SOL    HW2 9150   4.863   0.217   9.263 -0.9772 -1.2308 -0.9533
35250SOL     OW 9151   7.849   2.085   9.437 -0.0902 -0.1047  0.7517
35250SOL    HW1 9152   7.832   2.016   9.373  0.4916  0.6503 -0.2510
35250SOL    HW2 9153   7.819   2.165   9.394 -0.0343  0.3699  1.5822
35251SOL     OW 9154   3.891   5.409   4.124  0.2229 -0.1163 -0.0567
35251SOL    HW1 9155   3.809   5.453   4.146  0.4440  1.4774 -2.1045
35251SOL    HW2 9156   3.866   5.317   4.110 -1.0032  0.1351  0.3873
35252SOL     OW 9157   0.986   4.124   7.477 -0.2623  0.6148 -0.0222
35252SOL    HW1 9158   1.016   4.069   7.549  0.0334  0.4573 -0.2609
35252SOL    HW2 9159   1.060   4.183   7.460  0.5549 -0.7644 -1.6050
35253SOL     OW 9160   2.776   4.679   6.652 -0.4420  0.0114  0.0039
35253SOL    HW1 9161   2.759   4.636   6.736 -1.3868 -1.0173 -0.6687
35253SOL    HW2 9162   2.810   4.609   6.596 -0.9984  0.3848 -0.8214
35254SOL     OW 9163   8.028   4.879   1.638 -0.1227  0.0626 -0.1332
35254SOL    HW1 9164   7.954   4.819   1.650  0.4251 -0.7625 -0.7881
35254SOL    HW2 9165   8.007   4.953   1.694 -0.7709 -0.7788  0.7743
35255SOL     OW 9166   7.831   8.984   3.404 -0.1935  0.6176 -0.0959
35255SOL    HW1 9167   7.811   9.058   3.462  2.2028  1.1037  0.2318
35255SOL    HW2 9168   7.830   9.021   3.316  1.0001  1.1039  0.0676
35256SOL     OW 9169  10.634   2.442   2.322 -0.4788 -0.0322 -0.1548
35256SOL    HW1 9170  10.676   2.381   2.260 -0.8152 -0.8991  0.4529
35256SOL    HW2 9171  10.600   2.386   2.391  2.0747  1.0662  2.1811
35257SOL     OW 9172   5.295   1.510   6.856 -0.1658  0.0443 -0.3525
35257SOL    HW1 9173   5.287   1.586   6.914  0.4445 -1.4820  1.8663
35257SOL    HW2 9174   5.214   1.461   6.871  0.7031 -1.1758  0.4782
35258SOL     OW 9175   4.194   7.993   4.151 -0.3829 -0.7115  0.4002
35258SOL    HW1 9176   4.225   7.984   4.241  1.2892 -0.2553 -0.0998
35258SOL    HW2 9177   4.248   7.932   4.101 -0.7588 -0.3971 -0.4085
35259SOL     OW 9178   6.425   2.890   5.327  0.0747  0.0278  0.0975
35259SOL    HW1 9179   6.435   2.956   5.396  0.8467 -0.8337  0.8361
35259SOL    HW2 9180   6.353   2.835   5.357 -0.5215  0.4927 -0.4824
35260SOL     OW 9181   4.646   7.973   9.196  0.1808 -0.2025  0.2723
35260SOL    HW1 9182   4.564   7.972   9.147 -0.6034  0.4241  1.5301
35260SOL    HW2 9183   4.675   7.882   9.196 -1.9422 -0.9601  2.1021
35261SOL     OW 9184   5.144   0.339   5.135  0.5641  0.4625 -0.5119
35261SOL    HW1 9185   5.126   0.397   5.061 -1.0332  1.3376  0.5090
35261SOL    HW2 9186   5.072   0.354   5.196  1.3036 -0.9694  0.7945
35262SOL     OW 9187  10.144   0.787   5.580 -0.3108  0.1845  0.1344
35262SOL    HW1 9188  10.166   0.704   5.539 -0.5438  0.7564 -1.1807
35262SOL    HW2 9189  10.220   0.807   5.635  1.1991  0.6472 -1.9868
35263SOL     OW 9190  10.712   7.514   0.027 -0.1317  0.1187  1.2474
35263SOL    HW1 9191  10.745   7.597  -0.005 -1.3508  0.1836  0.0816
35263SOL    HW2 9192  10.622   7.508  -0.007 -0.4441 -1.1808  2.1867
35264SOL     OW 9193   2.175  10.520   7.490  0.0992  0.0777  0.0617
35264SOL    HW1 9194   2.159  10.610   7.460  0.4202  0.4077  0.8335
35264SOL    HW2 9195   2.267  10.519   7.514 -0.1526 -0.1405  1.0651
35265SOL     OW 9196   9.248   2.471   2.000 -0.3449  0.4012  0.2412
35265SOL    HW1 9197   9.283   2.461   1.912 -1.5684  2.6687 -0.5955
35265SOL    HW2 9198   9.323   2.501   2.052  0.4751 -1.3227  0.1099
35266SOL     OW 9199   7.957   5.096   0.609  0.3871  0.0791 -0.1468
35266SOL    HW1 9200   7.920   5.038   0.542  2.9311 -1.8322 -0.0903
35266SOL    HW2 9201   8.043   5.120   0.574  0.2602  2.1194  0.8325
35267SOL     OW 9202   1.936  10.134   9.834 -0.1532 -0.2313  0.4528
35267SOL    HW1 9203   2.029  10.158   9.836 -0.3689  0.6102  0.9278
35267SOL    HW2 9204   1.893  10.200   9.888 -0.6871 -2.1700  2.5375
35268SOL     OW 9205   3.013   1.762  10.537 -0.1227 -0.1089  0.0933
35268SOL    HW1 9206   2.996   1.851  10.570  2.3949  0.4511  0.0286
35268SOL    HW2 9207   3.061   1.775  10.455  0.2536 -1.5376  0.0598
35269SOL     OW 9208   2.331   0.576   3.918 -0.2294  0.2357 -0.0704
35269SOL    HW1 9209   2.281   0.513   3.971 -0.4029  1.1827  0.9163
35269SOL    HW2 9210   2.355   0.646   3.979 -0.4100  1.3525 -1.2343
35270SOL     OW 9211   6.692   5.988   3.165  0.3102  0.3092  0.4196
35270SOL    HW1 9212   6.619   6.036   3.203 -0.9175 -1.7586  0.8121
35270SOL    HW2 9213   6.744   5.960   3.240 -0.5366 -1.3155  0.4420
35271SOL     OW 9214   2.126   7.777   3.975 -0.4688  0.1439  0.1600
35271SOL    HW1 9215   2.146   7.804   4.065  1.7096  2.1649 -0.8258
35271SOL    HW2 9216   2.077   7.695   3.985  1.2585 -0.6846  3.1474
35272SOL     OW 9217   3.992   6.361   8.558 -0.0674 -0.1016 -0.0707
35272SOL    HW1 9218   4.057   6.425   8.529  0.1794 -0.1408  0.3828
35272SOL    HW2 9219   4.000   6.360   8.654  0.5582 -1.4566 -0.1104
35273SOL     OW 9220   2.581   9.187  10.467  0.2717  0.2832  0.9644
35273SOL    HW1 9221   2.652   9.212  10.408 -0.5046 -0.5241 -0.3507
35273SOL    HW2 9222   2.597   9.238  10.546  0.9660  1.8937 -0.1698
35274SOL     OW 9223   7.295   1.418   6.469 -0.2220 -0.0946 -0.7884
35274SOL    HW1 9224   7.292   1.511   6.487 -0.5252 -0.4092  1.0113
35274SOL    HW2 9225   7.231   1.404   6.399 -1.2555  0.8570 -0.0627
35275SOL     OW 9226  10.618   6.964   5.994  0.4316 -0.0627  0.2576
35275SOL    HW1 9227  10.597   6.924   6.078  0.0490  0.5223  0.4533
35275SOL    HW2 9228  10.701   7.009   6.009 -0.3610  1.2966  0.7822
35276SOL     OW 9229   1.047   0.502   9.260 -0.1596  0.2964 -0.1542
35276SOL    HW1 9230   1.008   0.460   9.183 -0.0116  0.5185 -0.3526
35276SOL    HW2 9231   1.046   0.596   9.240  3.0314  0.2047 -1.4320
35277SOL     OW 9232   3.644   3.988   5.506  0.1554 -0.1122  0.0577
35277SOL    HW1 9233   3.600   3.915   5.462 -1.0239  0.2110  0.6540
35277SOL    HW2 9234   3.600   4.066   5.472  1.3643  0.3331 -0.5336
35278SOL     OW 9235   4.422   8.263   0.003  0.1748  0.5219  0.2679
35278SOL    HW1 9236   4.352   8.211   0.043  0.3221  0.8258  0.9328
35278SOL    HW2 9237   4.403   8.260  -0.091 -1.7430  2.0210  0.5535
35279SOL     OW 9238   1.874   4.302   5.675 -0.1905  0.1847  0.1265
35279SOL    HW1 9239   1.962   4.327   5.650 -0.6834  1.0221 -0.8505
35279SOL    HW2 9240   1.873   4.206   5.669  0.2276  0.2528 -1.3760
35280SOL     OW 9241   3.437   8.847  10.334 -0.2061 -0.5328  0.5017
35280SOL    HW1 9242   3.463   8.928  10.380  0.3336  0.0993 -0.8639
35280SOL    HW2 9243   3.384   8.800  10.398 -1.1904  1.2600  1.0840
35281SOL     OW 9244  10.718   4.434   7.446 -0.4521  0.2027 -0.3682
35281SOL    HW1 9245  10.771   4.363   7.483 -1.0103  0.1532  0.3735
35281SOL    HW2 9246  10.706   4.495   7.519  1.5603  2.0349 -1.4502
35282SOL     OW 9247   2.075   9.539   5.845  0.5073  0.0306  0.1201
35282SOL    HW1 9248   2.004   9.505   5.900  0.9691 -1.4821 -0.1774
35282SOL    HW2 9249   2.078   9.632   5.866  1.0332 -0.5491  3.1048
35283SOL     OW 9250  10.043  10.790   4.459 -0.1284 -0.2498 -0.1138
35283SOL    HW1 9251  10.081  10.818   4.375  0.5724  0.4905  0.4306
35283SOL    HW2 9252   9.959  10.750   4.435  0.1102 -0.1486 -1.1787
35284SOL     OW 9253   9.355   5.826   9.983  0.2922 -0.2938 -0.1329
35284SOL    HW1 9254   9.340   5.754  10.045  1.5473 -1.4828 -1.1541
35284SOL    HW2 9255   9.361   5.904  10.038 -0.1269 -1.0946  1.0974
35285SOL     OW 9256   2.819   4.177   2.853 -0.5222  0.0729 -0.3184
35285SOL    HW1 9257   2.897   4.159   2.905 -0.4927  2.5667  0.6226
35285SOL    HW2 9258   2.750   4.127   2.897 -0.0182  0.2176  0.6757
35286SOL     OW 9259   8.797   5.677   0.961  0.4509  0.5405 -0.2148
35286SOL    HW1 9260   8.778   5.617   0.889  0.1002 -0.4014  0.6508
35286SOL    HW2 9261   8.727   5.662   1.024  2.0200 -0.3882  1.4147
35287SOL     OW 9262   6.762   1.148   7.791  0.2699  0.0220  0.6057
35287SOL    HW1 9263   6.742   1.175   7.881 -1.2347 -0.0146  0.3139
35287SOL    HW2 9264   6.794   1.059   7.798  1.2521  0.4137  1.2028
35288SOL     OW 9265   4.801   4.433   7.888  0.6280  0.4376  0.3332
35288SOL    HW1 9266   4.762   4.357   7.931  3.4887 -0.9003  0.7969
35288SOL    HW2 9267   4.783   4.506   7.947  1.0385 -0.6222  1.8112
35289SOL     OW 9268   0.989   5.366   1.800 -0.7256  0.4460  0.1973
35289SOL    HW1 9269   1.056   5.351   1.734  0.8498  0.9217  1.6281
35289SOL    HW2 9270   0.929   5.429   1.760  0.4430  1.0837 -0.6021
35290SOL     OW 9271   2.489  10.169   7.013 -0.5796  0.1153  0.1373
35290SOL    HW1 9272   2.466  10.098   7.073 -1.5828  0.1698 -0.1633
35290SOL    HW2 9273   2.550  10.129   6.951  0.0861 -0.0638  0.8906
35291SOL     OW 9274   3.625   4.085   2.578 -0.0417 -0.4705 -0.0673
35291SOL    HW1 9275   3.576   4.167   2.575 -0.2001 -0.5835 -0.8150
35291SOL    HW2 9276   3.562   4.018   2.553  0.2070 -0.7601  0.0684
35292SOL     OW 9277   5.203   0.901   8.898  0.2713  0.2226 -0.3226
35292SOL    HW1 9278   5.193   0.928   8.806 -2.2975 -1.7635 -0.7300
35292SOL    HW2 9279   5.243   0.815   8.894  2.2066  1.0088  0.6223
35293SOL     OW 9280   6.886  10.139   1.955  0.0694  0.0420 -0.1664
35293SOL    HW1 9281   6.818  10.172   2.013  2.7414 -1.0822  4.0467
35293SOL    HW2 9282   6.953  10.207   1.955  1.7871 -1.5244  1.4487
35294SOL     OW 9283   6.182   7.220   5.147 -0.4652  0.3176 -0.0335
35294SOL    HW1 9284   6.267   7.212   5.104  0.2131  1.8793  0.9329
35294SOL    HW2 9285   6.193   7.175   5.231 -1.0944 -0.7638 -0.4947
35295SOL     OW 9286   7.532   2.388  10.885  0.7434  0.0202 -0.4064
35295SOL    HW1 9287   7.616   2.343  10.876  0.3637 -0.4772 -1.6387
35295SOL    HW2 9288   7.552   2.466  10.936  2.1083  0.2863 -1.3106
35296SOL     OW 9289   2.465   2.259   2.917 -0.2674  0.0766  0.3985
35296SOL    HW1 9290   2.393   2.304   2.961  0.2546  0.0255  1.3394
35296SOL    HW2 9291   2.426   2.225   2.837 -0.8631  1.5161  0.0441
35297SOL     OW 9292  10.538   9.358   6.782  0.0742  0.4422  0.2689
35297SOL    HW1 9293  10.632   9.369   6.791  0.0071  0.8651  0.5217
35297SOL    HW2 9294  10.515   9.410   6.705 -0.0429  0.8938  0.6036
35298SOL     OW 9295   7.162   2.265   1.716 -0.0490 -0.0444  0.3799
35298SOL    HW1 9296   7.080   2.215   1.718 -0.2313  0.2002 -0.5525
35298SOL    HW2 9297   7.138   2.349   1.677  0.7175 -0.1132 -0.2774
35299SOL     OW 9298   9.182   0.078   7.999  0.3208  0.0613  0.0411
35299SOL    HW1 9299   9.211   0.066   8.090  1.2654  0.8034 -0.1460
35299SOL    HW2 9300   9.135   0.162   8.000 -2.7642 -1.5139  0.5275
35300SOL     OW 9301   0.008   1.070   2.654  0.7594 -0.5919  0.5650
35300SOL    HW1 9302   0.051   1.122   2.587 -0.4464 -1.9871 -1.3932
35300SOL    HW2 9303   0.056   0.987   2.655 -1.5185 -2.0592 -1.4417
35301SOL     OW 9304   5.232   9.282   2.043  0.4525 -0.1563  0.1626
35301SOL    HW1 9305   5.223   9.199   1.996 -0.5887  0.4543 -0.7445
35301SOL    HW2 9306   5.326   9.300   2.042  0.4870 -0.3053 -1.4507
35302SOL     OW 9307   7.019   9.824   3.979  0.3275 -0.6047 -0.3490
35302SOL    HW1 9308   6.927   9.811   4.001  0.3852 -0.4478 -0.0055
35302SOL    HW2 9309   7.060   9.848   4.062  0.4998  0.2753 -0.6745
35303SOL     OW 9310  10.221   1.624   4.318  0.5890  0.0426  0.0906
35303SOL    HW1 9311  10.207   1.707   4.365  1.0749  0.9831 -1.3392
35303SOL    HW2 9312  10.215   1.557   4.386 -0.6721  1.1620  1.1717
35304SOL     OW 9313   3.969   5.700   6.741 -0.0502 -0.1008 -0.0146
35304SOL    HW1 9314   4.050   5.713   6.693 -0.0534 -1.7226 -0.5172
35304SOL    HW2 9315   3.932   5.788   6.750  0.3623  0.3644 -2.2343
35305SOL     OW 9316   2.821   6.212   2.272 -0.6357 -0.3111  0.0326
35305SOL    HW1 9317   2.907   6.172   2.282 -0.6900 -0.1539  1.3180
35305SOL    HW2 9318   2.763   6.157   2.326 -1.0015  0.5749  0.5618
35306SOL     OW 9319   8.363   9.890   1.910  0.1966 -0.1044 -0.0037
35306SOL    HW1 9320   8.297   9.955   1.934  1.2229  1.7993 -1.9601
35306SOL    HW2 9321   8.329   9.849   1.831  1.0298  0.4637 -0.6823
35307SOL     OW 9322   1.142   3.788   5.483 -0.5532  0.2019  0.1181
35307SOL    HW1 9323   1.160   3.800   5.390  1.5764 -2.1237  0.1224
35307SOL    HW2 9324   1.228   3.787   5.524 -1.3422 -0.7649  1.8487
35308SOL     OW 9325   1.531   6.469   6.231  0.1964 -0.5220 -0.1030
35308SOL    HW1 9326   1.553   6.377   6.245 -1.5257 -0.7139  1.8521
35308SOL    HW2 9327   1.471   6.468   6.156  0.9790 -0.8349 -0.7454
35309SOL     OW 9328   7.584  10.421   6.724  0.6109  0.2476 -0.5283
35309SOL    HW1 9329   7.509  10.441   6.668  0.6124 -0.9341 -0.9976
35309SOL    HW2 9330   7.597  10.499   6.777 -0.8804  0.5227 -0.5274
35310SOL     OW 9331   0.551   5.145   4.419 -0.2704  0.4611 -0.2928
35310SOL    HW1 9332   0.610   5.219   4.403 -1.0765  0.8659 -1.5519
35310SOL    HW2 9333   0.498   5.139   4.339 -0.1016 -1.6003 -0.2858
35311SOL     OW 9334   1.253   3.419   4.977 -0.0208 -0.3034 -0.4397
35311SOL    HW1 9335   1.238   3.325   4.972 -2.9863  0.1275 -1.3471
35311SOL    HW2 9336   1.233   3.452   4.889  1.5649  1.1383 -0.3142
35312SOL     OW 9337   9.057   6.602   1.723  0.4370 -0.5998  0.2744
35312SOL    HW1 9338   9.149   6.576   1.733  0.7766 -0.3756 -1.8218
35312SOL    HW2 9339   9.008   6.536   1.771  1.6052 -1.7015  0.0088
35313SOL     OW 9340   5.095   0.100   4.144 -0.3752 -0.0306  0.1716
35313SOL    HW1 9341   5.026   0.076   4.082  0.0022 -1.2031  0.1810
35313SOL    HW2 9342   5.116   0.191   4.121 -0.7601 -0.1973 -0.9330
35314SOL     OW 9343  10.821   7.079   3.290 -0.0172  0.5124  0.1069
35314SOL    HW1 9344  10.760   7.120   3.229  0.4012 -0.0539 -0.7168
35314SOL    HW2 9345  10.805   6.985   3.281 -0.1103  0.4245  1.0586
35315SOL     OW 9346   8.203   1.897   0.124 -0.1076  0.1897  0.0320
35315SOL    HW1 9347   8.206   1.801   0.125 -0.9058  0.1435  2.2392
35315SOL    HW2 9348   8.110   1.918   0.126  0.0862  0.9780  1.9357
35316SOL     OW 9349   4.409   1.219   4.924 -0.2009 -0.5840 -0.3497
35316SOL    HW1 9350   4.450   1.140   4.888  1.0456 -0.1688  0.1028
35316SOL    HW2 9351   4.451   1.291   4.877 -0.9207 -0.1560 -0.3504
35317SOL     OW 9352   9.671   8.378   0.361  0.6247 -0.0435 -0.2453
35317SOL    HW1 9353   9.575   8.381   0.359  0.6302  2.3887 -0.6935
35317SOL    HW2 9354   9.693   8.366   0.453 -0.0913 -1.1788 -0.2036
35318SOL     OW 9355   5.508   9.731   7.170 -0.7988  0.4510  0.3277
35318SOL    HW1 9356   5.548   9.795   7.229  0.3114  0.8438 -0.8019
35318SOL    HW2 9357   5.436   9.778   7.129  0.3003  1.1796 -0.8453
35319SOL     OW 9358   2.718   7.866   6.526  0.0949  0.3918  0.5202
35319SOL    HW1 9359   2.804   7.848   6.487  0.6635  2.9393  0.4171
35319SOL    HW2 9360   2.735   7.872   6.620  0.1611  1.3102  0.4653
35320SOL     OW 9361   0.786   9.071   3.750 -0.1867  0.4113 -0.1747
35320SOL    HW1 9362   0.704   9.115   3.772  0.1544  1.0166 -0.0856
35320SOL    HW2 9363   0.836   9.071   3.832  0.1676  0.6533 -0.3852
35321SOL     OW 9364   0.795   1.977   0.532 -0.5701 -0.2511 -0.2013
35321SOL    HW1 9365   0.882   1.957   0.498  1.2237  3.0851  1.8560
35321SOL    HW2 9366   0.788   2.073   0.525 -3.6292 -0.2873  0.7485
35322SOL     OW 9367   4.551   0.882   1.536  0.2593 -0.2654  0.4242
35322SOL    HW1 9368   4.542   0.956   1.596  0.6267  0.6758 -0.6422
35322SOL    HW2 9369   4.618   0.910   1.473 -2.2321  0.0943 -2.3072
35323SOL     OW 9370   5.114   6.267   8.583  0.0902  0.2718 -0.2299
35323SOL    HW1 9371   5.037   6.211   8.579 -0.8952  1.4238  1.3070
35323SOL    HW2 9372   5.180   6.222   8.530 -0.9109 -1.8896  0.2550
35324SOL     OW 9373   5.837   5.720   9.544 -0.3195 -0.1129 -0.2558
35324SOL    HW1 9374   5.853   5.722   9.450  1.3574  0.0286  0.0007
35324SOL    HW2 9375   5.759   5.776   9.557  0.5942  1.4804 -1.3614
35325SOL     OW 9376   9.410   1.062   2.894 -0.0351 -0.2378  0.5554
35325SOL    HW1 9377   9.334   1.094   2.943 -0.6434  1.9261 -1.5673
35325SOL    HW2 9378   9.478   1.126   2.913  0.1612 -0.2031 -0.2620
35326SOL     OW 9379   4.851   6.238   7.880 -0.1043  0.0979  0.0818
35326SOL    HW1 9380   4.831   6.321   7.923  1.2688  0.9637 -0.8434
35326SOL    HW2 9381   4.780   6.180   7.905 -0.3023  1.0858  2.0180
35327SOL     OW 9382   6.654  10.426   4.272  0.1571  0.0952 -0.1883
35327SOL    HW1 9383   6.736  10.407   4.226 -0.8969  0.5271 -2.4082
35327SOL    HW2 9384   6.586  10.396   4.212 -1.3372 -0.1520  1.5481
35328SOL     OW 9385   4.054   1.764   7.182  0.3369  0.5757  0.0276
35328SOL    HW1 9386   4.037   1.685   7.131  3.0377  0.4978 -0.9153
35328SOL    HW2 9387   4.089   1.731   7.265 -0.5417  0.7750  0.4870
35329SOL     OW 9388  10.607   0.795   8.145  0.2832 -0.2495 -0.2984
35329SOL    HW1 9389  10.702   0.807   8.143  0.3960 -0.9049  0.4945
35329SOL    HW2 9390  10.572   0.873   8.101  1.2188 -0.6589 -1.8465
35330SOL     OW 9391   1.210   7.030   2.101 -0.0713  0.1432 -0.1712
35330SOL    HW1 9392   1.241   7.107   2.053 -0.5401 -0.2519 -1.1456
35330SOL    HW2 9393   1.265   7.026   2.179 -0.5700  1.9170  0.2970
35331SOL     OW 9394   2.296  10.700   2.804 -0.2970 -0.5674  0.5633
35331SOL    HW1 9395   2.295  10.605   2.790  0.6480 -0.6330  0.8633
35331SOL    HW2 9396   2.389  10.722   2.811 -0.5411  0.1475  1.9560
35332SOL     OW 9397   5.484   2.348   7.969 -0.3026 -0.1183  0.1691
35332SOL    HW1 9398   5.441   2.346   7.883 -0.6663  0.3258  0.3396
35332SOL    HW2 9399   5.426   2.297   8.026 -0.8403  0.8485  0.5042
35333SOL     OW 9400   3.602   6.570   1.432  0.1051  0.2993 -0.2917
35333SOL    HW1 9401   3.691   6.593   1.460 -0.7077  0.7572  2.1868
35333SOL    HW2 9402   3.548   6.641   1.467 -1.7106 -1.9992  1.8487
35334SOL     OW 9403   0.021   5.025   2.085  0.0381 -0.4801  0.5710
35334SOL    HW1 9404   0.111   5.038   2.114  0.1153  0.9512 -0.2108
35334SOL    HW2 9405   0.029   4.980   2.001  0.2876  2.5751 -1.2040
35335SOL     OW 9406  10.380   3.666   9.758 -0.1210  0.6047 -0.0730
35335SOL    HW1 9407  10.295   3.710   9.768  0.6883  2.1907  0.1487
35335SOL    HW2 9408  10.424   3.716   9.689 -0.0508 -1.3269 -1.4856
35336SOL     OW 9409   8.431   1.999   1.342 -0.8014  0.0221  0.5239
35336SOL    HW1 9410   8.382   1.934   1.391 -1.1959  0.9424  1.3809
35336SOL    HW2 9411   8.483   2.045   1.408 -0.2003  0.2998 -0.1259
35337SOL     OW 9412   1.443   1.093   5.040  0.0831 -0.1451  0.0279
35337SOL    HW1 9413   1.535   1.113   5.053  0.4977 -0.5586 -2.0727
35337SOL    HW2 9414   1.418   1.042   5.118  1.4637  0.3924  0.8514
35338SOL     OW 9415   8.645   2.091   5.592 -0.1201  0.2324 -0.3007
35338SOL    HW1 9416   8.554   2.103   5.567 -0.6177  0.9413  1.6733
35338SOL    HW2 9417   8.643   2.082   5.687  1.6387 -2.4020 -0.4304
35339SOL     OW 9418   8.268   2.943   3.478  0.1579 -0.1236 -0.0285
35339SOL    HW1 9419   8.347   2.985   3.512 -0.5030 -0.4363  2.0132
35339SOL    HW2 9420   8.295   2.853   3.459 -0.3468 -1.2650  3.8626
35340SOL     OW 9421   3.399   4.215   1.266 -0.6017 -0.3812 -0.4567
35340SOL    HW1 9422   3.329   4.198   1.330 -1.0403  2.1103 -0.1336
35340SOL    HW2 9423   3.355   4.213   1.181 -0.5969 -0.9613 -0.4491
35341SOL     OW 9424   1.837   7.859   9.842  0.0341  0.0236 -0.2387
35341SOL    HW1 9425   1.747   7.827   9.831  0.1076 -0.7629  1.3268
35341SOL    HW2 9426   1.828   7.938   9.896 -0.1263  2.7600 -3.8535
35342SOL     OW 9427   1.658   9.548   4.945 -0.2068  0.1549  0.3359
35342SOL    HW1 9428   1.643   9.555   5.039  0.0088 -1.3357  0.5061
35342SOL    HW2 9429   1.608   9.471   4.918  1.4986 -0.7575 -0.3520
35343SOL     OW 9430   1.840   5.472   6.339 -0.1665  0.4811  0.1260
35343SOL    HW1 9431   1.757   5.504   6.304 -0.8193 -0.4388  0.7777
35343SOL    HW2 9432   1.896   5.460   6.262 -1.7732 -2.1069 -0.7865
35344SOL     OW 9433   1.365   7.999  10.632 -0.2539  0.0645  0.2019
35344SOL    HW1 9434   1.279   7.963  10.611 -0.9220  1.0967  1.0716
35344SOL    HW2 9435   1.365   8.086  10.593 -0.1858  0.6326  1.4078
35345SOL     OW 9436   3.978   5.623   1.164  0.0851 -0.2884 -0.7215
35345SOL    HW1 9437   4.060   5.620   1.114 -0.4965  1.1606 -1.8103
35345SOL    HW2 9438   4.005   5.643   1.254  0.8711  1.2503 -1.2731
35346SOL     OW 9439   3.093   1.090   8.291 -0.1080 -0.1918 -0.4816
35346SOL    HW1 9440   3.118   1.108   8.200  1.9655 -0.8776 -0.1211
35346SOL    HW2 9441   3.151   1.018   8.317 -0.1057  0.5107  1.6146
35347SOL     OW 9442   4.634   0.905   9.991  0.2934 -0.5987  0.4114
35347SOL    HW1 9443   4.550   0.927  10.031  1.1471  0.1261  1.8981
35347SOL    HW2 9444   4.690   0.883  10.065  0.9402 -2.8856 -0.6657
35348SOL     OW 9445   8.375   5.591   5.225  0.0277 -0.3156 -0.7207
35348SOL    HW1 9446   8.337   5.659   5.169  0.6795 -0.2739 -1.1245
35348SOL    HW2 9447   8.439   5.637   5.279  0.3282 -0.5718 -0.8553
35349SOL     OW 9448   7.838   3.919   4.037 -0.1813 -0.3084  0.7478
35349SOL    HW1 9449   7.897   3.896   3.965 -0.3945  0.2435  0.3907
35349SOL    HW2 9450   7.801   3.835   4.065  1.1391 -0.7311  1.3070
35350SOL     OW 9451   8.789   3.994   5.937 -0.2230  0.5400 -0.3595
35350SOL    HW1 9452   8.781   4.087   5.914 -1.9916  0.5472  0.1353
35350SOL    HW2 9453   8.853   3.993   6.008 -0.6422  1.4750  0.0573
35351SOL     OW 9454   7.462   0.619   7.112 -0.2877 -0.4217  0.2614
35351SOL    HW1 9455   7.549   0.579   7.113  0.1067  0.2399 -1.9960
35351SOL    HW2 9456   7.438   0.627   7.204  1.2218 -2.3258  0.8948
35352SOL     OW 9457   8.305   1.348   5.305 -0.6489 -0.2739 -1.0943
35352SOL    HW1 9458   8.309   1.356   5.400 -0.2958 -0.8045 -1.0646
35352SOL    HW2 9459   8.396   1.353   5.276 -0.6077 -1.8053 -1.2646
35353SOL     OW 9460   1.792   9.763  10.407 -0.7174 -0.0180 -0.1042
35353SOL    HW1 9461   1.739   9.694  10.367 -1.2793 -0.1669  0.8555
35353SOL    HW2 9462   1.815   9.821  10.334  0.0576 -1.3832 -0.9893
35354SOL     OW 9463   2.326   7.167   0.378 -0.5101 -0.6356  0.6575
35354SOL    HW1 9464   2.345   7.130   0.464  0.5529  0.3933  0.8846
35354SOL    HW2 9465   2.364   7.104   0.316  1.4099  0.0859  1.0402
35355SOL     OW 9466  10.583   9.463  10.795 -0.4331  0.0204 -0.3093
35355SOL    HW1 9467  10.533   9.382  10.802 -0.3092  0.0271  0.8199
35355SOL    HW2 9468  10.675   9.434  10.791 -0.4017  0.0974 -0.1444
35356SOL     OW 9469   0.433   3.839   6.805  0.4050  0.6947  0.4280
35356SOL    HW1 9470   0.386   3.759   6.780 -2.3202  2.3590 -0.2195
35356SOL    HW2 9471   0.510   3.840   6.747 -0.2333 -0.7669 -0.5208
35357SOL     OW 9472   8.972   6.337  10.304  0.3191 -0.3104 -0.5732
35357SOL    HW1 9473   9.011   6.400  10.243  2.1530  0.3183  1.1485
35357SOL    HW2 9474   8.989   6.251  10.264  1.2330  0.0939 -1.0837
35358SOL     OW 9475   7.026   2.483   3.775  0.2558 -0.7785  0.4788
35358SOL    HW1 9476   6.942   2.459   3.737  0.2947 -0.8002  0.4058
35358SOL    HW2 9477   7.068   2.537   3.708 -1.0808  2.0959  1.8111
35359SOL     OW 9478   9.189   0.601   5.974  0.3015  0.1250  0.2001
35359SOL    HW1 9479   9.275   0.572   6.005  0.0092  0.6826  1.5977
35359SOL    HW2 9480   9.203   0.628   5.884  1.9891  1.8786  0.9368
35360SOL     OW 9481  10.845  10.478   9.114  0.2087 -0.4186  0.0262
35360SOL    HW1 9482  10.829  10.384   9.106  3.5919 -1.0915 -0.5005
35360SOL    HW2 9483  10.940  10.486   9.112  0.0411  3.1931 -1.6376
35361SOL     OW 9484  10.729   5.980   2.985 -0.3498 -0.3740 -0.1013
35361SOL    HW1 9485  10.756   6.016   3.070 -0.3213  0.1162 -0.3150
35361SOL    HW2 9486  10.636   5.962   2.995 -0.1456 -1.2299  0.3469
35362SOL     OW 9487  10.558   9.264   4.378  0.3078  0.2315  0.2003
35362SOL    HW1 9488  10.642   9.287   4.338  0.3696  0.5028  0.4796
35362SOL    HW2 9489  10.578   9.190   4.435  0.3423  0.2395  0.1994
35363SOL     OW 9490   4.537   9.811   6.865  0.5257 -0.2054 -0.0316
35363SOL    HW1 9491   4.449   9.845   6.884  0.4180 -0.7777  0.5248
35363SOL    HW2 9492   4.569   9.781   6.950  1.9508  1.5565  0.1190
35364SOL     OW 9493   7.476   1.447   2.758 -0.5994  0.2308 -0.1976
35364SOL    HW1 9494   7.434   1.425   2.842  0.1742 -1.2475 -0.1593
35364SOL    HW2 9495   7.494   1.362   2.718 -0.8728  0.9155 -1.8387
35365SOL     OW 9496   0.682   9.124   9.790  0.4391 -0.4688 -0.2880
35365SOL    HW1 9497   0.737   9.051   9.759  0.0051 -1.0463  0.2860
35365SOL    HW2 9498   0.614   9.133   9.723  2.6422  1.9819 -2.4245
35366SOL     OW 9499   6.380   8.968   1.366  0.5652 -0.2850  0.0862
35366SOL    HW1 9500   6.415   8.895   1.315 -0.2386 -0.9120  0.4017
35366SOL    HW2 9501   6.429   9.044   1.336  0.0474 -0.6151 -1.7110
35367SOL     OW 9502   4.350   2.252   6.188  0.2931  0.1534 -0.1665
35367SOL    HW1 9503   4.261   2.225   6.163  0.6880 -1.0776 -0.2948
35367SOL    HW2 9504   4.374   2.318   6.124 -0.4103  0.2554 -0.3313
35368SOL     OW 9505   3.584   5.771   9.637  0.3457 -0.1283  0.3162
35368SOL    HW1 9506   3.538   5.804   9.560 -1.4611 -0.8087  1.0418
35368SOL    HW2 9507   3.547   5.683   9.650  1.0497 -0.2521  1.5990
35369SOL     OW 9508  10.418   5.714   1.054 -0.3695  0.2547  0.4200
35369SOL    HW1 9509  10.512   5.712   1.070 -0.2319 -0.6760 -0.4341
35369SOL    HW2 9510  10.384   5.636   1.098 -0.4269 -0.5702 -1.0237
35370SOL     OW 9511   9.002   8.383   1.550 -0.4643  0.3304 -0.2085
35370SOL    HW1 9512   8.914   8.347   1.539  0.0080 -1.1443  0.5621
35370SOL    HW2 9513   9.061   8.316   1.515  0.3442  1.6249 -1.4307
35371SOL     OW 9514   0.556   6.039   5.509 -0.6258 -0.0374  0.3119
35371SOL    HW1 9515   0.601   5.996   5.581  2.4378 -0.4482 -1.6790
35371SOL    HW2 9516   0.481   5.981   5.490  0.8348 -2.1402  0.6086
35372SOL     OW 9517   2.881   8.253   8.179  0.0167  0.2966 -0.7120
35372SOL    HW1 9518   2.965   8.295   8.158  0.7064 -1.2085 -1.1608
35372SOL    HW2 9519   2.859   8.203   8.100 -0.9357  0.0804 -0.3239
35373SOL     OW 9520   1.083   6.629   7.083  0.5366  0.2239  0.2836
35373SOL    HW1 9521   1.009   6.571   7.065  0.6433  0.2782 -0.3455
35373SOL    HW2 9522   1.160   6.576   7.064  0.6285  0.9711 -1.6334
35374SOL     OW 9523   4.557  10.743   5.386 -0.1946  0.2771  0.2462
35374SOL    HW1 9524   4.576  10.649   5.394 -0.5458  0.1587 -0.2677
35374SOL    HW2 9525   4.537  10.756   5.294 -2.4797  0.3860  0.6769
35375SOL     OW 9526   9.585   9.196   5.429 -0.3743  0.4091  0.3377
35375SOL    HW1 9527   9.680   9.194   5.420 -0.4595 -0.5517 -0.5024
35375SOL    HW2 9528   9.563   9.112   5.470 -0.8068  0.9715  1.3137
35376SOL     OW 9529   0.416   6.149   1.226 -0.1979  0.3966  0.6155
35376SOL    HW1 9530   0.402   6.073   1.283 -1.8134 -0.4075 -0.7491
35376SOL    HW2 9531   0.363   6.218   1.264 -1.7210 -0.3026 -0.1500
35377SOL     OW 9532   1.718   6.539   4.408  0.0923  0.2367  0.2343
35377SOL    HW1 9533   1.789   6.573   4.461  1.8219 -2.3489 -0.2303
35377SOL    HW2 9534   1.660   6.495   4.471  0.4222 -0.0774  0.3175
35378SOL     OW 9535   7.483   6.572   1.615 -0.4212 -0.1103 -0.0017
35378SOL    HW1 9536   7.430   6.504   1.656  1.2022 -0.2364  2.0505
35378SOL    HW2 9537   7.515   6.532   1.535 -1.3378 -0.9146  0.0107
35379SOL     OW 9538   8.795   3.083   7.083 -0.6480 -0.0011  1.0770
35379SOL    HW1 9539   8.839   3.062   7.001 -0.2737  0.1847  1.2239
35379SOL    HW2 9540   8.867   3.100   7.145 -0.9263  0.7226  1.2167
35380SOL     OW 9541   7.290   6.631   9.803  0.4480  0.3093 -0.4863
35380SOL    HW1 9542   7.274   6.721   9.831  2.2012  0.0906  1.4431
35380SOL    HW2 9543   7.337   6.640   9.720 -0.2498  1.1253 -0.8108
35381SOL     OW 9544   5.849   2.588   8.592  0.0547 -0.1611 -0.3292
35381SOL    HW1 9545   5.763   2.629   8.606  1.6258  2.8981  1.3817
35381SOL    HW2 9546   5.851   2.515   8.653 -2.1955 -2.0307 -2.2527
35382SOL     OW 9547   7.787   2.309   5.491 -0.4287 -0.4499 -0.1405
35382SOL    HW1 9548   7.747   2.390   5.462  0.3854  0.4552  1.1334
35382SOL    HW2 9549   7.881   2.328   5.496 -0.2191 -1.4631  0.1812
35383SOL     OW 9550   6.567   6.392   3.488 -0.1613  0.1805  0.3757
35383SOL    HW1 9551   6.563   6.309   3.441 -0.8441  0.2403  0.3243
35383SOL    HW2 9552   6.654   6.393   3.528  0.4248  0.1143 -0.8569
35384SOL     OW 9553   0.972   3.892   4.517 -0.4379 -0.1390 -0.0951
35384SOL    HW1 9554   1.053   3.852   4.486  0.5261  0.7810  1.1321
35384SOL    HW2 9555   0.913   3.818   4.532 -0.3111 -0.7391 -2.2190
35385SOL     OW 9556   8.992   1.643   7.659  0.3526  0.1075 -0.2844
35385SOL    HW1 9557   8.982   1.635   7.754  1.2566 -0.3132 -0.2113
35385SOL    HW2 9558   9.047   1.568   7.634 -2.1488 -1.4399 -1.5570
35386SOL     OW 9559   2.133   5.688  10.137 -0.3839  0.4174  0.0655
35386SOL    HW1 9560   2.068   5.633  10.094 -0.1106  0.0017  0.1849
35386SOL    HW2 9561   2.140   5.653  10.226  0.1714  0.3121 -0.0143
35387SOL     OW 9562   8.023   0.213   6.234  0.2615  0.9088  0.6383
35387SOL    HW1 9563   8.092   0.149   6.251  0.2199  0.7673  0.2928
35387SOL    HW2 9564   8.043   0.247   6.147 -0.1477  0.8040  0.5000
35388SOL     OW 9565   3.598   6.206  10.275 -0.5442 -0.2851 -0.4421
35388SOL    HW1 9566   3.514   6.224  10.232 -1.1542  0.3706  0.9467
35388SOL    HW2 9567   3.574   6.157  10.354  0.3357  0.2573  0.1805
35389SOL     OW 9568   8.432   2.736   3.376 -0.0572 -0.2498 -0.1141
35389SOL    HW1 9569   8.482   2.670   3.424 -1.9130 -1.9348 -0.3393
35389SOL    HW2 9570   8.396   2.688   3.300 -4.7372 -0.2727  1.7485
35390SOL     OW 9571   9.462   7.052   2.007  0.1107  0.4327 -0.1085
35390SOL    HW1 9572   9.487   7.125   2.064  1.7259 -0.3554  0.2414
35390SOL    HW2 9573   9.456   6.977   2.066 -1.9613  0.3251 -0.3894
35391SOL     OW 9574   1.016   0.447   4.950 -0.1370  0.4008 -0.2477
35391SOL    HW1 9575   1.029   0.418   4.859 -1.4991  1.2807 -0.7596
35391SOL    HW2 9576   0.926   0.479   4.952  0.2205  1.4144  1.1472
35392SOL     OW 9577   4.910   4.369   0.055 -0.1398 -0.4826 -0.6576
35392SOL    HW1 9578   4.919   4.422   0.134 -0.0655 -0.1510 -0.8902
35392SOL    HW2 9579   4.999   4.341   0.034 -0.2304 -1.0920 -0.2697
35393SOL     OW 9580   2.360   6.888   5.341 -0.2715 -0.2017  0.1154
35393SOL    HW1 9581   2.383   6.830   5.268  2.3292  0.4916  0.2823
35393SOL    HW2 9582   2.295   6.947   5.304  0.4422 -0.3354 -1.4680
35394SOL     OW 9583   6.111   9.325   3.932  0.4068  1.0080  0.7171
35394SOL    HW1 9584   6.147   9.383   4.000  2.4485 -0.1603  0.7014
35394SOL    HW2 9585   6.121   9.375   3.851 -0.7238  1.8394  1.0663
35395SOL     OW 9586   3.448   0.448   3.437  0.3340  0.1681 -0.5250
35395SOL    HW1 9587   3.533   0.442   3.393  0.2673 -1.8956 -0.4546
35395SOL    HW2 9588   3.394   0.500   3.378  1.0727 -0.1870 -1.5326
35396SOL     OW 9589   5.130   9.219   8.271  0.2568 -0.1009 -0.5425
35396SOL    HW1 9590   5.089   9.164   8.338  1.9170 -1.2832 -0.4350
35396SOL    HW2 9591   5.120   9.169   8.190 -1.2035  1.0421 -1.1044
35397SOL     OW 9592   9.656   7.795   1.428 -0.0926  0.2494 -0.0869
35397SOL    HW1 9593   9.627   7.704   1.427  0.9637 -0.1149 -1.8458
35397SOL    HW2 9594   9.599   7.837   1.493 -1.8871 -1.2353 -0.5912
35398SOL     OW 9595  10.686   1.898   0.497 -0.1100  0.5820  0.2560
35398SOL    HW1 9596  10.746   1.913   0.569  0.3876 -0.7839  0.1678
35398SOL    HW2 9597  10.741   1.897   0.419 -0.2257 -0.5701  0.1619
35399SOL     OW 9598   9.243   1.645   6.261 -0.7085 -0.1066  0.1585
35399SOL    HW1 9599   9.331   1.622   6.289 -0.9335  0.9372  1.8714
35399SOL    HW2 9600   9.186   1.586   6.310 -0.9840 -1.0074 -1.1898
35400SOL     OW 9601   3.004   1.641   2.461  0.0207 -0.4756  0.2489
35400SOL    HW1 9602   3.027   1.679   2.546 -0.9001 -0.5374  0.5402
35400SOL    HW2 9603   3.043   1.699   2.396 -0.1586  0.1618  0.7057
35401SOL     OW 9604   6.183   7.091   9.397 -0.0093  0.1711  0.1336
35401SOL    HW1 9605   6.204   7.084   9.490 -0.7680  2.3793  0.5304
35401SOL    HW2 9606   6.260   7.133   9.358 -0.2133  0.4402  0.0162
35402SOL     OW 9607  10.750   9.117   3.631  0.1311  0.0170 -0.2043
35402SOL    HW1 9608  10.751   9.053   3.703 -0.7504  1.8560  1.5525
35402SOL    HW2 9609  10.742   9.202   3.675  0.7161  1.3247 -2.4664
35403SOL     OW 9610   6.963   6.527  10.547 -0.2124  0.5037  0.4481
35403SOL    HW1 9611   7.014   6.605  10.524 -3.4611  2.7534  0.1644
35403SOL    HW2 9612   6.951   6.534  10.642  1.4875 -1.1039  0.8470
35404SOL     OW 9613   1.442   1.365   6.102 -0.1769 -0.2719 -0.6370
35404SOL    HW1 9614   1.362   1.405   6.137  0.4791  0.4848  0.0136
35404SOL    HW2 9615   1.421   1.348   6.010 -1.5871 -1.4205 -0.1368
35405SOL     OW 9616   9.567  10.042   2.809 -0.1181 -0.1598 -0.2897
35405SOL    HW1 9617   9.603  10.130   2.819 -0.3993 -0.1013  0.2852
35405SOL    HW2 9618   9.641   9.987   2.783  0.2559  0.0673  0.2912
35406SOL     OW 9619   6.629   8.260   4.887  0.1221 -0.1203  0.3564
35406SOL    HW1 9620   6.626   8.307   4.970  0.2869  0.5382 -0.0070
35406SOL    HW2 9621   6.714   8.283   4.849  1.8606 -3.4731  1.7711
35407SOL     OW 9622   2.092   6.414   5.741 -0.3295  0.0445  0.5877
35407SOL    HW1 9623   2.062   6.494   5.699 -0.0608  1.1957  2.4792
35407SOL    HW2 9624   2.166   6.385   5.688 -1.0318  0.4806 -0.6767
35408SOL     OW 9625   5.320   9.582   6.213  0.0606  0.6267  0.1824
35408SOL    HW1 9626   5.342   9.673   6.231  1.0875  0.3500  0.3644
35408SOL    HW2 9627   5.373   9.559   6.136  1.9474 -0.6083  1.7637
35409SOL     OW 9628   5.636   2.931   8.378  0.0142  0.2327 -0.0427
35409SOL    HW1 9629   5.628   2.884   8.462  0.1869  0.3008  0.0116
35409SOL    HW2 9630   5.648   3.023   8.403  0.2556  0.2279 -0.1388
35410SOL     OW 9631   7.167   2.580   6.334 -0.2248  0.0354 -0.4858
35410SOL    HW1 9632   7.194   2.490   6.353 -1.0119 -0.4115 -1.4409
35410SOL    HW2 9633   7.241   2.617   6.286  1.4229  0.9065  2.4229
35411SOL     OW 9634   5.149   9.679   9.659 -0.4618 -0.6704 -0.3935
35411SOL    HW1 9635   5.172   9.714   9.745  0.1761  0.1204 -0.8836
35411SOL    HW2 9636   5.213   9.716   9.599 -2.6940  1.2747 -1.7444
35412SOL     OW 9637   4.870   1.916   8.195  0.3504 -0.1894 -0.7698
35412SOL    HW1 9638   4.888   1.823   8.210 -0.4921 -0.6311 -2.2496
35412SOL    HW2 9639   4.870   1.924   8.100  1.4303  1.5552 -0.6503
35413SOL     OW 9640   5.214   3.990   3.410  0.1791 -0.0801 -0.3417
35413SOL    HW1 9641   5.260   3.995   3.494 -0.4545  1.7700 -0.0567
35413SOL    HW2 9642   5.283   3.970   3.346  0.8496 -0.3711  0.4591
35414SOL     OW 9643   2.525   1.745   8.296 -0.3907  0.1936 -0.1328
35414SOL    HW1 9644   2.595   1.689   8.262 -0.4703  0.1675 -0.2536
35414SOL    HW2 9645   2.460   1.748   8.226 -0.6348 -0.0006  0.0823
35415SOL     OW 9646   0.314   0.302   2.454 -0.4020  0.7465 -0.0869
35415SOL    HW1 9647   0.352   0.215   2.465 -0.5665  0.6546 -0.2469
35415SOL    HW2 9648   0.220   0.289   2.462 -0.3564  1.1599  1.5519
35416SOL     OW 9649   8.033   1.561   5.974  0.0742  0.4621  0.4121
35416SOL    HW1 9650   8.033   1.501   5.900  1.2942  0.9777 -0.0302
35416SOL    HW2 9651   8.055   1.507   6.050 -1.4113 -0.1126  0.4735
35417SOL     OW 9652   2.670   1.885   0.360 -0.2943 -0.3996  0.3625
35417SOL    HW1 9653   2.584   1.884   0.402  0.3017 -2.8233  1.7043
35417SOL    HW2 9654   2.676   1.800   0.315  0.7688  0.4115 -1.1395
35418SOL     OW 9655   4.074   9.527   7.185  0.3587  0.9848  0.5434
35418SOL    HW1 9656   4.149   9.481   7.222 -0.8922 -1.0683  0.6602
35418SOL    HW2 9657   4.010   9.531   7.256 -0.4989  0.6546 -0.1830
35419SOL     OW 9658   3.122   1.601   4.808  0.1925 -0.6498 -0.4184
35419SOL    HW1 9659   3.173   1.667   4.761  0.7054 -0.4351  0.4176
35419SOL    HW2 9660   3.165   1.518   4.789  1.2321 -0.4008  0.7589
35420SOL     OW 9661   3.477   9.040   7.469 -0.0668  0.4914 -0.3952
35420SOL    HW1 9662   3.405   8.985   7.501  1.5928 -1.3390  0.3839
35420SOL    HW2 9663   3.467   9.123   7.516 -1.9644  0.5118 -0.7399
35421SOL     OW 9664   9.706   2.300   7.718  0.1607  0.5065  0.2763
35421SOL    HW1 9665   9.773   2.236   7.696 -0.3939  0.2779 -0.8224
35421SOL    HW2 9666   9.691   2.348   7.636 -0.9822  0.5752  0.5137
35422SOL     OW 9667   5.728   4.503  10.409  0.4077  0.0511 -0.3057
35422SOL    HW1 9668   5.746   4.417  10.369 -3.2298 -0.3990 -1.3127
35422SOL    HW2 9669   5.678   4.483  10.488 -0.3423  1.2318 -0.4658
35423SOL     OW 9670   6.334   1.768   9.556  0.0069  0.4458  0.3450
35423SOL    HW1 9671   6.272   1.696   9.558  2.1663 -1.5355  0.2706
35423SOL    HW2 9672   6.339   1.798   9.647 -0.1228 -0.2200  0.5726
35424SOL     OW 9673   7.462   2.717   8.829  0.2311  0.0748  0.0389
35424SOL    HW1 9674   7.403   2.667   8.885  0.0780 -1.9407 -1.7761
35424SOL    HW2 9675   7.526   2.755   8.889 -0.7917 -0.7264  1.7008
35425SOL     OW 9676   3.964   1.414   4.218 -0.2455  0.2453 -0.0353
35425SOL    HW1 9677   3.996   1.388   4.131  1.5727  1.9007  0.0538
35425SOL    HW2 9678   3.966   1.333   4.269  0.6572 -0.3724 -0.9907
35426SOL     OW 9679   3.381   7.097   5.127  0.0964 -0.1184  0.0766
35426SOL    HW1 9680   3.337   7.028   5.178 -0.0520 -0.3388 -0.3451
35426SOL    HW2 9681   3.390   7.170   5.188  1.8665 -1.1264  1.0862
35427SOL     OW 9682   4.106   2.776   4.782 -0.1966 -0.1708 -0.1724
35427SOL    HW1 9683   4.167   2.769   4.855  0.5821  0.2747 -0.7607
35427SOL    HW2 9684   4.135   2.708   4.721  0.2162  0.5412 -0.7963
35428SOL     OW 9685   6.555   6.349   4.316  0.1658 -0.0812  0.2079
35428SOL    HW1 9686   6.517   6.400   4.244  0.2028  2.1499  1.6861
35428SOL    HW2 9687   6.648   6.344   4.295 -0.1292 -1.3337 -0.9480
35429SOL     OW 9688   1.593   1.614   6.568  0.4783 -0.1448  0.2617
35429SOL    HW1 9689   1.584   1.650   6.480 -0.4149 -0.2330  0.3092
35429SOL    HW2 9690   1.652   1.675   6.613  0.8370 -0.0322 -0.3563
35430SOL     OW 9691   1.287   7.097   1.715 -0.0096  0.1552  0.4827
35430SOL    HW1 9692   1.351   7.050   1.660  0.1922  0.2706  0.6166
35430SOL    HW2 9693   1.231   7.028   1.750 -0.4322  0.1255 -0.2382
35431SOL     OW 9694   7.383  10.752   3.323 -0.4052 -0.1276  0.5541
35431SOL    HW1 9695   7.426  10.723   3.243 -1.2491  0.4159 -0.1172
35431SOL    HW2 9696   7.430  10.707   3.393  0.7861 -0.0933 -0.1910
35432SOL     OW 9697   7.748   4.465   7.360 -0.2773  0.1689 -0.1101
35432SOL    HW1 9698   7.721   4.376   7.338  0.8638 -0.1235 -0.4053
35432SOL    HW2 9699   7.697   4.521   7.301  0.1285 -0.3981 -1.0233
35433SOL     OW 9700  10.242   0.255   4.212  0.4392  0.4391 -0.0143
35433SOL    HW1 9701  10.307   0.316   4.246 -0.1447  0.3814  1.2899
35433SOL    HW2 9702  10.292   0.194   4.157  1.6331 -0.0560  1.5333
35434SOL     OW 9703   6.930   7.407   0.108  0.0120 -0.3761 -0.6254
35434SOL    HW1 9704   6.912   7.334   0.168  2.2036  0.7471  1.5889
35434SOL    HW2 9705   6.959   7.366   0.027 -2.1348 -1.9400 -0.7004
35435SOL     OW 9706   0.734   2.532   4.255 -0.5325 -0.1165 -0.0184
35435SOL    HW1 9707   0.755   2.620   4.284 -0.0089 -0.2458  0.0075
35435SOL    HW2 9708   0.647   2.539   4.216  0.5159  0.9230 -2.3029
35436SOL     OW 9709   9.087   5.456   1.508  0.0654 -0.0859  0.5074
35436SOL    HW1 9710   9.007   5.480   1.462  0.3024  1.0932  0.6908
35436SOL    HW2 9711   9.056   5.405   1.583 -0.4419 -0.4339  0.0747
35437SOL     OW 9712   2.856   4.454   9.711  0.6216  0.4669 -0.3362
35437SOL    HW1 9713   2.901   4.373   9.690  1.3220  0.6680  0.3002
35437SOL    HW2 9714   2.903   4.487   9.788 -0.4060  0.8695  0.1315
35438SOL     OW 9715   8.805   9.093  10.635  0.3760  0.2815  0.4326
35438SOL    HW1 9716   8.737   9.117  10.698  0.3457  0.9662  0.1391
35438SOL    HW2 9717   8.861   9.030  10.683  0.5340  1.0270  1.2477
35439SOL     OW 9718   6.180   3.661   4.534 -0.1432 -0.4323  0.1870
35439SOL    HW1 9719   6.215   3.593   4.477 -1.4158 -1.1921  0.2594
35439SOL    HW2 9720   6.085   3.655   4.523 -0.3130  0.9499  0.6469
35440SOL     OW 9721   5.986   1.393   2.563 -0.3165 -0.0587 -0.3906
35440SOL    HW1 9722   6.010   1.300   2.564  1.9488  0.4576 -0.6325
35440SOL    HW2 9723   5.916   1.400   2.627 -0.9632 -2.0328 -0.8027
35441SOL     OW 9724   7.180   1.295   9.646 -0.2095 -0.1374 -0.3258
35441SOL    HW1 9725   7.146   1.220   9.598  1.2486 -1.2733  0.3306
35441SOL    HW2 9726   7.261   1.317   9.600 -0.4166  0.7888 -0.2648
35442SOL     OW 9727   3.484   2.520   1.445 -0.3895 -0.0629 -0.0902
35442SOL    HW1 9728   3.499   2.607   1.406  0.3718  0.3793  1.1462
35442SOL    HW2 9729   3.389   2.517   1.460 -0.2849  1.0556  0.9572
35443SOL     OW 9730   6.311   2.462   6.788 -0.7298  0.1179 -0.0661
35443SOL    HW1 9731   6.232   2.509   6.759 -0.2593  0.5585 -0.6664
35443SOL    HW2 9732   6.340   2.415   6.709  0.7855  1.6196 -0.4391
35444SOL     OW 9733   7.074   1.070   5.516  0.1367  0.3514  0.4866
35444SOL    HW1 9734   7.022   0.992   5.501 -0.3378  0.5235  1.1790
35444SOL    HW2 9735   7.026   1.140   5.473  0.5533  0.2713 -0.1209
35445SOL     OW 9736   3.448   2.092   0.207 -0.0372  0.0927  0.3307
35445SOL    HW1 9737   3.503   2.023   0.244  1.0062  1.5442  1.5912
35445SOL    HW2 9738   3.500   2.127   0.134  0.0242  0.3806  0.5075
35446SOL     OW 9739   2.232   2.365   7.793  0.2436  0.0438  0.3346
35446SOL    HW1 9740   2.310   2.323   7.758  0.6726  1.4340 -0.4407
35446SOL    HW2 9741   2.241   2.457   7.769 -0.1120  0.8380  2.9028
35447SOL     OW 9742  10.461   0.169   6.874  0.5358  0.6643  0.0285
35447SOL    HW1 9743  10.459   0.151   6.780  3.4454 -0.1779  0.0145
35447SOL    HW2 9744  10.447   0.084   6.915 -0.9765  1.0704  0.3986
35448SOL     OW 9745  10.143   4.349  10.624  0.0192  0.0816  0.1866
35448SOL    HW1 9746  10.225   4.393  10.602  0.0856 -0.0004  0.2718
35448SOL    HW2 9747  10.085   4.420  10.653  0.0061  0.1595 -0.0338
35449SOL     OW 9748   9.406   6.607   3.417  0.0601  0.1832  0.2139
35449SOL    HW1 9749   9.448   6.566   3.341 -1.7931 -2.8486  0.6365
35449SOL    HW2 9750   9.314   6.618   3.390 -0.1997  0.8996  1.3437
35450SOL     OW 9751   9.875  10.253  10.810  0.0314  0.3573  0.3542
35450SOL    HW1 9752   9.905  10.171  10.849  0.8058  0.3530 -0.2213
35450SOL    HW2 9753   9.878  10.237  10.716  0.5320  1.1638  0.2267
35451SOL     OW 9754  10.388   7.181   9.981 -0.3626 -0.0575 -0.2298
35451SOL    HW1 9755  10.461   7.236   9.952 -1.6131  2.5046  1.0602
35451SOL    HW2 9756  10.429   7.110  10.030  1.3431 -0.1251 -1.6648
35452SOL     OW 9757   9.446   8.953   0.815 -0.1101 -0.8001  0.2211
35452SOL    HW1 9758   9.523   8.971   0.762 -1.3016 -0.8801 -1.6372
35452SOL    HW2 9759   9.456   9.010   0.891  1.4492 -0.3303 -0.2920
35453SOL     OW 9760  10.130   1.619   4.039 -0.1823  0.1828 -0.7093
35453SOL    HW1 9761  10.215   1.646   4.004  0.0318 -1.3771 -1.4424
35453SOL    HW2 9762  10.146   1.608   4.133  0.4351 -0.1346 -0.8450
35454SOL     OW 9763   8.012   6.174  10.504 -0.3549 -0.4422  0.1461
35454SOL    HW1 9764   8.063   6.128  10.438 -0.7308 -0.8392  0.1277
35454SOL    HW2 9765   8.013   6.115  10.580 -1.4011 -0.7978 -0.1006
35455SOL     OW 9766   6.439  10.637   0.177  0.4066 -0.1228 -0.5926
35455SOL    HW1 9767   6.428  10.673   0.265 -1.8022  0.0035 -0.8585
35455SOL    HW2 9768   6.406  10.547   0.184 -0.6363  0.1638 -1.4339
35456SOL     OW 9769   9.337   4.615   4.448 -0.3125  0.2295  0.4936
35456SOL    HW1 9770   9.301   4.627   4.536  0.7283 -0.8294  1.0864
35456SOL    HW2 9771   9.262   4.629   4.390 -0.9605  1.1729  1.5296
35457SOL     OW 9772   7.707   4.362   4.712  0.0165  0.6697 -0.0976
35457SOL    HW1 9773   7.789   4.314   4.700  0.1329  1.2175 -1.8400
35457SOL    HW2 9774   7.640   4.294   4.721  0.3337  0.1794 -1.2877
35458SOL     OW 9775   3.504   3.721   7.013 -0.3333  0.2086  0.1002
35458SOL    HW1 9776   3.446   3.676   6.951 -1.1687  2.3612 -0.7629
35458SOL    HW2 9777   3.581   3.664   7.019 -1.4094 -1.4247 -0.7473
35459SOL     OW 9778   0.346   3.768   7.368  0.6013 -0.4278 -0.4020
35459SOL    HW1 9779   0.252   3.758   7.382  0.6336  0.3227  0.4090
35459SOL    HW2 9780   0.375   3.680   7.344 -0.6763 -0.1954 -3.1503
35460SOL     OW 9781   1.025  10.595   8.315  0.3498  0.4463  0.1953
35460SOL    HW1 9782   0.976  10.528   8.362  0.5724  0.4793  0.4770
35460SOL    HW2 9783   0.958  10.652   8.278  0.1755  1.0002  1.3171
35461SOL     OW 9784   9.266   2.205   8.804 -0.1105 -0.1396  0.5055
35461SOL    HW1 9785   9.260   2.271   8.735 -0.3954 -0.2390  0.4353
35461SOL    HW2 9786   9.277   2.256   8.885  2.6124 -0.0338  0.1774
35462SOL     OW 9787   4.479   5.304   0.542 -0.1645  0.3572  0.4678
35462SOL    HW1 9788   4.397   5.260   0.564 -0.3788  0.8011  0.5551
35462SOL    HW2 9789   4.543   5.266   0.602  0.1995 -1.6472 -1.0691
35463SOL     OW 9790   3.789   9.087   5.442 -0.3006 -0.0586  0.3779
35463SOL    HW1 9791   3.819   9.060   5.355 -3.5331 -0.6635 -0.7039
35463SOL    HW2 9792   3.770   9.004   5.487 -1.0762  0.2601  0.6639
35464SOL     OW 9793   7.105   6.701   9.009 -0.2227  0.4559 -0.5106
35464SOL    HW1 9794   7.151   6.650   8.941  1.3767  0.6811  0.3619
35464SOL    HW2 9795   7.060   6.635   9.062 -0.2336  0.1568 -0.8869
35465SOL     OW 9796   4.843   0.961   9.042  0.3879 -0.1443  0.1527
35465SOL    HW1 9797   4.848   0.868   9.064 -0.1084 -0.2053  0.0171
35465SOL    HW2 9798   4.755   0.972   9.005  0.8557  0.1385 -0.9338
35466SOL     OW 9799   1.574   2.724   1.773  0.0865 -0.4275  0.0396
35466SOL    HW1 9800   1.642   2.674   1.728 -0.2346 -1.6157  0.8150
35466SOL    HW2 9801   1.513   2.749   1.704  1.2142  0.5378 -0.6428
35467SOL     OW 9802   8.946   9.000   9.447  0.1174  0.1789  0.2375
35467SOL    HW1 9803   8.853   8.977   9.447  0.0810  0.1050 -1.7750
35467SOL    HW2 9804   8.961   9.039   9.533 -1.8481  0.5077  0.4900
35468SOL     OW 9805   4.371   1.473   6.268 -0.5948  0.0146  0.0734
35468SOL    HW1 9806   4.361   1.391   6.218 -1.0795  0.3771 -0.4373
35468SOL    HW2 9807   4.431   1.450   6.339 -2.2456 -1.2999  1.1166
35469SOL     OW 9808   4.933   1.990   7.052 -0.1588  0.0717 -0.0420
35469SOL    HW1 9809   4.988   1.949   6.985 -0.2796 -0.0099 -0.0923
35469SOL    HW2 9810   4.989   1.995   7.129  0.0586  0.3801 -0.2177
35470SOL     OW 9811   9.232   6.307   4.773  0.1695  0.1095 -0.0071
35470SOL    HW1 9812   9.167   6.252   4.815 -0.8793  1.3313  0.0387
35470SOL    HW2 9813   9.286   6.246   4.722 -0.7574 -0.9751  0.2647
35471SOL     OW 9814   6.621  10.698   4.973 -0.0365 -0.1404 -0.0495
35471SOL    HW1 9815   6.542  10.655   5.003 -1.1176  1.4895 -0.4351
35471SOL    HW2 9816   6.653  10.643   4.901 -1.5958 -0.1186 -0.7987
35472SOL     OW 9817   0.070   6.476   7.657  0.7533  0.3569  0.1835
35472SOL    HW1 9818   0.027   6.533   7.593  0.6528 -0.0908 -0.1467
35472SOL    HW2 9819   0.066   6.389   7.619  0.3682  0.0204  0.9646
35473SOL     OW 9820   6.169   0.126   7.881 -0.5959  0.1589  0.2575
35473SOL    HW1 9821   6.241   0.075   7.917 -1.3926 -1.5688 -0.4607
35473SOL    HW2 9822   6.121   0.157   7.958  0.8923  1.3508  0.7360
35474SOL     OW 9823  10.266   8.387   6.175  0.1894 -0.1375  0.3175
35474SOL    HW1 9824  10.350   8.350   6.149  0.6937  0.6742  0.7684
35474SOL    HW2 9825  10.280   8.420   6.264 -1.0197 -1.3118  0.9894
35475SOL     OW 9826   2.815   2.067   7.410 -0.1932 -0.6406 -0.1991
35475SOL    HW1 9827   2.894   2.092   7.361 -0.4276 -0.7054 -0.6188
35475SOL    HW2 9828   2.767   2.149   7.421  0.0644 -0.5533  0.3035
35476SOL     OW 9829   6.808   2.238   2.609 -0.4666 -0.3606 -0.2046
35476SOL    HW1 9830   6.749   2.220   2.537  0.4457  0.9737 -1.3434
35476SOL    HW2 9831   6.824   2.332   2.605  2.2238 -0.7298 -0.3831
35477SOL     OW 9832   8.822   8.954   2.623 -0.3265 -0.4439 -0.5693
35477SOL    HW1 9833   8.802   8.871   2.667 -1.5057 -0.0703 -0.3478
35477SOL    HW2 9834   8.881   9.000   2.683  0.7509 -1.3149 -0.9235
35478SOL     OW 9835   6.939   8.650   2.627 -0.0628  0.1452  0.0554
35478SOL    HW1 9836   6.914   8.601   2.549 -1.5143 -0.0001  0.5800
35478SOL    HW2 9837   6.999   8.593   2.673  1.3208  0.4950 -1.2514
35479SOL     OW 9838   5.587   2.271   5.621  0.0890 -1.1525 -0.4335
35479SOL    HW1 9839   5.631   2.231   5.546 -1.1568 -0.3173 -1.6614
35479SOL    HW2 9840   5.606   2.212   5.694  1.1617 -2.1072 -1.4310
35480SOL     OW 9841   8.251   0.724   6.295 -0.6698 -0.4592 -0.2518
35480SOL    HW1 9842   8.325   0.755   6.244 -0.7926  0.9811  0.3965
35480SOL    HW2 9843   8.289   0.693   6.378 -0.7969  0.5205  0.1847
35481SOL     OW 9844   2.930   1.019   8.817  0.4649  0.0837  0.0466
35481SOL    HW1 9845   2.847   1.046   8.777  1.1950  0.9291 -0.9703
35481SOL    HW2 9846   2.979   0.978   8.746  0.6053 -1.1597  0.8421
35482SOL     OW 9847   3.185   8.428  10.733 -0.1161 -0.3739  0.2079
35482SOL    HW1 9848   3.184   8.332  10.734  0.5218 -0.4057 -0.7212
35482SOL    HW2 9849   3.250   8.451  10.667 -2.2801  0.6917 -1.6940
35483SOL     OW 9850   3.276   6.950   7.634  0.4916  0.5480 -0.5095
35483SOL    HW1 9851   3.347   7.006   7.603  0.8967 -0.3457 -1.2427
35483SOL    HW2 9852   3.230   6.923   7.555 -1.6261  2.2596 -0.0001
35484SOL     OW 9853   6.356   3.626   7.944 -0.7344 -0.3782  0.8907
35484SOL    HW1 9854   6.428   3.677   7.981 -1.7366  1.2701  0.6523
35484SOL    HW2 9855   6.281   3.684   7.947 -1.8577 -1.7303  0.2568
35485SOL     OW 9856   3.785   4.959   0.258 -0.0955  0.5793  0.2172
35485SOL    HW1 9857   3.762   4.910   0.178 -2.7872 -0.6530  1.6049
35485SOL    HW2 9858   3.786   4.893   0.327  0.4127  1.8836  1.5004
35486SOL     OW 9859   2.774   2.164   0.710  0.0116  0.5584  0.0389
35486SOL    HW1 9860   2.728   2.247   0.698  0.8936  1.0869  0.3138
35486SOL    HW2 9861   2.812   2.145   0.624 -0.3109  0.3582 -0.0626
35487SOL     OW 9862   5.937   6.055   1.354  0.3014 -0.2782 -0.3403
35487SOL    HW1 9863   5.867   6.019   1.408  0.4763  0.6253  0.5366
35487SOL    HW2 9864   6.009   5.992   1.362  1.1646  0.8777  2.4170
35488SOL     OW 9865   2.136   2.103   6.572 -0.0092 -0.1127 -0.0437
35488SOL    HW1 9866   2.154   2.023   6.620  0.4027 -0.9725 -1.5820
35488SOL    HW2 9867   2.213   2.158   6.585 -0.4153  0.1968  1.2542
35489SOL     OW 9868   3.856   9.344   5.826  0.7851 -0.0098 -0.3453
35489SOL    HW1 9869   3.820   9.334   5.738  1.3652 -0.4491 -0.5402
35489SOL    HW2 9870   3.900   9.429   5.825  0.5346  0.1199 -0.3856
35490SOL     OW 9871   9.825   0.339   9.450 -0.0491  0.1896  0.1357
35490SOL    HW1 9872   9.838   0.340   9.544  0.2815  0.4235  0.0861
35490SOL    HW2 9873   9.750   0.280   9.437 -0.3900  0.5157  0.5781
35491SOL     OW 9874   7.590   1.126   0.737 -0.1076 -0.1314  0.1465
35491SOL    HW1 9875   7.612   1.158   0.824 -1.4166  0.2464  0.3492
35491SOL    HW2 9876   7.581   1.205   0.683  1.4062 -0.3856 -0.5310
35492SOL     OW 9877   9.093   8.355   8.379 -0.3138  0.2201  0.4559
35492SOL    HW1 9878   9.039   8.362   8.457 -3.1948 -0.2106 -1.3807
35492SOL    HW2 9879   9.083   8.439   8.335  1.7882  0.6899  0.7590
35493SOL     OW 9880   0.441   7.238   8.820  0.3215 -0.1281  0.0822
35493SOL    HW1 9881   0.355   7.203   8.845 -0.0351  0.6886  0.0308
35493SOL    HW2 9882   0.463   7.298   8.891  1.1224 -0.7589  0.3827
35494SOL     OW 9883   9.831   8.046   5.654  0.0183 -0.7114  0.0239
35494SOL    HW1 9884   9.763   8.032   5.721 -0.2134  1.3374  0.2650
35494SOL    HW2 9885   9.821   8.137   5.629  1.2968 -0.9701 -1.5304
35495SOL     OW 9886  10.900   1.709   4.366  0.1581  0.2353 -0.0637
35495SOL    HW1 9887  10.927   1.619   4.386  2.2847  0.4685 -1.6249
35495SOL    HW2 9888  10.868   1.705   4.276 -2.0286  0.6372  0.6464
35496SOL     OW 9889   9.171   5.489   9.908  0.0083 -0.1930 -0.4194
35496SOL    HW1 9890   9.128   5.561   9.954 -1.7196 -0.5890 -1.3283
35496SOL    HW2 9891   9.129   5.487   9.822 -1.5473 -3.5414  0.2334
35497SOL     OW 9892   3.678   4.703   1.122 -0.0520  0.0735  0.4185
35497SOL    HW1 9893   3.761   4.731   1.082 -0.4803 -0.2919 -0.7852
35497SOL    HW2 9894   3.619   4.778   1.109 -0.3176 -0.2088 -0.0404
35498SOL     OW 9895   8.053   6.872   8.674 -0.0697  0.4538  0.7694
35498SOL    HW1 9896   8.016   6.871   8.586 -0.3044 -0.4725  0.8687
35498SOL    HW2 9897   8.116   6.944   8.673  1.0854 -0.5283 -0.6400
35499SOL     OW 9898   2.232   9.193   3.093 -0.4376  0.0595 -0.4398
35499SOL    HW1 9899   2.140   9.178   3.071 -0.2264 -0.7220 -0.8632
35499SOL    HW2 9900   2.234   9.197   3.188 -0.9336  0.2426 -0.4340
35500SOL     OW 9901   6.603   6.543   4.844 -0.1129 -0.2044 -0.3672
35500SOL    HW1 9902   6.632   6.484   4.914  0.8824 -1.3399 -1.7008
35500SOL    HW2 9903   6.576   6.485   4.773 -0.1558  0.9359 -1.3019
35501SOL     OW 9904   4.788   2.406   5.513 -0.7153  0.1755 -0.0323
35501SOL    HW1 9905   4.834   2.381   5.593 -0.1821  1.5221  0.1059
35501SOL    HW2 9906   4.857   2.442   5.457 -1.5153  1.9083  0.0447
35502SOL     OW 9907   0.849   8.881   4.211 -0.2403 -0.0920  0.1466
35502SOL    HW1 9908   0.838   8.976   4.200  0.1554 -0.0740 -0.0975
35502SOL    HW2 9909   0.799   8.843   4.139 -1.0073 -0.0963  0.6656
35503SOL     OW 9910   4.196   5.048   5.506 -0.5309 -0.6307 -0.3382
35503SOL    HW1 9911   4.136   5.053   5.580  0.5389  2.0205  0.4545
35503SOL    HW2 9912   4.275   5.007   5.542  0.3717  1.5876  0.3623
35504SOL     OW 9913   7.675   0.233   9.649  0.2529  0.1470  0.8246
35504SOL    HW1 9914   7.630   0.150   9.666  0.0234  0.0953  0.0303
35504SOL    HW2 9915   7.766   0.208   9.632 -0.4003 -0.3573 -2.5951
35505SOL     OW 9916   4.358   3.511   7.582 -0.2202 -0.6744  0.1380
35505SOL    HW1 9917   4.365   3.541   7.491  0.2214  1.4735  0.8096
35505SOL    HW2 9918   4.448   3.512   7.615 -0.4823 -0.3704  0.8797
35506SOL     OW 9919   0.894   9.468   7.938  0.1490  0.2674  0.2467
35506SOL    HW1 9920   0.847   9.423   8.008  0.0641 -0.0135  0.0137
35506SOL    HW2 9921   0.843   9.448   7.859  1.5636 -1.4696 -0.3065
35507SOL     OW 9922   8.707   9.113   1.849 -0.0545  0.0827 -0.2420
35507SOL    HW1 9923   8.720   9.101   1.943 -0.3524 -0.9692 -0.3195
35507SOL    HW2 9924   8.790   9.085   1.810 -0.5933 -1.3610 -0.3980
35508SOL     OW 9925   8.149   4.816  10.748  0.0999 -0.3855 -0.2341
35508SOL    HW1 9926   8.133   4.878  10.819  1.3038 -0.0607 -0.2227
35508SOL    HW2 9927   8.244   4.812  10.740  0.0068 -0.9971 -1.3253
35509SOL     OW 9928   4.495   1.001   7.904  0.1777 -0.0814 -0.2656
35509SOL    HW1 9929   4.484   0.958   7.819  0.9951 -1.5346  0.3252
35509SOL    HW2 9930   4.552   1.076   7.886 -0.9180  0.5476 -1.2482
35510SOL     OW 9931   6.495   2.124   4.428 -0.8925 -0.1177 -0.2552
35510SOL    HW1 9932   6.516   2.204   4.379  0.5546 -0.4617 -0.2387
35510SOL    HW2 9933   6.561   2.061   4.400 -0.0116 -0.3419  2.1123
35511SOL     OW 9934   3.821   7.323   0.367  0.4609  0.1112  0.8386
35511SOL    HW1 9935   3.894   7.384   0.353  0.2134 -0.1363 -2.0414
35511SOL    HW2 9936   3.786   7.307   0.279 -0.7610 -2.6398  1.7327
35512SOL     OW 9937  10.826   4.834  10.399  0.0400 -0.4167  0.6695
35512SOL    HW1 9938  10.852   4.867  10.485  0.1123 -0.5685  0.7067
35512SOL    HW2 9939  10.805   4.912  10.348  1.7763 -0.1895  0.2304
35513SOL     OW 9940   8.553   5.253   8.662 -0.6872  0.0702  0.4957
35513SOL    HW1 9941   8.609   5.188   8.705  0.9639  0.7526 -0.5590
35513SOL    HW2 9942   8.467   5.212   8.660 -0.0957 -1.3153  1.5050
35514SOL     OW 9943   5.257  10.273   4.403  0.5670 -0.8446 -0.1253
35514SOL    HW1 9944   5.274  10.276   4.309 -2.1101 -0.3368 -0.6817
35514SOL    HW2 9945   5.166  10.243   4.409 -0.5940  2.5583  2.0939
35515SOL     OW 9946   3.422   2.246   9.000  0.2503  0.6109 -0.2039
35515SOL    HW1 9947   3.354   2.218   8.938 -0.3891 -0.4784  0.9590
35515SOL    HW2 9948   3.497   2.268   8.944 -0.4453  0.0674 -1.3945
35516SOL     OW 9949   4.299   6.084   9.220  0.0129  0.0944  0.1255
35516SOL    HW1 9950   4.279   6.129   9.138 -1.5943  2.5849  1.7457
35516SOL    HW2 9951   4.354   6.145   9.268 -0.0600 -0.8005  1.4023
35517SOL     OW 9952  10.121   1.963   0.660  0.5626  0.4702 -0.5581
35517SOL    HW1 9953  10.159   1.894   0.715 -0.4534  1.6018  1.6891
35517SOL    HW2 9954  10.042   1.924   0.623  2.1220 -0.8618 -2.7324
35518SOL     OW 9955   0.824   8.572   7.002  0.5943  0.2257  0.2559
35518SOL    HW1 9956   0.799   8.629   6.929  1.1503 -1.6455 -1.4754
35518SOL    HW2 9957   0.918   8.559   6.991  0.3774 -1.4591  0.2724
35519SOL     OW 9958   5.435  10.633   5.896  0.1124  0.8770  0.4847
35519SOL    HW1 9959   5.354  10.682   5.886 -0.4206 -0.2857 -1.3081
35519SOL    HW2 9960   5.437  10.574   5.821  0.7394 -1.8553  2.4854
35520SOL     OW 9961   4.853   9.565   2.090  0.5205 -0.7751  0.0931
35520SOL    HW1 9962   4.908   9.552   2.013  1.1086 -0.0543  0.3811
35520SOL    HW2 9963   4.890   9.505   2.156  1.7125  0.5262  0.6525
35521SOL     OW 9964   9.115   9.430   4.535  0.0328 -0.2919 -0.2058
35521SOL    HW1 9965   9.132   9.372   4.609  2.0825  0.9629  0.3835
35521SOL    HW2 9966   9.093   9.370   4.463  2.5823 -1.9210  0.2339
35522SOL     OW 9967   0.716   6.567   6.896  0.4641 -0.1389 -0.5156
35522SOL    HW1 9968   0.686   6.498   6.955  0.6676  1.2413  1.2915
35522SOL    HW2 9969   0.783   6.525   6.843  1.7448 -0.9673  1.6343
35523SOL     OW 9970   1.113   4.817   9.344  0.5808  0.9868 -0.3648
35523SOL    HW1 9971   1.068   4.898   9.323 -0.3258  0.2265 -1.4686
35523SOL    HW2 9972   1.199   4.845   9.376  0.1511  2.3775 -0.3655
35524SOL     OW 9973   3.711   0.456   1.878 -0.3844 -0.4265 -0.0463
35524SOL    HW1 9974   3.628   0.502   1.890  0.2652  0.5275  1.1540
35524SOL    HW2 9975   3.703   0.377   1.931 -0.6369 -0.4868 -0.1748
35525SOL     OW 9976   1.622   7.816   7.413 -0.0334 -1.3798 -0.0514
35525SOL    HW1 9977   1.714   7.806   7.438 -0.3712 -1.9483  1.0083
35525SOL    HW2 9978   1.582   7.731   7.432 -1.2873 -0.4659  1.7738
35526SOL     OW 9979   8.419   1.840   7.243 -0.1812  0.2641  0.1192
35526SOL    HW1 9980   8.464   1.856   7.326 -1.0503 -0.2322  0.7026
35526SOL    HW2 9981   8.360   1.767   7.262  0.5511 -0.7209 -1.3016
35527SOL     OW 9982  10.895   3.680   0.079 -0.1668 -0.4308 -0.1553
35527SOL    HW1 9983  10.950   3.612   0.118 -0.5022  0.1537  1.3887
35527SOL    HW2 9984  10.808   3.666   0.116 -0.5675 -0.0112 -0.9067
35528SOL     OW 9985   0.816   7.828   8.096 -0.1555 -0.2926 -0.4150
35528SOL    HW1 9986   0.792   7.748   8.143 -2.6125  0.4953 -0.1907
35528SOL    HW2 9987   0.742   7.846   8.039 -0.0803  2.2723  0.1393
35529SOL     OW 9988   6.877  10.426   8.036  0.2738 -0.3736 -0.1148
35529SOL    HW1 9989   6.872  10.343   7.988  0.2380 -0.4190 -0.0325
35529SOL    HW2 9990   6.817  10.416   8.109 -0.4892  0.0950 -0.6555
35530SOL     OW 9991   8.172   2.703   9.906  0.1156  0.5055 -0.2950
35530SOL    HW1 9992   8.113   2.703   9.981  0.3004  1.1583 -0.1424
35530SOL    HW2 9993   8.224   2.623   9.916 -1.6260 -0.7962 -1.1472
35531SOL     OW 9994   7.694   2.218   8.574  0.3035 -0.3304  0.3570
35531SOL    HW1 9995   7.636   2.261   8.512  0.2591  0.8505  1.1910
35531SOL    HW2 9996   7.765   2.184   8.520 -0.2684 -0.2689 -0.4632
35532SOL     OW 9997   6.234   0.676   2.132 -0.1367 -0.5002 -0.0444
35532SOL    HW1 9998   6.186   0.752   2.164  0.7074  0.0845 -0.1519
35532SOL    HW2 9999   6.209   0.605   2.192 -0.0307  0.1380  0.7674
35533SOL     OW10000   3.859   6.724   9.959  0.0179 -0.3866  0.7163
35533SOL    HW110001   3.875   6.632   9.939  0.9235 -0.2728  0.8870
35533SOL    HW210002   3.908   6.772   9.893  0.4058 -0.0293  1.2492
35534SOL     OW10003   7.051   4.852   3.204 -0.5357 -0.3721 -0.0173
35534SOL    HW110004   6.990   4.782   3.179  0.5860 -1.5794  0.4991
35534SOL    HW210005   7.110   4.861   3.130 -0.0073 -0.7504  0.3517
35535SOL     OW10006   2.563  10.162   7.317  0.1633  0.6178 -0.4619
35535SOL    HW110007   2.522  10.246   7.338  1.4276  1.0520  0.4159
35535SOL    HW210008   2.639  10.185   7.263  1.4203  0.2329  1.0614
35536SOL     OW10009   0.973   3.562   0.792 -0.3889  0.3715 -0.3673
35536SOL    HW110010   0.976   3.565   0.696 -0.4128 -1.8199 -0.4829
35536SOL    HW210011   1.060   3.592   0.819  1.0357 -2.4667 -1.2993
35537SOL     OW10012   5.821   1.017   8.800 -0.1234 -0.0994 -0.2051
35537SOL    HW110013   5.856   1.039   8.713  2.6206  1.5714  1.1651
35537SOL    HW210014   5.892   0.967   8.841 -0.9704 -0.0194  1.4076
35538SOL     OW10015   1.798   2.814   0.469 -0.0707 -0.0922  0.0010
35538SOL    HW110016   1.864   2.806   0.538 -0.2149 -1.3246  0.0242
35538SOL    HW210017   1.749   2.893   0.491  0.4663  0.0336  0.7893
35539SOL     OW10018   1.179   8.631   6.396  0.5704 -0.4442  0.9337
35539SOL    HW110019   1.085   8.641   6.382  0.7029 -0.9340 -0.4443
35539SOL    HW210020   1.198   8.688   6.470 -0.2467  2.3732 -0.8637
35540SOL     OW10021   6.403   9.285   4.681 -0.1742  0.4947 -0.4864
35540SOL    HW110022   6.366   9.198   4.673 -1.3458  0.9400 -0.0240
35540SOL    HW210023   6.498   9.271   4.686 -0.4617 -0.9127  2.0635
35541SOL     OW10024   1.357   0.460   4.078  0.0225 -0.1680 -0.4047
35541SOL    HW110025   1.368   0.555   4.076  3.7308 -0.4723 -2.5966
35541SOL    HW210026   1.404   0.432   4.156  1.1118 -0.3366 -1.1042
35542SOL     OW10027  10.672   0.611  10.226  0.1723  0.1836 -0.8659
35542SOL    HW110028  10.740   0.602  10.159  0.7795  0.1748 -0.2644
35542SOL    HW210029  10.678   0.702  10.254  1.7057 -0.4141  0.9915
35543SOL     OW10030   1.030  10.224   8.567  0.3111 -0.2236  0.1826
35543SOL    HW110031   1.013  10.154   8.630  0.7780 -0.4199  0.0987
35543SOL    HW210032   1.082  10.182   8.499 -1.0015 -0.2575 -0.8428
35544SOL     OW10033   1.800   0.831   9.787 -0.0005 -0.0761 -0.1804
35544SOL    HW110034   1.786   0.889   9.712 -1.4649  1.1727  1.0192
35544SOL    HW210035   1.730   0.767   9.781  0.7137 -0.8459 -0.6286
35545SOL     OW10036   5.628   4.578   7.933 -0.1570 -0.7105  0.5214
35545SOL    HW110037   5.654   4.555   8.022  1.9672 -0.2576  0.0842
35545SOL    HW210038   5.635   4.495   7.885  0.9898 -0.5203  0.3251
35546SOL     OW10039   9.672   2.735   2.360 -0.0654  0.7519 -0.2704
35546SOL    HW110040   9.717   2.687   2.291  0.3416 -0.1504  0.6026
35546SOL    HW210041   9.736   2.799   2.391  0.2437  0.2298  0.1950
35547SOL     OW10042   1.425   7.025   5.321 -0.4469  0.5411  0.1785
35547SOL    HW110043   1.337   7.055   5.344 -0.0611  1.3670  0.6005
35547SOL    HW210044   1.481   7.058   5.391 -0.1060 -1.9052  1.1832
35548SOL     OW10045   6.495   9.378   2.816 -0.0339 -0.4832  0.1652
35548SOL    HW110046   6.435   9.441   2.855  1.5145  0.6849  0.7559
35548SOL    HW210047   6.438   9.313   2.775 -1.6865  0.3655  1.0129
35549SOL     OW10048   4.483   0.150  10.017 -0.2144 -0.2855 -0.5979
35549SOL    HW110049   4.574   0.122  10.031 -0.1631 -1.0784 -2.2803
35549SOL    HW210050   4.461   0.116   9.930 -2.1548 -0.1617 -0.1897
35550SOL     OW10051   9.765   4.021   9.628  0.2321 -0.9566  0.2804
35550SOL    HW110052   9.850   3.978   9.617 -0.3943 -1.7625 -2.2133
35550SOL    HW210053   9.778   4.109   9.591 -0.1172 -1.2570 -0.5824
35551SOL     OW10054   1.774   4.599   6.178 -0.3987  0.5772  0.3284
35551SOL    HW110055   1.848   4.627   6.124 -1.8777  1.0511 -1.5689
35551SOL    HW210056   1.751   4.676   6.230  0.9301  0.1659  1.6027
35552SOL     OW10057   9.344   5.151  10.726  1.1405 -0.5082 -0.0735
35552SOL    HW110058   9.436   5.148  10.754  1.3334  0.7541 -0.5167
35552SOL    HW210059   9.346   5.116  10.637  0.9880 -1.6529  0.3589
35553SOL     OW10060   3.742   7.887   5.814 -0.3645  0.1335 -0.0046
35553SOL    HW110061   3.717   7.822   5.880 -0.4473 -1.1174 -1.2158
35553SOL    HW210062   3.829   7.860   5.786 -0.8650 -0.1446 -1.3409
35554SOL     OW10063   6.001   4.167   8.956  0.3734 -0.8185 -0.0691
35554SOL    HW110064   6.037   4.089   8.999 -0.6805 -0.4744  1.5357
35554SOL    HW210065   5.999   4.233   9.025 -0.7266 -0.0119 -0.8458
35555SOL     OW10066   1.165   6.796   0.722 -0.1842 -0.1048 -0.6575
35555SOL    HW110067   1.159   6.716   0.670 -0.0020  0.7633 -2.0872
35555SOL    HW210068   1.133   6.771   0.808 -0.8415 -1.5298 -1.2737
35556SOL     OW10069   5.767   0.780   3.252  0.2446 -0.1305 -0.0162
35556SOL    HW110070   5.733   0.854   3.302 -1.9979 -0.6123 -0.7317
35556SOL    HW210071   5.852   0.761   3.293 -0.4917  0.8930  2.1535
35557SOL     OW10072   1.160   1.279   9.512  0.6315 -0.3846  0.9484
35557SOL    HW110073   1.212   1.308   9.437  0.3766 -0.2305  0.8306
35557SOL    HW210074   1.183   1.339   9.582 -2.0881  2.0572 -0.0700
35558SOL     OW10075   4.556   7.854   8.596  0.0573 -0.2061 -0.0964
35558SOL    HW110076   4.632   7.893   8.641  0.5795  0.7144 -1.7051
35558SOL    HW210077   4.485   7.861   8.659  0.9300  0.3902  0.8602
35559SOL     OW10078  10.885   4.890   6.325  0.2630  0.3740  0.4921
35559SOL    HW110079  10.913   4.947   6.253  1.1097  1.1947  1.4410
35559SOL    HW210080  10.863   4.950   6.396 -1.2138 -0.3920  0.7296
35560SOL     OW10081   1.008   0.742   7.925 -0.5062  0.3425  0.4011
35560SOL    HW110082   1.035   0.833   7.942 -0.2416  0.3045  0.1928
35560SOL    HW210083   1.074   0.689   7.971 -0.1294  0.2471 -0.2347
35561SOL     OW10084   9.734   9.024   8.588 -0.2037 -0.0445  0.4510
35561SOL    HW110085   9.724   9.012   8.683  0.5070  1.2789  0.7148
35561SOL    HW210086   9.825   9.049   8.576  0.1702 -1.8371 -0.7936
35562SOL     OW10087  10.892   2.481   7.950 -0.3178  0.4291  0.3673
35562SOL    HW110088  10.837   2.425   8.004 -1.5580 -0.5631 -1.7705
35562SOL    HW210089  10.975   2.487   7.997 -1.3454 -0.2555  2.3790
35563SOL     OW10090   4.819   1.165   0.020  0.4979  0.4303  0.6813
35563SOL    HW110091   4.740   1.121   0.050 -0.4102  1.0226 -0.7556
35563SOL    HW210092   4.869   1.096  -0.025 -0.6997  0.6871 -1.1517
35564SOL     OW10093  10.290   5.155   2.426  0.0662  0.2403 -0.0264
35564SOL    HW110094  10.323   5.200   2.348 -0.1176 -1.5500 -1.1924
35564SOL    HW210095  10.338   5.073   2.429 -0.9678 -0.3611  0.9143
35565SOL     OW10096   2.569   8.486   4.192  0.0020 -0.2149  0.0707
35565SOL    HW110097   2.590   8.564   4.141 -1.1639  1.0550  1.4372
35565SOL    HW210098   2.506   8.439   4.139 -0.4937  0.6081 -0.0838
35566SOL     OW10099   0.126   0.212   0.894  0.1010 -0.4437  0.1120
35566SOL    HW110100   0.049   0.248   0.852 -0.0252 -0.3035  0.4580
35566SOL    HW210101   0.102   0.121   0.913  0.8174 -1.0670 -1.7607
35567SOL     OW10102   6.731   0.765   2.178 -0.3677  1.0812  0.4037
35567SOL    HW110103   6.688   0.835   2.228 -0.1276  1.2126  0.4280
35567SOL    HW210104   6.722   0.792   2.087 -2.7254 -0.2166  0.1771
35568SOL     OW10105  10.514  10.285   4.540 -0.3252 -0.4074 -0.3475
35568SOL    HW110106  10.542  10.367   4.498  0.2195 -0.0709  0.6299
35568SOL    HW210107  10.595  10.234   4.546  0.1971  0.5656  2.5033
35569SOL     OW10108   6.775   6.277   9.155  0.2155  0.2465  0.3690
35569SOL    HW110109   6.828   6.202   9.128  0.2591 -0.1395  1.4744
35569SOL    HW210110   6.818   6.353   9.116  0.2361 -0.2855 -0.6753
35570SOL     OW10111  10.470   5.509   9.658 -0.8549 -0.1584 -0.1007
35570SOL    HW110112  10.494   5.473   9.573  2.8307  0.6114  0.4355
35570SOL    HW210113  10.504   5.446   9.722  0.7522  1.4851  0.7696
35571SOL     OW10114   8.394   3.457   9.454 -0.2033  0.4871  0.4209
35571SOL    HW110115   8.336   3.481   9.381 -0.1289 -1.3718 -0.3134
35571SOL    HW210116   8.371   3.366   9.472  1.0965  0.3524  1.4781
35572SOL     OW10117   6.579   0.032   8.534 -0.2577 -0.1715  0.2987
35572SOL    HW110118   6.666   0.022   8.572 -0.0071  1.0409  0.0764
35572SOL    HW210119   6.550  -0.058   8.516  1.0674 -0.5793  0.0998
35573SOL     OW10120   2.989   8.774   6.544  0.3201  0.2139  0.2132
35573SOL    HW110121   3.009   8.810   6.631 -0.7237 -2.2246  1.5552
35573SOL    HW210122   2.972   8.682   6.560 -1.4774  0.0117 -2.3847
35574SOL     OW10123   7.854   9.441   0.005 -0.4705 -0.1125  0.4653
35574SOL    HW110124   7.910   9.467   0.078 -1.3510 -1.0392  1.5251
35574SOL    HW210125   7.858   9.345   0.005  0.8537 -0.1365 -1.8281
35575SOL     OW10126   6.730   1.411  10.855  0.4199 -0.6008  0.0606
35575SOL    HW110127   6.735   1.486  10.914 -0.1104 -0.4912 -0.0302
35575SOL    HW210128   6.743   1.447  10.768  0.5108 -0.6645  0.0475
35576SOL     OW10129   0.977  10.505   2.072 -0.2121 -0.2882  0.0726
35576SOL    HW110130   1.023  10.516   1.988 -0.0027 -0.4791  0.1620
35576SOL    HW210131   0.907  10.443   2.053 -0.1538 -0.3450  0.0426
35577SOL     OW10132  10.519   4.518   1.713  0.1591 -0.1725  0.2743
35577SOL    HW110133  10.432   4.545   1.682  0.4622  0.7430  0.1796
35577SOL    HW210134  10.558   4.473   1.639  0.4390  0.9984 -0.3218
35578SOL     OW10135   7.375   1.563   4.302 -0.4525 -0.3939 -0.1495
35578SOL    HW110136   7.367   1.506   4.378 -0.8143 -0.7223 -0.4257
35578SOL    HW210137   7.456   1.536   4.260 -0.1275 -0.0461  0.2535
35579SOL     OW10138  10.776   5.137   9.568  0.3112 -0.2329  0.7042
35579SOL    HW110139  10.787   5.221   9.524 -0.2833  0.1328  1.2222
35579SOL    HW210140  10.829   5.076   9.518  1.4589  0.6276  0.8278
35580SOL     OW10141   5.377   1.284   8.000  0.5040  0.0438 -0.0324
35580SOL    HW110142   5.454   1.338   8.017  0.5802  0.2519 -0.9825
35580SOL    HW210143   5.374   1.276   7.904 -1.6594  1.5539 -0.1724
35581SOL     OW10144   4.692  10.862   5.978  0.5282 -0.1346 -0.3146
35581SOL    HW110145   4.692  10.885   5.885 -0.6651  1.4010  0.0111
35581SOL    HW210146   4.753  10.924   6.018 -1.5319  1.5913  0.3579
35582SOL     OW10147   1.332  10.123   5.860  0.1916 -0.4240 -0.5999
35582SOL    HW110148   1.295  10.036   5.872 -0.1254 -0.0830  1.1066
35582SOL    HW210149   1.321  10.166   5.945  0.6018  1.1807 -1.3185
35583SOL     OW10150   0.741   7.030   2.448  0.3652  0.1464 -0.0558
35583SOL    HW110151   0.711   7.120   2.440  1.5993  0.5251 -0.6816
35583SOL    HW210152   0.661   6.979   2.460 -0.3652  1.2940  0.1124
35584SOL     OW10153   0.001   9.380   4.880 -0.0466 -0.5080 -0.4494
35584SOL    HW110154   0.000   9.289   4.908 -1.8222 -0.3524  0.1426
35584SOL    HW210155  -0.014   9.377   4.786 -0.1656 -0.8248 -0.4191
35585SOL     OW10156   3.912   1.457   6.142  0.1057  0.4895 -0.1678
35585SOL    HW110157   3.981   1.482   6.080  0.7905 -0.1969  0.3087
35585SOL    HW210158   3.959   1.435   6.222 -0.7722  1.3674  0.6146
35586SOL     OW10159   1.294   5.955   9.396 -0.4757 -0.4108 -0.1913
35586SOL    HW110160   1.313   5.900   9.473 -0.5905  1.8888  1.5723
35586SOL    HW210161   1.376   5.954   9.347  0.1093 -0.7180  0.7481
35587SOL     OW10162   5.590   4.956   4.222  0.4449  0.7069 -0.4730
35587SOL    HW110163   5.678   4.943   4.186  0.8353  0.6885  0.4318
35587SOL    HW210164   5.606   4.986   4.312 -0.4751  0.3944 -0.1930
35588SOL     OW10165   6.477   4.978  10.315 -0.2144 -0.1954  0.0514
35588SOL    HW110166   6.555   4.925  10.331  0.4546  0.0899 -2.0278
35588SOL    HW210167   6.468   5.031  10.395 -0.1442 -2.4105  1.6322
35589SOL     OW10168   9.551   7.132   4.668 -0.0820  0.4628 -0.0804
35589SOL    HW110169   9.504   7.173   4.740 -0.7075 -0.0856 -0.1585
35589SOL    HW210170   9.639   7.169   4.671 -0.1243  0.4954  0.9177
35590SOL     OW10171  10.204  10.293   8.452 -0.0646 -0.1294 -0.4478
35590SOL    HW110172  10.236  10.380   8.426 -0.7173 -0.0988 -1.1837
35590SOL    HW210173  10.112  10.307   8.472 -0.0105 -0.5298  0.0939
35591SOL     OW10174   4.975   4.009   7.433  0.1502 -0.1665 -0.1160
35591SOL    HW110175   4.943   3.927   7.396  0.4527 -0.3207 -0.0384
35591SOL    HW210176   5.057   4.026   7.388  0.4306 -0.2617  0.3503
35592SOL     OW10177  10.791   3.898   9.833  0.2414  0.2285  0.2694
35592SOL    HW110178  10.782   3.928   9.923 -0.5763  0.8139  0.0027
35592SOL    HW210179  10.704   3.864   9.810 -0.0213  1.5153 -0.7909
35593SOL     OW10180   4.206   8.592   0.083  0.0615  0.3059  0.5542
35593SOL    HW110181   4.295   8.602   0.049 -0.4655 -0.2920 -1.1003
35593SOL    HW210182   4.159   8.669   0.051 -0.3753 -0.1208  0.1598
35594SOL     OW10183   3.730   4.706   9.307  0.1892  0.2934  0.2237
35594SOL    HW110184   3.711   4.772   9.241 -0.1401  0.7791  0.7894
35594SOL    HW210185   3.779   4.638   9.260 -0.5386  0.3448 -0.6382
35595SOL     OW10186  10.210   3.042   9.692  0.9998  0.2863  0.0897
35595SOL    HW110187  10.266   3.072   9.620 -1.0676  0.7557 -1.3971
35595SOL    HW210188  10.185   3.121   9.738  0.0762  0.2756 -0.3861
35596SOL     OW10189   6.288   4.416   0.571 -0.8585 -0.1924 -0.0655
35596SOL    HW110190   6.201   4.408   0.609 -0.5179  0.3123  0.8404
35596SOL    HW210191   6.300   4.510   0.558  0.3773 -0.0422  1.8238
35597SOL     OW10192   5.393   6.822  10.607  0.2730  0.9668  0.8075
35597SOL    HW110193   5.311   6.871  10.604  0.0344  0.5400 -0.2149
35597SOL    HW210194   5.399   6.781  10.521  0.4658 -0.7767  1.6093
35598SOL     OW10195   0.401   7.745   3.922  0.2893  0.4231 -0.1522
35598SOL    HW110196   0.473   7.801   3.953  0.3608 -0.1937  0.8207
35598SOL    HW210197   0.424   7.657   3.951 -0.5982  0.1276 -0.3141
35599SOL     OW10198  10.876   9.982   2.451 -0.1957 -0.2732 -0.2052
35599SOL    HW110199  10.957  10.000   2.498  1.1012 -1.4400 -1.8502
35599SOL    HW210200  10.813   9.959   2.519  1.4512 -1.4337  0.9970
35600SOL     OW10201   6.324  10.508   0.998 -0.9587 -0.3107 -0.1391
35600SOL    HW110202   6.330  10.473   1.087  1.4569 -1.4865 -0.6673
35600SOL    HW210203   6.262  10.450   0.954 -1.8525  0.0256  0.6508
35601SOL     OW10204   9.919   9.613   1.602 -0.2198  0.1189 -0.2658
35601SOL    HW110205   9.908   9.551   1.674 -2.0998 -0.7384 -1.2262
35601SOL    HW210206   9.913   9.699   1.645 -0.7623 -0.3637  0.6696
35602SOL     OW10207   7.098   9.375   7.710  0.6091  0.1743 -0.1831
35602SOL    HW110208   7.166   9.374   7.642  0.8077  1.1038 -0.0064
35602SOL    HW210209   7.105   9.289   7.751 -0.4548 -0.9603 -2.2409
35603SOL     OW10210   1.760   2.185   5.477  0.2930  0.4648  1.0132
35603SOL    HW110211   1.736   2.110   5.422  0.9665  0.6422  0.4623
35603SOL    HW210212   1.831   2.152   5.532  0.9826  0.8456  0.3713
35604SOL     OW10213  10.651   9.898  10.357  0.3803 -0.1073 -0.1079
35604SOL    HW110214  10.635   9.992  10.352 -0.3451 -0.2943 -2.5638
35604SOL    HW210215  10.611   9.870  10.439 -0.8829  1.4606 -0.1635
35605SOL     OW10216   0.101   6.726   9.837  0.0233  0.1078 -0.3378
35605SOL    HW110217   0.011   6.692   9.839  0.2412 -0.4668  0.2894
35605SOL    HW210218   0.129   6.723   9.929  1.4191 -1.7499 -0.7683
35606SOL     OW10219   5.414   1.294   5.658 -0.2353  0.3827 -0.3626
35606SOL    HW110220   5.408   1.220   5.718  0.6833 -0.1598 -0.9183
35606SOL    HW210221   5.447   1.256   5.577  0.2441  1.4093 -0.6600
35607SOL     OW10222  10.396   2.947   7.988 -0.0019 -0.0618  0.8245
35607SOL    HW110223  10.405   2.945   8.084  1.6879  1.7400  0.7520
35607SOL    HW210224  10.318   3.000   7.972 -0.0394 -0.0060  1.1880
35608SOL     OW10225   9.624   6.210  10.240 -0.1846  0.3019  0.4292
35608SOL    HW110226   9.698   6.223  10.181  1.0309 -0.9341  1.6147
35608SOL    HW210227   9.663   6.203  10.327 -1.9884  3.0471  1.6214
35609SOL     OW10228   5.789   0.511   7.149 -0.5195  0.1309  0.4315
35609SOL    HW110229   5.738   0.576   7.197  0.1667 -0.2994  1.8023
35609SOL    HW210230   5.804   0.441   7.212  0.0078 -0.6877 -0.5758
35610SOL     OW10231  10.495   2.317  10.693 -0.1059 -0.0945  0.2964
35610SOL    HW110232  10.500   2.405  10.729 -0.0259  0.3403 -0.7574
35610SOL    HW210233  10.401   2.297  10.692 -0.1614  0.1907  0.0195
35611SOL     OW10234   7.142   5.890   4.476  0.5237 -0.0827 -0.4278
35611SOL    HW110235   7.116   5.972   4.436 -1.1384 -0.7507 -0.8024
35611SOL    HW210236   7.163   5.832   4.402  0.0727 -0.4857 -0.2498
35612SOL     OW10237   0.879   6.768   6.042  0.0206 -0.2416 -0.4207
35612SOL    HW110238   0.804   6.714   6.067  1.9854 -2.1589  1.8407
35612SOL    HW210239   0.883   6.759   5.946 -1.8399 -1.1440 -0.4638
35613SOL     OW10240   4.775   2.065   5.847  0.5108 -0.0406 -0.2863
35613SOL    HW110241   4.861   2.105   5.863  0.3585 -0.1855  0.9643
35613SOL    HW210242   4.724   2.084   5.926 -0.4531 -0.3766 -0.8112
35614SOL     OW10243   0.224   9.610   2.227  0.3598  0.0813  0.1991
35614SOL    HW110244   0.145   9.651   2.262  0.4562 -0.4616  1.0796
35614SOL    HW210245   0.294   9.639   2.285  0.2931 -2.0175  1.4037
35615SOL     OW10246  10.058   9.182   4.165  0.4575  0.4193 -0.1401
35615SOL    HW110247  10.105   9.241   4.105 -0.2949  1.7091  0.4890
35615SOL    HW210248  10.110   9.183   4.245  1.3494 -1.1400 -0.6584
35616SOL     OW10249  10.571   1.044  10.617 -0.1269  1.1200  0.1015
35616SOL    HW110250  10.551   1.106  10.547  1.6838  0.8118 -0.7456
35616SOL    HW210251  10.519   0.966  10.596 -0.2863  1.3519 -0.3806
35617SOL     OW10252   7.904  10.592   8.401 -0.2701 -0.2795 -0.3728
35617SOL    HW110253   7.832  10.585   8.338 -1.7955  1.5507  1.0385
35617SOL    HW210254   7.978  10.624   8.350 -0.9450 -0.5221 -1.5380
35618SOL     OW10255   1.885   6.012  10.865  0.0516  0.7939 -0.6520
35618SOL    HW110256   1.885   5.949  10.793  2.2310 -0.8929  0.6746
35618SOL    HW210257   1.950   6.078  10.838  1.8703 -0.5503  0.2347
35619SOL     OW10258   3.724   7.271   5.227  0.0735  0.0841 -0.3517
35619SOL    HW110259   3.767   7.338   5.175 -0.3725 -0.6033 -1.6332
35619SOL    HW210260   3.645   7.314   5.260 -0.8098 -0.1030 -2.1096
35620SOL     OW10261   4.352   4.103   4.338  0.2809  0.1397 -0.0482
35620SOL    HW110262   4.380   4.111   4.247 -1.3252  0.0539 -0.5837
35620SOL    HW210263   4.382   4.184   4.379  2.1274 -0.3604 -0.3019
35621SOL     OW10264   9.145   2.672   1.554  0.3763  0.1849  0.9145
35621SOL    HW110265   9.071   2.612   1.567  1.9018 -1.7713  1.1153
35621SOL    HW210266   9.150   2.684   1.459  0.1137 -0.0847  0.8654
35622SOL     OW10267  10.155   4.310   3.593  0.4411  0.3273 -0.1012
35622SOL    HW110268  10.158   4.369   3.517 -3.2428 -1.4011 -1.8709
35622SOL    HW210269  10.103   4.358   3.658  1.1811  0.6938  0.2317
35623SOL     OW10270   7.809   2.736   2.921  0.0736 -0.1970  0.2587
35623SOL    HW110271   7.880   2.672   2.932 -0.0591 -0.1142  1.7309
35623SOL    HW210272   7.750   2.720   2.994 -1.2137  0.0350 -0.7052
35624SOL     OW10273   4.744   0.428   2.329 -0.1832 -0.4820  0.1999
35624SOL    HW110274   4.826   0.380   2.341 -0.2419 -0.2511  1.6893
35624SOL    HW210275   4.676   0.362   2.336 -0.1869 -0.4696  0.2760
35625SOL     OW10276   1.578   0.282   3.507  0.2174 -0.2068  0.2587
35625SOL    HW110277   1.613   0.276   3.418  1.6681 -1.1163  0.8533
35625SOL    HW210278   1.545   0.372   3.514  2.3143  0.6751 -0.4427
35626SOL     OW10279   6.977   6.212  10.057  0.5349  0.3017 -0.0840
35626SOL    HW110280   6.956   6.305  10.046  0.7318  0.3495 -0.0454
35626SOL    HW210281   6.955   6.192  10.148 -0.2681  0.1162 -0.3111
35627SOL     OW10282   1.813  10.284  10.599 -0.0880  0.0603 -0.0878
35627SOL    HW110283   1.777  10.280  10.511  0.5393  0.6588 -0.3841
35627SOL    HW210284   1.875  10.357  10.596 -0.1206  0.1375  0.8715
35628SOL     OW10285   1.075   5.616   7.230  0.0966 -0.0061  0.3779
35628SOL    HW110286   1.005   5.590   7.290 -1.3769  0.9568 -0.8463
35628SOL    HW210287   1.032   5.671   7.165  1.7793 -0.3678 -1.1309
35629SOL     OW10288   1.418   0.874   6.825 -0.5107 -0.5486  0.5424
35629SOL    HW110289   1.406   0.812   6.753  1.0724  1.3332 -1.4575
35629SOL    HW210290   1.333   0.874   6.870 -1.4406 -2.0645 -1.0837
35630SOL     OW10291   1.938   3.412   3.074 -0.8505 -0.0234  0.1548
35630SOL    HW110292   1.926   3.362   3.155 -0.1110  1.1188  1.0073
35630SOL    HW210293   1.922   3.503   3.100  0.1253  0.4425 -0.8187
35631SOL     OW10294   9.684   7.704   6.144 -0.2251  0.0810  0.7248
35631SOL    HW110295   9.690   7.724   6.050 -1.4648 -1.4995  0.2755
35631SOL    HW210296   9.717   7.783   6.187 -2.6156  2.1481 -0.9513
35632SOL     OW10297   8.586   7.249   5.672  0.3478  0.2667  0.1573
35632SOL    HW110298   8.561   7.340   5.661  0.6737  0.2143 -1.1374
35632SOL    HW210299   8.556   7.206   5.592  2.5477 -0.2293 -0.4609
35633SOL     OW10300   2.291   8.396   3.730  0.5869  0.3108 -0.5790
35633SOL    HW110301   2.363   8.448   3.766  0.2074 -0.3239  1.1511
35633SOL    HW210302   2.331   8.311   3.711  0.2041 -0.2283  0.9162
35634SOL     OW10303   1.177   2.943   3.919 -0.1972 -0.2679  0.6210
35634SOL    HW110304   1.158   2.913   3.830 -1.3141 -1.5357  1.2540
35634SOL    HW210305   1.128   3.025   3.928  1.3547  0.8369 -0.4939
35635SOL     OW10306   0.805   0.736   7.390  0.2185  0.6146 -0.5356
35635SOL    HW110307   0.793   0.718   7.483  0.3721 -0.5858 -0.7283
35635SOL    HW210308   0.851   0.820   7.387 -2.0327  1.9467  0.3882
35636SOL     OW10309   4.926   8.054   6.579  1.0561 -0.5328 -0.4063
35636SOL    HW110310   4.901   7.969   6.614  1.7435 -2.1055 -3.4194
35636SOL    HW210311   5.019   8.062   6.599  1.1430 -0.7944 -0.7074
35637SOL     OW10312   5.828   3.630   8.516 -0.5157  0.4676  0.0137
35637SOL    HW110313   5.755   3.664   8.569 -1.0168  0.9288 -0.9436
35637SOL    HW210314   5.806   3.538   8.502 -0.5377  0.4208  0.3502
35638SOL     OW10315   4.950  10.053   5.055 -0.2367 -0.2681  0.0142
35638SOL    HW110316   5.006   9.980   5.084 -1.8242 -1.3211  0.5926
35638SOL    HW210317   4.881  10.011   5.004 -0.0181  1.1025 -1.4628
35639SOL     OW10318   9.855   0.806   2.725  0.4939  0.5137 -0.3728
35639SOL    HW110319   9.767   0.778   2.748  0.4248  1.1389  0.1836
35639SOL    HW210320   9.869   0.775   2.636  0.4938 -1.3814  0.2566
35640SOL     OW10321   1.458   2.061   6.062 -0.3061 -0.5811 -0.1913
35640SOL    HW110322   1.426   2.012   6.138 -0.3007  0.4529  0.4916
35640SOL    HW210323   1.544   2.094   6.090 -0.7146  0.5985 -0.2933
35641SOL     OW10324   1.144   9.812   4.830 -0.2157 -0.8385  0.1141
35641SOL    HW110325   1.111   9.796   4.918  1.7656  1.1975  1.3108
35641SOL    HW210326   1.238   9.798   4.836  0.1060  0.4246 -1.3975
35642SOL     OW10327   4.584   0.880   4.187 -0.3072  0.3552  0.2059
35642SOL    HW110328   4.585   0.937   4.110 -0.1933  0.5116  0.3218
35642SOL    HW210329   4.505   0.827   4.177  0.0255 -0.0535 -0.3290
35643SOL     OW10330   9.280   2.043   6.835  0.2102 -0.5303 -0.5933
35643SOL    HW110331   9.219   1.998   6.777 -1.3681 -0.3258  0.8602
35643SOL    HW210332   9.265   2.005   6.921 -1.5733  3.0151  0.8253
35644SOL     OW10333   0.004   7.115   1.783  0.6476 -0.2416 -0.5905
35644SOL    HW110334   0.058   7.043   1.752  0.6345 -0.5532  0.0830
35644SOL    HW210335  -0.086   7.085   1.769  0.6443 -0.3070 -0.4371
35645SOL     OW10336   8.315   7.468  10.900 -0.2541 -0.0545 -0.3016
35645SOL    HW110337   8.239   7.413  10.881 -0.8688  0.0625  1.6165
35645SOL    HW210338   8.319   7.529  10.827 -0.5459 -1.5632 -1.6466
35646SOL     OW10339   3.933   8.123   5.009 -0.1611  0.2815 -0.5968
35646SOL    HW110340   3.908   8.061   5.078 -2.6388  0.3339 -1.3569
35646SOL    HW210341   4.029   8.117   5.005 -0.0618 -0.8001  1.8053
35647SOL     OW10342   0.807   3.247   7.010  0.2432  0.2824 -0.4932
35647SOL    HW110343   0.725   3.294   6.994  0.0132 -0.4315 -1.5414
35647SOL    HW210344   0.783   3.155   7.004  0.8116  0.0296  0.8752
35648SOL     OW10345   7.471   8.741   2.682 -0.0156  0.2077  0.2687
35648SOL    HW110346   7.403   8.686   2.643 -0.1581  0.1973  0.5289
35648SOL    HW210347   7.501   8.797   2.610  0.6686 -0.7337 -0.1920
35649SOL     OW10348   2.734   0.778   4.272  0.1865 -0.2371  0.9315
35649SOL    HW110349   2.720   0.716   4.343 -0.1517 -0.8464  0.3430
35649SOL    HW210350   2.779   0.727   4.204 -0.6103 -0.0013  0.2071
35650SOL     OW10351   9.601  10.774   6.572  0.2136 -0.2870  0.4061
35650SOL    HW110352   9.622  10.682   6.556 -1.0213 -0.8495  1.8026
35650SOL    HW210353   9.637  10.792   6.659  1.2879  0.8484 -0.2511
35651SOL     OW10354  10.049   8.006   9.099 -0.1519  0.0353  0.1531
35651SOL    HW110355  10.118   8.014   9.033 -0.3020  2.0088  0.1693
35651SOL    HW210356   9.968   8.025   9.052 -0.2460  1.6044  0.9000
35652SOL     OW10357   8.674   5.729   3.824  0.1349  0.0268  0.2358
35652SOL    HW110358   8.673   5.825   3.822  1.1114  0.0370 -0.1781
35652SOL    HW210359   8.737   5.704   3.757 -1.4704 -0.9708 -0.9770
35653SOL     OW10360  10.262   5.117   6.802 -1.1321 -0.4230  0.5026
35653SOL    HW110361  10.290   5.034   6.840  2.8747  0.6035  0.2807
35653SOL    HW210362  10.330   5.139   6.738 -2.2920  2.7612  0.1527
35654SOL     OW10363   4.764  10.265   4.754  0.0339  0.6361  0.1409
35654SOL    HW110364   4.766  10.322   4.831  1.2870  1.2577 -0.3329
35654SOL    HW210365   4.830  10.197   4.774  2.0824  2.0858 -1.3051
35655SOL     OW10366   1.202   4.627   4.037 -0.1501  0.1484 -0.3124
35655SOL    HW110367   1.173   4.659   3.952  1.3538 -1.4375 -1.4962
35655SOL    HW210368   1.157   4.683   4.100 -1.3908  1.3110 -2.1254
35656SOL     OW10369   0.952   7.667   1.524  0.1490  0.2862  0.2849
35656SOL    HW110370   0.924   7.582   1.490  1.1355 -0.1124  0.4571
35656SOL    HW210371   0.877   7.724   1.508 -0.9255 -0.8415  1.0917
35657SOL     OW10372   4.964   3.194   6.640  0.5575  0.2355 -0.3979
35657SOL    HW110373   5.007   3.129   6.585  1.5690  1.1688 -0.7497
35657SOL    HW210374   5.005   3.185   6.726 -0.0899 -0.3376 -0.1481
35658SOL     OW10375   1.554   1.060   9.505 -0.1680 -0.3838 -0.0948
35658SOL    HW110376   1.517   0.993   9.448 -1.2607  0.1882 -0.0971
35658SOL    HW210377   1.527   1.035   9.593 -0.7151  0.1121 -0.1100
35659SOL     OW10378   9.625   5.676   1.241  0.8133 -0.2148 -0.6489
35659SOL    HW110379   9.544   5.696   1.194  1.4224 -1.6750 -2.4503
35659SOL    HW210380   9.602   5.605   1.300  0.5304  0.1472 -0.3207
35660SOL     OW10381   5.129   2.878  10.514 -0.1560  0.1655  0.4320
35660SOL    HW110382   5.087   2.877  10.428 -1.0003  0.6741  0.8209
35660SOL    HW210383   5.222   2.865  10.495 -0.2431  0.9164 -0.6132
35661SOL     OW10384   6.178   9.560   6.278  0.1772  0.1782 -0.2512
35661SOL    HW110385   6.259   9.514   6.256  1.0451  1.3121  0.5232
35661SOL    HW210386   6.109   9.494   6.263  1.3470 -1.2954  0.5796
35662SOL     OW10387   7.516   6.137   9.435  0.3050  0.6520  0.4620
35662SOL    HW110388   7.531   6.165   9.525  0.8829 -0.3174  0.6867
35662SOL    HW210389   7.421   6.127   9.429  0.3246 -0.1442  1.2502
35663SOL     OW10390   7.900   2.513   4.500 -0.3245 -0.4042 -0.2581
35663SOL    HW110391   7.995   2.518   4.489  0.0014  0.8124  2.3125
35663SOL    HW210392   7.888   2.469   4.584 -2.0373 -0.3485 -0.4361
35664SOL     OW10393   5.588   8.570   5.211  0.1067 -0.4089  0.4780
35664SOL    HW110394   5.530   8.640   5.180  0.4261 -0.4823 -0.3057
35664SOL    HW210395   5.663   8.616   5.249  0.1941 -0.3184  0.2000
35665SOL     OW10396   0.575   7.078   6.910  0.6594 -0.0692  0.2747
35665SOL    HW110397   0.576   7.169   6.939 -2.9671  0.1445  0.1694
35665SOL    HW210398   0.601   7.028   6.987  0.8717  0.9507  0.8902
35666SOL     OW10399   9.853   9.872   1.669  0.0604  0.2126  0.2268
35666SOL    HW110400   9.878   9.958   1.702  0.8479 -0.9615  2.9998
35666SOL    HW210401   9.758   9.874   1.666  0.0730  1.1911  0.2080
35667SOL     OW10402   4.125   1.849   8.789  0.4903 -0.1442  0.3741
35667SOL    HW110403   4.049   1.825   8.842  0.0341 -1.1092 -0.6682
35667SOL    HW210404   4.116   1.944   8.776 -0.5139 -0.2256  0.3358
35668SOL     OW10405   7.102   5.264   1.383  0.0214 -0.3691  0.7274
35668SOL    HW110406   7.059   5.345   1.356 -1.4291 -0.9098  1.3325
35668SOL    HW210407   7.044   5.227   1.449  0.5149 -2.0445  0.2672
35669SOL     OW10408   8.839   6.967   9.291  0.3224 -0.2506  0.2492
35669SOL    HW110409   8.776   6.992   9.357 -0.5266  1.7049 -1.2033
35669SOL    HW210410   8.792   6.906   9.234  0.6592 -0.9500  0.6976
35670SOL     OW10411   9.425   5.363  10.385 -0.0403  0.6239  0.3051
35670SOL    HW110412   9.449   5.271  10.378 -1.8656  0.0072  1.2200
35670SOL    HW210413   9.351   5.374  10.325  1.7124  2.1672 -1.6931
35671SOL     OW10414   5.952   3.436   8.150  0.5206  0.3822 -0.3671
35671SOL    HW110415   6.045   3.413   8.140  0.3840 -1.0725  1.3286
35671SOL    HW210416   5.905   3.357   8.124 -0.1020 -0.1139  2.0830
35672SOL     OW10417   8.415   1.752   4.675 -0.2470 -0.5096 -0.1610
35672SOL    HW110418   8.427   1.845   4.655 -1.1957 -0.1235  0.9598
35672SOL    HW210419   8.438   1.744   4.767  0.4866 -1.5319 -0.4162
35673SOL     OW10420   0.827   6.783   5.498 -0.3861  0.6169  0.5881
35673SOL    HW110421   0.749   6.839   5.506 -0.6587  0.6714 -1.8108
35673SOL    HW210422   0.889   6.835   5.447  0.3934 -0.2830  0.5876
35674SOL     OW10423   7.054   1.719   7.476  0.1564  0.4059 -0.0195
35674SOL    HW110424   7.095   1.742   7.392 -0.4551 -0.0271 -0.4429
35674SOL    HW210425   7.043   1.803   7.521 -0.2452  0.7340 -0.7200
35675SOL     OW10426   9.847   5.268   1.997 -0.5398  0.5556  0.4445
35675SOL    HW110427   9.851   5.287   1.903 -0.3008 -1.1223  0.0832
35675SOL    HW210428   9.753   5.270   2.017 -0.5902  0.9607  0.1706
35676SOL     OW10429   5.279   3.919   9.682 -0.5399  0.1102  0.0062
35676SOL    HW110430   5.189   3.939   9.656 -0.8116 -0.8009  0.2204
35676SOL    HW210431   5.309   3.855   9.618  0.1709  0.8401 -0.4119
35677SOL     OW10432   3.469   6.078   8.853  0.5018 -0.2259  0.4118
35677SOL    HW110433   3.478   6.173   8.855  0.6430 -0.2487  1.3047
35677SOL    HW210434   3.541   6.046   8.909  0.5024 -0.8555  0.0594
35678SOL     OW10435   0.167   3.213   8.906 -0.1823 -0.3571 -0.1790
35678SOL    HW110436   0.114   3.289   8.881 -0.0544  0.0545  0.7486
35678SOL    HW210437   0.152   3.149   8.836  0.0172  0.6643 -1.1844
35679SOL     OW10438   0.110   4.614   1.789 -0.4253 -0.3288 -0.3008
35679SOL    HW110439   0.116   4.619   1.884 -1.6998 -0.4281 -0.1952
35679SOL    HW210440   0.128   4.522   1.768 -3.1433 -1.0399  0.1502
35680SOL     OW10441   9.189   7.826  10.768  0.2834  0.5972  0.0062
35680SOL    HW110442   9.214   7.820  10.675 -0.1711  0.6501 -0.1213
35680SOL    HW210443   9.261   7.874  10.809  1.1974 -0.6478 -0.0417
35681SOL     OW10444   2.591   8.912   5.281 -0.7119  0.2464 -0.8815
35681SOL    HW110445   2.661   8.848   5.268  0.6681  1.3785  0.5247
35681SOL    HW210446   2.533   8.871   5.345 -0.4510 -0.0374 -0.8217
35682SOL     OW10447   2.820  10.404   6.524  0.2578  0.4970 -0.6755
35682SOL    HW110448   2.753  10.369   6.465  0.0356 -0.5765  0.1870
35682SOL    HW210449   2.891  10.339   6.520 -0.8481 -1.1136  2.2496
35683SOL     OW10450   1.701   9.270   2.152 -0.2654  0.1097  0.3703
35683SOL    HW110451   1.752   9.239   2.078  0.4210  1.1953  0.3538
35683SOL    HW210452   1.766   9.304   2.214 -0.9137  0.8098  0.6942
35684SOL     OW10453   4.421  10.176   1.927  0.1852 -0.2291 -0.2158
35684SOL    HW110454   4.387  10.087   1.929 -1.1326  0.2573  0.0201
35684SOL    HW210455   4.378  10.220   2.000  0.5192  0.7099 -0.5652
35685SOL     OW10456   3.400   3.784   5.390 -0.1147  0.1575 -0.0617
35685SOL    HW110457   3.382   3.691   5.374  1.4310 -0.2792  0.5516
35685SOL    HW210458   3.383   3.796   5.483  0.3483  0.3342 -0.0014
35686SOL     OW10459   7.742   8.342  10.618  0.1157  0.2043 -0.2634
35686SOL    HW110460   7.812   8.376  10.674  0.1994  1.7053 -1.2450
35686SOL    HW210461   7.673   8.316  10.680  1.1000 -0.2969  0.6490
35687SOL     OW10462   9.663   1.774   9.171  0.1461  0.8379  0.1655
35687SOL    HW110463   9.674   1.690   9.216  0.7106  0.2534 -1.0086
35687SOL    HW210464   9.571   1.775   9.144  0.4129  0.0010 -0.8856
35688SOL     OW10465   2.817   7.854   8.864 -0.0332  0.1793 -0.4700
35688SOL    HW110466   2.760   7.828   8.791  1.5779  0.6975 -1.9846
35688SOL    HW210467   2.781   7.808   8.940 -2.0253 -0.0597 -1.4847
35689SOL     OW10468   1.243   7.884   9.012 -0.2678 -0.3751  0.7833
35689SOL    HW110469   1.306   7.948   8.979  1.4471 -1.5024  1.7193
35689SOL    HW210470   1.204   7.847   8.933  0.8292 -0.2162  0.1408
35690SOL     OW10471   7.940   6.760   4.179  0.0010 -0.1223  0.5275
35690SOL    HW110472   7.931   6.668   4.206  0.3652 -0.4797 -0.5325
35690SOL    HW210473   7.862   6.803   4.215  0.0201 -0.7547  1.3748
35691SOL     OW10474   8.408   7.083   4.560 -0.2272 -0.2402 -0.4623
35691SOL    HW110475   8.476   7.117   4.502 -0.0415 -0.2677 -0.2607
35691SOL    HW210476   8.327   7.091   4.509  0.1617 -1.9052 -1.4290
35692SOL     OW10477   6.742   5.255   3.498  0.5155 -0.0378 -0.1724
35692SOL    HW110478   6.647   5.263   3.511  0.7184 -0.8420  2.2204
35692SOL    HW210479   6.778   5.244   3.586  2.6769 -1.4634 -1.1414
35693SOL     OW10480  10.322   2.623  10.089 -0.0156  0.3135  0.3277
35693SOL    HW110481  10.403   2.669  10.069 -0.3613  0.7048 -0.1826
35693SOL    HW210482  10.325   2.545  10.033  0.3806 -0.0891  0.8989
35694SOL     OW10483   8.923   1.338   3.651  0.0026  0.3655  0.0815
35694SOL    HW110484   8.885   1.353   3.564 -0.3741 -0.6915  0.0565
35694SOL    HW210485   9.018   1.330   3.635 -0.0365  0.4463 -0.1953
35695SOL     OW10486  10.141   5.894   6.441 -0.0221  0.2789 -0.5455
35695SOL    HW110487  10.065   5.941   6.406 -0.1192 -0.8742 -1.9920
35695SOL    HW210488  10.217   5.942   6.407 -0.0223  1.9708  1.6362
35696SOL     OW10489   9.835   8.994   5.130 -0.3434  0.0857 -0.0520
35696SOL    HW110490   9.821   8.906   5.166 -0.3889 -0.9087 -2.3378
35696SOL    HW210491   9.842   9.050   5.207  0.7032 -2.0486  1.5206
35697SOL     OW10492   9.190   0.362   7.570 -0.0306 -0.5689  0.1226
35697SOL    HW110493   9.213   0.399   7.655  0.0630  1.2194 -0.6461
35697SOL    HW210494   9.094   0.354   7.573 -0.1211  0.3872  0.0664
35698SOL     OW10495   0.273   6.696   6.571 -0.0432 -0.5648  0.2812
35698SOL    HW110496   0.248   6.636   6.501  0.0371  0.5232 -0.7133
35698SOL    HW210497   0.217   6.671   6.645 -0.4165 -1.4753 -0.2857
35699SOL     OW10498   1.335  10.383   2.226 -0.6714  0.5128 -0.5304
35699SOL    HW110499   1.400  10.313   2.229 -2.0191 -0.7465  1.4088
35699SOL    HW210500   1.310  10.388   2.133 -0.1922 -1.2388 -0.7955
35700SOL     OW10501   5.237   7.419   4.433  0.0524  0.3350 -0.2868
35700SOL    HW110502   5.241   7.514   4.423 -0.2624  0.6269  1.8417
35700SOL    HW210503   5.325   7.394   4.462 -0.6231  0.4331  2.0233
35701SOL     OW10504   3.148   3.335   9.533  0.0841  0.1292  0.6621
35701SOL    HW110505   3.234   3.375   9.546  1.0987 -1.4271 -0.6673
35701SOL    HW210506   3.127   3.295   9.617  0.9711  0.0323  0.8547
35702SOL     OW10507   6.264   4.041   3.454  0.0822  0.5342 -0.5828
35702SOL    HW110508   6.280   4.079   3.367  0.8175 -0.9758 -1.1365
35702SOL    HW210509   6.225   3.956   3.435  0.5543  0.0527  0.5618
35703SOL     OW10510   5.005   8.183   3.882 -0.7380  0.7792 -0.4633
35703SOL    HW110511   5.055   8.258   3.848 -2.3121  1.5779 -1.1517
35703SOL    HW210512   5.019   8.114   3.816  1.0606  0.2613  0.3845
35704SOL     OW10513  10.301   1.049   7.248  0.0662 -0.7006 -0.0300
35704SOL    HW110514  10.265   1.138   7.247 -2.4501 -1.5973  1.1664
35704SOL    HW210515  10.271   1.009   7.166 -1.3488 -1.2704  0.7146
35705SOL     OW10516   7.169   1.511   0.451  0.0403 -0.4575 -0.0502
35705SOL    HW110517   7.123   1.548   0.527  2.6130 -0.2132  1.4912
35705SOL    HW210518   7.188   1.421   0.477  0.7429 -0.4464 -0.5131
35706SOL     OW10519   1.529   4.095   6.351 -0.9480 -0.0275 -0.0151
35706SOL    HW110520   1.560   4.006   6.369  0.0707  0.1911 -0.6013
35706SOL    HW210521   1.561   4.114   6.263 -1.5707  0.7440 -0.0851
35707SOL     OW10522   1.800  10.552  10.428  0.0767 -0.4420 -0.4410
35707SOL    HW110523   1.854  10.630  10.434 -0.4982 -0.0664  0.0479
35707SOL    HW210524   1.726  10.569  10.487 -2.3419  0.4993 -3.4347
35708SOL     OW10525   6.574   0.503   2.657 -0.3236 -0.5209  0.2168
35708SOL    HW110526   6.666   0.480   2.652  0.1801  0.6633  2.4251
35708SOL    HW210527   6.564   0.578   2.598  0.4115  0.0369  0.7798
35709SOL     OW10528   0.965   8.252   3.307  0.0417 -0.2409 -0.2725
35709SOL    HW110529   0.902   8.188   3.273 -1.2519  0.7080  0.2367
35709SOL    HW210530   0.948   8.331   3.255 -0.8520  0.7335  1.4174
35710SOL     OW10531   0.726   0.767   9.975  0.2530 -0.1341 -0.3223
35710SOL    HW110532   0.776   0.834  10.021  0.9563 -0.2541 -0.9067
35710SOL    HW210533   0.681   0.815   9.905 -1.9276  0.3101  1.2367
35711SOL     OW10534   0.061   4.323  10.900 -0.1081 -0.0606 -0.0115
35711SOL    HW110535   0.127   4.267  10.858 -2.1176 -1.4230 -1.6052
35711SOL    HW210536   0.093   4.412  10.888  2.5076 -0.7203  1.3141
35712SOL     OW10537   8.510   8.743   6.683  0.2031 -0.3541 -0.0317
35712SOL    HW110538   8.558   8.822   6.660 -0.0869 -0.2918 -0.4401
35712SOL    HW210539   8.431   8.746   6.629 -0.0169 -0.7080  0.2596
35713SOL     OW10540   2.859   7.786   0.351 -0.2172 -0.5724 -0.4714
35713SOL    HW110541   2.948   7.753   0.336  0.9565  1.8664  0.7014
35713SOL    HW210542   2.834   7.748   0.436  1.1146  1.3750  0.8604
35714SOL     OW10543   3.707   6.536  10.556 -0.0150  0.4162  0.0742
35714SOL    HW110544   3.784   6.571  10.601 -0.5456  1.5129  0.1590
35714SOL    HW210545   3.742   6.495  10.478  0.6006  1.6854 -0.3509
35715SOL     OW10546   7.236   2.509   3.170  0.0596  0.0027  0.1417
35715SOL    HW110547   7.292   2.499   3.093  1.6089 -0.6050  1.2743
35715SOL    HW210548   7.200   2.597   3.163  1.9065  0.7735 -0.1878
35716SOL     OW10549   5.726   2.329   4.311 -0.4208 -0.6134  0.6275
35716SOL    HW110550   5.717   2.409   4.258  2.0242 -0.1497  0.8020
35716SOL    HW210551   5.694   2.355   4.397 -2.2858 -0.6990  0.0051
35717SOL     OW10552   0.162   4.472   3.204 -0.0286 -0.3869 -0.0316
35717SOL    HW110553   0.083   4.512   3.168 -1.4721 -1.9195  1.2818
35717SOL    HW210554   0.180   4.520   3.284 -0.8173 -1.2774  0.7000
35718SOL     OW10555   0.510   4.732   1.338 -0.3049 -0.1513  0.2179
35718SOL    HW110556   0.575   4.771   1.279  1.5962 -1.8884  1.0230
35718SOL    HW210557   0.430   4.726   1.286 -0.5134  3.8294 -0.2480
35719SOL     OW10558   9.356   6.091   8.161 -0.2274  0.2853  0.1212
35719SOL    HW110559   9.452   6.087   8.157 -0.0147 -0.1846  3.3192
35719SOL    HW210560   9.337   6.178   8.197 -0.8775 -0.2476  1.1108
35720SOL     OW10561   4.289   2.643   2.968  0.0840 -0.2320 -0.1290
35720SOL    HW110562   4.225   2.586   2.925 -1.1488  0.7108  0.3990
35720SOL    HW210563   4.292   2.611   3.058 -0.8942  0.7178  0.2691
35721SOL     OW10564   2.059   8.773   1.624 -0.0139 -0.0041 -0.5661
35721SOL    HW110565   2.049   8.690   1.671  1.6616 -0.6573 -1.2577
35721SOL    HW210566   1.993   8.770   1.555 -0.7930 -0.1770  0.1646
35722SOL     OW10567   7.665  10.322   7.151  0.2637  0.1720  0.5207
35722SOL    HW110568   7.651  10.289   7.240  0.2768  0.4193  0.6159
35722SOL    HW210569   7.649  10.416   7.158 -0.7013  0.0572  0.0573
35723SOL     OW10570   3.627   5.406   8.635 -0.1616  0.3657  0.0447
35723SOL    HW110571   3.624   5.467   8.709  1.2812  0.5206 -0.0112
35723SOL    HW210572   3.715   5.415   8.600  0.0211 -1.6114 -0.0915
35724SOL     OW10573   8.544   0.996   4.730 -0.4172  0.0114  0.2610
35724SOL    HW110574   8.551   0.982   4.635  0.3662 -1.2614  0.4825
35724SOL    HW210575   8.619   0.948   4.767 -0.1491  1.2911  1.4607
35725SOL     OW10576   7.872   1.435   7.385  0.1084 -0.8618 -0.2245
35725SOL    HW110577   7.784   1.467   7.402 -1.1441 -3.8776 -0.3927
35725SOL    HW210578   7.869   1.401   7.296  1.6754 -0.3317 -0.5106
35726SOL     OW10579   8.210   8.501   1.416 -0.3235 -0.2095 -0.1472
35726SOL    HW110580   8.276   8.450   1.369 -0.1114 -0.4146  0.3725
35726SOL    HW210581   8.255   8.583   1.439 -0.5302  0.0372 -0.5854
35727SOL     OW10582   5.249   3.186   1.325 -0.8118 -0.4363 -0.4427
35727SOL    HW110583   5.205   3.237   1.394 -0.8949  0.1947 -0.9564
35727SOL    HW210584   5.243   3.240   1.247  2.4658  0.5584 -0.1699
35728SOL     OW10585   6.044   5.621   9.069  0.1450  0.3425 -0.7433
35728SOL    HW110586   5.952   5.612   9.095  0.1974  0.5135 -0.5043
35728SOL    HW210587   6.069   5.708   9.098  0.5414  0.0918 -0.3278
35729SOL     OW10588   5.864   3.769   2.645 -0.4161 -0.3574 -0.2179
35729SOL    HW110589   5.835   3.746   2.557 -1.2418 -0.2422  0.0169
35729SOL    HW210590   5.863   3.687   2.694  0.0828 -0.4289 -0.3206
35730SOL     OW10591   5.144   2.180   8.822 -0.6458 -0.2016 -0.1311
35730SOL    HW110592   5.146   2.236   8.744  1.8460  2.0127  1.3764
35730SOL    HW210593   5.112   2.236   8.892  2.3127 -0.3381  1.5238
35731SOL     OW10594   7.549   8.297   8.487 -0.4033 -0.4713 -0.4122
35731SOL    HW110595   7.548   8.225   8.423 -0.6752 -1.5051  0.7194
35731SOL    HW210596   7.580   8.256   8.568 -2.0909  0.3312  0.6811
35732SOL     OW10597   9.296   3.710   4.134  0.0718 -0.1385 -0.0752
35732SOL    HW110598   9.264   3.620   4.140 -0.0078 -0.0841  0.3529
35732SOL    HW210599   9.229   3.762   4.178  0.7530 -0.0275  0.8735
35733SOL     OW10600   7.500   2.149   9.347  0.1061  0.4688  0.4492
35733SOL    HW110601   7.567   2.210   9.316 -1.0700  1.2988 -0.5735
35733SOL    HW210602   7.488   2.088   9.273 -1.9506  1.7994 -0.4016
35734SOL     OW10603  10.821   5.806   9.789  0.2364 -0.3792 -0.0245
35734SOL    HW110604  10.754   5.874   9.785 -0.6379 -1.2873 -1.4218
35734SOL    HW210605  10.903   5.854   9.804 -0.2949  1.0236 -1.3467
35735SOL     OW10606   1.010   4.166   3.948 -0.3120  0.0729  0.1429
35735SOL    HW110607   1.018   4.197   3.858  0.9132  0.3276  0.3203
35735SOL    HW210608   1.060   4.229   4.000 -0.7024 -0.2738  0.9557
35736SOL     OW10609   2.589   2.099   8.955  0.2900  0.2730  0.4056
35736SOL    HW110610   2.501   2.124   8.925 -0.2387  0.0466  1.7250
35736SOL    HW210611   2.596   2.137   9.043  0.7240 -1.4503  1.1424
35737SOL     OW10612   4.860   4.212   0.442  0.1354 -0.6132 -0.2241
35737SOL    HW110613   4.850   4.142   0.377 -1.1172 -1.1115  0.4789
35737SOL    HW210614   4.840   4.292   0.394 -0.9887 -0.9953 -0.4322
35738SOL     OW10615   7.203   6.475   3.769  0.5847  0.0074 -0.1004
35738SOL    HW110616   7.246   6.498   3.851 -3.6162  2.2928  1.7640
35738SOL    HW210617   7.183   6.381   3.777  1.3901 -0.0930  0.8503
35739SOL     OW10618   3.665   5.939   2.434 -0.1983  0.0532  0.6603
35739SOL    HW110619   3.603   5.907   2.500  0.7234 -1.6573  0.7756
35739SOL    HW210620   3.748   5.895   2.456  0.9742  1.9640  0.2898
35740SOL     OW10621   3.085   5.104  10.410 -0.5324 -0.3126  0.8173
35740SOL    HW110622   3.178   5.130  10.406 -0.6407 -0.1331 -1.8506
35740SOL    HW210623   3.043   5.153  10.340 -2.4626 -1.2551  1.2489
35741SOL     OW10624   3.342   1.272   1.812 -0.1908 -0.0689 -0.3220
35741SOL    HW110625   3.360   1.248   1.903 -2.9112 -1.4427 -0.0185
35741SOL    HW210626   3.398   1.214   1.760  0.7051  0.0825  0.4506
35742SOL     OW10627   5.523   2.291  10.847  0.1920 -0.4765  0.8745
35742SOL    HW110628   5.468   2.355  10.803  0.1664  0.6389  2.4633
35742SOL    HW210629   5.504   2.302  10.940  3.4848  0.3702  1.5549
35743SOL     OW10630   3.539   3.984   7.124  0.4210  0.2204  0.3450
35743SOL    HW110631   3.530   3.892   7.100  2.0422  0.3020 -0.7657
35743SOL    HW210632   3.630   4.005   7.105 -0.2793  2.4602 -0.9201
35744SOL     OW10633   7.100   1.546   2.246 -0.2276  0.0338  0.4184
35744SOL    HW110634   7.169   1.565   2.310  1.1173 -0.5486 -0.8133
35744SOL    HW210635   7.020   1.579   2.287  0.5676 -0.3651  2.4269
35745SOL     OW10636   7.186  10.294   7.295 -0.1986 -0.4901 -0.0524
35745SOL    HW110637   7.251  10.272   7.228 -1.0105 -1.6420 -0.4804
35745SOL    HW210638   7.202  10.387   7.314  0.9978 -0.5291 -0.7666
35746SOL     OW10639   6.233   9.237   5.609  0.5776 -0.2401 -0.5399
35746SOL    HW110640   6.314   9.221   5.560 -0.0316 -0.2893 -1.5440
35746SOL    HW210641   6.199   9.150   5.627  1.2064 -0.2547  0.7013
35747SOL     OW10642   3.570   2.856   8.086  0.3082 -0.0097 -0.3208
35747SOL    HW110643   3.498   2.918   8.075  1.5031  1.3002 -1.2284
35747SOL    HW210644   3.611   2.852   8.000  0.3614 -1.9916 -0.2445
35748SOL     OW10645   3.893   4.348   6.526  0.1584  0.3375  0.3996
35748SOL    HW110646   3.901   4.394   6.609  0.2346  0.3358  0.3935
35748SOL    HW210647   3.810   4.377   6.490  0.4319  0.8409  0.1681
35749SOL     OW10648   6.017   1.448   3.856  0.5002  0.2557  0.3179
35749SOL    HW110649   6.068   1.529   3.847 -0.2405  0.5533 -1.6226
35749SOL    HW210650   5.926   1.479   3.862  0.2818 -0.4071  0.4402
35750SOL     OW10651   2.563   1.525   5.272  0.4523  0.0006  0.3694
35750SOL    HW110652   2.508   1.599   5.296 -0.1737 -0.7114  1.1770
35750SOL    HW210653   2.504   1.465   5.226  0.5431 -0.7469  1.1980
35751SOL     OW10654   5.222   4.086  10.276 -0.3383 -0.7099 -0.0686
35751SOL    HW110655   5.150   4.062  10.335 -0.2007 -0.1421  0.3394
35751SOL    HW210656   5.179   4.107  10.193 -0.7044  0.1302  0.3216
35752SOL     OW10657   4.226   2.470   9.889  0.1689  0.0682 -0.7728
35752SOL    HW110658   4.162   2.505   9.952 -0.5605  0.8498 -1.9186
35752SOL    HW210659   4.172   2.431   9.820  0.9381  0.6024 -1.6853
35753SOL     OW10660   8.678   5.320   6.508  0.4173  0.1577 -0.2514
35753SOL    HW110661   8.724   5.313   6.592  0.7380 -0.4427 -0.4710
35753SOL    HW210662   8.629   5.402   6.515  2.1449  1.2362 -0.3319
35754SOL     OW10663   1.608   4.294  10.289 -0.0553 -0.0360 -0.0109
35754SOL    HW110664   1.656   4.246  10.356  0.2045 -2.0873 -1.5843
35754SOL    HW210665   1.521   4.306  10.326  0.5291  0.3205  1.3176
35755SOL     OW10666   1.912   2.149  10.231  0.4946  0.2680 -0.6808
35755SOL    HW110667   1.826   2.139  10.272  1.1919 -0.5160  0.6454
35755SOL    HW210668   1.940   2.059  10.213  0.9934  0.5243 -1.2155
35756SOL     OW10669   2.519   3.166   8.654  0.0967  0.0110 -0.1655
35756SOL    HW110670   2.554   3.162   8.565 -0.6437  1.1339 -0.5345
35756SOL    HW210671   2.555   3.246   8.691  1.4731 -1.1288  1.0506
35757SOL     OW10672  10.714   7.092   5.410  0.0169 -0.1691 -0.2809
35757SOL    HW110673  10.645   7.132   5.356  1.0988  2.2441 -0.0027
35757SOL    HW210674  10.693   7.118   5.499  2.3555  2.5739 -0.3780
35758SOL     OW10675   2.604   8.079   4.454 -0.0016 -0.4217  0.1975
35758SOL    HW110676   2.607   7.989   4.486  0.0220 -0.9332 -1.1494
35758SOL    HW210677   2.688   8.090   4.409  0.2849  0.5166  0.9454
35759SOL     OW10678   2.804  10.657   7.400 -0.0629  0.3328 -0.1280
35759SOL    HW110679   2.749  10.735   7.390  1.1681  1.3024  0.3952
35759SOL    HW210680   2.747  10.593   7.444 -1.5930  0.3340 -1.9856
35760SOL     OW10681   1.810  10.178   5.372 -0.2932 -0.1621  0.5156
35760SOL    HW110682   1.842  10.206   5.457  1.1601 -0.6138  0.1404
35760SOL    HW210683   1.753  10.103   5.391 -1.8516  1.1363  1.2554
35761SOL     OW10684   0.713   7.731   6.682 -0.5709 -0.1305 -0.1592
35761SOL    HW110685   0.755   7.781   6.612 -1.1294 -0.6306 -0.8544
35761SOL    HW210686   0.786   7.690   6.728 -0.1344  0.9043  0.1137
35762SOL     OW10687   0.726   6.613   0.036  0.0995 -0.1903  0.7771
35762SOL    HW110688   0.673   6.534   0.022  1.6205 -1.2052  0.4457
35762SOL    HW210689   0.701   6.645   0.122 -0.7085 -0.9095  0.8185
35763SOL     OW10690   9.553   1.518   7.787  0.3537 -0.3313 -0.1011
35763SOL    HW110691   9.551   1.516   7.883 -0.7347 -1.6023 -0.1123
35763SOL    HW210692   9.479   1.463   7.761 -0.5742  1.5429 -1.6984
35764SOL     OW10693   5.891   3.768   5.764  0.3754  0.0360  0.0305
35764SOL    HW110694   5.871   3.683   5.804 -0.1103 -0.0391 -0.3668
35764SOL    HW210695   5.907   3.826   5.839 -1.8571  0.2259  0.4166
35765SOL     OW10696   4.780   2.175   8.642 -0.1638  0.2931 -0.3383
35765SOL    HW110697   4.864   2.212   8.616 -0.9586  0.8770 -2.2383
35765SOL    HW210698   4.765   2.105   8.579 -0.1738 -1.2056  1.2617
35766SOL     OW10699   8.820   9.155   8.183  0.4436 -0.0396  0.4111
35766SOL    HW110700   8.839   9.231   8.238  2.5527 -0.9983  1.1267
35766SOL    HW210701   8.773   9.095   8.241 -3.7853  1.6715 -0.9068
35767SOL     OW10702   4.248   2.739   9.133 -0.2301  0.2834 -0.3396
35767SOL    HW110703   4.203   2.676   9.189  0.2995  0.1285 -0.0885
35767SOL    HW210704   4.182   2.807   9.116 -0.3869  0.3433  0.4848
35768SOL     OW10705   3.594   2.774   5.809 -0.2540 -0.3001  0.5183
35768SOL    HW110706   3.632   2.760   5.896  0.8874 -1.8532 -0.1785
35768SOL    HW210707   3.537   2.698   5.796 -0.0176 -0.3508 -0.2745
35769SOL     OW10708   3.451   2.945   6.710  0.3805  0.4107  0.6455
35769SOL    HW110709   3.546   2.943   6.697  0.6816 -1.6329  2.4938
35769SOL    HW210710   3.415   2.937   6.622  1.9211  0.5872 -0.0411
35770SOL     OW10711   7.465   2.762   8.563  0.9963 -0.1974 -0.6544
35770SOL    HW110712   7.465   2.857   8.565 -0.8742 -0.1647 -0.9376
35770SOL    HW210713   7.439   2.735   8.651  0.4597 -0.4153 -0.8748
35771SOL     OW10714   2.910   1.018   9.478  0.2329  0.5197  0.3130
35771SOL    HW110715   2.898   1.068   9.559  0.4556  1.4341 -0.2063
35771SOL    HW210716   2.996   0.977   9.488 -0.1456 -0.1367  0.9367
35772SOL     OW10717   2.418   2.567   3.302 -0.0211  0.5158 -0.3456
35772SOL    HW110718   2.478   2.642   3.307 -1.3737  1.5386  1.9940
35772SOL    HW210719   2.360   2.588   3.229  0.9241  0.6703 -1.0809
35773SOL     OW10720   0.597   5.991  10.384  0.2620  0.1221  0.3348
35773SOL    HW110721   0.514   6.038  10.388  0.7538  1.1535 -0.7679
35773SOL    HW210722   0.575   5.901  10.406 -1.2444  0.2581 -0.4927
35774SOL     OW10723   8.879  10.772   4.423  0.1852  0.2594  1.0418
35774SOL    HW110724   8.886  10.864   4.399  2.3791 -0.3233 -0.9054
35774SOL    HW210725   8.893  10.724   4.341  0.5964 -1.8416  2.2470
35775SOL     OW10726   8.860   1.679   6.660  0.0856 -0.0583 -0.0797
35775SOL    HW110727   8.851   1.656   6.753  2.6742 -1.3863 -0.0601
35775SOL    HW210728   8.953   1.698   6.650 -0.2030  0.3472 -2.3607
35776SOL     OW10729   8.648   7.645   3.657 -0.5938 -0.0764  0.7508
35776SOL    HW110730   8.661   7.551   3.664  2.3096  0.3000  2.0656
35776SOL    HW210731   8.699   7.671   3.581 -1.3056  0.4560  0.4437
35777SOL     OW10732   4.868   8.484  10.397  0.1429  0.2948  0.0235
35777SOL    HW110733   4.852   8.567  10.442  2.6978  1.3312 -0.7536
35777SOL    HW210734   4.960   8.490  10.370  0.3757 -2.7893 -0.1338
35778SOL     OW10735   0.477   0.939   5.350 -0.0155 -0.1332 -0.1100
35778SOL    HW110736   0.391   0.898   5.361 -0.6669  0.6009 -2.0886
35778SOL    HW210737   0.513   0.900   5.271  0.4173  1.2778 -0.6510
35779SOL     OW10738  10.060   8.166   7.521  0.0170  0.3457  0.3001
35779SOL    HW110739  10.016   8.139   7.601  0.9014 -2.7869 -0.1305
35779SOL    HW210740  10.006   8.131   7.450  1.5927 -1.0303 -0.2970
35780SOL     OW10741   6.530   4.032   8.701  0.0609  0.2364 -0.0052
35780SOL    HW110742   6.444   4.022   8.742  0.8841 -0.5041  1.6458
35780SOL    HW210743   6.565   3.943   8.698  0.7124  0.5043 -0.8442
35781SOL     OW10744   6.620  10.730   9.025  1.0559 -0.2270  0.0706
35781SOL    HW110745   6.683  10.770   8.965  0.8396  0.6954  0.4432
35781SOL    HW210746   6.660  10.740   9.111  0.7246 -0.2810  0.2312
35782SOL     OW10747   2.104   7.662   3.666 -0.2849 -0.5473  0.5315
35782SOL    HW110748   2.038   7.619   3.612 -0.2564  0.6701 -0.5170
35782SOL    HW210749   2.061   7.741   3.698  0.4848 -0.0250  0.2967
35783SOL     OW10750   3.118   8.306   9.791 -0.2291 -0.3183  0.5271
35783SOL    HW110751   3.196   8.276   9.745  1.9645  1.1561  2.9794
35783SOL    HW210752   3.148   8.380   9.844 -2.9748 -0.5858  2.7187
35784SOL     OW10753   0.265   4.315   5.470 -0.1855 -0.0734  0.1740
35784SOL    HW110754   0.225   4.241   5.425 -0.3758 -0.7799  1.4557
35784SOL    HW210755   0.274   4.382   5.403 -0.7540 -0.9724 -0.8276
35785SOL     OW10756   8.476   3.447  10.500 -0.3725  0.0206  0.0153
35785SOL    HW110757   8.390   3.487  10.489  0.2879  1.4469 -0.2228
35785SOL    HW210758   8.476   3.414  10.589 -1.0573  0.3069  0.1297
35786SOL     OW10759   7.690  10.168  10.238 -0.2229 -0.3072 -0.0529
35786SOL    HW110760   7.665  10.258  10.257  0.0106 -0.2186 -0.1605
35786SOL    HW210761   7.739  10.174  10.156 -1.3267 -0.6887 -0.7660
35787SOL     OW10762   8.995   8.873   6.794  0.1886 -0.1425  0.4265
35787SOL    HW110763   9.029   8.949   6.840 -1.0112  0.5228  0.2604
35787SOL    HW210764   9.035   8.876   6.708 -1.2814  1.4312 -0.2613
35788SOL     OW10765   8.092   4.398   8.699 -0.1954  0.8477  0.0161
35788SOL    HW110766   8.179   4.402   8.659  0.7234  0.5499  1.8639
35788SOL    HW210767   8.046   4.329   8.650  1.9622 -1.7491  1.3419
35789SOL     OW10768   4.768   1.204   0.556 -0.2198  0.4378  0.4816
35789SOL    HW110769   4.820   1.284   0.555  0.7348 -0.1565 -1.1830
35789SOL    HW210770   4.693   1.224   0.499 -0.9650  0.7479  1.5563
35790SOL     OW10771   1.723   9.898   2.740  0.2805 -0.7335 -0.1577
35790SOL    HW110772   1.684   9.952   2.809  2.1756  1.1423 -0.4511
35790SOL    HW210773   1.651   9.879   2.680 -0.9038 -0.4563  1.1251
35791SOL     OW10774  10.019   7.275   2.440 -0.0569  0.4492  0.1042
35791SOL    HW110775  10.027   7.288   2.346  0.7299  1.0459  0.2368
35791SOL    HW210776   9.987   7.186   2.450  0.9941 -0.0365 -0.7014
35792SOL     OW10777   8.575   9.182   2.301  0.0691  0.0529  0.1038
35792SOL    HW110778   8.498   9.192   2.245 -0.1057  0.4000  0.3971
35792SOL    HW210779   8.559   9.100   2.348 -1.1243  1.1038  1.6530
35793SOL     OW10780   4.050   3.910   8.547  0.4098 -0.5161 -0.2969
35793SOL    HW110781   4.141   3.939   8.539  0.4011 -0.5053 -0.3576
35793SOL    HW210782   4.022   3.942   8.633  0.4159 -0.3883 -0.3415
35794SOL     OW10783   0.273   0.285   6.246  0.3389 -0.1169  0.5800
35794SOL    HW110784   0.182   0.276   6.219  0.8807 -2.6118 -0.6680
35794SOL    HW210785   0.281   0.227   6.322  1.0882 -0.6951  0.0710
35795SOL     OW10786   2.439   9.876   2.557 -0.7528 -0.0325  0.5047
35795SOL    HW110787   2.427   9.811   2.626  2.0930 -1.5624 -0.2667
35795SOL    HW210788   2.353   9.883   2.515 -1.7974 -1.2619  2.3106
35796SOL     OW10789   1.361   9.762   8.348  0.2505 -0.6252  0.2143
35796SOL    HW110790   1.333   9.850   8.372  3.2794  0.8127 -1.0336
35796SOL    HW210791   1.332   9.751   8.258  2.0116  0.1737 -0.4895
35797SOL     OW10792   0.966   4.602   2.467 -0.0444  0.5997  0.3671
35797SOL    HW110793   0.942   4.687   2.432  0.3493  0.0408 -1.3407
35797SOL    HW210794   1.026   4.565   2.402  1.3300 -0.1840  2.0113
35798SOL     OW10795   9.514  10.055   2.118  0.4717 -0.2280  0.7146
35798SOL    HW110796   9.559  10.122   2.169 -1.2042  0.4145  1.4033
35798SOL    HW210797   9.429  10.046   2.160 -1.1432  0.5499 -2.1339
35799SOL     OW10798   1.379   4.884   9.428 -0.2524 -0.3356  0.3685
35799SOL    HW110799   1.461   4.841   9.452 -0.5520 -0.4940  1.1327
35799SOL    HW210800   1.372   4.872   9.334  1.3944  1.0692  0.0329
35800SOL     OW10801   2.337   4.826   2.490  0.0994 -0.4212  0.4545
35800SOL    HW110802   2.242   4.824   2.503  0.1461  1.3869  1.5058
35800SOL    HW210803   2.372   4.777   2.564 -0.0062 -3.6264 -1.4402
35801SOL     OW10804   1.744   6.036   5.459  0.2784  0.0464 -0.2759
35801SOL    HW110805   1.691   6.089   5.519  1.2812  0.4711  0.2717
35801SOL    HW210806   1.834   6.049   5.490  0.6180 -1.4313 -0.5707
35802SOL     OW10807   0.189   1.704   7.584  0.0448  0.0377  0.4252
35802SOL    HW110808   0.280   1.685   7.606  0.1341  0.4005  0.3817
35802SOL    HW210809   0.146   1.713   7.669  0.0254 -0.2446  0.4455
35803SOL     OW10810   8.358   8.964   4.489 -0.2581  0.7379  0.3458
35803SOL    HW110811   8.446   8.993   4.512 -0.3653  0.2910  1.3827
35803SOL    HW210812   8.358   8.960   4.393  0.8951  0.5710  0.3421
35804SOL     OW10813   9.583   9.066   6.290  0.4755  0.3261 -0.5941
35804SOL    HW110814   9.541   9.071   6.204 -1.0037 -1.6201 -0.0780
35804SOL    HW210815   9.520   9.105   6.350 -0.5863 -2.3085  0.1443
35805SOL     OW10816   3.437   1.972   0.546 -0.4161  0.0051 -0.3534
35805SOL    HW110817   3.510   1.963   0.485  1.8432 -3.1744  2.4543
35805SOL    HW210818   3.473   2.024   0.618 -2.0426  1.1509 -0.3294
35806SOL     OW10819   0.776   1.256   9.868  0.2500  0.1186  0.4169
35806SOL    HW110820   0.768   1.181   9.926  0.0788 -0.2496 -0.0684
35806SOL    HW210821   0.836   1.227   9.799  1.0312  0.8023  0.8014
35807SOL     OW10822   7.069   8.249  10.151 -0.5259  0.0411 -0.1743
35807SOL    HW110823   7.108   8.161  10.154 -1.5537 -0.5221 -1.7796
35807SOL    HW210824   7.090   8.281  10.063  0.2174  1.6104  0.5536
35808SOL     OW10825  10.571   8.028   8.776 -0.5943  0.6517 -0.1554
35808SOL    HW110826  10.649   8.048   8.828 -0.5411  1.0027 -0.3635
35808SOL    HW210827  10.511   7.985   8.837 -0.2274  0.3492 -0.0028
35809SOL     OW10828   7.894   4.843   6.408  0.2148  0.3221  0.0364
35809SOL    HW110829   7.843   4.798   6.475  1.8029 -0.1531  0.9892
35809SOL    HW210830   7.882   4.789   6.329  0.0703 -0.3572  0.5114
35810SOL     OW10831   3.100   3.928   0.599 -0.2605 -0.2476  0.2303
35810SOL    HW110832   3.180   3.981   0.597  0.1933 -0.8708  1.0128
35810SOL    HW210833   3.039   3.974   0.541  0.5876  0.3598 -0.2108
35811SOL     OW10834   0.114   1.824   3.721 -0.2441 -0.1483  0.6923
35811SOL    HW110835   0.044   1.835   3.785  0.9418  2.6902  1.6624
35811SOL    HW210836   0.193   1.810   3.774  0.2543 -1.3995 -0.3178
35812SOL     OW10837   8.670   4.310   1.998  0.3650 -0.0050  0.0346
35812SOL    HW110838   8.657   4.317   1.903  0.0261  0.3764  0.1054
35812SOL    HW210839   8.701   4.396   2.024 -1.9509  0.7243  0.6334
35813SOL     OW10840   3.088   3.690   3.410 -0.1340 -0.6918  0.1180
35813SOL    HW110841   3.119   3.718   3.495  0.3770 -1.3067  0.1407
35813SOL    HW210842   2.996   3.666   3.425 -0.1081 -0.5908  0.4451
35814SOL     OW10843   7.652   4.322   5.758  0.3915  0.3471 -0.0926
35814SOL    HW110844   7.601   4.336   5.679 -1.4476 -0.5022  0.8847
35814SOL    HW210845   7.698   4.240   5.743  1.1888  0.9157 -0.8269
35815SOL     OW10846   3.992   1.068   0.893  0.0348  0.4807  0.1485
35815SOL    HW110847   4.079   1.053   0.931 -1.2213 -1.2975  2.6562
35815SOL    HW210848   3.943   0.989   0.916 -2.2226  1.3731 -1.3302
35816SOL     OW10849   7.988   3.732   2.715 -0.1897  0.4439  0.1873
35816SOL    HW110850   7.969   3.685   2.797 -0.1885  1.0903  0.5669
35816SOL    HW210851   8.017   3.819   2.744 -0.1798  0.6728 -0.5023
35817SOL     OW10852   5.284   4.220   0.393  0.2109 -0.1562  0.7684
35817SOL    HW110853   5.230   4.230   0.472 -2.1456 -1.2498 -0.5961
35817SOL    HW210854   5.257   4.135   0.357  0.9741  0.4648 -1.3808
35818SOL     OW10855   4.828   7.189   8.197  0.1652  0.1660  0.2871
35818SOL    HW110856   4.857   7.271   8.238  0.5227  0.5918 -0.7813
35818SOL    HW210857   4.734   7.186   8.214  0.3305  0.2560  1.2579
35819SOL     OW10858   6.248   4.979   1.218  0.2220 -0.1227  0.6712
35819SOL    HW110859   6.339   4.979   1.249 -0.0686 -0.6390  1.5331
35819SOL    HW210860   6.256   4.975   1.123  1.1575  2.6006  0.5294
35820SOL     OW10861   1.008   6.067   5.804  0.4773 -0.7331  0.3250
35820SOL    HW110862   0.954   6.145   5.816 -0.7569 -1.4924 -0.0903
35820SOL    HW210863   1.091   6.088   5.847  0.3371  0.9621 -0.1773
35821SOL     OW10864   9.077   8.284   1.951 -0.3811 -1.0776  0.5020
35821SOL    HW110865   9.167   8.281   1.918 -0.8469 -1.9006 -0.7705
35821SOL    HW210866   9.067   8.373   1.984  0.7062 -0.7836  0.0949
35822SOL     OW10867   1.725   0.921   3.780 -0.3116 -0.2196 -0.0931
35822SOL    HW110868   1.641   0.884   3.752 -0.4235  0.7333 -1.0682
35822SOL    HW210869   1.777   0.845   3.807 -1.3001 -0.8693  0.0473
35823SOL     OW10870   9.603  10.375   3.699 -0.3027  0.0018  0.4642
35823SOL    HW110871   9.601  10.301   3.637  0.5278 -0.0279  0.4558
35823SOL    HW210872   9.689  10.369   3.740 -1.2006 -0.5640  2.3732
35824SOL     OW10873   0.257   2.565   7.812 -0.0626  0.1817  0.2820
35824SOL    HW110874   0.268   2.503   7.740 -3.2343  0.5871 -0.7006
35824SOL    HW210875   0.224   2.644   7.770 -2.0022  0.4307  2.1130
35825SOL     OW10876  10.500   6.977  10.151 -0.8110 -0.4336  0.3239
35825SOL    HW110877  10.562   6.906  10.134  1.1724  1.4124 -0.6371
35825SOL    HW210878  10.534   7.022  10.228  0.4211  1.9001 -1.4438
35826SOL     OW10879   5.998   3.813   0.595 -0.0439  0.2456  0.1601
35826SOL    HW110880   5.934   3.741   0.594 -0.5029  0.6321  0.6144
35826SOL    HW210881   5.960   3.879   0.537  0.7147 -0.1528 -0.7987
35827SOL     OW10882   3.352  10.891   3.662  0.0489  0.7120 -0.7849
35827SOL    HW110883   3.383  10.895   3.753 -0.8687 -0.1265 -0.4292
35827SOL    HW210884   3.358  10.982   3.632  0.3320  1.0087  0.1224
35828SOL     OW10885   5.050   7.530   2.779 -0.8443 -0.0427 -0.1282
35828SOL    HW110886   5.012   7.571   2.857  0.4774  1.7677 -0.3745
35828SOL    HW210887   5.137   7.502   2.807 -0.1527  1.0981 -1.0450
35829SOL     OW10888   4.554   9.090   3.251 -0.2556  0.3188  0.1297
35829SOL    HW110889   4.644   9.075   3.220 -0.3798 -0.5629  0.1632
35829SOL    HW210890   4.544   9.185   3.249  0.4907  0.4008 -0.4117
35830SOL     OW10891   7.587   4.206   1.240 -0.1938 -0.3234 -0.0450
35830SOL    HW110892   7.673   4.168   1.262 -0.4682 -0.2788  1.2146
35830SOL    HW210893   7.601   4.251   1.157  0.2732 -2.7804 -1.4094
35831SOL     OW10894  10.338  10.004   6.979 -0.0420  0.4181  0.4699
35831SOL    HW110895  10.351   9.990   7.073  0.3537 -0.0570  0.3485
35831SOL    HW210896  10.420  10.041   6.948  0.7632 -1.7359 -0.1293
35832SOL     OW10897   8.922   4.679   4.160 -0.1569 -0.4727 -0.1080
35832SOL    HW110898   8.983   4.643   4.095 -0.2274 -0.8134  0.0187
35832SOL    HW210899   8.875   4.604   4.194 -0.9790 -0.1595 -0.5350
35833SOL     OW10900  10.350   0.434   7.575  0.0582  0.5422  0.3829
35833SOL    HW110901  10.423   0.471   7.625  0.0088 -0.2947  1.0928
35833SOL    HW210902  10.307   0.510   7.536  1.4685  1.0374 -0.2805
35834SOL     OW10903   0.893   3.203   6.020  0.3206 -0.0677  0.9526
35834SOL    HW110904   0.898   3.228   6.112  1.6929  0.6800  0.7108
35834SOL    HW210905   0.902   3.286   5.972 -0.3697 -0.4421  0.1368
35835SOL     OW10906  10.513   6.906   8.577  0.0642  0.0266  0.3173
35835SOL    HW110907  10.477   6.825   8.540 -2.6767  1.2946 -0.0843
35835SOL    HW210908  10.455   6.924   8.652  1.4919  0.9124  1.2411
35836SOL     OW10909   3.447   8.421   9.726 -0.3488 -0.9270  0.1616
35836SOL    HW110910   3.540   8.402   9.743 -0.4283  0.2292  2.1532
35836SOL    HW210911   3.439   8.415   9.631  2.0716  0.2297 -0.1967
35837SOL     OW10912   8.558   6.408   6.916  0.2549  0.0471 -0.8767
35837SOL    HW110913   8.599   6.393   6.830 -0.3397  0.9276 -1.3288
35837SOL    HW210914   8.523   6.497   6.911  1.0948  0.4878  0.6567
35838SOL     OW10915   9.497  10.471   2.628  0.4362  0.0466  0.6820
35838SOL    HW110916   9.433  10.413   2.668 -0.8183  0.5852 -0.4489
35838SOL    HW210917   9.446  10.526   2.568  1.8532  0.9903  0.2708
35839SOL     OW10918   7.424  10.084   1.011 -0.4869 -0.0003  0.0315
35839SOL    HW110919   7.478  10.017   1.052 -0.2974  0.2882  0.2624
35839SOL    HW210920   7.348  10.037   0.978  0.1089 -0.4932 -0.6928
35840SOL     OW10921   3.247   1.385   8.445 -0.0271 -0.0117 -0.3786
35840SOL    HW110922   3.282   1.306   8.486  0.7978  0.1624 -0.7385
35840SOL    HW210923   3.167   1.404   8.495  0.4867 -0.3047  0.5860
35841SOL     OW10924   9.141   2.047   0.734  0.0354  0.0804  0.3675
35841SOL    HW110925   9.231   2.070   0.712  0.0882 -0.5935 -0.1446
35841SOL    HW210926   9.118   2.107   0.805  1.2301 -0.4164  1.2022
35842SOL     OW10927   4.240   7.752  10.236  0.2115  0.4178 -0.2504
35842SOL    HW110928   4.172   7.688  10.257  0.4214  0.0518 -0.6791
35842SOL    HW210929   4.319   7.700  10.223  0.3730  0.7550 -0.6545
35843SOL     OW10930   6.947   8.034   5.191  0.3363  0.0063  0.3122
35843SOL    HW110931   6.936   8.126   5.165  0.4658  0.3654  1.4603
35843SOL    HW210932   7.031   8.033   5.236 -0.0776 -0.4933  1.0876
35844SOL     OW10933   8.532   2.916   6.322 -1.1106  1.3353 -0.1458
35844SOL    HW110934   8.579   2.881   6.246 -0.9791  1.5279 -0.1554
35844SOL    HW210935   8.592   2.902   6.395 -0.0999  3.4730 -0.4726
35845SOL     OW10936   4.140   2.185   5.451  0.6396  0.3244  0.2298
35845SOL    HW110937   4.138   2.273   5.414  0.0920  0.4221  0.4862
35845SOL    HW210938   4.195   2.135   5.391 -2.3237 -0.2218 -2.2459
35846SOL     OW10939   9.799   0.605   4.635 -0.1073 -0.6595  0.0345
35846SOL    HW110940   9.872   0.567   4.684  1.0438 -0.7505 -1.6964
35846SOL    HW210941   9.810   0.699   4.643  0.3419 -0.6724 -0.4256
35847SOL     OW10942   9.954   7.871   7.051  0.0447  0.1896  0.1313
35847SOL    HW110943   9.915   7.819   7.122 -0.9037  1.4302  0.5483
35847SOL    HW210944   9.892   7.943   7.038 -0.0853 -0.3058 -2.3420
35848SOL     OW10945   3.019   3.600   1.980  0.6980 -1.1005 -0.3816
35848SOL    HW110946   3.017   3.661   2.054  1.5407 -2.0269  0.4373
35848SOL    HW210947   2.934   3.612   1.937  0.4674 -0.0535  0.3349
35849SOL     OW10948   6.881   8.492   1.475  0.0754 -0.3506 -0.5157
35849SOL    HW110949   6.797   8.462   1.440 -1.2449  0.8431  1.4057
35849SOL    HW210950   6.897   8.435   1.551 -0.0998  0.7598  0.3788
35850SOL     OW10951   7.343  10.809   6.862 -0.7962  0.0544 -0.0207
35850SOL    HW110952   7.299  10.880   6.816  0.1394  2.9720  3.1509
35850SOL    HW210953   7.288  10.790   6.938 -1.7677 -3.8422 -1.4522
35851SOL     OW10954   7.330   1.697   6.432  0.4994  0.1945  0.2145
35851SOL    HW110955   7.388   1.660   6.366 -0.2323 -3.7589  1.5480
35851SOL    HW210956   7.380   1.694   6.513 -0.5894 -0.6567  0.8829
35852SOL     OW10957   0.141   4.955   7.922 -0.0437 -0.2307  0.9159
35852SOL    HW110958   0.062   4.961   7.975 -0.7506 -0.3432 -0.0938
35852SOL    HW210959   0.173   4.866   7.935 -0.6602 -0.5108  0.5405
35853SOL     OW10960   9.638   2.655   9.919 -0.0525 -0.4959 -0.2992
35853SOL    HW110961   9.681   2.676  10.001  0.1508 -0.1749 -0.4840
35853SOL    HW210962   9.602   2.567   9.932 -1.4916  0.2187  0.7231
35854SOL     OW10963   5.933   1.857   2.615  0.2858 -0.2150  0.7223
35854SOL    HW110964   5.868   1.836   2.547 -0.5397  0.6202  1.2235
35854SOL    HW210965   6.015   1.822   2.581 -0.3807 -1.0876 -0.0454
35855SOL     OW10966   0.133   8.776   4.138 -0.0299 -0.3146  0.0702
35855SOL    HW110967   0.043   8.797   4.164 -0.1682 -0.4335 -0.3071
35855SOL    HW210968   0.125   8.696   4.087  0.3760 -0.7148  0.6226
35856SOL     OW10969   9.063   2.210   0.105 -0.0931  0.0701 -0.4453
35856SOL    HW110970   9.009   2.190   0.029  1.0287  1.3724 -1.6485
35856SOL    HW210971   9.060   2.131   0.158 -2.5506 -0.1548 -0.8058
35857SOL     OW10972   1.303   9.030   6.910 -0.6437 -0.0331 -0.3021
35857SOL    HW110973   1.211   9.044   6.889 -0.6660 -0.5260 -0.5610
35857SOL    HW210974   1.346   9.019   6.825 -0.4515 -0.3965 -0.1638
35858SOL     OW10975   5.006   8.555   8.473  0.2215  0.5105  0.2769
35858SOL    HW110976   5.050   8.635   8.445  0.5660  0.2450  0.0514
35858SOL    HW210977   5.045   8.535   8.558  2.0443 -0.8299 -0.7928
35859SOL     OW10978   9.143   2.466   4.504  0.4727 -0.1367  0.2347
35859SOL    HW110979   9.191   2.470   4.586  0.5374  2.6187  0.1732
35859SOL    HW210980   9.074   2.401   4.519  1.4087 -0.8004  1.9063
35860SOL     OW10981   9.216   0.671   7.234 -0.2262 -0.2570 -0.2450
35860SOL    HW110982   9.231   0.583   7.199  0.6353  0.4865 -1.8091
35860SOL    HW210983   9.251   0.667   7.323  1.2970 -1.0552 -0.8485
35861SOL     OW10984   0.339   8.714   1.901  0.0325  0.3244  0.2454
35861SOL    HW110985   0.328   8.803   1.935 -1.1203  0.7544 -1.1479
35861SOL    HW210986   0.261   8.667   1.932  0.1620  0.0609  0.1731
35862SOL     OW10987   0.869  10.487   5.377 -0.1975  0.2661  0.4154
35862SOL    HW110988   0.796  10.430   5.354 -0.8332  0.2040  2.4059
35862SOL    HW210989   0.947  10.436   5.355 -0.7584 -0.6438  0.4721
35863SOL     OW10990   9.280   4.024   0.654 -0.2369  0.0247  0.0637
35863SOL    HW110991   9.267   4.088   0.724 -0.7336  2.3718 -2.0229
35863SOL    HW210992   9.217   3.955   0.673 -0.7406  0.8767  1.6506
35864SOL     OW10993   6.810   0.287   7.695  0.6129  0.7934  0.0640
35864SOL    HW110994   6.742   0.252   7.752 -0.8003  1.0758 -1.3841
35864SOL    HW210995   6.891   0.274   7.744 -0.0349 -2.6888  0.4448
35865SOL     OW10996   2.822   5.027   2.487  0.8039  0.3894  0.7346
35865SOL    HW110997   2.869   5.012   2.405  1.2246  1.6724  0.7205
35865SOL    HW210998   2.745   4.970   2.481  1.6382 -0.7238  0.1645
35866SOL     OW10999  10.286   8.992   0.970 -0.0674 -0.0205 -0.2933
35866SOL    HW111000  10.274   9.064   0.907 -0.9770  1.7412  1.7788
35866SOL    HW211001  10.201   8.983   1.013  0.7006 -0.7500  1.1298
35867SOL     OW11002   3.508  10.812   2.650 -0.0499 -0.2621  0.3442
35867SOL    HW111003   3.579  10.782   2.706  0.4567  0.0126 -0.1379
35867SOL    HW211004   3.514  10.757   2.572  1.7575  1.8666 -1.1646
35868SOL     OW11005   9.702   1.879   1.656  1.0241 -0.2011 -0.3802
35868SOL    HW111006   9.751   1.852   1.733  2.1425 -0.1370 -1.0469
35868SOL    HW211007   9.637   1.940   1.689  0.9762 -0.7631  0.6123
35869SOL     OW11008   3.016   0.347   2.858 -0.4457 -0.5454  0.3145
35869SOL    HW111009   2.952   0.413   2.831 -0.9060 -1.5056 -0.9982
35869SOL    HW211010   2.963   0.272   2.886  0.0952 -1.0394  0.0203
35870SOL     OW11011   9.335   8.574   9.324 -0.1965  0.2261  0.2991
35870SOL    HW111012   9.328   8.488   9.366  0.2973  1.3410  2.8962
35870SOL    HW211013   9.253   8.584   9.276 -0.1282 -1.8055 -0.3324
35871SOL     OW11014   3.274   6.874   7.929  0.3955 -0.4102  0.5233
35871SOL    HW111015   3.289   6.871   7.834  0.6761  1.3797  0.4674
35871SOL    HW211016   3.273   6.782   7.956 -2.7357 -1.1575 -1.6346
35872SOL     OW11017   7.003   5.071  10.072  0.2353 -0.0961  0.3406
35872SOL    HW111018   6.909   5.061  10.089  0.0796  0.2019 -0.3244
35872SOL    HW211019   7.009   5.147  10.014  0.7857 -0.8564 -0.6197
35873SOL     OW11020   9.806   6.712   4.207  0.2137  0.1304 -0.1479
35873SOL    HW111021   9.740   6.732   4.274 -0.5754  0.2733 -0.9588
35873SOL    HW211022   9.821   6.617   4.217  0.3604  0.2098  0.4538
35874SOL     OW11023   4.231   4.445   5.370  0.4189 -0.0535 -0.2199
35874SOL    HW111024   4.153   4.404   5.334 -2.7027  2.1321  3.3298
35874SOL    HW211025   4.235   4.531   5.326  0.4779  0.0649  0.0141
35875SOL     OW11026   8.985   7.983   7.091 -0.4608 -0.3222 -0.5481
35875SOL    HW111027   8.938   8.034   7.156  1.5092  0.6197  0.2323
35875SOL    HW211028   8.969   8.028   7.008 -2.3247 -1.0643 -0.6448
35876SOL     OW11029   9.069   6.047   5.522 -0.6843  0.0414  0.7561
35876SOL    HW111030   9.127   5.979   5.557  0.8266  0.8992  0.0111
35876SOL    HW211031   9.112   6.129   5.545  0.0150  0.6705 -2.3585
35877SOL     OW11032  10.545   8.037   3.261  0.5979 -0.0705  0.7348
35877SOL    HW111033  10.508   8.073   3.341 -0.8814 -0.8519  0.4342
35877SOL    HW211034  10.506   8.087   3.191 -1.4996 -2.1203  0.3099
35878SOL     OW11035   5.410   3.861   2.397  0.5202  0.1588 -0.1753
35878SOL    HW111036   5.447   3.822   2.317  1.3538  0.9540 -0.1850
35878SOL    HW211037   5.466   3.935   2.416 -0.1491  0.4518  0.7179
35879SOL     OW11038   0.617   2.086   4.171  0.2199 -0.3059 -0.5760
35879SOL    HW111039   0.652   2.137   4.098 -1.4136 -0.8812 -1.8328
35879SOL    HW211040   0.666   2.117   4.248 -0.9518  3.4601 -1.1537
35880SOL     OW11041   7.977   8.986   1.711 -0.4089  0.3336 -0.4715
35880SOL    HW111042   7.975   9.000   1.617  1.3366  1.1128 -0.4313
35880SOL    HW211043   8.024   9.062   1.746  2.6860 -1.8842  0.5756
35881SOL     OW11044   8.936   2.680   8.310 -0.1467 -0.2759 -0.4934
35881SOL    HW111045   8.903   2.769   8.312 -0.2365 -0.3029 -0.7037
35881SOL    HW211046   8.896   2.637   8.385  1.0285  0.2567  0.4725
35882SOL     OW11047  10.371   9.179   2.975 -0.1983  1.1952 -0.4616
35882SOL    HW111048  10.288   9.136   2.997  0.2692  0.8569  0.7174
35882SOL    HW211049  10.367   9.191   2.880 -1.4120  0.8016 -0.4782
35883SOL     OW11050   8.230   6.071   7.748 -0.3706 -0.2108 -0.2041
35883SOL    HW111051   8.237   5.976   7.747 -1.7628 -0.3424  0.5344
35883SOL    HW211052   8.255   6.096   7.837 -1.4265 -0.0372  0.0592
35884SOL     OW11053   2.037  10.791   8.274 -0.0479  0.2791  0.4618
35884SOL    HW111054   2.122  10.802   8.233  0.1756  1.0530  1.1124
35884SOL    HW211055   1.979  10.767   8.202  0.7487 -0.4336  0.0434
35885SOL     OW11056   4.491   1.850   9.239 -0.1830 -0.3201  0.5278
35885SOL    HW111057   4.569   1.816   9.194 -0.3317  0.9123 -0.7642
35885SOL    HW211058   4.425   1.857   9.169 -1.7905 -2.1559  1.7464
35886SOL     OW11059  10.451   6.037   2.350 -0.2945 -0.0287  0.6403
35886SOL    HW111060  10.497   6.100   2.406  3.0340 -0.6188 -1.1939
35886SOL    HW211061  10.375   6.086   2.317  0.1451  1.7709  2.1383
35887SOL     OW11062   7.427  10.035   1.758 -0.6266  0.1132 -0.5509
35887SOL    HW111063   7.376   9.972   1.809 -1.0872 -0.1989 -1.3720
35887SOL    HW211064   7.414  10.008   1.667  0.7710  0.2213 -0.7988
35888SOL     OW11065   7.463   7.330   3.124 -0.1969 -0.4042  0.1731
35888SOL    HW111066   7.526   7.402   3.132  0.7298 -0.9949 -1.3019
35888SOL    HW211067   7.396   7.363   3.064 -0.1939 -0.4682  0.1333
35889SOL     OW11068   4.909   0.187   2.604 -0.5008 -0.1941  0.4724
35889SOL    HW111069   4.991   0.209   2.561 -0.5083  1.5805  1.2581
35889SOL    HW211070   4.913   0.234   2.688 -3.0590  1.4625 -0.2140
35890SOL     OW11071   4.538   8.989   6.756 -0.7166  0.1976 -0.2986
35890SOL    HW111072   4.625   8.989   6.795 -0.8314 -1.2844  0.0519
35890SOL    HW211073   4.522   9.079   6.730  0.5249  0.6758  0.5265
35891SOL     OW11074   8.525   8.423   1.224 -0.2759 -0.6315 -0.0668
35891SOL    HW111075   8.618   8.404   1.219  0.1398  1.0424  0.6383
35891SOL    HW211076   8.485   8.367   1.158  1.2165 -1.4145 -0.3315
35892SOL     OW11077   7.835   3.789   3.030 -0.0682  0.4979 -1.1226
35892SOL    HW111078   7.745   3.792   3.062  0.1829 -2.1423  0.0949
35892SOL    HW211079   7.886   3.758   3.105  1.5274  0.0119 -2.3507
35893SOL     OW11080   3.880   2.417   9.212 -0.1961  0.1629  0.4030
35893SOL    HW111081   3.910   2.506   9.230 -0.8735  0.4138  0.3402
35893SOL    HW211082   3.942   2.383   9.147  0.4701  0.3371  0.9384
35894SOL     OW11083   2.065   6.329   6.261  0.3285 -0.0432  0.6252
35894SOL    HW111084   2.108   6.353   6.343 -0.1900 -0.4854  1.0343
35894SOL    HW211085   2.136   6.319   6.198  0.6111  2.6288  0.3771
35895SOL     OW11086   2.452   7.900   6.833 -0.3737  0.3659 -0.1523
35895SOL    HW111087   2.423   7.900   6.924 -2.9055 -1.3458 -0.8308
35895SOL    HW211088   2.476   7.809   6.815  0.3614  0.7308 -1.1332
35896SOL     OW11089   4.372   4.771   9.700  0.4357 -0.6740 -0.2363
35896SOL    HW111090   4.316   4.808   9.768 -2.2564 -3.9021 -0.4635
35896SOL    HW211091   4.458   4.762   9.743  0.6769  3.2203  0.5201
35897SOL     OW11092   9.856   6.574   6.311  0.6336  0.5170 -0.4579
35897SOL    HW111093   9.788   6.539   6.368  0.1339  0.7785 -0.8854
35897SOL    HW211094   9.918   6.502   6.300  0.4129  0.2693 -0.0816
35898SOL     OW11095   4.573   0.017   0.455 -0.4824 -0.7063 -0.0603
35898SOL    HW111096   4.621  -0.060   0.487  1.4203  0.8568  1.1146
35898SOL    HW211097   4.582   0.013   0.360  3.6025  0.3405  0.1140
35899SOL     OW11098   7.636   2.195   0.903  0.2816 -0.1782 -0.7451
35899SOL    HW111099   7.647   2.123   0.966 -0.2380 -1.3193 -1.9240
35899SOL    HW211100   7.704   2.258   0.928  1.6264 -1.6514 -0.4660
35900SOL     OW11101   9.968   9.512   9.675 -0.2292  0.3128 -0.2714
35900SOL    HW111102   9.927   9.451   9.613 -0.1244 -0.5782  0.5127
35900SOL    HW211103   9.902   9.580   9.689 -1.2672 -0.8228  0.5581
35901SOL     OW11104   2.345   1.200  10.603 -0.4612 -0.0057  0.2941
35901SOL    HW111105   2.415   1.162  10.550 -0.6765 -1.0174  0.7017
35901SOL    HW211106   2.347   1.293  10.582  0.4705 -0.1430 -0.3113
35902SOL     OW11107   6.255   8.066   0.808 -0.0882  0.1598  0.0096
35902SOL    HW111108   6.330   8.080   0.866 -0.1082  1.2594 -0.2030
35902SOL    HW211109   6.291   8.073   0.720 -0.1989 -0.7304 -0.1167
35903SOL     OW11110   5.824  10.396   7.084 -0.0322 -0.5084  0.4500
35903SOL    HW111111   5.846  10.397   6.990 -0.6745 -0.4432  0.2979
35903SOL    HW211112   5.904  10.366   7.126  0.7935  0.9706  0.0256
35904SOL     OW11113   6.926   7.814   1.704  0.9166 -0.5783 -0.3687
35904SOL    HW111114   6.839   7.847   1.683 -0.3922 -2.5881  1.4182
35904SOL    HW211115   6.985   7.860   1.645 -1.3451  0.8924 -1.5997
35905SOL     OW11116   3.800   4.674   8.848  0.5503  0.0888 -0.3768
35905SOL    HW111117   3.713   4.702   8.877  0.7847 -0.8683  1.3950
35905SOL    HW211118   3.837   4.630   8.924  2.4056  0.0420 -1.2620
35906SOL     OW11119   6.162   2.555   9.306  0.1921 -0.3112 -0.4668
35906SOL    HW111120   6.159   2.651   9.312 -0.0988 -0.3518  0.0394
35906SOL    HW211121   6.204   2.527   9.388 -1.0593 -0.6982  0.0583
35907SOL     OW11122   2.727   6.888   7.897  0.1382  0.3575 -0.4349
35907SOL    HW111123   2.689   6.957   7.951 -0.7583  0.3215 -1.0064
35907SOL    HW211124   2.748   6.931   7.814 -1.2391 -0.2267 -1.1161
35908SOL     OW11125   4.453   5.948   0.704  0.2782 -0.6254 -0.5643
35908SOL    HW111126   4.359   5.950   0.686  0.5515  0.3617 -1.9943
35908SOL    HW211127   4.459   5.933   0.799 -1.2609 -4.0875 -0.8594
35909SOL     OW11128   4.116   9.214   0.586  0.6269  0.0748  0.2231
35909SOL    HW111129   4.161   9.133   0.611  2.0226  0.9868  0.7779
35909SOL    HW211130   4.186   9.275   0.566 -0.1265  2.4340  3.7498
35910SOL     OW11131   0.482   9.030   8.609 -0.1399 -0.4661 -0.0546
35910SOL    HW111132   0.418   9.097   8.589 -1.7227 -1.6421  0.8468
35910SOL    HW211133   0.430   8.954   8.635  1.6071 -1.6909  0.0373
35911SOL     OW11134   7.050   2.590   5.214  0.1678 -0.1125  0.3111
35911SOL    HW111135   7.081   2.620   5.299  0.4460  0.2709  0.0796
35911SOL    HW211136   6.962   2.558   5.230  0.1058  0.2392  0.6881
35912SOL     OW11137   5.965   8.533   6.353  0.1048 -0.0029 -0.5242
35912SOL    HW111138   5.893   8.491   6.400  0.2127  0.1576 -0.2171
35912SOL    HW211139   6.042   8.519   6.409  0.6481 -1.5455 -1.5604
35913SOL     OW11140   1.883   4.524   3.558  0.0612 -0.4646 -0.2955
35913SOL    HW111141   1.907   4.511   3.649 -1.8402  1.0646  0.4889
35913SOL    HW211142   1.791   4.499   3.553  0.3061 -1.1910 -1.9762
35914SOL     OW11143   4.352   6.330   5.871 -0.0465 -0.6244  0.2544
35914SOL    HW111144   4.417   6.298   5.809 -0.2105 -0.7088  0.1224
35914SOL    HW211145   4.300   6.393   5.821  0.0315 -0.4396  0.4033
35915SOL     OW11146   6.025  10.659   6.839 -0.5160 -0.0508 -0.2384
35915SOL    HW111147   5.943  10.610   6.837  1.0400 -2.9649  1.2846
35915SOL    HW211148   6.094  10.592   6.840  1.9829  2.2448 -2.1229
35916SOL     OW11149   4.071   6.018   7.733 -0.3024 -0.1463 -0.0479
35916SOL    HW111150   4.134   6.055   7.795  0.7854  0.6883 -1.5621
35916SOL    HW211151   4.119   5.946   7.691 -0.7742 -0.2806 -0.3579
35917SOL     OW11152   6.128   8.982  10.454 -0.2679 -0.0301 -0.3070
35917SOL    HW111153   6.205   8.977  10.511 -0.8735  1.8083  0.7636
35917SOL    HW211154   6.114   8.892  10.424  1.9617 -0.4906 -0.1097
35918SOL     OW11155   0.224   1.142   4.752 -0.1189 -0.1955 -0.6830
35918SOL    HW111156   0.138   1.146   4.793  0.3566  3.0365  0.2817
35918SOL    HW211157   0.285   1.124   4.824  0.2518  0.6026 -0.7794
35919SOL     OW11158  10.084   9.358   8.659  0.0682  0.1678  0.1662
35919SOL    HW111159  10.172   9.385   8.634  0.5093 -0.1236  1.3557
35919SOL    HW211160  10.095   9.269   8.694 -0.9359 -0.4948 -1.1175
35920SOL     OW11161   1.958   5.000   4.365  0.3936  0.0119 -0.1967
35920SOL    HW111162   1.962   4.996   4.270 -2.4554 -1.0176 -0.3873
35920SOL    HW211163   1.972   5.093   4.386 -3.5261  1.2800 -2.1419
35921SOL     OW11164   4.514   2.723  10.542  0.4361  0.0067 -0.4952
35921SOL    HW111165   4.525   2.816  10.522  0.3922 -0.0042 -0.5712
35921SOL    HW211166   4.486   2.684  10.459  1.6043 -0.2727 -0.7707
35922SOL     OW11167   9.493  10.216   6.860  0.2100 -0.4303 -0.5296
35922SOL    HW111168   9.581  10.196   6.828  0.2105  0.8107 -1.3390
35922SOL    HW211169   9.460  10.284   6.801 -0.5663  0.4748  0.8895
35923SOL     OW11170   8.412   6.284   1.528 -0.4260  0.1424 -0.1243
35923SOL    HW111171   8.449   6.372   1.539 -1.3346  0.5593 -0.3227
35923SOL    HW211172   8.389   6.280   1.435  1.6505 -1.1369 -0.6446
35924SOL     OW11173  10.056   5.833   7.343  0.7340  0.3805 -0.5090
35924SOL    HW111174  10.102   5.843   7.261 -0.2087  2.1732 -0.8555
35924SOL    HW211175  10.105   5.885   7.406  0.6914  0.1189 -0.2548
35925SOL     OW11176   0.380   8.481   4.266 -0.1041 -0.3186  0.0416
35925SOL    HW111177   0.421   8.397   4.287  0.3011 -0.0234  0.4354
35925SOL    HW211178   0.308   8.458   4.207 -0.3561 -1.0085  0.6053
35926SOL     OW11179   8.217   4.246  10.290 -0.0427 -0.0821  0.1901
35926SOL    HW111180   8.268   4.174  10.326 -1.7790 -1.3283  0.2444
35926SOL    HW211181   8.278   4.292  10.232  1.2422 -1.2711  0.5637
35927SOL     OW11182   9.906   8.586   0.457 -0.3176 -0.0677 -0.5084
35927SOL    HW111183   9.925   8.500   0.495  2.0067 -0.7913 -2.9363
35927SOL    HW211184   9.811   8.587   0.446 -0.5032 -1.8952  0.5392
35928SOL     OW11185   1.947   0.087   7.200  0.6913 -0.8327  0.2699
35928SOL    HW111186   1.907   0.066   7.284 -1.6218  1.3244 -0.2013
35928SOL    HW211187   1.992   0.170   7.214  1.1971 -0.9836 -0.3773
35929SOL     OW11188   0.884   7.202   9.070  1.1941  0.2615 -0.1658
35929SOL    HW111189   0.841   7.284   9.046 -0.7101 -1.1183 -1.8553
35929SOL    HW211190   0.921   7.169   8.987  0.2087 -1.4873  0.0331
35930SOL     OW11191   8.038   6.188   8.170 -0.0120 -0.4486 -0.1448
35930SOL    HW111192   7.994   6.107   8.145  1.1672 -0.9461 -0.6571
35930SOL    HW211193   7.993   6.216   8.250 -0.8740 -1.2330 -0.3351
35931SOL     OW11194   3.759   0.718   8.247  0.5582  0.0264  0.1160
35931SOL    HW111195   3.784   0.757   8.164 -0.8211  0.3426 -0.1846
35931SOL    HW211196   3.827   0.744   8.308  2.8799 -2.0957 -1.3413
35932SOL     OW11197   6.803   2.842   0.097  0.5736  0.2834 -0.2579
35932SOL    HW111198   6.841   2.923   0.066  0.1522  0.2465 -0.8984
35932SOL    HW211199   6.833   2.775   0.035  2.3169 -0.3729  1.2245
35933SOL     OW11200   2.189   9.388   9.196  0.3641 -0.2619 -0.1427
35933SOL    HW111201   2.113   9.367   9.250 -0.4930  0.5237 -1.0134
35933SOL    HW211202   2.259   9.405   9.259  0.0458 -1.7641  0.6557
35934SOL     OW11203   4.731   8.862   5.201  0.1834 -0.3562 -0.4594
35934SOL    HW111204   4.765   8.800   5.136  1.5639  1.1839 -1.3042
35934SOL    HW211205   4.642   8.833   5.218  0.1048 -1.3839 -2.3471
35935SOL     OW11206   8.798   3.446   0.286  0.4028 -0.2100 -0.6402
35935SOL    HW111207   8.875   3.393   0.265  0.7225  0.2261 -0.5775
35935SOL    HW211208   8.750   3.394   0.350  3.1289  1.5832  3.1934
35936SOL     OW11209   3.653   4.210   2.091 -0.4967 -0.5650  0.3591
35936SOL    HW111210   3.577   4.206   2.149 -1.2228  1.5017 -0.3575
35936SOL    HW211211   3.616   4.228   2.004  0.8103  2.8197  0.3458
35937SOL     OW11212   4.709   7.469   6.661 -0.6696  0.5318 -0.2754
35937SOL    HW111213   4.786   7.494   6.712 -1.2432  0.2039  0.7801
35937SOL    HW211214   4.641   7.455   6.726 -1.7050  1.0824 -1.2134
35938SOL     OW11215   9.179   5.697  10.406 -0.0449 -0.1214 -0.0950
35938SOL    HW111216   9.100   5.694  10.351 -0.5120  0.1529  0.5376
35938SOL    HW211217   9.251   5.705  10.345 -0.3113 -2.6475 -0.8371
35939SOL     OW11218   4.521   2.182   8.836 -0.0224  0.0822 -0.1384
35939SOL    HW111219   4.494   2.257   8.889 -0.1993 -1.0315  1.4032
35939SOL    HW211220   4.565   2.221   8.760  0.0092  1.7393  0.6907
35940SOL     OW11221   2.223   5.673   3.765  0.3673 -0.4789 -0.0563
35940SOL    HW111222   2.212   5.663   3.860 -1.3765 -1.2815 -0.3089
35940SOL    HW211223   2.158   5.616   3.727 -0.1371  1.1206 -1.7463
35941SOL     OW11224   0.855   4.863   6.792  0.0782 -0.0526  0.4267
35941SOL    HW111225   0.771   4.886   6.752  0.2021 -0.6832 -0.2145
35941SOL    HW211226   0.835   4.849   6.885 -0.4335  0.2555  0.3634
35942SOL     OW11227   9.437   9.729   0.591 -0.2438  0.3928 -0.0209
35942SOL    HW111228   9.479   9.787   0.528 -1.9681  0.8459 -0.8133
35942SOL    HW211229   9.431   9.781   0.672  1.4275  0.0161  0.3939
35943SOL     OW11230   0.929  10.697  10.107 -0.2584 -0.9787 -1.1098
35943SOL    HW111231   0.944  10.784  10.143 -0.9149 -1.5222  0.6087
35943SOL    HW211232   1.017  10.663  10.090  0.0354 -0.2946 -0.9983
35944SOL     OW11233   2.809   6.443   0.167 -0.5865 -0.0560  0.3681
35944SOL    HW111234   2.847   6.355   0.157 -1.0804 -0.0686 -2.0578
35944SOL    HW211235   2.833   6.469   0.256  2.4954 -1.2881  0.0535
35945SOL     OW11236   8.292  10.206   1.711 -0.0298 -0.0501  0.3154
35945SOL    HW111237   8.385  10.201   1.692 -0.3086  1.8946 -2.0199
35945SOL    HW211238   8.257  10.122   1.680  0.5304  0.4948 -2.0069
35946SOL     OW11239   1.859   8.143  10.019 -0.0194 -0.2471  0.5644
35946SOL    HW111240   1.880   8.203  10.090 -1.5158 -2.1291  2.7399
35946SOL    HW211241   1.785   8.092  10.051 -0.4710 -1.5400 -2.1825
35947SOL     OW11242   4.969   1.089   9.723 -0.0303 -0.0801  0.6931
35947SOL    HW111243   4.904   1.120   9.787  0.3207 -0.6566  1.3464
35947SOL    HW211244   4.917   1.039   9.660 -0.7813  2.6838 -1.0423
35948SOL     OW11245   3.023   3.122   7.314  0.6570  0.1718  0.1530
35948SOL    HW111246   3.089   3.099   7.380  0.4119  1.3478  0.8488
35948SOL    HW211247   3.043   3.214   7.292 -2.1669  1.4198  2.2147
35949SOL     OW11248   4.400   6.946   4.378 -0.3281 -0.1365  0.0369
35949SOL    HW111249   4.353   6.882   4.325 -0.8331  0.4682 -0.2520
35949SOL    HW211250   4.487   6.909   4.388 -1.0573 -1.6727  1.2325
35950SOL     OW11251   4.613   0.461   6.612  0.4305  0.1172  0.3976
35950SOL    HW111252   4.627   0.553   6.637 -0.9367  0.3655  0.3248
35950SOL    HW211253   4.610   0.414   6.695  2.1609 -0.0557  0.4061
35951SOL     OW11254   1.167   7.062   2.434  0.0226 -0.0023 -0.4985
35951SOL    HW111255   1.091   7.071   2.492 -0.4292 -0.7726 -0.9552
35951SOL    HW211256   1.188   7.152   2.408  0.0674  0.3346  0.6328
35952SOL     OW11257   3.594   2.228   7.269 -0.1399  0.1046  0.3401
35952SOL    HW111258   3.689   2.218   7.273 -0.1090  0.1272 -0.2979
35952SOL    HW211259   3.580   2.311   7.222 -0.4546  1.1347  2.1644
35953SOL     OW11260   8.533   2.786   4.094  0.1255 -0.0276 -0.0463
35953SOL    HW111261   8.537   2.876   4.126 -0.8605  0.0974 -0.2533
35953SOL    HW211262   8.445   2.777   4.057  0.8325 -0.5095 -1.7108
35954SOL     OW11263   9.135  10.898   9.127  0.0444 -0.3077 -0.2195
35954SOL    HW111264   9.213  10.863   9.170 -0.3336  1.2729  1.9247
35954SOL    HW211265   9.163  10.982   9.091 -0.3874 -0.2598 -0.4508
35955SOL     OW11266   6.521   8.667  10.904  0.3557  0.0515 -0.6791
35955SOL    HW111267   6.560   8.602  10.963  0.0600  1.2081  0.8251
35955SOL    HW211268   6.566   8.653  10.821  1.6291 -0.8394  0.1259
35956SOL     OW11269   8.180   6.604   3.993  0.2378 -0.7292 -0.5040
35956SOL    HW111270   8.217   6.661   3.926  1.7714 -1.5319 -0.3804
35956SOL    HW211271   8.114   6.552   3.947 -0.0144  0.0050 -0.9769
35957SOL     OW11272   0.306   0.290  10.005 -0.9093  0.8268 -0.0765
35957SOL    HW111273   0.241   0.273   9.936  1.8573 -0.3901 -2.6226
35957SOL    HW211274   0.298   0.216  10.065 -1.6365  0.5247 -0.5407
35958SOL     OW11275   0.614   9.687   4.785 -0.1447  0.1076 -0.1579
35958SOL    HW111276   0.647   9.683   4.875 -0.5637  1.0215  0.0552
35958SOL    HW211277   0.656   9.614   4.740 -0.3816 -0.7201  0.9275
35959SOL     OW11278   4.028   8.009   5.879  0.5022  0.2728  0.4321
35959SOL    HW111279   4.121   7.989   5.867  0.9749  2.0178  0.8186
35959SOL    HW211280   4.008   7.975   5.966  0.4947 -0.9750 -0.0360
35960SOL     OW11281   8.249   3.581   1.882 -0.2183 -0.1492  0.0984
35960SOL    HW111282   8.264   3.500   1.835 -1.0486  0.7620 -1.8351
35960SOL    HW211283   8.256   3.557   1.974 -0.2214 -2.3466 -0.4273
35961SOL     OW11284  10.786   4.210   7.196  0.1992 -0.2254  0.5238
35961SOL    HW111285  10.784   4.124   7.240 -0.8586 -1.2864 -1.4542
35961SOL    HW211286  10.845   4.263   7.250  1.0545 -2.2443  1.6995
35962SOL     OW11287   5.705   7.740   4.905 -0.1339  0.4304  0.3447
35962SOL    HW111288   5.735   7.711   4.991 -0.6085  1.1524  0.7638
35962SOL    HW211289   5.620   7.781   4.922  0.2644  1.5532 -0.2944
35963SOL     OW11290   9.138   7.909   6.009 -0.1035 -0.8321 -0.5196
35963SOL    HW111291   9.124   7.928   5.916 -0.1128  0.4744 -0.2704
35963SOL    HW211292   9.208   7.845   6.011 -1.0976 -1.9926 -1.4849
35964SOL     OW11293   4.734   7.787   0.533 -0.4237 -0.1338 -0.3317
35964SOL    HW111294   4.788   7.834   0.470 -1.8461  0.5705 -1.0850
35964SOL    HW211295   4.764   7.697   0.529  1.8682  0.5293  0.6065
35965SOL     OW11296   7.667   8.787   8.405  0.0670  0.3538  0.4067
35965SOL    HW111297   7.637   8.697   8.392 -0.0231  0.5744 -1.0317
35965SOL    HW211298   7.762   8.782   8.397 -0.0242  0.5909 -1.2448
35966SOL     OW11299   1.155   5.540   0.288  0.3853  0.3862 -0.9933
35966SOL    HW111300   1.139   5.618   0.342  2.5358  0.2286 -0.0460
35966SOL    HW211301   1.250   5.533   0.282  0.3096 -2.6143 -0.3800
35967SOL     OW11302   5.840   4.538   7.006 -0.8593 -0.6502 -0.0058
35967SOL    HW111303   5.910   4.549   6.942  1.2904 -1.6941  2.0062
35967SOL    HW211304   5.786   4.467   6.972 -1.2353  0.4180 -1.7742
35968SOL     OW11305  10.114   4.263   4.178  0.0392 -0.5113 -0.1236
35968SOL    HW111306  10.121   4.356   4.157  0.7455 -0.4543  0.3641
35968SOL    HW211307  10.204   4.233   4.185 -0.1743 -0.8822  1.2547
35969SOL     OW11308  10.528   1.543   6.118  0.1954  0.0517  0.9971
35969SOL    HW111309  10.573   1.595   6.185 -0.1836 -1.6474  2.6551
35969SOL    HW211310  10.541   1.452   6.145  2.0196 -0.9291 -2.5248
35970SOL     OW11311   7.848   7.218   4.960 -0.2109 -0.1189  0.1013
35970SOL    HW111312   7.933   7.230   5.003 -0.4141  0.4727  0.3471
35970SOL    HW211313   7.866   7.157   4.888  0.8934  1.7202 -1.2510
35971SOL     OW11314   0.607   5.977   2.980 -0.4764 -0.3876  0.5111
35971SOL    HW111315   0.626   6.068   2.956  1.1471 -0.6800  0.5765
35971SOL    HW211316   0.685   5.929   2.954 -1.2029 -1.7343  0.7434
35972SOL     OW11317   3.988   1.129   1.280  0.1023  0.1460 -0.2314
35972SOL    HW111318   3.940   1.144   1.199 -0.2898  0.1515  0.0013
35972SOL    HW211319   4.016   1.217   1.308  0.2000  0.1485 -0.3370
35973SOL     OW11320   6.483   9.018   3.327  0.2605  0.1994  0.2444
35973SOL    HW111321   6.402   9.068   3.341 -0.3093 -0.9498  1.2109
35973SOL    HW211322   6.553   9.080   3.347 -0.4289  0.6830  1.2084
35974SOL     OW11323   3.820   9.898   4.764 -0.2649  0.1542  0.3432
35974SOL    HW111324   3.907   9.925   4.736 -0.3606  1.0883  0.9110
35974SOL    HW211325   3.760   9.946   4.706 -0.4213 -1.5010 -0.9568
35975SOL     OW11326  10.337   8.783   5.842 -0.1825 -0.2933  0.3589
35975SOL    HW111327  10.414   8.824   5.803 -0.0286 -0.6198  0.3140
35975SOL    HW211328  10.308   8.844   5.909  1.3566 -1.1087  1.8395
35976SOL     OW11329   4.544   9.700   7.107  0.0900 -0.1364 -0.1026
35976SOL    HW111330   4.528   9.608   7.087  0.0233 -0.0979 -0.2320
35976SOL    HW211331   4.462   9.732   7.145 -0.9148  0.5808 -2.6379
35977SOL     OW11332  10.348   1.792   5.404  0.2068 -0.4394  0.0978
35977SOL    HW111333  10.260   1.778   5.439  0.3717  0.0290  0.7201
35977SOL    HW211334  10.384   1.704   5.393 -0.5764 -0.6589 -0.7907
35978SOL     OW11335   5.423   7.747  10.320  0.5904  0.3180 -0.5462
35978SOL    HW111336   5.384   7.763  10.234 -0.1787  0.1422 -0.2410
35978SOL    HW211337   5.507   7.706  10.301  0.6949  0.8406 -1.2273
35979SOL     OW11338   1.747   7.363   9.933 -0.2935 -0.0418  0.3075
35979SOL    HW111339   1.819   7.346   9.872  0.2643  1.5917  0.4591
35979SOL    HW211340   1.790   7.374  10.018 -0.8529 -0.1772  0.6133
35980SOL     OW11341   2.618   3.591   9.724 -0.4591 -0.0503 -0.7763
35980SOL    HW111342   2.616   3.632   9.637  1.8549 -3.6550 -2.7761
35980SOL    HW211343   2.573   3.508   9.712 -2.2611  0.3433  2.2713
35981SOL     OW11344   4.029   7.864   9.255 -0.2903 -0.2747 -0.4623
35981SOL    HW111345   4.098   7.811   9.215 -0.6004 -2.1885  1.3564
35981SOL    HW211346   3.948   7.819   9.231 -0.8199  1.1032 -1.3335
35982SOL     OW11347   3.896   1.863   5.546 -0.0853 -0.0632  0.8487
35982SOL    HW111348   3.873   1.925   5.476 -0.2485 -0.9478  0.1043
35982SOL    HW211349   3.853   1.781   5.521 -1.2497 -0.0702  2.6638
35983SOL     OW11350   7.927   3.512   0.560 -0.2484  0.3549 -0.4396
35983SOL    HW111351   7.977   3.570   0.503  1.8995  0.1578  1.1228
35983SOL    HW211352   7.971   3.427   0.552 -0.6818  0.0213  0.5513
35984SOL     OW11353   1.663   6.206   5.669 -0.1899  0.3230  0.2007
35984SOL    HW111354   1.599   6.148   5.710  1.6414 -3.1030 -1.3848
35984SOL    HW211355   1.721   6.233   5.740 -0.8595 -0.1505  0.9302
35985SOL     OW11356   7.874   7.957   8.389  0.1347  0.7876 -0.9235
35985SOL    HW111357   7.815   7.898   8.341  0.4261  0.0871 -0.4365
35985SOL    HW211358   7.836   8.044   8.376 -1.9071  0.2258  0.6205
35986SOL     OW11359   7.824  10.623   6.081  0.6037  0.5022 -0.0689
35986SOL    HW111360   7.803  10.630   6.174  1.7191 -2.4768  0.4957
35986SOL    HW211361   7.747  10.660   6.037 -0.8832  0.0785  2.0167
35987SOL     OW11362   1.812  10.642   6.041  0.0186 -0.4921 -0.1996
35987SOL    HW111363   1.901  10.608   6.043 -0.2581 -1.2374  0.9239
35987SOL    HW211364   1.757  10.564   6.029 -0.4877 -0.0478 -0.8728
35988SOL     OW11365   6.548   4.816   9.061 -0.3803 -0.2147  0.1700
35988SOL    HW111366   6.496   4.735   9.055 -1.0583  0.2779 -0.8558
35988SOL    HW211367   6.634   4.792   9.026 -0.6209 -0.4559 -0.2592
35989SOL     OW11368  10.117  10.140   6.212 -0.1764  0.5825 -0.0796
35989SOL    HW111369  10.083  10.056   6.184 -2.6824  0.5434  2.5615
35989SOL    HW211370  10.196  10.119   6.262 -0.9293 -0.2694  0.7870
35990SOL     OW11371   6.793   9.344   1.369  0.2761  0.3463 -0.1284
35990SOL    HW111372   6.818   9.312   1.455  0.1966 -2.2189 -0.9727
35990SOL    HW211373   6.729   9.413   1.386  1.8869  1.4336  1.8701
35991SOL     OW11374   0.349   2.724   8.769 -0.2584  0.4144 -0.0474
35991SOL    HW111375   0.373   2.632   8.774  0.0112  0.4514 -0.5873
35991SOL    HW211376   0.419   2.765   8.717 -0.2036  0.9821  0.4597
35992SOL     OW11377   3.574   2.034   2.079  0.5918  0.2693 -0.5316
35992SOL    HW111378   3.482   2.044   2.101  0.5667 -1.8237  0.6004
35992SOL    HW211379   3.574   1.983   1.998  0.6568 -2.5157  1.0843
35993SOL     OW11380  10.790   0.594   6.721  0.1329 -0.0422 -0.3635
35993SOL    HW111381  10.746   0.667   6.765 -1.7327 -0.9959 -0.5552
35993SOL    HW211382  10.801   0.624   6.631  1.9624  1.0611  0.1827
35994SOL     OW11383   4.648   4.305  10.585 -0.1361  0.7039  0.6200
35994SOL    HW111384   4.736   4.340  10.571  0.3369 -0.0378  1.6732
35994SOL    HW211385   4.654   4.214  10.558 -0.1589  0.2266  2.1814
35995SOL     OW11386   9.004   3.505  10.409 -0.1855 -0.0688  0.1218
35995SOL    HW111387   9.079   3.550  10.372 -0.3202 -0.4506 -0.6280
35995SOL    HW211388   8.959   3.572  10.461  0.5733  0.1983  0.4556
35996SOL     OW11389   9.854   4.593   2.114  0.1430 -0.2866 -0.3460
35996SOL    HW111390   9.835   4.502   2.134 -1.2234  0.3563  1.6500
35996SOL    HW211391   9.849   4.637   2.199 -0.0335  1.7821 -1.3730
35997SOL     OW11392   1.394   8.590   0.524 -0.2618 -0.2975 -0.4520
35997SOL    HW111393   1.334   8.662   0.507 -0.0990  0.2979  1.3321
35997SOL    HW211394   1.372   8.559   0.612  2.1237  0.0953  0.3697
35998SOL     OW11395   0.371   6.515  10.715 -0.1187 -0.1140  0.2041
35998SOL    HW111396   0.346   6.483  10.628  0.8314 -0.6146  0.1044
35998SOL    HW211397   0.299   6.573  10.740 -0.4212  0.0254 -0.9070
35999SOL     OW11398   3.736   1.859   6.113  0.4860 -0.3376  0.2343
35999SOL    HW111399   3.720   1.783   6.169 -1.5253 -0.1433 -0.0114
35999SOL    HW211400   3.706   1.933   6.165  0.9082  0.1192 -0.1678
36000SOL     OW11401   3.109   2.614   7.761 -0.6540 -0.1181  0.2376
36000SOL    HW111402   3.080   2.557   7.690 -0.0597 -0.8486  0.5563
36000SOL    HW211403   3.066   2.698   7.745  0.8348  0.3019 -2.0091
36001SOL     OW11404   1.884   9.078   0.185  0.3892  0.0341 -0.5625
36001SOL    HW111405   1.880   9.104   0.277 -0.3732 -0.4809 -0.4408
36001SOL    HW211406   1.874   9.160   0.136  1.2830  0.3704 -0.1932
36002SOL     OW11407   2.326   5.410   3.576 -0.5961 -0.0406  0.0121
36002SOL    HW111408   2.291   5.364   3.500  1.6882 -1.5148 -0.2423
36002SOL    HW211409   2.310   5.503   3.558 -1.0229 -0.4337 -1.7782
36003SOL     OW11410   1.360   3.716   8.396 -0.0605  0.3665  0.6970
36003SOL    HW111411   1.344   3.622   8.383  1.8724 -0.1167  1.4741
36003SOL    HW211412   1.375   3.750   8.308 -0.6701 -0.0600  0.4200
36004SOL     OW11413   3.577   5.282   0.772 -0.1912 -0.5705 -0.2171
36004SOL    HW111414   3.515   5.211   0.758 -1.7619  1.0271 -1.9364
36004SOL    HW211415   3.535   5.339   0.835  0.2716 -0.2936 -0.1538
36005SOL     OW11416   3.252   0.334  10.202  0.3425 -0.4426  0.5544
36005SOL    HW111417   3.307   0.336  10.281 -0.4744  0.0940  1.1288
36005SOL    HW211418   3.207   0.250  10.208  0.1032 -0.2986  0.7864
36006SOL     OW11419   7.610   7.274   0.108  0.2543  0.1604  0.4144
36006SOL    HW111420   7.578   7.258   0.019 -0.4135  2.7207  0.1234
36006SOL    HW211421   7.574   7.202   0.160 -0.2133 -0.7995 -1.1850
36007SOL     OW11422   8.254   9.135   7.267  0.4342 -0.0374 -0.2368
36007SOL    HW111423   8.252   9.113   7.360 -1.2671 -0.3107 -0.3080
36007SOL    HW211424   8.347   9.131   7.243  0.8911 -0.0132  1.4238
36008SOL     OW11425   3.181   4.969  10.826 -0.2443 -0.2389  0.0613
36008SOL    HW111426   3.188   5.040  10.890 -0.8448  0.3881 -0.5653
36008SOL    HW211427   3.270   4.934  10.820 -0.0737  0.0325  0.8479
36009SOL     OW11428  10.678   5.084   2.024 -0.6646 -0.7467  0.2528
36009SOL    HW111429  10.722   5.066   2.107 -0.1873 -2.4817 -0.3301
36009SOL    HW211430  10.750   5.099   1.962 -0.9442 -1.2079 -0.1951
36010SOL     OW11431   8.199   3.895   2.010  0.4937 -0.2827 -0.2614
36010SOL    HW111432   8.267   3.958   2.032 -0.2416 -0.5320  3.2567
36010SOL    HW211433   8.118   3.933   2.046 -0.1259 -2.7334  1.1742
36011SOL     OW11434   8.466   9.727   4.073 -0.8792 -0.2213  0.3089
36011SOL    HW111435   8.497   9.638   4.089 -0.6922 -0.4048 -0.9012
36011SOL    HW211436   8.499   9.778   4.146  3.9558 -0.0422 -1.5964
36012SOL     OW11437   4.332  10.462   2.927  0.0826 -0.5015  0.6172
36012SOL    HW111438   4.350  10.544   2.974 -1.4175 -0.7296  1.6472
36012SOL    HW211439   4.253  10.480   2.877 -1.5035 -1.8930  2.4713
36013SOL     OW11440   0.142   4.542  10.728  0.1025 -0.5360 -0.1655
36013SOL    HW111441   0.165   4.608  10.662 -2.2230  0.0305 -0.4933
36013SOL    HW211442   0.147   4.590  10.811 -1.1148 -0.0318 -0.3603
36014SOL     OW11443   1.588   9.759   2.265  0.1468 -0.3399 -0.0407
36014SOL    HW111444   1.538   9.681   2.290 -0.8874 -0.2192 -1.5834
36014SOL    HW211445   1.550   9.786   2.181  1.0711  1.3228  0.0327
36015SOL     OW11446   0.844   3.762   7.666  0.1532  0.5431 -0.3154
36015SOL    HW111447   0.798   3.782   7.585 -1.9142  2.2890  1.1650
36015SOL    HW211448   0.820   3.672   7.686 -0.4385  0.5481 -0.9734
36016SOL     OW11449   4.946   1.805   5.067 -0.4076  0.3902  0.1551
36016SOL    HW111450   4.863   1.843   5.040 -1.0629 -0.0507  1.4674
36016SOL    HW211451   4.931   1.775   5.156  1.4583  1.1875  0.7848
36017SOL     OW11452   7.082  10.012   6.923  0.3034 -1.0668 -0.6081
36017SOL    HW111453   7.099  10.026   7.016  1.3547 -0.9510 -0.8071
36017SOL    HW211454   7.060   9.919   6.917 -0.3119 -0.9538 -0.1721
36018SOL     OW11455  10.496   6.807   9.159  0.5326 -0.3838 -0.0639
36018SOL    HW111456  10.588   6.830   9.171  0.3528  0.6735 -0.5690
36018SOL    HW211457  10.454   6.831   9.241  0.4712  0.4538 -0.3354
36019SOL     OW11458   1.830   7.417   8.621  0.4141  0.7554 -0.1036
36019SOL    HW111459   1.883   7.340   8.639 -0.2183  0.1892 -0.6388
36019SOL    HW211460   1.747   7.401   8.667  0.7669  1.7307  0.9152
36020SOL     OW11461   0.283   1.482   7.209  0.0840 -0.1956  0.2538
36020SOL    HW111462   0.346   1.548   7.178 -0.6914  0.4413  0.0049
36020SOL    HW211463   0.294   1.409   7.148  0.6617 -0.1451  0.2836
36021SOL     OW11464   3.247   7.069   4.781  0.1353  0.2663 -0.1341
36021SOL    HW111465   3.160   7.037   4.756 -0.0493  0.8382 -0.2258
36021SOL    HW211466   3.245   7.067   4.877  0.2480 -0.3183 -0.1398
36022SOL     OW11467   3.302   1.726   7.774  0.3469 -0.0871 -0.1459
36022SOL    HW111468   3.340   1.650   7.818  0.6677  1.0557  1.6691
36022SOL    HW211469   3.377   1.776   7.743  0.3597  1.2546  1.8496
36023SOL     OW11470   6.467   8.418   0.361  0.1908 -0.0492  0.3950
36023SOL    HW111471   6.549   8.464   0.380  0.4855 -0.5170  0.2633
36023SOL    HW211472   6.476   8.390   0.270  0.2541 -0.8734  0.6554
36024SOL     OW11473   8.354  10.646   6.662  0.6854  0.5920 -0.3913
36024SOL    HW111474   8.402  10.567   6.634  0.0332 -0.9165  2.3977
36024SOL    HW211475   8.403  10.677   6.738 -0.5879  1.3198  0.1476
36025SOL     OW11476   4.840   2.175   9.809 -0.2072 -0.4184  0.4587
36025SOL    HW111477   4.770   2.110   9.809  1.9971 -3.0038  1.9510
36025SOL    HW211478   4.916   2.128   9.774  0.6011  2.6657 -2.4523
36026SOL     OW11479   4.151   4.594   6.259  0.4955 -0.7253  0.6367
36026SOL    HW111480   4.163   4.518   6.316  0.1835  0.1699  1.9300
36026SOL    HW211481   4.057   4.606   6.254  0.5309 -0.6362  0.1237
36027SOL     OW11482   4.567   1.404   4.827  0.2751 -0.1208  0.4143
36027SOL    HW111483   4.660   1.382   4.825  0.3635  0.2074  0.8291
36027SOL    HW211484   4.562   1.491   4.787  0.1394 -0.1616  0.3423
36028SOL     OW11485   2.976   5.828   1.727 -0.0396 -0.4683 -0.7886
36028SOL    HW111486   3.020   5.770   1.665 -0.9268 -1.8352 -0.1889
36028SOL    HW211487   2.885   5.829   1.698 -0.2543 -0.2854 -0.1237
36029SOL     OW11488  10.042   3.531   3.646 -0.0276 -0.3127  0.4174
36029SOL    HW111489   9.952   3.504   3.630 -0.0646  0.2667 -0.4293
36029SOL    HW211490  10.036   3.625   3.666  0.4535 -0.0483 -0.5641
36030SOL     OW11491   0.829   4.105   6.314 -0.0608  0.3620 -0.2831
36030SOL    HW111492   0.749   4.053   6.319  0.3899 -0.2621  0.6746
36030SOL    HW211493   0.808   4.175   6.251 -1.5437  0.5388  0.3605
36031SOL     OW11494   6.391   0.518   9.684  0.4235  0.9214  0.2173
36031SOL    HW111495   6.352   0.553   9.604  0.5651  0.7899  0.0893
36031SOL    HW211496   6.485   0.524   9.669  0.4710 -0.8406 -0.4177
36032SOL     OW11497   8.861   4.663   0.693 -0.3879 -0.6651  0.3206
36032SOL    HW111498   8.844   4.687   0.785  0.8343 -0.1424  0.4346
36032SOL    HW211499   8.919   4.587   0.699 -0.3402 -0.6560 -0.0179
36033SOL     OW11500  10.430   5.828   4.517  0.4080 -0.5065 -0.6550
36033SOL    HW111501  10.373   5.761   4.479  1.0714 -0.9670 -0.8645
36033SOL    HW211502  10.372   5.883   4.569 -0.2214 -0.9690 -0.8586
36034SOL     OW11503   6.893   4.921   2.820 -0.3696  0.5589 -0.2282
36034SOL    HW111504   6.807   4.912   2.781 -0.1427 -0.2889 -0.5446
36034SOL    HW211505   6.889   5.004   2.867 -1.0426  0.9883 -1.0216
36035SOL     OW11506   2.314   9.400   5.266 -0.2935  0.1025  0.2169
36035SOL    HW111507   2.308   9.434   5.355 -1.2503 -0.2111  0.2854
36035SOL    HW211508   2.360   9.467   5.217  2.3780 -0.7007  1.4379
36036SOL     OW11509   2.624   2.569   2.210 -0.0772  0.3287 -1.2181
36036SOL    HW111510   2.536   2.599   2.234  0.2065 -0.6212  1.3611
36036SOL    HW211511   2.681   2.641   2.238  0.1577 -0.2176 -0.2571
36037SOL     OW11512   0.620   6.357   7.072  0.4369  0.2235 -0.0729
36037SOL    HW111513   0.535   6.326   7.103  0.5986  0.8051  0.9959
36037SOL    HW211514   0.683   6.300   7.115  0.6228  0.2066 -0.3629
36038SOL     OW11515   9.542   2.158   3.447 -0.1706 -0.5418  0.2326
36038SOL    HW111516   9.618   2.217   3.446 -0.2005 -0.3701 -2.9228
36038SOL    HW211517   9.543   2.119   3.534  1.5618  1.9237  1.4592
36039SOL     OW11518   8.597   1.085   9.308  0.5410 -0.9307 -0.3340
36039SOL    HW111519   8.553   1.125   9.233  0.0745  0.4671  0.6402
36039SOL    HW211520   8.565   0.994   9.309 -1.9524 -0.1255  0.0035
36040SOL     OW11521   1.866   6.310   4.320 -0.6119  0.2495  0.0189
36040SOL    HW111522   1.820   6.239   4.366 -1.7049  0.4475 -0.7214
36040SOL    HW211523   1.855   6.386   4.377 -2.2674  0.5794 -0.6817
36041SOL     OW11524   4.296   5.961   7.079  0.3342 -0.4825  0.3520
36041SOL    HW111525   4.383   5.998   7.097  0.1708 -0.8798  2.0472
36041SOL    HW211526   4.314   5.878   7.035  0.7577  0.2319 -0.8737
36042SOL     OW11527   6.939   8.051   0.322 -0.1177 -0.5757 -0.5302
36042SOL    HW111528   6.866   8.080   0.267 -1.4946  0.6520  1.7716
36042SOL    HW211529   6.908   7.968   0.360  0.8341 -1.4312 -1.5448
36043SOL     OW11530   0.967   3.427  10.604  0.3239 -0.0935  0.0167
36043SOL    HW111531   0.879   3.429  10.643  1.6281  0.4378  3.2674
36043SOL    HW211532   0.970   3.504  10.548 -0.6165  1.1644  1.5973
36044SOL     OW11533   5.335  10.161   2.706 -0.7908  0.3350 -0.3570
36044SOL    HW111534   5.273  10.222   2.745 -0.2985  0.1302  0.7990
36044SOL    HW211535   5.393  10.216   2.653  0.0629  1.0127  1.2037
36045SOL     OW11536   2.313   4.980   8.059 -0.0597  0.0994 -0.3918
36045SOL    HW111537   2.356   4.903   8.096  0.6939 -0.4125 -2.2034
36045SOL    HW211538   2.220   4.967   8.078  0.1675 -0.7126  0.2497
36046SOL     OW11539   0.220   3.680   4.102  0.1122 -0.4348  0.1169
36046SOL    HW111540   0.163   3.636   4.039  1.1248  1.7452 -2.5412
36046SOL    HW211541   0.204   3.773   4.088  2.9412  0.2056  0.5439
36047SOL     OW11542   1.944   9.528   1.467  0.4147 -0.1529 -0.8189
36047SOL    HW111543   1.934   9.472   1.390 -2.3237 -0.0319 -0.6270
36047SOL    HW211544   1.865   9.581   1.469  1.2941  1.2046  1.0542
36048SOL     OW11545   3.125   6.669   0.264 -0.7025 -0.3982 -0.2841
36048SOL    HW111546   3.219   6.690   0.269 -0.9391  1.3386 -1.9081
36048SOL    HW211547   3.106   6.623   0.345  1.4996 -0.5312  0.2188
36049SOL     OW11548   5.563  10.685   5.039  0.1616 -0.3313  0.1065
36049SOL    HW111549   5.536  10.750   5.105 -0.8269 -2.3006  1.7508
36049SOL    HW211550   5.523  10.603   5.069  1.6105 -1.7755 -1.7264
36050SOL     OW11551   1.470   2.516   6.260 -0.5097 -0.1851 -0.0292
36050SOL    HW111552   1.542   2.460   6.288  2.2489  1.0427 -3.8292
36050SOL    HW211553   1.408   2.455   6.220  1.1297 -0.9161 -1.6163
36051SOL     OW11554  10.829  10.535   1.095  0.1943  0.1193  0.1391
36051SOL    HW111555  10.852  10.442   1.092  1.9490  0.5320 -1.2207
36051SOL    HW211556  10.800  10.550   1.185  0.6730 -1.5687  0.6107
36052SOL     OW11557   5.518   4.358   0.340  0.1744 -0.2726  0.3255
36052SOL    HW111558   5.431   4.330   0.368 -0.3592 -1.3895 -2.1908
36052SOL    HW211559   5.506   4.447   0.306 -0.1223 -0.6143 -0.4899
36053SOL     OW11560   2.630   3.849   9.021 -0.2583 -0.2164 -0.1983
36053SOL    HW111561   2.706   3.853   8.963 -0.1262  1.5588  0.0319
36053SOL    HW211562   2.600   3.758   9.016  1.8586 -0.9522 -0.3025
36054SOL     OW11563   1.548   6.347   4.538  0.2809  0.5908 -0.2182
36054SOL    HW111564   1.533   6.252   4.537 -0.5341  0.6797  1.0301
36054SOL    HW211565   1.549   6.369   4.631  0.3887  1.8283 -0.5045
36055SOL     OW11566   0.042   5.285   6.856 -0.1677  0.3998 -0.1578
36055SOL    HW111567   0.122   5.335   6.838  0.1032 -1.0197 -3.7192
36055SOL    HW211568  -0.024   5.324   6.799 -0.7037 -1.3883 -0.8290
36056SOL     OW11569   3.300   8.215   6.249 -0.0523 -0.0965 -0.0043
36056SOL    HW111570   3.270   8.306   6.258  1.3760  0.3575  0.5532
36056SOL    HW211571   3.246   8.165   6.310  0.6645  0.7858  1.4005
36057SOL     OW11572   2.608   6.691   4.291 -0.2114 -0.0792  0.7051
36057SOL    HW111573   2.688   6.641   4.303 -0.1237  0.2041  1.3439
36057SOL    HW211574   2.612   6.720   4.200 -0.5980 -1.7769  0.1223
36058SOL     OW11575   8.436   7.574   4.160 -0.7353  0.5638  0.3587
36058SOL    HW111576   8.494   7.511   4.203 -0.2034  1.0031  0.2891
36058SOL    HW211577   8.490   7.652   4.149 -1.4892  1.1465  0.7321
36059SOL     OW11578   4.616   2.065   1.319  0.0850 -0.2215 -0.3649
36059SOL    HW111579   4.708   2.091   1.317  0.0795 -0.2112 -1.7445
36059SOL    HW211580   4.567   2.147   1.307 -0.0060 -0.4831 -2.0511
36060SOL     OW11581   5.032   8.020  10.325 -0.3667 -0.3185 -0.1831
36060SOL    HW111582   4.982   8.085  10.375  0.6923  1.4098 -1.2733
36060SOL    HW211583   4.966   7.975  10.272 -1.1069 -0.0137  0.4611
36061SOL     OW11584   9.742   9.569   3.382  0.2169 -0.9187  0.2570
36061SOL    HW111585   9.733   9.648   3.435 -0.7280 -0.8969  0.0779
36061SOL    HW211586   9.824   9.581   3.334 -0.3128  0.3256 -0.3738
36062SOL     OW11587   3.977   6.256   7.242  0.9503 -0.4027  0.2884
36062SOL    HW111588   4.008   6.256   7.332  1.3489 -0.8790  0.1590
36062SOL    HW211589   3.892   6.212   7.245  0.3589  0.7175  0.6126
36063SOL     OW11590   7.134   5.902   2.680 -0.0519  0.3603 -0.3626
36063SOL    HW111591   7.136   5.875   2.772 -1.4739  0.9603 -0.1334
36063SOL    HW211592   7.204   5.967   2.673  0.3740 -0.0287  0.1770
36064SOL     OW11593   8.625   8.296   9.135  0.1547 -0.5201  0.8717
36064SOL    HW111594   8.666   8.219   9.174  1.3958 -1.1313 -1.4681
36064SOL    HW211595   8.695   8.360   9.127 -0.2418 -0.1399  0.3555
36065SOL     OW11596   6.339   8.600   6.077  0.4716  0.3512 -0.6545
36065SOL    HW111597   6.270   8.535   6.093 -0.7582  1.8334  0.3731
36065SOL    HW211598   6.367   8.584   5.987  0.8173 -2.1273 -0.1751
36066SOL     OW11599   2.007   6.728   2.743  0.6280  0.0153  0.5992
36066SOL    HW111600   1.997   6.802   2.684  2.2734  1.1703  1.6695
36066SOL    HW211601   1.932   6.734   2.802  1.3299  1.6000  1.4041
36067SOL     OW11602   3.815   8.267   7.646  0.1281 -0.2346  0.2464
36067SOL    HW111603   3.908   8.268   7.668  0.1861 -1.0669  0.1057
36067SOL    HW211604   3.812   8.297   7.555 -0.0222  2.3061  1.0246
36068SOL     OW11605   8.281   0.523   7.831 -0.1055 -0.0082 -0.0439
36068SOL    HW111606   8.348   0.488   7.889  0.1751  0.1096 -0.2973
36068SOL    HW211607   8.224   0.575   7.888  0.3226  0.3264  0.0811
36069SOL     OW11608   3.810   4.663   3.249 -0.1951  0.4076  0.0116
36069SOL    HW111609   3.841   4.706   3.328 -1.8755 -0.9727  1.5100
36069SOL    HW211610   3.754   4.727   3.206 -1.0614  0.4492  1.1542
36070SOL     OW11611   1.313  10.642   7.862  0.5072  0.0080  0.2832
36070SOL    HW111612   1.278  10.576   7.922  1.1647 -0.7338 -0.1306
36070SOL    HW211613   1.379  10.689   7.914  2.3011 -1.7412 -0.2957
36071SOL     OW11614   8.539   7.586   9.812 -0.1249 -0.2274  0.3402
36071SOL    HW111615   8.522   7.611   9.903 -0.2140  0.6995  0.0805
36071SOL    HW211616   8.487   7.508   9.798 -0.5583 -0.0457  0.9173
36072SOL     OW11617   9.122   2.117   3.545 -0.1861 -0.5909  0.2692
36072SOL    HW111618   9.163   2.042   3.502 -0.3435 -0.6685  0.2535
36072SOL    HW211619   9.191   2.184   3.549 -0.3556 -0.3386 -0.7168
36073SOL     OW11620   0.322   3.525   4.305  0.3042 -0.4048  0.7176
36073SOL    HW111621   0.272   3.531   4.386  0.8009 -0.3314  1.0279
36073SOL    HW211622   0.276   3.583   4.244 -1.1367 -1.8614  0.3507
36074SOL     OW11623   4.098   2.046   0.356 -0.3274 -0.2166 -0.1772
36074SOL    HW111624   4.121   2.133   0.390  0.0437  0.3536 -1.8339
36074SOL    HW211625   4.170   1.990   0.383  1.0429  0.6882 -1.8082
36075SOL     OW11626   8.830   1.959   7.792  0.0969  0.1997 -0.2173
36075SOL    HW111627   8.884   1.899   7.844  2.0863  0.5709 -1.7467
36075SOL    HW211628   8.764   1.903   7.751  1.0412 -0.7384 -0.4991
36076SOL     OW11629   1.972   9.714   0.207  0.4834 -0.1267 -0.3854
36076SOL    HW111630   1.981   9.762   0.289 -2.2559  1.1975 -0.7078
36076SOL    HW211631   2.036   9.754   0.148  0.2669  1.1499  0.2153
36077SOL     OW11632   5.403   2.882   6.615  0.2081 -0.1603 -0.5828
36077SOL    HW111633   5.426   2.975   6.617 -1.1885  0.2353 -1.4687
36077SOL    HW211634   5.485   2.838   6.592  0.6654  0.9591 -1.1980
36078SOL     OW11635   4.902   9.663   5.580 -0.3088 -0.3482 -0.2664
36078SOL    HW111636   4.921   9.687   5.671 -0.3151 -0.3715 -0.2590
36078SOL    HW211637   4.821   9.612   5.586 -0.2951 -0.3714 -0.2824
36079SOL     OW11638   0.752  10.017   9.845  0.0517  0.0343  0.0666
36079SOL    HW111639   0.682   9.976   9.897  0.7597  0.7513  1.6554
36079SOL    HW211640   0.709  10.091   9.803 -0.4973 -0.4574 -0.2607
36080SOL     OW11641   9.638   1.789   3.453 -0.4408 -0.0085  0.5185
36080SOL    HW111642   9.728   1.782   3.484 -0.4743 -1.0365  0.4259
36080SOL    HW211643   9.614   1.699   3.431 -0.9200  0.4922 -1.0759
36081SOL     OW11644   0.982   8.644   8.300 -0.5149 -0.0245 -0.2111
36081SOL    HW111645   1.032   8.620   8.221 -2.9766  0.6764 -2.1188
36081SOL    HW211646   0.980   8.563   8.352  0.6492 -0.6958 -1.1543
36082SOL     OW11647   1.038   3.657   1.622  0.1769  0.1671 -0.1550
36082SOL    HW111648   1.094   3.727   1.656  0.9432  0.4592 -1.9033
36082SOL    HW211649   1.089   3.618   1.551 -1.8853  0.6107 -2.0174
36083SOL     OW11650   4.576   1.492   6.758 -0.1023  0.1734  0.2162
36083SOL    HW111651   4.595   1.542   6.838  0.9100 -1.0200  0.7539
36083SOL    HW211652   4.485   1.463   6.769 -0.7888  2.0393 -0.2182
36084SOL     OW11653   3.536   2.969   7.567 -0.0935 -0.1697 -0.2962
36084SOL    HW111654   3.443   2.955   7.548  0.1324 -1.0442 -0.8304
36084SOL    HW211655   3.555   2.911   7.640  0.2752 -0.8437 -0.9058
36085SOL     OW11656   3.864   8.635   0.771 -0.0176  0.0228 -0.1938
36085SOL    HW111657   3.772   8.644   0.747  0.1077  1.0304 -0.3264
36085SOL    HW211658   3.899   8.571   0.709 -0.4657  0.1430 -0.5735
36086SOL     OW11659   2.498   5.658   4.581  0.1752  0.2384 -0.3038
36086SOL    HW111660   2.442   5.699   4.647  0.0203 -1.6529  0.8522
36086SOL    HW211661   2.452   5.669   4.499 -1.4687 -0.4783  0.4832
36087SOL     OW11662   3.854   3.806   5.819  0.0198  0.1774  0.5679
36087SOL    HW111663   3.798   3.763   5.882  0.2498  0.5911  1.0632
36087SOL    HW211664   3.799   3.817   5.741 -1.7872  3.5649  2.0774
36088SOL     OW11665   7.510  10.142   1.490  0.2074  0.1027 -0.1614
36088SOL    HW111666   7.574  10.120   1.557 -1.9983  1.6275  2.6485
36088SOL    HW211667   7.542  10.224   1.451  0.1616  0.6964  1.0131
36089SOL     OW11668   0.100   6.321   0.482 -0.6181 -0.1892  1.0484
36089SOL    HW111669   0.183   6.327   0.435  0.2624  1.1037  2.6397
36089SOL    HW211670   0.099   6.233   0.519  0.9539  0.3472  2.4909
36090SOL     OW11671   3.275  10.778   7.531 -0.2001  0.3700 -0.2713
36090SOL    HW111672   3.216  10.813   7.464 -0.6446  0.1946  0.0241
36090SOL    HW211673   3.293  10.853   7.588 -0.4464  0.3361 -0.1444
36091SOL     OW11674   3.318   1.148   6.788  0.0409 -0.0676  0.5487
36091SOL    HW111675   3.394   1.122   6.736 -0.4319 -0.9764  0.2887
36091SOL    HW211676   3.344   1.131   6.878 -0.5512 -2.3098  0.3354
36092SOL     OW11677   2.412   3.139   6.711  0.1112  0.4934 -0.1195
36092SOL    HW111678   2.376   3.121   6.797  0.5615 -2.3270 -0.4184
36092SOL    HW211679   2.490   3.083   6.705  0.2321  0.7811 -2.2626
36093SOL     OW11680   1.935   5.716   2.227 -0.0579  0.1345  1.0055
36093SOL    HW111681   1.878   5.657   2.178 -0.6631  0.9848  0.6799
36093SOL    HW211682   1.968   5.661   2.299 -1.0459 -0.4628  1.0349
36094SOL     OW11683   4.942   1.944  10.709 -0.0407 -0.2133 -0.2222
36094SOL    HW111684   4.881   1.924  10.781  0.5587 -0.2945  0.2701
36094SOL    HW211685   4.888   1.939  10.630 -0.6350 -0.4666  0.1915
36095SOL     OW11686   9.257   8.478   1.361 -0.3406  0.5143 -0.4413
36095SOL    HW111687   9.216   8.516   1.439  0.1186  0.9681 -0.4189
36095SOL    HW211688   9.295   8.553   1.315  0.0879  0.1496 -0.6882
36096SOL     OW11689   0.960   1.697   9.356  0.1215 -0.2347 -0.4536
36096SOL    HW111690   0.985   1.715   9.446  0.6175 -1.3297 -0.3594
36096SOL    HW211691   0.864   1.690   9.358  0.2379 -2.1194  0.3669
36097SOL     OW11692   7.544   7.869   4.591 -0.2336 -0.3807 -0.3225
36097SOL    HW111693   7.586   7.895   4.509 -2.0154 -0.7438 -1.3984
36097SOL    HW211694   7.562   7.941   4.651  1.6496 -0.4065 -0.7972
36098SOL     OW11695   7.782   5.326   3.317 -0.5989 -0.1147  0.5329
36098SOL    HW111696   7.751   5.236   3.324  0.2346 -0.4136  0.5466
36098SOL    HW211697   7.802   5.336   3.224  0.4664 -0.3593  0.7184
36099SOL     OW11698  10.632   1.247  10.783 -0.4730 -0.9807 -0.3706
36099SOL    HW111699  10.615   1.166  10.734 -2.8815 -0.6895 -0.1471
36099SOL    HW211700  10.545   1.286  10.796  0.3542  0.3507  1.7452
36100SOL     OW11701   7.846   5.033   3.325 -0.1866  0.2910  0.0877
36100SOL    HW111702   7.927   5.063   3.284 -1.5167  2.7228 -1.0199
36100SOL    HW211703   7.782   5.032   3.254 -1.4128 -0.3299  1.1608
36101SOL     OW11704  10.006   0.049   9.139  0.4525 -0.1566  0.7241
36101SOL    HW111705   9.972   0.014   9.222  0.3634  0.4335  0.9419
36101SOL    HW211706  10.023  -0.028   9.086  0.2480 -0.5321  1.1925
36102SOL     OW11707   9.889   1.472   7.654  0.0209 -0.1482 -0.4219
36102SOL    HW111708   9.821   1.523   7.609 -0.5458 -0.7485 -0.2643
36102SOL    HW211709   9.860   1.471   7.746  1.3641  1.4084  0.0733
36103SOL     OW11710   3.891   9.196   2.690  0.4332  0.6082  0.1707
36103SOL    HW111711   3.835   9.268   2.660 -0.6726 -0.2867  0.0294
36103SOL    HW211712   3.844   9.158   2.765  1.2739  0.3776  0.5917
36104SOL     OW11713   9.994   9.624   5.644  0.0178  0.0225  0.3743
36104SOL    HW111714   9.911   9.598   5.605  0.6852 -1.3009 -0.2050
36104SOL    HW211715  10.050   9.546   5.638  0.8283  0.4109  2.0924
36105SOL     OW11716   3.790   6.607   5.668 -0.1536 -0.0908 -0.0599
36105SOL    HW111717   3.839   6.548   5.611 -0.0066  0.2416 -0.2753
36105SOL    HW211718   3.762   6.678   5.611  0.2111  0.3711  0.3373
36106SOL     OW11719   7.976   2.133   8.986  0.0745 -0.2483 -0.1897
36106SOL    HW111720   8.005   2.103   9.073 -1.2130  0.9735  0.7121
36106SOL    HW211721   7.978   2.054   8.932 -0.1551 -1.2931  1.2506
36107SOL     OW11722   8.360   5.353   1.281 -0.0684 -0.6020 -0.3999
36107SOL    HW111723   8.442   5.313   1.252 -0.8745 -2.5603 -0.1310
36107SOL    HW211724   8.295   5.327   1.216 -1.0254 -1.4541  0.8426
36108SOL     OW11725   6.891  10.294   7.264 -0.1497 -0.5565 -0.2030
36108SOL    HW111726   6.979  10.289   7.301 -0.1171  0.3348 -0.1445
36108SOL    HW211727   6.890  10.376   7.216 -1.0440 -0.4158  0.0396
36109SOL     OW11728   0.571   2.866   4.630  0.2879  0.3235 -0.2479
36109SOL    HW111729   0.545   2.907   4.547  0.4777  1.6448  0.3089
36109SOL    HW211730   0.489   2.830   4.665 -0.0967  1.1304 -0.2860
36110SOL     OW11731   2.075   7.591   5.560 -0.4759 -0.3198 -0.2045
36110SOL    HW111732   2.006   7.565   5.499 -1.1419  0.4525  0.1890
36110SOL    HW211733   2.048   7.678   5.591  0.3200 -0.3003  0.4871
36111SOL     OW11734   7.686   2.666   3.576  0.3604 -0.0555 -0.1493
36111SOL    HW111735   7.757   2.643   3.636  1.1508 -0.3293 -1.1694
36111SOL    HW211736   7.645   2.743   3.616  1.4833  0.3557  0.2379
36112SOL     OW11737   3.874   3.381   4.974  0.1990 -0.4991  0.0833
36112SOL    HW111738   3.959   3.362   4.935  0.6949 -1.5414  1.5569
36112SOL    HW211739   3.850   3.467   4.940  0.8036 -1.1199 -2.0384
36113SOL     OW11740   2.149  10.587   7.917  0.1724  0.1484 -0.3465
36113SOL    HW111741   2.153  10.530   7.840  1.6089 -1.0668  0.5694
36113SOL    HW211742   2.055  10.598   7.934 -0.1513 -0.8526 -1.3599
36114SOL     OW11743   0.924  10.451   3.320  0.2040 -0.4687 -0.1993
36114SOL    HW111744   0.991  10.518   3.306  1.1797 -1.0562  1.4002
36114SOL    HW211745   0.912  10.448   3.415 -1.1987 -1.2559 -0.3688
36115SOL     OW11746   8.525   7.230   3.392  0.0906 -0.0181  0.4813
36115SOL    HW111747   8.620   7.222   3.389  0.1074  0.0811  0.7933
36115SOL    HW211748   8.505   7.298   3.327  0.0650 -1.4331 -1.0663
36116SOL     OW11749   5.680   1.135   8.428  0.4776  0.5081  0.1207
36116SOL    HW111750   5.771   1.105   8.419 -0.1589 -2.2942  1.7887
36116SOL    HW211751   5.629   1.055   8.435 -2.0038  2.0207  0.5015
36117SOL     OW11752   8.819   0.565  10.598  0.8763 -0.0525 -0.5613
36117SOL    HW111753   8.833   0.653  10.634  0.7409 -0.5316  0.6946
36117SOL    HW211754   8.803   0.510  10.674  1.6201 -1.3041 -1.2821
36118SOL     OW11755   2.266   0.484   5.973  0.0705  0.6428  0.1020
36118SOL    HW111756   2.334   0.424   6.001  1.7990  2.0420 -0.9106
36118SOL    HW211757   2.273   0.487   5.878 -0.8943  1.3996  0.0308
36119SOL     OW11758   8.147   0.424   2.717  0.7109 -0.6706 -0.2485
36119SOL    HW111759   8.059   0.423   2.680  0.4559 -3.6293  0.2002
36119SOL    HW211760   8.151   0.505   2.768 -1.7235 -0.4247 -0.3394
36120SOL     OW11761   4.907   7.535   6.852  0.3585  0.4091  0.3126
36120SOL    HW111762   4.854   7.577   6.920 -0.4101 -0.4149  0.2409
36120SOL    HW211763   4.932   7.451   6.889 -3.8657 -2.1668 -1.9185
36121SOL     OW11764   7.878   5.781   9.618  0.2466  0.1269  0.5767
36121SOL    HW111765   7.876   5.846   9.688 -0.9178 -1.3389  1.9767
36121SOL    HW211766   7.787   5.769   9.593  0.6025  0.2441 -0.8710
36122SOL     OW11767   8.813   5.332   9.024 -0.4190  0.0971 -0.2305
36122SOL    HW111768   8.816   5.271   8.950  1.0414 -1.2695  0.8714
36122SOL    HW211769   8.890   5.388   9.012 -1.0096  0.8688 -0.5111
36123SOL     OW11770   6.461   5.130  10.110 -0.2209 -0.1114  0.2367
36123SOL    HW111771   6.452   5.056  10.171 -0.7052  0.8334  1.3573
36123SOL    HW211772   6.371   5.150  10.084  0.0157 -0.8646 -1.2892
36124SOL     OW11773   7.265   8.090  10.746  0.6803  0.3370 -0.3121
36124SOL    HW111774   7.287   8.132  10.830  1.8605 -0.3173 -0.2763
36124SOL    HW211775   7.236   8.002  10.770 -1.1215  0.8462 -0.4451
36125SOL     OW11776   5.062   9.746  10.847  0.3083  0.1459  0.0383
36125SOL    HW111777   5.093   9.770  10.759  0.2618 -0.8936 -0.2788
36125SOL    HW211778   5.142   9.737  10.899  0.2976  1.4633  0.2970
36126SOL     OW11779   6.412   9.250   1.643 -0.3468  0.0564  0.0431
36126SOL    HW111780   6.485   9.202   1.603 -0.7799 -0.0008 -0.7030
36126SOL    HW211781   6.370   9.294   1.570 -1.2739 -0.1966  0.4134
36127SOL     OW11782   4.105   1.750   3.301 -0.0706 -0.1381  0.3580
36127SOL    HW111783   4.126   1.820   3.364 -0.8405  0.2740  0.1657
36127SOL    HW211784   4.187   1.701   3.292  0.6360  1.0603  0.0875
36128SOL     OW11785   0.093   2.369   0.714 -0.1026  0.0489 -0.4613
36128SOL    HW111786   0.032   2.314   0.664  0.3907 -0.9099 -0.0293
36128SOL    HW211787   0.180   2.337   0.689  0.2192  1.0780 -0.6967
36129SOL     OW11788  10.296   6.206   4.282  0.2980  0.0369  0.2963
36129SOL    HW111789  10.274   6.120   4.318  0.5593  0.1581  0.7487
36129SOL    HW211790  10.277   6.267   4.353  0.7104  0.2900  0.1893
36130SOL     OW11791   9.969   7.329   2.136  0.0822  0.1620 -0.1782
36130SOL    HW111792   9.979   7.308   2.043 -0.7919  0.7823 -0.4212
36130SOL    HW211793  10.055   7.363   2.162  0.4241 -0.2902 -0.6694
36131SOL     OW11794   2.117   1.742  10.566  0.3400  0.7560  0.3935
36131SOL    HW111795   2.120   1.677  10.636 -2.0313 -0.5909 -0.6398
36131SOL    HW211796   2.027   1.776  10.568  0.5709  1.5721 -1.2209
36132SOL     OW11797   6.781   2.501   4.241  0.2699  0.1208 -0.6691
36132SOL    HW111798   6.824   2.575   4.283  0.3900 -0.4744  0.2871
36132SOL    HW211799   6.851   2.459   4.190  0.7675 -0.6377  0.6022
36133SOL     OW11800   1.975   2.712   3.016  0.0468  0.0145 -0.4078
36133SOL    HW111801   1.998   2.803   2.999  0.5421  0.4044  1.9282
36133SOL    HW211802   1.883   2.715   3.043 -0.3658 -0.4072 -1.6864
36134SOL     OW11803   4.620   2.836   5.302  0.3671 -0.1812  0.5297
36134SOL    HW111804   4.662   2.793   5.377  0.7156 -2.0893 -0.6877
36134SOL    HW211805   4.577   2.765   5.255 -0.5407  1.0961 -0.6567
36135SOL     OW11806   5.061   3.929  10.452 -0.0378  0.3944  0.0756
36135SOL    HW111807   5.000   3.913  10.380  0.0735 -1.7361  0.3931
36135SOL    HW211808   5.054   3.851  10.507  2.4614  0.4106  0.5142
36136SOL     OW11809   9.046   4.917  10.426  0.2545 -0.3610 -1.0006
36136SOL    HW111810   9.027   4.898  10.334 -1.1294 -1.6888 -0.4833
36136SOL    HW211811   8.983   4.864  10.475 -1.4991  2.9857  0.7217
36137SOL     OW11812   5.748   8.985   0.913  0.1293  0.1071  0.6456
36137SOL    HW111813   5.832   8.999   0.869 -0.6190  2.8040 -0.1078
36137SOL    HW211814   5.756   9.031   0.996 -0.3430 -0.3317  0.9400
36138SOL     OW11815   3.617   4.277   1.591  0.1616 -0.0275  0.0718
36138SOL    HW111816   3.695   4.332   1.584  1.1155 -1.4400 -0.7127
36138SOL    HW211817   3.627   4.212   1.522 -1.8455 -0.1057 -0.2158
36139SOL     OW11818   0.704   0.303   6.409  0.2001 -0.1483  0.4317
36139SOL    HW111819   0.786   0.293   6.361  0.4700 -1.1456  1.0777
36139SOL    HW211820   0.636   0.290   6.343  0.5395 -3.1641  0.5205
36140SOL     OW11821   8.049   6.448  10.460 -0.2664  0.8314 -0.1781
36140SOL    HW111822   8.024   6.356  10.462 -0.3027  0.8328 -0.4918
36140SOL    HW211823   8.051   6.470  10.367  1.2046  0.7546 -0.1856
36141SOL     OW11824   2.466   2.243  10.828  0.2344 -0.7429 -0.2159
36141SOL    HW111825   2.534   2.283  10.883 -0.0222 -0.2400 -0.2548
36141SOL    HW211826   2.400   2.213  10.890  0.1610 -0.5941 -0.2225
36142SOL     OW11827   1.774   8.382   1.679  0.4853 -0.1568  0.1496
36142SOL    HW111828   1.817   8.299   1.700 -1.3685 -1.5701 -1.2938
36142SOL    HW211829   1.726   8.405   1.758  0.5217 -0.7962  0.3645
36143SOL     OW11830   1.164   0.253   3.393  0.2279 -0.0139 -1.1042
36143SOL    HW111831   1.131   0.324   3.448  3.5172 -1.1516  2.8821
36143SOL    HW211832   1.228   0.294   3.336 -0.9937  0.7632 -1.9521
36144SOL     OW11833   8.105   4.877   3.889 -0.2080 -0.6020  0.1739
36144SOL    HW111834   8.042   4.900   3.821  2.6064  1.7145 -1.8720
36144SOL    HW211835   8.147   4.797   3.856 -1.2011 -1.4661  0.9542
36145SOL     OW11836   2.190   9.954   4.712 -0.5269 -0.4883  0.3992
36145SOL    HW111837   2.176  10.043   4.680 -0.9603 -0.3358  0.9917
36145SOL    HW211838   2.155   9.955   4.801  3.8150  0.0974  2.3594
36146SOL     OW11839   6.434   8.843   3.744 -0.4042 -0.1297 -0.2290
36146SOL    HW111840   6.455   8.772   3.683 -0.3516  0.5092 -0.9752
36146SOL    HW211841   6.461   8.923   3.697 -1.0788  0.4263  0.3197
36147SOL     OW11842   8.104   5.470  10.780 -0.4937  0.4450  0.6765
36147SOL    HW111843   8.068   5.393  10.735  0.5235  0.7095 -0.6651
36147SOL    HW211844   8.058   5.472  10.864 -1.3454 -0.9798  0.2911
36148SOL     OW11845   7.111   1.928   4.362  0.2649  0.2382  0.2393
36148SOL    HW111846   7.030   1.978   4.360 -0.6281 -1.1258  0.4042
36148SOL    HW211847   7.181   1.993   4.362 -0.8530  1.4891  1.7073
36149SOL     OW11848   3.427  10.300   2.016 -0.1973 -0.5037 -0.2174
36149SOL    HW111849   3.417  10.251   1.934 -0.6529  0.6848 -0.8965
36149SOL    HW211850   3.516  10.335   2.012  0.0971 -1.1806  0.2271
36150SOL     OW11851   4.751   0.527   5.723 -0.9651 -0.2123 -0.9797
36150SOL    HW111852   4.794   0.613   5.730 -1.5817  0.1646 -1.6619
36150SOL    HW211853   4.693   0.536   5.647 -2.5848 -0.5721  0.1662
36151SOL     OW11854  10.065   3.831   3.623 -0.2717 -0.1989  0.0443
36151SOL    HW111855  10.028   3.919   3.616  1.3700  0.3697 -2.5757
36151SOL    HW211856  10.136   3.839   3.686  2.8862  1.6682 -3.3376
36152SOL     OW11857   6.659   9.613   9.335 -0.2731  0.4315 -0.9682
36152SOL    HW111858   6.627   9.583   9.420  1.7460 -0.1765 -0.3608
36152SOL    HW211859   6.652   9.536   9.278  1.5694 -0.2567 -0.3650
36153SOL     OW11860   2.920   4.821   9.729 -0.0080  0.2550  0.2729
36153SOL    HW111861   2.842   4.779   9.765  0.3037  0.1322  0.8090
36153SOL    HW211862   2.966   4.855   9.805  0.8768 -0.3746  0.0277
36154SOL     OW11863   1.139   6.853   6.538  0.1102 -0.5187 -0.2757
36154SOL    HW111864   1.129   6.947   6.522 -1.1286  0.2652  3.8136
36154SOL    HW211865   1.049   6.820   6.543  0.5172 -1.7394 -0.6920
36155SOL     OW11866   9.104   1.690   7.094  0.4946  0.4806 -0.0348
36155SOL    HW111867   9.105   1.688   7.190  1.4172  1.7171 -0.0009
36155SOL    HW211868   9.168   1.624   7.068  0.8860  0.7585  0.2174
36156SOL     OW11869   9.063   5.722   1.939 -0.1691 -0.8425  0.4253
36156SOL    HW111870   9.138   5.754   1.889 -0.5155 -0.2219  0.2932
36156SOL    HW211871   9.082   5.744   2.030  0.5861 -2.2109  0.6174
36157SOL     OW11872   3.791   4.803   8.250 -0.2957 -0.4186 -0.3347
36157SOL    HW111873   3.775   4.751   8.171  0.9471  2.0192 -2.3307
36157SOL    HW211874   3.887   4.809   8.255 -0.3866  0.2369  0.8456
36158SOL     OW11875   9.610   2.555   3.284  0.5400 -0.3269 -0.1433
36158SOL    HW111876   9.704   2.568   3.291  0.5472  0.1873 -0.9267
36158SOL    HW211877   9.572   2.641   3.305  0.1522 -0.8706  1.5225
36159SOL     OW11878   8.799   0.927   8.601 -0.3090 -0.2000 -0.2695
36159SOL    HW111879   8.824   0.845   8.644 -0.9981  0.6191  1.8266
36159SOL    HW211880   8.707   0.938   8.622  0.0106  1.5935  0.3800
36160SOL     OW11881   8.088  10.517   5.314 -0.6952 -0.0835 -0.2077
36160SOL    HW111882   8.017  10.533   5.377  0.5783 -0.8679  1.4922
36160SOL    HW211883   8.165  10.555   5.355  0.1156 -0.3238 -1.4758
36161SOL     OW11884  10.868  10.249   9.780  0.7585  0.2864  0.3290
36161SOL    HW111885  10.904  10.222   9.696 -0.2216 -0.2247  0.0608
36161SOL    HW211886  10.915  10.197   9.845  1.9290  1.0986  0.1706
36162SOL     OW11887  10.764   0.883   6.031  0.5075  0.3535  0.0289
36162SOL    HW111888  10.857   0.904   6.037  0.4095  0.6541  0.5127
36162SOL    HW211889  10.719   0.964   6.055  0.1284 -0.3889  2.0891
36163SOL     OW11890   9.839   1.551   4.587 -0.0197 -0.0471  0.3878
36163SOL    HW111891   9.923   1.546   4.633  0.2128  1.1815  0.1313
36163SOL    HW211892   9.781   1.595   4.648 -0.1917  0.0335  0.1650
36164SOL     OW11893   4.592   2.133   6.053 -0.3984 -0.1144  0.3819
36164SOL    HW111894   4.564   2.216   6.013  0.0095  0.8562  1.9959
36164SOL    HW211895   4.531   2.068   6.018 -0.9726  0.9255 -0.6457
36165SOL     OW11896  10.309   9.389   5.797  0.0609  0.0780  0.3849
36165SOL    HW111897  10.214   9.377   5.798  0.2044 -1.3245 -0.5082
36165SOL    HW211898  10.337   9.353   5.713  1.3441  0.9148  0.4283
36166SOL     OW11899   8.711   8.008   4.053  0.3915  0.0004 -0.5989
36166SOL    HW111900   8.768   8.006   3.976  1.7543 -0.1721  0.3884
36166SOL    HW211901   8.749   8.076   4.109 -0.4959  0.0136  0.0092
36167SOL     OW11902  10.632   2.903   7.605  0.7032 -0.0866 -0.1057
36167SOL    HW111903  10.585   2.919   7.523 -0.6871  0.8964  0.8503
36167SOL    HW211904  10.634   2.807   7.613 -0.8623 -0.1674 -0.3456
36168SOL     OW11905  10.443   8.661   5.395 -0.0981  0.3049 -0.8721
36168SOL    HW111906  10.441   8.666   5.299 -2.6612  0.2906 -0.9001
36168SOL    HW211907  10.367   8.607   5.417  1.5711 -1.4107  1.1296
36169SOL     OW11908   3.847   6.482   1.739  0.5968 -0.2580  0.5640
36169SOL    HW111909   3.761   6.447   1.762  0.7018 -1.2809 -0.4671
36169SOL    HW211910   3.896   6.405   1.707  0.8102  0.8288 -1.9481
36170SOL     OW11911  10.025   5.211   5.034 -0.2557 -0.3740  0.4110
36170SOL    HW111912  10.084   5.286   5.029 -2.0541  1.0241 -1.8531
36170SOL    HW211913  10.070   5.149   5.092  2.1796  1.6382  0.8513
36171SOL     OW11914   7.727   4.005   6.801  0.2670  0.2949  0.3596
36171SOL    HW111915   7.796   3.974   6.743  0.3140  0.3246  0.3996
36171SOL    HW211916   7.647   4.003   6.748  0.0498 -1.0042  0.6881
36172SOL     OW11917   4.494   7.602  10.207 -0.2646  0.6843 -0.8245
36172SOL    HW111918   4.430   7.535  10.182 -1.1238  1.7295 -1.5032
36172SOL    HW211919   4.553   7.557  10.267 -2.2023 -0.0704  0.6347
36173SOL     OW11920   1.252  10.725   9.645  0.5586  0.3715  0.5124
36173SOL    HW111921   1.228  10.805   9.599  0.7330  1.3968  2.1237
36173SOL    HW211922   1.199  10.725   9.724 -1.6143 -2.6308 -0.7153
36174SOL     OW11923   6.753   6.743   1.201  0.1543  0.2618 -0.5803
36174SOL    HW111924   6.704   6.707   1.275 -0.1700 -0.3003 -1.0637
36174SOL    HW211925   6.812   6.672   1.175  0.0997  0.3762 -1.0190
36175SOL     OW11926   5.248   7.707   4.467 -0.5185  1.1377  0.0587
36175SOL    HW111927   5.238   7.763   4.543 -3.1281  0.7277  0.1121
36175SOL    HW211928   5.193   7.747   4.400 -3.0371 -1.5588  0.3048
36176SOL     OW11929   2.250   7.246   9.721 -0.0921  0.2621  0.4737
36176SOL    HW111930   2.249   7.325   9.776  1.3102  1.1146 -0.6625
36176SOL    HW211931   2.158   7.219   9.718 -0.5122  1.4531  1.4447
36177SOL     OW11932   1.576   5.919   5.135 -0.2711 -0.0716 -0.4338
36177SOL    HW111933   1.618   5.932   5.050 -1.1464  0.8708 -0.7447
36177SOL    HW211934   1.546   6.006   5.160 -1.1146 -0.5380  0.2502
36178SOL     OW11935   3.435   8.154   3.939  0.2180 -0.7140  0.2963
36178SOL    HW111936   3.366   8.196   3.888 -0.6275 -0.9676  1.2060
36178SOL    HW211937   3.509   8.147   3.878 -0.1703  0.5695 -0.3616
36179SOL     OW11938   1.059   3.300   8.563  0.4884  0.8216  0.2845
36179SOL    HW111939   1.131   3.251   8.602 -1.7319 -1.4420  1.8394
36179SOL    HW211940   1.000   3.319   8.637 -1.6651  0.4463 -1.2459
36180SOL     OW11941   1.345   9.807   7.229  0.1023 -0.0221  0.6627
36180SOL    HW111942   1.390   9.853   7.300 -1.2465  1.7862  0.4134
36180SOL    HW211943   1.262   9.854   7.219 -0.9171 -1.9239 -0.3126
36181SOL     OW11944   3.812   0.424   4.624  0.2090  0.7265  0.2580
36181SOL    HW111945   3.862   0.352   4.587 -1.5936 -1.2355  1.4052
36181SOL    HW211946   3.865   0.455   4.698  1.1552  0.8236 -0.4500
36182SOL     OW11947   8.369   4.447   6.311 -0.2925  0.2328  0.8146
36182SOL    HW111948   8.367   4.497   6.229 -1.5463  0.4148  0.9298
36182SOL    HW211949   8.304   4.379   6.299 -0.3072  0.1075  1.5680
36183SOL     OW11950  10.767   5.714   8.946  0.0904  0.2234  0.2867
36183SOL    HW111951  10.739   5.688   8.859 -0.4911 -2.2384  1.1170
36183SOL    HW211952  10.825   5.643   8.975 -0.6820  0.3440  2.3294
36184SOL     OW11953   8.314   4.891   1.643 -0.4757 -0.0849 -0.2980
36184SOL    HW111954   8.222   4.886   1.618 -0.7325 -2.2980  0.8250
36184SOL    HW211955   8.313   4.906   1.737  0.3535  0.8846 -0.4255
36185SOL     OW11956  10.692   3.346   3.852  0.2172 -0.2577 -0.0495
36185SOL    HW111957  10.782   3.322   3.873 -0.5662 -2.4055  1.2117
36185SOL    HW211958  10.644   3.331   3.934 -1.2290  1.3276 -0.5512
36186SOL     OW11959   8.047   9.263   5.599  0.5142 -0.2232 -0.1387
36186SOL    HW111960   7.977   9.291   5.541 -1.1479 -0.6793  1.5534
36186SOL    HW211961   8.078   9.344   5.640  0.6823 -0.0751 -0.5523
36187SOL     OW11962   1.717   4.074   8.181  0.1700  0.0675 -0.2392
36187SOL    HW111963   1.623   4.091   8.183  0.3354  1.0202  1.1654
36187SOL    HW211964   1.749   4.125   8.107 -0.6377 -1.8935 -2.0723
36188SOL     OW11965   8.506  10.570   0.728 -0.4157  0.5834 -0.3319
36188SOL    HW111966   8.589  10.521   0.729 -0.1357  1.0160  1.7569
36188SOL    HW211967   8.520  10.642   0.789 -2.5234  0.3028  0.5673
36189SOL     OW11968   1.025   6.359   8.107 -0.2624 -0.0973  0.3565
36189SOL    HW111969   1.053   6.303   8.180 -2.1528 -1.3673  0.1866
36189SOL    HW211970   0.930   6.353   8.108 -0.4668  2.0626 -0.5601
36190SOL     OW11971   7.090   9.784   5.690 -0.4195  0.3979 -0.6471
36190SOL    HW111972   7.023   9.851   5.702 -0.0525  0.3145  2.5004
36190SOL    HW211973   7.171   9.825   5.721  0.1410 -0.9104 -0.2979
36191SOL     OW11974   2.960   4.455   8.661 -0.4229  0.6455 -0.1302
36191SOL    HW111975   2.971   4.512   8.585  0.5953  1.5920  0.6852
36191SOL    HW211976   3.022   4.384   8.648  0.4758  1.3417  0.2805
36192SOL     OW11977   3.697  10.479   7.029  0.3103 -0.0586  0.5107
36192SOL    HW111978   3.787  10.509   7.017 -0.9253  4.2705  0.4217
36192SOL    HW211979   3.658  10.485   6.942 -0.5539  0.0760  0.8960
36193SOL     OW11980   5.556   4.884   9.324 -0.3824  0.2305  0.6347
36193SOL    HW111981   5.587   4.863   9.412 -0.0396  2.6575  1.1788
36193SOL    HW211982   5.634   4.917   9.278 -0.9236  0.7631  0.0610
36194SOL     OW11983   9.121   5.160  10.557  0.5672  0.2116  0.0139
36194SOL    HW111984   9.168   5.148  10.640  0.3709 -2.0839 -0.1230
36194SOL    HW211985   9.079   5.075  10.542 -2.5199  1.7049 -0.5521
36195SOL     OW11986   8.953   5.762   9.433 -0.1560 -0.0517 -0.1374
36195SOL    HW111987   8.999   5.759   9.517  1.6788  0.6096 -1.0699
36195SOL    HW211988   8.890   5.833   9.443  1.0368  0.9942  0.2257
36196SOL     OW11989   0.310   8.983   1.576  0.0150 -0.1610  0.1487
36196SOL    HW111990   0.396   8.969   1.616 -0.4612 -1.5724  0.7315
36196SOL    HW211991   0.327   8.982   1.482  0.4781 -1.8088  0.2238
36197SOL     OW11992   6.596   8.560   1.393  0.2892  0.2330  0.2102
36197SOL    HW111993   6.504   8.543   1.411  0.0900 -0.1141 -1.0118
36197SOL    HW211994   6.597   8.644   1.348  0.5410  0.1035 -0.0301
36198SOL     OW11995   6.032  10.196   1.423 -0.3295 -0.4295 -0.5774
36198SOL    HW111996   6.086  10.134   1.373 -1.9676 -0.6811 -2.1701
36198SOL    HW211997   6.056  10.282   1.388 -1.2073 -0.5774 -1.6277
36199SOL     OW11998   1.567   7.520   4.311 -0.0482 -0.4631 -0.3833
36199SOL    HW111999   1.581   7.569   4.393 -0.7147  2.0603 -1.6597
36199SOL    HW212000   1.656   7.501   4.280  0.3184  1.2935 -0.5438
36200SOL     OW12001   4.521   7.656   7.538 -0.1645  0.0282  0.4433
36200SOL    HW112002   4.484   7.602   7.467 -1.4440  0.1860  0.9767
36200SOL    HW212003   4.584   7.598   7.581 -1.2642 -0.9461  0.7874
36201SOL     OW12004   2.463   9.161   1.609 -0.6146  0.3442 -0.4839
36201SOL    HW112005   2.414   9.110   1.675  0.2101 -2.6809 -2.0477
36201SOL    HW212006   2.541   9.190   1.655 -0.5682 -0.7879  0.1928
36202SOL     OW12007   3.589   4.897   6.695 -0.6062  0.1576  0.1145
36202SOL    HW112008   3.630   4.920   6.612 -0.3537 -1.0065 -0.1047
36202SOL    HW212009   3.501   4.934   6.690 -0.1419  1.2749 -0.0878
36203SOL     OW12010   3.470   5.313   6.248  0.2757 -0.0270 -0.0821
36203SOL    HW112011   3.399   5.364   6.287 -0.4045 -1.8926  1.3043
36203SOL    HW212012   3.540   5.376   6.232 -1.0983  1.5852  0.0026
36204SOL     OW12013   5.486   6.106   9.080 -0.1233 -0.2699 -0.5789
36204SOL    HW112014   5.501   6.068   9.167  2.2487  0.3436 -0.6668
36204SOL    HW212015   5.392   6.094   9.065 -0.2800 -1.9602  1.3170
36205SOL     OW12016   2.628  10.583   6.827 -0.0167 -0.5340  0.5234
36205SOL    HW112017   2.601  10.586   6.736 -0.7117 -0.7045  0.7174
36205SOL    HW212018   2.647  10.674   6.850  0.2650 -0.5062  0.1770
36206SOL     OW12019   2.731   3.914   0.367  0.1859 -0.0909 -0.7932
36206SOL    HW112020   2.645   3.938   0.335 -0.0959 -0.0160 -0.0046
36206SOL    HW212021   2.731   3.941   0.459  0.3199 -1.8896 -0.2224
36207SOL     OW12022   6.395  10.747   3.533  0.2895  0.0434  0.0378
36207SOL    HW112023   6.439  10.680   3.586 -0.4083  1.2332  2.2198
36207SOL    HW212024   6.328  10.783   3.590  1.9713  4.1315 -0.2133
36208SOL     OW12025   7.602   9.504   8.595 -0.2294 -0.6510 -0.1293
36208SOL    HW112026   7.516   9.502   8.553  0.0720  0.8504 -0.8890
36208SOL    HW212027   7.585   9.534   8.684 -0.5887 -1.2412  0.0021
36209SOL     OW12028   6.017   3.493   9.654  0.1308  0.5008 -0.2582
36209SOL    HW112029   6.093   3.486   9.597 -0.1435  0.9189 -0.6888
36209SOL    HW212030   6.050   3.536   9.733  0.8296 -1.3952  0.5299
36210SOL     OW12031   6.896   3.854   6.104  0.2756 -0.0791 -0.3723
36210SOL    HW112032   6.987   3.878   6.087  0.7637 -2.3875 -1.4399
36210SOL    HW212033   6.850   3.874   6.022  0.0544  0.0523 -0.2167
36211SOL     OW12034   6.087   7.985   2.019  0.1082 -0.1763 -0.3799
36211SOL    HW112035   6.063   7.919   2.084 -0.4247 -0.6906 -1.0770
36211SOL    HW212036   6.183   7.985   2.019  0.1075 -0.2250  0.3480
36212SOL     OW12037   7.908   1.966   2.655  0.5645 -0.0248 -0.0315
36212SOL    HW112038   7.940   1.876   2.667  0.4806 -0.0938 -0.3037
36212SOL    HW212039   7.963   2.001   2.585  0.8057  0.2422  0.2946
36213SOL     OW12040   2.089   9.204   0.944  0.0166  0.0520  0.0166
36213SOL    HW112041   2.096   9.289   0.899  1.6979  0.2767  0.6364
36213SOL    HW212042   2.130   9.218   1.029 -1.5661 -0.8467  0.9921
36214SOL     OW12043   8.292   8.619   3.727 -0.2299  0.3081 -0.1504
36214SOL    HW112044   8.288   8.681   3.800  2.4577  2.3021 -1.5221
36214SOL    HW212045   8.280   8.534   3.768  0.6268  1.3692  2.5679
36215SOL     OW12046   0.187   5.264   9.975  0.0095 -0.3612  0.1009
36215SOL    HW112047   0.157   5.340  10.025  0.5016 -1.4370  2.1652
36215SOL    HW212048   0.280   5.256   9.997 -0.1728 -1.9045  0.4697
36216SOL     OW12049   7.737   3.409   3.307  0.5331 -0.4314  0.0453
36216SOL    HW112050   7.763   3.498   3.329 -1.0277  0.2850 -0.8465
36216SOL    HW212051   7.706   3.372   3.390 -1.4641  0.8396 -0.0900
36217SOL     OW12052   7.460   7.275   3.573  0.2752  0.1554  0.6426
36217SOL    HW112053   7.476   7.359   3.531  0.2816 -0.0036  0.3257
36217SOL    HW212054   7.430   7.298   3.661 -0.6896  0.5169  0.2398
36218SOL     OW12055   5.152   7.971   4.916 -0.5879 -0.0457 -0.0326
36218SOL    HW112056   5.219   7.967   4.985 -0.5166 -0.0216 -0.1010
36218SOL    HW212057   5.080   8.019   4.956 -1.7258 -2.4943  1.0479
36219SOL     OW12058   8.220   4.286   5.486  0.2155 -0.1673  0.4595
36219SOL    HW112059   8.255   4.202   5.516 -0.1660 -0.8100 -0.8530
36219SOL    HW212060   8.136   4.295   5.532  1.2037  0.5412  2.2428
36220SOL     OW12061   9.292   1.531   1.156  0.1347  0.4195 -0.4959
36220SOL    HW112062   9.273   1.500   1.067 -0.3963  0.5804 -0.4426
36220SOL    HW212063   9.228   1.600   1.172  0.7814  0.9819 -0.3001
36221SOL     OW12064   9.901  10.399   2.372  0.0567 -0.2256 -0.2412
36221SOL    HW112065   9.806  10.393   2.377  0.0995 -1.9043 -0.5399
36221SOL    HW212066   9.932  10.363   2.455  0.4776  3.2929  1.3034
36222SOL     OW12067   0.566   3.222   1.037 -0.8356  0.1090  0.1537
36222SOL    HW112068   0.528   3.134   1.037 -0.9753  0.1369 -1.4987
36222SOL    HW212069   0.660   3.207   1.047 -0.9097 -0.1943  0.4158
36223SOL     OW12070   6.264   5.491   5.283 -0.3397 -0.4462  0.3237
36223SOL    HW112071   6.172   5.520   5.282 -0.3332 -0.0449  3.3377
36223SOL    HW212072   6.265   5.418   5.344  1.2985 -0.6954  0.0252
36224SOL     OW12073   8.951   8.217   6.620  0.4678  0.4496 -0.0511
36224SOL    HW112074   9.037   8.241   6.654  0.5650  0.7454 -0.4886
36224SOL    HW212075   8.949   8.255   6.532 -1.2311  3.0604  0.9873
36225SOL     OW12076   7.978   3.544   5.581  0.2188 -0.1378  0.0530
36225SOL    HW112077   7.944   3.495   5.656 -0.1424  0.5244  0.3312
36225SOL    HW212078   7.999   3.476   5.516 -1.1686 -0.6177  0.0630
36226SOL     OW12079  10.707   5.711   5.134 -0.5759  0.1768 -0.1968
36226SOL    HW112080  10.716   5.759   5.052 -0.5070  1.5971  0.5982
36226SOL    HW212081  10.613   5.711   5.151 -0.7287 -1.2425 -0.8832
36227SOL     OW12082   7.216  10.119   8.066  0.3314 -0.0625 -0.4911
36227SOL    HW112083   7.156  10.052   8.034 -1.0558  1.2064 -0.6730
36227SOL    HW212084   7.299  10.101   8.022  0.1762 -1.9981 -0.0627
36228SOL     OW12085   5.029   9.447   0.970 -0.1801  0.1900 -0.0568
36228SOL    HW112086   4.956   9.422   1.027  0.8985  0.3281  1.4604
36228SOL    HW212087   5.093   9.377   0.981 -0.4961 -0.5107 -2.2536
36229SOL     OW12088   5.864  10.759   7.943  1.0789 -0.3915  0.1035
36229SOL    HW112089   5.941  10.724   7.898  1.5750 -0.5112  1.0335
36229SOL    HW212090   5.793  10.750   7.879  1.0979 -3.4000  0.3444
36230SOL     OW12091   2.885   1.582   1.697 -0.4855 -0.4680  0.8508
36230SOL    HW112092   2.869   1.647   1.628  0.0518 -0.2667  0.9034
36230SOL    HW212093   2.931   1.511   1.653  3.2166  1.2114  1.5614
36231SOL     OW12094   6.499   0.700  10.178  0.0868 -0.4858  0.3273
36231SOL    HW112095   6.477   0.779  10.128 -0.5688 -0.3707  0.7817
36231SOL    HW212096   6.572   0.661  10.130  0.2766  0.2788 -0.0242
36232SOL     OW12097   4.606  10.678   4.830  0.2276 -0.8551 -0.4849
36232SOL    HW112098   4.601  10.589   4.794  1.1850 -0.2425 -2.2714
36232SOL    HW212099   4.696  10.706   4.811  0.5971 -0.2354  1.9259
36233SOL     OW12100   1.391   8.955  10.852  0.3620 -0.4489 -0.4321
36233SOL    HW112101   1.478   8.942  10.889  0.2307 -0.3631 -0.0797
36233SOL    HW212102   1.373   8.875  10.803  0.1775 -0.9728  0.4520
36234SOL     OW12103   7.506   4.418   0.422 -0.0433 -0.4403 -0.0926
36234SOL    HW112104   7.420   4.385   0.451  0.2511 -1.6687 -0.5342
36234SOL    HW212105   7.539   4.349   0.365  0.9762  0.3091 -0.4274
36235SOL     OW12106   8.925   3.940   3.639 -0.0551 -0.3632 -0.1892
36235SOL    HW112107   8.873   3.867   3.607  0.2457 -1.8105  2.3243
36235SOL    HW212108   8.862   3.999   3.681 -0.0069 -0.6379  0.2779
36236SOL     OW12109   2.059  10.744   0.931  0.1895  0.1586  0.3216
36236SOL    HW112110   2.101  10.816   0.978 -0.7080  1.7391 -1.1651
36236SOL    HW212111   2.023  10.785   0.853 -0.5165 -1.9092 -0.4976
36237SOL     OW12112   4.853   1.333   9.084 -0.1491  0.0476  0.0192
36237SOL    HW112113   4.903   1.342   9.003  0.3735  4.6489  0.5520
36237SOL    HW212114   4.762   1.336   9.056  0.0056 -0.1392 -0.5149
36238SOL     OW12115   8.904   3.596   4.185  0.2375  0.8987  0.1811
36238SOL    HW112116   8.811   3.620   4.188  0.6168  2.3958  0.9820
36238SOL    HW212117   8.942   3.656   4.121  0.5309 -0.2934 -0.8030
36239SOL     OW12118   8.548   0.105   5.799 -0.3481  0.5856  0.6573
36239SOL    HW112119   8.640   0.132   5.791 -0.9924  2.4563 -1.1543
36239SOL    HW212120   8.541   0.029   5.741 -0.1067  0.9213  0.1762
36240SOL     OW12121   8.136   8.705   4.000  0.1985 -1.4184  0.0732
36240SOL    HW112122   8.100   8.709   4.088 -0.4423  1.7037 -0.2141
36240SOL    HW212123   8.228   8.729   4.011  0.5312 -2.5870  0.0172
36241SOL     OW12124   2.809   2.966   4.995  0.0900 -0.3525 -0.1300
36241SOL    HW112125   2.762   3.043   5.025  0.2015  0.3981 -1.7405
36241SOL    HW212126   2.876   3.001   4.936  0.1936 -1.6683 -0.8243
36242SOL     OW12127   3.754   7.406   1.940  0.3399 -0.6475  0.3784
36242SOL    HW112128   3.773   7.316   1.915  3.0070 -0.8392  2.5562
36242SOL    HW212129   3.839   7.450   1.939 -0.4153  1.0350  2.1768
36243SOL     OW12130   3.167   7.667   5.572 -0.5017 -0.1056 -0.2387
36243SOL    HW112131   3.096   7.710   5.524 -1.1378 -0.1452  0.6571
36243SOL    HW212132   3.125   7.627   5.648  0.3998 -0.5858  0.0255
36244SOL     OW12133   5.400   4.588   4.860  0.1079  0.1805  0.2731
36244SOL    HW112134   5.328   4.551   4.912 -2.9210  3.6139 -1.0296
36244SOL    HW212135   5.462   4.619   4.925  0.1706 -2.2429  1.4845
36245SOL     OW12136   3.967   0.919   1.687 -0.2408  0.1030 -0.3825
36245SOL    HW112137   3.963   1.009   1.656  0.9398  0.1167 -0.5399
36245SOL    HW212138   3.941   0.867   1.610 -1.6472  0.3161 -0.0803
36246SOL     OW12139   6.665   8.179   2.349 -0.2829  0.1849 -0.2047
36246SOL    HW112140   6.611   8.100   2.347 -1.9609  1.2399  1.2607
36246SOL    HW212141   6.650   8.217   2.435  3.5004  0.1217  0.6706
36247SOL     OW12142   2.869   5.761   2.555  0.2646 -0.1069  0.4482
36247SOL    HW112143   2.844   5.803   2.473  0.7880  1.8621  1.2241
36247SOL    HW212144   2.884   5.670   2.532 -0.3104  0.2435 -1.4922
36248SOL     OW12145   8.316   7.637   7.284  0.8163  0.5363 -0.1823
36248SOL    HW112146   8.342   7.684   7.205 -0.4051 -0.6810 -1.3765
36248SOL    HW212147   8.230   7.673   7.306  1.3575  1.2105  0.9081
36249SOL     OW12148   4.038   2.454   0.741  0.6423  0.1814 -0.4829
36249SOL    HW112149   4.118   2.431   0.788  0.6748  0.1801 -0.5389
36249SOL    HW212150   4.020   2.544   0.768 -0.1425 -0.2990  0.6504
36250SOL     OW12151   4.883   9.162   4.321  0.8377  0.2059 -0.6080
36250SOL    HW112152   4.939   9.236   4.297 -0.6270  1.9286  0.9873
36250SOL    HW212153   4.816   9.160   4.253  0.4407  0.8659 -0.2468
36251SOL     OW12154  10.842   0.708   3.521 -0.1960  0.3302  0.3348
36251SOL    HW112155  10.822   0.752   3.438  0.0951 -0.2165 -0.0341
36251SOL    HW212156  10.758   0.706   3.568 -0.3460  0.7165  0.0852
36252SOL     OW12157   0.063  10.651  10.919 -0.6364  0.3170 -0.3236
36252SOL    HW112158   0.134  10.712  10.936 -0.8606  0.4825  0.0461
36252SOL    HW212159   0.002  10.664  10.992  0.1906 -1.6277  0.8043
36253SOL     OW12160   1.962   5.073   2.072  0.5011 -0.3976 -0.5616
36253SOL    HW112161   1.963   5.074   2.168  2.3000 -0.8512 -0.5407
36253SOL    HW212162   1.920   5.156   2.047  1.9796  0.7689  0.6324
36254SOL     OW12163   9.309   0.111   5.296  0.2372  0.1443  0.3256
36254SOL    HW112164   9.288   0.030   5.344 -1.1962 -0.3510 -1.0556
36254SOL    HW212165   9.328   0.175   5.365  2.0378 -1.4737  1.4592
36255SOL     OW12166   2.614   2.123   0.223  0.1913  0.1963 -0.7515
36255SOL    HW112167   2.666   2.117   0.143  0.4754 -0.3342 -0.5357
36255SOL    HW212168   2.635   2.042   0.271 -0.8946 -0.0686 -0.6952
36256SOL     OW12169   4.096   2.702   3.552  0.0187 -0.5970  0.4466
36256SOL    HW112170   4.139   2.745   3.478 -3.2550  4.5499  1.0172
36256SOL    HW212171   4.122   2.755   3.628 -1.0912 -2.2739  2.0820
36257SOL     OW12172   5.848   0.395   2.145  0.3220 -0.4839  0.1006
36257SOL    HW112173   5.785   0.447   2.094  0.4436  0.1597  0.5944
36257SOL    HW212174   5.931   0.406   2.097  0.2339 -0.6641 -0.0948
36258SOL     OW12175   2.001   6.299   7.500  0.3418 -0.1436 -0.1408
36258SOL    HW112176   1.927   6.255   7.541  0.6827  0.6510  1.4009
36258SOL    HW212177   2.032   6.361   7.566  1.9006  0.0926 -1.0400
36259SOL     OW12178   8.361   7.473   6.479  0.3462  0.1370 -0.5783
36259SOL    HW112179   8.396   7.389   6.508  0.2657  0.6468  1.1349
36259SOL    HW212180   8.423   7.538   6.513 -1.2162  0.9330  0.9224
36260SOL     OW12181  10.588   3.038   5.359  0.7326  0.6919  0.4456
36260SOL    HW112182  10.654   2.979   5.323  0.4294  1.2523 -1.0934
36260SOL    HW212183  10.552   2.990   5.434  0.3541 -1.2037 -0.8696
36261SOL     OW12184   8.307  10.596   0.507  0.2523  0.0840 -0.1360
36261SOL    HW112185   8.374  10.585   0.575  0.4349 -3.0357 -0.6595
36261SOL    HW212186   8.228  10.561   0.547 -0.8545  2.5423  0.0074
36262SOL     OW12187   1.399   8.871   5.982 -0.0994 -0.0415  0.6941
36262SOL    HW112188   1.467   8.912   6.037 -0.1057  0.4479  0.3430
36262SOL    HW212189   1.319   8.917   6.006 -0.1568 -0.0364  0.4856
36263SOL     OW12190   4.575   6.198  10.390  0.0913  0.1658  0.3399
36263SOL    HW112191   4.601   6.112  10.422 -0.3046  1.1443  3.5782
36263SOL    HW212192   4.481   6.204  10.406 -0.1278  0.7811 -0.9972
36264SOL     OW12193   4.241   7.774   8.293  0.1448 -0.1614 -0.1072
36264SOL    HW112194   4.273   7.775   8.383 -0.0003  0.0949 -0.0586
36264SOL    HW212195   4.292   7.705   8.250  0.8172  0.2895 -0.0492
36265SOL     OW12196   8.100   8.138  10.112 -0.0439  0.0104 -1.0740
36265SOL    HW112197   8.037   8.066  10.108 -0.0790  0.0284 -0.8176
36265SOL    HW212198   8.141   8.129  10.198 -1.7456  1.7523 -0.0059
36266SOL     OW12199   4.561   2.762   3.787  0.2389  0.0996 -0.4339
36266SOL    HW112200   4.501   2.738   3.858  0.6684  0.6589  0.1275
36266SOL    HW212201   4.641   2.713   3.806  1.2638  2.1591  0.9406
36267SOL     OW12202   0.962   5.498   6.573  0.1218  1.4743 -0.1345
36267SOL    HW112203   0.930   5.415   6.607 -0.1438  0.9265 -1.6413
36267SOL    HW212204   1.054   5.482   6.550  0.0649  1.5758 -0.4483
36268SOL     OW12205  10.447   4.916   1.278  0.2397 -0.2897  0.3465
36268SOL    HW112206  10.474   4.861   1.351  1.5751 -0.5742 -0.3091
36268SOL    HW212207  10.360   4.883   1.254 -0.2197 -0.1875  1.7757
36269SOL     OW12208   0.846   4.348   2.545 -0.5832  0.4142  0.0342
36269SOL    HW112209   0.916   4.283   2.545  0.5888  1.5779  1.9519
36269SOL    HW212210   0.888   4.428   2.512 -1.7495  0.4964 -1.3560
36270SOL     OW12211   0.106   4.149   2.203  0.3454 -0.2209 -0.0718
36270SOL    HW112212   0.116   4.088   2.276 -1.9916 -0.7348 -0.1002
36270SOL    HW212213   0.104   4.093   2.125  0.7553  0.1413 -0.3459
36271SOL     OW12214   3.446  10.660   2.314 -0.3343  0.0523  0.1815
36271SOL    HW112215   3.391  10.630   2.242  0.2057  0.4349 -0.3982
36271SOL    HW212216   3.384  10.676   2.386 -0.9819  0.4951 -0.4578
36272SOL     OW12217   6.513   4.378  10.836  0.0449  0.0536 -0.0034
36272SOL    HW112218   6.431   4.344  10.871  0.3800  1.2404  2.0960
36272SOL    HW212219   6.572   4.379  10.911  1.2469  1.4645 -0.9080
36273SOL     OW12220   2.939   5.900   2.857  0.5401  0.1509  0.1013
36273SOL    HW112221   2.907   5.843   2.787  1.3675  0.2454 -0.3702
36273SOL    HW212222   2.908   5.988   2.833  3.0358  0.6599 -1.6325
36274SOL     OW12223   1.656   6.764   8.028  0.5663  0.0891  0.4354
36274SOL    HW112224   1.703   6.842   7.997 -0.1175  0.3107 -0.0638
36274SOL    HW212225   1.725   6.703   8.053  1.1493  0.1802 -0.8578
36275SOL     OW12226   1.731   7.700   7.703 -0.1983  0.2199 -0.4670
36275SOL    HW112227   1.797   7.741   7.647  1.6005 -1.3098  0.4625
36275SOL    HW212228   1.686   7.774   7.744  1.7594  1.3047 -0.1721
36276SOL     OW12229   2.176  10.289  10.387  0.4767 -0.2133 -0.4129
36276SOL    HW112230   2.142  10.355  10.446 -4.6251 -0.6655 -2.3890
36276SOL    HW212231   2.177  10.208  10.438  1.2190  0.2932  0.4031
36277SOL     OW12232   4.986  10.159   4.382 -0.3078 -0.3897 -0.5300
36277SOL    HW112233   4.949  10.218   4.316  0.0042 -0.0511 -0.4046
36277SOL    HW212234   4.998  10.076   4.336 -0.4663 -0.2703 -0.7889
36278SOL     OW12235   0.955   6.900   8.444 -0.3778 -0.2847 -0.2578
36278SOL    HW112236   1.040   6.894   8.488 -0.6692  0.0724  0.3702
36278SOL    HW212237   0.924   6.810   8.440  0.7502 -0.6402 -1.9715
36279SOL     OW12238  10.299   8.245   9.691  0.0117 -0.7178 -0.2843
36279SOL    HW112239  10.337   8.158   9.699 -0.6444 -0.8787  1.4814
36279SOL    HW212240  10.364   8.295   9.641  0.7696 -1.9822 -0.6029
36280SOL     OW12241   9.686   9.559   2.497  0.0067 -0.4497 -0.5612
36280SOL    HW112242   9.736   9.640   2.506 -0.5262  0.0484 -1.7745
36280SOL    HW212243   9.728   9.497   2.557 -0.0792  0.9475  1.0086
36281SOL     OW12244   5.642   0.161   3.167  0.1584 -0.3634 -0.4178
36281SOL    HW112245   5.680   0.073   3.170  0.3680 -0.2633 -0.1476
36281SOL    HW212246   5.686   0.209   3.237  0.1072 -0.0173 -0.6200
36282SOL     OW12247   2.328   7.209   5.836 -0.6604 -0.1285 -0.3860
36282SOL    HW112248   2.391   7.270   5.874  1.5663 -1.3383 -1.9097
36282SOL    HW212249   2.268   7.264   5.785 -0.9517  1.0509  1.1742
36283SOL     OW12250   0.738   8.342   1.427  0.0591 -0.4345  0.1108
36283SOL    HW112251   0.810   8.375   1.374  0.7387 -1.8826  0.0855
36283SOL    HW212252   0.700   8.420   1.468  0.6514  0.5175 -1.0756
36284SOL     OW12253   1.285   1.290   7.384  0.0710 -0.2390 -0.4974
36284SOL    HW112254   1.248   1.263   7.299  0.7959 -1.5137 -0.4386
36284SOL    HW212255   1.377   1.264   7.379  0.2419  0.1507  0.4913
36285SOL     OW12256   7.341   6.518   8.823  0.0529  0.7132  0.1092
36285SOL    HW112257   7.352   6.563   8.739  0.4560 -1.2697 -0.9660
36285SOL    HW212258   7.393   6.438   8.814  0.1275  0.4635  2.2786
36286SOL     OW12259  10.420   8.707   6.159  0.4070  0.4556  0.3316
36286SOL    HW112260  10.482   8.655   6.108 -0.0785 -2.0290  2.1201
36286SOL    HW212261  10.335   8.684   6.124  0.1688 -0.1876  1.3032
36287SOL     OW12262   6.756   3.253  10.783 -0.2971  0.0970 -0.2362
36287SOL    HW112263   6.810   3.326  10.814 -0.7579 -0.2381  1.4918
36287SOL    HW212264   6.818   3.181  10.768  0.0556  0.5731 -1.0899
36288SOL     OW12265   2.128   7.223   8.380  0.7914 -0.1347  0.1769
36288SOL    HW112266   2.167   7.140   8.408 -0.1653 -0.4523  0.6200
36288SOL    HW212267   2.154   7.285   8.448 -1.0829 -0.7871  1.5945
36289SOL     OW12268   1.152   9.962   3.568 -0.4562  0.8210 -0.4004
36289SOL    HW112269   1.141   9.876   3.608  1.0651  0.4480 -0.7040
36289SOL    HW212270   1.126  10.024   3.636 -0.4217  0.1437  0.2451
36290SOL     OW12271   6.376   0.878   2.599  0.2220  0.5251  0.2682
36290SOL    HW112272   6.385   0.964   2.557 -0.8280  0.5113 -0.0265
36290SOL    HW212273   6.406   0.816   2.534  0.9295  0.6603  0.4599
36291SOL     OW12274   3.323   8.841   9.209  0.1635  0.5890 -0.2019
36291SOL    HW112275   3.234   8.857   9.177  0.2960  0.5789 -0.5918
36291SOL    HW212276   3.378   8.854   9.131  0.4861  0.4489  0.0036
36292SOL     OW12277   1.977   9.655   7.006 -0.1418  0.3465  0.1339
36292SOL    HW112278   2.057   9.707   7.005 -0.4110  0.7791 -1.5618
36292SOL    HW212279   1.922   9.697   7.072  0.0810  1.5559 -0.4249
36293SOL     OW12280   0.431   8.183   2.826 -0.0216 -0.1539  0.2535
36293SOL    HW112281   0.398   8.250   2.885  1.3132 -0.2165  1.1206
36293SOL    HW212282   0.518   8.161   2.861  0.7990 -0.2280 -1.7046
36294SOL     OW12283   6.644   4.266   8.819 -0.5473 -0.3520  0.1199
36294SOL    HW112284   6.607   4.196   8.766 -0.2508 -0.9804  0.7198
36294SOL    HW212285   6.696   4.318   8.758 -1.1353 -0.3821 -0.4209
36295SOL     OW12286   6.053   2.995   4.779  0.1809 -0.2546  0.4449
36295SOL    HW112287   6.110   2.940   4.726 -0.3184  0.2988 -0.7066
36295SOL    HW212288   6.085   3.084   4.764  0.6462 -0.1460  1.8628
36296SOL     OW12289   3.760   1.135   6.420 -0.2996 -0.2896  0.3583
36296SOL    HW112290   3.825   1.203   6.433 -1.2799  0.7291  0.1155
36296SOL    HW212291   3.721   1.123   6.507  0.2382 -0.9536  0.5211
36297SOL     OW12292   5.185   5.242   7.068 -0.0427 -0.0008 -0.1217
36297SOL    HW112293   5.179   5.289   6.985 -0.1205  1.2541  0.5604
36297SOL    HW212294   5.101   5.197   7.077 -0.0567 -0.0903 -0.6855
36298SOL     OW12295   4.775   3.840   9.459  0.4149  0.2147  0.0282
36298SOL    HW112296   4.859   3.808   9.426  1.2327 -0.9995  2.9648
36298SOL    HW212297   4.743   3.770   9.515 -3.2226  0.1384 -1.8643
36299SOL     OW12298  10.261   5.928   4.237 -0.4877 -0.6568 -0.1501
36299SOL    HW112299  10.278   5.842   4.200  1.1422 -0.0590 -0.8986
36299SOL    HW212300  10.344   5.974   4.230 -1.6366  1.4539 -1.0796
36300SOL     OW12301   9.663   9.853   7.064  0.3690 -0.4904 -0.7776
36300SOL    HW112302   9.690   9.936   7.026 -1.2709  0.7756  0.6659
36300SOL    HW212303   9.569   9.864   7.081  0.0012 -2.8113 -0.9594
36301SOL     OW12304   3.655   5.108   8.094 -0.1338 -0.3879  0.0917
36301SOL    HW112305   3.700   5.160   8.160 -1.1592  1.2288 -0.4261
36301SOL    HW212306   3.697   5.022   8.098  0.9300  0.1661  1.6797
36302SOL     OW12307   5.782   0.339   3.323 -0.0356  0.4773 -0.1047
36302SOL    HW112308   5.878   0.331   3.328  0.1812  2.7210  0.5337
36302SOL    HW212309   5.758   0.384   3.404 -1.6327  0.1405 -0.3549
36303SOL     OW12310  10.289   1.461   1.988 -0.1480  0.7153 -0.7112
36303SOL    HW112311  10.321   1.527   1.927  0.5028 -0.8064 -2.0937
36303SOL    HW212312  10.209   1.428   1.948 -0.0228  0.0850 -0.4607
36304SOL     OW12313   9.248   8.378   0.800 -0.1844 -0.1069  0.3536
36304SOL    HW112314   9.306   8.358   0.726 -0.0847 -2.3324  0.9919
36304SOL    HW212315   9.302   8.433   0.857  0.5352 -0.3095 -0.1097
36305SOL     OW12316   2.187   3.406   2.436 -0.4052  0.2568  0.3940
36305SOL    HW112317   2.136   3.343   2.384  0.1405  0.1133  0.0210
36305SOL    HW212318   2.200   3.480   2.377  1.3051 -0.4248 -0.1558
36306SOL     OW12319   8.863   3.280   1.823  0.4557  1.0726 -0.2343
36306SOL    HW112320   8.772   3.252   1.811  0.1361  2.2996 -0.8332
36306SOL    HW212321   8.870   3.297   1.917  0.5112 -0.4618  0.0540
36307SOL     OW12322   6.535  10.670  10.045  0.0613 -0.4950  0.1995
36307SOL    HW112323   6.502  10.732  10.111  0.7576 -0.3380  0.4131
36307SOL    HW212324   6.461  10.612  10.027  0.0723 -1.0113  1.6778
36308SOL     OW12325   2.507   2.438   9.029  0.0861  0.8923 -0.4205
36308SOL    HW112326   2.496   2.532   9.012 -0.4416  0.9416  0.1665
36308SOL    HW212327   2.521   2.400   8.942 -0.2687  1.4380 -0.7227
36309SOL     OW12328   0.014  10.026   0.406 -0.7233 -0.3646  0.2636
36309SOL    HW112329  -0.006  10.105   0.456  0.1471  0.8053 -1.1452
36309SOL    HW212330  -0.049  10.026   0.334 -1.3110 -1.4732  0.7628
36310SOL     OW12331  10.351   2.928   2.205  0.1187  0.4514  0.0158
36310SOL    HW112332  10.431   2.910   2.157  0.3822  2.1908 -0.2432
36310SOL    HW212333  10.369   3.008   2.254 -0.8185 -0.1851  1.4986
36311SOL     OW12334   3.385   5.066   3.552  0.2000  0.3450 -0.2284
36311SOL    HW112335   3.373   5.004   3.624  1.3348 -1.5993 -1.6169
36311SOL    HW212336   3.309   5.052   3.496  0.5751  0.0214 -0.6642
36312SOL     OW12337   5.620   0.269   8.881  0.4562 -0.1303 -0.0732
36312SOL    HW112338   5.677   0.256   8.956  0.5962  2.4099  0.3403
36312SOL    HW212339   5.568   0.347   8.903 -3.0019 -2.0801 -0.5663
36313SOL     OW12340   2.965   1.796   3.301 -0.1013  0.2032  0.0849
36313SOL    HW112341   3.002   1.872   3.346 -0.6429 -0.0702  0.9975
36313SOL    HW212342   2.877   1.823   3.275  0.0285  0.1887 -0.3791
36314SOL     OW12343   0.296   5.398   2.862 -0.4375 -0.4164  0.3812
36314SOL    HW112344   0.341   5.382   2.779 -0.1946  0.1303  0.4017
36314SOL    HW212345   0.357   5.365   2.929  0.4304  1.2490  0.4741
36315SOL     OW12346   1.848   4.295   7.202 -0.5176 -0.0791  0.7657
36315SOL    HW112347   1.810   4.231   7.261  0.4664  0.4228  1.9886
36315SOL    HW212348   1.935   4.313   7.238 -0.3481  1.1174 -0.1601
36316SOL     OW12349   6.946   6.097   0.801 -0.3090 -0.1627 -0.3834
36316SOL    HW112350   6.870   6.110   0.858  0.5979  0.2695  0.7839
36316SOL    HW212351   7.013   6.154   0.839 -0.3245  2.0361 -3.2869
36317SOL     OW12352   4.572   0.594   5.492  0.3362 -0.2655 -0.2508
36317SOL    HW112353   4.642   0.636   5.441 -0.0934 -1.0419 -1.5109
36317SOL    HW212354   4.500   0.584   5.430 -0.2432 -1.1331  0.5435
36318SOL     OW12355   4.272   9.693   0.443  0.4560 -0.4384 -0.1497
36318SOL    HW112356   4.215   9.765   0.417 -0.7187 -0.9270  0.9777
36318SOL    HW212357   4.311   9.721   0.526  4.0673  1.0464 -2.0975
36319SOL     OW12358   9.638   5.061   1.419 -0.3657 -0.0995  0.1345
36319SOL    HW112359   9.722   5.103   1.400 -1.2115  1.4349 -0.3327
36319SOL    HW212360   9.629   5.068   1.514 -0.3912  0.5800  0.0851
36320SOL     OW12361   7.570   9.938   4.309 -0.6090  0.3217 -0.2060
36320SOL    HW112362   7.569   9.843   4.306  2.0194  0.2140 -0.3848
36320SOL    HW212363   7.559   9.966   4.218  1.2009  0.0247 -0.5638
36321SOL     OW12364   1.375   5.854   4.501  0.1590  0.1521  0.1838
36321SOL    HW112365   1.458   5.815   4.473 -0.1723 -0.4303  0.0112
36321SOL    HW212366   1.322   5.780   4.530  0.1908  0.6536  1.5853
36322SOL     OW12367   6.683   7.229   9.899 -0.7181 -0.0113  0.0640
36322SOL    HW112368   6.664   7.323   9.906  2.1439  0.7819 -1.2088
36322SOL    HW212369   6.655   7.206   9.811  0.0350  0.0839 -0.2106
36323SOL     OW12370   6.125   4.286   8.478  0.1819 -0.0421  0.1693
36323SOL    HW112371   6.070   4.231   8.533 -0.1966  0.6014  0.4389
36323SOL    HW212372   6.214   4.268   8.508  0.0310 -0.2149  0.5140
36324SOL     OW12373   0.326   2.191   5.097  0.4414  0.4133 -0.3717
36324SOL    HW112374   0.414   2.213   5.128  0.7299  0.1542 -0.9700
36324SOL    HW212375   0.334   2.100   5.066  0.0376  0.4793 -0.6817
36325SOL     OW12376   9.569   3.331   4.385 -0.3980  0.3162 -0.4635
36325SOL    HW112377   9.511   3.375   4.323  1.1294  0.5601 -1.7805
36325SOL    HW212378   9.657   3.360   4.360  0.4243 -1.2676  0.4569
36326SOL     OW12379   4.818   5.891   2.446 -0.3910  0.3011 -0.2558
36326SOL    HW112380   4.852   5.817   2.496  1.3186  0.4474 -1.1000
36326SOL    HW212381   4.773   5.851   2.372  0.3491  0.0748 -0.5964
36327SOL     OW12382   0.504  10.517   4.971 -0.2405 -0.3338 -0.0272
36327SOL    HW112383   0.499  10.428   4.936  0.2804 -0.7928  1.0307
36327SOL    HW212384   0.476  10.508   5.063  0.0039  0.5599  0.1418
36328SOL     OW12385   6.375   0.994   2.988 -0.1490 -0.2059 -0.1313
36328SOL    HW112386   6.471   0.987   2.987 -0.0350  0.6648  1.5885
36328SOL    HW212387   6.346   0.915   2.942  1.3790  0.2997 -2.1700
36329SOL     OW12388  10.186   2.021   0.325  0.0827 -0.1084  0.2893
36329SOL    HW112389  10.271   2.000   0.287 -0.1684 -1.9453  0.6213
36329SOL    HW212390  10.206   2.050   0.414  0.3193 -1.9810  0.8909
36330SOL     OW12391   5.603   4.653   5.033  0.2925 -0.2693  0.3490
36330SOL    HW112392   5.622   4.727   5.091  0.5192 -0.5828  0.6778
36330SOL    HW212393   5.687   4.633   4.992  0.1492 -0.1002 -0.0318
36331SOL     OW12394   8.100   7.988   4.625  0.4762  0.6828  0.2077
36331SOL    HW112395   8.077   7.977   4.717 -2.8823 -2.1623 -0.7510
36331SOL    HW212396   8.154   7.912   4.604 -1.0914 -0.2460 -0.6895
36332SOL     OW12397   8.468  10.140   7.383 -0.4775 -0.2511  0.1117
36332SOL    HW112398   8.454  10.218   7.329 -1.1869  0.2801  1.0161
36332SOL    HW212399   8.462  10.067   7.323 -0.3015  0.3689 -0.6783
36333SOL     OW12400   7.085   1.789   2.734  0.0292  0.0212 -0.3924
36333SOL    HW112401   7.066   1.856   2.800  1.9089 -0.0643  0.2859
36333SOL    HW212402   7.178   1.799   2.715  0.3996 -2.4098 -0.2141
36334SOL     OW12403   1.400   1.426   3.444  0.2500 -0.0673  0.5246
36334SOL    HW112404   1.306   1.444   3.446  0.4163  0.8872  0.3041
36334SOL    HW212405   1.440   1.512   3.429  1.1418 -0.5054  0.3570
36335SOL     OW12406   1.765  10.304   9.235 -0.2958  0.4252 -0.2024
36335SOL    HW112407   1.722  10.335   9.315  0.2447 -3.2374  1.7267
36335SOL    HW212408   1.856  10.332   9.245 -0.3053  0.2820  0.3014
36336SOL     OW12409   9.106   4.094   4.043  0.5653  0.6202  0.5038
36336SOL    HW112410   9.114   4.045   3.961  1.8640 -0.6343  1.3366
36336SOL    HW212411   9.141   4.180   4.023  0.2897  0.5230 -0.4306
36337SOL     OW12412   7.062   7.332  10.773  0.2420  0.0775 -0.6087
36337SOL    HW112413   7.113   7.251  10.777 -0.4830 -0.3916 -0.5802
36337SOL    HW212414   7.025   7.333  10.685  1.5940  1.2398 -1.2028
36338SOL     OW12415   9.888   7.291   8.730 -0.0905 -0.0960  0.0997
36338SOL    HW112416   9.907   7.381   8.755 -0.8650 -0.4747  2.2707
36338SOL    HW212417   9.836   7.256   8.803  0.2792 -2.3246 -0.6238
36339SOL     OW12418   8.242   1.470   2.069  0.7942 -0.7390  0.0599
36339SOL    HW112419   8.155   1.434   2.083  0.4665 -0.1425 -0.3665
36339SOL    HW212420   8.254   1.532   2.141  0.2595  0.2477 -0.6670
36340SOL     OW12421   8.499   1.041   6.076  0.2536 -0.6493  0.7020
36340SOL    HW112422   8.454   1.089   6.146 -1.2245 -0.5986 -0.2230
36340SOL    HW212423   8.586   1.080   6.071 -0.2654  0.6164  1.2560
36341SOL     OW12424   8.641   6.161   6.720 -0.4405  0.6856 -0.3821
36341SOL    HW112425   8.551   6.147   6.749 -0.4604 -2.0740 -1.4406
36341SOL    HW212426   8.643   6.252   6.690 -2.9730  0.7323 -0.6171
36342SOL     OW12427   2.227   3.304   7.412 -0.5132 -0.2218  0.3197
36342SOL    HW112428   2.240   3.325   7.319  0.8035 -1.0031  0.3036
36342SOL    HW212429   2.237   3.388   7.457 -0.0750 -0.0097 -0.1616
36343SOL     OW12430   1.646  10.131   2.157 -0.1857  0.6125  0.2187
36343SOL    HW112431   1.583  10.097   2.094  0.5623  0.0543 -0.2467
36343SOL    HW212432   1.731  10.122   2.114  0.2667  0.9209  1.0138
36344SOL     OW12433   5.864   1.450   2.287 -0.4873 -0.1477  0.0789
36344SOL    HW112434   5.803   1.377   2.298 -2.0974  0.9007 -1.2294
36344SOL    HW212435   5.889   1.474   2.377 -0.1043 -2.0978  0.5381
36345SOL     OW12436   7.719  10.462   0.392 -0.0541 -0.0898 -0.4091
36345SOL    HW112437   7.761  10.540   0.356  2.1304 -1.6545 -1.4556
36345SOL    HW212438   7.749  10.458   0.483 -1.6782  1.2374  0.2312
36346SOL     OW12439   0.494   7.445   9.667  0.8377  0.6192  0.0687
36346SOL    HW112440   0.469   7.498   9.591 -2.0354 -1.2925 -0.4875
36346SOL    HW212441   0.428   7.467   9.734  0.4804 -1.1111  0.3236
36347SOL     OW12442   0.113   8.034   6.209 -0.1438  0.2904  0.4362
36347SOL    HW112443   0.097   7.942   6.188 -2.9636  0.8832 -0.3464
36347SOL    HW212444   0.119   8.036   6.305  1.9914 -0.9234  0.3954
36348SOL     OW12445   0.127   2.647   7.269  0.2741 -0.0127 -0.3187
36348SOL    HW112446   0.033   2.633   7.271  0.3962 -1.2319 -1.2842
36348SOL    HW212447   0.164   2.558   7.270  1.4573  0.4611  1.3319
36349SOL     OW12448  10.013   2.330   7.406 -0.2446  0.3777  0.3831
36349SOL    HW112449  10.027   2.290   7.320  0.4065  2.4717 -0.5453
36349SOL    HW212450  10.084   2.295   7.460  0.2385  0.1764 -0.3609
36350SOL     OW12451   3.348   7.502   5.964 -0.6227 -0.1475  0.0274
36350SOL    HW112452   3.287   7.480   6.035 -0.5867  0.0657  0.1251
36350SOL    HW212453   3.333   7.434   5.898  0.4970 -1.3210  0.9267
36351SOL     OW12454   0.627   0.166   1.348  0.0651 -0.3907  0.5370
36351SOL    HW112455   0.650   0.246   1.301  0.2727 -0.9096 -0.2514
36351SOL    HW212456   0.710   0.136   1.387 -0.3354  0.7428  2.3669
36352SOL     OW12457   0.407   1.728   9.572  0.0490  0.0835  0.5754
36352SOL    HW112458   0.358   1.651   9.602 -0.9744  0.5736  0.1889
36352SOL    HW212459   0.488   1.726   9.624 -0.2128 -0.9407  0.9649
36353SOL     OW12460   8.043   5.348   2.779  0.0133 -0.1344  0.1490
36353SOL    HW112461   7.948   5.339   2.772 -0.2147  2.0067 -0.0855
36353SOL    HW212462   8.067   5.411   2.711  1.8688 -1.9093 -0.9425
36354SOL     OW12463   4.519   4.877   0.979 -0.8246  0.8844 -0.4782
36354SOL    HW112464   4.586   4.935   1.015 -0.6386 -0.1532  0.9038
36354SOL    HW212465   4.449   4.936   0.950 -2.2897  1.7677  4.1224
36355SOL     OW12466   8.803   6.820   5.463  0.2130 -0.2192 -0.2220
36355SOL    HW112467   8.875   6.882   5.451  0.6580 -0.5783  0.5187
36355SOL    HW212468   8.727   6.864   5.425  0.2397  1.3343  1.3881
36356SOL     OW12469   1.940   9.408   3.358 -0.1489 -0.0555 -0.6496
36356SOL    HW112470   1.849   9.432   3.376  0.2999  0.5915  0.9701
36356SOL    HW212471   1.980   9.488   3.324  0.2586  0.2330  0.4671
36357SOL     OW12472   1.675   7.202   0.758  0.2950 -0.4345 -0.2329
36357SOL    HW112473   1.755   7.149   0.758  0.1742 -0.6188  0.2316
36357SOL    HW212474   1.696   7.277   0.702  0.5732 -0.8099 -0.6344
36358SOL     OW12475   9.391   6.990   9.460 -0.2489 -0.1867  0.6175
36358SOL    HW112476   9.339   7.042   9.521 -1.0063 -0.4579  0.2132
36358SOL    HW212477   9.403   7.047   9.384  0.0737 -0.1156  0.7196
36359SOL     OW12478   3.194   2.460   9.480 -0.7802 -0.1163  0.1642
36359SOL    HW112479   3.243   2.380   9.498 -1.9444 -0.5974  1.3860
36359SOL    HW212480   3.237   2.527   9.534 -0.5111 -0.1813  0.0301
36360SOL     OW12481   7.919   3.052   0.689 -0.1002  0.2473 -0.3573
36360SOL    HW112482   7.830   3.082   0.707 -0.1253 -1.0560  2.1337
36360SOL    HW212483   7.975   3.121   0.725 -0.1792 -0.9700  2.3943
36361SOL     OW12484   7.691   8.507   8.175 -0.3611 -0.0884  0.1744
36361SOL    HW112485   7.632   8.543   8.109  0.4108 -1.4515 -1.3374
36361SOL    HW212486   7.702   8.415   8.150  2.3973  0.0988  0.3248
36362SOL     OW12487   0.487   4.673   0.546  0.5160  0.2071 -0.5809
36362SOL    HW112488   0.503   4.757   0.503  0.9237  0.8509  0.7610
36362SOL    HW212489   0.515   4.687   0.636  0.6877 -1.4157 -0.3518
36363SOL     OW12490   0.386   8.910   7.197  0.3668 -0.3096  0.2197
36363SOL    HW112491   0.382   8.954   7.112 -0.2621  0.9124  0.8421
36363SOL    HW212492   0.382   8.817   7.176  1.8198 -0.1074 -1.1655
36364SOL     OW12493   4.182   1.501   4.854  0.5870 -0.1192  0.7414
36364SOL    HW112494   4.170   1.447   4.776  3.0206  2.1062 -1.3874
36364SOL    HW212495   4.120   1.573   4.843 -0.6535 -0.9090  2.1285
36365SOL     OW12496  10.595   2.524   0.616 -0.6377 -0.0004  0.4306
36365SOL    HW112497  10.619   2.496   0.705 -0.9080 -0.3556  0.3945
36365SOL    HW212498  10.629   2.613   0.609 -0.0713 -0.1945  0.6736
36366SOL     OW12499   3.620   6.007   3.267 -0.3795  0.9730 -0.5914
36366SOL    HW112500   3.681   6.079   3.250  0.0436  0.5862 -0.7199
36366SOL    HW212501   3.533   6.046   3.254 -0.1258  0.9036 -2.9781
36367SOL     OW12502   0.902   2.235   7.217  0.2060 -0.1145  0.2427
36367SOL    HW112503   0.965   2.307   7.218 -0.2632  0.3167 -0.4116
36367SOL    HW212504   0.834   2.263   7.155 -0.5504 -0.6324  0.8095
36368SOL     OW12505   4.512   6.822   1.778  0.2562  0.1082 -0.0545
36368SOL    HW112506   4.586   6.797   1.723  2.1768  0.9808  1.9810
36368SOL    HW212507   4.487   6.741   1.823 -1.6850 -0.7445 -2.4188
36369SOL     OW12508   1.528   3.160   3.834  0.1438  0.3112  0.0868
36369SOL    HW112509   1.484   3.208   3.764  1.9302  0.9759 -0.6294
36369SOL    HW212510   1.470   3.085   3.850 -0.4076  0.2118 -1.9963
36370SOL     OW12511   5.474  10.637   6.664 -0.0750 -0.3919 -0.4894
36370SOL    HW112512   5.392  10.650   6.615 -0.3835 -2.1517 -0.4983
36370SOL    HW212513   5.448  10.584   6.739  0.7263  0.7542  0.6344
36371SOL     OW12514   8.747   3.778   2.712 -0.3463  0.5413 -0.0179
36371SOL    HW112515   8.840   3.798   2.698 -0.3195  1.7129  1.5766
36371SOL    HW212516   8.747   3.696   2.761 -0.0533  1.2239  1.1805
36372SOL     OW12517   7.837   0.136   1.996 -0.0614 -0.0196 -0.2654
36372SOL    HW112518   7.850   0.043   1.976  2.0839  0.2918 -0.5472
36372SOL    HW212519   7.851   0.142   2.091 -0.8413 -0.0530 -0.1370
36373SOL     OW12520   7.421   0.949   3.980  0.0467  0.6792 -0.2700
36373SOL    HW112521   7.460   0.916   4.061  0.0708  0.4140 -0.3909
36373SOL    HW212522   7.346   0.891   3.964 -0.1067  0.8830 -0.3048
36374SOL     OW12523   8.564   6.434   2.994  0.1294  0.0304  0.0859
36374SOL    HW112524   8.611   6.510   2.958  0.3374  0.6988  1.6463
36374SOL    HW212525   8.483   6.429   2.943  0.6974  0.4999 -0.8914
36375SOL     OW12526   5.753   1.792  10.867 -0.0667 -0.8815  0.2475
36375SOL    HW112527   5.778   1.703  10.840  1.3650 -1.0427  1.9476
36375SOL    HW212528   5.835   1.841  10.868 -0.9072  0.6427 -1.1512
36376SOL     OW12529   5.967   3.450   6.446  0.1749  0.0162 -0.2796
36376SOL    HW112530   6.013   3.366   6.439  3.0243  1.4646 -0.6436
36376SOL    HW212531   5.979   3.491   6.360 -1.4259  0.6992 -0.2095
36377SOL     OW12532   5.898   2.095  10.701 -0.2572 -0.3213 -0.3592
36377SOL    HW112533   5.839   2.039  10.652 -0.0677  0.9558 -2.1430
36377SOL    HW212534   5.884   2.183  10.664  0.8056  0.4806  1.0304
36378SOL     OW12535   3.614   7.828   2.473 -0.9316  0.3567 -0.3277
36378SOL    HW112536   3.630   7.826   2.378  0.9930 -0.1432 -0.0484
36378SOL    HW212537   3.664   7.904   2.504  0.4788 -0.8651  0.5465
36379SOL     OW12538   2.456   8.091   8.783 -0.3452  0.3933  0.1921
36379SOL    HW112539   2.392   8.135   8.838  0.1599  1.7595 -0.2785
36379SOL    HW212540   2.443   7.998   8.801 -2.4434  0.6265  0.0977
36380SOL     OW12541   3.125   0.685   6.480  0.2373 -0.4748  0.3618
36380SOL    HW112542   3.029   0.693   6.481  0.1693 -1.2454  0.6962
36380SOL    HW212543   3.156   0.771   6.452 -0.6249 -0.8102 -1.8057
36381SOL     OW12544   0.493   9.636   0.974 -0.0398 -0.0585  0.5535
36381SOL    HW112545   0.578   9.639   1.017 -0.0886 -0.3226  0.6739
36381SOL    HW212546   0.448   9.562   1.015 -1.0252  1.1645  1.7662
36382SOL     OW12547   5.826   8.839   4.912  0.3135  0.0593  0.2625
36382SOL    HW112548   5.846   8.750   4.884 -0.7081  0.2378 -1.0845
36382SOL    HW212549   5.898   8.892   4.876  0.1076 -0.0060 -0.2454
36383SOL     OW12550   3.274   9.180   7.867  0.4807  0.2827 -0.4634
36383SOL    HW112551   3.259   9.131   7.948 -1.0144 -0.0888 -0.9186
36383SOL    HW212552   3.233   9.265   7.883  0.9135  0.5090 -0.5437
36384SOL     OW12553   1.539   7.310   5.115  0.0832 -0.2215  0.4804
36384SOL    HW112554   1.449   7.299   5.145  0.6348  0.3958  2.5151
36384SOL    HW212555   1.535   7.386   5.056 -0.4779  0.8915  1.8963
36385SOL     OW12556   5.270   4.586   1.527 -0.0750 -0.0557  0.5879
36385SOL    HW112557   5.221   4.589   1.609 -0.5113  1.4744  0.3000
36385SOL    HW212558   5.207   4.557   1.462  0.4308 -1.9065  0.8567
36386SOL     OW12559   9.135  10.532   1.768 -0.1880  0.2530  0.4171
36386SOL    HW112560   9.060  10.562   1.820 -0.4126  0.9811 -0.3057
36386SOL    HW212561   9.196  10.606   1.769 -0.1584  0.2463 -0.2687
36387SOL     OW12562   6.840   4.721   9.852 -0.0409 -0.3229 -0.0109
36387SOL    HW112563   6.782   4.657   9.893 -0.8978 -1.1581 -2.3310
36387SOL    HW212564   6.784   4.795   9.830 -0.4344 -1.2787 -2.5870
36388SOL     OW12565   5.772   6.946  10.377  0.1448  0.3454  0.2656
36388SOL    HW112566   5.717   6.935  10.454 -0.0119  0.3629  0.1555
36388SOL    HW212567   5.828   6.869  10.377  0.1289  0.3332  0.3839
36389SOL     OW12568   8.941   9.239   6.838  0.7642  0.1706 -0.3857
36389SOL    HW112569   8.996   9.284   6.902  0.0889 -0.2259  0.4997
36389SOL    HW212570   8.872   9.301   6.817  0.3206 -0.1271  0.1766
36390SOL     OW12571   4.477   2.959   4.248  0.3015 -0.0523  0.0680
36390SOL    HW112572   4.406   3.004   4.202  0.6537  1.6614  1.1005
36390SOL    HW212573   4.444   2.870   4.261 -1.6598  0.6661  0.4318
36391SOL     OW12574  10.020   9.510   7.016  0.5092 -0.0948  0.3890
36391SOL    HW112575   9.978   9.596   7.008 -0.3283 -0.5265 -0.0036
36391SOL    HW212576  10.103   9.519   6.968  0.7100  0.6600  0.8597
36392SOL     OW12577   1.280   1.099   8.102  0.4797  0.0594 -0.1087
36392SOL    HW112578   1.291   1.043   8.179  0.8732 -0.0372 -0.2333
36392SOL    HW212579   1.351   1.163   8.109 -1.4043  2.1660  1.3980
36393SOL     OW12580   4.123   5.649   3.863  0.2221  0.1538  0.5857
36393SOL    HW112581   4.194   5.622   3.805  0.2556 -0.3507  0.8568
36393SOL    HW212582   4.044   5.614   3.823  0.2059  0.0991  0.6658
36394SOL     OW12583   8.529   5.808   9.532  0.4584 -0.0261  0.1737
36394SOL    HW112584   8.527   5.724   9.486  0.2176 -0.3623  0.7883
36394SOL    HW212585   8.527   5.785   9.625 -0.2284  0.6761  0.3419
36395SOL     OW12586   6.687   2.909  10.200 -0.6945  0.2148  0.2082
36395SOL    HW112587   6.653   2.824  10.227 -1.9477  1.1818  1.8651
36395SOL    HW212588   6.628   2.938  10.131 -0.4265 -0.1384 -0.1707
36396SOL     OW12589   6.291   6.699   2.036  0.2589 -0.7492 -0.4480
36396SOL    HW112590   6.356   6.668   2.099 -2.8993 -0.4870  3.3132
36396SOL    HW212591   6.299   6.639   1.962  2.8889 -2.3605  0.9591
36397SOL     OW12592   1.472   9.919   2.607 -0.5003 -0.2769  0.3893
36397SOL    HW112593   1.377   9.908   2.617 -0.6078  0.6734  0.4721
36397SOL    HW212594   1.482   9.974   2.530 -0.0445  0.2037  0.7867
36398SOL     OW12595   5.923   9.940   5.480  0.0209  0.2335  0.0273
36398SOL    HW112596   5.879   9.858   5.460  1.5836 -1.1600  1.9705
36398SOL    HW212597   5.852  10.005   5.486 -1.2591 -0.9717 -1.3070
36399SOL     OW12598   7.079   2.358   1.002 -0.2618 -0.0117 -0.2422
36399SOL    HW112599   7.104   2.343   0.911 -0.6127  3.6863 -1.1080
36399SOL    HW212600   6.986   2.379   0.999 -1.1132 -2.8649  1.5096
36400SOL     OW12601   2.091   2.185   6.140  0.2304  0.4210  0.3910
36400SOL    HW112602   2.051   2.265   6.108 -0.3498 -0.0855 -0.1976
36400SOL    HW212603   2.087   2.125   6.065  0.3759 -0.2499  0.9065
36401SOL     OW12604   9.202   0.526   7.806 -0.1919  0.2178 -0.3473
36401SOL    HW112605   9.163   0.613   7.807 -0.4995  0.0904  0.9086
36401SOL    HW212606   9.295   0.541   7.822 -0.1123  0.3686 -0.9525
36402SOL     OW12607   2.711   0.638   9.207  0.0756 -0.4349  0.1095
36402SOL    HW112608   2.694   0.566   9.146  0.4829  0.2316 -0.8129
36402SOL    HW212609   2.633   0.693   9.201  0.5434  0.1709 -0.6077
36403SOL     OW12610   3.488   0.470   0.628 -0.2284 -0.7035  0.3108
36403SOL    HW112611   3.564   0.527   0.618  0.3728 -1.3126  1.2326
36403SOL    HW212612   3.414   0.524   0.603  0.3755  0.3326  0.6971
36404SOL     OW12613   3.405   7.509   7.282 -0.1417  0.2320  0.4890
36404SOL    HW112614   3.362   7.427   7.259 -1.9912  0.5753  2.3943
36404SOL    HW212615   3.472   7.521   7.214 -0.5142 -2.2807 -0.4312
36405SOL     OW12616   3.172   4.951   1.310  0.2084 -0.5329 -0.0603
36405SOL    HW112617   3.249   4.946   1.367  1.2641  0.1903 -1.3736
36405SOL    HW212618   3.111   4.886   1.347  1.0251 -0.4169  1.5900
36406SOL     OW12619   5.160   0.761   0.602 -0.2274  1.0493 -0.2308
36406SOL    HW112620   5.155   0.718   0.687  2.0333  1.1674  0.0197
36406SOL    HW212621   5.119   0.846   0.616  1.8202  1.8463  1.3166
36407SOL     OW12622   7.747   7.151   6.188 -0.7956  0.3458 -0.1736
36407SOL    HW112623   7.763   7.057   6.180  0.7142  0.7163 -2.6934
36407SOL    HW212624   7.661   7.165   6.149 -0.9135  0.0338 -0.0219
36408SOL     OW12625   0.528   7.131   4.542 -0.0634  0.1722 -0.0093
36408SOL    HW112626   0.561   7.188   4.472  0.3916 -0.6072 -0.4444
36408SOL    HW212627   0.435   7.119   4.521 -0.2911  1.1597  0.3770
36409SOL     OW12628   8.637   4.315   3.392 -0.0333 -0.0177  0.1831
36409SOL    HW112629   8.719   4.279   3.359 -0.1195  0.1646 -0.2272
36409SOL    HW212630   8.649   4.410   3.389  0.4320  0.0063  1.8589
36410SOL     OW12631   8.737   1.611   3.567  0.0983 -0.1034  0.3635
36410SOL    HW112632   8.662   1.557   3.593  0.4394 -0.2147  1.1484
36410SOL    HW212633   8.722   1.695   3.611  0.4731 -0.1559  0.5949
36411SOL     OW12634   0.690   2.334   2.665  0.0108  0.2945 -0.0009
36411SOL    HW112635   0.654   2.306   2.749  0.1738 -0.7625 -0.2600
36411SOL    HW212636   0.616   2.324   2.604  0.9326 -3.0580 -0.7756
36412SOL     OW12637   7.055   5.380   2.214  0.0234 -0.2635  0.0927
36412SOL    HW112638   7.063   5.471   2.187 -1.3825  0.0185  0.5661
36412SOL    HW212639   7.042   5.384   2.309 -0.0474 -0.9623  0.1201
36413SOL     OW12640   6.015   4.316   2.245 -0.3633 -0.4537 -0.1685
36413SOL    HW112641   6.006   4.406   2.276  2.4416 -0.2506  0.2926
36413SOL    HW212642   6.082   4.277   2.303  0.6657 -1.9089 -2.2084
36414SOL     OW12643   8.944   8.749   3.749  0.5374  0.1373 -0.3656
36414SOL    HW112644   8.985   8.680   3.800 -0.5718 -0.4545 -0.2390
36414SOL    HW212645   8.924   8.708   3.665  0.0697  0.3669 -0.3699
36415SOL     OW12646   6.119   3.280   3.801 -0.0192 -0.2147  0.2487
36415SOL    HW112647   6.110   3.375   3.804 -1.1098 -0.3294  1.0373
36415SOL    HW212648   6.158   3.263   3.715  3.9513  1.1711  1.5651
36416SOL     OW12649   1.439  10.228  10.475 -0.0845 -0.2359  0.1197
36416SOL    HW112650   1.450  10.189  10.562 -0.3708 -1.8577 -0.5233
36416SOL    HW212651   1.516  10.198  10.426 -1.1700 -1.4929 -0.8955
36417SOL     OW12652   0.073   6.254   2.573  0.1949 -0.2311 -0.4554
36417SOL    HW112653  -0.010   6.220   2.604  0.1793 -0.1912 -0.4530
36417SOL    HW212654   0.054   6.287   2.485 -0.0054  0.6060 -0.1087
36418SOL     OW12655   5.586   0.056   2.730 -0.2850 -0.4714  0.0229
36418SOL    HW112656   5.512   0.067   2.790 -0.7719 -1.1250 -0.4365
36418SOL    HW212657   5.605   0.145   2.699 -0.9890 -0.3156  0.0237
36419SOL     OW12658   0.118   6.944   7.893 -0.2816  0.5028  0.3189
36419SOL    HW112659   0.026   6.963   7.875 -0.4649  0.2836  0.9800
36419SOL    HW212660   0.144   6.881   7.827 -0.3238  1.3032 -0.4798
36420SOL     OW12661   9.410   3.855   0.003  0.1923 -0.0120  0.0680
36420SOL    HW112662   9.387   3.781   0.060 -2.3650  1.3483  0.9923
36420SOL    HW212663   9.357   3.928   0.036  1.0216  1.6937 -2.1037
36421SOL     OW12664  10.054   7.028   9.365  0.3452 -0.6679  0.2616
36421SOL    HW112665  10.038   6.941   9.327  0.8780 -0.8406  0.4299
36421SOL    HW212666  10.086   7.009   9.453  0.8826 -0.3097  0.1447
36422SOL     OW12667   7.740   9.008   1.370 -0.1750 -0.3503 -0.0268
36422SOL    HW112668   7.758   9.101   1.379 -0.8941  0.2243 -3.1784
36422SOL    HW212669   7.679   8.988   1.440  0.1556  1.4803  0.8364
36423SOL     OW12670   4.250   9.527   8.580  0.0944 -0.2439  0.3477
36423SOL    HW112671   4.277   9.615   8.558 -0.0684  0.2930  2.1168
36423SOL    HW212672   4.290   9.471   8.513 -1.4791  1.3125 -2.0209
36424SOL     OW12673   2.128   6.181   4.335  0.4180  0.4227 -0.3755
36424SOL    HW112674   2.172   6.182   4.250 -1.5772 -0.0348 -1.4714
36424SOL    HW212675   2.051   6.237   4.324 -1.7489 -2.2364 -0.0155
36425SOL     OW12676  10.183   5.286   6.034 -0.1358  0.4194  0.1542
36425SOL    HW112677  10.136   5.203   6.024  0.9801 -0.1629 -0.3546
36425SOL    HW212678  10.232   5.276   6.116  0.3767  0.3745 -0.1508
36426SOL     OW12679   4.568   5.287   3.147  0.6308 -0.0268  0.4000
36426SOL    HW112680   4.511   5.332   3.210  1.1208 -1.3574  1.8725
36426SOL    HW212681   4.530   5.307   3.061 -1.0885  0.4424  1.2248
36427SOL     OW12682   8.678   6.570   8.366 -0.0343 -0.8432 -0.3243
36427SOL    HW112683   8.596   6.618   8.352  0.2238 -0.7488 -1.6305
36427SOL    HW212684   8.700   6.534   8.280  1.6791 -0.2451 -0.1796
36428SOL     OW12685   8.757   0.418   7.297 -0.5192 -0.0388 -0.7335
36428SOL    HW112686   8.698   0.409   7.371  1.2986  0.7129  0.9164
36428SOL    HW212687   8.808   0.337   7.296 -0.6675 -0.1291 -1.2996
36429SOL     OW12688   8.398   8.014   7.850  0.3474 -0.2732  0.1618
36429SOL    HW112689   8.427   7.965   7.773 -1.5590 -0.6347 -0.3627
36429SOL    HW212690   8.445   8.097   7.845  1.4673 -0.9185 -0.4832
36430SOL     OW12691   4.228   8.457   2.928 -0.4981 -0.2918  0.1735
36430SOL    HW112692   4.187   8.374   2.953 -0.6563 -1.0792 -2.4246
36430SOL    HW212693   4.156   8.508   2.891  0.2219 -0.3692 -1.3812
36431SOL     OW12694   8.963   4.961  10.164 -0.3028  0.2940  0.6957
36431SOL    HW112695   9.026   5.010  10.111  0.6305 -2.3567 -0.8285
36431SOL    HW212696   8.880   4.971  10.118  0.0132 -0.0436  0.0355
36432SOL     OW12697   6.272   7.995   1.228 -0.3660  0.4100  0.3319
36432SOL    HW112698   6.308   7.913   1.196 -0.3129  0.7964 -0.6448
36432SOL    HW212699   6.181   7.995   1.200 -0.4848  0.5039  0.7024
36433SOL     OW12700   3.185   4.881   0.225  0.1697  0.0590 -0.4327
36433SOL    HW112701   3.272   4.841   0.216 -0.4815 -1.3563 -0.6720
36433SOL    HW212702   3.137   4.822   0.282 -1.3262 -0.3681 -2.0621
36434SOL     OW12703   3.144   9.303   9.183  0.2590  0.2601 -0.8516
36434SOL    HW112704   3.100   9.290   9.267  0.6759  0.9842 -0.5157
36434SOL    HW212705   3.204   9.375   9.198  2.1316 -1.1759 -1.0759
36435SOL     OW12706   3.063   5.851   9.517  0.2602 -0.4635  0.2318
36435SOL    HW112707   3.150   5.876   9.485  0.3098  0.5674  1.1006
36435SOL    HW212708   3.081   5.803   9.598  0.0318 -0.5786  0.2150
36436SOL     OW12709   6.713   9.419   6.745 -0.5313  0.0513 -0.8589
36436SOL    HW112710   6.626   9.383   6.727 -1.5062  1.6641  0.3391
36436SOL    HW212711   6.720   9.496   6.688  0.4371 -0.4880 -1.4953
36437SOL     OW12712   5.822   8.868   8.908 -0.3378 -0.3718  0.1090
36437SOL    HW112713   5.841   8.961   8.914  0.0951 -0.3895 -0.8669
36437SOL    HW212714   5.894   8.831   8.857 -1.0225 -1.0726 -0.3806
36438SOL     OW12715   0.906   7.206   5.225 -0.0856 -0.0833  0.1823
36438SOL    HW112716   0.924   7.299   5.235 -0.3282 -0.0461  0.2801
36438SOL    HW212717   0.892   7.193   5.132 -0.3905  0.0416  0.2087
36439SOL     OW12718  10.550   4.915   8.882  0.5655 -0.8634 -0.5641
36439SOL    HW112719  10.523   4.832   8.843 -0.5228 -1.9096  2.1333
36439SOL    HW212720  10.623   4.945   8.828  0.8052 -3.4261 -1.8018
36440SOL     OW12721  10.568   5.225   7.689  0.0655  0.2009 -0.3063
36440SOL    HW112722  10.640   5.162   7.697  0.5471  0.9272  1.3229
36440SOL    HW212723  10.490   5.170   7.681  0.5555 -0.6045  0.2748
36441SOL     OW12724   8.200   7.669   4.569  0.0441 -0.6569 -0.3507
36441SOL    HW112725   8.120   7.675   4.517 -1.0503  0.1448  1.3169
36441SOL    HW212726   8.204   7.578   4.596 -1.4032 -0.3375  1.1017
36442SOL     OW12727   6.439   0.435  10.916  0.1591 -0.3707 -1.0112
36442SOL    HW112728   6.506   0.463  10.854 -0.3509 -1.4217 -2.0763
36442SOL    HW212729   6.488   0.405  10.993  0.7546  2.2733 -0.2655
36443SOL     OW12730   3.260   7.774   7.137  0.1038 -0.5263 -0.0809
36443SOL    HW112731   3.265   7.688   7.096 -0.4911 -0.5926 -0.0124
36443SOL    HW212732   3.342   7.781   7.186  0.5188 -0.7237 -0.7237
36444SOL     OW12733   9.567   9.742   1.370  0.2212  0.2026 -0.2187
36444SOL    HW112734   9.617   9.661   1.359  2.0964  1.4909 -1.6820
36444SOL    HW212735   9.593   9.774   1.456 -0.1974 -0.5064  0.1834
36445SOL     OW12736   2.559   9.808   8.102  0.0186  0.3022 -0.2398
36445SOL    HW112737   2.554   9.815   8.198  0.0204 -0.8422 -0.1388
36445SOL    HW212738   2.476   9.768   8.077  0.3726 -0.1957 -0.6258
36446SOL     OW12739   2.086   4.443   2.225  0.2840 -0.6714 -0.2316
36446SOL    HW112740   2.069   4.532   2.256  0.9803 -0.7140  0.3154
36446SOL    HW212741   2.180   4.442   2.207 -0.1313 -0.5505 -2.7206
36447SOL     OW12742   2.655   1.641   3.933  0.9381 -0.5284 -0.1118
36447SOL    HW112743   2.745   1.633   3.901  1.3546 -0.1538  0.9292
36447SOL    HW212744   2.601   1.645   3.853  1.9158  0.1040 -0.7560
36448SOL     OW12745   4.475   2.924   2.532 -0.1837  0.6879 -0.0693
36448SOL    HW112746   4.411   2.880   2.476 -0.1863  0.1824  0.3173
36448SOL    HW212747   4.460   3.017   2.517  0.8374  0.5806 -2.0424
36449SOL     OW12748   4.488   9.160   1.400  0.2945  0.0803 -0.6094
36449SOL    HW112749   4.393   9.151   1.393  0.3457 -0.4590 -0.7029
36449SOL    HW212750   4.519   9.152   1.309  0.3497  1.3199 -0.7062
36450SOL     OW12751   7.250   2.636   7.462 -0.4137 -0.3968 -0.4304
36450SOL    HW112752   7.198   2.716   7.460  0.1931 -0.0020 -0.7152
36450SOL    HW212753   7.315   2.649   7.393  0.1242 -0.8446 -0.0077
36451SOL     OW12754   1.102   9.291   4.276 -0.0003 -0.0409  0.4114
36451SOL    HW112755   1.136   9.369   4.320  0.8498 -1.0674  1.6425
36451SOL    HW212756   1.022   9.269   4.324 -1.9088  1.6880 -1.7464
36452SOL     OW12757   2.235   7.799   9.991  0.2780 -0.0123 -0.4436
36452SOL    HW112758   2.153   7.831   9.953  0.6383 -0.0697 -1.3041
36452SOL    HW212759   2.214   7.713  10.026 -0.0468  0.0057 -0.5891
36453SOL     OW12760   2.213   1.130   8.676 -0.1286  0.7399  0.1230
36453SOL    HW112761   2.119   1.135   8.659 -0.3773  0.9926  1.3968
36453SOL    HW212762   2.242   1.221   8.674 -0.3979  0.9144  2.0223
36454SOL     OW12763   9.227   9.216   3.663  0.1376  0.0697 -0.3730
36454SOL    HW112764   9.207   9.137   3.715  0.1893  0.5513  0.4035
36454SOL    HW212765   9.167   9.211   3.588 -0.6592 -0.1368  0.2552
36455SOL     OW12766   6.729   3.414   1.419  0.5652 -0.1948 -0.0766
36455SOL    HW112767   6.740   3.486   1.357 -0.5379 -0.5222 -0.6870
36455SOL    HW212768   6.749   3.452   1.504  1.8287  0.3361 -0.5853
36456SOL     OW12769   4.485   4.745   7.448  0.6238 -0.0946 -0.5403
36456SOL    HW112770   4.526   4.802   7.513 -1.6480  1.4079 -0.3125
36456SOL    HW212771   4.430   4.685   7.498  1.0809 -0.8543 -0.9302
36457SOL     OW12772   5.214  10.298   5.596  0.2318 -0.3965 -0.5229
36457SOL    HW112773   5.271  10.222   5.606 -0.3007 -1.0029 -1.7832
36457SOL    HW212774   5.125  10.261   5.595  0.0546 -0.1608 -3.7765
36458SOL     OW12775   4.048  10.216   2.347  0.6581  0.2453  0.4854
36458SOL    HW112776   4.141  10.228   2.366  0.8533  0.2126 -0.4154
36458SOL    HW212777   4.039  10.239   2.255 -0.2347  0.2616  0.5665
36459SOL     OW12778   1.659   8.850   3.524 -0.3109 -0.2943  1.0624
36459SOL    HW112779   1.584   8.806   3.484  0.4567  0.2805 -1.1452
36459SOL    HW212780   1.733   8.830   3.467  1.3283 -0.9907  3.2580
36460SOL     OW12781   8.903   1.189   7.523  0.1251 -0.5774  0.0035
36460SOL    HW112782   8.938   1.276   7.504 -0.3018 -0.4601 -0.2434
36460SOL    HW212783   8.865   1.159   7.440 -1.2334 -0.2988  0.4983
36461SOL     OW12784   9.355   1.106   9.314  0.5255 -0.0028  0.4185
36461SOL    HW112785   9.379   1.198   9.323 -0.5565  0.3158  0.2181
36461SOL    HW212786   9.437   1.058   9.325  1.4826  1.0817 -1.5272
36462SOL     OW12787   0.779   2.544   6.578  0.0579 -0.4488  0.1514
36462SOL    HW112788   0.801   2.631   6.609 -1.1837  0.3737 -1.1304
36462SOL    HW212789   0.735   2.501   6.652  1.1261 -0.1819  0.9481
36463SOL     OW12790   6.023   6.054   0.051  0.1210  0.6540  0.6254
36463SOL    HW112791   6.079   6.108  -0.005 -0.4974 -0.9809 -1.7248
36463SOL    HW212792   6.075   5.976   0.069 -0.5044  0.1929  0.4667
36464SOL     OW12793   8.837   1.894  10.659  0.4048  0.2963 -0.2760
36464SOL    HW112794   8.769   1.941  10.706 -0.2908  0.0379 -1.0064
36464SOL    HW212795   8.896   1.862  10.728  0.6059  1.7510  0.2713
36465SOL     OW12796   2.614   6.479   1.277  0.3711 -0.1733 -0.2082
36465SOL    HW112797   2.694   6.517   1.314  0.0049  1.7678 -1.3017
36465SOL    HW212798   2.645   6.429   1.202  0.6064  0.2511 -0.3988
36466SOL     OW12799   6.093   7.849   4.992 -0.0583 -0.2794 -0.0052
36466SOL    HW112800   6.059   7.814   4.910 -0.4224  0.8616 -0.3585
36466SOL    HW212801   6.015   7.857   5.048 -0.4832  2.4403 -0.8495
36467SOL     OW12802   1.880   6.094   2.832 -0.0241  0.5707 -0.1172
36467SOL    HW112803   1.853   6.015   2.784  0.2387 -0.6588  1.6564
36467SOL    HW212804   1.867   6.165   2.769 -1.0244 -0.7719 -1.5298
36468SOL     OW12805   2.891   4.839   3.671 -0.0130  0.1026 -0.2605
36468SOL    HW112806   2.834   4.828   3.594 -0.6734 -0.5994  0.3176
36468SOL    HW212807   2.843   4.798   3.742  0.6867  0.5773  0.4960
36469SOL     OW12808   5.155   3.303   5.340  0.1560  0.4838 -0.2814
36469SOL    HW112809   5.169   3.361   5.265  0.8648 -1.5194 -1.8214
36469SOL    HW212810   5.061   3.288   5.342  0.2580 -0.6402 -1.8203
36470SOL     OW12811   9.448   3.716   5.531 -0.3115  0.5390 -0.3570
36470SOL    HW112812   9.484   3.654   5.595  0.2127  1.0860 -0.1104
36470SOL    HW212813   9.518   3.727   5.467 -1.3042 -1.0316 -1.8002
36471SOL     OW12814   2.042   1.741   7.169  0.1662 -0.6328  0.1095
36471SOL    HW112815   2.132   1.711   7.181  0.4985  0.5887  0.8162
36471SOL    HW212816   1.995   1.708   7.245 -0.4249 -2.7508 -1.0993
36472SOL     OW12817   9.539   0.233   4.384  0.5129  0.2928 -0.0263
36472SOL    HW112818   9.573   0.146   4.360 -0.1029  0.0290  0.0346
36472SOL    HW212819   9.531   0.231   4.479  1.0490  0.6235  0.0245
36473SOL     OW12820   2.761   0.908   0.987 -0.0686  0.1587  0.4103
36473SOL    HW112821   2.683   0.926   1.040 -0.9780 -0.6921 -0.5870
36473SOL    HW212822   2.727   0.896   0.898  1.4293  1.6943 -0.4248
36474SOL     OW12823   2.570   5.172   4.168 -0.5632  0.3389 -0.7197
36474SOL    HW112824   2.620   5.190   4.088  1.9586 -0.8222  0.4643
36474SOL    HW212825   2.544   5.080   4.160  0.4016 -0.0267  0.0808
36475SOL     OW12826  10.553  10.083   0.478  0.2574 -0.4706 -0.3638
36475SOL    HW112827  10.612  10.143   0.524 -0.4847  0.4362 -0.5440
36475SOL    HW212828  10.533  10.128   0.396  0.5300 -1.4741 -1.0022
36476SOL     OW12829   1.507   6.375   4.807  0.2087  0.0019 -0.3434
36476SOL    HW112830   1.494   6.461   4.848 -0.2794 -0.0013 -0.4872
36476SOL    HW212831   1.418   6.340   4.795  0.3857 -0.3512 -0.6519
36477SOL     OW12832   4.353   8.886   6.360 -0.4513 -0.0748  0.5895
36477SOL    HW112833   4.298   8.963   6.347 -1.2091 -0.7189 -0.2376
36477SOL    HW212834   4.328   8.852   6.446 -0.1126  0.5873  0.9555
36478SOL     OW12835   8.566   6.128   4.929 -0.0394 -0.1529 -0.3317
36478SOL    HW112836   8.563   6.224   4.928 -0.5516 -0.1544 -1.6994
36478SOL    HW212837   8.527   6.103   5.012 -1.5318  0.7911 -0.7179
36479SOL     OW12838   3.434   5.801   9.211  0.4323  0.2977  0.2107
36479SOL    HW112839   3.431   5.719   9.260 -1.3010  0.1825 -0.0307
36479SOL    HW212840   3.449   5.868   9.278  0.2709 -0.0650  0.6142
36480SOL     OW12841   6.756   7.077   8.674 -0.2071 -0.3345 -0.0032
36480SOL    HW112842   6.842   7.064   8.714 -0.9848  0.2322  1.9980
36480SOL    HW212843   6.723   7.158   8.713 -1.7750 -0.6884 -0.4870
36481SOL     OW12844   8.245   5.349   3.323 -0.0052 -0.4377  0.1817
36481SOL    HW112845   8.280   5.413   3.261 -2.1993 -1.2341 -2.0723
36481SOL    HW212846   8.158   5.382   3.345 -0.1204 -1.3024  1.0961
36482SOL     OW12847   9.446   8.604   1.788 -0.4681 -0.1336  0.0306
36482SOL    HW112848   9.533   8.637   1.808  0.3534 -2.1343 -0.0030
36482SOL    HW212849   9.396   8.681   1.763  1.8855  0.8334 -2.0796
36483SOL     OW12850   6.765   5.547   5.597  0.7184  0.4359  0.8297
36483SOL    HW112851   6.677   5.584   5.600  0.3639 -0.0982 -1.3777
36483SOL    HW212852   6.777   5.520   5.506  2.4451 -1.2643  1.4804
36484SOL     OW12853  10.425  10.648   1.231  0.8995  0.4626 -0.2837
36484SOL    HW112854  10.362  10.720   1.221 -2.7960 -2.5970 -1.0252
36484SOL    HW212855  10.490  10.663   1.162  0.2738  2.9822 -0.4304
36485SOL     OW12856   0.372  10.440   7.460  0.1167  1.1942 -0.2406
36485SOL    HW112857   0.372  10.370   7.525 -2.6781  0.9028 -0.4211
36485SOL    HW212858   0.432  10.506   7.494  0.5643 -0.0090  1.4006
36486SOL     OW12859   3.053   8.394   0.195 -0.0632 -0.5864  0.7531
36486SOL    HW112860   3.000   8.331   0.146  0.3373  0.5117 -1.2077
36486SOL    HW212861   2.990   8.460   0.225 -0.0859 -0.3047  0.1071
36487SOL     OW12862   8.566  10.646   3.117 -0.0080 -0.3464 -0.5666
36487SOL    HW112863   8.608  10.597   3.047  0.8127 -0.2170 -0.1699
36487SOL    HW212864   8.594  10.602   3.197  2.6812  2.1086 -0.0206
36488SOL     OW12865   0.826   1.344   6.417  0.5580 -0.4641  0.0762
36488SOL    HW112866   0.860   1.254   6.424 -1.0992 -1.0578  1.1415
36488SOL    HW212867   0.732   1.333   6.406  0.1069  1.1359  1.7350
36489SOL     OW12868   2.816   1.857   2.086 -0.0629  0.1462 -0.2912
36489SOL    HW112869   2.830   1.924   2.153  0.7094  1.4840 -1.7123
36489SOL    HW212870   2.733   1.882   2.045  0.0794  0.0639 -0.6298
36490SOL     OW12871   7.066   8.905  10.491 -0.3995  0.0598  0.6823
36490SOL    HW112872   7.030   8.833  10.439  3.9599 -2.2810  0.3710
36490SOL    HW212873   7.087   8.864  10.576  1.7445  1.0217  0.6749
36491SOL     OW12874  10.847   8.250   0.861  0.1659  0.0580 -0.2441
36491SOL    HW112875  10.883   8.299   0.787 -0.6551  0.3557 -0.4561
36491SOL    HW212876  10.843   8.314   0.932 -1.7864  0.6223 -0.7786
36492SOL     OW12877   7.982   1.573  10.781  0.3715  0.7961  0.3267
36492SOL    HW112878   8.068   1.564  10.821  0.5263  1.1987  0.0879
36492SOL    HW212879   7.934   1.495  10.808  1.1275  0.0867 -0.3210
36493SOL     OW12880   8.181   9.110   0.844  0.2190 -0.5349  0.0256
36493SOL    HW112881   8.129   9.184   0.814  2.3406  0.1082 -2.3524
36493SOL    HW212882   8.247   9.149   0.902  0.8398 -0.6417 -0.5921
36494SOL     OW12883   5.226   0.069   6.744 -0.0604 -0.2146 -0.8298
36494SOL    HW112884   5.144   0.052   6.791  0.8084 -0.6054  0.6032
36494SOL    HW212885   5.283  -0.005   6.767  1.5744  1.3189  0.3055
36495SOL     OW12886   1.059   6.840   7.917  0.2266 -0.2375 -0.2554
36495SOL    HW112887   1.106   6.893   7.982  1.1101 -1.2750 -0.0059
36495SOL    HW212888   1.093   6.751   7.931 -0.9140 -0.7929 -0.9288
36496SOL     OW12889   0.044   4.128   1.812 -0.1951  0.2538 -0.4195
36496SOL    HW112890   0.078   4.073   1.883  0.4837  0.9363 -0.2009
36496SOL    HW212891  -0.034   4.169   1.849  0.2954  0.7985  0.0258
36497SOL     OW12892   4.925   2.581   1.907  0.3326  0.1034 -0.6715
36497SOL    HW112893   5.004   2.552   1.862  0.9999  1.8179 -0.6910
36497SOL    HW212894   4.956   2.648   1.969 -0.6582 -1.6023  1.8193
36498SOL     OW12895   4.702   2.447   1.429 -0.0678  0.3761  0.3689
36498SOL    HW112896   4.682   2.527   1.477  1.2468  1.1719 -0.3612
36498SOL    HW212897   4.797   2.443   1.427 -0.1070 -0.4321 -0.8828
36499SOL     OW12898   3.821   2.803   7.055  0.2894  0.6580 -0.7209
36499SOL    HW112899   3.826   2.778   7.147  1.9939  0.2005 -0.9061
36499SOL    HW212900   3.856   2.727   7.008 -0.8827  0.7465 -1.7886
36500SOL     OW12901   6.145   0.830  10.313  0.1745  0.1943 -0.1732
36500SOL    HW112902   6.207   0.866  10.250  0.4343  0.7995  0.4068
36500SOL    HW212903   6.099   0.761  10.266 -0.1641  1.1293 -1.2538
36501SOL     OW12904   9.436   9.235   8.730  0.4093 -0.2296 -0.3220
36501SOL    HW112905   9.491   9.240   8.808  0.8514 -1.2470 -0.5588
36501SOL    HW212906   9.433   9.325   8.697  2.5264 -0.2671 -0.7116
36502SOL     OW12907   9.381   6.516   6.642 -0.5257  0.6105 -0.1546
36502SOL    HW112908   9.389   6.423   6.665 -1.4409 -0.0666 -2.3229
36502SOL    HW212909   9.449   6.559   6.694 -1.1740 -0.9792  2.1971
36503SOL     OW12910   5.950  10.739   3.084 -0.3400  0.0666 -0.4516
36503SOL    HW112911   5.888  10.666   3.096 -1.1459  0.9896  1.3037
36503SOL    HW212912   5.928  10.801   3.153  2.3157  0.6341 -0.0274
36504SOL     OW12913   9.652   2.638   7.637  0.7226 -0.3544  0.1281
36504SOL    HW112914   9.714   2.577   7.596  0.2034 -0.1095 -1.0562
36504SOL    HW212915   9.689   2.725   7.619  0.1967 -0.2213 -0.3262
36505SOL     OW12916   6.737  10.006   6.131 -0.0620 -0.0157  0.2283
36505SOL    HW112917   6.824  10.003   6.172 -0.4552  0.8332  1.1543
36505SOL    HW212918   6.676   9.986   6.202 -0.6383 -0.4973 -0.3931
36506SOL     OW12919  10.471   1.963   6.158 -0.2273 -0.7368  0.5374
36506SOL    HW112920  10.555   1.991   6.122 -0.0765 -0.3130  1.2082
36506SOL    HW212921  10.423   1.929   6.083 -0.4506  1.3941 -0.3574
36507SOL     OW12922   2.751   7.390   4.916 -0.1564 -0.3593 -0.1716
36507SOL    HW112923   2.772   7.457   4.980  1.2465  0.7983 -1.7545
36507SOL    HW212924   2.662   7.412   4.886  0.3709  0.9664 -0.8347
36508SOL     OW12925   1.236   9.978  10.443  0.1499  0.5094 -0.3224
36508SOL    HW112926   1.302  10.044  10.465 -0.5849  1.1040  0.1678
36508SOL    HW212927   1.265   9.899  10.488 -0.0168  1.0477  0.7741
36509SOL     OW12928   8.024   8.779  10.818 -0.2018 -0.0770  0.7001
36509SOL    HW112929   8.080   8.856  10.823 -1.4220  0.8000  1.4234
36509SOL    HW212930   8.061   8.719  10.883  0.1813  0.3015  0.8377
36510SOL     OW12931   6.966   4.073   2.018 -0.0524  0.4236 -0.0919
36510SOL    HW112932   6.978   3.979   2.008  0.0403  0.5286 -1.0631
36510SOL    HW212933   6.973   4.089   2.112 -0.7924 -0.6304  0.1474
36511SOL     OW12934   8.822   9.593   7.072  0.0928 -0.1333 -0.2515
36511SOL    HW112935   8.749   9.578   7.132 -0.0587  0.1853 -0.3559
36511SOL    HW212936   8.803   9.678   7.032 -0.6277 -1.0305 -1.9211
36512SOL     OW12937   7.311   9.003   2.266  0.0452 -0.1386  0.1120
36512SOL    HW112938   7.226   9.047   2.266 -0.0274 -0.2571  1.4437
36512SOL    HW212939   7.367   9.056   2.323  0.2388 -1.2145  0.9712
36513SOL     OW12940  10.183   6.033   0.377 -0.1563 -0.2320  0.2032
36513SOL    HW112941  10.096   5.993   0.377 -0.1598 -0.2240  0.6170
36513SOL    HW212942  10.242   5.962   0.355 -0.1794 -0.4381  0.7855
36514SOL     OW12943   4.586   3.468   0.592  0.5291 -0.0467  0.5563
36514SOL    HW112944   4.535   3.480   0.512  0.9239 -0.5009  0.2366
36514SOL    HW212945   4.570   3.548   0.642  1.4208  0.8991 -0.6003
36515SOL     OW12946   7.604   6.294  10.761  0.1227 -0.2926  0.0268
36515SOL    HW112947   7.666   6.345  10.812  1.2056 -0.7637 -0.7981
36515SOL    HW212948   7.636   6.298  10.672  1.3609 -3.9187  0.1570
36516SOL     OW12949   3.324   7.571   2.079 -0.0575  0.1341 -0.2086
36516SOL    HW112950   3.310   7.657   2.119  0.1238  0.2330 -0.3541
36516SOL    HW212951   3.310   7.509   2.150 -0.3264  0.2777 -0.1347
36517SOL     OW12952   7.619   8.799   8.953  0.3805  0.0838  0.3169
36517SOL    HW112953   7.563   8.847   9.014  1.3004 -0.8167  1.9151
36517SOL    HW212954   7.619   8.853   8.873 -4.6111 -0.9446 -0.7052
36518SOL     OW12955   7.040   8.626   9.507 -0.0884  0.3997  0.2180
36518SOL    HW112956   7.039   8.653   9.599  0.0071  0.7227  0.1238
36518SOL    HW212957   7.043   8.530   9.511 -3.1928  0.2154  0.5648
36519SOL     OW12958   7.630   1.909   8.781  0.1084  0.0189  0.2316
36519SOL    HW112959   7.600   1.997   8.802  0.4261  0.5352 -1.3531
36519SOL    HW212960   7.700   1.921   8.717 -0.4938 -1.3989 -0.7611
36520SOL     OW12961   1.870   2.382  10.058 -1.2087  0.0735  0.2816
36520SOL    HW112962   1.884   2.337  10.142  1.0758  0.7219  0.3286
36520SOL    HW212963   1.938   2.449  10.056 -1.6416  0.5112 -1.8197
36521SOL     OW12964   5.942   9.184   1.552  0.2737  0.9521 -0.2166
36521SOL    HW112965   5.855   9.147   1.571 -0.5295  1.6266 -2.2495
36521SOL    HW212966   5.984   9.118   1.497  1.5959  0.0777  1.7472
36522SOL     OW12967   5.982   8.047   9.232  0.1609 -0.1394 -0.2326
36522SOL    HW112968   6.008   7.977   9.293 -0.4953 -0.7660 -0.6500
36522SOL    HW212969   5.887   8.041   9.229  0.0086  1.4575  0.4955
36523SOL     OW12970   8.527   3.220   2.053  0.2445  0.0166  0.0866
36523SOL    HW112971   8.621   3.204   2.047  0.4319  1.2593 -0.7373
36523SOL    HW212972   8.489   3.159   1.990  0.5435 -0.1098  0.0251
36524SOL     OW12973   0.071   7.772   6.198 -0.0697 -0.4074 -0.0029
36524SOL    HW112974  -0.002   7.754   6.256  1.3279 -0.4244  1.8339
36524SOL    HW212975   0.149   7.750   6.249  1.3396  2.0522 -0.9257
36525SOL     OW12976   1.960   0.357   6.588  0.0021 -0.4706 -0.0415
36525SOL    HW112977   1.971   0.291   6.656  1.4629  1.5999  1.8744
36525SOL    HW212978   2.049   0.377   6.559 -0.4282  0.3537 -0.8548
36526SOL     OW12979   8.064   4.956   6.001 -0.4040  0.1531  0.2714
36526SOL    HW112980   8.149   4.974   6.042  1.1728  0.2677 -2.7920
36526SOL    HW212981   8.001   4.962   6.073  1.5717  4.4655  1.9699
36527SOL     OW12982   7.303   4.947  10.669  0.0869  0.3217 -0.4133
36527SOL    HW112983   7.267   4.970  10.755  0.2830  1.1367 -0.5419
36527SOL    HW212984   7.249   4.996  10.607 -0.1094 -0.3354 -0.7692
36528SOL     OW12985   3.840   3.521   3.131  0.0733 -0.1040 -0.0725
36528SOL    HW112986   3.855   3.610   3.100  0.8467 -0.2118 -0.0400
36528SOL    HW212987   3.747   3.504   3.114 -0.0346  0.6405 -0.2395
36529SOL     OW12988   6.297   0.459   6.921 -0.1607 -0.2686 -0.2793
36529SOL    HW112989   6.265   0.402   6.992  0.0192 -0.4054 -0.3087
36529SOL    HW212990   6.265   0.418   6.841  0.3716 -0.5916 -0.3298
36530SOL     OW12991  10.154   8.150   4.924 -0.5691 -0.0564 -0.0239
36530SOL    HW112992  10.121   8.112   4.843  0.7379  0.4849 -0.8499
36530SOL    HW212993  10.123   8.091   4.993 -1.5009 -0.6620 -0.9378
36531SOL     OW12994   4.471   2.085   0.716 -0.2030  0.2238  0.1754
36531SOL    HW112995   4.470   2.028   0.792 -1.1511  2.0216  1.5881
36531SOL    HW212996   4.559   2.121   0.714 -0.6072  1.3822  1.4391
36532SOL     OW12997   8.142   2.371   0.415  0.1262 -0.2350  0.0048
36532SOL    HW112998   8.148   2.300   0.351 -1.0965 -0.2603 -0.1048
36532SOL    HW212999   8.171   2.332   0.497 -1.4416 -1.1669  0.1563
36533SOL     OW13000   9.298   6.342   3.707 -0.7454 -0.0097 -0.6646
36533SOL    HW113001   9.274   6.313   3.619  0.9230  0.1175 -1.1796
36533SOL    HW213002   9.240   6.292   3.765 -2.9926  1.0509 -1.8515
36534SOL     OW13003   0.366   0.632   3.820  0.4587  0.2778 -0.0025
36534SOL    HW113004   0.365   0.596   3.732 -0.4907  2.6034 -1.0275
36534SOL    HW213005   0.448   0.681   3.825  0.3618  0.4108  0.3004
36535SOL     OW13006   8.480   3.828  10.261 -0.4830 -0.5749  0.0194
36535SOL    HW113007   8.550   3.800  10.320  0.0918  0.1675 -0.2903
36535SOL    HW213008   8.442   3.747  10.229 -1.0897 -0.9989  1.7300
36536SOL     OW13009  10.571   0.782   9.988  0.2677  0.4014 -0.1089
36536SOL    HW113010  10.576   0.812   9.897  0.2785  0.0086 -0.2427
36536SOL    HW213011  10.635   0.711   9.993 -2.0212 -1.9029 -0.7515
36537SOL     OW13012   7.938   7.140   8.852 -0.4203 -0.6558 -0.3428
36537SOL    HW113013   7.987   7.060   8.873 -0.1440 -0.4525 -0.2024
36537SOL    HW213014   7.848   7.110   8.838 -0.5759 -0.8380  0.9125
36538SOL     OW13015   1.500   5.396   7.779 -0.7708 -0.2663  0.4639
36538SOL    HW113016   1.444   5.327   7.815 -0.6448  0.3638  1.9139
36538SOL    HW213017   1.551   5.427   7.853  0.0282  0.5870 -0.4202
36539SOL     OW13018   0.207   6.267   9.756  0.1369  0.2341  0.9807
36539SOL    HW113019   0.188   6.320   9.833 -2.7157  0.6199  0.1495
36539SOL    HW213020   0.187   6.177   9.783  0.9242  0.1179  1.1950
36540SOL     OW13021  10.896   3.488   1.784 -0.2050  0.1707 -0.1290
36540SOL    HW113022  10.849   3.531   1.712  0.0168  1.0642  0.2417
36540SOL    HW213023  10.942   3.415   1.742  0.8108  1.3210 -1.1069
36541SOL     OW13024  10.419   3.378   6.413  0.0705 -0.2870  0.9905
36541SOL    HW113025  10.429   3.434   6.335 -1.6263  0.5563  1.3266
36541SOL    HW213026  10.376   3.299   6.380 -0.9664  0.2153  1.0958
36542SOL     OW13027   4.115  10.285   1.869  0.3212  0.0952 -0.3967
36542SOL    HW113028   4.178  10.345   1.828 -1.0539  1.2449 -0.9175
36542SOL    HW213029   4.054  10.263   1.799 -1.3847  1.1444  0.6825
36543SOL     OW13030   5.071   0.539   7.533  0.1914  0.3499 -0.2575
36543SOL    HW113031   5.040   0.461   7.488 -0.8708  0.6581 -0.0894
36543SOL    HW213032   5.077   0.514   7.625  1.9208 -0.1437 -0.4623
36544SOL     OW13033   8.520   2.675   6.660 -0.2496 -0.0543 -0.4491
36544SOL    HW113034   8.606   2.637   6.677  0.3615  0.6352 -1.8341
36544SOL    HW213035   8.521   2.758   6.708 -0.5085 -0.4640  0.2804
36545SOL     OW13036   0.010   2.162   5.467  0.6390  0.1874  0.2558
36545SOL    HW113037  -0.011   2.132   5.555 -0.8905  1.1295  0.2610
36545SOL    HW213038  -0.027   2.250   5.463 -1.1018 -0.5439 -1.9307
36546SOL     OW13039   0.977   0.680  10.231 -0.5102  0.4785  0.5754
36546SOL    HW113040   1.019   0.603  10.194 -0.4307  1.0208 -0.4975
36546SOL    HW213041   1.023   0.695  10.314 -0.2631 -0.3828  0.6037
36547SOL     OW13042   0.825   8.638  10.338 -0.5943  0.1538 -0.1369
36547SOL    HW113043   0.779   8.567  10.383 -0.4429  0.1796  0.0575
36547SOL    HW213044   0.893   8.666  10.399 -0.5475  0.3562 -0.2795
36548SOL     OW13045   0.387  10.221   2.830 -0.2893 -0.1808  0.0567
36548SOL    HW113046   0.415  10.303   2.870 -1.6717  0.8327 -0.9550
36548SOL    HW213047   0.303  10.201   2.873 -1.1152  0.2013 -1.3154
36549SOL     OW13048   7.552   3.471   2.634  0.6367 -0.0234  0.2158
36549SOL    HW113049   7.569   3.414   2.708 -0.4417  0.0411  0.5384
36549SOL    HW213050   7.485   3.532   2.666  0.1782  0.0236 -0.7949
36550SOL     OW13051   7.716  10.373   4.642 -0.7184 -0.6456  0.0116
36550SOL    HW113052   7.758  10.372   4.728  0.9840 -1.2462 -0.7833
36550SOL    HW213053   7.729  10.463   4.610 -1.4983 -0.3743  0.4229
36551SOL     OW13054   3.703   8.301   8.060 -0.2100 -0.3578 -0.2465
36551SOL    HW113055   3.698   8.206   8.067  1.0667 -0.4413 -0.1820
36551SOL    HW213056   3.626   8.326   8.009 -1.2663 -1.2832  0.8536
36552SOL     OW13057   5.375   6.458   5.907  0.1462  0.0316 -0.3280
36552SOL    HW113058   5.331   6.375   5.924 -0.3701 -0.2154 -2.5261
36552SOL    HW213059   5.322   6.499   5.839 -0.0141  2.5312  1.1981
36553SOL     OW13060   6.270  10.818   5.037  0.1123 -0.2022  0.5191
36553SOL    HW113061   6.324  10.740   5.044  0.3327 -0.3823 -2.1492
36553SOL    HW213062   6.310  10.868   4.966 -0.3236  2.1305  1.8088
36554SOL     OW13063   0.048   8.380   3.116  0.5110 -0.1653  0.0326
36554SOL    HW113064   0.121   8.336   3.159  0.5815  0.3213  0.4262
36554SOL    HW213065   0.051   8.469   3.151 -1.3180 -0.5840  1.3904
36555SOL     OW13066   4.671   6.869   3.438 -0.4390 -0.4317 -0.2017
36555SOL    HW113067   4.728   6.811   3.389  1.2388  0.8002  0.2035
36555SOL    HW213068   4.692   6.957   3.404 -1.7584  0.1025  0.3011
36556SOL     OW13069   7.937  10.683   7.229 -0.2726 -0.2589  0.0430
36556SOL    HW113070   7.849  10.666   7.195 -0.5508 -0.9692  1.0738
36556SOL    HW213071   7.991  10.613   7.192 -0.6039 -1.1146  1.1167
36557SOL     OW13072   7.140  10.062   5.371 -0.6570  0.2739 -0.2137
36557SOL    HW113073   7.048  10.069   5.347 -1.2614  0.2608  1.8854
36557SOL    HW213074   7.172  10.153   5.370 -1.5620  0.6876  1.9543
36558SOL     OW13075   7.683   6.639   0.353 -0.4815  0.0239  0.0729
36558SOL    HW113076   7.610   6.590   0.390 -0.5011 -0.3335 -0.4360
36558SOL    HW213077   7.732   6.575   0.302  0.5415  0.1175  0.9055
36559SOL     OW13078   7.339   6.713   4.861 -0.2128 -0.6977 -0.2856
36559SOL    HW113079   7.333   6.618   4.858  0.5376 -0.9023  2.2965
36559SOL    HW213080   7.252   6.744   4.837 -1.2843 -2.1699  1.4644
36560SOL     OW13081   2.072   6.923   0.465 -0.0035  0.4825 -0.5532
36560SOL    HW113082   2.114   6.857   0.520  1.3952  0.1689 -1.9336
36560SOL    HW213083   2.057   6.997   0.523 -0.3220 -0.5228  0.6860
36561SOL     OW13084   9.661   8.644   5.807 -0.7893  0.7843  0.1722
36561SOL    HW113085   9.655   8.739   5.816  0.3957  0.9038 -0.1331
36561SOL    HW213086   9.730   8.631   5.742 -1.3406 -0.2766 -0.2139
36562SOL     OW13087   7.428   0.153   8.799 -0.0301  0.8801 -0.1568
36562SOL    HW113088   7.348   0.134   8.849 -0.6032  0.6994 -1.1097
36562SOL    HW213089   7.493   0.092   8.832 -1.0193 -0.7738 -1.1281
36563SOL     OW13090   2.271   6.900   4.615  0.0126  0.6205 -0.3161
36563SOL    HW113091   2.225   6.979   4.641  0.8438  1.8578 -2.3759
36563SOL    HW213092   2.207   6.852   4.562 -0.7695 -0.5647  1.6018
36564SOL     OW13093   9.193   4.626   5.626  0.2168  0.0155 -0.0610
36564SOL    HW113094   9.262   4.568   5.593 -0.3701 -1.0627  0.5585
36564SOL    HW213095   9.123   4.618   5.561  0.9794  1.8339 -1.1948
36565SOL     OW13096   1.549   2.945   7.143 -0.0578 -0.4824  0.6332
36565SOL    HW113097   1.557   3.040   7.135  0.2588 -0.6060 -0.7726
36565SOL    HW213098   1.457   2.930   7.165  0.0154  0.1660  1.4255
36566SOL     OW13099   4.155   5.914   3.836  0.3853  0.4390 -0.7225
36566SOL    HW113100   4.174   5.939   3.926  1.0912 -0.5774 -0.5638
36566SOL    HW213101   4.138   5.820   3.841  1.8544  0.0723 -1.8300
36567SOL     OW13102   8.470  10.153   5.671 -0.5017 -0.7790  0.0761
36567SOL    HW113103   8.393  10.157   5.614 -0.8428  2.0976  0.5947
36567SOL    HW213104   8.442  10.197   5.752  1.2382 -0.9913  0.8408
36568SOL     OW13105   4.805   7.269   1.389  0.4758 -0.1841  0.4694
36568SOL    HW113106   4.859   7.345   1.366 -0.3477 -0.1549 -1.6165
36568SOL    HW213107   4.759   7.295   1.468  2.4761  0.2894  1.5444
36569SOL     OW13108   8.755   9.971   5.030 -0.0536 -0.0894 -0.1560
36569SOL    HW113109   8.829   9.947   4.975  1.0552  0.4922  1.0288
36569SOL    HW213110   8.793   9.983   5.117 -1.4510  0.7999  0.3607
36570SOL     OW13111   6.486   9.489   1.742  0.0991 -0.2128  0.1625
36570SOL    HW113112   6.430   9.551   1.696  1.0095  0.3934 -0.1666
36570SOL    HW213113   6.468   9.405   1.701 -0.7118 -0.0707  0.2065
36571SOL     OW13114   6.210   0.211   3.562 -0.3382 -0.1440 -0.0547
36571SOL    HW113115   6.123   0.206   3.602 -0.4880  1.4929 -0.0987
36571SOL    HW213116   6.195   0.256   3.479  0.7854  1.9679  0.8171
36572SOL     OW13117   5.761   2.033   0.575  0.6748 -0.3303 -0.1532
36572SOL    HW113118   5.754   1.946   0.535 -1.1261 -0.7678  1.0387
36572SOL    HW213119   5.840   2.028   0.629  1.9920 -0.3805 -2.0020
36573SOL     OW13120   3.399   7.916   6.775 -0.6732  0.6074  0.3832
36573SOL    HW113121   3.399   7.995   6.828 -0.3618 -0.4683  2.0866
36573SOL    HW213122   3.342   7.855   6.823  0.5853 -0.8190  0.1589
36574SOL     OW13123   2.905   8.566   9.235 -0.4196  0.2767 -0.2611
36574SOL    HW113124   2.847   8.526   9.301 -0.3714  1.9604  0.8617
36574SOL    HW213125   2.846   8.616   9.179 -0.2008  1.0613  0.1888
36575SOL     OW13126   2.230   7.979   4.822  0.1548  0.1502 -0.9659
36575SOL    HW113127   2.138   7.999   4.839 -0.5595 -3.8860  1.1367
36575SOL    HW213128   2.230   7.936   4.737 -0.3947 -1.7814 -0.0574
36576SOL     OW13129   3.879   4.053   6.813  0.1478 -0.4066 -0.1668
36576SOL    HW113130   3.954   4.085   6.763 -1.4894  1.7899 -1.3592
36576SOL    HW213131   3.861   4.123   6.876  0.7326 -2.1168  2.0583
36577SOL     OW13132   7.154   1.719   3.657 -0.0541  0.0240  0.5160
36577SOL    HW113133   7.217   1.662   3.612  0.1293 -0.4660  1.3785
36577SOL    HW213134   7.092   1.744   3.588 -0.1445 -1.2373  0.1052
36578SOL     OW13135   5.427   6.716   3.087 -0.6607  0.5133 -0.2291
36578SOL    HW113136   5.423   6.620   3.082 -2.0278  0.5481 -0.3581
36578SOL    HW213137   5.412   6.735   3.179  0.0891  0.5864 -0.1245
36579SOL     OW13138   8.884   9.028   1.663  0.0367  0.0259  0.0621
36579SOL    HW113139   8.850   8.987   1.583 -0.8741  1.1092 -0.1214
36579SOL    HW213140   8.953   9.086   1.632 -1.1273  1.3645 -0.1001
36580SOL     OW13141   5.137   5.321   3.339 -0.0487 -0.6939 -0.4468
36580SOL    HW113142   5.105   5.298   3.252  2.4891  1.5268 -2.1502
36580SOL    HW213143   5.060   5.315   3.396 -2.2879 -0.2507 -3.2263
36581SOL     OW13144   2.342   8.241   9.761 -0.4205 -0.1063  0.2315
36581SOL    HW113145   2.436   8.235   9.776 -0.4876 -0.8428  0.4220
36581SOL    HW213146   2.312   8.150   9.763 -0.8712 -0.0397 -1.5862
36582SOL     OW13147   8.168   1.706   9.924  0.2678  0.1931 -0.2095
36582SOL    HW113148   8.159   1.789   9.877  1.9311  0.6181  0.1308
36582SOL    HW213149   8.085   1.695   9.969 -1.1492  0.0863 -2.6771
36583SOL     OW13150   2.943   6.275   5.386  0.5219  0.1818 -0.2907
36583SOL    HW113151   2.891   6.315   5.317  0.2827  0.0229 -0.2026
36583SOL    HW213152   2.939   6.181   5.369  1.4091  0.2098 -0.7257
36584SOL     OW13153   4.773   8.754   6.997  0.0666 -0.1821 -0.2370
36584SOL    HW113154   4.850   8.773   6.944  0.2567  0.1494  0.1480
36584SOL    HW213155   4.801   8.683   7.054 -0.9468 -2.4022 -2.3493
36585SOL     OW13156   7.469   2.915   9.524  0.5242 -0.1177  0.1403
36585SOL    HW113157   7.387   2.963   9.514  0.0847 -0.9842 -0.6162
36585SOL    HW213158   7.503   2.942   9.609 -0.4470  0.4022  0.3758
36586SOL     OW13159  10.693   1.414   8.661 -0.0147  0.0901  0.0111
36586SOL    HW113160  10.752   1.349   8.623 -0.3591 -0.7094  0.8118
36586SOL    HW213161  10.689   1.484   8.596 -0.5507 -1.2014 -1.4021
36587SOL     OW13162   6.968   9.736   8.528  0.4752  0.2090  0.8002
36587SOL    HW113163   6.981   9.743   8.434  0.2297 -0.0558  0.7459
36587SOL    HW213164   7.019   9.809   8.565  0.6165  0.2783  0.4694
36588SOL     OW13165   8.477   5.414   6.258  0.8009 -0.4163  0.1266
36588SOL    HW113166   8.424   5.348   6.212  0.1556 -0.8909  1.5072
36588SOL    HW213167   8.567   5.382   6.250  0.4772 -1.5824  0.9236
36589SOL     OW13168   0.700   8.304   4.487 -0.1891  0.6901 -0.3120
36589SOL    HW113169   0.738   8.215   4.489 -2.4717 -0.3536 -0.5560
36589SOL    HW213170   0.774   8.361   4.507  1.5033 -1.2109 -0.7223
36590SOL     OW13171   7.700   0.002   3.233 -0.0814 -0.4505 -0.0080
36590SOL    HW113172   7.664  -0.004   3.144 -0.4642  0.0231  0.1166
36590SOL    HW213173   7.792  -0.022   3.222 -0.6412 -2.7760 -0.1488
36591SOL     OW13174  10.382   9.346  10.279 -0.0608  0.0862 -0.5485
36591SOL    HW113175  10.322   9.370  10.208 -0.3108  1.0267 -0.0339
36591SOL    HW213176  10.366   9.253  10.293  0.2595 -0.2059 -1.9669
36592SOL     OW13177   0.326   0.961   2.282  0.6465  0.1664  0.3988
36592SOL    HW113178   0.302   1.053   2.266 -2.3059 -0.6003 -0.2784
36592SOL    HW213179   0.363   0.931   2.200 -0.7572  0.1407 -0.2630
36593SOL     OW13180   3.927   4.585   0.573  0.2855  0.0807  0.3366
36593SOL    HW113181   3.998   4.542   0.526 -0.6604  0.0075 -1.0923
36593SOL    HW213182   3.969   4.657   0.620  1.4683 -0.6928  0.4976
36594SOL     OW13183   7.027   3.336   5.273 -0.6589  0.3061 -0.1119
36594SOL    HW113184   7.101   3.323   5.331 -0.9659  0.8748  0.4199
36594SOL    HW213185   7.061   3.389   5.201 -0.4184  0.1003 -0.1482
36595SOL     OW13186   5.428   4.682  10.613 -0.4388  0.4449  0.1706
36595SOL    HW113187   5.397   4.669  10.523  0.5270  0.8938 -0.2391
36595SOL    HW213188   5.455   4.594  10.642  0.2311  0.4622 -0.3658
36596SOL     OW13189  10.801   1.003   2.099 -0.3506  0.1369 -0.3395
36596SOL    HW113190  10.891   0.971   2.097 -0.9214 -1.6285 -0.2839
36596SOL    HW213191  10.760   0.953   2.170 -1.2023  1.4456  0.1249
36597SOL     OW13192   6.724   5.474   5.032 -0.1736 -0.2970 -0.5773
36597SOL    HW113193   6.669   5.432   4.965  0.2600 -2.6502  0.4310
36597SOL    HW213194   6.723   5.567   5.009 -2.4663 -0.6047 -2.0847
36598SOL     OW13195   7.903   1.331   0.515 -0.2964 -0.1316 -0.4308
36598SOL    HW113196   7.862   1.332   0.602 -0.8995  0.4328 -0.7200
36598SOL    HW213197   7.847   1.385   0.461  0.8458  0.7011 -0.8314
36599SOL     OW13198   2.520   5.141   9.757 -0.1899  0.1162  0.0255
36599SOL    HW113199   2.493   5.193   9.833 -2.4715 -0.5301 -0.2814
36599SOL    HW213200   2.442   5.136   9.702  0.7501 -1.3605 -1.2526
36600SOL     OW13201   7.156   2.181   0.340 -0.1052 -0.2729 -0.0700
36600SOL    HW113202   7.209   2.146   0.411  0.4202 -0.4454 -0.5358
36600SOL    HW213203   7.217   2.189   0.266 -0.4153  0.8216 -0.2222
36601SOL     OW13204   6.278  10.522   9.457  0.3899  0.5851 -0.1306
36601SOL    HW113205   6.347  10.562   9.403 -0.5734  2.5598  0.0083
36601SOL    HW213206   6.305  10.540   9.547  2.5079 -3.5582  0.2942
36602SOL     OW13207   6.791   2.847   8.328  0.1920 -0.5582 -0.0336
36602SOL    HW113208   6.729   2.866   8.398 -2.3416 -1.5342 -1.8424
36602SOL    HW213209   6.818   2.933   8.296 -0.6584 -0.0974  0.4471
36603SOL     OW13210  10.383   6.194   0.524 -0.4424  0.1371  0.5691
36603SOL    HW113211  10.330   6.239   0.590 -0.1583 -0.3577  1.1387
36603SOL    HW213212  10.319   6.159   0.462 -0.7843 -0.3484  1.1845
36604SOL     OW13213   5.432   2.752   1.888 -0.3973  0.3853 -0.1456
36604SOL    HW113214   5.422   2.773   1.981 -1.5344  0.2324 -0.2210
36604SOL    HW213215   5.515   2.792   1.863 -0.7970  1.7211  0.5714
36605SOL     OW13216   3.354   5.757   7.270 -0.2214  0.3707  0.1665
36605SOL    HW113217   3.261   5.777   7.273 -0.5599 -0.8844 -1.1369
36605SOL    HW213218   3.369   5.724   7.181  1.5683  1.0363  0.1892
36606SOL     OW13219   9.543   2.603   1.644 -0.1384 -0.4807 -0.3838
36606SOL    HW113220   9.546   2.543   1.570 -0.3143 -1.4415  0.3680
36606SOL    HW213221   9.611   2.668   1.626 -0.3729 -0.5436 -1.5119
36607SOL     OW13222  10.052   0.407   3.235  0.2096  0.0050 -0.3633
36607SOL    HW113223  10.092   0.407   3.149  0.5324 -0.7539 -0.2247
36607SOL    HW213224  10.091   0.331   3.280  0.3418  0.6097  0.5813
36608SOL     OW13225   5.068   3.897  10.109  0.1295  0.2513  0.3444
36608SOL    HW113226   5.122   3.837  10.160  0.4619 -0.0716 -0.3745
36608SOL    HW213227   4.978   3.875  10.133  0.3067  1.6080  2.4683
36609SOL     OW13228   0.980   2.114   5.022  0.1517 -0.5364 -0.1753
36609SOL    HW113229   0.974   2.099   5.116  0.3784 -1.7242 -0.3242
36609SOL    HW213230   1.067   2.151   5.009 -0.5623  1.3817  0.2563
36610SOL     OW13231   0.559   3.168   2.421 -0.6141 -0.3728  0.0737
36610SOL    HW113232   0.621   3.236   2.449  0.0106 -0.5475 -0.8196
36610SOL    HW213233   0.534   3.123   2.501  0.6652 -0.4931  0.4289
36611SOL     OW13234  10.901   0.235   8.429 -0.3564  0.5313 -0.5614
36611SOL    HW113235  10.912   0.311   8.372 -2.1772 -0.0985 -1.8168
36611SOL    HW213236  10.826   0.189   8.394 -0.5979 -0.7339  1.4538
36612SOL     OW13237  10.803   4.018   2.553  0.2583 -0.0040 -0.1404
36612SOL    HW113238  10.892   4.053   2.561 -0.2433  0.9920  1.2971
36612SOL    HW213239  10.752   4.090   2.516  0.1937 -0.8803 -1.8789
36613SOL     OW13240   3.140   3.924   9.698  0.3561  0.3583 -0.0107
36613SOL    HW113241   3.227   3.955   9.674 -0.1063  1.4860 -0.3463
36613SOL    HW213242   3.081   3.981   9.648 -0.5616 -1.5190 -1.1669
36614SOL     OW13243   5.483   1.841   9.327  0.2233 -0.1645 -0.0332
36614SOL    HW113244   5.478   1.800   9.240  0.6839 -0.7751  0.2261
36614SOL    HW213245   5.524   1.776   9.382  0.7608  0.5668  0.4481
36615SOL     OW13246   0.942   2.451   9.118 -0.5715 -0.4095 -0.0351
36615SOL    HW113247   0.975   2.434   9.030 -0.2835  0.8708 -0.1901
36615SOL    HW213248   1.020   2.460   9.172 -0.4569  3.4745 -0.5557
36616SOL     OW13249   5.522   1.325   5.199  0.6354 -0.1277 -0.1522
36616SOL    HW113250   5.552   1.408   5.236 -0.9654  0.0310  0.8822
36616SOL    HW213251   5.434   1.344   5.166  0.5496 -1.2214 -0.5831
36617SOL     OW13252   9.144   9.106   0.020  0.1009 -0.2021 -0.0437
36617SOL    HW113253   9.160   9.128  -0.071  0.2430 -0.6170 -0.1232
36617SOL    HW213254   9.058   9.063   0.020 -0.4035  0.7963  0.1835
36618SOL     OW13255   5.201   1.108   0.056  0.4454  0.4755 -0.1402
36618SOL    HW113256   5.289   1.070   0.051  0.8692  1.4417 -0.0991
36618SOL    HW213257   5.143   1.032   0.061  1.2152 -0.1958 -1.0755
36619SOL     OW13258   7.609   3.806   4.312  0.3362 -0.1092  0.3780
36619SOL    HW113259   7.575   3.895   4.311  0.7040  0.0261 -1.1661
36619SOL    HW213260   7.690   3.812   4.362  0.0086  0.2696  0.8795
36620SOL     OW13261   4.394   5.907   0.971 -0.1757 -0.2292 -0.2578
36620SOL    HW113262   4.339   5.846   1.021  0.8853  0.0928  1.3884
36620SOL    HW213263   4.471   5.921   1.027  0.9132  0.4411 -1.8589
36621SOL     OW13264   4.116   0.445   1.546  0.1727  0.1172 -0.5058
36621SOL    HW113265   4.143   0.382   1.479  1.0213  0.1965 -0.2556
36621SOL    HW213266   4.163   0.525   1.524  0.6897  0.0631  0.3369
36622SOL     OW13267   4.859   6.992  10.719 -0.0850  0.3323  0.1325
36622SOL    HW113268   4.815   6.932  10.659  3.5616 -2.3580 -0.2051
36622SOL    HW213269   4.884   7.067  10.665 -0.1942 -0.2623 -0.7615
36623SOL     OW13270   9.432   9.377   8.221 -0.1100  0.5772  0.1010
36623SOL    HW113271   9.359   9.320   8.241  1.1513 -0.6371  1.4878
36623SOL    HW213272   9.495   9.362   8.292  2.6279 -0.4640 -2.3309
36624SOL     OW13273   5.419   5.906   6.234 -0.2526  0.0705 -0.3238
36624SOL    HW113274   5.362   5.853   6.289  0.3076  0.4994  0.6917
36624SOL    HW213275   5.485   5.845   6.202  0.3263  0.1055  0.7555
36625SOL     OW13276   0.579   0.192   6.617  0.0372 -0.1865  0.2538
36625SOL    HW113277   0.486   0.206   6.601 -0.2434  0.8438  2.3915
36625SOL    HW213278   0.622   0.235   6.544 -1.1567  1.3892  0.4090
36626SOL     OW13279   2.723   6.802   5.532  0.1934  0.2365 -0.7949
36626SOL    HW113280   2.674   6.884   5.533  1.7872  1.2160  0.3042
36626SOL    HW213281   2.717   6.769   5.622 -0.4613 -0.9125 -1.2273
36627SOL     OW13282   5.716   7.969   9.173  0.0047 -0.2058 -0.2353
36627SOL    HW113283   5.733   7.876   9.188  0.3021  0.0738  1.3627
36627SOL    HW213284   5.621   7.978   9.181  0.0867 -0.1878  0.9678
36628SOL     OW13285   0.852   0.098   5.334  0.4928 -0.3002 -0.3651
36628SOL    HW113286   0.882   0.007   5.326  1.8257  0.0970 -0.2159
36628SOL    HW213287   0.884   0.126   5.419 -1.1135 -0.0937  0.2004
36629SOL     OW13288   2.038   2.277   8.905 -0.1085  0.2875 -0.6623
36629SOL    HW113289   2.068   2.337   8.973 -4.0735  0.7758  0.9598
36629SOL    HW213290   2.054   2.323   8.823 -0.0719  2.1519  0.3355
36630SOL     OW13291   0.974   2.302   6.407 -0.0391  0.0147  0.0420
36630SOL    HW113292   0.901   2.350   6.366  0.0836 -0.5988 -0.9206
36630SOL    HW213293   0.968   2.324   6.500 -0.2300  1.5803 -0.3134
36631SOL     OW13294   2.816   7.617   6.917 -0.2892 -0.8077 -0.6467
36631SOL    HW113295   2.840   7.602   7.009  2.5999 -2.9395 -1.5988
36631SOL    HW213296   2.879   7.565   6.867 -2.3532 -0.4901 -3.8551
36632SOL     OW13297   9.293   1.203  10.221  0.3310 -0.3599 -0.4469
36632SOL    HW113298   9.245   1.136  10.270  2.3588 -1.4897  0.1371
36632SOL    HW213299   9.242   1.283  10.232 -0.2980 -1.0083  1.9408
36633SOL     OW13300   3.175   0.284   2.546  0.1058 -0.1627 -0.1454
36633SOL    HW113301   3.206   0.209   2.597 -0.2417 -0.2111  0.0031
36633SOL    HW213302   3.252   0.340   2.536 -0.2587  0.9539  2.3804
36634SOL     OW13303   3.008   9.014   8.899  0.7737  0.2755 -0.2792
36634SOL    HW113304   2.919   9.039   8.923  0.3460 -1.2943 -0.1376
36634SOL    HW213305   2.997   8.942   8.837  1.9350 -0.9534  0.8724
36635SOL     OW13306  10.433   4.692   3.688 -0.5890 -0.2130 -0.2787
36635SOL    HW113307  10.519   4.662   3.660 -0.7894 -0.0317 -1.0969
36635SOL    HW213308  10.407   4.757   3.623 -0.4670  1.2683  1.0757
36636SOL     OW13309   8.010   4.079   3.678 -0.1129 -0.2498  0.4480
36636SOL    HW113310   8.018   4.003   3.737 -0.9939 -1.0149 -0.3806
36636SOL    HW213311   7.927   4.119   3.703  1.2000  1.5929  2.1391
36637SOL     OW13312   0.772   2.001   8.236 -0.1057 -0.2313  0.3594
36637SOL    HW113313   0.794   2.025   8.146  0.0082 -0.0424  0.4370
36637SOL    HW213314   0.839   2.043   8.289 -0.1646 -0.3551  0.5326
36638SOL     OW13315   3.671   7.070   2.806  0.8757  0.3355  0.4512
36638SOL    HW113316   3.720   7.122   2.742  0.0903  0.9506  0.3373
36638SOL    HW213317   3.687   6.979   2.780  0.7209  0.5753 -0.5023
36639SOL     OW13318   1.795   2.920   7.257  0.5200 -0.1290 -0.0878
36639SOL    HW113319   1.717   2.929   7.201  1.7307 -0.1165 -1.8581
36639SOL    HW213320   1.779   2.840   7.307  0.2258 -1.3089 -1.9578
36640SOL     OW13321   8.408   0.761   3.699  0.4796  0.5744 -0.1946
36640SOL    HW113322   8.348   0.741   3.628  3.5224 -2.1048 -2.3278
36640SOL    HW213323   8.431   0.854   3.686  0.4927  0.3024 -2.4126
36641SOL     OW13324   0.012   6.389   8.317 -0.1922  0.4152  0.4788
36641SOL    HW113325   0.091   6.436   8.289  0.9918 -0.3999  2.2762
36641SOL    HW213326   0.038   6.297   8.317 -0.8050  0.2178  2.1193
36642SOL     OW13327   3.114   8.461   4.209  0.0156 -0.2641 -0.2006
36642SOL    HW113328   3.120   8.553   4.236  0.4866  0.2645 -1.9574
36642SOL    HW213329   3.190   8.448   4.153  0.7255 -2.1575  1.1229
36643SOL     OW13330  10.817   3.131   6.760  0.2241 -0.4356 -0.5368
36643SOL    HW113331  10.882   3.098   6.697 -1.4615 -0.5380 -2.2920
36643SOL    HW213332  10.746   3.066   6.757  0.0225 -0.3627  1.3967
36644SOL     OW13333   1.413   4.816   5.184  0.1193 -0.3278 -0.3712
36644SOL    HW113334   1.438   4.765   5.261  1.9006  0.0547 -0.6565
36644SOL    HW213335   1.397   4.750   5.116  1.2618 -0.5873 -0.4153
36645SOL     OW13336   9.443   1.982   9.133  0.3546  0.2698  0.0465
36645SOL    HW113337   9.388   1.991   9.055  0.5658 -0.0158 -0.1358
36645SOL    HW213338   9.532   2.001   9.103  0.1366  2.7543  0.7364
36646SOL     OW13339   7.793   1.775   3.716  0.0043  0.5263  0.1179
36646SOL    HW113340   7.749   1.692   3.737 -1.5462  1.5711  1.2149
36646SOL    HW213341   7.764   1.835   3.785  1.0999  1.9923 -0.6516
36647SOL     OW13342   4.115   1.516   3.573 -0.3259 -0.5083  0.4018
36647SOL    HW113343   4.129   1.601   3.531 -1.6611  0.6875  2.1998
36647SOL    HW213344   4.165   1.522   3.655 -1.1834 -1.0679  0.9844
36648SOL     OW13345   7.368  10.798   7.662  0.0071 -0.2313  0.0241
36648SOL    HW113346   7.407  10.791   7.575 -0.6896 -0.0938 -0.3081
36648SOL    HW213347   7.422  10.742   7.718 -0.0761 -1.0334 -0.6865
36649SOL     OW13348   0.872   1.398   3.387 -0.3181  0.7532  0.4404
36649SOL    HW113349   0.871   1.363   3.298 -0.6048 -2.0909  1.4439
36649SOL    HW213350   0.808   1.343   3.434 -1.3248  3.1653  2.0772
36650SOL     OW13351  10.784   5.010   1.473  0.3673  0.5367  0.0444
36650SOL    HW113352  10.792   4.933   1.530 -0.6740 -0.1944 -0.7719
36650SOL    HW213353  10.695   5.041   1.488  0.3853  0.8659 -0.5214
36651SOL     OW13354   7.553   1.288  10.802  0.6152  0.4496  0.3530
36651SOL    HW113355   7.515   1.368  10.767  0.5848 -0.1966 -1.1548
36651SOL    HW213356   7.509   1.217  10.755  2.2690 -0.3770 -0.0313
36652SOL     OW13357   7.374   1.780   8.800  0.4629  0.9105 -0.0002
36652SOL    HW113358   7.362   1.766   8.894  0.1225  1.9945  0.1419
36652SOL    HW213359   7.466   1.804   8.791  0.4925  0.8207  0.0628
36653SOL     OW13360   6.089   9.567   0.575  0.5889 -0.2456 -0.1459
36653SOL    HW113361   6.048   9.598   0.494 -0.4952 -1.7943 -0.2347
36653SOL    HW213362   6.086   9.643   0.633 -0.0027  0.4522 -1.0459
36654SOL     OW13363   7.212   8.991   2.554  0.4772  0.6110  0.7708
36654SOL    HW113364   7.258   8.912   2.526 -0.9709 -0.1319  0.4023
36654SOL    HW213365   7.179   8.970   2.641  1.0232  1.2314  1.1373
36655SOL     OW13366   6.843   5.692   8.157 -0.2248 -0.4019 -0.8342
36655SOL    HW113367   6.798   5.634   8.219  1.1407  1.1416  1.8036
36655SOL    HW213368   6.830   5.651   8.072 -2.1983 -2.7037  0.4508
36656SOL     OW13369  10.031   3.187   4.961 -0.0091  0.0184 -0.2769
36656SOL    HW113370   9.984   3.139   4.892 -1.2412  1.4280 -0.4648
36656SOL    HW213371  10.084   3.251   4.913  0.5979 -0.2580  0.0206
36657SOL     OW13372   8.955   8.397   5.508 -0.2284  0.3836 -0.2143
36657SOL    HW113373   8.935   8.458   5.437 -1.1041 -0.1701 -0.4521
36657SOL    HW213374   8.888   8.413   5.574 -1.0848 -0.9675 -0.7007
36658SOL     OW13375   4.513   1.703   6.113 -0.2982 -0.3525  0.2577
36658SOL    HW113376   4.475   1.624   6.151  0.5716 -0.7200  0.4098
36658SOL    HW213377   4.469   1.775   6.157 -0.7321 -0.7634  0.5029
36659SOL     OW13378  10.803  10.013   1.699  0.1299  0.0318  0.0688
36659SOL    HW113379  10.815   9.918   1.698  1.2096  0.1500 -0.3702
36659SOL    HW213380  10.708  10.026   1.695  0.0105 -1.0310 -1.5214
36660SOL     OW13381   5.667   4.408   2.354 -0.1270 -0.6217  0.1521
36660SOL    HW113382   5.690   4.462   2.430 -2.0199 -1.6218  1.5287
36660SOL    HW213383   5.639   4.324   2.392 -0.4550 -1.4104 -1.7105
36661SOL     OW13384   1.916   4.210   7.754  0.2124 -0.6539 -0.2823
36661SOL    HW113385   1.939   4.155   7.680  1.7278 -1.7003  0.9113
36661SOL    HW213386   1.986   4.274   7.760 -0.0638 -0.3749  0.0523
36662SOL     OW13387   9.015   1.539   4.117 -0.5791 -0.5010  0.5587
36662SOL    HW113388   8.998   1.632   4.130 -0.3186 -0.4529  0.5586
36662SOL    HW213389   8.997   1.524   4.025 -0.4015 -0.4020  0.5070
36663SOL     OW13390   6.516  10.711   4.189 -0.0100 -0.1317 -0.7989
36663SOL    HW113391   6.516  10.622   4.225 -1.1396 -0.3085 -1.1933
36663SOL    HW213392   6.587  10.711   4.126  0.5349 -0.5034 -0.1958
36664SOL     OW13393   0.727   3.277   3.922 -0.2753  0.2097 -0.0371
36664SOL    HW113394   0.687   3.288   3.836 -0.5675 -0.4938  0.0044
36664SOL    HW213395   0.684   3.342   3.977 -0.4044  0.3627 -0.3151
36665SOL     OW13396   7.517   0.917   0.541  0.1150  0.2523  0.0820
36665SOL    HW113397   7.522   0.969   0.622 -0.9439 -1.1578  1.1080
36665SOL    HW213398   7.569   0.966   0.478 -1.5185  3.0171  0.7104
36666SOL     OW13399   9.408   4.561  10.050  0.0278 -0.1142  0.1906
36666SOL    HW113400   9.397   4.554  10.145  0.3349 -2.0114  0.1161
36666SOL    HW213401   9.499   4.586  10.037 -0.4421  1.9042  0.4007
36667SOL     OW13402   5.217   7.273   0.912  0.1252 -0.6482 -0.7386
36667SOL    HW113403   5.172   7.204   0.960 -0.6765  0.5798  0.3508
36667SOL    HW213404   5.302   7.281   0.956 -1.0966  1.3628  1.4670
36668SOL     OW13405   1.147   2.129   6.268  0.1024 -0.3518 -0.1003
36668SOL    HW113406   1.076   2.191   6.288 -2.6110 -3.0442 -0.6218
36668SOL    HW213407   1.187   2.109   6.352 -1.0052 -0.1652  0.4806
36669SOL     OW13408   5.206   0.721   3.838 -0.2141  0.8043  0.2878
36669SOL    HW113409   5.187   0.740   3.930 -2.5853  0.3687 -0.0583
36669SOL    HW213410   5.168   0.795   3.790 -0.5347  0.1795 -0.4366
36670SOL     OW13411   4.536   0.899   9.304 -0.6369 -0.4480  0.3192
36670SOL    HW113412   4.551   0.970   9.241 -2.7854  0.6661  0.9459
36670SOL    HW213413   4.484   0.835   9.256 -0.7072 -0.4714  0.4271
36671SOL     OW13414   1.919   9.490   4.382 -0.3608 -0.6850  0.3375
36671SOL    HW113415   1.913   9.544   4.461 -0.3996 -0.2445  0.0332
36671SOL    HW213416   1.933   9.401   4.416  2.7387 -0.1366  0.7990
36672SOL     OW13417   2.100   2.049   5.897 -0.9247 -0.0241 -0.1054
36672SOL    HW113418   2.191   2.079   5.903 -1.1221  0.2781  1.9458
36672SOL    HW213419   2.107   1.957   5.871 -0.0396  0.0466 -0.1429
36673SOL     OW13420   9.801   1.354   2.827  0.2263 -0.0234 -0.1533
36673SOL    HW113421   9.891   1.324   2.841  0.0774  0.0634  1.1448
36673SOL    HW213422   9.809   1.426   2.765  1.0851  0.1501  0.1495
36674SOL     OW13423   9.720   9.984   4.105 -0.1468  0.8607 -0.1260
36674SOL    HW113424   9.782  10.056   4.119 -0.0030  0.8873 -0.8483
36674SOL    HW213425   9.687   9.963   4.192  0.2672  1.3969  0.1651
36675SOL     OW13426   7.348  10.853   4.263 -0.1699 -0.1386 -0.3873
36675SOL    HW113427   7.376  10.779   4.208 -0.2764  0.4762 -1.2880
36675SOL    HW213428   7.349  10.928   4.204  1.3613  0.8817  0.8527
36676SOL     OW13429   2.147   8.577   9.165 -0.3997 -0.4175  0.6777
36676SOL    HW113430   2.176   8.668   9.159  1.2600 -0.8458  1.6220
36676SOL    HW213431   2.052   8.582   9.176 -0.1658  1.2665  2.2325
36677SOL     OW13432   6.657  10.278   2.063 -0.5798  0.1505  0.3659
36677SOL    HW113433   6.712  10.288   2.141  0.3682  0.5228 -0.3350
36677SOL    HW213434   6.571  10.253   2.098 -0.6382  1.9433  1.6288
36678SOL     OW13435   2.917   7.857   1.341  0.2783  0.1002 -0.3436
36678SOL    HW113436   2.856   7.822   1.406  3.8338 -1.2485  2.5886
36678SOL    HW213437   2.971   7.782   1.316  2.4058  1.6742 -0.7524
36679SOL     OW13438   6.006   5.230   5.218  0.1368  0.0565 -0.2667
36679SOL    HW113439   6.048   5.147   5.197  0.1566 -0.6656  2.2933
36679SOL    HW213440   6.054   5.263   5.294 -1.5955  1.0191  0.4761
36680SOL     OW13441   8.980   6.407   0.879 -0.9662 -0.1254  0.0015
36680SOL    HW113442   9.011   6.497   0.884 -2.0472  0.3589 -1.3629
36680SOL    HW213443   8.996   6.381   0.788 -2.1862 -0.7145 -0.0713
36681SOL     OW13444   3.240   6.085   5.806  0.5175  0.5224  0.4712
36681SOL    HW113445   3.184   6.037   5.746  0.9354  1.9182 -1.0974
36681SOL    HW213446   3.317   6.028   5.817  0.4111  0.2225 -0.2683
36682SOL     OW13447   9.445   2.213   6.380 -0.5930  0.3106  0.3827
36682SOL    HW113448   9.450   2.200   6.475 -0.5311 -0.8847  0.2246
36682SOL    HW213449   9.356   2.186   6.357 -0.5495  0.4294  0.0712
36683SOL     OW13450   5.257   9.894   7.730  0.2186 -0.2480  0.6177
36683SOL    HW113451   5.182   9.935   7.686 -1.1162 -4.0812 -1.0755
36683SOL    HW213452   5.327   9.896   7.665 -0.4150 -2.0640 -0.1876
36684SOL     OW13453   5.246   9.094   9.884  0.4040  0.2137 -0.0632
36684SOL    HW113454   5.249   9.000   9.864  0.2433  0.0076  0.8264
36684SOL    HW213455   5.308   9.104   9.956 -0.3685  0.6040  0.5514
36685SOL     OW13456   7.957   9.891   9.616  0.1853 -0.2038  0.1702
36685SOL    HW113457   7.995   9.967   9.572 -2.0994  1.5697  1.0442
36685SOL    HW213458   7.986   9.899   9.707  0.1528 -0.5410  0.2121
36686SOL     OW13459   2.528   9.746   4.060  0.3978  0.0736  0.5409
36686SOL    HW113460   2.512   9.652   4.045  0.3199  0.1059  0.4186
36686SOL    HW213461   2.487   9.789   3.985  2.2943  0.0783 -0.5377
36687SOL     OW13462   9.073   2.946   9.186 -0.0528 -0.9633 -0.2324
36687SOL    HW113463   9.121   2.951   9.269 -0.1668  0.5595 -0.2443
36687SOL    HW213464   9.125   2.997   9.124  0.4913 -2.7949 -1.3771
36688SOL     OW13465   7.483   9.700   3.151  0.2327  0.0478  0.2401
36688SOL    HW113466   7.409   9.688   3.091  1.0378 -0.3974 -0.7093
36688SOL    HW213467   7.475   9.629   3.214  1.9380 -2.5157 -2.1457
36689SOL     OW13468   6.030   7.147   6.387  0.0406  0.1282 -0.5255
36689SOL    HW113469   5.940   7.136   6.354 -2.4216  0.4152  4.9598
36689SOL    HW213470   6.051   7.063   6.428 -0.4198  1.7032  3.3430
36690SOL     OW13471   0.075   7.442   6.790  0.1020 -0.1751  0.3589
36690SOL    HW113472  -0.007   7.472   6.829  0.5433 -1.1517  2.1519
36690SOL    HW213473   0.054   7.359   6.749 -0.2868  0.6915 -1.2691
36691SOL     OW13474  10.549   2.019   7.389 -0.3102  0.2100 -0.0349
36691SOL    HW113475  10.568   1.958   7.318 -0.1306 -1.7841  1.6322
36691SOL    HW213476  10.453   2.020   7.394 -0.3155  0.1299 -0.1282
36692SOL     OW13477   9.151  10.454   7.309  0.4384  0.6223  0.0712
36692SOL    HW113478   9.136  10.530   7.365 -0.3852 -1.0442  2.2364
36692SOL    HW213479   9.077  10.396   7.326  1.6407 -1.1871 -0.5974
36693SOL     OW13480   8.680   9.635   1.213  0.0521 -0.3045 -0.3069
36693SOL    HW113481   8.763   9.674   1.184  0.4914 -2.3987 -2.1864
36693SOL    HW213482   8.699   9.599   1.300  0.8866 -0.0298 -0.3660
36694SOL     OW13483   0.980   1.063   6.277 -0.1675  0.4077 -0.0242
36694SOL    HW113484   0.886   1.045   6.285 -0.0269 -0.4435 -0.2227
36694SOL    HW213485   1.010   1.004   6.208  0.7853 -0.3267  0.9973
36695SOL     OW13486   8.557   8.530   3.744 -0.1138 -0.4336 -0.1501
36695SOL    HW113487   8.462   8.535   3.735 -0.1143 -2.0465 -1.4610
36695SOL    HW213488   8.573   8.450   3.794  0.5704 -0.9891 -1.2088
36696SOL     OW13489   7.021   5.292   9.885 -0.1965 -0.4368 -0.3084
36696SOL    HW113490   7.055   5.277   9.797  0.5968 -0.2249 -0.0507
36696SOL    HW213491   6.935   5.331   9.872 -0.7614 -1.8655 -0.9835
36697SOL     OW13492   2.177   4.414   1.865  0.0769 -0.4491 -0.3165
36697SOL    HW113493   2.173   4.348   1.934 -0.9608 -1.6637 -1.4929
36697SOL    HW213494   2.171   4.498   1.912 -1.4662 -1.2438  1.0323
36698SOL     OW13495  10.862   5.749   2.579 -0.4495 -0.1173 -0.1907
36698SOL    HW113496  10.829   5.688   2.512  0.1689  1.3437 -1.8857
36698SOL    HW213497  10.801   5.823   2.576 -1.5455 -0.7932  2.2716
36699SOL     OW13498   6.304   1.725   4.521 -0.3794 -0.0498 -0.2360
36699SOL    HW113499   6.296   1.793   4.588 -0.7464 -0.3214 -0.0024
36699SOL    HW213500   6.266   1.647   4.561 -1.2248 -0.0488 -1.0086
36700SOL     OW13501   3.826   0.941   6.007  0.1494 -0.8165 -0.0762
36700SOL    HW113502   3.921   0.926   6.012  0.7027  0.7083 -3.2960
36700SOL    HW213503   3.811   1.018   6.061  1.0413 -0.2473 -0.6084
36701SOL     OW13504   2.278   1.908   3.839 -0.0133 -0.1252  0.2908
36701SOL    HW113505   2.213   1.967   3.877 -0.3468  0.8405 -1.6382
36701SOL    HW213506   2.227   1.845   3.788  0.4328 -1.1754  1.1038
36702SOL     OW13507   3.311   4.468   8.081 -0.2328  0.0704  0.2373
36702SOL    HW113508   3.380   4.534   8.074 -1.6924  1.8533  1.3939
36702SOL    HW213509   3.235   4.508   8.039 -1.2266 -0.7582  1.1637
36703SOL     OW13510  10.463   5.745  10.565 -0.4570 -0.0186  0.5560
36703SOL    HW113511  10.378   5.741  10.521 -0.4727 -0.9538  0.6479
36703SOL    HW213512  10.513   5.810  10.515 -0.7135 -0.5539 -0.4235
36704SOL     OW13513   3.607   3.991   5.917  0.0981  0.9700 -0.1730
36704SOL    HW113514   3.601   3.908   5.870  3.5317  1.1767 -1.2191
36704SOL    HW213515   3.575   3.971   6.005 -1.7846 -0.6916 -1.1505
36705SOL     OW13516   7.596  10.659   5.347  0.4929 -0.6074  0.3250
36705SOL    HW113517   7.525  10.722   5.337 -0.0532 -0.7745  2.6158
36705SOL    HW213518   7.571  10.584   5.292  0.2869  0.3941 -1.0112
36706SOL     OW13519  10.846   1.478   7.782 -0.2176  0.0553  0.2194
36706SOL    HW113520  10.794   1.524   7.716 -0.8042  0.8874  1.2345
36706SOL    HW213521  10.905   1.544   7.817 -0.5280 -0.1457  1.1536
36707SOL     OW13522   2.099   1.184   1.012  0.1230  0.6660 -0.9043
36707SOL    HW113523   2.125   1.106   0.963 -0.0212  1.4102 -2.2204
36707SOL    HW213524   2.143   1.176   1.097  0.5926 -0.5312 -1.2486
36708SOL     OW13525   4.708   8.180   8.417  0.4885 -0.4221  0.7219
36708SOL    HW113526   4.744   8.269   8.414 -0.4850  0.0161 -2.2566
36708SOL    HW213527   4.764   8.133   8.478  3.1004  1.4254 -0.0786
36709SOL     OW13528   5.438   6.341   2.415  0.3766  0.7934  0.4320
36709SOL    HW113529   5.452   6.426   2.373  1.5301  0.8244  0.8476
36709SOL    HW213530   5.501   6.283   2.371 -0.1548  0.2322  0.4006
36710SOL     OW13531   7.259   7.812  10.308  0.8318 -0.3470  0.0017
36710SOL    HW113532   7.252   7.844  10.398 -0.9009 -0.7432  0.0541
36710SOL    HW213533   7.180   7.760  10.295 -0.1915  1.5781 -2.4795
36711SOL     OW13534   4.714   2.018   8.411  0.0935 -0.0836  0.4076
36711SOL    HW113535   4.658   2.092   8.390 -0.0606 -0.0403  0.9755
36711SOL    HW213536   4.758   1.998   8.328 -0.0900  0.4445  0.1771
36712SOL     OW13537   8.655   0.648   7.169  0.1163 -0.2895 -0.4000
36712SOL    HW113538   8.678   0.555   7.164 -0.2084 -0.3362 -1.2487
36712SOL    HW213539   8.583   0.658   7.107 -0.3299  0.3952  0.2033
36713SOL     OW13540   3.610   3.048   5.995 -0.1786 -0.1559  0.3695
36713SOL    HW113541   3.612   2.967   6.045  1.2295  0.0337  0.6534
36713SOL    HW213542   3.698   3.084   6.003 -0.2276  0.4368 -1.3471
36714SOL     OW13543  10.373   1.597  10.111  0.4329  0.2647 -0.2853
36714SOL    HW113544  10.457   1.589  10.156 -0.0285  1.0181  0.7370
36714SOL    HW213545  10.389   1.661  10.042  0.6543  0.5203  0.0040
36715SOL     OW13546   4.556  10.417   4.797  1.4596  0.1596 -0.1268
36715SOL    HW113547   4.601  10.423   4.881  0.0481  0.6959  0.6260
36715SOL    HW213548   4.603  10.349   4.749  0.3285 -2.6414  2.3878
36716SOL     OW13549   1.543   5.766  10.648 -0.0478  0.2243 -0.2930
36716SOL    HW113550   1.507   5.759  10.737 -0.2256  0.4370 -0.3458
36716SOL    HW213551   1.576   5.856  10.643  0.3207  0.0878 -0.3100
36717SOL     OW13552   4.821   8.350   0.177 -0.1999  0.3350  0.1468
36717SOL    HW113553   4.915   8.354   0.196 -0.2376 -1.1496  0.7682
36717SOL    HW213554   4.799   8.257   0.183 -1.2273  0.3136 -2.5389
36718SOL     OW13555   3.154   1.141   2.433 -0.9041  0.1330 -0.2244
36718SOL    HW113556   3.235   1.110   2.475 -1.8075 -0.3946  1.1944
36718SOL    HW213557   3.174   1.231   2.406 -0.2805  0.5338  1.4310
36719SOL     OW13558   3.893   3.113   0.419  0.1206  0.2697  0.3761
36719SOL    HW113559   3.897   3.207   0.399  0.2395 -0.0599 -1.2796
36719SOL    HW213560   3.955   3.073   0.358 -1.5718 -1.1042 -0.5202
36720SOL     OW13561   8.572  10.190   1.672 -0.1235  0.1658 -0.4192
36720SOL    HW113562   8.625  10.250   1.724 -0.7122 -0.6274  1.1718
36720SOL    HW213563   8.636  10.141   1.620  0.3294  2.4854 -2.2037
36721SOL     OW13564   7.902  10.794   5.011  0.6653  0.2099 -0.2051
36721SOL    HW113565   7.990  10.791   5.048  0.3622 -1.7378  0.4773
36721SOL    HW213566   7.876  10.702   5.003 -1.2450  0.7261 -0.5379
36722SOL     OW13567   0.188   7.410   4.608  0.1598  0.4441  0.0855
36722SOL    HW113568   0.208   7.439   4.697 -1.1436  0.1962  0.4827
36722SOL    HW213569   0.200   7.488   4.554  2.5070  0.2169  0.2086
36723SOL     OW13570   1.190   8.574   3.628 -0.3237 -0.4672 -0.6967
36723SOL    HW113571   1.212   8.651   3.681  0.7856 -0.4399 -1.1832
36723SOL    HW213572   1.147   8.610   3.550  1.3058 -0.2304 -1.5088
36724SOL     OW13573   6.843   2.848   6.029 -0.1835  0.5987  0.2154
36724SOL    HW113574   6.888   2.781   6.082  0.6502 -0.2556 -1.5094
36724SOL    HW213575   6.902   2.923   6.031  0.7723 -0.0887 -1.0093
36725SOL     OW13576   6.986   0.596   4.075  0.0370 -0.2059 -0.2904
36725SOL    HW113577   6.958   0.557   3.993  1.1816 -1.2394 -0.2248
36725SOL    HW213578   6.906   0.600   4.128 -0.5234 -0.4272 -1.0930
36726SOL     OW13579   8.509  10.226   2.025  0.2250 -0.3773 -0.1538
36726SOL    HW113580   8.495  10.147   1.974 -1.4834  0.3221 -0.8270
36726SOL    HW213581   8.491  10.199   2.115 -2.4646 -0.3136 -0.6143
36727SOL     OW13582  10.394   9.982   9.644 -0.4718 -0.0713  0.2051
36727SOL    HW113583  10.475   9.938   9.618 -2.0960 -1.7611 -2.5490
36727SOL    HW213584  10.359   9.929   9.716  0.1744 -0.1477  0.4660
36728SOL     OW13585   5.304   2.964   9.801 -0.0480 -0.3437 -0.2946
36728SOL    HW113586   5.307   2.888   9.743  0.8000  0.0576 -0.8014
36728SOL    HW213587   5.384   3.013   9.780  0.5178 -0.4071  1.5340
36729SOL     OW13588   3.135   1.099   9.027  0.4616  0.1055 -0.0516
36729SOL    HW113589   3.069   1.070   8.965  0.6640 -0.7939  0.1357
36729SOL    HW213590   3.191   1.022   9.041  1.1427  0.6490  0.3069
36730SOL     OW13591   5.599   6.357   3.706  0.1064 -0.0056 -0.3290
36730SOL    HW113592   5.552   6.274   3.698 -0.3826  0.2092  0.1707
36730SOL    HW213593   5.647   6.349   3.788 -1.6900  1.0185  0.8934
36731SOL     OW13594  10.382   1.355   0.204  0.1284  0.7884  0.1471
36731SOL    HW113595  10.423   1.403   0.275  1.9812  0.5514 -0.6949
36731SOL    HW213596  10.405   1.263   0.220 -1.8500  0.3533  0.7552
36732SOL     OW13597   9.321   8.160   2.338  0.2076 -0.4320  0.7747
36732SOL    HW113598   9.284   8.219   2.272 -0.4370 -0.3200  1.2259
36732SOL    HW213599   9.394   8.209   2.375  0.8203 -0.6488 -0.1213
36733SOL     OW13600   7.116  10.741   9.793  1.1500 -0.6313 -0.0447
36733SOL    HW113601   7.047  10.781   9.847  0.1346 -2.2339 -0.0951
36733SOL    HW213602   7.132  10.804   9.724 -0.0504 -0.0757  0.1553
36734SOL     OW13603   2.997   8.002   5.019  0.1031 -0.7594  0.3153
36734SOL    HW113604   2.943   7.925   5.001  0.1528 -0.7213 -0.0066
36734SOL    HW213605   3.086   7.968   5.020  0.1731 -0.6159 -0.3908
36735SOL     OW13606   3.214   9.174   8.927 -0.5825  0.0492 -0.0884
36735SOL    HW113607   3.188   9.233   8.997  0.1177 -0.5561  0.6963
36735SOL    HW213608   3.153   9.100   8.934  0.5463 -0.8202  1.0070
36736SOL     OW13609   4.635   9.305   9.745 -0.0729 -0.2183 -0.1870
36736SOL    HW113610   4.640   9.215   9.715 -0.1588 -0.3438  0.1713
36736SOL    HW213611   4.604   9.354   9.669  0.3401 -0.4319 -0.4908
36737SOL     OW13612   0.976   5.915   5.298  0.3197  0.0333  0.1289
36737SOL    HW113613   1.039   5.862   5.346  0.0347  0.9560  1.6145
36737SOL    HW213614   0.929   5.963   5.367  0.7142  2.3745 -1.1254
36738SOL     OW13615   4.311   7.940   7.091  0.3597 -0.6024 -0.0924
36738SOL    HW113616   4.371   8.012   7.075  0.7573 -1.3671 -2.4052
36738SOL    HW213617   4.238   7.956   7.032  0.2697 -1.8580 -0.3435
36739SOL     OW13618   7.125   9.926   7.200  0.1780 -0.3732 -0.3158
36739SOL    HW113619   7.103   9.834   7.190 -0.6568 -0.0188 -2.1406
36739SOL    HW213620   7.058   9.962   7.258  1.0437 -1.0638  1.1718
36740SOL     OW13621  10.820   6.367   6.454  0.4065  0.9497 -0.6948
36740SOL    HW113622  10.815   6.296   6.390  0.2154  1.7126 -1.5444
36740SOL    HW213623  10.738   6.363   6.502  0.3461  0.6697 -0.8219
36741SOL     OW13624   3.303   5.119   5.587  0.2721 -0.0044  0.4495
36741SOL    HW113625   3.306   5.064   5.509 -1.5069 -0.6674  0.7953
36741SOL    HW213626   3.312   5.057   5.660  0.5701  0.4503  0.8013
36742SOL     OW13627   3.523   3.999   4.224 -0.6560 -0.4791  0.1079
36742SOL    HW113628   3.465   3.945   4.278  0.5293  0.3328  2.3252
36742SOL    HW213629   3.526   4.083   4.270 -2.1329  1.4646 -2.9870
36743SOL     OW13630   8.975   1.395   9.373  0.1055  0.2113 -0.0208
36743SOL    HW113631   9.030   1.376   9.297 -0.4291  1.7915 -0.8552
36743SOL    HW213632   8.894   1.430   9.336  0.3718  2.3535  1.2587
36744SOL     OW13633   7.670   3.000   0.055 -0.2100  0.0963 -0.0176
36744SOL    HW113634   7.598   2.942   0.081 -0.4177 -0.2255 -1.2169
36744SOL    HW213635   7.627   3.082   0.032 -0.3216 -0.3498 -1.5137
36745SOL     OW13636   5.392   0.690   3.481  0.5459  0.6087 -0.2416
36745SOL    HW113637   5.338   0.751   3.432 -0.0692 -0.6474 -1.1992
36745SOL    HW213638   5.344   0.677   3.563 -0.1307  0.2460 -0.6811
36746SOL     OW13639   0.477   1.647   8.409 -0.5634 -0.4541 -0.2805
36746SOL    HW113640   0.536   1.691   8.347 -0.5970 -0.5246 -0.3627
36746SOL    HW213641   0.404   1.708   8.419  1.0236  1.2202  2.3893
36747SOL     OW13642   2.259  10.239   3.111  0.1172  0.0683  0.3732
36747SOL    HW113643   2.295  10.328   3.113 -0.4948  0.3204  0.4352
36747SOL    HW213644   2.335  10.183   3.100  0.3786  0.7125 -1.4864
36748SOL     OW13645  10.770   2.607   8.809 -0.2623  0.1295  0.0954
36748SOL    HW113646  10.825   2.554   8.751  1.7509  1.4692  0.6838
36748SOL    HW213647  10.752   2.549   8.883  1.5482  0.0783  0.5346
36749SOL     OW13648  10.576   1.231   9.141  0.2028 -0.8917 -0.0241
36749SOL    HW113649  10.628   1.287   9.084  1.7713 -1.1332  1.0825
36749SOL    HW213650  10.548   1.289   9.212 -0.3191 -0.9663 -0.1642
36750SOL     OW13651   4.034   6.324   4.460  0.3653  0.1013 -0.1762
36750SOL    HW113652   3.979   6.278   4.524 -0.7484  0.1363 -1.0842
36750SOL    HW213653   4.043   6.262   4.387  1.7786 -0.0096  0.0665
36751SOL     OW13654  10.152  10.551   6.214  0.2761  0.0519 -0.2638
36751SOL    HW113655  10.063  10.523   6.234  0.5162  1.1432  2.8965
36751SOL    HW213656  10.144  10.645   6.197  0.6403 -0.1473 -1.6221
36752SOL     OW13657   2.375   2.877   3.516 -0.6881  0.0074 -0.6544
36752SOL    HW113658   2.444   2.929   3.556 -0.8718  0.1952 -0.5736
36752SOL    HW213659   2.376   2.903   3.424 -3.1604  2.9722 -0.0249
36753SOL     OW13660   5.211   6.540   1.771  0.1695 -0.2867 -0.0361
36753SOL    HW113661   5.252   6.562   1.688  1.3635 -0.3766  0.5192
36753SOL    HW213662   5.265   6.470   1.807  0.4330  0.6349  1.4250
36754SOL     OW13663   2.164   8.058   4.190  0.2028  0.3780 -0.1815
36754SOL    HW113664   2.104   8.133   4.201  0.1783  0.4400 -0.7145
36754SOL    HW213665   2.244   8.085   4.234 -0.7355 -0.4300  2.1976
36755SOL     OW13666   1.672   3.431   4.134  0.1226  0.3832 -0.0967
36755SOL    HW113667   1.703   3.424   4.224 -1.2662  0.3118  0.4008
36755SOL    HW213668   1.606   3.363   4.126  1.0883 -0.4491 -1.5715
36756SOL     OW13669   5.758   2.295   0.699 -0.1425 -0.2704  0.1961
36756SOL    HW113670   5.798   2.286   0.786  2.4649  0.0812 -0.8707
36756SOL    HW213671   5.771   2.209   0.658 -3.6920 -1.3211  0.9365
36757SOL     OW13672   1.638   1.974   8.144  0.1294  0.0396  0.2541
36757SOL    HW113673   1.587   1.926   8.079  2.2262  0.0732 -1.5040
36757SOL    HW213674   1.596   2.060   8.149  0.6335  0.4850 -2.0568
36758SOL     OW13675   7.334   0.831   4.939  0.7146  0.5640  0.2142
36758SOL    HW113676   7.241   0.817   4.923  0.8519 -2.5262  1.2529
36758SOL    HW213677   7.367   0.872   4.860 -1.0047 -1.3435 -1.6172
36759SOL     OW13678   4.585   6.702   2.911 -0.1883 -0.1775 -0.7688
36759SOL    HW113679   4.643   6.717   2.836 -0.8981  1.1213 -1.0818
36759SOL    HW213680   4.630   6.744   2.984 -0.7612  0.9318 -1.0350
36760SOL     OW13681   4.501   0.889   8.643 -0.1628  0.0795  0.3749
36760SOL    HW113682   4.590   0.920   8.623  0.2674 -0.8120  0.8572
36760SOL    HW213683   4.502   0.796   8.621 -0.1256 -0.6048  2.8755
36761SOL     OW13684   8.314   0.746   1.763 -0.7200 -0.1538 -0.3283
36761SOL    HW113685   8.362   0.778   1.839 -1.1703 -1.3523  0.4956
36761SOL    HW213686   8.355   0.790   1.689  1.2008 -0.6023  0.3921
36762SOL     OW13687   1.693   7.582   1.372 -0.1540 -0.0963  0.3568
36762SOL    HW113688   1.669   7.674   1.359  0.7854  0.0585 -0.3970
36762SOL    HW213689   1.787   7.579   1.357 -0.3958 -1.4303 -1.2014
36763SOL     OW13690  10.531   6.266   9.966  0.2516 -0.4974 -0.1100
36763SOL    HW113691  10.528   6.353  10.005 -1.7964 -0.1328 -0.9921
36763SOL    HW213692  10.542   6.207  10.041  0.7231  0.4479  0.5833
36764SOL     OW13693   9.670   5.966   0.103  0.2895 -0.1903  0.1004
36764SOL    HW113694   9.692   5.975   0.010  1.6877 -0.8093  0.3504
36764SOL    HW213695   9.675   5.872   0.119  0.3915 -0.0527  0.8816
36765SOL     OW13696   6.945   1.730   8.205  0.2163  0.1272  0.0303
36765SOL    HW113697   6.976   1.807   8.158 -1.3265  0.3720 -0.6653
36765SOL    HW213698   6.976   1.655   8.153 -0.9601  0.3814 -1.1044
36766SOL     OW13699   0.059   3.996   7.354 -0.1071 -0.1076  0.4022
36766SOL    HW113700   0.021   3.954   7.432 -0.6018 -0.1201  0.1558
36766SOL    HW213701   0.039   3.936   7.282 -1.6274  0.9465 -0.1195
36767SOL     OW13702   3.623   9.985   3.585 -0.0703  0.6050 -0.6130
36767SOL    HW113703   3.539  10.006   3.624  0.4804  0.2794  0.8154
36767SOL    HW213704   3.601   9.930   3.509 -1.1284  0.0852  0.0423
36768SOL     OW13705  10.850   8.754   7.453 -0.5026  0.0988  0.6390
36768SOL    HW113706  10.769   8.705   7.462 -1.8024  2.1857  0.8287
36768SOL    HW213707  10.902   8.728   7.529 -1.9711  0.4773  1.8203
36769SOL     OW13708   4.685  10.344   9.432  0.1302  0.0891 -0.1157
36769SOL    HW113709   4.651  10.430   9.407 -0.7070 -0.0142  0.6089
36769SOL    HW213710   4.766  10.364   9.479  0.3358  0.4308 -0.6052
36770SOL     OW13711   1.894   9.409   2.725 -0.6325 -0.0997  0.3126
36770SOL    HW113712   1.823   9.366   2.771 -1.2171  0.7217  0.1944
36770SOL    HW213713   1.882   9.503   2.743 -1.1243  0.2973 -1.8219
36771SOL     OW13714   4.234  10.816   0.734 -0.7505  0.2749 -0.5126
36771SOL    HW113715   4.184  10.757   0.677  0.3019 -0.0131 -1.1831
36771SOL    HW213716   4.322  10.777   0.736 -0.0994  1.6840 -0.7823
36772SOL     OW13717   4.834   4.585   5.449  0.8320  0.3683 -0.0811
36772SOL    HW113718   4.821   4.490   5.453 -1.4521  0.6552  0.7881
36772SOL    HW213719   4.900   4.603   5.515  0.8341 -0.5600  0.1887
36773SOL     OW13720   1.148   7.920   1.692 -0.6646 -0.3388 -0.1357
36773SOL    HW113721   1.182   7.841   1.649  0.4945  0.8254 -1.4096
36773SOL    HW213722   1.147   7.987   1.624 -0.1063  1.2041  1.3090
36774SOL     OW13723   9.533   2.490   3.548 -0.0868  0.3361  0.2870
36774SOL    HW113724   9.511   2.557   3.613  0.6805  0.1180  0.7844
36774SOL    HW213725   9.528   2.535   3.464  2.5208  1.6463  0.7190
36775SOL     OW13726   0.834   4.646   4.493 -0.2276  0.2605 -0.3162
36775SOL    HW113727   0.837   4.711   4.422  0.2356  1.2186  0.5580
36775SOL    HW213728   0.803   4.694   4.569 -2.5558 -1.1795 -0.2605
36776SOL     OW13729   5.415   4.083   5.087  0.3358  0.4649  0.4261
36776SOL    HW113730   5.489   4.025   5.105 -0.6227 -1.0634 -0.2838
36776SOL    HW213731   5.416   4.093   4.992  0.2851  1.3471  0.5154
36777SOL     OW13732   5.443  10.055   6.505  0.0068  1.2067 -0.1445
36777SOL    HW113733   5.417  10.007   6.584  0.9452 -1.0854 -1.1475
36777SOL    HW213734   5.362  10.065   6.455  0.1244 -1.7957 -1.1269
36778SOL     OW13735   3.719   2.030   1.496  0.2551  0.5266 -0.0500
36778SOL    HW113736   3.775   2.091   1.448  1.7025 -1.0150 -0.3787
36778SOL    HW213737   3.641   2.022   1.441 -1.7795  4.8404  1.7042
36779SOL     OW13738   0.443   4.314   2.204 -0.1943  0.0471 -0.1701
36779SOL    HW113739   0.479   4.351   2.124 -0.6297 -0.7362 -0.7462
36779SOL    HW213740   0.505   4.337   2.272  0.3199  0.4957 -0.7842
36780SOL     OW13741   8.178  10.247   4.911  0.3112 -0.3404 -0.3194
36780SOL    HW113742   8.226  10.311   4.860  0.9828  0.2661  1.0227
36780SOL    HW213743   8.107  10.296   4.952  2.2416  0.2058  2.6847
36781SOL     OW13744   7.326   2.633   9.971  0.3683 -0.0991  0.5198
36781SOL    HW113745   7.419   2.648   9.985  1.0710  0.9637 -3.7065
36781SOL    HW213746   7.282   2.677  10.044  3.1022 -0.3067  2.4077
36782SOL     OW13747   3.531   5.764   5.652  0.2035  0.2800 -0.1704
36782SOL    HW113748   3.474   5.707   5.601  0.7658 -0.0309 -0.4474
36782SOL    HW213749   3.608   5.712   5.671  1.2568  1.2977 -1.4298
36783SOL     OW13750   3.967   0.036   5.335 -0.9590  0.0146  0.5015
36783SOL    HW113751   3.979   0.120   5.292 -0.7901 -1.1597 -1.9614
36783SOL    HW213752   4.051  -0.008   5.325 -1.1147 -0.5590  1.5411
36784SOL     OW13753   9.079   0.659   0.066 -0.0320 -0.2590 -0.0382
36784SOL    HW113754   9.018   0.715   0.017  0.6083 -0.1974 -0.7883
36784SOL    HW213755   9.062   0.571   0.033  1.1944 -0.0797 -1.2770
36785SOL     OW13756  10.544   7.303   1.393 -0.6812 -0.4538 -0.6268
36785SOL    HW113757  10.544   7.207   1.385 -0.2863 -0.3733 -1.7916
36785SOL    HW213758  10.566   7.334   1.305 -1.6863  0.7294 -0.4904
36786SOL     OW13759   6.423   2.182   1.396 -0.8587 -0.3937 -0.5783
36786SOL    HW113760   6.447   2.149   1.309 -0.1266 -0.1978 -0.4533
36786SOL    HW213761   6.505   2.215   1.433 -0.5325 -3.0412  1.3455
36787SOL     OW13762   2.191   0.138   3.381 -0.0058  0.1203 -0.3123
36787SOL    HW113763   2.171   0.183   3.298 -0.9817 -0.5156 -0.4367
36787SOL    HW213764   2.107   0.104   3.410  0.6215 -1.1586  0.0634
36788SOL     OW13765   8.837   3.739  10.195 -0.5895  0.2220  0.1404
36788SOL    HW113766   8.848   3.689  10.114 -0.5151 -0.5947  0.6381
36788SOL    HW213767   8.765   3.695  10.240 -1.7783  1.6975 -0.2347
36789SOL     OW13768   4.410   5.613   7.603 -0.3400 -0.2468 -0.4831
36789SOL    HW113769   4.473   5.551   7.640 -1.6673 -0.7056  1.1189
36789SOL    HW213770   4.432   5.617   7.510  3.9057  1.7897  0.3479
36790SOL     OW13771   8.345   6.659   7.991  0.5762  0.9411  0.0742
36790SOL    HW113772   8.281   6.658   7.920 -0.0441 -0.0915  0.6178
36790SOL    HW213773   8.298   6.621   8.065  1.9075 -0.0821  0.4206
36791SOL     OW13774   0.415   7.476   9.050  0.2248 -0.2497  0.1852
36791SOL    HW113775   0.320   7.466   9.044  0.2314  0.4734 -1.8543
36791SOL    HW213776   0.439   7.434   9.133 -1.6352 -1.9939 -0.1056
36792SOL     OW13777   2.197   9.954   4.239  0.0088 -0.1082 -0.0706
36792SOL    HW113778   2.126   9.890   4.248 -0.2066  0.3619  1.8348
36792SOL    HW213779   2.269   9.917   4.291  0.2462  0.6872  0.1762
36793SOL     OW13780   1.330   2.942   1.858  0.3406  0.3052  0.0116
36793SOL    HW113781   1.259   2.909   1.914 -0.8696  1.2677 -0.9199
36793SOL    HW213782   1.336   3.035   1.879  0.9185  0.3634 -0.3807
36794SOL     OW13783  10.905  10.601   9.793  0.7431  0.2022 -0.2292
36794SOL    HW113784  10.951  10.645   9.722 -1.3658 -0.2031 -1.9354
36794SOL    HW213785  10.821  10.645   9.799  0.9331  0.3668  2.2230
36795SOL     OW13786   3.976   2.353   8.106 -0.0296 -0.3831 -0.0024
36795SOL    HW113787   4.030   2.431   8.118 -1.8077  0.8457  0.4387
36795SOL    HW213788   4.038   2.281   8.103  1.8058  1.1556 -1.9408
36796SOL     OW13789   4.254   2.130   8.403 -0.2388  0.9740 -0.1373
36796SOL    HW113790   4.301   2.049   8.422  0.0414  0.7808 -1.5529
36796SOL    HW213791   4.163   2.112   8.426 -0.3741 -0.1161 -1.4155
36797SOL     OW13792   6.876  10.420   0.300 -0.5236 -0.0467 -0.6179
36797SOL    HW113793   6.885  10.442   0.208 -0.4784  0.1505 -0.5668
36797SOL    HW213794   6.885  10.504   0.346 -0.8621 -0.0991 -0.4543
36798SOL     OW13795   0.401   6.994   0.971 -0.1805 -0.1053  0.5995
36798SOL    HW113796   0.388   7.087   0.989 -1.1406 -0.2770  0.8459
36798SOL    HW213797   0.342   6.976   0.897  0.2476 -0.4466  0.3402
36799SOL     OW13798  10.360  10.244   9.827 -0.2767  0.4293  0.2900
36799SOL    HW113799  10.346  10.230   9.921 -0.5268 -1.1891  0.0468
36799SOL    HW213800  10.426  10.313   9.822  1.1074 -0.7100  1.7089
36800SOL     OW13801   3.894   4.619   5.865 -0.1499  0.3917 -0.0370
36800SOL    HW113802   3.940   4.538   5.887  0.7355 -0.3358 -3.9258
36800SOL    HW213803   3.964   4.684   5.855 -0.3391  0.3879 -1.6180
36801SOL     OW13804   8.898   6.985   1.217 -0.7199 -0.0648  0.4613
36801SOL    HW113805   8.819   7.015   1.261 -0.4114 -1.1268  1.7988
36801SOL    HW213806   8.954   6.951   1.287  0.0214 -1.3162 -0.6704
36802SOL     OW13807  10.316   3.838   3.790 -0.8415 -0.0684  0.3138
36802SOL    HW113808  10.397   3.886   3.771  0.4475 -1.7314  1.3681
36802SOL    HW213809  10.287   3.874   3.874 -1.7786  1.2118 -0.5237
36803SOL     OW13810   6.710   0.271   5.284 -0.4653 -0.4679  0.0037
36803SOL    HW113811   6.650   0.346   5.289 -0.1756 -0.2211 -0.1790
36803SOL    HW213812   6.682   0.223   5.206 -0.8364 -0.7114  0.2855
36804SOL     OW13813   4.743   5.766   7.957  0.1110  0.0052 -0.4571
36804SOL    HW113814   4.754   5.689   7.901  0.7709 -0.2416 -0.0152
36804SOL    HW213815   4.832   5.786   7.986 -0.1638  0.4121  0.1147
36805SOL     OW13816  10.786   0.909   6.381  0.5459  0.6472 -0.1761
36805SOL    HW113817  10.821   0.969   6.314 -0.7019 -1.4772 -2.9629
36805SOL    HW213818  10.861   0.855   6.406  0.7211  0.4688 -1.0471
36806SOL     OW13819   3.752   1.603   4.240  1.0075 -0.0414  0.2215
36806SOL    HW113820   3.815   1.531   4.231  1.9141  0.4936  1.8260
36806SOL    HW213821   3.666   1.561   4.231  1.5060 -1.4301  1.5055
36807SOL     OW13822   9.066   3.630   8.958  0.5032  0.2211 -0.4539
36807SOL    HW113823   8.972   3.646   8.971  0.7521  0.8187  0.8115
36807SOL    HW213824   9.109   3.697   9.013  1.6575 -0.3309 -0.6649
36808SOL     OW13825   8.847   3.960   3.329  0.4522  0.2319 -0.1303
36808SOL    HW113826   8.798   3.880   3.308  0.8765 -0.2138  0.5436
36808SOL    HW213827   8.931   3.949   3.283  0.6996  0.0640  0.3594
36809SOL     OW13828   0.393   5.335   2.620  0.4014 -0.2242  0.4563
36809SOL    HW113829   0.389   5.271   2.549  1.2010  1.3812 -1.1268
36809SOL    HW213830   0.486   5.344   2.639  0.4757  1.6833 -0.5807
36810SOL     OW13831   3.265   2.969   5.473 -0.7024 -0.4045  0.1409
36810SOL    HW113832   3.355   2.978   5.440 -0.8263  0.4165  0.0156
36810SOL    HW213833   3.275   2.970   5.568 -0.6538  0.6239  0.1390
36811SOL     OW13834   8.804   9.995   9.660  0.2193  0.2183 -0.3218
36811SOL    HW113835   8.856   9.966   9.585  1.0626  1.0156 -0.0624
36811SOL    HW213836   8.810  10.091   9.658 -1.1217  0.3287 -0.1918
36812SOL     OW13837   3.803   1.456   8.751 -0.3057 -0.0269  0.1865
36812SOL    HW113838   3.850   1.494   8.676 -0.2828  0.6778  0.5576
36812SOL    HW213839   3.860   1.385   8.780 -0.3304 -0.3342 -0.4826
36813SOL     OW13840   9.498   0.780   6.211  0.6149 -0.1775 -0.4033
36813SOL    HW113841   9.517   0.780   6.305 -0.5196 -1.1055 -0.1481
36813SOL    HW213842   9.486   0.872   6.189 -0.0740 -0.0151  0.5700
36814SOL     OW13843   2.258   4.121   2.708  0.1183 -0.2141  0.5109
36814SOL    HW113844   2.328   4.087   2.653  0.2997  0.1806  0.4933
36814SOL    HW213845   2.220   4.043   2.750  1.8431 -0.2951  2.0394
36815SOL     OW13846   5.578   6.836   6.670 -0.3074 -0.2976 -0.0333
36815SOL    HW113847   5.571   6.760   6.612 -1.4787  1.0309 -1.7350
36815SOL    HW213848   5.645   6.891   6.630 -0.4668  0.2088  0.3876
36816SOL     OW13849   1.668   9.463   5.591  0.8328  0.0986 -0.2441
36816SOL    HW113850   1.746   9.432   5.544  0.9064  1.3537 -1.0103
36816SOL    HW213851   1.608   9.389   5.590  2.2090 -1.0826  0.8546
36817SOL     OW13852   9.072   5.151   0.280 -0.3805  0.4993 -0.0839
36817SOL    HW113853   9.121   5.071   0.298 -0.8145  0.3235  0.2999
36817SOL    HW213854   9.099   5.175   0.191 -1.1724 -0.7450 -0.6830
36818SOL     OW13855   7.743  10.463   3.217 -0.1847  0.2358 -0.2624
36818SOL    HW113856   7.782  10.405   3.282 -1.4406  0.7248  0.9650
36818SOL    HW213857   7.817  10.515   3.184  0.4817 -0.0233  0.7713
36819SOL     OW13858   8.186   1.821   6.525  0.7765 -0.1909  0.2218
36819SOL    HW113859   8.188   1.917   6.520 -1.4496 -0.0320  1.3913
36819SOL    HW213860   8.277   1.797   6.542  1.6977  1.5497 -1.7236
36820SOL     OW13861   4.865   1.455   5.130 -0.8828  0.7042 -0.4452
36820SOL    HW113862   4.794   1.514   5.154 -0.5654  1.4613 -1.2814
36820SOL    HW213863   4.826   1.393   5.068 -1.3493 -0.3339  0.8515
36821SOL     OW13864   7.115   8.327  10.412 -0.0515 -0.1722  0.3886
36821SOL    HW113865   7.193   8.288  10.451  0.4152 -0.4758 -0.8072
36821SOL    HW213866   7.117   8.299  10.321 -0.5677  1.3316 -0.1185
36822SOL     OW13867   8.806   5.279   7.811  0.3880  0.6738 -1.0020
36822SOL    HW113868   8.857   5.298   7.890 -1.0411  1.4460 -0.2129
36822SOL    HW213869   8.757   5.359   7.795 -1.7712 -0.5238 -0.7576
36823SOL     OW13870   0.942   6.512   3.466 -0.3960  0.8412 -0.4096
36823SOL    HW113871   1.002   6.582   3.439  1.8558 -0.7243  0.2867
36823SOL    HW213872   0.979   6.479   3.548 -1.6053 -0.9203 -0.5210
36824SOL     OW13873   5.841   4.961   5.700  0.2199 -0.4744 -0.1305
36824SOL    HW113874   5.807   5.020   5.633 -0.9692 -1.1042 -0.1286
36824SOL    HW213875   5.807   4.997   5.782 -0.9308 -1.3872 -0.1733
36825SOL     OW13876   3.264   3.965   6.707 -0.2619 -0.6477 -0.1001
36825SOL    HW113877   3.311   3.918   6.638  0.0791  0.6446 -0.7836
36825SOL    HW213878   3.333   4.004   6.760 -0.5160  0.5909 -0.6357
36826SOL     OW13879   8.743   7.693   3.405  0.5434  0.5456  0.4952
36826SOL    HW113880   8.668   7.656   3.358  0.3795 -0.0339  1.1912
36826SOL    HW213881   8.820   7.659   3.359  0.3998  1.4852 -0.4883
36827SOL     OW13882   3.032   8.452   2.762 -0.0652  0.6353 -0.4726
36827SOL    HW113883   3.018   8.527   2.704 -0.0868  0.9729 -0.0322
36827SOL    HW213884   3.126   8.436   2.758  0.1922  1.6965  0.6592
36828SOL     OW13885   9.048   5.192   9.365 -0.0326 -0.0183  0.3774
36828SOL    HW113886   9.058   5.284   9.342 -0.1530  0.1013  0.7963
36828SOL    HW213887   9.129   5.169   9.411  1.6253 -1.1024 -2.8150
36829SOL     OW13888   7.276   4.430   4.787  0.4578 -0.7840  0.3149
36829SOL    HW113889   7.302   4.394   4.702  0.2435 -0.5085  0.1299
36829SOL    HW213890   7.207   4.371   4.818  1.4995 -1.7057  0.9572
36830SOL     OW13891   8.018   2.607   9.292 -0.2460 -0.6852  0.4261
36830SOL    HW113892   7.965   2.686   9.277  0.0573 -0.4457  0.5882
36830SOL    HW213893   7.962   2.549   9.343  0.0100 -0.0118  1.5092
36831SOL     OW13894   5.629   1.543   1.325 -0.0976 -0.2968 -0.5626
36831SOL    HW113895   5.584   1.503   1.251  0.8008 -3.1300  0.3203
36831SOL    HW213896   5.603   1.491   1.401 -0.0533  1.7777  0.9870
36832SOL     OW13897   9.656   2.227   9.634 -0.2415 -0.4359  0.3336
36832SOL    HW113898   9.686   2.214   9.724  1.4190 -1.2673 -0.2996
36832SOL    HW213899   9.733   2.208   9.581 -0.8274  1.2629 -1.2240
36833SOL     OW13900   6.687   9.289  10.655  0.8596  0.8008  0.1397
36833SOL    HW113901   6.681   9.194  10.652  0.3492  0.8442 -0.3665
36833SOL    HW213902   6.750   9.307  10.725 -0.9533  0.1736  2.0066
36834SOL     OW13903   1.027   5.486   9.856  0.9921  0.2462 -0.9513
36834SOL    HW113904   0.988   5.554   9.801  1.0593 -0.6158 -2.1180
36834SOL    HW213905   1.104   5.457   9.806  1.0914 -0.5135 -0.3689
36835SOL     OW13906   2.593   0.821   7.937  0.2406 -0.2711  0.0282
36835SOL    HW113907   2.533   0.892   7.958 -0.2109 -0.4773 -0.5269
36835SOL    HW213908   2.679   0.862   7.936  0.2790 -0.2017  1.9861
36836SOL     OW13909   3.579   9.801   9.176  0.3797  0.2168 -0.1741
36836SOL    HW113910   3.562   9.707   9.167  0.7277 -0.0201  1.3196
36836SOL    HW213911   3.597   9.813   9.269  0.6339  1.7282 -0.3922
36837SOL     OW13912  10.437   9.615   4.644 -0.0572  0.2996 -0.3807
36837SOL    HW113913  10.425   9.705   4.674 -1.4336 -0.4753  1.5776
36837SOL    HW213914  10.476   9.624   4.557 -1.4656  2.8166 -0.8459
36838SOL     OW13915   8.062  10.911   6.957 -0.0177  0.1851  0.0985
36838SOL    HW113916   8.055  10.829   7.005 -2.5655 -0.6716 -1.5188
36838SOL    HW213917   8.110  10.887   6.877 -1.5340  0.0168 -0.7866
36839SOL     OW13918   8.078   4.885   2.815 -0.6461  0.2864 -0.3970
36839SOL    HW113919   8.088   4.855   2.725 -1.8106  1.6445 -1.0280
36839SOL    HW213920   8.004   4.835   2.849  0.2142 -0.7106  0.0537
36840SOL     OW13921   1.328   9.987   4.410  0.4550 -0.2379 -0.0977
36840SOL    HW113922   1.250   9.945   4.445  1.5545 -0.6895  2.0253
36840SOL    HW213923   1.323  10.077   4.443  2.1484 -1.0013  2.6433
36841SOL     OW13924   1.327   0.671   3.157  0.0869  0.4686 -0.0375
36841SOL    HW113925   1.274   0.696   3.232  1.0721  1.3713  0.3947
36841SOL    HW213926   1.414   0.654   3.194  0.5642  0.8434 -0.9476
36842SOL     OW13927   5.144   2.417   0.266 -0.5460  0.2058  0.0355
36842SOL    HW113928   5.142   2.434   0.172 -1.4143  2.3878  0.3982
36842SOL    HW213929   5.215   2.472   0.299  0.5754 -1.4559  0.5553
36843SOL     OW13930   9.132   2.755   4.725  0.4329 -0.2472  0.3371
36843SOL    HW113931   9.179   2.672   4.723  0.1301 -0.4326  0.6208
36843SOL    HW213932   9.056   2.740   4.669  2.1342  0.9773 -2.5018
36844SOL     OW13933   5.023   2.176   4.594 -0.0873  0.0737 -0.0052
36844SOL    HW113934   5.112   2.151   4.566  0.5748 -0.4018  2.3515
36844SOL    HW213935   5.022   2.271   4.585  0.7460  0.1090  0.1790
36845SOL     OW13936   5.205   7.523  10.723  0.0491 -0.6931  0.3755
36845SOL    HW113937   5.290   7.523  10.766  0.5128 -0.1335 -0.4936
36845SOL    HW213938   5.217   7.467  10.646 -1.1302 -2.7539  1.5911
36846SOL     OW13939   8.571   5.273   1.138 -0.8358 -0.8599  0.1990
36846SOL    HW113940   8.613   5.277   1.052  1.3395  4.5126  1.0919
36846SOL    HW213941   8.643   5.258   1.199 -0.9042  2.5618  1.3584
36847SOL     OW13942   0.563   7.543   6.372 -0.8489 -0.1156  0.2243
36847SOL    HW113943   0.578   7.510   6.283 -0.4288 -1.0653  0.6318
36847SOL    HW213944   0.571   7.466   6.427 -0.4506  0.5828  1.1638
36848SOL     OW13945   9.822  10.806  10.437 -0.3205 -0.3270  0.0990
36848SOL    HW113946   9.735  10.846  10.434 -0.3903 -0.4936 -0.1722
36848SOL    HW213947   9.871  10.860  10.499 -0.5559 -0.1048  0.0953
36849SOL     OW13948   4.199   8.324   8.552 -0.5926  0.3523 -0.2040
36849SOL    HW113949   4.214   8.230   8.545 -0.0550  0.4567 -0.4244
36849SOL    HW213950   4.159   8.335   8.639  0.0869  0.0159  0.1542
36850SOL     OW13951   4.994   8.459   5.388  0.4927 -0.2226 -0.1721
36850SOL    HW113952   5.074   8.471   5.439 -0.8732  0.0100  2.0832
36850SOL    HW213953   4.942   8.537   5.408 -1.0592 -1.2581 -0.0305
36851SOL     OW13954  10.341   6.012   0.071 -0.1987  0.3623 -0.4095
36851SOL    HW113955  10.274   6.026   0.005 -0.6235 -1.5907 -0.4552
36851SOL    HW213956  10.324   5.924   0.105  3.0916 -0.8129 -1.3531
36852SOL     OW13957   5.426  10.238   3.020 -0.1403  0.1095 -0.2584
36852SOL    HW113958   5.332  10.218   3.017 -0.1944 -0.5251  2.8231
36852SOL    HW213959   5.434  10.321   2.972 -2.2128 -0.0003 -0.8995
36853SOL     OW13960   4.721   5.698   4.471 -0.0589  0.5524  0.0336
36853SOL    HW113961   4.804   5.709   4.517 -0.4697  3.4524  0.2828
36853SOL    HW213962   4.655   5.696   4.539 -0.3848  1.1535 -0.2530
36854SOL     OW13963   7.537   5.174   0.404 -0.0841 -0.2588  0.4422
36854SOL    HW113964   7.537   5.227   0.483  2.4712 -0.0460  0.3648
36854SOL    HW213965   7.570   5.089   0.432  1.1971 -0.0708 -0.4101
36855SOL     OW13966   1.445   1.636   1.982 -0.3450  0.2720 -0.9776
36855SOL    HW113967   1.386   1.628   2.057  0.7846 -2.5582 -0.2780
36855SOL    HW213968   1.440   1.551   1.938  2.3185  0.3240 -1.5404
36856SOL     OW13969  10.294   9.372   5.419 -0.0900 -0.2942  0.1624
36856SOL    HW113970  10.366   9.338   5.473 -0.1241  0.0828  0.4478
36856SOL    HW213971  10.245   9.294   5.393 -0.6490 -0.4133  1.4954
36857SOL     OW13972   8.262   0.890   7.585 -0.3475 -0.2100  0.0073
36857SOL    HW113973   8.310   0.922   7.508  0.1128 -3.1912 -1.0968
36857SOL    HW213974   8.172   0.916   7.570  0.0956  1.1837 -0.3934
36858SOL     OW13975   8.188   0.829   4.653 -0.0409 -0.3246  0.4746
36858SOL    HW113976   8.099   0.813   4.683 -1.0988  1.8885 -1.2324
36858SOL    HW213977   8.178   0.864   4.564  2.5564 -0.2857  0.1145
36859SOL     OW13978  10.172   9.130   7.401 -0.0568 -0.0805 -0.3576
36859SOL    HW113979  10.156   9.174   7.318 -0.6375 -2.1865 -1.4356
36859SOL    HW213980  10.267   9.137   7.414 -0.2872  3.0777  0.5540
36860SOL     OW13981   9.685  10.881   6.839  0.4267  0.1610 -0.6454
36860SOL    HW113982   9.692  10.962   6.889  0.2938 -0.3404  0.2176
36860SOL    HW213983   9.770  10.871   6.797  0.5438  0.5934 -0.5178
36861SOL     OW13984   6.621   2.778   6.655 -0.8425 -0.2114  0.4140
36861SOL    HW113985   6.664   2.824   6.583  0.3946  0.7035  1.6900
36861SOL    HW213986   6.597   2.693   6.618 -0.0791  0.1716 -1.0295
36862SOL     OW13987   7.680  10.905   1.215  0.4501 -0.7037 -0.0903
36862SOL    HW113988   7.697  10.995   1.243 -0.3020 -0.9738  1.2806
36862SOL    HW213989   7.766  10.862   1.218  0.5372 -0.4763  0.9272
36863SOL     OW13990  10.333   1.250   5.929  0.0563 -0.5323  0.1445
36863SOL    HW113991  10.321   1.243   5.834 -0.7424 -1.3059  0.2951
36863SOL    HW213992  10.333   1.160   5.960 -1.0279 -0.2361  1.0407
36864SOL     OW13993   7.870   1.017   3.929 -0.3828  0.0828  0.9076
36864SOL    HW113994   7.833   0.934   3.898  0.3396  0.2455 -0.4475
36864SOL    HW213995   7.793   1.073   3.943 -0.7308  0.6159 -2.4628
36865SOL     OW13996   3.223   1.791   8.567  0.1845 -0.0247 -0.6070
36865SOL    HW113997   3.177   1.860   8.520 -0.0594  1.7601  2.0101
36865SOL    HW213998   3.153   1.737   8.604  0.3743 -1.6157 -2.4389
36866SOL     OW13999   0.174   3.394   9.299 -0.1299 -0.7804 -0.5848
36866SOL    HW114000   0.223   3.468   9.335  0.4420 -0.8400 -1.2336
36866SOL    HW214001   0.089   3.431   9.276 -0.8318 -0.8968  1.5391
36867SOL     OW14002  10.016   2.734   8.511  0.8504  0.3808  0.1275
36867SOL    HW114003   9.955   2.804   8.532  1.0391  1.2151 -1.8636
36867SOL    HW214004   9.962   2.656   8.501  0.5245  0.4190  1.3918
36868SOL     OW14005   2.624   8.825   4.394 -0.4124 -0.2921 -0.0591
36868SOL    HW114006   2.529   8.835   4.390 -0.6843 -1.2651  2.0985
36868SOL    HW214007   2.637   8.734   4.424  1.2671 -0.6941 -1.8254
36869SOL     OW14008   7.212   0.853   9.841  0.2050 -0.0186  0.5525
36869SOL    HW114009   7.132   0.808   9.866 -0.5143  1.5808  1.1822
36869SOL    HW214010   7.212   0.849   9.745 -0.2572 -0.6237  0.5691
36870SOL     OW14011   8.184   9.145   3.494 -0.0649 -1.4815 -0.5005
36870SOL    HW114012   8.195   9.102   3.579 -1.0941 -0.6863  0.0558
36870SOL    HW214013   8.230   9.228   3.502 -3.1457  0.2997  0.6511
36871SOL     OW14014   3.254   5.477  10.453 -0.8783  0.0227  0.8586
36871SOL    HW114015   3.204   5.501  10.375 -1.1754 -0.4638  0.8910
36871SOL    HW214016   3.302   5.398  10.427  0.1577  0.6874  0.7184
36872SOL     OW14017   3.222   4.519   9.941 -1.1732 -0.3733  0.4164
36872SOL    HW114018   3.214   4.574   9.862 -1.1010 -0.1809  0.5423
36872SOL    HW214019   3.273   4.573  10.002 -1.6720 -0.3115  0.7830
36873SOL     OW14020   1.116   5.013   1.438  0.0441 -0.1425 -0.0256
36873SOL    HW114021   1.058   5.085   1.415  0.0079  0.8092  2.6187
36873SOL    HW214022   1.057   4.938   1.451 -0.2702  0.0911 -0.0835
36874SOL     OW14023   8.185   9.386   9.979  0.5779  0.0622 -0.1652
36874SOL    HW114024   8.200   9.450  10.049  0.4183  0.7624 -0.7651
36874SOL    HW214025   8.259   9.397   9.920 -0.0550  0.5405 -0.8967
36875SOL     OW14026   8.247   9.694   5.375  0.4780  0.2404  0.5107
36875SOL    HW114027   8.204   9.769   5.416  2.4297  1.6561  0.1038
36875SOL    HW214028   8.183   9.662   5.311 -0.7826  0.8864  1.3999
36876SOL     OW14029   8.674   4.058  10.084  0.8787 -0.1456 -0.5272
36876SOL    HW114030   8.715   3.991  10.138 -0.2615 -0.1659  0.3362
36876SOL    HW214031   8.580   4.048  10.100  0.5220  0.1071 -2.2060
36877SOL     OW14032   4.238   0.418   1.806  0.0085 -0.0115  0.2299
36877SOL    HW114033   4.171   0.433   1.739  0.5060 -0.6391 -0.4206
36877SOL    HW214034   4.212   0.474   1.879 -1.0838 -0.0531 -0.1133
36878SOL     OW14035   2.945   3.231  10.514  0.3914 -0.4940  0.6739
36878SOL    HW114036   2.978   3.263  10.598  0.5587  1.2509 -0.0222
36878SOL    HW214037   2.877   3.168  10.538  0.9045 -0.5510  2.1112
36879SOL     OW14038   3.340   3.940   3.897 -0.4052 -0.2851 -0.2489
36879SOL    HW114039   3.323   3.953   3.990  0.0317  0.5679 -0.2780
36879SOL    HW214040   3.383   3.855   3.892  2.1345  0.8359  0.6818
36880SOL     OW14041   5.950   8.916   3.103 -0.2396  0.9315 -0.5817
36880SOL    HW114042   5.903   8.936   3.184  1.9069  0.5253  0.8429
36880SOL    HW214043   5.973   8.823   3.111 -1.1679  0.5005 -2.3389
36881SOL     OW14044   0.148   0.228   3.845 -0.1124 -0.0428  0.1517
36881SOL    HW114045   0.163   0.291   3.916  0.7646 -0.0084 -0.0515
36881SOL    HW214046   0.207   0.256   3.775 -1.3087  0.2085 -0.7880
36882SOL     OW14047   8.052   4.561   5.913 -0.0814  0.9222  0.5915
36882SOL    HW114048   8.047   4.623   5.840 -0.2272 -0.2501 -0.4436
36882SOL    HW214049   7.962   4.553   5.944 -0.7038 -1.1773 -1.4430
36883SOL     OW14050   5.448   3.018   4.439  0.1595 -0.1581  0.3009
36883SOL    HW114051   5.501   3.073   4.496  1.0961  0.2232 -0.9056
36883SOL    HW214052   5.502   2.941   4.423 -0.5972 -0.8327  0.8924
36884SOL     OW14053   7.898   9.321   4.159  0.4154  0.3800 -0.1022
36884SOL    HW114054   7.853   9.327   4.075  1.0984  0.7666 -0.4420
36884SOL    HW214055   7.895   9.410   4.195  1.7031  0.6203 -0.5476
36885SOL     OW14056   3.858   0.393   9.556  0.6792 -0.6988 -0.0593
36885SOL    HW114057   3.924   0.431   9.498  1.6960 -0.9893  0.8909
36885SOL    HW214058   3.908   0.353   9.627 -0.5528  0.0839  1.3035
36886SOL     OW14059   6.390   1.329   5.539 -0.8218 -0.1951 -0.5266
36886SOL    HW114060   6.354   1.274   5.610  2.4460 -2.1687 -0.1790
36886SOL    HW214061   6.348   1.296   5.460  1.2299 -3.7367 -0.3825
36887SOL     OW14062   5.120   0.342   8.088 -0.0861  0.5734  0.2283
36887SOL    HW114063   5.114   0.402   8.163  1.3044 -0.8293  1.5142
36887SOL    HW214064   5.103   0.256   8.125  2.5197 -0.4036 -0.6445
36888SOL     OW14065   4.341   2.735   3.951 -0.0379 -0.4257 -0.0146
36888SOL    HW114066   4.326   2.795   4.024  3.7863 -0.1997  0.7620
36888SOL    HW214067   4.313   2.650   3.984  0.8869 -0.1953  1.4663
36889SOL     OW14068   1.403   6.515   9.804 -0.6340  0.0627  0.7799
36889SOL    HW114069   1.447   6.450   9.750 -0.4500 -0.2851  1.3451
36889SOL    HW214070   1.324   6.472   9.835 -1.0626  0.4744  0.2843
36890SOL     OW14071   9.549   4.177   1.001 -1.0262  0.0819 -0.3736
36890SOL    HW114072   9.601   4.101   0.976 -0.2281  0.0067  1.3330
36890SOL    HW214073   9.505   4.204   0.921  0.7068 -0.5938 -1.6039
36891SOL     OW14074   0.681   1.824   9.565 -0.3227  0.1234  0.4628
36891SOL    HW114075   0.683   1.779   9.649  1.5735  1.0287  0.9619
36891SOL    HW214076   0.705   1.915   9.586 -0.5169  0.5285 -0.9653
36892SOL     OW14077   6.235   5.431   3.823  0.0023  0.1756  0.0520
36892SOL    HW114078   6.164   5.408   3.883 -0.8816  0.0868 -0.9988
36892SOL    HW214079   6.232   5.363   3.756  0.4385  0.7313 -0.5426
36893SOL     OW14080   2.402   6.275   2.885 -0.4822 -0.2047  0.3023
36893SOL    HW114081   2.401   6.371   2.893 -0.6142 -0.1319 -0.5095
36893SOL    HW214082   2.334   6.245   2.945 -0.1559  0.1842  0.8737
36894SOL     OW14083   9.260   3.015   2.129 -0.3900 -0.1292 -0.1617
36894SOL    HW114084   9.253   2.955   2.204 -0.4855  0.3958  0.2529
36894SOL    HW214085   9.335   3.070   2.149  0.8215 -1.2517 -1.3848
36895SOL     OW14086   3.103   7.527   1.580  0.2821 -0.6060  0.0823
36895SOL    HW114087   3.138   7.606   1.623  0.1529 -0.3508 -0.2838
36895SOL    HW214088   3.167   7.459   1.602 -0.6760 -0.9213  2.2095
36896SOL     OW14089   3.625   9.226   9.784 -0.7240  0.0437  0.3344
36896SOL    HW114090   3.670   9.310   9.780  1.2768 -0.9983 -1.4237
36896SOL    HW214091   3.581   9.218   9.699 -1.3734 -0.4318  0.7115
36897SOL     OW14092   0.352  10.683  10.052 -0.1124 -0.4444 -0.2901
36897SOL    HW114093   0.322  10.626   9.980  1.1168 -1.6762  0.1249
36897SOL    HW214094   0.288  10.667  10.122  0.8420 -2.2667  0.2317
36898SOL     OW14095   9.868   2.614   4.524 -0.8404 -0.0656  0.7420
36898SOL    HW114096   9.939   2.619   4.587 -0.7197 -1.8484  0.8096
36898SOL    HW214097   9.812   2.689   4.544  2.0603  2.6920 -0.7205
36899SOL     OW14098   0.024   1.411   3.433 -1.2122  0.8233 -0.4526
36899SOL    HW114099  -0.043   1.419   3.501  0.6578 -0.5768  1.7363
36899SOL    HW214100   0.084   1.484   3.450 -0.3854  0.0872 -0.1372
36900SOL     OW14101   1.744   8.944   1.598 -0.1397  0.3456 -0.1139
36900SOL    HW114102   1.723   8.966   1.689  1.8542  0.4635  0.3594
36900SOL    HW214103   1.660   8.950   1.552 -1.5582 -1.5209  2.0199
36901SOL     OW14104   4.839  10.484   2.099  0.4817  0.4150  0.4767
36901SOL    HW114105   4.792  10.537   2.163 -0.6973  1.4346 -1.1300
36901SOL    HW214106   4.771  10.434   2.054  0.9480  1.3535 -1.4053
36902SOL     OW14107   5.940   8.140   0.973  0.3891  0.3544 -0.3700
36902SOL    HW114108   6.007   8.196   0.934  1.0170 -0.1871 -0.0885
36902SOL    HW214109   5.922   8.073   0.907 -0.4688  0.9497 -0.7666
36903SOL     OW14110   9.925   4.352   2.917 -0.3840  0.1047  0.3517
36903SOL    HW114111   9.892   4.299   2.844  1.1995  1.3736 -1.3859
36903SOL    HW214112  10.006   4.308   2.943  0.0101  0.6712  0.0965
36904SOL     OW14113   0.333   5.625   1.119  0.3830  0.3386  0.0374
36904SOL    HW114114   0.322   5.700   1.061  0.9464 -1.0906 -2.0354
36904SOL    HW214115   0.411   5.646   1.171 -0.4061  1.8471  0.6861
36905SOL     OW14116   1.355   0.930   6.377 -0.5435 -0.0119  0.1671
36905SOL    HW114117   1.437   0.884   6.395 -1.3905 -2.5059 -1.8021
36905SOL    HW214118   1.374   0.982   6.299 -0.8133 -0.5658 -0.2705
36906SOL     OW14119   1.436   7.879   2.829  0.0038 -0.1239 -0.2124
36906SOL    HW114120   1.502   7.823   2.870  0.6377  1.0513  0.4460
36906SOL    HW214121   1.393   7.924   2.902  0.3089  1.0879 -0.7397
36907SOL     OW14122   1.151   7.378   4.042  0.0659 -0.0397 -0.1575
36907SOL    HW114123   1.112   7.412   4.123  1.1340 -1.3014  0.9374
36907SOL    HW214124   1.157   7.284   4.056  0.0800 -0.3118 -1.8193
36908SOL     OW14125   1.074   1.033   3.228  0.1642 -0.3849  0.0457
36908SOL    HW114126   1.035   1.087   3.160  1.5660 -0.6335 -0.9805
36908SOL    HW214127   1.043   0.944   3.210  0.0156 -0.3520  0.1336
36909SOL     OW14128   0.498   6.585   2.863  0.3778 -0.2818  0.3129
36909SOL    HW114129   0.583   6.543   2.874  0.5464 -0.2881 -0.8888
36909SOL    HW214130   0.469   6.559   2.775  0.0714  1.3386 -0.1046
36910SOL     OW14131   2.100   1.298   2.970 -0.0391  0.1072  0.3890
36910SOL    HW114132   2.111   1.218   2.918 -0.5234  0.4986 -0.3417
36910SOL    HW214133   2.005   1.313   2.970 -0.1220 -0.2080  1.9193
36911SOL     OW14134   6.396   2.112  10.893  0.6136 -0.0206 -0.2120
36911SOL    HW114135   6.313   2.109  10.846 -0.5660  0.2978  1.7378
36911SOL    HW214136   6.449   2.174  10.843  0.2463 -1.2984 -2.2944
36912SOL     OW14137   8.025   0.135   2.229 -0.0256 -0.3567 -0.2916
36912SOL    HW114138   7.986   0.141   2.316  0.7464  0.9315 -0.0082
36912SOL    HW214139   8.003   0.047   2.199  0.7242 -1.2880  1.7043
36913SOL     OW14140   8.611  10.883   2.814 -0.1791  0.1732  0.6412
36913SOL    HW114141   8.653  10.947   2.757 -1.5556 -1.4017 -2.3609
36913SOL    HW214142   8.662  10.802   2.802 -0.6992 -0.2784  1.3823
36914SOL     OW14143   1.236   1.610   1.740  0.2872 -0.1581 -0.3762
36914SOL    HW114144   1.167   1.563   1.693  0.1686 -1.1852  0.7837
36914SOL    HW214145   1.311   1.550   1.737  1.1735  0.9380 -1.6169
36915SOL     OW14146   4.512   1.118   6.763  0.3657  0.9180 -0.0843
36915SOL    HW114147   4.580   1.074   6.713 -0.9220 -0.4345 -0.7190
36915SOL    HW214148   4.496   1.061   6.839  0.7084  1.8027  0.6804
36916SOL     OW14149   4.433   0.120  10.619  0.0228 -0.2777 -0.7480
36916SOL    HW114150   4.456   0.142  10.528  0.6723 -1.9379 -1.0134
36916SOL    HW214151   4.482   0.040  10.637 -1.1216 -0.6949  0.6403
36917SOL     OW14152   2.242   9.946   9.629  0.2242 -0.6979  0.1416
36917SOL    HW114153   2.241   9.888   9.705  0.5537  1.2521  1.7268
36917SOL    HW214154   2.167   9.919   9.577 -0.4262 -1.6519  1.5074
36918SOL     OW14155   7.476   2.894   2.318 -0.6333  0.0797  0.1877
36918SOL    HW114156   7.556   2.879   2.368 -1.2766 -1.6763  0.7802
36918SOL    HW214157   7.440   2.807   2.304 -0.9343  0.5837 -2.6390
36919SOL     OW14158   0.283   6.274   5.254  0.1168 -0.0769  0.3603
36919SOL    HW114159   0.257   6.279   5.346 -0.6245 -0.0203  0.1545
36919SOL    HW214160   0.336   6.352   5.239 -1.7254  1.1851  0.1388
36920SOL     OW14161   6.434   9.645  10.345 -0.2827 -0.2453  0.1799
36920SOL    HW114162   6.478   9.611  10.424 -2.3017 -0.9111  1.0928
36920SOL    HW214163   6.464   9.588  10.275  3.5646  1.8989 -0.1762
36921SOL     OW14164  10.546  10.743  10.681  0.1791 -0.3756 -0.8003
36921SOL    HW114165  10.613  10.758  10.614  0.0422  0.0980 -0.8337
36921SOL    HW214166  10.538  10.828  10.726  0.3242 -0.7020 -0.1365
36922SOL     OW14167   6.270   3.788   1.030 -0.2036 -0.1498  0.4845
36922SOL    HW114168   6.319   3.870   1.028  3.3373 -2.0007  1.7149
36922SOL    HW214169   6.186   3.809   0.992  0.7024  3.9071  0.2733
36923SOL     OW14170   8.387   6.882   6.726 -0.4752  0.4396  0.1538
36923SOL    HW114171   8.428   6.857   6.644  0.3366  1.3735  0.2535
36923SOL    HW214172   8.444   6.950   6.762 -1.0803  0.4023  1.2490
36924SOL     OW14173   7.131   1.890   2.135 -0.4770 -0.4939  0.2961
36924SOL    HW114174   7.129   1.879   2.230 -0.2335 -1.2557  0.2182
36924SOL    HW214175   7.218   1.861   2.109 -0.2353  0.5196 -0.0780
36925SOL     OW14176   7.063   8.968   8.744  0.2155  0.6125 -0.3211
36925SOL    HW114177   7.101   8.912   8.676 -1.0417 -1.1853  0.3741
36925SOL    HW214178   7.132   8.976   8.810  1.1166  1.6126 -1.3386
36926SOL     OW14179  10.679   2.967   9.770 -0.6116  0.2559 -0.9614
36926SOL    HW114180  10.655   3.056   9.744  2.1305  1.2585 -0.4281
36926SOL    HW214181  10.648   2.960   9.860  0.6316  1.3602 -0.4086
36927SOL     OW14182   1.452   0.240   6.407 -0.3178 -0.1065  0.5106
36927SOL    HW114183   1.452   0.175   6.477  2.0625 -1.1970 -0.3676
36927SOL    HW214184   1.541   0.275   6.407 -0.5793  0.6666 -1.2387
36928SOL     OW14185   8.126   3.503   5.140  0.1283  0.2879  0.2009
36928SOL    HW114186   8.202   3.561   5.149  2.4222 -2.5198  0.4561
36928SOL    HW214187   8.128   3.476   5.049  0.7453 -1.3585  0.6658
36929SOL     OW14188  10.024   9.060   1.038 -0.0483 -1.0475 -0.4468
36929SOL    HW114189   9.954   9.022   0.984 -0.8614 -2.8154  1.6751
36929SOL    HW214190   9.996   9.042   1.128  2.6402 -0.8599  0.4941
36930SOL     OW14191   9.258   3.954   4.466 -0.5317  0.2412 -0.5631
36930SOL    HW114192   9.203   3.896   4.518 -0.4234  1.6023  1.1701
36930SOL    HW214193   9.344   3.912   4.464 -0.1642  0.7686  1.5850
36931SOL     OW14194   3.781   6.436   5.195  0.0260  0.4677 -0.6222
36931SOL    HW114195   3.771   6.354   5.147  0.2173 -0.4986  0.8889
36931SOL    HW214196   3.697   6.449   5.238  0.1556  0.7814 -0.4634
36932SOL     OW14197   3.432   2.932   3.812  0.3132  0.2838  0.1592
36932SOL    HW114198   3.469   2.927   3.725 -0.9515 -1.0118 -0.3447
36932SOL    HW214199   3.462   2.852   3.856  0.5162  0.6737  0.7418
36933SOL     OW14200   2.824   8.448   0.918  0.1244 -0.1219  0.4889
36933SOL    HW114201   2.754   8.426   0.980  0.3106 -0.9435  0.4147
36933SOL    HW214202   2.785   8.436   0.832 -0.3809  1.7815  0.4025
36934SOL     OW14203   9.644   2.880   7.307 -0.3282  0.1067 -0.5185
36934SOL    HW114204   9.659   2.868   7.401  0.6392 -0.5176 -0.7374
36934SOL    HW214205   9.636   2.791   7.273 -0.8676  0.3393 -0.9993
36935SOL     OW14206   7.461   3.625   0.054  0.2745  0.1766  0.4515
36935SOL    HW114207   7.382   3.677   0.035  0.6510  0.0205 -1.8178
36935SOL    HW214208   7.430   3.554   0.110 -2.0439 -1.9649 -3.2016
36936SOL     OW14209   3.950   6.353   0.242 -0.3658  0.5405  0.2194
36936SOL    HW114210   3.889   6.407   0.192 -0.9720  0.7280  1.1371
36936SOL    HW214211   3.921   6.263   0.227  0.5858  0.4433 -1.2322
36937SOL     OW14212   0.245   6.729   8.431 -0.0499  0.9844  0.2779
36937SOL    HW114213   0.165   6.780   8.443 -0.9175 -0.9564  4.2116
36937SOL    HW214214   0.232   6.683   8.348 -1.2354  3.5181 -1.0639
36938SOL     OW14215   7.492   0.457   5.926  0.2648 -0.3124  0.1245
36938SOL    HW114216   7.499   0.412   5.841 -2.0572  1.1216 -0.9196
36938SOL    HW214217   7.468   0.388   5.988 -0.9771 -0.9279 -0.9856
36939SOL     OW14218   9.928   6.934  10.597 -0.1290  0.1796  0.1405
36939SOL    HW114219   9.879   7.013  10.574 -0.3161 -0.0222 -0.1601
36939SOL    HW214220   9.890   6.865  10.542  2.6437  0.6215 -2.5874
36940SOL     OW14221   6.799   9.472   8.349 -0.5161 -0.2143  0.2537
36940SOL    HW114222   6.834   9.519   8.273 -1.0930  2.2532  1.4002
36940SOL    HW214223   6.714   9.514   8.365 -0.5366 -0.8669  2.0627
36941SOL     OW14224   8.369   9.645   6.661  0.0221 -0.0489  0.6378
36941SOL    HW114225   8.297   9.582   6.664 -0.2030  0.1895  0.3918
36941SOL    HW214226   8.333   9.724   6.703  0.1639  0.0521  0.5702
36942SOL     OW14227   9.841   3.012   4.419 -0.1776  0.5807 -0.5344
36942SOL    HW114228   9.824   2.937   4.362 -0.7820  1.1193 -1.0816
36942SOL    HW214229   9.804   3.087   4.372  0.0056  1.1549  0.2125
36943SOL     OW14230   0.170   8.024   0.655 -0.1444 -0.1562  0.1855
36943SOL    HW114231   0.265   8.014   0.669  0.1490  0.4722 -1.2336
36943SOL    HW214232   0.163   8.075   0.575 -1.7026 -0.3424  0.1831
36944SOL     OW14233   9.476   6.397   2.833 -0.2794  0.5982  0.0162
36944SOL    HW114234   9.560   6.426   2.869 -0.4675 -0.2598  1.2120
36944SOL    HW214235   9.411   6.454   2.874 -0.4808 -0.2805  0.9657
36945SOL     OW14236   1.361   1.575   1.136  0.0928  0.0217  0.1463
36945SOL    HW114237   1.325   1.530   1.059 -0.5098 -0.2296  0.5669
36945SOL    HW214238   1.417   1.510   1.177 -2.3078 -1.1292  1.8717
36946SOL     OW14239   0.794   6.150  10.461  0.4899 -0.1649  0.3831
36946SOL    HW114240   0.724   6.089  10.440  1.3271 -1.7813  2.0437
36946SOL    HW214241   0.838   6.166  10.378  0.5971 -2.2914 -0.0063
36947SOL     OW14242   1.341   2.905   6.231 -0.0107  0.2556  0.2695
36947SOL    HW114243   1.276   2.843   6.197 -1.5656  1.4137  0.9762
36947SOL    HW214244   1.345   2.974   6.165  0.0856  0.4538  0.4812
36948SOL     OW14245   9.040   6.458   2.849 -0.1976  0.4045 -0.2691
36948SOL    HW114246   9.102   6.469   2.776 -1.0783  2.3205 -0.7920
36948SOL    HW214247   9.069   6.378   2.893  1.9429  0.6118 -1.1743
36949SOL     OW14248  10.488   9.853  10.592 -0.4187  0.4152  0.1166
36949SOL    HW114249  10.491   9.898  10.676  0.2147  0.5768  0.0058
36949SOL    HW214250  10.487   9.760  10.615  1.1960  0.4170  0.2786
36950SOL     OW14251   9.082   3.835   7.478  0.4169  0.2757 -0.6909
36950SOL    HW114252   9.017   3.782   7.524 -0.4921  2.0177  0.1349
36950SOL    HW214253   9.166   3.803   7.511 -0.1366  0.0197  0.5489
36951SOL     OW14254   9.832   9.033   3.127  0.3958 -0.3369  0.2409
36951SOL    HW114255   9.794   9.018   3.040  0.4792 -1.5925  0.4101
36951SOL    HW214256   9.784   9.108   3.161 -1.3041 -1.3027  0.0751
36952SOL     OW14257  10.646   9.279   6.346  0.0553 -0.2275  0.2767
36952SOL    HW114258  10.576   9.324   6.298 -0.6219 -0.6736  0.8245
36952SOL    HW214259  10.708   9.349   6.368  0.0187  0.0976 -0.6148
36953SOL     OW14260   1.780   4.057   4.715 -0.0046 -0.0106  0.0234
36953SOL    HW114261   1.716   4.075   4.646 -0.5311  0.3836  0.5989
36953SOL    HW214262   1.727   4.050   4.795  0.6507  0.0930  0.4688
36954SOL     OW14263   0.873   8.935   0.827  0.3140 -0.0355 -0.5255
36954SOL    HW114264   0.847   8.930   0.735  0.8869  0.3982 -0.7105
36954SOL    HW214265   0.855   9.026   0.852 -1.3813 -0.5297  0.2617
36955SOL     OW14266   4.789  10.886   1.211  0.3778  0.5771 -0.4835
36955SOL    HW114267   4.717  10.829   1.239  1.2123 -0.0891  0.3490
36955SOL    HW214268   4.786  10.960   1.271  0.4655  0.4913 -0.3739
36956SOL     OW14269  10.879   8.621   0.967  0.0330  0.7989  0.5244
36956SOL    HW114270  10.825   8.665   0.900 -0.2353 -0.6588 -0.2500
36956SOL    HW214271  10.946   8.576   0.917  1.1105  1.3921  1.4052
36957SOL     OW14272   5.371   0.972   0.396 -0.1877 -0.6875  0.2203
36957SOL    HW114273   5.307   0.949   0.464 -0.0920  1.3902  1.0877
36957SOL    HW214274   5.450   0.996   0.444  0.4280 -0.7668 -0.7240
36958SOL     OW14275   7.682   5.751   6.266  0.2788 -0.3246 -0.1403
36958SOL    HW114276   7.722   5.704   6.193  0.1745 -0.3585 -0.1752
36958SOL    HW214277   7.705   5.843   6.251  1.6138 -0.4984  0.6330
36959SOL     OW14278   7.317   6.502   4.254  0.2667 -0.3388  0.6078
36959SOL    HW114279   7.249   6.532   4.314  0.4747 -0.6257  0.9916
36959SOL    HW214280   7.310   6.407   4.256 -1.0871 -0.3370 -1.4070
36960SOL     OW14281   3.883   2.736   3.382  0.0361 -0.2098  0.0915
36960SOL    HW114282   3.934   2.710   3.458 -0.0188 -1.3377 -0.2493
36960SOL    HW214283   3.801   2.688   3.391  0.1540 -0.5962 -0.8454
36961SOL     OW14284   6.738   7.301   1.296  0.1196 -0.5844  0.4301
36961SOL    HW114285   6.675   7.358   1.253 -0.3391 -0.1254  1.6754
36961SOL    HW214286   6.818   7.352   1.300 -0.1825 -0.1596  1.1986
36962SOL     OW14287   2.923   1.996   1.623 -0.1639  0.0989 -0.5047
36962SOL    HW114288   2.884   2.074   1.584  0.9639 -0.0786 -2.0809
36962SOL    HW214289   2.907   1.927   1.559 -0.9194 -0.9268  0.7547
36963SOL     OW14290   8.089   9.897   1.788  0.1873 -0.7404  0.2884
36963SOL    HW114291   8.043   9.974   1.754  1.7492  0.9518  1.7988
36963SOL    HW214292   8.149   9.873   1.718  0.2617 -0.0771  0.1180
36964SOL     OW14293   9.876   2.991   0.272  0.2952  0.4108  0.0167
36964SOL    HW114294   9.901   2.945   0.192  0.8402 -0.5117  0.6873
36964SOL    HW214295   9.931   3.069   0.273  0.2894  0.4275 -0.4973
36965SOL     OW14296   5.706   5.525   1.212 -0.5138 -0.2232 -0.2291
36965SOL    HW114297   5.789   5.526   1.164 -1.0207 -0.9389 -1.1421
36965SOL    HW214298   5.726   5.569   1.295  0.9883 -1.1162 -0.0874
36966SOL     OW14299   3.017   9.597   8.489 -0.0582 -0.0924 -0.1528
36966SOL    HW114300   3.042   9.614   8.580 -0.2756 -0.9390  0.0804
36966SOL    HW214301   3.037   9.504   8.476 -0.6117 -0.1370 -0.7723
36967SOL     OW14302   3.625   1.392   7.044 -0.1829 -0.6395 -0.4270
36967SOL    HW114303   3.675   1.418   7.121  0.4059 -1.3572 -0.5505
36967SOL    HW214304   3.688   1.397   6.972  0.2917 -3.2953 -0.3076
36968SOL     OW14305   4.524   0.291   5.203  0.5223  0.1834  0.1372
36968SOL    HW114306   4.449   0.234   5.217  0.3240  0.4815  0.3028
36968SOL    HW214307   4.491   0.379   5.223  0.4842  0.5164 -1.2788
36969SOL     OW14308   8.692   8.513  10.275 -0.1929 -0.0766 -0.8354
36969SOL    HW114309   8.730   8.567  10.345 -0.7886  1.0884 -1.3983
36969SOL    HW214310   8.732   8.546  10.195  0.4710 -1.4006 -1.0767
36970SOL     OW14311   5.102   3.731   1.155  0.0945  0.4656  0.6206
36970SOL    HW114312   5.026   3.788   1.140  1.5298  2.2209 -0.4467
36970SOL    HW214313   5.165   3.787   1.200  2.6003  0.7155 -2.7904
36971SOL     OW14314   1.328   8.940   9.965  0.0947  0.0186 -0.3667
36971SOL    HW114315   1.240   8.929  10.001  0.8073  0.1779  1.5556
36971SOL    HW214316   1.379   8.867  10.001  0.8360  0.1145 -1.1732
36972SOL     OW14317   5.877   0.747   1.897  0.5771  0.3593  0.0211
36972SOL    HW114318   5.907   0.770   1.809 -0.5678 -0.0494 -0.4922
36972SOL    HW214319   5.870   0.831   1.943 -2.6293  1.0695 -1.5280
36973SOL     OW14320   2.272   8.564   9.416  0.2840 -0.2890  0.0911
36973SOL    HW114321   2.233   8.562   9.329  2.2113 -1.3421 -0.8355
36973SOL    HW214322   2.339   8.496   9.413  2.8006  1.9456  1.1949
36974SOL     OW14323   3.002   8.741   2.025 -0.1272  0.1927 -1.0016
36974SOL    HW114324   3.016   8.725   2.118 -1.8170 -0.2366 -0.7848
36974SOL    HW214325   2.927   8.686   2.002 -0.2693  0.9259 -2.4208
36975SOL     OW14326   4.116   4.141   4.961  0.0594  0.1104  0.2466
36975SOL    HW114327   4.204   4.170   4.986 -0.5970  0.6643  2.0268
36975SOL    HW214328   4.060   4.216   4.981 -0.7038  0.1835 -1.9428
36976SOL     OW14329   8.593   4.996   4.989 -0.1828  0.2693  0.5899
36976SOL    HW114330   8.648   5.068   4.959  0.6262 -0.6570 -0.2488
36976SOL    HW214331   8.505   5.033   4.996 -0.3884  0.6707 -2.7077
36977SOL     OW14332   2.681   1.834   6.840 -1.1656  0.2670 -0.2252
36977SOL    HW114333   2.721   1.876   6.916  1.0727 -0.0065 -1.1721
36977SOL    HW214334   2.749   1.835   6.773 -1.5366 -3.2446 -0.8717
36978SOL     OW14335   0.787   7.378   4.881  0.3890 -0.1486 -0.2161
36978SOL    HW114336   0.719   7.366   4.815  0.9957  0.4280 -0.9679
36978SOL    HW214337   0.773   7.307   4.943 -0.8966 -0.0391 -0.3516
36979SOL     OW14338   1.587   9.753   6.410  0.2039  0.1428  0.2480
36979SOL    HW114339   1.515   9.735   6.348  0.4889  0.7270 -0.2689
36979SOL    HW214340   1.656   9.792   6.356  0.5634  0.4204  0.8930
36980SOL     OW14341   7.824   3.278   2.476 -0.6217 -0.6001  0.3437
36980SOL    HW114342   7.845   3.271   2.569 -0.1139 -1.2937  0.1813
36980SOL    HW214343   7.728   3.279   2.473 -0.6452 -1.1187  0.8417
36981SOL     OW14344   4.734   2.040   9.224  0.2146  0.8678 -0.3658
36981SOL    HW114345   4.731   1.978   9.151  1.0324 -1.0701  1.1318
36981SOL    HW214346   4.822   2.077   9.220 -0.4975  2.5443 -1.6669
36982SOL     OW14347   3.574  10.202   9.583  0.3194 -0.1030 -0.3542
36982SOL    HW114348   3.541  10.276   9.635 -0.9427 -1.5961  1.0504
36982SOL    HW214349   3.600  10.242   9.500 -2.6716  1.5959 -0.6150
36983SOL     OW14350   6.520   4.676  10.114 -0.2482  0.0294  0.1954
36983SOL    HW114351   6.465   4.607  10.151  0.0347 -0.3789 -0.1490
36983SOL    HW214352   6.587   4.691  10.180 -0.0909 -0.2846  0.1054
36984SOL     OW14353   7.764   0.735   7.815 -0.1600  0.5050  0.0685
36984SOL    HW114354   7.731   0.814   7.771 -2.0154 -0.4971 -0.4435
36984SOL    HW214355   7.759   0.756   7.908 -1.5910  0.6712 -0.0273
36985SOL     OW14356   8.432   9.803   3.687  0.3756  0.0112 -0.6383
36985SOL    HW114357   8.467   9.714   3.680  0.2834  0.0061 -1.0902
36985SOL    HW214358   8.393   9.808   3.774  0.2272 -0.4453 -0.6803
36986SOL     OW14359   3.610   3.008   4.481  0.3254 -0.2368 -0.1346
36986SOL    HW114360   3.601   3.067   4.555  0.4865  0.2049 -0.4616
36986SOL    HW214361   3.529   2.957   4.480  0.1227  0.0838  0.0600
36987SOL     OW14362   5.108   6.248   2.605  0.1530 -0.1301 -0.5324
36987SOL    HW114363   5.047   6.255   2.531 -0.3971  0.7755 -0.0030
36987SOL    HW214364   5.095   6.159   2.638 -0.0781 -0.3148 -1.1071
36988SOL     OW14365   5.179   0.383   9.047 -0.0345 -0.5435  0.0395
36988SOL    HW114366   5.157   0.382   9.140  0.3718  0.5799  0.1683
36988SOL    HW214367   5.128   0.456   9.011 -1.2784 -1.8273 -0.9218
36989SOL     OW14368   3.353   6.808   6.627  0.7771  0.3438  0.3147
36989SOL    HW114369   3.342   6.796   6.721 -1.0751  0.9528  0.2209
36989SOL    HW214370   3.384   6.723   6.595 -0.2675 -0.4219  1.2491
36990SOL     OW14371   2.347   4.289   3.991 -0.6241  0.1197  0.5881
36990SOL    HW114372   2.345   4.352   4.063 -0.2164  0.3242  0.4239
36990SOL    HW214373   2.256   4.283   3.962 -0.7698  0.1345  1.0335
36991SOL     OW14374   8.256   0.714   8.675  0.4866 -0.3661 -0.2201
36991SOL    HW114375   8.186   0.673   8.726 -0.0475  0.2715 -0.4154
36991SOL    HW214376   8.334   0.705   8.729 -0.1401  0.6041  0.8808
36992SOL     OW14377   2.237   5.415   2.354 -0.5516  0.2473  0.4709
36992SOL    HW114378   2.324   5.423   2.392 -1.1716 -0.7353  2.2062
36992SOL    HW214379   2.253   5.400   2.261  1.1105  0.3176  0.7111
36993SOL     OW14380   6.629   0.604   1.892 -0.5201 -0.0300  0.1766
36993SOL    HW114381   6.710   0.579   1.846 -1.1852 -0.3441 -0.8518
36993SOL    HW214382   6.593   0.676   1.839 -1.1109 -0.1514  0.4105
36994SOL     OW14383   1.160   6.376   2.945  0.1564 -0.1656 -0.0683
36994SOL    HW114384   1.116   6.460   2.938 -1.1050 -0.7065  1.0285
36994SOL    HW214385   1.231   6.381   2.880 -1.4804  0.7307 -1.9106
36995SOL     OW14386   5.054   1.240   7.706  0.0444 -0.0021  0.1579
36995SOL    HW114387   5.130   1.225   7.650  1.4831 -0.0380  2.0315
36995SOL    HW214388   5.004   1.159   7.701  0.1385 -0.0080 -1.0235
36996SOL     OW14389   9.848   6.730   7.437 -0.6952 -0.2808 -0.2668
36996SOL    HW114390   9.773   6.686   7.477 -1.0209  2.0653  1.9781
36996SOL    HW214391   9.810   6.798   7.381 -0.2359 -0.3053 -0.6200
36997SOL     OW14392   7.973   0.619   6.584  0.0418 -0.1998  0.1902
36997SOL    HW114393   7.969   0.686   6.515  0.4094 -0.2500  0.1167
36997SOL    HW214394   7.953   0.537   6.538 -2.4582  0.0785  0.6431
36998SOL     OW14395   0.146   1.062  10.505 -0.1898  0.3192 -0.6981
36998SOL    HW114396   0.182   0.986  10.551 -1.5858  0.5831  0.9436
36998SOL    HW214397   0.069   1.028  10.459 -1.5244  0.8793  1.0028
36999SOL     OW14398   6.604   7.342   1.665  0.0326  0.2986  0.5048
36999SOL    HW114399   6.645   7.427   1.650 -0.7675  0.4866 -0.8110
36999SOL    HW214400   6.660   7.281   1.617  0.0616  0.2188  0.6400
37000SOL     OW14401  10.158   0.360   6.343 -0.0571 -0.1247 -0.3984
37000SOL    HW114402  10.204   0.280   6.367  2.4059  0.7139 -1.9299
37000SOL    HW214403  10.128   0.397   6.426  2.4087 -0.5799  0.7928
37001SOL     OW14404   2.492   2.269   5.987  0.2026  0.6180  0.0168
37001SOL    HW114405   2.573   2.301   6.026 -0.2528  0.9879  0.6758
37001SOL    HW214406   2.468   2.336   5.923  1.5933 -0.5590 -1.8550
37002SOL     OW14407   5.924   3.009   2.668  0.3444 -0.2344  0.1987
37002SOL    HW114408   5.861   3.081   2.657 -0.5635 -0.9941  0.3436
37002SOL    HW214409   5.870   2.932   2.683  1.3270 -0.8700  0.5390
37003SOL     OW14410   3.184   1.351   7.616 -0.1068  0.2137 -0.0179
37003SOL    HW114411   3.256   1.405   7.582 -0.3252 -0.7896 -2.2150
37003SOL    HW214412   3.106   1.405   7.601  0.0294  0.7948  1.2444
37004SOL     OW14413   9.965   0.911   1.783  0.2755 -0.2397 -0.2267
37004SOL    HW114414   9.871   0.896   1.773  0.6765 -2.0460 -1.6290
37004SOL    HW214415   9.983   0.988   1.728 -0.3368  0.0110 -0.0851
37005SOL     OW14416   6.091   3.692  10.504  0.0181  0.2276  0.3252
37005SOL    HW114417   6.030   3.629  10.466  0.4331 -0.0215  0.0617
37005SOL    HW214418   6.056   3.778  10.480 -0.0864  0.0805 -0.0415
37006SOL     OW14419   0.981   5.958   3.605  0.1538 -0.1487 -0.1386
37006SOL    HW114420   1.033   6.008   3.542  0.9526 -0.2356  0.4278
37006SOL    HW214421   0.925   5.902   3.552 -0.0624  0.6603 -0.7706
37007SOL     OW14422  10.589   9.413   8.514 -0.0144  0.4933  0.1382
37007SOL    HW114423  10.662   9.403   8.453  1.2076 -0.7739  1.7343
37007SOL    HW214424  10.560   9.324   8.531 -1.1217  0.9088  0.5251
37008SOL     OW14425   7.052   6.543   9.456 -0.3963  0.1731  0.2443
37008SOL    HW114426   6.962   6.575   9.455 -0.4202  0.0995 -1.0592
37008SOL    HW214427   7.048   6.458   9.413  0.2677  0.0901  0.3348
37009SOL     OW14428   2.821   1.071   9.218 -0.0146 -0.2136  0.4356
37009SOL    HW114429   2.842   0.991   9.170  1.1907 -0.3856  1.2074
37009SOL    HW214430   2.845   1.052   9.309  2.1884  1.6495  0.3279
37010SOL     OW14431  10.507   2.937   7.384  0.2791 -0.0858 -0.0287
37010SOL    HW114432  10.486   2.902   7.297 -0.9901  0.2278  0.1320
37010SOL    HW214433  10.431   2.991   7.407  0.9671  0.4948  0.9275
37011SOL     OW14434   9.009   8.703   5.612 -0.5705 -0.4614  0.0212
37011SOL    HW114435   8.933   8.699   5.554 -0.3504 -0.1050 -0.2935
37011SOL    HW214436   9.084   8.704   5.553 -0.3846  2.0331  0.1987
37012SOL     OW14437   4.133   2.522   5.897 -0.3281 -0.0375 -0.4193
37012SOL    HW114438   4.064   2.456   5.889 -0.6091  0.4368 -2.7178
37012SOL    HW214439   4.091   2.604   5.872  0.4188  0.7596  0.8453
37013SOL     OW14440   6.391   7.896   9.142 -0.2441 -0.3287 -0.0844
37013SOL    HW114441   6.319   7.837   9.119 -0.2410 -0.4946  0.3266
37013SOL    HW214442   6.351   7.983   9.145 -1.1790 -0.7543  3.2730
37014SOL     OW14443   2.370   5.319   0.217  0.3952  0.3206  0.2751
37014SOL    HW114444   2.285   5.311   0.173  1.0882 -0.0165 -1.0246
37014SOL    HW214445   2.434   5.287   0.154  1.6235  1.5601  0.8440
37015SOL     OW14446   9.617   6.592   7.148  0.3500  0.1762 -0.1298
37015SOL    HW114447   9.574   6.520   7.103 -1.3562  0.8642  0.3426
37015SOL    HW214448   9.616   6.567   7.240 -2.4828  1.7735  0.3975
37016SOL     OW14449   9.896   7.277   5.054 -0.8725 -0.3073 -0.4224
37016SOL    HW114450   9.952   7.268   5.131  1.7607 -0.7905 -2.2150
37016SOL    HW214451   9.938   7.346   5.002 -2.3100 -0.2699 -1.6006
37017SOL     OW14452   4.126   8.770   0.749  0.2656  0.1159 -0.0967
37017SOL    HW114453   4.036   8.737   0.742  1.0510 -2.0695 -0.8685
37017SOL    HW214454   4.155   8.741   0.836  0.0702  1.3202  0.3901
37018SOL     OW14455   9.593   8.098   4.794 -0.2000  0.1553 -0.1923
37018SOL    HW114456   9.662   8.063   4.739 -2.2252 -0.6819 -2.3497
37018SOL    HW214457   9.609   8.193   4.795  0.6246  0.0408 -1.1528
37019SOL     OW14458   3.370   7.057   2.253  0.2637 -0.3662 -0.0910
37019SOL    HW114459   3.418   7.120   2.199 -0.7922  0.1304 -0.4766
37019SOL    HW214460   3.416   6.974   2.239  0.7736  0.0119 -0.7555
37020SOL     OW14461   1.274   3.232   5.395 -0.4085  0.6066  0.3148
37020SOL    HW114462   1.235   3.158   5.348  0.2135 -0.3257  1.2314
37020SOL    HW214463   1.359   3.201   5.423  0.9479  2.5018 -1.3524
37021SOL     OW14464   2.146   4.883   4.598 -0.0805  0.3347  0.1175
37021SOL    HW114465   2.104   4.958   4.557  1.6902  1.6464  0.5961
37021SOL    HW214466   2.115   4.885   4.689 -0.4382  0.1534  0.0032
37022SOL     OW14467   1.553   4.097   8.703 -0.4600  0.9748  0.6864
37022SOL    HW114468   1.493   4.042   8.752  0.8462  0.9321  2.3094
37022SOL    HW214469   1.594   4.037   8.640 -0.9028  0.6561  0.6966
37023SOL     OW14470   0.700   6.433  10.236  0.6732  0.4353 -0.2741
37023SOL    HW114471   0.715   6.448  10.329 -0.7493  1.7539 -0.2246
37023SOL    HW214472   0.777   6.385  10.207  1.3617  0.4138  1.4741
37024SOL     OW14473   1.513   5.515   7.516  0.1511 -0.3757  0.4994
37024SOL    HW114474   1.473   5.468   7.589  1.1004 -3.6043 -0.8775
37024SOL    HW214475   1.583   5.566   7.557 -1.2666  0.3639  2.1527
37025SOL     OW14476   1.823  10.776  10.197 -0.4535  0.5510 -0.0752
37025SOL    HW114477   1.876  10.724  10.136 -1.6378  0.0965 -0.7401
37025SOL    HW214478   1.874  10.776  10.278 -0.4228 -1.7078 -0.0370
37026SOL     OW14479   7.966   7.958   9.787  0.3858  0.2032 -0.4373
37026SOL    HW114480   8.016   8.026   9.742  0.2555  1.4499  1.2084
37026SOL    HW214481   7.918   7.913   9.717  1.5896  0.8429 -1.7251
37027SOL     OW14482   6.503   7.167   2.970  0.5599 -0.8873 -0.2588
37027SOL    HW114483   6.494   7.180   3.064 -1.7197 -0.2919 -0.5049
37027SOL    HW214484   6.513   7.256   2.935  1.2363 -1.0973 -0.6283
37028SOL     OW14485  10.451   3.032   0.757  0.0556  0.4686 -0.6540
37028SOL    HW114486  10.410   2.948   0.734 -0.8148  0.7273 -0.0656
37028SOL    HW214487  10.471   3.073   0.672  1.0239 -0.5693 -0.9617
37029SOL     OW14488  10.250   9.570  10.113  0.0014 -0.3305  0.9089
37029SOL    HW114489  10.206   9.491  10.082  1.6677 -0.9998  0.1717
37029SOL    HW214490  10.218   9.581  10.203 -3.5948  0.6874 -0.3006
37030SOL     OW14491   9.033   9.152   2.721 -0.2391  0.3196 -0.5681
37030SOL    HW114492   9.084   9.183   2.646 -3.3421 -1.0926 -3.5500
37030SOL    HW214493   8.971   9.222   2.738  0.2280  0.4862  0.4904
37031SOL     OW14494   8.848   2.308   3.243  0.3756 -0.0632 -0.1662
37031SOL    HW114495   8.759   2.326   3.272 -0.3352 -1.8705 -1.0360
37031SOL    HW214496   8.849   2.213   3.227  1.9375  0.1836 -1.8343
37032SOL     OW14497   7.912   6.220   4.085 -0.1508  0.3737 -0.1699
37032SOL    HW114498   7.848   6.180   4.143  0.2596 -0.5288 -0.3240
37032SOL    HW214499   7.967   6.274   4.143 -0.1627  0.0118  0.1814
37033SOL     OW14500   0.314  10.758   5.944  0.3641 -0.2396  0.3912
37033SOL    HW114501   0.337  10.802   5.862 -1.5991  1.2295  0.5487
37033SOL    HW214502   0.387  10.777   6.003  1.1148 -0.0739 -0.5709
37034SOL     OW14503   7.602   9.301   8.164 -0.3050  0.3879  0.3557
37034SOL    HW114504   7.661   9.266   8.230 -0.2849 -0.4623 -0.1032
37034SOL    HW214505   7.524   9.247   8.170 -0.3340  0.3586 -0.2592
37035SOL     OW14506   2.886   9.316   2.616  0.0587  0.0270  0.5466
37035SOL    HW114507   2.953   9.268   2.664  0.4605  1.7421  1.7925
37035SOL    HW214508   2.918   9.406   2.614 -2.1531  0.8791  1.0907
37036SOL     OW14509   3.131   5.925   5.577 -0.3187 -0.5291 -0.0541
37036SOL    HW114510   3.214   5.929   5.529 -0.4920  1.5024 -0.2879
37036SOL    HW214511   3.104   5.834   5.570  1.3173 -0.9951 -0.9660
37037SOL     OW14512   2.697   2.461   4.516 -0.3464  0.0905 -0.2297
37037SOL    HW114513   2.735   2.491   4.433  1.7337 -2.4930 -0.3511
37037SOL    HW214514   2.639   2.389   4.492 -1.6159  0.8396  0.4276
37038SOL     OW14515   1.045   5.398   1.045 -0.2827 -0.0758 -0.2748
37038SOL    HW114516   1.116   5.376   0.985 -0.0044 -0.6675  0.2617
37038SOL    HW214517   0.965   5.383   0.996 -0.0735 -1.2682 -0.2620
37039SOL     OW14518   4.959  10.520  10.297  0.3948  0.1576  0.7436
37039SOL    HW114519   5.045  10.522  10.339 -0.4504 -2.3087  2.8116
37039SOL    HW214520   4.931  10.429  10.304 -1.8577  0.6185 -1.0820
37040SOL     OW14521   5.872   9.531   1.088  0.1465 -0.2620 -0.4365
37040SOL    HW114522   5.869   9.506   0.996 -0.9943  1.5561 -0.9269
37040SOL    HW214523   5.780   9.532   1.116  0.3472  0.8983  0.2351
37041SOL     OW14524   2.338   7.228   2.790  0.3561 -0.6906 -0.1021
37041SOL    HW114525   2.417   7.265   2.751 -1.0311  0.4723 -2.0013
37041SOL    HW214526   2.302   7.297   2.844  0.0717 -0.8070 -0.1357
37042SOL     OW14527   1.889   7.725   3.330  0.3126  0.4724  0.4062
37042SOL    HW114528   1.955   7.788   3.360 -0.9134  1.8277  0.3855
37042SOL    HW214529   1.807   7.774   3.332 -0.4153 -0.5840 -1.4080
37043SOL     OW14530   8.203   1.510   4.769 -0.2826  0.0331 -0.6024
37043SOL    HW114531   8.293   1.514   4.800  0.0309 -0.3787 -1.4209
37043SOL    HW214532   8.174   1.420   4.786  0.6389 -0.8856 -3.3878
37044SOL     OW14533   4.510   1.246   0.455  0.3351  0.6278  0.2257
37044SOL    HW114534   4.488   1.153   0.462  1.1189  0.3825 -0.3256
37044SOL    HW214535   4.459   1.289   0.523 -1.2861  0.0114 -0.5564
37045SOL     OW14536   0.784   6.256   0.478  0.2912 -0.5022  0.4719
37045SOL    HW114537   0.791   6.270   0.572  0.9391  1.7469  0.1532
37045SOL    HW214538   0.690   6.259   0.460  0.2313  0.2332  0.9030
37046SOL     OW14539   6.564   0.256   1.051 -0.4701  0.1450 -0.0602
37046SOL    HW114540   6.543   0.235   0.960 -0.4866 -0.3925  0.0585
37046SOL    HW214541   6.518   0.188   1.101 -0.2733  0.3017  0.3343
37047SOL     OW14542   6.766   0.278   6.340 -0.3654  0.0118  0.2263
37047SOL    HW114543   6.798   0.230   6.263 -0.0535 -0.2833  0.5392
37047SOL    HW214544   6.756   0.368   6.309 -1.9752 -0.4330 -0.6740
37048SOL     OW14545   5.501   6.858   9.516 -0.6931  0.2680  0.0635
37048SOL    HW114546   5.595   6.850   9.534 -0.4311  1.5181 -0.7125
37048SOL    HW214547   5.468   6.768   9.527  0.2768  0.0752  1.9550
37049SOL     OW14548   5.010   2.032   5.531 -0.0996  0.0708  0.5872
37049SOL    HW114549   5.029   2.120   5.565  1.3231  0.3949 -0.9079
37049SOL    HW214550   5.051   1.973   5.594  0.5045  0.5630  0.6745
37050SOL     OW14551   2.054   3.262   3.734 -0.0546  0.4165  0.4190
37050SOL    HW114552   2.002   3.316   3.674 -0.9754 -0.7385  0.1408
37050SOL    HW214553   2.076   3.184   3.683  0.0797 -0.0921  1.2452
37051SOL     OW14554   9.744   5.604   6.643 -0.1714  0.4971  0.4115
37051SOL    HW114555   9.659   5.561   6.654 -0.6409  1.5386  1.0186
37051SOL    HW214556   9.749   5.621   6.549 -0.5263  0.2077  0.3350
37052SOL     OW14557   8.913   7.990   2.692 -0.4908  0.1881 -0.4963
37052SOL    HW114558   8.851   7.927   2.655 -1.8313  2.0189 -1.5335
37052SOL    HW214559   8.868   8.027   2.768  0.4765 -0.3837  0.3889
37053SOL     OW14560  10.832   9.646  10.138  0.0671 -0.0453 -0.1525
37053SOL    HW114561  10.765   9.590  10.098 -0.8000  0.5880  0.3853
37053SOL    HW214562  10.808   9.650  10.230  1.4108 -0.5886  0.2523
37054SOL     OW14563   1.941  10.439   2.153 -0.1467  0.2006  0.6306
37054SOL    HW114564   2.026  10.458   2.113  0.3504  0.3657  1.7248
37054SOL    HW214565   1.879  10.443   2.080  0.5838  1.4939  0.0338
37055SOL     OW14566   0.890   1.576   5.283 -0.2088  0.2444  0.0793
37055SOL    HW114567   0.841   1.498   5.257  0.5256  0.0855 -0.8848
37055SOL    HW214568   0.887   1.634   5.206  1.7187 -0.0910 -0.3088
37056SOL     OW14569   3.657   1.954   3.191  0.5273  0.0604 -0.2413
37056SOL    HW114570   3.708   2.035   3.184 -1.1528  1.3950  1.6063
37056SOL    HW214571   3.631   1.934   3.101  1.1582  1.4877 -0.7640
37057SOL     OW14572   2.955   5.568  10.575  0.1763  0.8739 -0.2018
37057SOL    HW114573   2.993   5.481  10.581 -3.9452 -1.2989 -1.6135
37057SOL    HW214574   2.949   5.597  10.666  1.2455 -0.4766  0.3410
37058SOL     OW14575   2.382   0.824   9.954 -0.2928 -0.0184 -0.3479
37058SOL    HW114576   2.465   0.803   9.912 -1.3009 -1.2160 -1.8488
37058SOL    HW214577   2.375   0.762  10.027  0.3647  0.4611  0.1322
37059SOL     OW14578   1.273   4.332   6.919 -0.0018 -0.1322 -0.2153
37059SOL    HW114579   1.207   4.297   6.858  0.0019 -0.6756  0.0813
37059SOL    HW214580   1.272   4.426   6.904  0.2119 -0.2813 -1.2696
37060SOL     OW14581   8.205   4.344   6.915  0.6587 -0.5914  0.6138
37060SOL    HW114582   8.137   4.404   6.945 -0.0333 -1.5118  0.9312
37060SOL    HW214583   8.236   4.382   6.833  0.3670  0.2883  0.8959
37061SOL     OW14584   2.150  10.905   8.489  0.0997 -0.1975  0.1965
37061SOL    HW114585   2.105  10.853   8.422  0.9633  0.3592 -0.8340
37061SOL    HW214586   2.172  10.841   8.557 -1.3739 -0.6564  0.2937
37062SOL     OW14587   9.447   2.511   0.327  0.2786  0.3773 -0.5505
37062SOL    HW114588   9.536   2.483   0.307  0.1674  1.5330 -3.0014
37062SOL    HW214589   9.454   2.605   0.343 -0.4421  0.3791 -0.1758
37063SOL     OW14590   9.663   1.155   2.970  0.3540 -0.3418  0.1852
37063SOL    HW114591   9.696   1.235   2.929  0.7474  0.0836  1.2997
37063SOL    HW214592   9.741   1.101   2.984  0.1324 -0.7886 -0.2438
37064SOL     OW14593   4.657   9.340   7.816 -0.4348  0.0686  0.9823
37064SOL    HW114594   4.682   9.428   7.788  0.5416  0.2345  2.2892
37064SOL    HW214595   4.618   9.301   7.738  4.6605 -0.5331 -1.7007
37065SOL     OW14596   2.647   3.090   2.318 -0.1134  0.0322 -0.0348
37065SOL    HW114597   2.664   3.029   2.247 -1.0335 -1.1613  0.7173
37065SOL    HW214598   2.698   3.056   2.392  0.0806  0.7027  0.1470
37066SOL     OW14599   2.334   0.477  10.862 -0.5804 -0.4585  0.6465
37066SOL    HW114600   2.346   0.458  10.955  0.7333  1.6381  0.9622
37066SOL    HW214601   2.371   0.564  10.850  1.4525 -1.5542 -2.2870
37067SOL     OW14602   5.522   6.890   1.596  0.5867  0.5961 -0.0405
37067SOL    HW114603   5.567   6.935   1.525  0.8979  2.0346  1.0241
37067SOL    HW214604   5.561   6.803   1.597 -0.4960 -0.0026 -2.5746
37068SOL     OW14605   8.684   4.721  10.025  0.1292  0.4396 -0.0641
37068SOL    HW114606   8.778   4.707  10.036 -0.0233  0.2563  1.1722
37068SOL    HW214607   8.669   4.711   9.931  0.9005 -2.4000  0.0106
37069SOL     OW14608   8.715   2.455   8.021 -0.1512 -0.0757  0.1054
37069SOL    HW114609   8.778   2.462   7.949 -0.4726  0.7731 -0.1020
37069SOL    HW214610   8.680   2.366   8.015  0.3589 -0.2492 -0.3325
37070SOL     OW14611   7.806   1.402   3.919  0.7469  0.0775 -0.0781
37070SOL    HW114612   7.773   1.439   3.837 -2.6966  2.9727  2.2617
37070SOL    HW214613   7.737   1.341   3.947  1.4309 -0.2096  1.0670
37071SOL     OW14614   0.734   8.788   7.664  0.2655  0.4450 -0.2975
37071SOL    HW114615   0.773   8.732   7.731 -1.1446  0.3146  0.4534
37071SOL    HW214616   0.754   8.743   7.581  0.3162 -0.4535  0.1922
37072SOL     OW14617   3.914   5.847   2.577  0.0582  0.3257 -0.8000
37072SOL    HW114618   3.890   5.923   2.631  1.0158  1.2970 -1.7006
37072SOL    HW214619   3.955   5.786   2.639 -1.3018  0.2258  0.0586
37073SOL     OW14620   3.875   4.125   6.366  0.3389  0.4701  0.3751
37073SOL    HW114621   3.932   4.057   6.401  0.2981 -0.2839 -0.9625
37073SOL    HW214622   3.882   4.197   6.429  1.1876 -0.3718  1.2720
37074SOL     OW14623   9.052   9.963  10.414  0.4996  0.1397 -0.3919
37074SOL    HW114624   9.054  10.043  10.361  0.8763  1.0759  0.9713
37074SOL    HW214625   9.026   9.993  10.501  1.1888 -1.1539  0.2896
37075SOL     OW14626   3.608   9.412   8.280 -0.5075 -0.5290 -0.5004
37075SOL    HW114627   3.649   9.369   8.205 -1.6274 -1.2818 -0.7003
37075SOL    HW214628   3.682   9.432   8.339  0.8534  2.8000 -2.9863
37076SOL     OW14629   9.972   6.760   9.357  0.5667 -0.0528  0.0315
37076SOL    HW114630  10.004   6.672   9.338  1.1348  0.2456 -0.4424
37076SOL    HW214631   9.932   6.788   9.274 -0.2694 -0.1390  0.3982
37077SOL     OW14632   1.555   1.549   8.363  0.2623  0.1161  0.0690
37077SOL    HW114633   1.599   1.623   8.321 -0.0380  0.3818  0.2161
37077SOL    HW214634   1.557   1.570   8.456  3.0891 -1.6251  0.5118
37078SOL     OW14635   2.006   6.884   0.195 -0.3393 -0.5885 -0.2365
37078SOL    HW114636   2.027   6.913   0.284  0.2725  0.7144 -0.7808
37078SOL    HW214637   1.945   6.951   0.162 -0.0713 -0.7185 -1.0183
37079SOL     OW14638   3.691   1.095  10.843 -0.2114 -0.5160  0.3255
37079SOL    HW114639   3.770   1.149  10.853 -0.0110 -0.8457  0.5522
37079SOL    HW214640   3.645   1.104  10.926  0.3625 -1.5306  0.7828
37080SOL     OW14641   0.119   9.083   1.085 -0.5436  0.1860  0.0212
37080SOL    HW114642   0.032   9.084   1.127 -0.3908 -2.4527  0.5685
37080SOL    HW214643   0.100   9.069   0.992 -0.7483  2.3437 -0.3062
37081SOL     OW14644   1.128   1.749   9.122  0.0647  0.3085 -0.2406
37081SOL    HW114645   1.064   1.718   9.187 -0.7988 -1.4670 -1.8519
37081SOL    HW214646   1.160   1.832   9.158 -1.2436 -0.0258  1.8670
37082SOL     OW14647   5.558   3.064   2.722  0.3691 -0.5898  0.1241
37082SOL    HW114648   5.472   3.039   2.687 -1.2381 -0.4930  3.5028
37082SOL    HW214649   5.537   3.113   2.802  3.5838 -1.3076  1.5694
37083SOL     OW14650  10.798   7.627   4.731  0.4380  0.2429 -0.0964
37083SOL    HW114651  10.866   7.602   4.668  0.4091 -2.0994  0.7048
37083SOL    HW214652  10.792   7.722   4.723  3.4806  0.5119 -0.5322
37084SOL     OW14653   4.984  10.441   1.293  0.2760 -0.0040 -0.1152
37084SOL    HW114654   5.033  10.359   1.291 -1.1252 -0.9062  0.3201
37084SOL    HW214655   5.045  10.507   1.263  2.1517 -0.8472  1.6386
37085SOL     OW14656  10.545   5.311   9.824 -0.1331  0.0414  0.0243
37085SOL    HW114657  10.511   5.279   9.908 -1.1195 -2.5746 -1.2359
37085SOL    HW214658  10.638   5.290   9.827  0.1966  1.4858  1.0527
37086SOL     OW14659   8.959   5.099   1.948 -0.1425 -0.2398 -0.0851
37086SOL    HW114660   9.027   5.065   1.890 -0.5193 -0.8164 -0.1925
37086SOL    HW214661   8.988   5.077   2.036  1.0746  1.7478  0.0864
37087SOL     OW14662   9.444   5.594   5.442  0.5985  0.5182 -0.7059
37087SOL    HW114663   9.460   5.501   5.425  3.5128  0.7945  0.0448
37087SOL    HW214664   9.447   5.635   5.356  1.1862  0.1345 -0.8776
37088SOL     OW14665   7.775   4.551   6.303  0.0852  0.2125  0.6201
37088SOL    HW114666   7.714   4.616   6.267 -0.0009 -0.7907 -1.1870
37088SOL    HW214667   7.720   4.495   6.357 -0.2649  0.3523  0.4164
37089SOL     OW14668   6.853   4.105  10.661  0.1405  0.0471  0.1400
37089SOL    HW114669   6.804   4.039  10.710 -0.6128 -0.0864 -0.7697
37089SOL    HW214670   6.786   4.159  10.620  0.6954 -0.8882 -2.1380
37090SOL     OW14671   0.931   8.000   9.656 -0.1475 -0.1589  0.2141
37090SOL    HW114672   0.887   7.916   9.639  0.6007 -0.4780 -0.1869
37090SOL    HW214673   1.019   7.976   9.684  1.0250  0.5076 -2.5748
37091SOL     OW14674   6.161   1.127   2.325  0.0980 -0.5080  0.4679
37091SOL    HW114675   6.155   1.144   2.419 -0.3603 -0.8625  0.5098
37091SOL    HW214676   6.248   1.157   2.301  0.6086 -1.3460  1.2065
37092SOL     OW14677   2.290   6.587   0.142 -0.3394 -0.5847 -0.0620
37092SOL    HW114678   2.382   6.613   0.139 -0.6266  0.4681 -0.0506
37092SOL    HW214679   2.272   6.568   0.234 -0.8064  1.8360  0.4203
37093SOL     OW14680   5.918   2.596   4.514  0.0495  0.2561  0.1883
37093SOL    HW114681   5.865   2.554   4.582 -0.3675  0.7804  0.2011
37093SOL    HW214682   5.885   2.686   4.511  1.7612  0.9497  1.0479
37094SOL     OW14683   1.625   4.029   5.819  0.4868 -0.2172  0.6777
37094SOL    HW114684   1.631   3.958   5.883  0.2051  0.2088  1.1867
37094SOL    HW214685   1.531   4.041   5.806  0.4820  0.9603  1.6230
37095SOL     OW14686   0.183   6.133   9.305  0.1095  0.2896 -0.3688
37095SOL    HW114687   0.179   6.226   9.327 -2.4537  0.1961 -0.0400
37095SOL    HW214688   0.183   6.131   9.209  1.8197  0.6147 -0.3940
37096SOL     OW14689   1.094   3.096   8.754 -0.3297  0.2807 -0.3268
37096SOL    HW114690   1.026   3.030   8.742  0.4189 -1.3206  3.0756
37096SOL    HW214691   1.176   3.047   8.751  0.3162  1.2027  1.2123
37097SOL     OW14692   9.017   0.182   1.067  0.4869 -0.1279 -0.2210
37097SOL    HW114693   9.004   0.268   1.106 -0.9989 -0.5637  0.2950
37097SOL    HW214694   9.112   0.170   1.067  0.7754  1.8052 -0.9993
37098SOL     OW14695   5.476   1.783   6.726 -0.6017  0.3714 -0.1437
37098SOL    HW114696   5.381   1.796   6.727 -0.5129  1.2291 -1.1618
37098SOL    HW214697   5.505   1.805   6.815 -1.1773  1.5693 -0.2420
37099SOL     OW14698   9.701   4.806   6.971  0.3185  0.1158  0.2559
37099SOL    HW114699   9.608   4.798   6.949 -0.0249  0.6554  1.4231
37099SOL    HW214700   9.701   4.850   7.056  1.5342 -2.2098  1.5562
37100SOL     OW14701   9.339  10.281   8.853 -0.1578 -0.1670  0.2763
37100SOL    HW114702   9.360  10.266   8.945  0.0407 -0.0515  0.2501
37100SOL    HW214703   9.265  10.341   8.854  0.1494  0.2163  0.3552
37101SOL     OW14704   6.953   5.603   9.493 -0.0547  0.4081  0.3543
37101SOL    HW114705   6.877   5.627   9.440  0.4845  0.4915 -0.4002
37101SOL    HW214706   6.968   5.679   9.549 -1.5387 -0.2656  1.7199
37102SOL     OW14707   3.019   8.214   0.645  0.1507  0.0282 -0.2622
37102SOL    HW114708   2.959   8.167   0.701 -0.7668  0.8313 -0.5432
37102SOL    HW214709   2.980   8.301   0.635  0.6833  0.1466 -1.5118
37103SOL     OW14710   1.487   5.252   1.848  0.1683 -0.4625  0.1236
37103SOL    HW114711   1.456   5.212   1.767 -1.5995  0.0074  0.5270
37103SOL    HW214712   1.578   5.276   1.830 -0.9043  2.1538 -2.7422
37104SOL     OW14713   1.139   3.359   5.579 -0.0456  0.1578  0.3235
37104SOL    HW114714   1.201   3.309   5.525  0.0007 -0.4937  0.9618
37104SOL    HW214715   1.081   3.401   5.516 -0.0953 -0.7271 -0.2389
37105SOL     OW14716   4.140   5.572   5.201  0.0217 -0.5798  0.2140
37105SOL    HW114717   4.050   5.573   5.234 -0.7325  1.5015 -1.6890
37105SOL    HW214718   4.138   5.506   5.131 -0.4528  0.5062 -0.8210
37106SOL     OW14719   8.332  10.402   3.732 -0.3562 -0.4361 -0.4776
37106SOL    HW114720   8.287  10.323   3.702  0.6591 -2.4998  2.9031
37106SOL    HW214721   8.424  10.389   3.706  0.1887 -1.4092  1.7241
37107SOL     OW14722   1.180   0.867   8.274  0.0972  0.2230 -0.7273
37107SOL    HW114723   1.186   0.786   8.324 -2.2177 -0.5187 -1.5294
37107SOL    HW214724   1.146   0.840   8.189 -0.0655  1.9589 -1.2531
37108SOL     OW14725   9.400   9.601   9.032  0.1378  0.1888  1.0536
37108SOL    HW114726   9.460   9.526   9.034 -0.5754 -0.4589  4.0572
37108SOL    HW214727   9.360   9.598   8.945  3.7613  0.1854 -0.7779
37109SOL     OW14728   1.170   1.068   1.505  0.2028  0.0813  0.2496
37109SOL    HW114729   1.221   0.996   1.543 -0.8756 -1.9416 -1.8784
37109SOL    HW214730   1.203   1.077   1.415 -1.3428  0.5516 -0.3094
37110SOL     OW14731   4.069   8.740   7.792 -0.3330 -0.0468 -0.8651
37110SOL    HW114732   4.151   8.745   7.840 -0.1363  1.0705 -1.2888
37110SOL    HW214733   4.050   8.646   7.786  0.5264 -0.2771 -0.1303
37111SOL     OW14734   0.510   0.770   9.523  0.1175 -0.8579 -0.0360
37111SOL    HW114735   0.569   0.775   9.448  0.9962 -0.3746  0.6586
37111SOL    HW214736   0.496   0.677   9.538 -1.0640 -0.9585 -1.5350
37112SOL     OW14737   6.794   9.821   4.353  0.1664  0.2020 -0.1661
37112SOL    HW114738   6.770   9.781   4.436 -1.2517  0.4558 -0.4346
37112SOL    HW214739   6.796   9.915   4.371 -0.5953  0.2944 -0.5076
37113SOL     OW14740   1.315  10.032   3.905  0.2485 -0.5906  0.0491
37113SOL    HW114741   1.402  10.056   3.874 -0.0559  0.2568 -0.1948
37113SOL    HW214742   1.256  10.079   3.846 -0.3822 -1.5959 -0.1405
37114SOL     OW14743   4.259   8.243   7.976  0.4906 -0.0858 -0.4706
37114SOL    HW114744   4.288   8.154   7.996  2.0408  0.2534 -1.1044
37114SOL    HW214745   4.170   8.232   7.942  1.3663 -1.6371 -2.4849
37115SOL     OW14746   7.996   1.538   4.157  0.0122 -0.0747  0.0961
37115SOL    HW114747   7.956   1.456   4.129  0.1968 -0.0359 -0.2905
37115SOL    HW214748   7.932   1.577   4.216  0.2073 -0.8110  0.8222
37116SOL     OW14749   4.349   3.795  10.358 -0.2021 -0.0425  0.2336
37116SOL    HW114750   4.430   3.777  10.311 -1.3473  0.1184 -1.8982
37116SOL    HW214751   4.376   3.851  10.431  1.6588 -0.4405 -0.0956
37117SOL     OW14752   6.244   8.006   5.783 -0.4429  0.0011 -0.0987
37117SOL    HW114753   6.156   8.030   5.812  0.0638  1.9070 -0.0144
37117SOL    HW214754   6.233   7.981   5.692 -1.3602 -1.7820  0.4517
37118SOL     OW14755   2.484   6.204   6.252 -0.6807 -0.6487 -0.0862
37118SOL    HW114756   2.452   6.263   6.319 -1.6598 -2.0817  0.7764
37118SOL    HW214757   2.536   6.259   6.194 -0.8016  0.8563  1.1661
37119SOL     OW14758   2.021   2.003   8.093 -0.0732  0.3061  0.3633
37119SOL    HW114759   1.982   1.959   8.018  0.3575  1.1514 -0.3675
37119SOL    HW214760   2.089   2.060   8.056  0.2370  0.6417  1.3965
37120SOL     OW14761  10.877   8.904   4.472 -0.1632  0.2279  0.1084
37120SOL    HW114762  10.906   8.988   4.436 -0.0601  0.4942  0.7984
37120SOL    HW214763  10.804   8.878   4.416 -0.9156  1.3234  0.5391
37121SOL     OW14764   1.773   1.709   7.366  0.0959  0.1707 -0.7586
37121SOL    HW114765   1.688   1.721   7.324 -1.2546 -0.8334  1.4806
37121SOL    HW214766   1.806   1.628   7.329 -0.6898 -0.2811 -0.5031
37122SOL     OW14767   1.276  10.292  10.237  0.2985  0.2268  0.5546
37122SOL    HW114768   1.347  10.344  10.199  1.4294 -0.9881  0.9238
37122SOL    HW214769   1.303  10.278  10.328 -0.7747  0.3424  0.9016
37123SOL     OW14770   8.463   2.077   4.036 -0.6059 -0.1173 -0.4281
37123SOL    HW114771   8.408   2.025   4.095 -0.5873 -0.4683 -0.7146
37123SOL    HW214772   8.521   2.012   3.996 -1.0267  0.0345 -1.2851
37124SOL     OW14773   5.481   2.060   0.198 -0.1295 -0.4827  0.1495
37124SOL    HW114774   5.514   2.131   0.253 -0.6430 -0.4951  0.4850
37124SOL    HW214775   5.525   1.982   0.230  1.0826 -0.2111 -0.7738
37125SOL     OW14776   9.392   8.550   2.057 -0.3355 -0.0628  0.0035
37125SOL    HW114777   9.393   8.549   1.961 -1.3096 -1.3985 -0.0178
37125SOL    HW214778   9.364   8.639   2.080 -0.0676  0.2744 -0.9427
37126SOL     OW14779   0.103   6.905   2.682  0.3726 -0.1725  0.6653
37126SOL    HW114780   0.165   6.974   2.660 -0.5200  0.3435 -0.2787
37126SOL    HW214781   0.055   6.939   2.758  0.3821 -0.0441  0.6126
37127SOL     OW14782   5.578   5.070   4.780 -0.9545 -0.0398  0.5772
37127SOL    HW114783   5.572   5.064   4.875 -1.0935  1.1790  0.6533
37127SOL    HW214784   5.669   5.095   4.764 -1.1028  0.4051  0.4250
37128SOL     OW14785   2.454   3.803   9.884  0.1394  0.9246 -0.5314
37128SOL    HW114786   2.489   3.768   9.803 -1.1763 -0.2632 -0.6198
37128SOL    HW214787   2.519   3.778   9.951 -1.2703 -2.9635 -0.3578
37129SOL     OW14788   2.162   8.839   5.982  0.3340 -0.1494  0.0862
37129SOL    HW114789   2.071   8.811   5.982  0.3095 -0.0783  0.4970
37129SOL    HW214790   2.187   8.840   6.074  0.7956 -0.3123 -0.0332
37130SOL     OW14791   1.395   9.304   4.353 -0.4953  0.1414 -0.0303
37130SOL    HW114792   1.300   9.296   4.348 -0.4400  0.0405 -1.1000
37130SOL    HW214793   1.410   9.393   4.385 -0.9449  0.5414 -0.9057
37131SOL     OW14794   0.929   6.233  10.202  0.1013  0.1555 -0.0930
37131SOL    HW114795   0.966   6.314  10.167 -0.1583  0.9961  1.4986
37131SOL    HW214796   0.863   6.207  10.138  0.7077  0.7808 -0.9969
37132SOL     OW14797   4.466   2.650   0.003 -0.2116  0.1873 -1.0303
37132SOL    HW114798   4.505   2.609   0.081 -0.1307  1.2048 -0.5199
37132SOL    HW214799   4.501   2.599  -0.070  1.5251  0.5952 -0.5497
37133SOL     OW14800   2.098   5.365  10.646 -0.2562  0.0307 -0.0274
37133SOL    HW114801   2.097   5.270  10.633 -0.3416  0.0913 -0.5070
37133SOL    HW214802   2.007   5.392  10.634 -0.1790  0.2112 -0.2253
37134SOL     OW14803   6.384   7.526   1.378 -0.1912  0.5603 -0.0153
37134SOL    HW114804   6.293   7.523   1.349 -0.3383  0.2815  0.4774
37134SOL    HW214805   6.383   7.585   1.453  0.1021  0.8556 -0.2396
37135SOL     OW14806   5.858   3.761   8.897  0.1359  0.5057 -0.0546
37135SOL    HW114807   5.778   3.736   8.851 -0.4024  0.7866  0.7019
37135SOL    HW214808   5.828   3.812   8.972  0.7330 -2.3847  2.3485
37136SOL     OW14809   0.842   4.821   8.627  0.0775  0.4114 -0.0125
37136SOL    HW114810   0.885   4.753   8.576  0.0061  0.3952 -0.0516
37136SOL    HW214811   0.870   4.806   8.717  0.3905  0.5815 -0.0780
37137SOL     OW14812  10.788   3.028   2.913  0.3422 -0.6788 -0.1440
37137SOL    HW114813  10.818   3.109   2.871  2.0102 -0.8663  0.6336
37137SOL    HW214814  10.749   2.977   2.842 -1.4440  1.0759 -0.5293
37138SOL     OW14815   1.451   4.308   0.856  0.0329 -0.3826  0.0846
37138SOL    HW114816   1.474   4.251   0.783 -3.0343 -2.5151  0.6092
37138SOL    HW214817   1.367   4.346   0.831  0.7014  1.8299  0.9618
37139SOL     OW14818   6.775   9.384   2.807 -0.0446 -0.2259  0.1137
37139SOL    HW114819   6.681   9.386   2.823  0.0815 -0.1179  0.8574
37139SOL    HW214820   6.784   9.414   2.716 -0.5870  1.5789  0.6254
37140SOL     OW14821   7.396   4.984   4.828  0.2611 -0.5413 -0.1165
37140SOL    HW114822   7.353   4.900   4.848  0.2643 -0.7408 -0.8814
37140SOL    HW214823   7.468   4.990   4.891 -0.6349 -0.3995  0.9139
37141SOL     OW14824   4.022   3.391   6.452  0.1277 -0.4608  0.0000
37141SOL    HW114825   4.053   3.477   6.423  1.6805 -1.1339 -0.4564
37141SOL    HW214826   3.927   3.400   6.459  0.2498  1.2227 -0.2478
37142SOL     OW14827   9.612   8.468   3.007 -0.3204  0.4065  0.0108
37142SOL    HW114828   9.532   8.455   3.057 -1.8170  0.4818 -2.2174
37142SOL    HW214829   9.671   8.512   3.068 -1.1816 -1.4748  2.3670
37143SOL     OW14830   3.287   3.524   5.280  0.1004  0.0315 -0.1471
37143SOL    HW114831   3.219   3.513   5.213 -1.1207  1.2827  0.8214
37143SOL    HW214832   3.239   3.523   5.363  1.4637 -0.5390  0.6574
37144SOL     OW14833   3.117   4.339   5.512  0.1153 -0.0714  0.3020
37144SOL    HW114834   3.203   4.381   5.519 -0.3575  1.0607 -0.4393
37144SOL    HW214835   3.057   4.410   5.492 -0.9304 -0.9205  0.3380
37145SOL     OW14836   6.595   0.292   3.612 -0.2798 -0.3818 -0.1967
37145SOL    HW114837   6.559   0.380   3.599 -0.7631 -0.4405  0.6596
37145SOL    HW214838   6.524   0.243   3.654 -1.0940 -2.0274 -3.1391
37146SOL     OW14839   3.208   9.505   5.936  0.3120 -1.1184  0.5543
37146SOL    HW114840   3.259   9.556   6.000  2.0457 -2.7826  0.5635
37146SOL    HW214841   3.195   9.420   5.977 -2.0403 -0.9453  0.2931
37147SOL     OW14842   0.563   8.891   9.952 -0.1237  0.1847  0.0498
37147SOL    HW114843   0.628   8.906  10.021 -0.7020  1.2294  0.3937
37147SOL    HW214844   0.614   8.898   9.871  0.3439  0.1941  0.3354
37148SOL     OW14845   5.179  10.447   5.025 -0.2930  0.0479  0.1247
37148SOL    HW114846   5.116  10.422   5.093  0.7148  1.5008  1.6964
37148SOL    HW214847   5.155  10.537   5.002 -0.8048 -0.5224 -1.7163
37149SOL     OW14848   4.639   1.618   6.979 -0.1680 -0.3219 -0.0632
37149SOL    HW114849   4.597   1.604   7.064 -1.0609  0.9044 -0.2696
37149SOL    HW214850   4.718   1.668   6.998 -0.6504  0.4289  0.0157
37150SOL     OW14851   8.563   9.622   0.151 -1.2273  0.7755  0.4604
37150SOL    HW114852   8.532   9.580   0.071 -2.7808  1.1682  0.8260
37150SOL    HW214853   8.495   9.685   0.173  0.2173  2.2526  0.9062
37151SOL     OW14854   6.867   0.853   6.817 -0.4949  0.0374  0.7223
37151SOL    HW114855   6.947   0.800   6.823 -1.2077 -1.0666  0.8923
37151SOL    HW214856   6.852   0.863   6.723 -0.4703 -0.2610  0.6845
37152SOL     OW14857   6.003   1.706   0.165  0.1139  0.0485  0.0393
37152SOL    HW114858   5.990   1.770   0.095 -1.8262 -0.2038  0.1184
37152SOL    HW214859   6.007   1.758   0.245 -0.2740  0.1572 -0.0119
37153SOL     OW14860   4.928   7.107   9.135 -0.5763  0.1444  0.2007
37153SOL    HW114861   5.014   7.064   9.132 -0.5390 -0.0443  2.2695
37153SOL    HW214862   4.874   7.057   9.073 -0.2015 -2.2438  1.6359
37154SOL     OW14863   3.086   6.709   6.391 -0.3166  0.2026  0.1189
37154SOL    HW114864   3.023   6.654   6.344 -1.3418 -0.0477  1.7284
37154SOL    HW214865   3.039   6.791   6.407  1.1668  1.6159 -2.1768
37155SOL     OW14866   0.263   5.493   1.630  0.3100  0.5562 -0.4144
37155SOL    HW114867   0.266   5.406   1.590  1.2784  1.0009 -1.3665
37155SOL    HW214868   0.209   5.545   1.571 -2.4156  0.0280  1.4455
37156SOL     OW14869   1.348   6.671   2.267 -0.5100  0.0100 -0.1391
37156SOL    HW114870   1.433   6.697   2.231 -0.2833  0.7309  0.8869
37156SOL    HW214871   1.284   6.713   2.209 -0.1506  1.0597  0.2152
37157SOL     OW14872   5.993   5.843   3.886  0.2423  0.3346  0.6162
37157SOL    HW114873   6.011   5.864   3.978  0.6153 -0.3618  0.7088
37157SOL    HW214874   6.069   5.876   3.838  1.0495 -1.1618  0.8162
37158SOL     OW14875   3.916   2.044   1.716 -0.1108 -0.2130  0.5640
37158SOL    HW114876   3.842   2.036   1.655 -0.0405 -0.3391  0.4944
37158SOL    HW214877   3.944   1.954   1.732 -0.1627 -0.1837  0.8269
37159SOL     OW14878   1.586   9.574  10.730 -0.0268  0.2961 -0.1963
37159SOL    HW114879   1.580   9.512  10.657  2.8816  0.3466 -0.5769
37159SOL    HW214880   1.655   9.539  10.786 -0.3695  1.6762  1.1602
37160SOL     OW14881  10.388  10.914   2.625 -0.2212 -0.3982 -0.5482
37160SOL    HW114882  10.375  10.819   2.614  1.6888 -0.5972 -1.5774
37160SOL    HW214883  10.381  10.949   2.536 -0.9803  0.4524 -0.1628
37161SOL     OW14884   0.739   1.371  10.638 -1.1512 -0.1027  0.3347
37161SOL    HW114885   0.814   1.398  10.692  0.0219  2.4195 -2.2803
37161SOL    HW214886   0.675   1.338  10.701  0.6678  1.2164  3.0998
37162SOL     OW14887   9.592   0.546   4.465 -0.1774 -0.0201  0.6198
37162SOL    HW114888   9.583   0.451   4.461  1.2413 -0.1297 -2.1477
37162SOL    HW214889   9.673   0.561   4.514 -0.2462 -0.2423  0.8040
37163SOL     OW14890   9.082   9.361   5.108 -0.1194  0.4767  0.7497
37163SOL    HW114891   9.003   9.346   5.161  0.5647 -0.4816  1.5174
37163SOL    HW214892   9.137   9.285   5.124  1.4481  1.6442  1.0828
37164SOL     OW14893   8.979   5.119   2.960 -0.1411  0.7247 -0.0682
37164SOL    HW114894   8.885   5.134   2.954  0.0208  1.4262 -1.3440
37164SOL    HW214895   8.993   5.086   3.049 -1.2842  2.7710  0.9365
37165SOL     OW14896   7.353   0.599  10.694 -0.2764 -0.1264  0.2239
37165SOL    HW114897   7.321   0.680  10.732  0.1828 -0.5959  1.6754
37165SOL    HW214898   7.328   0.604  10.602  0.9058  2.2622 -0.0491
37166SOL     OW14899   3.473   2.721   4.281 -0.0598 -0.5871  0.5691
37166SOL    HW114900   3.453   2.638   4.237 -1.0874 -0.1588  0.2211
37166SOL    HW214901   3.390   2.768   4.284  0.7347  0.9337 -0.2900
37167SOL     OW14902   7.097   9.908   9.075  0.0062  0.1638  0.4817
37167SOL    HW114903   7.030   9.968   9.043  0.1335 -0.6827 -1.5575
37167SOL    HW214904   7.087   9.908   9.170 -0.7713  2.4636  0.4448
37168SOL     OW14905   2.445  10.028   0.787 -0.3753 -0.0136  0.0299
37168SOL    HW114906   2.358   9.996   0.760 -0.6961  0.2083  0.7668
37168SOL    HW214907   2.463  10.100   0.728 -0.4614 -0.3889 -0.4659
37169SOL     OW14908   1.795   1.812   4.741  0.6096 -0.4707 -0.1732
37169SOL    HW114909   1.876   1.761   4.737  1.1095  0.3367 -0.4931
37169SOL    HW214910   1.824   1.903   4.750 -0.2747 -0.2685  0.7508
37170SOL     OW14911   4.056   7.621   7.858 -0.0680  0.1147  0.5849
37170SOL    HW114912   4.085   7.596   7.771 -0.6263  0.0502  0.4139
37170SOL    HW214913   4.135   7.622   7.911  0.8473  3.1878 -0.6033
37171SOL     OW14914   2.494   4.160   9.621 -0.2521  0.2073  0.3875
37171SOL    HW114915   2.446   4.126   9.545 -0.1919 -1.8813  1.2215
37171SOL    HW214916   2.558   4.092   9.641 -0.3455  0.6686  2.3744
37172SOL     OW14917   8.487   2.095   1.975  0.1908 -0.2912  0.0049
37172SOL    HW114918   8.424   2.071   2.043 -0.3888  1.6677  0.2312
37172SOL    HW214919   8.448   2.063   1.894  0.1798 -1.3686  0.4208
37173SOL     OW14920   7.227   2.104   9.170 -0.5863 -0.2716  0.2825
37173SOL    HW114921   7.264   2.157   9.240  1.4183 -0.8078 -0.3236
37173SOL    HW214922   7.299   2.050   9.139 -1.7590 -1.0199 -1.3112
37174SOL     OW14923   9.955   5.028   7.090 -0.3009 -0.2919 -0.1058
37174SOL    HW114924   9.987   5.118   7.088  0.3793 -0.5179  0.3321
37174SOL    HW214925   9.987   4.993   7.173 -0.5877 -0.9295 -0.2599
37175SOL     OW14926   2.466   7.271   9.572 -0.1755 -0.3001 -0.3748
37175SOL    HW114927   2.498   7.361   9.571  0.1380 -0.4028 -1.5207
37175SOL    HW214928   2.385   7.275   9.623  0.5368  0.3593  0.7478
37176SOL     OW14929   5.457   6.994   5.616  0.2470 -0.3045 -0.7362
37176SOL    HW114930   5.532   6.937   5.598  0.1877 -0.0119 -2.0091
37176SOL    HW214931   5.490   7.057   5.680  1.3888  0.3777 -1.9481
37177SOL     OW14932   3.200   4.439   5.252 -0.0265  0.2504  0.2879
37177SOL    HW114933   3.248   4.394   5.183  0.8707  1.3022  0.2068
37177SOL    HW214934   3.228   4.397   5.333 -0.4281 -0.4039  0.0997
37178SOL     OW14935   2.274   5.286   8.720  0.0899  0.0240  0.1948
37178SOL    HW114936   2.233   5.246   8.796 -0.3865  1.5740  0.7878
37178SOL    HW214937   2.359   5.315   8.751  0.0193  0.3881  0.0477
37179SOL     OW14938   7.924  10.072   4.688  0.6583 -0.1123  0.0806
37179SOL    HW114939   8.017  10.086   4.705  0.5221  1.3524 -0.2309
37179SOL    HW214940   7.919  10.048   4.596  0.8802 -2.3484  0.5841
37180SOL     OW14941   1.132   7.108   4.026  0.1430 -0.2585  0.2927
37180SOL    HW114942   1.063   7.047   4.000 -0.5024  0.8033 -0.5835
37180SOL    HW214943   1.165   7.073   4.109 -0.5693 -1.4867  0.0846
37181SOL     OW14944   1.747   0.068   1.304  0.0161 -0.8371 -0.6689
37181SOL    HW114945   1.698  -0.011   1.281 -0.0238 -0.8601 -0.5065
37181SOL    HW214946   1.743   0.071   1.400  0.8222 -1.1593 -0.6198
37182SOL     OW14947   3.914   8.240   4.386 -0.2407  0.2326 -0.1812
37182SOL    HW114948   3.823   8.226   4.414  0.0675 -1.1550  0.2351
37182SOL    HW214949   3.919   8.198   4.300 -0.1542  0.8764 -0.4919
37183SOL     OW14950   8.201   3.102   5.639 -0.2415  0.0860  0.6077
37183SOL    HW114951   8.208   3.086   5.733  0.7604 -0.0399  0.5214
37183SOL    HW214952   8.230   3.020   5.598 -1.5827 -0.1988  0.1796
37184SOL     OW14953   1.593   6.712   1.686  0.0353 -0.0539 -0.1046
37184SOL    HW114954   1.618   6.797   1.721 -1.1970 -0.1112  0.9753
37184SOL    HW214955   1.554   6.732   1.601 -4.2673  1.0587  1.8895
37185SOL     OW14956   0.283   7.995  10.196  0.0803 -0.0999 -0.5429
37185SOL    HW114957   0.221   7.964  10.263  1.1562 -0.4801  0.3032
37185SOL    HW214958   0.232   8.057  10.143 -1.0662 -0.5273  0.0308
37186SOL     OW14959   9.314   5.810   4.016  0.6958  0.2577 -0.1647
37186SOL    HW114960   9.331   5.904   4.013  0.4552  0.4074  1.6410
37186SOL    HW214961   9.219   5.803   4.023  0.6830 -0.1412 -0.6937
37187SOL     OW14962   7.665   5.972   3.290  0.3548 -0.6678 -0.0226
37187SOL    HW114963   7.666   5.953   3.196  2.1458  0.4661 -0.2908
37187SOL    HW214964   7.699   5.892   3.331  1.2073 -0.5702 -0.5097
37188SOL     OW14965   1.658  10.598   8.197 -0.3299 -0.4714 -0.8207
37188SOL    HW114966   1.582  10.541   8.203 -1.1447  0.4231 -1.9212
37188SOL    HW214967   1.620  10.686   8.190  0.7291 -0.0977 -2.5195
37189SOL     OW14968  10.148  10.793   2.181  0.3339  0.8539 -0.3169
37189SOL    HW114969  10.094  10.843   2.120  1.4047  1.7186 -0.5777
37189SOL    HW214970  10.146  10.844   2.262  1.1970  1.1933 -0.4975
37190SOL     OW14971   9.976   0.726   9.725  0.3272  0.7696 -0.6351
37190SOL    HW114972   9.889   0.724   9.764  0.1893 -1.0269 -0.9391
37190SOL    HW214973   9.983   0.813   9.687 -0.2598  1.9206  1.7018
37191SOL     OW14974   0.448   6.026   7.784 -0.2349  0.0386  0.0403
37191SOL    HW114975   0.392   5.984   7.850 -1.4777  0.2514 -0.8400
37191SOL    HW214976   0.412   6.114   7.775  1.6794  0.9835  1.0871
37192SOL     OW14977   4.958   1.358   9.561  0.5649 -0.0470 -0.7352
37192SOL    HW114978   5.002   1.325   9.639 -1.1142  0.1451  0.3545
37192SOL    HW214979   5.002   1.315   9.488  1.0373 -1.5975  0.4204
37193SOL     OW14980   9.206   6.632   4.653  0.1832 -0.3774 -0.3214
37193SOL    HW114981   9.217   6.615   4.747  1.4896  0.9966 -0.1874
37193SOL    HW214982   9.229   6.550   4.611 -0.5801 -1.0635  0.5646
37194SOL     OW14983   0.115   5.001   4.051 -0.1339 -0.2323 -0.2270
37194SOL    HW114984   0.052   4.947   4.098  0.3388  0.4753  1.2937
37194SOL    HW214985   0.198   4.954   4.059 -0.4130 -1.1596 -2.2167
37195SOL     OW14986   5.170   2.724   6.669 -0.0607  0.5292  0.0748
37195SOL    HW114987   5.177   2.662   6.597  0.7518 -0.2309  0.7789
37195SOL    HW214988   5.235   2.792   6.650 -0.0832  0.5085 -0.0747
37196SOL     OW14989   3.058   4.204   8.350 -0.0668  0.0396  0.4344
37196SOL    HW114990   3.088   4.295   8.343 -0.1471 -0.0278 -1.0933
37196SOL    HW214991   3.105   4.158   8.281 -0.1771 -1.0538  1.0631
37197SOL     OW14992   7.574   3.585   4.064  0.0443  0.1644 -0.0512
37197SOL    HW114993   7.480   3.582   4.044 -0.0063  3.7706 -0.9121
37197SOL    HW214994   7.617   3.572   3.980  0.2535  0.5901 -0.0110
37198SOL     OW14995   6.220   4.598   9.011 -0.0343  0.1864  0.0020
37198SOL    HW114996   6.159   4.605   9.085 -0.5621 -2.5288 -0.0841
37198SOL    HW214997   6.168   4.559   8.941  0.9522  1.0318 -1.2333
37199SOL     OW14998   8.428   0.604   7.016 -0.0795 -0.6959 -0.2793
37199SOL    HW114999   8.364   0.665   6.978 -0.0469 -0.7535 -0.4272
37199SOL    HW215000   8.381   0.563   7.089  0.1210 -0.0083  0.2429
37200SOL     OW15001   2.727   3.190   6.689 -0.0499 -0.2205 -0.0567
37200SOL    HW115002   2.820   3.190   6.710  0.2728 -0.6873 -1.3877
37200SOL    HW215003   2.698   3.100   6.707  0.5838 -1.1024 -2.8073
37201SOL     OW15004   2.709  10.868   2.150 -1.1202  0.2075  0.4906
37201SOL    HW115005   2.731  10.787   2.103  0.0607  2.2823 -2.9503
37201SOL    HW215006   2.707  10.843   2.242  4.6677 -2.7550  0.2760
37202SOL     OW15007   3.765   5.493   9.564 -0.6542  0.8722  0.2992
37202SOL    HW115008   3.692   5.500   9.626 -1.1217  0.8855 -0.2470
37202SOL    HW215009   3.732   5.437   9.494 -0.1950  1.0113 -0.0316
37203SOL     OW15010   9.838   5.809   5.322 -0.2025 -0.7407 -0.3124
37203SOL    HW115011   9.853   5.895   5.362 -0.5572 -0.7858 -0.0793
37203SOL    HW215012   9.779   5.827   5.249  1.0906 -0.5378 -1.3334
37204SOL     OW15013   6.652   6.090   2.740  0.2566  0.0501  0.0361
37204SOL    HW115014   6.598   6.021   2.703  0.0646 -0.4562  1.1975
37204SOL    HW215015   6.719   6.043   2.791  0.4960  0.7078  0.3389
37205SOL     OW15016   7.551   5.238   0.660  0.2077 -0.0209 -0.6871
37205SOL    HW115017   7.620   5.297   0.688 -1.5134  2.2656 -0.9433
37205SOL    HW215018   7.520   5.196   0.740 -0.1512  1.3147 -0.1004
37206SOL     OW15019   0.628  10.396   1.601  0.1353 -0.1875  0.2505
37206SOL    HW115020   0.535  10.376   1.607  0.2440 -0.9089 -0.2771
37206SOL    HW215021   0.655  10.416   1.691 -0.4786 -0.1864  0.4332
37207SOL     OW15022   6.828   8.992   3.640 -0.9972 -0.2196  0.4096
37207SOL    HW115023   6.886   9.010   3.566 -1.3805 -1.0191 -0.0933
37207SOL    HW215024   6.886   8.955   3.706 -0.9789 -1.3100 -0.2081
37208SOL     OW15025  10.096   7.239  10.313  0.0086 -0.3195 -0.0620
37208SOL    HW115026  10.105   7.297  10.237 -0.4773  0.8260  0.7353
37208SOL    HW215027  10.018   7.271  10.358  2.3608  1.5576  3.0567
37209SOL     OW15028   8.477   6.667   3.675  0.0285 -0.1998  0.5369
37209SOL    HW115029   8.497   6.755   3.643 -2.5377  0.3465  0.1637
37209SOL    HW215030   8.420   6.681   3.751  0.6047 -1.5468  1.2484
37210SOL     OW15031   9.419   6.764   0.764  0.1633  0.0645 -0.1034
37210SOL    HW115032   9.380   6.680   0.738 -1.1678  0.1720  1.3795
37210SOL    HW215033   9.474   6.742   0.839  1.6125  0.2021 -1.0940
37211SOL     OW15034   1.697   3.563   3.103 -0.6214 -0.8298  0.2282
37211SOL    HW115035   1.619   3.528   3.061 -0.6204  0.3880 -0.8713
37211SOL    HW215036   1.684   3.658   3.101  0.7584 -0.6214  0.2767
37212SOL     OW15037   3.805  10.539   8.766  0.0746  0.5226  0.2985
37212SOL    HW115038   3.791  10.576   8.853  1.5837  1.6500  0.1121
37212SOL    HW215039   3.899  10.528   8.759 -0.1266 -0.8821 -0.6969
37213SOL     OW15040   2.228   2.631   3.551 -0.7107 -0.1768 -0.4830
37213SOL    HW115041   2.300   2.693   3.561 -1.0246  0.0452  0.4415
37213SOL    HW215042   2.238   2.597   3.461  1.3635 -1.1946  0.0672
37214SOL     OW15043  10.151   8.286   2.455 -0.0415 -0.0732  0.5487
37214SOL    HW115044  10.227   8.337   2.481 -0.0821 -0.5608  1.6761
37214SOL    HW215045  10.131   8.231   2.531 -1.9377  0.5318  0.5617
37215SOL     OW15046   7.960   4.542   0.904  0.2723 -0.1230  0.3881
37215SOL    HW115047   7.917   4.611   0.954  0.8404  0.5580 -0.0470
37215SOL    HW215048   7.917   4.543   0.819 -0.1005 -0.6929  0.5641
37216SOL     OW15049   9.369   3.942   1.096  0.0649 -0.1133  0.0992
37216SOL    HW115050   9.422   3.925   1.173  0.1456  0.0391  0.0774
37216SOL    HW215051   9.396   3.876   1.032 -0.7832 -0.9484  0.5815
37217SOL     OW15052   6.350  10.860   9.455 -0.4776  0.0570 -0.1900
37217SOL    HW115053   6.427  10.890   9.408  0.2850 -1.6018 -0.0688
37217SOL    HW215054   6.384  10.799   9.521 -1.8211 -0.1722  0.3272
37218SOL     OW15055   2.546   3.904   4.740 -0.1385 -0.2747  0.1651
37218SOL    HW115056   2.502   3.849   4.805 -1.6309 -0.2191 -0.7360
37218SOL    HW215057   2.482   3.973   4.720  1.2999  1.2196  0.5255
37219SOL     OW15058   2.335   8.030   7.358  0.1808  0.1252  0.2036
37219SOL    HW115059   2.358   7.994   7.272 -0.3211 -1.0304  0.5389
37219SOL    HW215060   2.419   8.050   7.399  0.4318  0.4409 -0.4561
37220SOL     OW15061   7.023   2.236  10.894  0.1740 -0.4972 -0.2816
37220SOL    HW115062   6.997   2.309  10.951 -2.3004 -0.3099 -1.5438
37220SOL    HW215063   7.111   2.259  10.866  0.4248  0.7365  1.3285
37221SOL     OW15064   0.565   7.333   1.066 -0.4009 -0.0628  0.1052
37221SOL    HW115065   0.622   7.289   1.129 -0.1470 -1.3468 -0.9707
37221SOL    HW215066   0.619   7.405   1.032 -0.1507 -0.0357  0.5528
37222SOL     OW15067   3.351   6.286   1.624 -0.3338 -0.1604  0.1428
37222SOL    HW115068   3.435   6.249   1.599  0.1043  0.6117  0.4347
37222SOL    HW215069   3.289   6.214   1.615  0.8160 -1.5851  2.6589
37223SOL     OW15070   8.782   1.737   4.627 -0.1522  0.2702  0.1563
37223SOL    HW115071   8.877   1.723   4.632 -0.1575  0.3995  0.6607
37223SOL    HW215072   8.746   1.675   4.691 -0.3677  0.6282  0.3799
37224SOL     OW15073  10.377   0.383   3.488 -0.0034  0.5408 -0.1150
37224SOL    HW115074  10.330   0.301   3.502  1.4447 -0.2892  0.0993
37224SOL    HW215075  10.352   0.438   3.562 -0.4843  0.0564  0.0899
37225SOL     OW15076  10.731   6.374   2.217  0.0226  0.4645 -0.4322
37225SOL    HW115077  10.755   6.466   2.211  0.1618  0.5399  0.9852
37225SOL    HW215078  10.797   6.329   2.164  0.4032  1.1064 -0.5173
37226SOL     OW15079   6.638   7.864   0.204 -0.2626  0.0221 -0.1833
37226SOL    HW115080   6.687   7.784   0.189  0.0201  0.2192 -0.3202
37226SOL    HW215081   6.574   7.867   0.132  0.9009  0.8171 -1.2247
37227SOL     OW15082   9.471   7.532   2.730  0.3145 -0.5620 -0.2112
37227SOL    HW115083   9.459   7.557   2.638 -1.5594  1.0776  0.4285
37227SOL    HW215084   9.500   7.612   2.773  0.1935 -1.0547  0.8054
37228SOL     OW15085   4.201   9.204   4.712  0.1812 -0.8863 -0.9162
37228SOL    HW115086   4.278   9.242   4.670 -0.3918 -0.5120 -1.6487
37228SOL    HW215087   4.200   9.113   4.682 -1.3164 -0.1416 -3.3765
37229SOL     OW15088   8.286   4.993   6.166 -0.1527  0.0281  0.6414
37229SOL    HW115089   8.266   4.960   6.254 -1.3689  0.4441  0.5426
37229SOL    HW215090   8.300   5.087   6.178  1.0461 -0.1288  0.5818
37230SOL     OW15091   7.952   0.909   4.953 -0.8205  0.2957  0.3403
37230SOL    HW115092   7.906   0.838   4.998 -1.0502  0.8047  0.9174
37230SOL    HW215093   8.035   0.917   5.000  0.9555 -2.1193 -2.0331
37231SOL     OW15094   3.793   7.187  10.515 -0.0657  0.8813  0.0364
37231SOL    HW115095   3.750   7.225  10.438 -0.9384  0.6627  0.4085
37231SOL    HW215096   3.795   7.093  10.497 -0.3172  0.8249  0.3046
37232SOL     OW15097   7.502   5.466   8.365  0.6240  0.2201  0.4647
37232SOL    HW115098   7.574   5.455   8.427  0.4105 -0.8336  0.5495
37232SOL    HW215099   7.523   5.405   8.294 -1.4341 -2.0710  1.6789
37233SOL     OW15100   7.412   9.497   5.041  0.2624  0.2331  0.1725
37233SOL    HW115101   7.454   9.578   5.010 -0.8845  0.3345 -1.2577
37233SOL    HW215102   7.344   9.480   4.975 -0.9394 -0.7156  1.6172
37234SOL     OW15103  10.127   9.815   4.230 -0.5039  0.2201 -0.0298
37234SOL    HW115104  10.042   9.789   4.266 -0.2647 -2.3109 -1.0997
37234SOL    HW215105  10.108   9.838   4.139 -0.3163  1.6475  0.2665
37235SOL     OW15106   7.922   4.524   3.492  0.3690  0.4108 -0.1160
37235SOL    HW115107   7.914   4.614   3.459  2.6242  0.2501 -1.3404
37235SOL    HW215108   7.996   4.528   3.553 -1.2154 -0.1353  1.9474
37236SOL     OW15109   6.963   4.308   2.492 -0.4090 -0.3554 -0.3869
37236SOL    HW115110   6.973   4.394   2.451  0.1659 -0.6623 -0.9214
37236SOL    HW215111   6.924   4.325   2.577  0.6816  0.5348 -0.0520
37237SOL     OW15112   4.012   9.749   2.822 -0.0917 -0.0074  0.7628
37237SOL    HW115113   3.929   9.721   2.784 -0.1223  2.2869 -1.1474
37237SOL    HW215114   4.003   9.844   2.832  1.7772  0.0992  1.8875
37238SOL     OW15115   7.267   4.492   1.851 -0.3273  0.4064  0.4126
37238SOL    HW115116   7.235   4.403   1.867  1.7737 -0.2303  1.3671
37238SOL    HW215117   7.231   4.515   1.765 -1.9440 -0.8382  0.6977
37239SOL     OW15118   7.450  10.464   0.473  0.4084  0.1946 -0.3005
37239SOL    HW115119   7.421  10.535   0.416  0.9854 -0.6705 -1.7381
37239SOL    HW215120   7.535  10.439   0.438  1.1295  0.1141  1.4387
37240SOL     OW15121   2.418  10.460   6.631  0.0182  0.6810  0.1272
37240SOL    HW115122   2.486  10.505   6.581  0.9437  1.1825  1.7704
37240SOL    HW215123   2.337  10.506   6.609  0.2879  0.4564 -1.3939
37241SOL     OW15124   9.664   5.172   2.802  0.6407 -0.2544  0.4742
37241SOL    HW115125   9.634   5.134   2.884  0.4850  0.6957  0.8735
37241SOL    HW215126   9.585   5.177   2.747  0.3276  0.8708  0.9836
37242SOL     OW15127   5.246   8.601   9.100  0.4518 -0.4601  0.3428
37242SOL    HW115128   5.241   8.540   9.027  1.1319 -0.2961  0.1579
37242SOL    HW215129   5.199   8.679   9.070  0.3473 -0.5603  0.2471
37243SOL     OW15130   0.251   6.914   4.563 -0.6395 -0.0585 -0.0816
37243SOL    HW115131   0.176   6.928   4.622  0.5882  2.5401  1.0064
37243SOL    HW215132   0.252   6.991   4.506  0.4483 -0.6973 -0.9719
37244SOL     OW15133   1.535   5.374   9.801  0.2490 -0.3824 -0.1886
37244SOL    HW115134   1.494   5.417   9.875 -0.6950 -1.2564 -0.1955
37244SOL    HW215135   1.564   5.289   9.834 -0.5348 -0.9431 -0.9061
37245SOL     OW15136   2.768   5.705   5.776 -0.2703 -0.1311 -0.3883
37245SOL    HW115137   2.755   5.780   5.719  1.0052  0.1922 -0.2912
37245SOL    HW215138   2.772   5.742   5.864 -0.7712 -0.4560 -0.2213
37246SOL     OW15139   3.978  10.884   9.490 -0.1823 -0.1014  0.5271
37246SOL    HW115140   4.014  10.795   9.482  0.2106  0.1481 -0.6031
37246SOL    HW215141   4.023  10.921   9.567  1.8350  0.1084 -0.6683
37247SOL     OW15142   9.649   6.106   8.156 -0.5271  0.4246  0.0591
37247SOL    HW115143   9.687   6.177   8.207 -1.9706  0.7973  0.6673
37247SOL    HW215144   9.724   6.062   8.116  0.4596  1.6812  0.4585
37248SOL     OW15145  10.794   5.521  10.601 -0.5817  0.0615 -0.0219
37248SOL    HW115146  10.705   5.549  10.620 -0.2328  1.1577  0.0334
37248SOL    HW215147  10.801   5.435  10.642 -1.3816  0.2754  0.5881
37249SOL     OW15148   1.099  10.272   7.482 -0.2743 -0.4042  0.3304
37249SOL    HW115149   1.006  10.264   7.504 -0.5438  3.3071  1.2276
37249SOL    HW215150   1.143  10.222   7.550 -1.5891  0.3190  1.7976
37250SOL     OW15151   9.751   1.750   5.752  0.3245  0.2715  0.5721
37250SOL    HW115152   9.740   1.813   5.824 -0.5429  1.2620 -0.3940
37250SOL    HW215153   9.668   1.703   5.748 -0.2432  1.3138 -0.7533
37251SOL     OW15154  10.255   0.033   4.442 -0.1641  0.0681  0.6992
37251SOL    HW115155  10.228   0.067   4.357  1.5722 -1.7051 -0.6673
37251SOL    HW215156  10.175  -0.003   4.480 -1.6275  3.6819  1.3376
37252SOL     OW15157   5.662   7.563   1.968  0.4286  0.0179  0.0585
37252SOL    HW115158   5.626   7.476   1.949  2.0029 -0.9917  1.3991
37252SOL    HW215159   5.595   7.624   1.937 -1.2573 -1.6860  0.1484
37253SOL     OW15160   9.278   4.386   2.781 -0.0038  0.5353 -0.2886
37253SOL    HW115161   9.189   4.420   2.788 -0.1642  0.1379 -0.3840
37253SOL    HW215162   9.271   4.294   2.806  0.2147  0.2567 -1.2153
37254SOL     OW15163   4.712  10.087   6.867  0.4300 -0.0547 -0.0846
37254SOL    HW115164   4.772  10.046   6.929 -1.3643 -0.8834  1.1978
37254SOL    HW215165   4.649  10.018   6.846  1.1579  0.0817 -3.1665
37255SOL     OW15166   7.172   5.999   8.020  0.2802 -0.0090  0.3218
37255SOL    HW115167   7.136   5.982   8.108 -0.7655 -0.5702 -0.1990
37255SOL    HW215168   7.249   6.053   8.036 -0.5004  0.7968  1.5257
37256SOL     OW15169   5.760   8.254   0.756 -0.7161  0.1826  0.3079
37256SOL    HW115170   5.854   8.270   0.744 -0.6142  0.0728  0.8857
37256SOL    HW215171   5.752   8.159   0.758 -0.8400  0.1924  0.2276
37257SOL     OW15172   6.455   2.766   6.178 -0.1170 -0.1676 -0.2651
37257SOL    HW115173   6.445   2.703   6.249 -0.9674  0.6175  0.3394
37257SOL    HW215174   6.367   2.779   6.144  0.2403 -0.3398 -1.3232
37258SOL     OW15175   7.934   5.157  10.339  0.2823 -0.8411 -0.4783
37258SOL    HW115176   7.897   5.109  10.265  0.4131 -0.2694 -0.9243
37258SOL    HW215177   7.927   5.097  10.413 -1.0528 -0.9390 -0.6647
37259SOL     OW15178   1.507   3.473   2.741  0.6933 -0.2610 -0.6255
37259SOL    HW115179   1.553   3.471   2.657  1.6763 -0.8843 -0.0845
37259SOL    HW215180   1.533   3.392   2.784  1.6911  0.9197  1.0779
37260SOL     OW15181   6.806   0.142   4.421  0.0418 -0.4490  0.3959
37260SOL    HW115182   6.888   0.103   4.453  0.6543 -0.6149 -1.2955
37260SOL    HW215183   6.786   0.094   4.341 -0.7351  0.7855 -0.1833
37261SOL     OW15184   3.572   6.284   8.406  0.5592  0.5962 -0.5142
37261SOL    HW115185   3.504   6.229   8.445 -1.0222  1.4833 -1.8853
37261SOL    HW215186   3.647   6.226   8.397  0.4642 -0.0836  2.2403
37262SOL     OW15187   8.673   7.733   9.191  0.1634 -0.0328 -0.1735
37262SOL    HW115188   8.696   7.758   9.102 -1.0077 -3.9672 -1.8063
37262SOL    HW215189   8.756   7.706   9.230  0.3754 -0.5749 -0.9682
37263SOL     OW15190   3.957   3.715   0.217  0.4058  0.0676 -0.2582
37263SOL    HW115191   3.993   3.785   0.162 -1.8853  0.7375 -1.0362
37263SOL    HW215192   3.863   3.715   0.196 -0.7737  0.8105  4.1638
37264SOL     OW15193   8.136   3.127   5.903  0.0105 -0.0268  1.3150
37264SOL    HW115194   8.078   3.190   5.945 -1.0975  0.2210 -0.4845
37264SOL    HW215195   8.101   3.042   5.928 -0.5961  0.1143  0.9607
37265SOL     OW15196   2.737   3.128   0.737 -0.5657 -0.3898 -0.6205
37265SOL    HW115197   2.812   3.106   0.682 -1.6967 -1.1620 -1.8918
37265SOL    HW215198   2.665   3.074   0.704 -1.5228 -0.1752  1.0141
37266SOL     OW15199   8.954   4.472  10.864  0.2266 -0.4390  0.1203
37266SOL    HW115200   8.872   4.496  10.906 -0.0203 -1.3272  0.1819
37266SOL    HW215201   8.985   4.396  10.914 -0.2844 -1.7815 -1.4945
37267SOL     OW15202  10.470   4.486   3.415 -0.5948  0.2764  0.0498
37267SOL    HW115203  10.524   4.565   3.423 -2.4942  1.5045  1.9665
37267SOL    HW215204  10.491   4.435   3.493 -2.1567  0.7914  0.8391
37268SOL     OW15205  10.509   0.281   9.395 -0.0897  0.5749  0.1834
37268SOL    HW115206  10.484   0.276   9.487  1.0132 -0.0300  0.4793
37268SOL    HW215207  10.604   0.297   9.397  0.1504 -0.5437 -0.8164
37269SOL     OW15208   3.079   3.388   7.233 -0.8794  0.1009  0.5330
37269SOL    HW115209   3.038   3.457   7.181 -0.3973 -1.0674 -1.4841
37269SOL    HW215210   3.088   3.427   7.320 -2.5280  1.8196  0.0086
37270SOL     OW15211   5.505   6.362  10.034  0.2419 -0.2486  0.2228
37270SOL    HW115212   5.537   6.280   9.995  0.7015 -0.2872  0.6738
37270SOL    HW215213   5.577   6.424  10.023  1.0127 -0.6648  2.3170
37271SOL     OW15214  10.546   1.164   5.523  0.4327 -0.3922 -0.0945
37271SOL    HW115215  10.550   1.172   5.427  1.0829  1.1391  0.0247
37271SOL    HW215216  10.595   1.084   5.542  0.3635 -0.6717 -1.0402
37272SOL     OW15217   3.466   2.130   3.582 -0.4660 -0.1436 -0.1911
37272SOL    HW115218   3.437   2.083   3.660  0.1950  0.6962  0.5872
37272SOL    HW215219   3.551   2.092   3.561 -0.9594 -0.8513 -0.9330
37273SOL     OW15220   3.679   4.996   5.164  0.6683 -0.0621 -0.4459
37273SOL    HW115221   3.675   5.041   5.248 -0.2712 -0.6283 -0.1743
37273SOL    HW215222   3.590   4.964   5.149  0.2642  1.8348 -2.6754
37274SOL     OW15223   2.113   7.803   6.655 -0.0505  0.0362 -0.0231
37274SOL    HW115224   2.167   7.728   6.679  0.4681  0.2454 -0.5232
37274SOL    HW215225   2.090   7.788   6.563  1.3051  1.2203 -0.5932
37275SOL     OW15226   5.058   3.739   9.345 -0.4119 -1.1772  0.3585
37275SOL    HW115227   5.047   3.665   9.405 -0.9976 -2.5694 -1.3794
37275SOL    HW215228   5.039   3.702   9.259  2.0421  0.3415 -0.9112
37276SOL     OW15229   1.125   0.853   6.808  0.1066  0.6836 -0.1557
37276SOL    HW115230   1.086   0.855   6.721  2.8509  3.1620 -1.4880
37276SOL    HW215231   1.110   0.763   6.839 -0.7164 -0.3818 -3.2860
37277SOL     OW15232   8.274   1.923   2.440  0.1009  0.4214 -0.3588
37277SOL    HW115233   8.344   1.926   2.374  1.1990 -1.9128  0.5672
37277SOL    HW215234   8.319   1.930   2.524 -0.7985 -0.6961  0.2485
37278SOL     OW15235   3.981   4.505   4.696  0.4177 -0.1771 -0.0805
37278SOL    HW115236   3.974   4.474   4.786 -0.7643  0.5521  0.0919
37278SOL    HW215237   4.003   4.427   4.646  0.8954 -0.6284  0.8005
37279SOL     OW15238  10.640   1.648   2.590 -0.7101 -0.6245 -0.3707
37279SOL    HW115239  10.699   1.644   2.666 -1.4946  1.4330  0.4179
37279SOL    HW215240  10.596   1.563   2.589  0.9468 -1.5288  0.0885
37280SOL     OW15241   1.897   7.640  10.265 -0.1095  0.2533  0.3831
37280SOL    HW115242   1.815   7.671  10.227 -0.8366 -0.7198  1.1055
37280SOL    HW215243   1.897   7.675  10.354  0.9335  1.3954 -0.0490
37281SOL     OW15244   5.491   1.123   3.332 -0.1828 -0.1691  0.1712
37281SOL    HW115245   5.584   1.101   3.328 -0.1161 -0.3091  1.8141
37281SOL    HW215246   5.472   1.164   3.247  1.2764 -0.4741 -0.3298
37282SOL     OW15247   5.839   3.082   2.024  0.1468 -0.3681  0.3034
37282SOL    HW115248   5.899   3.049   1.957  0.9243  0.2539  0.6728
37282SOL    HW215249   5.853   3.176   2.024 -0.2076 -0.3097  0.9900
37283SOL     OW15250   4.878   5.841   4.065  0.1190  0.0147 -0.1583
37283SOL    HW115251   4.880   5.921   4.117 -1.8237 -1.7514  2.9467
37283SOL    HW215252   4.787   5.834   4.035  0.1145 -1.2781  0.0880
37284SOL     OW15253   7.276   1.678   1.586 -0.2668  0.1626 -0.0884
37284SOL    HW115254   7.303   1.618   1.656 -0.6085  0.0815 -0.0196
37284SOL    HW215255   7.216   1.739   1.629  0.5808  0.9626 -0.0159
37285SOL     OW15256  10.777   0.493   1.335  0.2495 -0.0986  0.3927
37285SOL    HW115257  10.769   0.398   1.344 -1.4648  0.0813  1.0122
37285SOL    HW215258  10.734   0.513   1.252  0.7635  0.1427  0.1763
37286SOL     OW15259   0.941   7.534   4.749  0.1344  0.8730 -0.1200
37286SOL    HW115260   1.013   7.562   4.806  1.5920 -2.1127 -0.3138
37286SOL    HW215261   0.881   7.487   4.808  0.3386 -0.0014 -0.5980
37287SOL     OW15262   1.215   4.413   1.826  0.3755  0.6247  0.2932
37287SOL    HW115263   1.130   4.371   1.835  0.5664  0.0020 -0.6593
37287SOL    HW215264   1.211   4.455   1.740  0.1920  2.5802  1.2035
37288SOL     OW15265   1.517   1.630   7.565  0.3191 -0.1693 -0.2008
37288SOL    HW115266   1.480   1.675   7.490 -0.8289  2.6919  1.8841
37288SOL    HW215267   1.604   1.601   7.535 -0.5832 -0.2987 -2.9315
37289SOL     OW15268   7.705   1.943  10.517  0.2888  0.0998  0.5360
37289SOL    HW115269   7.634   2.008  10.513  0.8762  0.7369  0.1984
37289SOL    HW215270   7.668   1.864  10.480  0.2575  0.9096 -1.2623
37290SOL     OW15271   3.210   8.891   1.479 -0.0954 -0.7957 -0.3059
37290SOL    HW115272   3.176   8.802   1.465  0.8650 -1.1078 -0.7472
37290SOL    HW215273   3.304   8.878   1.492 -0.2099 -0.0500  1.7239
37291SOL     OW15274   8.013  10.408   2.076  0.0696 -0.7599 -0.4610
37291SOL    HW115275   7.920  10.430   2.076  0.5367  1.6728  1.7264
37291SOL    HW215276   8.046  10.442   1.993 -0.7573 -0.4882 -0.6889
37292SOL     OW15277   7.065   0.224   1.733 -0.0392 -0.4400  0.2537
37292SOL    HW115278   6.991   0.165   1.720 -0.0589 -0.0215 -1.9123
37292SOL    HW215279   7.026   0.305   1.766 -0.2695 -0.9205  1.1826
37293SOL     OW15280   7.690   4.049   2.060 -0.1729 -0.1690  0.0271
37293SOL    HW115281   7.757   4.073   1.995 -0.9226 -0.3392 -0.8181
37293SOL    HW215282   7.717   3.963   2.092  1.4570  0.8541  1.6510
37294SOL     OW15283   8.480   6.783   4.304 -0.1160 -0.5278 -0.3005
37294SOL    HW115284   8.389   6.777   4.273 -0.0665 -1.7234 -0.2280
37294SOL    HW215285   8.532   6.783   4.223 -0.1205 -1.0939 -0.3058
37295SOL     OW15286   9.586   6.300   0.805 -0.3942  0.1969  0.3606
37295SOL    HW115287   9.586   6.295   0.900  0.7089 -0.9443  0.3260
37295SOL    HW215288   9.497   6.329   0.783 -0.8893 -0.2169  1.7030
37296SOL     OW15289   8.085  10.653   5.950  0.1416  0.1580 -0.2605
37296SOL    HW115290   8.102  10.742   5.921 -0.9646  0.1067 -1.1413
37296SOL    HW215291   7.998  10.656   5.989  1.4402  0.1541  2.9171
37297SOL     OW15292   5.719   5.158   5.517 -0.6442 -0.1733  0.1959
37297SOL    HW115293   5.771   5.137   5.440  1.5684  0.7323  1.3439
37297SOL    HW215294   5.675   5.240   5.495  0.3849  0.3554  0.0713
37298SOL     OW15295   9.961   9.307   5.200 -0.3601 -0.9967  0.4632
37298SOL    HW115296  10.050   9.273   5.197  0.4446  0.9704  0.3636
37298SOL    HW215297   9.971   9.397   5.230 -2.4343 -1.0505  1.5087
37299SOL     OW15298   0.928  10.746   5.301  0.2895  1.2441  0.3733
37299SOL    HW115299   1.021  10.726   5.309 -0.1059 -1.7893 -1.1160
37299SOL    HW215300   0.884  10.667   5.333 -1.6866  1.5606 -1.3542
37300SOL     OW15301   9.502   1.223   5.016  0.2672  0.2818  0.1284
37300SOL    HW115302   9.420   1.258   5.050 -0.3389 -0.9670  0.0328
37300SOL    HW215303   9.565   1.236   5.087 -0.6805 -1.1934  1.3016
37301SOL     OW15304   8.342   8.035   0.861 -0.0703  0.6923 -0.4435
37301SOL    HW115305   8.363   8.033   0.767  0.8931 -0.3603 -0.2235
37301SOL    HW215306   8.285   8.111   0.871 -0.4293  0.6440 -1.9368
37302SOL     OW15307   6.198   3.241   0.173  0.2711 -0.7680 -0.3757
37302SOL    HW115308   6.237   3.190   0.244  0.0883  0.5940  0.7586
37302SOL    HW215309   6.238   3.328   0.181 -1.3828  0.0454 -0.5382
37303SOL     OW15310   1.045   9.360   6.804 -0.1992 -0.2399  0.0133
37303SOL    HW115311   1.073   9.347   6.894  0.6862  1.2454 -0.0212
37303SOL    HW215312   1.050   9.272   6.765  0.3603 -0.7307  1.1401
37304SOL     OW15313  10.258   7.567   1.995  0.6790 -0.3207  0.6557
37304SOL    HW115314  10.325   7.511   2.031  1.9278  0.7941  0.1550
37304SOL    HW215315  10.279   7.574   1.902  0.9810  1.4725  0.8110
37305SOL     OW15316   4.214   7.567   5.642 -0.6820 -0.0635 -0.1301
37305SOL    HW115317   4.206   7.662   5.628 -0.0393 -0.1661 -1.2991
37305SOL    HW215318   4.141   7.546   5.700 -1.0380  1.0960 -0.1206
37306SOL     OW15319   2.079   1.238   7.725 -0.3106  0.2544 -0.0948
37306SOL    HW115320   2.023   1.209   7.653  0.3416  2.2140 -1.4945
37306SOL    HW215321   2.164   1.200   7.707  0.2288  1.8769 -1.2515
37307SOL     OW15322  10.697   1.364   6.346  0.2001  0.1309  0.1945
37307SOL    HW115323  10.711   1.402   6.433 -0.0130 -0.8573  0.6720
37307SOL    HW215324  10.785   1.361   6.307  0.3758  0.0844  0.5858
37308SOL     OW15325   2.252  10.667  10.798 -0.0036 -0.2091 -0.0785
37308SOL    HW115326   2.156  10.665  10.796 -0.0414 -0.4264  1.1134
37308SOL    HW215327   2.274  10.689  10.889  1.0589  2.4154 -0.8602
37309SOL     OW15328   6.493   7.890   1.540 -0.2780  0.0364  0.2716
37309SOL    HW115329   6.405   7.896   1.505 -0.1968  1.2468  0.2361
37309SOL    HW215330   6.488   7.822   1.607 -1.5528  0.9594  1.1657
37310SOL     OW15331   4.754   8.034   7.375  0.0301  0.1824 -0.1395
37310SOL    HW115332   4.723   8.057   7.463  1.1404  0.6582  0.1582
37310SOL    HW215333   4.720   7.946   7.360 -1.6273  0.7684  0.0377
37311SOL     OW15334   9.902   2.204   2.476  0.2496 -0.1094  0.1811
37311SOL    HW115335   9.960   2.239   2.544  1.6917 -0.5873 -0.7688
37311SOL    HW215336   9.900   2.109   2.493 -0.0952 -0.1240  0.0717
37312SOL     OW15337   5.764  10.320   3.693 -0.1540 -0.3735  0.5688
37312SOL    HW115338   5.696  10.299   3.629  1.0683 -3.4496  0.1147
37312SOL    HW215339   5.743  10.264   3.768  1.8076 -1.3891  0.4194
37313SOL     OW15340   8.716  10.806   0.400  0.3305  0.6972 -0.4766
37313SOL    HW115341   8.720  10.721   0.444  1.5091 -0.2391 -2.2349
37313SOL    HW215342   8.720  10.785   0.307  0.8609  2.6958 -0.9662
37314SOL     OW15343   6.173   2.078   3.035  0.7969  0.2226  0.4672
37314SOL    HW115344   6.230   2.031   2.975  2.1350 -0.2539  2.0172
37314SOL    HW215345   6.211   2.166   3.041 -0.0842  0.6783 -0.3241
37315SOL     OW15346  10.073   9.273   6.287  0.1423  0.2224 -0.1355
37315SOL    HW115347  10.018   9.334   6.337  0.5338  0.4872 -0.0280
37315SOL    HW215348  10.155   9.320   6.274  0.5346 -0.3684  0.1518
37316SOL     OW15349   4.237   0.949   6.528 -0.4721 -0.1658  0.6759
37316SOL    HW115350   4.300   0.898   6.477  0.4464  0.4232  1.1951
37316SOL    HW215351   4.155   0.938   6.481  0.4667  0.9093 -1.3709
37317SOL     OW15352   5.373   2.668   8.981  0.1377 -0.2720 -0.4640
37317SOL    HW115353   5.414   2.639   8.900  0.3461 -0.0391 -0.4401
37317SOL    HW215354   5.444   2.703   9.034 -0.0739  0.0442 -0.3849
37318SOL     OW15355   8.994   4.778   4.576 -0.0352 -0.7629  0.2299
37318SOL    HW115356   8.901   4.762   4.586  0.0248 -0.5087  1.4115
37318SOL    HW215357   9.031   4.695   4.546 -0.4114 -1.3770  1.4162
37319SOL     OW15358   3.968   7.555   2.001  0.1563  0.3735  0.2608
37319SOL    HW115359   4.022   7.633   1.991  0.7188 -0.0729 -0.2643
37319SOL    HW215360   4.031   7.484   2.017 -0.3497  0.0315  0.8011
37320SOL     OW15361   1.210   2.562   2.759  0.0252  0.1000 -0.0900
37320SOL    HW115362   1.226   2.636   2.700  1.2833  0.3862  0.5770
37320SOL    HW215363   1.205   2.486   2.701 -0.6044  0.6086 -0.7202
37321SOL     OW15364   1.389   7.020   9.586 -0.2476 -0.3147 -0.8159
37321SOL    HW115365   1.422   6.950   9.643 -0.0606  0.0600 -0.4551
37321SOL    HW215366   1.295   7.022   9.603 -0.4646 -1.3727 -1.8328
37322SOL     OW15367   2.517   0.979   1.386  0.3871 -0.3989 -0.4133
37322SOL    HW115368   2.495   0.908   1.446  1.1498 -0.5985 -0.3544
37322SOL    HW215369   2.512   1.058   1.440 -0.5632 -0.3880 -0.5052
37323SOL     OW15370   3.159   2.737   5.122  0.0503  0.0213  0.0275
37323SOL    HW115371   3.066   2.741   5.146  0.2885  1.1049  0.8362
37323SOL    HW215372   3.163   2.771   5.033 -0.0318  2.6181  0.9406
37324SOL     OW15373   7.873  10.025   8.319 -0.1797  0.3554  0.4115
37324SOL    HW115374   7.961   9.997   8.344  0.1731  2.0280  1.1713
37324SOL    HW215375   7.817   9.993   8.389  0.2816  1.8491  1.5076
37325SOL     OW15376   4.877   6.355   2.897 -0.5255  0.0373 -0.0284
37325SOL    HW115377   4.787   6.375   2.873 -1.7161 -3.0696  1.3002
37325SOL    HW215378   4.903   6.286   2.835  0.5939  0.2164  0.2233
37326SOL     OW15379   5.208   5.246  10.406  0.4135 -0.2026 -0.7165
37326SOL    HW115380   5.289   5.271  10.452  0.7331  1.8191 -2.2666
37326SOL    HW215381   5.147   5.317  10.426 -0.5200 -0.9789 -0.7707
37327SOL     OW15382   1.998   8.947   4.917 -0.4739  0.1339  0.1137
37327SOL    HW115383   1.944   8.981   4.989  1.0922 -0.1058  1.4566
37327SOL    HW215384   1.990   9.013   4.848 -0.9146  1.0754  1.0303
37328SOL     OW15385   1.575   5.170   4.013 -0.0879 -0.0099 -0.0837
37328SOL    HW115386   1.664   5.179   3.980 -0.1178  1.3374  0.1495
37328SOL    HW215387   1.563   5.245   4.072 -1.5952  0.2101 -0.6259
37329SOL     OW15388   9.339   1.937   8.854  0.0905  0.0815 -0.8903
37329SOL    HW115389   9.313   2.024   8.826 -1.0428 -0.1541 -0.6268
37329SOL    HW215390   9.364   1.892   8.773  1.3797  0.8535 -0.9476
37330SOL     OW15391   7.443   0.147   0.109  0.1249 -0.0559 -0.4621
37330SOL    HW115392   7.432   0.063   0.064 -1.3886  0.1513 -0.5490
37330SOL    HW215393   7.354   0.175   0.129  0.5672  1.7228 -0.7837
37331SOL     OW15394  10.117   8.270   4.022 -0.8303  0.0344 -0.2337
37331SOL    HW115395  10.168   8.256   4.101  1.0011 -0.7765 -1.4829
37331SOL    HW215396  10.116   8.365   4.010 -0.2570  0.1037  0.2254
37332SOL     OW15397   1.590   4.508   6.673  0.1440  0.8309  0.3614
37332SOL    HW115398   1.567   4.463   6.591  1.5347  1.1389 -0.2271
37332SOL    HW215399   1.557   4.597   6.661 -1.7168  0.3017  1.1204
37333SOL     OW15400   5.415   1.396   2.881 -0.5489 -0.2994  0.5560
37333SOL    HW115401   5.367   1.341   2.819  0.4224 -1.4225  0.7573
37333SOL    HW215402   5.482   1.440   2.827  0.0262 -0.9529  0.7259
37334SOL     OW15403   7.098   1.165   3.708  0.0628 -0.4880  0.4715
37334SOL    HW115404   7.058   1.247   3.679  0.2671  0.2458  2.1517
37334SOL    HW215405   7.157   1.191   3.779  1.6217 -1.8583 -0.2376
37335SOL     OW15406   2.037   6.561   9.852  0.0813  0.0533  0.5963
37335SOL    HW115407   1.960   6.588   9.902 -1.4254 -1.1087 -1.0325
37335SOL    HW215408   2.070   6.484   9.899 -1.0566 -0.7572  0.1018
37336SOL     OW15409   5.306   1.299   9.167 -0.1446  0.3891 -0.2425
37336SOL    HW115410   5.395   1.264   9.165  0.6171  2.1711  0.2304
37336SOL    HW215411   5.257   1.244   9.105  1.4595 -0.1816 -1.0613
37337SOL     OW15412   7.362   0.311   6.742  0.3466 -0.3815  0.1868
37337SOL    HW115413   7.393   0.397   6.714  0.3516 -0.6773 -0.7909
37337SOL    HW215414   7.422   0.285   6.812 -0.2373  0.8030  1.1575
37338SOL     OW15415   3.614   4.330  10.144  0.1256  0.5205 -0.1679
37338SOL    HW115416   3.534   4.334  10.197  1.3869  0.4349  1.8229
37338SOL    HW215417   3.619   4.416  10.102 -0.2610  1.0638  0.8558
37339SOL     OW15418   7.104   8.417   2.966 -0.3332  0.1392 -0.4777
37339SOL    HW115419   7.112   8.504   3.003 -0.1783 -0.3807  0.7552
37339SOL    HW215420   7.141   8.359   3.032  0.3041 -0.7963 -1.6137
37340SOL     OW15421   1.025   0.227   0.051 -0.0841 -0.0055 -0.1091
37340SOL    HW115422   1.006   0.304  -0.004 -1.2439 -0.5070 -0.4467
37340SOL    HW215423   1.089   0.177   0.001 -0.0956  0.2283 -0.3602
37341SOL     OW15424  10.632   5.505   0.375 -0.0174 -0.0834  0.7124
37341SOL    HW115425  10.690   5.570   0.335  0.5979 -1.9525 -1.6499
37341SOL    HW215426  10.688   5.430   0.393 -1.5018 -1.6429 -0.8789
37342SOL     OW15427   2.014   2.339   9.638  0.1634 -0.1754  0.0679
37342SOL    HW115428   2.035   2.394   9.713 -3.8355 -0.2997  1.5359
37342SOL    HW215429   2.092   2.285   9.625  2.3115  2.2365  1.8168
37343SOL     OW15430   2.157   0.438   2.744  0.0682  0.0923 -0.2773
37343SOL    HW115431   2.192   0.393   2.667  1.5537 -0.0322  0.4294
37343SOL    HW215432   2.163   0.531   2.723  0.2005  0.0518 -0.4166
37344SOL     OW15433   7.352   2.922   4.198  0.3471  0.2556 -0.0589
37344SOL    HW115434   7.332   2.885   4.284 -0.4837 -0.9210 -0.7199
37344SOL    HW215435   7.360   3.016   4.213  1.2282 -0.0216  1.4718
37345SOL     OW15436   2.131   0.599   0.178  0.6528  0.7241  0.3814
37345SOL    HW115437   2.187   0.521   0.175  0.7762  0.7170  1.9588
37345SOL    HW215438   2.191   0.672   0.188  0.5574  1.0927 -1.4600
37346SOL     OW15439   1.995   6.488   3.039  0.6459 -0.0421  0.0940
37346SOL    HW115440   2.038   6.505   3.123  1.6417  2.3632 -0.8194
37346SOL    HW215441   1.906   6.520   3.051  0.5174 -0.5316  0.4847
37347SOL     OW15442   4.467  10.724   6.032  0.2265  0.1984  0.0934
37347SOL    HW115443   4.553  10.761   6.012 -0.2842  0.7810 -1.1845
37347SOL    HW215444   4.413  10.747   5.955 -0.6248 -1.5684  0.1148
37348SOL     OW15445   0.939   3.669   9.265 -0.2556  0.5802 -0.2085
37348SOL    HW115446   0.861   3.666   9.319  0.0599  0.5807  0.2552
37348SOL    HW215447   0.908   3.652   9.176 -0.5171 -1.4029  0.2313
37349SOL     OW15448   8.615   3.447   3.190  0.3453 -0.1275  0.1385
37349SOL    HW115449   8.611   3.356   3.161  0.0811  0.7667 -3.0042
37349SOL    HW215450   8.524   3.476   3.189  0.6906  1.3631 -3.6214
37350SOL     OW15451   2.727   1.881   3.740 -0.7877  0.2730  0.0846
37350SOL    HW115452   2.718   1.970   3.708 -0.7411  0.3257  0.2163
37350SOL    HW215453   2.645   1.838   3.717 -0.3883  0.0379 -0.9625
37351SOL     OW15454  10.377  10.566   1.533 -0.5538  0.2115  0.1927
37351SOL    HW115455  10.405  10.475   1.536 -1.9080 -0.2621 -0.5589
37351SOL    HW215456  10.396  10.593   1.443 -1.4360  0.2177 -0.0016
37352SOL     OW15457   4.867   4.545   3.810  0.2804 -0.1918 -0.1773
37352SOL    HW115458   4.851   4.492   3.732  0.0873 -0.8989  0.3294
37352SOL    HW215459   4.780   4.577   3.836  0.4354  0.6597 -0.6689
37353SOL     OW15460   6.673   3.536   0.548 -0.7331  0.9062 -0.2030
37353SOL    HW115461   6.592   3.488   0.529 -1.5266  2.5837 -1.3608
37353SOL    HW215462   6.707   3.559   0.461  1.2213 -0.0737  0.2560
37354SOL     OW15463   1.921   9.969   1.549  0.0363 -0.1591  0.2292
37354SOL    HW115464   1.906   9.987   1.457 -1.3239  0.4694  0.5385
37354SOL    HW215465   2.008   9.928   1.553  0.3842  0.3972 -1.2373
37355SOL     OW15466   2.466   6.988   4.841 -0.5319 -0.0171 -0.2955
37355SOL    HW115467   2.394   6.937   4.806  0.0044 -1.6787  0.9153
37355SOL    HW215468   2.534   6.983   4.774 -0.4999 -0.8938 -0.2077
37356SOL     OW15469   3.762   1.561   3.697  0.4568 -0.3605  0.3942
37356SOL    HW115470   3.802   1.592   3.615  1.0620  0.4624  0.9811
37356SOL    HW215471   3.797   1.473   3.709  2.2832  0.3851  0.9686
37357SOL     OW15472   9.634   0.503   7.606 -0.2287  0.1868  0.0331
37357SOL    HW115473   9.700   0.477   7.670  0.4444 -2.8571 -1.6988
37357SOL    HW215474   9.675   0.575   7.557  1.1154 -0.5184  0.0930
37358SOL     OW15475   5.194   1.902   3.445  0.0347  0.1153 -0.2600
37358SOL    HW115476   5.181   1.901   3.350  0.3270  1.1127 -0.3248
37358SOL    HW215477   5.133   1.836   3.478 -1.0102  0.6518 -1.0391
37359SOL     OW15478   9.555   9.452   9.477 -0.2731 -0.0726 -0.8306
37359SOL    HW115479   9.521   9.539   9.500  1.1240  0.7361 -1.6664
37359SOL    HW215480   9.593   9.419   9.558 -0.0820  0.4614 -0.6969
37360SOL     OW15481   0.499   4.033   5.346  0.2831 -0.5560 -0.6381
37360SOL    HW115482   0.541   4.118   5.336 -0.1217 -0.3618 -0.7091
37360SOL    HW215483   0.419   4.040   5.294  1.4746 -1.8429 -2.8167
37361SOL     OW15484   9.681   7.613   8.928  0.0831  0.2382 -0.0057
37361SOL    HW115485   9.668   7.587   8.837  0.8084 -1.4256  0.3168
37361SOL    HW215486   9.624   7.553   8.978  1.9471 -0.9593  0.7941
37362SOL     OW15487   8.284   3.408   8.981 -0.4288 -0.4613 -0.9736
37362SOL    HW115488   8.347   3.380   8.915 -1.3005 -0.9914 -1.5969
37362SOL    HW215489   8.227   3.470   8.935 -0.8110 -0.5451 -0.6249
37363SOL     OW15490   7.861   0.725  10.319 -0.3466  0.1516  0.1100
37363SOL    HW115491   7.921   0.799  10.324 -1.0578  0.7028  0.8454
37363SOL    HW215492   7.796   0.742  10.388 -1.5245 -0.2537 -0.8574
37364SOL     OW15493   3.070   1.056   2.845 -0.4241  0.2269  0.2112
37364SOL    HW115494   3.035   1.145   2.846 -1.8216 -0.2983  0.6476
37364SOL    HW215495   3.078   1.034   2.753  0.1494  0.8842  0.1001
37365SOL     OW15496   0.914   7.009   1.468  0.4679  0.5912  0.3476
37365SOL    HW115497   0.894   6.988   1.377  1.5128  1.3852 -0.0868
37365SOL    HW215498   0.831   6.999   1.514  0.2136 -1.2205 -0.4056
37366SOL     OW15499   3.278  10.405  10.425 -0.2710 -0.3309  0.1305
37366SOL    HW115500   3.190  10.410  10.389 -0.4076  0.8672  0.6118
37366SOL    HW215501   3.266  10.374  10.515 -0.0405 -1.8994 -0.3461
37367SOL     OW15502   9.714   5.238   6.622 -0.0069 -0.2138 -0.1861
37367SOL    HW115503   9.632   5.213   6.579 -0.0463 -0.5582  0.0903
37367SOL    HW215504   9.768   5.271   6.550 -0.0428 -0.8628 -0.5206
37368SOL     OW15505   8.558  10.799   3.775 -0.1216  0.7952 -0.5479
37368SOL    HW115506   8.502  10.786   3.699  1.5192 -1.8057 -1.4114
37368SOL    HW215507   8.624  10.863   3.747  0.0410  0.4023 -1.0620
37369SOL     OW15508   4.900   9.931   5.348 -0.4162 -0.2619  0.1956
37369SOL    HW115509   4.986   9.949   5.385  0.3077  1.0157 -1.9511
37369SOL    HW215510   4.918   9.900   5.259 -2.1358  2.6908 -1.3389
37370SOL     OW15511   2.743   5.292   0.630 -0.1234 -0.4353 -0.1334
37370SOL    HW115512   2.672   5.346   0.665  0.2198  0.1932 -0.3803
37370SOL    HW215513   2.805   5.355   0.593  1.4684 -0.8240  1.6660
37371SOL     OW15514   7.502   7.081   2.241  0.4808 -0.0746 -0.0840
37371SOL    HW115515   7.467   7.135   2.170  2.2286  0.3552 -0.6484
37371SOL    HW215516   7.510   7.142   2.315 -1.9945 -0.6719  0.7725
37372SOL     OW15517   2.513   5.501   4.077  0.1650 -0.1161 -0.4501
37372SOL    HW115518   2.567   5.423   4.084 -0.0702 -0.1329  1.5756
37372SOL    HW215519   2.575   5.574   4.086  0.5179  0.0358 -3.2047
37373SOL     OW15520   1.660   5.277   2.210  0.1535  0.5755 -0.3058
37373SOL    HW115521   1.649   5.220   2.286  2.7938 -0.0818 -0.3113
37373SOL    HW215522   1.604   5.237   2.143  0.2394 -0.7232  0.3588
37374SOL     OW15523   9.727   6.521   7.699  0.1913 -0.2471 -0.3330
37374SOL    HW115524   9.644   6.502   7.743  0.4373 -0.0411  0.2336
37374SOL    HW215525   9.716   6.610   7.666 -0.0632 -0.4700 -0.8558
37375SOL     OW15526   6.149   2.361   3.315 -0.2040 -0.4270 -0.1916
37375SOL    HW115527   6.201   2.378   3.393  0.0213 -0.2948 -0.3687
37375SOL    HW215528   6.118   2.271   3.325 -1.5338  0.1191  0.8276
37376SOL     OW15529   2.599   5.144   5.188  0.4937 -0.3720 -0.1343
37376SOL    HW115530   2.527   5.129   5.127 -0.2923  0.7457  0.4850
37376SOL    HW215531   2.602   5.064   5.241  1.4197 -1.5075 -1.8117
37377SOL     OW15532   5.628  10.625   1.251 -0.3397 -0.4575  0.0850
37377SOL    HW115533   5.573  10.678   1.308  0.1860  1.1105 -0.7825
37377SOL    HW215534   5.584  10.627   1.166  1.1039  1.0377 -0.6908
37378SOL     OW15535   2.984   6.666   1.830  0.1061  0.2570  0.2251
37378SOL    HW115536   3.028   6.581   1.820 -1.7206 -0.9558  1.6116
37378SOL    HW215537   2.978   6.678   1.925 -0.6582  1.3917  0.0458
37379SOL     OW15538   2.826   7.008   9.079  0.3175 -0.4100 -0.3096
37379SOL    HW115539   2.737   7.030   9.052 -0.4671 -1.2727  1.4324
37379SOL    HW215540   2.823   6.914   9.096  1.1018 -0.1644  1.3657
37380SOL     OW15541   7.214  10.561   3.110 -0.0956 -0.3207  0.4710
37380SOL    HW115542   7.299  10.521   3.122  0.3417  0.3370 -0.2765
37380SOL    HW215543   7.151  10.490   3.125  0.6239 -1.0995 -0.0862
37381SOL     OW15544   2.307   2.286   2.293  0.0747 -0.2479 -0.3014
37381SOL    HW115545   2.335   2.344   2.364  0.1612 -0.1114 -0.4478
37381SOL    HW215546   2.229   2.327   2.256 -0.8734 -1.0911  0.6967
37382SOL     OW15547   9.622   7.242  10.610 -0.3342 -0.2584 -0.2276
37382SOL    HW115548   9.530   7.266  10.594 -0.6071 -0.0748  1.4574
37382SOL    HW215549   9.629   7.235  10.705  1.9420  1.9301 -0.1093
37383SOL     OW15550   7.964   3.835   8.936  0.0987 -0.2628 -0.3615
37383SOL    HW115551   7.884   3.789   8.910  1.2298 -2.0590 -0.8777
37383SOL    HW215552   7.981   3.895   8.864  0.5705 -1.7399 -1.5489
37384SOL     OW15553   4.807   5.019   3.536 -0.6292  0.3282  0.2176
37384SOL    HW115554   4.733   5.075   3.514 -2.0702 -0.6241  2.3657
37384SOL    HW215555   4.866   5.076   3.586 -0.8710  0.5724  0.2264
37385SOL     OW15556   4.231   1.216   8.830  0.0988  0.1239 -0.2720
37385SOL    HW115557   4.267   1.270   8.900 -1.4033  0.5174  0.2196
37385SOL    HW215558   4.156   1.172   8.869  0.6664 -1.5593 -0.9555
37386SOL     OW15559   6.541   0.006   1.187 -0.4014  0.8695 -0.4418
37386SOL    HW115560   6.454  -0.020   1.216  0.3763  0.0648  1.3329
37386SOL    HW215561   6.601  -0.034   1.251  1.2653  1.5180 -1.5133
37387SOL     OW15562   8.739   4.894   4.252  0.3889 -0.6062 -0.2829
37387SOL    HW115563   8.652   4.855   4.252  0.0981  0.0367 -0.4736
37387SOL    HW215564   8.794   4.832   4.204 -0.3381 -0.1929 -1.6767
37388SOL     OW15565   3.149   5.832   6.659  0.2257  0.3120  0.1076
37388SOL    HW115566   3.219   5.780   6.698 -0.3391  0.6698  1.6586
37388SOL    HW215567   3.088   5.768   6.625 -1.4366 -0.2511  3.6921
37389SOL     OW15568   7.326   2.011   5.277  0.3478  0.1425  0.1421
37389SOL    HW115569   7.339   1.935   5.334  0.8702 -0.8267 -1.2126
37389SOL    HW215570   7.235   2.004   5.248  0.0550  0.6854  0.8877
37390SOL     OW15571  10.326   7.091   7.227  0.7271  0.0800 -0.5808
37390SOL    HW115572  10.323   7.180   7.192  0.5058 -0.0963 -1.0150
37390SOL    HW215573  10.257   7.045   7.180 -0.0083 -0.0024  0.5398
37391SOL     OW15574   0.865   8.296   2.866  0.1916 -0.6179 -0.2773
37391SOL    HW115575   0.836   8.384   2.840 -1.9723 -1.3954 -0.7482
37391SOL    HW215576   0.934   8.311   2.930  1.3116  1.4114 -1.8363
37392SOL     OW15577   7.945   6.446  10.167 -0.4254  0.3241  0.8359
37392SOL    HW115578   7.946   6.355  10.138 -1.6306  0.4963  0.1605
37392SOL    HW215579   7.942   6.497  10.085 -1.0129  0.9171  1.2167
37393SOL     OW15580   1.918   8.927   2.866  0.3736  0.6526 -0.2166
37393SOL    HW115581   1.975   8.992   2.825  0.5838  0.7756  0.2747
37393SOL    HW215582   1.850   8.911   2.800  1.0816  0.3511 -0.8850
37394SOL     OW15583   2.746   2.227  10.497  0.2036  0.1819  0.1309
37394SOL    HW115584   2.712   2.263  10.579 -0.5533 -1.1879  0.4578
37394SOL    HW215585   2.674   2.235  10.435  0.4997  0.4890 -0.1731
37395SOL     OW15586   3.927   9.371   8.342 -0.2897 -0.2434 -0.1747
37395SOL    HW115587   4.005   9.381   8.287  0.6905  3.3543  1.5541
37395SOL    HW215588   3.946   9.296   8.398  1.1679 -0.4794 -0.9334
37396SOL     OW15589   1.236   3.400   4.691 -0.1955 -0.2617  0.4449
37396SOL    HW115590   1.145   3.392   4.662 -0.2034  0.9763  0.0939
37396SOL    HW215591   1.277   3.459   4.627  0.5641  0.0811  1.2290
37397SOL     OW15592   6.121   7.797   6.214  0.2818 -0.2235 -0.4617
37397SOL    HW115593   6.120   7.704   6.235  1.7963  0.1987  1.8605
37397SOL    HW215594   6.191   7.805   6.148  0.5565 -0.6578 -0.2320
37398SOL     OW15595  10.817   1.959   9.203  0.3208 -0.0026  0.1264
37398SOL    HW115596  10.832   1.963   9.109  1.0487  0.6753  0.2668
37398SOL    HW215597  10.763   2.036   9.222  0.5827  0.1320  0.3349
37399SOL     OW15598  10.717  10.473   1.931  0.0531  0.2070 -0.4605
37399SOL    HW115599  10.727  10.481   2.026  1.0106  1.5030 -0.6384
37399SOL    HW215600  10.761  10.391   1.909  0.8834  0.4871  0.1012
37400SOL     OW15601   5.178   5.639   2.391  0.6295  0.2738 -0.2997
37400SOL    HW115602   5.198   5.720   2.439 -0.1939 -0.0018  0.5396
37400SOL    HW215603   5.083   5.630   2.398  0.5957 -0.2328 -1.2710
37401SOL     OW15604   8.370   3.622   4.550 -0.4586 -0.4150  0.3947
37401SOL    HW115605   8.372   3.529   4.527 -0.5784  0.0388 -1.6144
37401SOL    HW215606   8.295   3.630   4.609  0.7764 -1.8966  2.3018
37402SOL     OW15607  10.283   0.725   7.222 -0.0374 -0.0903 -0.0625
37402SOL    HW115608  10.272   0.681   7.138 -1.2190  1.4678 -0.7679
37402SOL    HW215609  10.339   0.800   7.202 -0.9263  0.7001  0.3900
37403SOL     OW15610   4.199   8.507  10.703  0.2459  0.5023 -0.3640
37403SOL    HW115611   4.272   8.555  10.665 -0.1657  1.3438 -0.1140
37403SOL    HW215612   4.219   8.502  10.796  1.7850 -2.4843 -0.7318
37404SOL     OW15613   9.144   3.292   5.253 -0.4212 -0.3538 -0.0760
37404SOL    HW115614   9.173   3.367   5.305 -1.0519 -0.9724  1.2010
37404SOL    HW215615   9.061   3.319   5.216 -0.1191 -0.0273 -0.5315
37405SOL     OW15616  10.595   2.279   7.323 -0.6198  0.5467  0.0826
37405SOL    HW115617  10.602   2.251   7.232 -1.3357 -0.5789  0.3530
37405SOL    HW215618  10.574   2.199   7.371 -0.2371  1.1195  1.2415
37406SOL     OW15619  10.350   1.053   9.155 -0.2696  0.2339 -0.0084
37406SOL    HW115620  10.306   1.132   9.188  0.4939  0.8932 -0.5132
37406SOL    HW215621  10.442   1.079   9.147 -0.3825  0.0848 -2.5065
37407SOL     OW15622   8.490   2.401   2.532 -0.8278 -0.7615 -0.0954
37407SOL    HW115623   8.557   2.352   2.580  0.0637 -0.4119 -0.9523
37407SOL    HW215624   8.432   2.435   2.600 -0.7544 -1.9618  0.5892
37408SOL     OW15625   3.977   4.006   5.141 -0.3329  0.3242 -0.0303
37408SOL    HW115626   4.011   3.917   5.132 -0.0806  0.4309 -0.1428
37408SOL    HW215627   4.027   4.058   5.078 -0.0502  0.6672  0.4651
37409SOL     OW15628   7.627  10.177   9.608 -0.5609  0.3704  0.3034
37409SOL    HW115629   7.704  10.213   9.651  0.2654  0.9645 -1.5769
37409SOL    HW215630   7.644  10.083   9.601 -1.5499 -0.0825  2.8564
37410SOL     OW15631   4.751   2.127   3.643 -0.0203 -0.6799 -0.1523
37410SOL    HW115632   4.783   2.138   3.554 -1.1444 -0.5134 -0.5550
37410SOL    HW215633   4.767   2.211   3.686 -0.3644 -0.4333 -0.4984
37411SOL     OW15634   1.465   7.331   9.535  0.1424 -0.4009 -0.0398
37411SOL    HW115635   1.526   7.363   9.469 -1.7999  0.3197 -1.5724
37411SOL    HW215636   1.467   7.236   9.526  3.1698 -0.6839  2.0054
37412SOL     OW15637   2.670   3.356   2.506 -0.4306 -0.7751  0.2240
37412SOL    HW115638   2.645   3.278   2.456  0.6840 -0.3134 -1.1551
37412SOL    HW215639   2.764   3.364   2.490 -0.7673  1.7147 -1.0049
37413SOL     OW15640   6.891   1.424   7.392 -0.3331  0.3522  0.7778
37413SOL    HW115641   6.891   1.369   7.471 -0.8768 -1.6207 -0.5363
37413SOL    HW215642   6.982   1.454   7.385  0.1863 -1.0601  1.0906
37414SOL     OW15643   5.044   9.409   9.488  0.1987  0.4233 -0.3375
37414SOL    HW115644   5.139   9.400   9.493  0.1067 -1.4546 -1.3124
37414SOL    HW215645   5.010   9.329   9.529 -0.9869  1.2212  0.2945
37415SOL     OW15646   3.436   2.375   3.476 -0.2143  0.3625 -0.1672
37415SOL    HW115647   3.452   2.306   3.539  0.9297  0.6854 -0.0816
37415SOL    HW215648   3.350   2.410   3.499 -0.2537 -0.2037  0.5563
37416SOL     OW15649   5.371   9.167   4.805 -0.2750  0.4116 -0.4120
37416SOL    HW115650   5.340   9.097   4.863  1.8808  0.5408  1.0167
37416SOL    HW215651   5.333   9.147   4.720 -1.9540 -0.9168  0.5888
37417SOL     OW15652   0.659   8.775   4.061  0.2600  0.3942  0.6500
37417SOL    HW115653   0.607   8.745   3.986 -0.7106  2.7239  0.2853
37417SOL    HW215654   0.595   8.821   4.116  1.4434  0.9096  1.6219
37418SOL     OW15655   5.053   3.461   9.498 -0.0079  0.0776  0.5808
37418SOL    HW115656   5.101   3.411   9.564  1.2987 -1.6496 -1.5592
37418SOL    HW215657   5.024   3.396   9.434 -0.6731  1.7501 -0.9098
37419SOL     OW15658   8.458   3.922   0.502  0.6349  0.0631 -0.9853
37419SOL    HW115659   8.508   3.851   0.543 -0.5023 -1.1359 -1.5973
37419SOL    HW215660   8.445   3.985   0.573  2.1361 -0.0666 -0.5665
37420SOL     OW15661   0.709   2.779   5.756  0.6193  0.1540  0.2019
37420SOL    HW115662   0.769   2.847   5.788  1.3415 -0.6580  0.6176
37420SOL    HW215663   0.631   2.790   5.809  1.3808 -0.4347  1.4856
37421SOL     OW15664   6.004   3.476   5.284  0.4602 -0.1886  0.3127
37421SOL    HW115665   6.095   3.502   5.297  0.6199 -0.2342 -0.6235
37421SOL    HW215666   5.973   3.450   5.371  0.6924  1.8727  1.0749
37422SOL     OW15667   1.060   6.909   7.501  0.4009  0.0199 -0.0116
37422SOL    HW115668   0.977   6.884   7.460  0.5885 -0.5311 -0.0673
37422SOL    HW215669   1.034   6.962   7.576 -0.0266 -0.6085  0.2917
37423SOL     OW15670   3.508   7.282   2.097  0.3899 -0.3163 -0.0855
37423SOL    HW115671   3.568   7.209   2.085 -0.0147 -0.8695  1.1099
37423SOL    HW215672   3.556   7.359   2.065  0.6489 -1.1357 -1.7779
37424SOL     OW15673   0.659   1.471   9.987  0.1296  0.0600 -0.2285
37424SOL    HW115674   0.705   1.406   9.933  0.8477  0.6187 -0.3021
37424SOL    HW215675   0.591   1.420  10.032 -0.1862 -0.5062 -1.2905
37425SOL     OW15676   7.398   1.974  10.011  0.5430  0.2414 -0.2342
37425SOL    HW115677   7.485   1.990  10.047  0.6621 -0.5632 -0.1280
37425SOL    HW215678   7.339   2.030  10.061  1.1221  1.6119 -1.0225
37426SOL     OW15679   3.453   4.095   5.719  0.0787  0.5811 -0.2398
37426SOL    HW115680   3.502   4.070   5.641 -0.3158  1.0271 -0.6398
37426SOL    HW215681   3.491   4.042   5.789 -0.3884 -0.7260 -0.9518
37427SOL     OW15682  10.698   1.171   6.107  0.0230 -0.9241  0.0645
37427SOL    HW115683  10.622   1.146   6.159 -0.7167  0.8706 -0.0969
37427SOL    HW215684  10.729   1.252   6.148  1.2684 -1.1196 -0.4669
37428SOL     OW15685   4.518   7.293  10.128 -0.2272 -0.1621  0.2250
37428SOL    HW115686   4.430   7.314  10.161 -0.2725 -1.3551  0.8941
37428SOL    HW215687   4.501   7.249  10.044 -0.4228 -2.4452  1.3949
37429SOL     OW15688   3.726  10.024   9.728  0.1845 -0.0692 -0.4949
37429SOL    HW115689   3.717  10.032   9.823 -0.9489 -1.7212 -0.4374
37429SOL    HW215690   3.673  10.096   9.692  1.3462  1.1302  0.0832
37430SOL     OW15691   8.295   8.582  10.603 -0.1854 -0.0756  0.1686
37430SOL    HW115692   8.208   8.551  10.580  0.3116 -0.7569 -0.8312
37430SOL    HW215693   8.343   8.584  10.521  0.7440  0.3227  0.7009
37431SOL     OW15694   3.848   1.247   9.456  0.1903 -0.7280 -0.0847
37431SOL    HW115695   3.885   1.256   9.543 -2.1351  2.1881  0.7704
37431SOL    HW215696   3.764   1.292   9.461  0.3887  0.4865 -4.0898
37432SOL     OW15697   3.765   4.225   3.378 -0.2114 -0.7930  0.1575
37432SOL    HW115698   3.703   4.292   3.350  0.6827  0.5449  1.2519
37432SOL    HW215699   3.755   4.155   3.313 -1.0621  0.4466 -1.1194
37433SOL     OW15700   3.890   6.613   8.819 -0.2774 -0.6439  0.7299
37433SOL    HW115701   3.818   6.675   8.828  0.5940  0.3081  1.4238
37433SOL    HW215702   3.916   6.620   8.727  0.1743  0.4738  0.9240
37434SOL     OW15703   1.934   5.422   0.760 -0.0350  0.0460 -0.6195
37434SOL    HW115704   2.029   5.418   0.766 -0.0098  0.5175 -0.6165
37434SOL    HW215705   1.916   5.511   0.729 -0.4472 -0.2283 -1.1868
37435SOL     OW15706   9.818   1.247   0.197  0.3539 -0.4788  0.5519
37435SOL    HW115707   9.829   1.167   0.145 -2.6888 -0.3368 -0.4792
37435SOL    HW215708   9.860   1.227   0.281  1.7438 -2.2374 -0.4841
37436SOL     OW15709   1.185   9.307   7.035 -0.1460 -0.1972 -0.1487
37436SOL    HW115710   1.207   9.378   7.095  0.6427  0.3873 -1.0999
37436SOL    HW215711   1.242   9.235   7.060  1.5332  0.6588 -1.3362
37437SOL     OW15712   4.325   0.144   8.100 -0.2811  0.1313  0.1551
37437SOL    HW115713   4.271   0.202   8.154  1.2704 -1.7924  4.1306
37437SOL    HW215714   4.294   0.056   8.120  2.8481 -0.9037  0.9528
37438SOL     OW15715   0.443  10.108   1.934 -0.4045 -0.0473  0.5233
37438SOL    HW115716   0.350  10.110   1.913 -0.8394  1.0721  2.3420
37438SOL    HW215717   0.468  10.201   1.938  0.7857 -0.3361  0.0805
37439SOL     OW15718   7.841  10.597   5.433 -0.1242  0.3157 -0.1727
37439SOL    HW115719   7.868  10.654   5.506 -0.8040 -0.5312  0.7553
37439SOL    HW215720   7.755  10.630   5.408 -0.0661  0.3501 -0.3283
37440SOL     OW15721   0.767   6.059   9.715  0.0421 -0.4110  0.2780
37440SOL    HW115722   0.672   6.066   9.708  0.1589  0.0051 -1.4665
37440SOL    HW215723   0.785   5.965   9.710 -0.3581 -0.6653  2.6694
37441SOL     OW15724   9.765   4.181   1.893  0.1970  0.0612 -0.6462
37441SOL    HW115725   9.776   4.124   1.817 -0.7224 -0.5204 -0.3711
37441SOL    HW215726   9.716   4.256   1.860  0.0328 -0.0646 -0.6954
37442SOL     OW15727   4.660  10.657   1.567  0.1443  0.4410  0.0383
37442SOL    HW115728   4.667  10.614   1.482  0.6272 -1.1298  0.8226
37442SOL    HW215729   4.743  10.703   1.578  1.1878 -1.4679  0.6999
37443SOL     OW15730   3.232   6.469  10.545 -0.5328  0.0353 -0.0256
37443SOL    HW115731   3.168   6.524  10.590  0.8233 -0.3200  2.4631
37443SOL    HW215732   3.314   6.518  10.550  0.4498 -1.6440  1.1995
37444SOL     OW15733   0.010   5.356   4.892  0.1244 -0.0132 -0.4909
37444SOL    HW115734  -0.050   5.389   4.959  2.4133 -1.7918  2.6966
37444SOL    HW215735  -0.015   5.403   4.812 -4.1529  0.7000  1.0340
37445SOL     OW15736   2.989   5.025   5.240 -0.1967 -0.1122 -0.4721
37445SOL    HW115737   2.942   4.944   5.260 -0.1806 -0.0490 -0.1764
37445SOL    HW215738   2.999   5.024   5.145  0.8373 -1.0327 -0.3649
37446SOL     OW15739   1.721   5.119  10.584 -0.0273 -0.4339 -0.2874
37446SOL    HW115740   1.725   5.108  10.679 -2.6611 -1.2676 -0.1723
37446SOL    HW215741   1.696   5.033  10.551  0.3538 -0.0364 -1.7058
37447SOL     OW15742  10.822   7.005   5.083 -0.0269  0.6986  0.1667
37447SOL    HW115743  10.782   6.952   5.014  0.4631  0.4904  0.0364
37447SOL    HW215744  10.768   6.987   5.160 -0.6199  0.9903 -0.1756
37448SOL     OW15745   2.827   2.698   7.667 -0.1143 -0.3618  0.0074
37448SOL    HW115746   2.741   2.699   7.709 -0.2121 -0.4657 -0.1883
37448SOL    HW215747   2.858   2.789   7.673 -0.4116 -0.2404 -0.2746
37449SOL     OW15748   5.671   3.815   4.287  0.2265  0.1884 -0.4112
37449SOL    HW115749   5.642   3.906   4.274 -0.7671  0.0936  0.9370
37449SOL    HW215750   5.727   3.819   4.365 -0.6499 -0.5043  0.2640
37450SOL     OW15751   6.817   4.009   3.616 -0.2912  0.3753 -0.0814
37450SOL    HW115752   6.776   4.095   3.611 -0.8059  0.0772 -1.7341
37450SOL    HW215753   6.855   4.005   3.704 -2.6742  1.1639  1.0481
37451SOL     OW15754   8.411   8.643   0.236  0.6805 -0.4498 -0.0991
37451SOL    HW115755   8.490   8.669   0.189 -0.0157  1.0508 -0.5110
37451SOL    HW215756   8.400   8.710   0.303  0.0216 -0.9129  0.2703
37452SOL     OW15757   3.197   4.991   4.225 -0.0475 -0.5998 -0.4036
37452SOL    HW115758   3.166   5.081   4.232 -1.7857 -1.1130 -0.7934
37452SOL    HW215759   3.292   4.998   4.218  0.0442  1.0684  1.6730
37453SOL     OW15760   4.872   6.996   1.988 -0.0377 -0.1264 -0.2005
37453SOL    HW115761   4.900   6.956   1.906  0.2196  1.5052 -0.9418
37453SOL    HW215762   4.946   6.982   2.048  0.7933  0.7848 -0.9901
37454SOL     OW15763   9.066   2.184   7.901 -0.7991  0.2807  0.3451
37454SOL    HW115764   9.006   2.234   7.845 -1.1471  0.0159  0.4791
37454SOL    HW215765   9.114   2.129   7.839  0.6380  1.8015  0.0148
37455SOL     OW15766   9.698   3.408   9.083  0.5344  0.0118 -0.5346
37455SOL    HW115767   9.765   3.342   9.064 -0.1863 -0.9690  0.2336
37455SOL    HW215768   9.615   3.364   9.065  0.0589  1.0273 -0.9235
37456SOL     OW15769   7.555  10.466   2.340 -0.5994  0.2235  0.2186
37456SOL    HW115770   7.590  10.428   2.421  0.4852 -0.1799 -0.4242
37456SOL    HW215771   7.481  10.410   2.317  0.2346 -0.7835 -0.0626
37457SOL     OW15772   6.977   1.242   2.634  0.4664  0.4123 -0.6982
37457SOL    HW115773   6.910   1.208   2.694 -0.5668  0.1779 -1.9352
37457SOL    HW215774   6.949   1.211   2.548  0.8831  2.2787 -1.5486
37458SOL     OW15775   9.086   3.585   7.890  0.3328  1.2545 -0.0418
37458SOL    HW115776   9.080   3.503   7.939  1.2263  1.8596  1.1505
37458SOL    HW215777   9.005   3.631   7.910  1.1573  1.9910  1.8933
37459SOL     OW15778   1.483   7.452   2.617  0.0262 -0.6429 -0.2140
37459SOL    HW115779   1.574   7.479   2.616 -0.1242 -0.1038  0.5022
37459SOL    HW215780   1.433   7.533   2.612 -0.4212 -0.9090 -0.1771
37460SOL     OW15781   8.593  10.770   4.576  0.1334 -0.0176 -0.0303
37460SOL    HW115782   8.601  10.864   4.588 -0.6252  0.1352 -0.6386
37460SOL    HW215783   8.669  10.747   4.522 -0.1785  0.4111 -0.6707
37461SOL     OW15784   4.967   0.957   8.673 -0.2571 -0.4437  0.4549
37461SOL    HW115785   4.914   1.036   8.670 -0.7396 -0.6978  1.8833
37461SOL    HW215786   4.904   0.886   8.683  0.2512 -0.8865  0.5541
37462SOL     OW15787   0.629   4.429   4.673 -0.3413  0.2474 -0.3012
37462SOL    HW115788   0.542   4.415   4.634 -0.1948  0.9814 -0.9270
37462SOL    HW215789   0.678   4.476   4.605  0.5921 -0.2843 -0.0053
37463SOL     OW15790   3.133   7.761   0.887 -0.0044  0.8522 -0.1862
37463SOL    HW115791   3.122   7.784   0.979 -0.7337  1.8735 -0.5167
37463SOL    HW215792   3.224   7.784   0.867  1.2627 -2.4083  1.0879
37464SOL     OW15793   9.843   6.027   3.271 -0.3210  0.0772  0.2044
37464SOL    HW115794   9.919   5.980   3.305 -0.6028 -0.8893 -0.4887
37464SOL    HW215795   9.810   5.973   3.200 -1.0807  0.9749 -0.1519
37465SOL     OW15796   7.239   6.238   0.355 -0.1314 -0.0472 -0.1353
37465SOL    HW115797   7.265   6.311   0.299  0.0759  0.5774  0.7621
37465SOL    HW215798   7.145   6.252   0.371  0.4419  1.5954  2.2536
37466SOL     OW15799   9.832   9.164   8.100  0.4699 -0.0585  0.1379
37466SOL    HW115800   9.821   9.256   8.074  0.0280 -0.2827 -0.5100
37466SOL    HW215801   9.883   9.126   8.028 -0.9746 -0.7489 -0.5633
37467SOL     OW15802   3.928   2.738   4.345  0.0666 -0.1980  0.1969
37467SOL    HW115803   3.846   2.758   4.301  0.4821  0.1505 -0.4322
37467SOL    HW215804   3.931   2.642   4.348 -0.6047 -0.2075  0.6987
37468SOL     OW15805   1.658   6.057   2.018  0.5200  0.1567 -0.2032
37468SOL    HW115806   1.663   6.101   1.933 -0.6584  2.2070  0.7026
37468SOL    HW215807   1.735   6.089   2.066 -0.3687  1.3523  0.4789
37469SOL     OW15808   9.870   4.552   0.402  0.2818 -0.5804 -0.3738
37469SOL    HW115809   9.809   4.558   0.475  1.1732  0.3600  0.3204
37469SOL    HW215810   9.835   4.613   0.337 -0.6874 -1.6536 -0.8956
37470SOL     OW15811   6.306   4.069   1.321  0.1423 -1.1741  0.4502
37470SOL    HW115812   6.273   4.151   1.283  0.6356 -0.6427  1.1543
37470SOL    HW215813   6.230   4.032   1.366 -0.0860 -1.1203  0.1202
37471SOL     OW15814   2.785   0.950   1.795  0.3909  0.5975  0.3376
37471SOL    HW115815   2.693   0.926   1.812  0.2857  0.9952  0.3446
37471SOL    HW215816   2.823   0.961   1.882  1.3464 -2.7828  0.4720
37472SOL     OW15817   6.064   5.738   8.608 -0.2891  0.1800 -0.0696
37472SOL    HW115818   6.090   5.677   8.539  0.5301  0.3385  0.0933
37472SOL    HW215819   6.078   5.689   8.689  1.2356  0.8727  0.1133
37473SOL     OW15820   4.575   6.744   8.716 -0.1889  0.2047  0.0715
37473SOL    HW115821   4.542   6.654   8.724 -2.1794  0.9222  0.3806
37473SOL    HW215822   4.635   6.754   8.790  0.9189 -1.1806 -0.5705
37474SOL     OW15823   4.131   6.025   1.723  0.2794  0.0342 -0.1773
37474SOL    HW115824   4.140   6.092   1.792 -0.1565  1.3009 -1.3005
37474SOL    HW215825   4.194   6.053   1.656 -0.9231  0.1434 -1.2881
37475SOL     OW15826  10.460   5.652   6.801 -0.5433  0.5166 -0.4132
37475SOL    HW115827  10.555   5.637   6.804 -0.6816 -0.4664 -0.5435
37475SOL    HW215828  10.445   5.696   6.718 -0.3311 -0.4484 -0.9792
37476SOL     OW15829   4.164   9.468  10.009 -0.3412 -0.1115 -0.4329
37476SOL    HW115830   4.117   9.526  10.069  0.5912  1.2296 -0.9302
37476SOL    HW215831   4.240   9.437  10.059 -0.0340  0.3114 -0.6283
37477SOL     OW15832   0.898   2.512  10.871 -0.1551 -0.7196  0.3762
37477SOL    HW115833   0.829   2.569  10.903 -0.5787 -1.7074  1.2765
37477SOL    HW215834   0.967   2.518  10.937  0.3325 -0.2830 -0.1631
37478SOL     OW15835   4.859   3.927   4.751  0.3994 -0.1741 -0.2230
37478SOL    HW115836   4.834   4.002   4.804 -1.6884 -0.1679 -1.1140
37478SOL    HW215837   4.919   3.877   4.806  0.3942  1.2069  1.0806
37479SOL     OW15838   2.287   3.623   7.821  0.0339  0.5059  0.5136
37479SOL    HW115839   2.361   3.567   7.845  0.8394  1.0284 -0.6161
37479SOL    HW215840   2.235   3.630   7.901  2.6527  2.3177  2.2303
37480SOL     OW15841   3.799   6.800   5.432  0.5969  0.5962 -0.2470
37480SOL    HW115842   3.843   6.749   5.364  0.6641  0.8698 -0.4130
37480SOL    HW215843   3.824   6.891   5.413 -0.0760  0.7621 -0.3691
37481SOL     OW15844   5.761   3.883   3.982 -0.1159  0.1242 -0.3981
37481SOL    HW115845   5.675   3.852   4.008 -1.1951  0.5723 -3.0686
37481SOL    HW215846   5.788   3.941   4.053 -1.7342 -0.4710  0.7684
37482SOL     OW15847   8.923   8.615   6.830  0.3871 -0.1008 -0.2275
37482SOL    HW115848   8.982   8.584   6.898  1.6768  0.6517 -0.9639
37482SOL    HW215849   8.951   8.705   6.813  0.3027 -0.3604 -1.9559
37483SOL     OW15850   6.192   9.246   0.144 -0.3224 -0.7243  0.5515
37483SOL    HW115851   6.270   9.212   0.189  0.0312 -1.5940 -0.6619
37483SOL    HW215852   6.170   9.326   0.192  0.5150 -1.1774  1.7486
37484SOL     OW15853   9.953  10.009  10.904  0.4300 -0.6715  0.0520
37484SOL    HW115854  10.040  10.037  10.932 -0.1902  0.6275  0.7919
37484SOL    HW215855   9.909   9.982  10.985 -0.9216  1.8171  0.2657
37485SOL     OW15856   3.563   2.964   0.710  0.1744  0.2403 -0.1507
37485SOL    HW115857   3.520   2.882   0.684  1.0120 -0.3395  0.2530
37485SOL    HW215858   3.564   2.960   0.806  1.2246  0.1831 -0.1532
37486SOL     OW15859   4.225   5.010   8.334 -0.4678  0.5903  0.4249
37486SOL    HW115860   4.270   4.926   8.339  0.6020  1.1593  0.4739
37486SOL    HW215861   4.226   5.043   8.424 -2.2319 -0.0037  0.7178
37487SOL     OW15862   3.516   6.523   3.211  0.0086  0.9004 -0.3712
37487SOL    HW115863   3.483   6.589   3.271 -2.2073  0.0251 -0.5369
37487SOL    HW215864   3.447   6.514   3.145  0.0212 -1.8736 -0.0981
37488SOL     OW15865   7.007   0.236  10.391  0.4490  0.3986 -0.7187
37488SOL    HW115866   6.971   0.162  10.440  3.0897 -0.8788 -0.5839
37488SOL    HW215867   6.949   0.309  10.414 -2.4695 -1.6173 -1.1303
37489SOL     OW15868   3.697   5.581  10.046 -0.6302  0.0926  0.4075
37489SOL    HW115869   3.717   5.600  10.138 -0.7287 -0.5867  0.5726
37489SOL    HW215870   3.602   5.571  10.044 -0.7337  1.0678  0.0463
37490SOL     OW15871   5.679   6.959   4.197  0.4966  0.3968 -0.1242
37490SOL    HW115872   5.622   6.964   4.273 -0.9597 -1.9302 -0.9447
37490SOL    HW215873   5.764   6.933   4.232  0.4027  1.3620  0.8709
37491SOL     OW15874   3.828   0.380   0.167  0.3376 -0.5431  0.0541
37491SOL    HW115875   3.773   0.331   0.105 -3.1278  1.4428  1.2669
37491SOL    HW215876   3.823   0.329   0.248 -1.1598  0.4297  0.6101
37492SOL     OW15877   2.862   0.103   3.018 -0.1350 -0.1687  0.0792
37492SOL    HW115878   2.813   0.182   3.042  2.0720  0.7100  2.0964
37492SOL    HW215879   2.840   0.040   3.086 -1.9214 -1.3996 -1.5490
37493SOL     OW15880   6.874   9.226  10.138  0.1420  0.2183  0.4318
37493SOL    HW115881   6.785   9.208  10.106  0.0132 -0.3702  1.0961
37493SOL    HW215882   6.890   9.159  10.204  0.8504  0.6937  0.7605
37494SOL     OW15883   5.335   4.196   5.758 -0.3662  0.1511  0.9354
37494SOL    HW115884   5.261   4.257   5.763  0.8902  1.7118  1.1287
37494SOL    HW215885   5.379   4.205   5.842  0.8618  0.3166  0.2930
37495SOL     OW15886   8.366   3.193   9.912  0.2892  0.0930 -0.9289
37495SOL    HW115887   8.318   3.182   9.830 -0.8404 -0.1142 -0.2554
37495SOL    HW215888   8.452   3.227   9.885  0.2588 -0.7954 -2.2571
37496SOL     OW15889  10.770   8.804   1.933  0.1199 -0.1057  0.2685
37496SOL    HW115890  10.730   8.889   1.951  0.7854  0.0866  0.9299
37496SOL    HW215891  10.748   8.751   2.010 -0.6389 -0.6765 -0.3236
37497SOL     OW15892   1.424   1.581   9.082  0.4643  0.4476 -0.1564
37497SOL    HW115893   1.506   1.622   9.109  0.7343 -0.4589  0.4566
37497SOL    HW215894   1.360   1.653   9.080  1.1175  1.0431  0.0086
37498SOL     OW15895   8.496   9.053   3.939  0.7168  0.9717  0.4123
37498SOL    HW115896   8.463   9.076   3.853  2.3196  1.3984 -0.1208
37498SOL    HW215897   8.574   9.001   3.922 -0.7015 -1.8087  1.6138
37499SOL     OW15898   1.267   6.331   7.665 -0.3297 -0.1262 -0.0195
37499SOL    HW115899   1.238   6.315   7.755  1.0414 -1.7880  0.1817
37499SOL    HW215900   1.235   6.255   7.615  0.0108  0.1478 -0.6727
37500SOL     OW15901   1.671   7.323  10.905  0.2756 -0.1433 -0.1471
37500SOL    HW115902   1.732   7.341  10.833  0.3038 -1.1661 -0.3949
37500SOL    HW215903   1.701   7.240  10.942 -1.3073 -0.9834 -0.6606
37501SOL     OW15904   7.950   4.939  10.149  0.4517  0.4163  0.0711
37501SOL    HW115905   7.953   5.014  10.091  1.5504 -0.8162 -1.5450
37501SOL    HW215906   8.040   4.927  10.178  0.3162 -0.3682  0.1954
37502SOL     OW15907   6.439   6.744  10.121  0.2030 -0.5279 -0.3746
37502SOL    HW115908   6.429   6.685  10.047  0.8069  0.6387 -1.4230
37502SOL    HW215909   6.399   6.826  10.092  1.0333  0.1478  0.3232
37503SOL     OW15910  10.883   7.616   9.818 -0.6031 -0.6006  0.4128
37503SOL    HW115911  10.977   7.600   9.832 -0.7051 -1.3532  0.2540
37503SOL    HW215912  10.843   7.529   9.819 -0.9461 -0.5682 -2.0765
37504SOL     OW15913   4.478   4.426   0.711 -0.1748 -0.1420  0.3987
37504SOL    HW115914   4.547   4.490   0.694  0.4828 -0.5169  1.5738
37504SOL    HW215915   4.444   4.449   0.797 -1.2430 -0.2215  0.0177
37505SOL     OW15916   9.860   7.443   3.363  0.3296  0.5737 -0.6564
37505SOL    HW115917   9.815   7.519   3.324  0.7084  1.2178  0.1512
37505SOL    HW215918   9.808   7.421   3.440  1.4855  1.4415  0.3957
37506SOL     OW15919   1.161   1.321   4.202  0.3079  0.5212  0.5456
37506SOL    HW115920   1.083   1.336   4.256 -0.7120  0.9008 -0.9622
37506SOL    HW215921   1.127   1.283   4.120  1.6683  0.9979 -0.2794
37507SOL     OW15922   3.690   8.612   8.484  0.3840  0.2096 -0.7293
37507SOL    HW115923   3.596   8.594   8.478  0.1111  0.9450  0.7756
37507SOL    HW215924   3.727   8.533   8.524  0.5937 -0.5003 -2.2690
37508SOL     OW15925   1.615   2.455   0.710  0.1497  0.0610  0.0503
37508SOL    HW115926   1.654   2.509   0.778  0.6212  0.5331 -0.5739
37508SOL    HW215927   1.688   2.402   0.677 -0.3358 -1.0630  0.7432
37509SOL     OW15928   2.279   9.175   3.358 -0.2522  0.1777  0.7110
37509SOL    HW115929   2.327   9.231   3.419 -1.9501  0.3446  1.9900
37509SOL    HW215930   2.318   9.088   3.370  0.8778  0.6291  0.4051
37510SOL     OW15931   7.707   2.107   3.725 -0.7709 -0.2184  0.1798
37510SOL    HW115932   7.728   2.056   3.648  0.6132 -1.2190  1.1700
37510SOL    HW215933   7.763   2.185   3.719 -1.7999  0.4839 -0.5816
37511SOL     OW15934   4.000   6.487   6.439  0.1729  0.2923  0.5571
37511SOL    HW115935   4.030   6.426   6.506 -0.4522 -0.6280  0.0322
37511SOL    HW215936   3.931   6.439   6.393 -0.2026  1.3344  0.0011
37512SOL     OW15937   9.915   8.188   3.699  0.2622 -0.0391 -0.4285
37512SOL    HW115938   9.865   8.268   3.714  0.5480  0.3431 -1.3782
37512SOL    HW215939   9.855   8.117   3.722 -0.1962  0.4339 -0.1311
37513SOL     OW15940   4.121   8.690   2.565 -0.0682  0.4785  0.0008
37513SOL    HW115941   4.170   8.712   2.486 -0.9401 -0.1486 -0.7270
37513SOL    HW215942   4.081   8.772   2.593 -0.7137  0.4787 -0.8841
37514SOL     OW15943   9.001   7.871   2.324 -0.6531 -0.1773  0.0161
37514SOL    HW115944   8.963   7.935   2.383 -1.2486  0.2002 -0.7610
37514SOL    HW215945   9.024   7.920   2.246  0.2609 -0.6432 -0.0214
37515SOL     OW15946  10.586   6.680   3.987  1.0465  0.7244 -0.1100
37515SOL    HW115947  10.667   6.681   4.038  2.0071  0.2539 -1.5720
37515SOL    HW215948  10.549   6.593   4.004  2.3024 -0.1388 -1.5805
37516SOL     OW15949   7.629   3.917   6.090 -0.2307 -0.0480 -0.2211
37516SOL    HW115950   7.681   3.996   6.078  0.6714 -0.6415 -0.2822
37516SOL    HW215951   7.680   3.864   6.151 -0.9194 -0.5100 -0.0331
37517SOL     OW15952  10.265   4.766   7.336 -0.1483  0.0576 -0.2850
37517SOL    HW115953  10.268   4.853   7.376 -1.2008  0.0926 -0.2450
37517SOL    HW215954  10.347   4.725   7.362 -0.0861  0.6712  0.5445
37518SOL     OW15955   8.636   5.323   5.300 -0.1424  0.0257 -0.3637
37518SOL    HW115956   8.686   5.405   5.292  1.9511 -1.2864 -1.6163
37518SOL    HW215957   8.577   5.324   5.224 -2.2595  1.6136  1.1618
37519SOL     OW15958   8.590   8.411  10.801  0.2422 -0.0969 -0.5013
37519SOL    HW115959   8.617   8.400  10.892  0.8006  1.1858 -0.4928
37519SOL    HW215960   8.631   8.493  10.773 -3.3167  1.8214 -0.6327
37520SOL     OW15961   6.913   3.413   6.942  0.3354 -0.2612  0.3838
37520SOL    HW115962   6.936   3.502   6.916 -0.5382 -0.7459 -2.2756
37520SOL    HW215963   6.994   3.363   6.932  0.7680  0.1252  1.6614
37521SOL     OW15964   3.179   1.279   8.811 -0.5241  0.1292  0.1314
37521SOL    HW115965   3.188   1.314   8.900 -0.5286 -2.7336  1.3499
37521SOL    HW215966   3.085   1.277   8.795 -0.5586 -0.0209  0.3539
37522SOL     OW15967   4.674  10.026   5.846 -0.0004 -0.1387 -0.2037
37522SOL    HW115968   4.622  10.099   5.812 -2.4677 -1.6857  0.0731
37522SOL    HW215969   4.698   9.976   5.767  0.9998  0.4787 -0.3139
37523SOL     OW15970   3.989   0.139   0.654  0.2591  0.3281 -0.2605
37523SOL    HW115971   3.944   0.155   0.571 -1.0403 -1.5950  0.0056
37523SOL    HW215972   3.982   0.045   0.667 -2.2030  0.8162  3.4359
37524SOL     OW15973   1.342   6.507   0.804  0.4706  0.2336  0.0661
37524SOL    HW115974   1.388   6.524   0.886  0.2508  2.2850 -0.1786
37524SOL    HW215975   1.258   6.469   0.831  0.9340 -0.3722  0.6875
37525SOL     OW15976   9.387   3.652   8.916 -0.6904 -0.3524 -0.4869
37525SOL    HW115977   9.400   3.579   8.855  1.1287 -0.0786 -0.4795
37525SOL    HW215978   9.411   3.617   9.002  1.4897  0.5260 -0.6572
37526SOL     OW15979   2.852   8.374   6.951 -0.5489 -0.1004 -0.0698
37526SOL    HW115980   2.786   8.413   7.009 -1.0354  0.4760 -0.9713
37526SOL    HW215981   2.813   8.381   6.863  0.7772  0.3906 -0.6424
37527SOL     OW15982  10.125   4.266   9.725  0.2175 -0.2186 -0.0675
37527SOL    HW115983  10.157   4.348   9.687 -1.7936 -0.4139 -2.4552
37527SOL    HW215984  10.035   4.286   9.751  0.2254 -1.2457  0.7999
37528SOL     OW15985   3.322   9.897   6.827 -0.6101  0.4478  0.5441
37528SOL    HW115986   3.233   9.862   6.836 -0.8093 -0.8150 -3.8806
37528SOL    HW215987   3.379   9.822   6.839 -0.0460  1.1569  2.8363
37529SOL     OW15988   5.124   0.383   0.360 -0.0896  0.0533  0.2162
37529SOL    HW115989   5.169   0.460   0.326 -0.7285 -0.8074 -2.8764
37529SOL    HW215990   5.185   0.311   0.344 -0.3922 -0.4052  1.0544
37530SOL     OW15991   6.002   1.261   9.533  0.3171  0.0770  0.4755
37530SOL    HW115992   5.919   1.220   9.556  0.4189  1.3165  3.4789
37530SOL    HW215993   5.977   1.334   9.476 -0.5462 -0.0856  0.6317
37531SOL     OW15994  10.645   1.756   8.204  0.1207 -0.0255 -0.6436
37531SOL    HW115995  10.617   1.847   8.196 -0.2171  0.1703  1.8893
37531SOL    HW215996  10.566   1.709   8.230  0.5808 -0.8046 -0.6249
37532SOL     OW15997   0.755   8.756   1.773 -0.2023  0.5588 -0.7456
37532SOL    HW115998   0.756   8.744   1.868  0.7219 -1.9691 -1.0055
37532SOL    HW215999   0.839   8.798   1.753 -0.1273  0.5258 -0.5035
37533SOL     OW16000   3.925   8.603   3.945 -0.3687  0.3596 -0.1405
37533SOL    HW116001   3.951   8.640   4.029  0.8551 -1.7572  0.4863
37533SOL    HW216002   4.007   8.592   3.897 -0.9775  0.7986 -1.3129
37534SOL     OW16003  10.713  10.872   1.300 -0.4019 -0.0911  0.0329
37534SOL    HW116004  10.659  10.841   1.227 -0.2974 -0.3046  0.0461
37534SOL    HW216005  10.756  10.793   1.334 -0.5155 -0.0068  0.3793
37535SOL     OW16006   0.569   6.414   9.773  0.2687 -0.3778 -0.2901
37535SOL    HW116007   0.551   6.456   9.857 -0.9293 -0.7286 -0.3501
37535SOL    HW216008   0.555   6.482   9.708 -0.6473 -0.5622 -0.3129
37536SOL     OW16009   6.675   6.334  10.799 -0.0917 -0.9579  0.2813
37536SOL    HW116010   6.757   6.372  10.769 -1.7556  1.1710 -1.9694
37536SOL    HW216011   6.694   6.241  10.809  2.0514 -0.9342 -2.3561
37537SOL     OW16012   4.324   9.246   5.012  0.1089  0.0198  0.2000
37537SOL    HW116013   4.397   9.185   5.026  0.8166  1.1726  1.8768
37537SOL    HW216014   4.349   9.297   4.935  0.2697 -0.7162 -0.2422
37538SOL     OW16015   6.643   8.628   4.523  0.1310 -0.4292  0.5414
37538SOL    HW116016   6.616   8.692   4.457 -2.2759 -1.1945  0.6647
37538SOL    HW216017   6.722   8.665   4.562  0.4376  1.0468 -1.3386
37539SOL     OW16018   8.853  10.645   8.856  0.5897  0.9561 -0.0581
37539SOL    HW116019   8.881  10.699   8.782 -1.0126  0.0776 -1.3356
37539SOL    HW216020   8.758  10.641   8.849  0.5282 -0.4561  1.1365
37540SOL     OW16021   5.023   8.779   7.691 -0.3285  0.0124 -0.1037
37540SOL    HW116022   5.013   8.795   7.597  0.8028  0.8625 -0.0916
37540SOL    HW216023   4.934   8.787   7.726 -0.7757 -0.4131 -1.1062
37541SOL     OW16024   6.538  10.544   0.814 -0.0071  0.0157  0.3544
37541SOL    HW116025   6.471  10.513   0.875 -0.1688  0.0800  0.2115
37541SOL    HW216026   6.521  10.496   0.733 -1.1804  1.5181 -0.3351
37542SOL     OW16027   4.337   3.372   2.910  0.0702  0.2383 -0.4040
37542SOL    HW116028   4.292   3.288   2.904  0.5194  0.0133 -0.7241
37542SOL    HW216029   4.273   3.432   2.947 -0.8043  0.1411 -1.7122
37543SOL     OW16030   2.075   7.679   7.186 -0.2376 -0.2179 -0.0497
37543SOL    HW116031   2.041   7.636   7.108  0.5928 -0.1051 -0.4888
37543SOL    HW216032   2.038   7.768   7.183 -0.9684 -0.5066  0.2030
37544SOL     OW16033   7.987   4.492   9.584 -0.2801 -0.0647 -0.0897
37544SOL    HW116034   7.959   4.495   9.675  0.8608  1.7301  0.2492
37544SOL    HW216035   7.926   4.552   9.539 -0.5678 -0.6088 -0.4295
37545SOL     OW16036   4.751   6.269   9.220  0.3211 -0.4458 -0.3180
37545SOL    HW116037   4.718   6.273   9.130  1.7971 -1.4931 -0.9419
37545SOL    HW216038   4.707   6.342   9.264 -0.0152  0.4506 -2.0168
37546SOL     OW16039   0.696   7.542   5.088  0.0660  0.1065 -0.3005
37546SOL    HW116040   0.729   7.500   5.008  0.4536 -1.0859  0.4547
37546SOL    HW216041   0.671   7.630   5.061 -0.6343 -0.5569 -1.9183
37547SOL     OW16042   8.294   3.634   1.551  0.2064 -0.2637  0.1449
37547SOL    HW116043   8.367   3.595   1.600 -0.2937 -0.4154  0.7880
37547SOL    HW216044   8.227   3.651   1.618  0.0950  0.9420 -0.2502
37548SOL     OW16045   4.790   1.899   0.780  0.0024  0.1928 -0.3333
37548SOL    HW116046   4.724   1.896   0.849 -1.1009 -1.8473 -1.3715
37548SOL    HW216047   4.755   1.961   0.716 -1.6138 -1.7183 -1.4307
37549SOL     OW16048   4.637   3.950   0.772  0.2237 -0.4558 -0.2909
37549SOL    HW116049   4.570   4.017   0.761  0.7569  0.0562 -0.4732
37549SOL    HW216050   4.692   3.983   0.843  0.8240 -0.4134 -0.7658
37550SOL     OW16051   8.338   4.017   6.067  0.3926 -0.1010 -0.0871
37550SOL    HW116052   8.302   4.091   6.018  1.8330  2.1954  2.0977
37550SOL    HW216053   8.292   4.018   6.151  0.2871 -1.8989 -0.0725
37551SOL     OW16054   9.744   2.998   9.650  0.2189 -0.3567  0.2203
37551SOL    HW116055   9.778   3.021   9.736  0.1009 -2.6707  0.9646
37551SOL    HW216056   9.657   3.038   9.647  1.5247  2.6554 -0.2932
37552SOL     OW16057   1.315   9.385   5.541 -0.3368  0.3009  0.0012
37552SOL    HW116058   1.289   9.347   5.457 -1.5170 -1.2417  1.0019
37552SOL    HW216059   1.390   9.332   5.568  1.8886  2.5468 -1.2648
37553SOL     OW16060   5.188   6.732   1.968 -0.3062  0.0555 -0.6958
37553SOL    HW116061   5.195   6.668   1.897  0.8748  0.8773 -1.3612
37553SOL    HW216062   5.191   6.680   2.048  1.8855 -0.6794 -1.1906
37554SOL     OW16063   6.076   9.183   1.193 -0.6103  0.6336 -0.1131
37554SOL    HW116064   6.128   9.142   1.262 -1.9374 -1.4932 -0.2914
37554SOL    HW216065   6.140   9.208   1.126  0.2475 -1.8641 -0.3208
37555SOL     OW16066   0.548   5.267   6.990  0.1007  0.1043  0.3032
37555SOL    HW116067   0.594   5.331   7.045  1.9074 -0.1418 -0.8234
37555SOL    HW216068   0.461   5.304   6.977  0.6611  1.6778  0.7748
37556SOL     OW16069   7.946   6.591   4.443 -0.0963 -0.4663 -0.4630
37556SOL    HW116070   8.008   6.549   4.503 -0.4082 -1.3465 -0.7453
37556SOL    HW216071   7.950   6.684   4.466 -0.1761 -0.7746  0.8989
37557SOL     OW16072   2.082   9.615   3.179  0.4522  0.3564  0.6176
37557SOL    HW116073   2.076   9.703   3.142  0.6983 -0.3251 -1.1544
37557SOL    HW216074   2.061   9.557   3.106 -2.2370 -1.0301  2.3387
37558SOL     OW16075   5.763   4.131   6.480 -0.5598 -0.1184  0.4762
37558SOL    HW116076   5.801   4.083   6.554 -0.4949 -1.1321 -0.1967
37558SOL    HW216077   5.791   4.222   6.494 -1.8189  0.0044  2.5042
37559SOL     OW16078  10.051   4.848   3.495 -0.1791  0.2336 -0.3194
37559SOL    HW116079  10.051   4.772   3.438  0.7089  0.3185 -0.4432
37559SOL    HW216080  10.142   4.857   3.523 -0.0911  1.7473 -0.9924
37560SOL     OW16081   8.328   2.730   1.876  0.1296  0.0591  0.0036
37560SOL    HW116082   8.358   2.731   1.967  0.5601  2.1360 -0.1037
37560SOL    HW216083   8.243   2.774   1.878  0.3324  0.4979 -0.6342
37561SOL     OW16084   3.127   7.638   0.097 -0.0547 -0.0155 -0.8639
37561SOL    HW116085   3.217   7.668   0.108 -0.7864  1.5735  2.1186
37561SOL    HW216086   3.098   7.676   0.015  1.2640  1.5549 -0.6473
37562SOL     OW16087   9.068   4.334   6.517  0.0204  0.1973  0.3768
37562SOL    HW116088   9.006   4.318   6.588 -0.3660  0.0474  0.0103
37562SOL    HW216089   9.063   4.256   6.462 -0.6415  0.8336 -0.5122
37563SOL     OW16090   3.136   4.038   8.071 -0.1498 -0.3731  0.8627
37563SOL    HW116091   3.108   4.023   7.981 -0.5512 -2.1136  1.2444
37563SOL    HW216092   3.093   3.969   8.122  1.2031 -0.3139  2.1669
37564SOL     OW16093   1.149   4.216   6.210 -0.6541  0.0559 -0.5232
37564SOL    HW116094   1.200   4.141   6.179  0.4039 -0.1147  1.4426
37564SOL    HW216095   1.114   4.187   6.295  0.1413  1.9118  0.4858
37565SOL     OW16096   9.083   3.623   0.169 -0.8554  0.0384  0.7683
37565SOL    HW116097   9.054   3.587   0.085 -0.2389  1.1212  0.0647
37565SOL    HW216098   9.176   3.640   0.157 -1.1202  1.9133  0.9983
37566SOL     OW16099   5.333  10.672   0.789  0.1754 -0.2944 -0.5469
37566SOL    HW116100   5.388  10.706   0.718 -0.4029 -0.4093 -1.0526
37566SOL    HW216101   5.281  10.603   0.748 -2.7471  1.9536 -0.9156
37567SOL     OW16102   2.291   4.734   1.685  0.2578 -0.6792  0.2007
37567SOL    HW116103   2.205   4.732   1.645  0.4135 -2.2064 -0.1168
37567SOL    HW216104   2.274   4.725   1.779  0.0613 -0.8489  0.1489
37568SOL     OW16105   7.357   1.733   9.108  0.1996  0.4966 -0.2307
37568SOL    HW116106   7.268   1.697   9.112  0.3561 -0.0027 -0.9279
37568SOL    HW216107   7.412   1.657   9.089  0.6135  1.0085 -1.1209
37569SOL     OW16108   1.865   1.514   3.770 -0.6012 -0.3401  0.2668
37569SOL    HW116109   1.960   1.501   3.763 -0.6807 -1.0659  0.4319
37569SOL    HW216110   1.830   1.482   3.687 -0.6113  0.9776 -0.2543
37570SOL     OW16111   6.611   0.602  10.718  0.1003  0.3112  0.4302
37570SOL    HW116112   6.690   0.637  10.760 -0.6379  0.1589  2.0378
37570SOL    HW216113   6.544   0.668  10.735 -0.8533 -0.9611  1.8599
37571SOL     OW16114   5.592   0.038   9.777  0.1477  0.0775 -0.4018
37571SOL    HW116115   5.651   0.030   9.852 -0.0920  2.0018  0.0393
37571SOL    HW216116   5.649   0.034   9.700  0.8056  1.3204 -0.0033
37572SOL     OW16117   8.295   2.660   3.965  0.0986  0.3291  0.6084
37572SOL    HW116118   8.347   2.626   3.893  0.2744  0.4046  0.7010
37572SOL    HW216119   8.215   2.606   3.964 -0.9586  1.8335 -1.1177
37573SOL     OW16120   9.351  10.726   4.914 -0.2532  0.0520 -0.3428
37573SOL    HW116121   9.323  10.792   4.978  0.8575  0.2674 -0.0505
37573SOL    HW216122   9.294  10.740   4.839 -0.3625  1.0236 -0.0967
37574SOL     OW16123   5.707   4.300   0.884  0.5563  0.3784 -0.3944
37574SOL    HW116124   5.762   4.222   0.877  1.1315  0.6873  0.4773
37574SOL    HW216125   5.625   4.269   0.922  0.6554  0.1442 -0.3712
37575SOL     OW16126   9.641   8.440   2.742  0.0277 -0.5296 -0.4339
37575SOL    HW116127   9.693   8.362   2.725  0.9581  0.3962 -2.0996
37575SOL    HW216128   9.642   8.450   2.837  0.3631 -2.2073 -0.2335
37576SOL     OW16129   3.340   0.669   2.396 -0.4783 -0.2213 -0.3697
37576SOL    HW116130   3.398   0.742   2.416 -2.2458  0.5020  3.0090
37576SOL    HW216131   3.333   0.669   2.301  3.8974  0.4153 -0.8913
37577SOL     OW16132   0.485   7.439   3.738  0.7763  0.2211 -0.2286
37577SOL    HW116133   0.424   7.416   3.808  0.2226  0.7561 -0.5207
37577SOL    HW216134   0.565   7.392   3.760  0.3415 -0.2990  0.2997
37578SOL     OW16135   3.880   1.542   0.224  0.0340  0.6319  0.4539
37578SOL    HW116136   3.891   1.581   0.138 -0.2156 -0.4978 -0.1029
37578SOL    HW216137   3.940   1.591   0.281  0.9156  0.7415 -0.5536
37579SOL     OW16138   9.502   2.876   5.211  0.1201  0.3915  0.4551
37579SOL    HW116139   9.466   2.945   5.155 -0.1000  0.9082  1.2184
37579SOL    HW216140   9.597   2.880   5.196 -0.1090 -1.5684 -2.2470
37580SOL     OW16141   8.755   5.875   5.139 -0.0663 -0.3958 -0.3378
37580SOL    HW116142   8.684   5.937   5.158 -1.0930 -1.0191 -1.8739
37580SOL    HW216143   8.819   5.926   5.090  0.0968 -0.0485  0.2366
37581SOL     OW16144   3.459   6.269   7.287  0.5648 -0.1614  0.6062
37581SOL    HW116145   3.479   6.177   7.268 -1.6731 -0.5827  0.0278
37581SOL    HW216146   3.407   6.266   7.368  2.2144  0.8327  1.7753
37582SOL     OW16147   3.768   2.409   7.957  0.0645 -0.3665 -0.4189
37582SOL    HW116148   3.812   2.378   7.878  0.5545  1.1562 -0.7726
37582SOL    HW216149   3.835   2.406   8.025  0.2326  0.2738 -0.5492
37583SOL     OW16150   9.707   9.708   4.829  0.0092 -0.0606  0.8443
37583SOL    HW116151   9.730   9.763   4.754  2.1022 -0.8873  0.8038
37583SOL    HW216152   9.637   9.652   4.797  0.9226 -0.4616 -0.5643
37584SOL     OW16153   5.335   2.298   5.372 -0.0516 -0.8024 -0.5536
37584SOL    HW116154   5.306   2.325   5.459  0.4674  1.4775 -1.0215
37584SOL    HW216155   5.260   2.250   5.335 -1.0115 -0.0757  0.3966
37585SOL     OW16156   6.448   2.586   0.895 -0.3281 -0.1814 -0.1416
37585SOL    HW116157   6.494   2.564   0.976 -0.7026  2.2560  0.7987
37585SOL    HW216158   6.515   2.583   0.827  0.3164 -0.7098  0.5081
37586SOL     OW16159   9.248   4.947   3.557  0.5224 -0.0366 -0.2144
37586SOL    HW116160   9.154   4.959   3.574  0.8627  0.2428  1.6067
37586SOL    HW216161   9.283   5.036   3.550  0.8849 -0.1156  0.5344
37587SOL     OW16162   3.431   2.098   7.939  0.4075  0.2392 -0.5966
37587SOL    HW116163   3.419   2.181   7.985 -1.2076 -0.0112 -0.4871
37587SOL    HW216164   3.524   2.079   7.947  0.4509  1.0140  1.1669
37588SOL     OW16165   3.437   5.744   7.753 -0.1984  0.4394  0.5769
37588SOL    HW116166   3.428   5.687   7.676  1.2878 -0.4100  0.9865
37588SOL    HW216167   3.358   5.728   7.803  0.8801 -2.7411  1.5552
37589SOL     OW16168   3.761   5.165   4.066 -0.1741 -0.0084  0.4010
37589SOL    HW116169   3.676   5.159   4.109 -0.0024 -1.3205  0.6226
37589SOL    HW216170   3.742   5.150   3.973 -0.0857 -1.5002  0.5940
37590SOL     OW16171   1.469   8.992   6.393  0.3881 -0.2724 -0.3590
37590SOL    HW116172   1.496   9.072   6.349  1.8045 -0.6425 -0.2438
37590SOL    HW216173   1.449   8.931   6.322 -0.6467  0.1531 -0.4462
37591SOL     OW16174   0.788  10.651   8.601 -0.3905  0.1756  0.1632
37591SOL    HW116175   0.864  10.709   8.609  1.2789 -1.5645 -1.7488
37591SOL    HW216176   0.825  10.565   8.579 -2.7552 -1.6244  2.5265
37592SOL     OW16177   1.597   5.303   0.220 -0.4171 -0.4138  0.2068
37592SOL    HW116178   1.638   5.221   0.245  0.8172  0.5751  1.6196
37592SOL    HW216179   1.645   5.331   0.142  0.3855 -0.1643  0.7814
37593SOL     OW16180   0.916   2.455   8.095  0.0274 -0.0454  0.1079
37593SOL    HW116181   0.959   2.541   8.088  0.3717 -0.0986  1.2690
37593SOL    HW216182   0.836   2.464   8.044  0.0101  1.0098  0.2934
37594SOL     OW16183   2.133   4.989   8.837 -0.5015 -0.1967  0.6409
37594SOL    HW116184   2.147   5.059   8.901 -0.5243 -0.7078  1.2204
37594SOL    HW216185   2.219   4.948   8.827  0.1310  1.5456 -1.6941
37595SOL     OW16186   9.509   3.151   0.569 -0.0799 -0.0876 -0.4767
37595SOL    HW116187   9.527   3.063   0.536 -2.4632 -0.8423  0.0049
37595SOL    HW216188   9.538   3.210   0.499  1.6389 -1.2202 -0.7618
37596SOL     OW16189   8.028   2.241   9.826  0.0232  0.5023  0.1753
37596SOL    HW116190   8.122   2.231   9.840  0.2193  1.8883 -0.0726
37596SOL    HW216191   7.991   2.245   9.914 -0.0518 -1.7647  0.3232
37597SOL     OW16192   7.628   2.321   3.302  0.2960 -0.0653 -0.4628
37597SOL    HW116193   7.692   2.290   3.366  1.0327 -0.3748 -1.3316
37597SOL    HW216194   7.647   2.415   3.293 -0.3365  0.1516  0.3537
37598SOL     OW16195   1.362   3.452   3.204  0.5094  0.2194  0.1554
37598SOL    HW116196   1.360   3.502   3.123  0.3484  0.9463  0.6014
37598SOL    HW216197   1.322   3.509   3.270  0.5265 -0.4016  0.7266
37599SOL     OW16198   2.981   5.704   4.598 -0.2696  0.3012 -0.1665
37599SOL    HW116199   2.906   5.700   4.657  0.3574  2.1159  0.8261
37599SOL    HW216200   2.995   5.613   4.571 -1.3174 -0.4242  1.5426
37600SOL     OW16201   5.448   7.180   0.573  0.0735  0.3523 -0.6419
37600SOL    HW116202   5.472   7.182   0.665 -0.9082  0.1244 -0.3680
37600SOL    HW216203   5.507   7.115   0.534  1.6360  1.6650 -0.5388
37601SOL     OW16204   3.967   1.747   1.822 -0.0905  0.0529 -0.8100
37601SOL    HW116205   3.899   1.789   1.875 -0.8910 -2.3829  0.2418
37601SOL    HW216206   3.919   1.710   1.748  0.2522 -0.7494 -0.6344
37602SOL     OW16207   7.234   2.835   1.249  0.1373  0.3766 -0.4078
37602SOL    HW116208   7.168   2.772   1.219 -0.9678  0.7349  1.1670
37602SOL    HW216209   7.188   2.891   1.312  1.5367  1.6774 -0.4714
37603SOL     OW16210   3.941   5.376   6.609 -0.3808  0.0912 -0.0475
37603SOL    HW116211   3.970   5.294   6.569  1.3864  0.3371  0.6265
37603SOL    HW216212   3.929   5.436   6.536  0.8016 -0.0676 -0.4045
37604SOL     OW16213   9.421   9.678   2.619  0.3415  0.8364 -0.0755
37604SOL    HW116214   9.487   9.702   2.684  0.5804 -0.0017 -0.0024
37604SOL    HW216215   9.471   9.650   2.542  0.0621  1.9996 -0.7085
37605SOL     OW16216   3.805   9.354   5.501 -0.2425 -0.2995 -0.3763
37605SOL    HW116217   3.816   9.387   5.412  2.7483 -1.5764 -0.6052
37605SOL    HW216218   3.780   9.262   5.490 -1.5438 -0.0347  0.1684
37606SOL     OW16219   2.317   1.265   8.087  0.0740 -0.1404 -0.1647
37606SOL    HW116220   2.238   1.288   8.135  0.4069 -2.1237  1.4819
37606SOL    HW216221   2.359   1.349   8.067 -1.3673  0.8481  0.7748
37607SOL     OW16222   4.304   8.016   6.171 -0.2727  0.4274 -0.3824
37607SOL    HW116223   4.268   7.933   6.201 -1.1391  0.8101 -0.3245
37607SOL    HW216224   4.367   8.041   6.238 -0.4645  0.1247 -0.0870
37608SOL     OW16225   9.345   6.192   1.796  0.2808 -0.0492 -0.3768
37608SOL    HW116226   9.346   6.227   1.885 -1.0243  1.0381 -0.7639
37608SOL    HW216227   9.254   6.169   1.780  0.8330 -2.1857 -0.7267
37609SOL     OW16228   4.418   9.482   3.282  0.1944 -0.1238 -0.2099
37609SOL    HW116229   4.511   9.466   3.263  0.6234  1.8365  0.0302
37609SOL    HW216230   4.402   9.570   3.249 -1.1487  0.2153  1.2642
37610SOL     OW16231   4.696   2.741   1.122 -0.2955 -0.3829 -0.0446
37610SOL    HW116232   4.728   2.651   1.121  0.1419 -0.2677  1.1797
37610SOL    HW216233   4.737   2.782   1.046  1.6625 -0.5424  0.8500
37611SOL     OW16234   1.898   2.822  10.600  0.1774 -0.1342 -0.1297
37611SOL    HW116235   1.867   2.879  10.670 -3.4014 -0.0622 -1.5820
37611SOL    HW216236   1.930   2.883  10.533 -2.0575  0.2090 -0.9702
37612SOL     OW16237   9.680   6.841  10.027 -0.4996 -0.5971  0.0572
37612SOL    HW116238   9.769   6.807  10.033 -0.3079  0.0404  1.1164
37612SOL    HW216239   9.629   6.787  10.088 -0.4795  0.0957  0.7028
37613SOL     OW16240   2.907   9.477   7.498  0.1933 -0.2645  0.2075
37613SOL    HW116241   2.881   9.543   7.562  0.3180 -0.7545  0.7746
37613SOL    HW216242   3.002   9.480   7.497  0.2259 -0.9056  0.7479
37614SOL     OW16243   7.714   9.302  10.353  0.0010 -0.0105 -0.4352
37614SOL    HW116244   7.783   9.338  10.298  1.8529 -0.9015  1.1563
37614SOL    HW216245   7.745   9.214  10.376 -2.3980 -1.0564 -0.8621
37615SOL     OW16246   8.499   0.608  10.382 -0.3205  0.1799  0.6375
37615SOL    HW116247   8.510   0.667  10.456 -2.0271  0.7013  0.5278
37615SOL    HW216248   8.572   0.627  10.324 -0.8485  2.2364  0.5860
37616SOL     OW16249   7.748   7.205   3.548 -0.0783  0.2026  0.0712
37616SOL    HW116250   7.753   7.135   3.483 -0.7537 -0.7463  1.0023
37616SOL    HW216251   7.690   7.170   3.616  0.6326  1.1503  1.1973
37617SOL     OW16252   8.564   2.987   3.840 -0.1301  0.0833 -0.1783
37617SOL    HW116253   8.594   2.999   3.930 -2.0056  1.2101  0.3589
37617SOL    HW216254   8.541   2.894   3.834  0.1988 -0.0422  0.4553
37618SOL     OW16255   6.244  10.351  10.376  0.2788 -0.1345 -0.4101
37618SOL    HW116256   6.173  10.327  10.316 -0.0459 -3.1888  0.9480
37618SOL    HW216257   6.318  10.298  10.347  0.4829 -0.6880  1.0247
37619SOL     OW16258   7.968   2.447   4.129 -0.7440  0.1780  0.4422
37619SOL    HW116259   7.987   2.513   4.195 -0.5753 -1.0996  1.7391
37619SOL    HW216260   7.886   2.406   4.158  0.6496 -2.1508  1.3803
37620SOL     OW16261  10.023   3.363   6.901  0.0486 -0.0666  0.3264
37620SOL    HW116262   9.995   3.425   6.833  0.5004  1.1096  1.1839
37620SOL    HW216263  10.054   3.418   6.972  2.0193 -1.2847  0.4863
37621SOL     OW16264   7.981   5.172   5.512 -0.3527 -0.1693  0.0083
37621SOL    HW116265   8.076   5.174   5.528 -0.2556 -0.3652 -0.5194
37621SOL    HW216266   7.965   5.249   5.458 -0.5985  0.2155  0.6202
37622SOL     OW16267   2.467   5.130   7.611  0.1826 -0.3642 -0.5946
37622SOL    HW116268   2.445   5.049   7.565  0.4264  0.4273 -2.1638
37622SOL    HW216269   2.386   5.180   7.612  0.1196 -0.4735  0.0638
37623SOL     OW16270   5.559   8.183   0.070  0.0671 -0.1881 -0.0213
37623SOL    HW116271   5.555   8.245  -0.003  0.1895 -2.1241 -1.7770
37623SOL    HW216272   5.634   8.127   0.050  0.2299 -0.6436  1.7231
37624SOL     OW16273   4.916   9.591   7.178  0.1062  0.1530  0.0057
37624SOL    HW116274   4.946   9.562   7.264  0.8028 -0.5611 -0.4554
37624SOL    HW216275   4.884   9.511   7.135 -1.5115  0.7163  0.0785
37625SOL     OW16276   2.203   8.393   0.296  0.1631  0.4087  0.6970
37625SOL    HW116277   2.227   8.485   0.283 -1.5309  0.7668 -0.1601
37625SOL    HW216278   2.116   8.397   0.337 -0.6502 -0.7868 -0.8197
37626SOL     OW16279   3.923   3.826   1.388 -0.0285 -0.4685 -0.2397
37626SOL    HW116280   3.984   3.752   1.392  0.2467 -0.3086 -1.0775
37626SOL    HW216281   3.896   3.841   1.478  0.7816 -0.8811  0.0800
37627SOL     OW16282   7.007   7.383   3.113 -0.1041 -0.5103  0.2365
37627SOL    HW116283   6.931   7.440   3.102  0.1592 -0.1468  0.3052
37627SOL    HW216284   6.989   7.307   3.057  0.6642  0.7362 -1.8149
37628SOL     OW16285   6.385   3.279   2.600 -0.2773  0.0915  0.2631
37628SOL    HW116286   6.306   3.225   2.609  0.7244 -1.5156 -0.0634
37628SOL    HW216287   6.381   3.313   2.511  0.1806 -1.3403 -0.3271
37629SOL     OW16288   3.590   8.412   9.100 -0.3140  0.1080 -0.5744
37629SOL    HW116289   3.557   8.326   9.126 -0.1569 -0.1288 -1.1393
37629SOL    HW216290   3.664   8.393   9.042  0.7193  0.6172  0.5194
37630SOL     OW16291   5.049   1.684  10.434 -0.0527  0.0792 -0.1258
37630SOL    HW116292   5.049   1.773  10.468 -0.5268 -0.0129  0.1253
37630SOL    HW216293   5.080   1.692  10.344 -0.5250  0.5556 -0.2499
37631SOL     OW16294   5.092   2.363   2.171 -0.1204  0.1111 -0.3143
37631SOL    HW116295   5.012   2.397   2.212  0.5277 -0.4269  1.5284
37631SOL    HW216296   5.127   2.302   2.236  2.6696  1.6004 -0.2813
37632SOL     OW16297   7.928   7.200   4.407  0.1249 -0.7476  0.3240
37632SOL    HW116298   7.939   7.263   4.336  1.9170 -1.2643  0.0964
37632SOL    HW216299   7.880   7.247   4.475 -0.5914  0.1143 -0.7527
37633SOL     OW16300   0.374   7.185   6.180 -0.3832  0.7345 -0.3610
37633SOL    HW116301   0.355   7.097   6.212 -2.5621  1.4723  0.5930
37633SOL    HW216302   0.322   7.193   6.100 -3.0268  2.1686  1.3144
37634SOL     OW16303   5.332   4.276   4.043  0.3297  0.3303  0.2415
37634SOL    HW116304   5.424   4.301   4.036  0.6713 -0.7201  0.6331
37634SOL    HW216305   5.295   4.335   4.109  1.5827 -1.3124  2.5703
37635SOL     OW16306   4.056   3.534   2.560 -0.1320  0.3326 -0.3522
37635SOL    HW116307   4.032   3.534   2.653 -1.3388 -1.3800 -0.6006
37635SOL    HW216308   3.993   3.473   2.519  1.1561  0.0692 -2.0719
37636SOL     OW16309   8.615   3.942   7.819  0.1752 -0.2094  0.0222
37636SOL    HW116310   8.703   3.971   7.844 -0.3851  2.1772 -0.4725
37636SOL    HW216311   8.627   3.904   7.732  0.6952  0.2557 -0.1173
37637SOL     OW16312   1.903   7.799   4.618  0.2024 -0.5535  0.2683
37637SOL    HW116313   1.941   7.872   4.569 -2.0728 -0.3026 -1.3253
37637SOL    HW216314   1.853   7.842   4.688 -0.7507 -0.5518 -0.3855
37638SOL     OW16315   5.768   1.260   9.830  0.1125 -0.1937  0.2011
37638SOL    HW116316   5.776   1.206   9.752  1.1559  0.6872 -0.3346
37638SOL    HW216317   5.804   1.206   9.901 -0.7708 -0.9668  0.0732
37639SOL     OW16318   7.907   1.642   3.496 -0.0326  0.3116 -0.0177
37639SOL    HW116319   7.909   1.704   3.569 -2.8594  2.3215 -1.4386
37639SOL    HW216320   7.918   1.696   3.418 -2.7457 -0.8054 -1.3337
37640SOL     OW16321   0.066   2.454   6.961 -0.0959 -0.0253 -0.4864
37640SOL    HW116322   0.001   2.418   6.900  0.4671  0.3210 -1.3068
37640SOL    HW216323   0.027   2.441   7.048 -1.2242  0.1037 -0.9565
37641SOL     OW16324   7.540   9.187   2.492  0.1580 -0.9248 -0.1937
37641SOL    HW116325   7.494   9.195   2.576  1.6366  0.2592  0.5584
37641SOL    HW216326   7.482   9.228   2.429 -0.2595 -0.3492  0.5490
37642SOL     OW16327   8.941   2.773   1.089  0.1683  0.0564 -0.1497
37642SOL    HW116328   8.884   2.797   1.163 -0.3417  1.6053 -0.9886
37642SOL    HW216329   8.894   2.703   1.044 -0.1857  0.0666  0.1965
37643SOL     OW16330   5.188  10.838   8.001 -0.0107  0.2087  0.3032
37643SOL    HW116331   5.261  10.854   8.061 -0.2968 -1.4118  1.1182
37643SOL    HW216332   5.228  10.844   7.914  1.1335 -0.6785  0.7343
37644SOL     OW16333   1.321   9.427   9.491  0.7267  0.0649 -0.1023
37644SOL    HW116334   1.357   9.442   9.403  1.8019  1.1940  0.5082
37644SOL    HW216335   1.273   9.507   9.511 -2.5169 -1.5058 -1.0041
37645SOL     OW16336   5.050   7.022   8.251 -0.6074 -0.5864  0.2636
37645SOL    HW116337   4.977   6.968   8.222 -2.3166  0.1948  2.8184
37645SOL    HW216338   5.023   7.112   8.233 -0.1873 -0.3046  0.9780
37646SOL     OW16339   2.715   1.819   3.129 -0.1068 -0.1244 -0.2238
37646SOL    HW116340   2.698   1.907   3.163  1.1782  0.1608 -0.2657
37646SOL    HW216341   2.694   1.824   3.036 -1.4128 -0.2680  0.0513
37647SOL     OW16342   4.263   1.561   0.019 -0.0466 -0.8434  0.1178
37647SOL    HW116343   4.167   1.569   0.018  0.0360  0.4414  0.6392
37647SOL    HW216344   4.285   1.556   0.112  0.5271  0.9826  0.1026
37648SOL     OW16345   9.787   4.371  10.845 -0.0253  0.7082 -0.0465
37648SOL    HW116346   9.866   4.337  10.888 -0.4330  1.1276  1.0635
37648SOL    HW216347   9.722   4.302  10.859 -0.4356  1.2646  0.9110
37649SOL     OW16348   0.407   8.374   0.862 -0.8920 -0.1534 -0.4249
37649SOL    HW116349   0.381   8.445   0.804 -0.3649 -1.7471 -2.7469
37649SOL    HW216350   0.495   8.399   0.892 -0.3258 -0.2216 -1.9572
37650SOL     OW16351   3.967   0.105   2.137 -0.0065 -0.7790 -0.3521
37650SOL    HW116352   4.053   0.114   2.097  0.2962  1.2568  0.6654
37650SOL    HW216353   3.983   0.106   2.231 -0.7688 -4.9314  0.0125
37651SOL     OW16354   4.687   7.424  10.316  0.3868 -0.0262  0.1122
37651SOL    HW116355   4.752   7.391  10.378  0.0516 -0.3144  0.3126
37651SOL    HW216356   4.651   7.345  10.275  0.9511  0.1776 -0.8096
37652SOL     OW16357   6.444   8.135   3.029  0.1195  0.3016  0.2908
37652SOL    HW116358   6.500   8.210   3.052 -0.1108  1.1014 -1.5369
37652SOL    HW216359   6.431   8.144   2.934 -3.5407  0.4446  0.6946
37653SOL     OW16360   9.965   3.368   3.146  0.3652  0.1968  0.3461
37653SOL    HW116361   9.901   3.346   3.078  0.7742  0.4348 -0.1143
37653SOL    HW216362   9.973   3.463   3.143 -0.9886  0.4109  1.9765
37654SOL     OW16363   8.408   2.331   3.980  0.2429  0.2074 -0.0523
37654SOL    HW116364   8.462   2.259   4.013  0.7189  0.6711  0.1947
37654SOL    HW216365   8.330   2.288   3.946  0.7864 -0.4822 -0.4651
37655SOL     OW16366   3.097   5.049   6.919  0.5090 -0.2122  0.1514
37655SOL    HW116367   3.105   5.085   7.007  0.5813  0.2499 -0.0464
37655SOL    HW216368   3.157   4.974   6.919  1.1890  0.3249  0.2138
37656SOL     OW16369   2.069   8.584   8.785  0.3025  0.0334 -0.2379
37656SOL    HW116370   2.005   8.586   8.856 -0.3654  0.9340 -0.8300
37656SOL    HW216371   2.059   8.669   8.742  0.1445 -0.7737 -1.8797
37657SOL     OW16372   6.765   0.929   5.925 -0.2521 -0.3676  0.4857
37657SOL    HW116373   6.695   0.994   5.918  0.5771  0.9958  3.4539
37657SOL    HW216374   6.720   0.845   5.913 -2.3560  0.4850  1.7812
37658SOL     OW16375  10.119   7.387   9.251 -0.4826 -0.6569  0.2375
37658SOL    HW116376  10.130   7.380   9.156  0.9072  1.2326  0.1952
37658SOL    HW216377  10.084   7.475   9.265 -0.6922 -0.9197  1.4750
37659SOL     OW16378   9.487   8.694   0.936  0.2343 -0.3335 -0.6720
37659SOL    HW116379   9.550   8.743   0.989 -1.0419  0.3175  0.2789
37659SOL    HW216380   9.448   8.760   0.878 -1.4087 -0.2060  0.5307
37660SOL     OW16381   8.980  10.594   5.646 -0.3978  0.2960 -0.5090
37660SOL    HW116382   9.074  10.586   5.659 -0.2694  1.3197 -0.7539
37660SOL    HW216383   8.958  10.680   5.681 -0.9349  0.8171 -2.0686
37661SOL     OW16384   6.081   2.095   3.286 -0.2346 -0.3860 -0.4875
37661SOL    HW116385   6.121   2.085   3.199  0.0669 -1.2303 -0.2602
37661SOL    HW216386   6.065   2.005   3.315 -0.1302 -0.1149  0.4191
37662SOL     OW16387   1.120   0.986   7.906  0.3651  0.0158  0.0979
37662SOL    HW116388   1.192   1.020   7.960  1.0458  1.0825 -1.4019
37662SOL    HW216389   1.064   1.063   7.890 -0.6069 -0.6002  0.4642
37663SOL     OW16390   5.660   4.916   1.613 -0.3634 -0.0267  0.1860
37663SOL    HW116391   5.634   4.944   1.701 -0.1345  0.2477  0.1698
37663SOL    HW216392   5.580   4.880   1.575 -0.2117 -1.1932  0.9072
37664SOL     OW16393   0.645   7.686   0.200  0.4896  0.0370  0.3212
37664SOL    HW116394   0.559   7.650   0.182  0.4012  0.3552  0.0925
37664SOL    HW216395   0.705   7.613   0.189  0.1092 -0.5732  1.9497
37665SOL     OW16396   9.403   8.283   5.609 -0.0815 -0.1685  0.3977
37665SOL    HW116397   9.308   8.281   5.604 -0.1174  0.2407  0.7775
37665SOL    HW216398   9.422   8.300   5.702  0.4125 -2.6350  0.8219
37666SOL     OW16399   1.029   1.133   3.586  0.7795 -0.2502 -0.3136
37666SOL    HW116400   1.040   1.220   3.624  0.2112 -1.0078  1.7187
37666SOL    HW216401   1.118   1.102   3.571  1.2646 -1.0625  3.3041
37667SOL     OW16402   0.131   6.499   6.419  0.2195 -0.3399  0.3974
37667SOL    HW116403   0.042   6.463   6.424  0.2668 -0.7256 -1.0234
37667SOL    HW216404   0.188   6.422   6.420  0.4574 -0.1755 -0.0665
37668SOL     OW16405   8.546   2.945   0.142  0.4050  0.1114 -0.3952
37668SOL    HW116406   8.456   2.972   0.161  0.2137 -1.2796  0.8265
37668SOL    HW216407   8.544   2.921   0.049 -0.1311  1.3784 -0.7320
37669SOL     OW16408   4.031   9.812   0.916  0.4201  1.1634  0.7426
37669SOL    HW116409   3.989   9.767   0.990 -0.5121  0.0014 -0.4393
37669SOL    HW216410   3.961   9.866   0.878  0.1807 -0.0719 -0.6834
37670SOL     OW16411   5.793   5.800   4.386  0.0562  0.0783  0.1498
37670SOL    HW116412   5.760   5.712   4.405 -2.4838  1.2781  1.7816
37670SOL    HW216413   5.748   5.826   4.306 -1.6026  0.9929  1.3339
37671SOL     OW16414  10.255   4.800  10.479 -0.0097 -0.5366 -0.3610
37671SOL    HW116415  10.285   4.887  10.453 -2.1896  0.8179  1.3280
37671SOL    HW216416  10.163   4.812  10.501  0.2372 -2.7087  2.3373
37672SOL     OW16417   0.936   9.118   6.650  0.2095 -0.0146 -0.0290
37672SOL    HW116418   0.942   9.077   6.736 -0.2836 -0.3932 -0.1741
37672SOL    HW216419   0.986   9.060   6.592 -0.7513 -0.5885 -0.2949
37673SOL     OW16420   2.493   6.570   6.885  0.3760  0.2059  0.0065
37673SOL    HW116421   2.571   6.524   6.853 -0.2184  0.0606 -1.3124
37673SOL    HW216422   2.509   6.582   6.978  0.4572 -2.8905  0.4958
37674SOL     OW16423   2.191   3.927   6.520 -0.2612 -0.0508  0.0629
37674SOL    HW116424   2.273   3.917   6.471 -0.4456 -0.6274 -0.1376
37674SOL    HW216425   2.197   4.014   6.559  0.6591 -0.2670  0.4319
37675SOL     OW16426   5.737  10.451   2.107 -0.1963  0.0798  0.2537
37675SOL    HW116427   5.809  10.515   2.101 -1.8956  2.0161 -1.0324
37675SOL    HW216428   5.702  10.447   2.018 -1.4727 -1.0649  0.7776
37676SOL     OW16429   0.403   7.066   4.910 -0.4133 -0.6546  0.1276
37676SOL    HW116430   0.479   7.019   4.874  1.2803  0.9699  1.3947
37676SOL    HW216431   0.335   6.999   4.917  1.9432 -3.1006  2.1281
37677SOL     OW16432   1.009   5.777   8.326 -0.0401  0.2686  0.0820
37677SOL    HW116433   1.082   5.717   8.345 -0.4689 -0.1845  0.3184
37677SOL    HW216434   1.006   5.835   8.402 -0.4640 -0.2549  0.4722
37678SOL     OW16435  10.340   4.460   7.164  0.4403 -0.0121  0.3861
37678SOL    HW116436  10.392   4.385   7.194 -0.9033 -1.1710 -0.0814
37678SOL    HW216437  10.339   4.519   7.239  0.0868 -1.2577  1.4144
37679SOL     OW16438   3.160   1.001   0.831  0.0171  0.0299  0.2080
37679SOL    HW116439   3.197   1.086   0.854 -0.8099  0.6244 -0.5899
37679SOL    HW216440   3.182   0.945   0.906 -1.3182  1.5143  1.8150
37680SOL     OW16441   3.542  10.909   6.932  0.3766 -0.0562 -0.4578
37680SOL    HW116442   3.576  10.968   6.998 -0.0553  0.5416 -0.7664
37680SOL    HW216443   3.472  10.860   6.976  0.9758 -0.6124 -0.0989
37681SOL     OW16444   2.273   5.130   1.948 -0.2871 -0.8496  0.3081
37681SOL    HW116445   2.283   5.082   1.866 -0.6789 -1.1628  0.4452
37681SOL    HW216446   2.179   5.128   1.967 -0.2086 -0.7343  0.7360
37682SOL     OW16447   0.522   7.794   6.459  0.3081  0.5387  0.4081
37682SOL    HW116448   0.610   7.816   6.490  0.1758  1.2005  0.3276
37682SOL    HW216449   0.527   7.701   6.434  1.9555  1.4009 -2.9686
37683SOL     OW16450   0.314   0.320   3.616  0.0326  0.1612  0.2368
37683SOL    HW116451   0.385   0.317   3.553 -0.2659 -0.8565 -0.0671
37683SOL    HW216452   0.261   0.242   3.597 -0.8920  0.6348  0.7662
37684SOL     OW16453   0.918   2.256  10.102 -0.3408 -0.4974 -0.0212
37684SOL    HW116454   0.928   2.180  10.160  2.0187 -1.4029 -1.4707
37684SOL    HW216455   0.954   2.329  10.152 -5.3577  0.6217  2.6520
37685SOL     OW16456   2.228   1.575   0.986 -0.0409  0.1164  0.2791
37685SOL    HW116457   2.221   1.663   0.950 -0.0633  0.1090  0.2652
37685SOL    HW216458   2.322   1.564   1.005  0.1700 -0.3361 -0.9398
37686SOL     OW16459   3.666   1.578   6.200 -0.3400 -0.3204  0.4326
37686SOL    HW116460   3.661   1.604   6.292 -0.1902 -0.2678  0.4259
37686SOL    HW216461   3.741   1.519   6.195  1.1926  1.5546 -0.0957
37687SOL     OW16462   6.462   2.243  10.508 -0.6490 -0.5245  0.1664
37687SOL    HW116463   6.471   2.316  10.569  0.9718 -0.4606 -0.1187
37687SOL    HW216464   6.532   2.255  10.444 -1.2081 -1.5715 -0.6830
37688SOL     OW16465   8.629   0.335   4.892 -0.0352 -0.0689  0.4789
37688SOL    HW116466   8.640   0.336   4.987 -1.3145 -2.6134  0.7332
37688SOL    HW216467   8.540   0.367   4.878  0.3488  0.8621  0.0477
37689SOL     OW16468  10.904   8.688   0.581  0.5660 -0.4498 -0.2235
37689SOL    HW116469  10.828   8.711   0.634 -0.3002 -0.5101 -1.3944
37689SOL    HW216470  10.979   8.711   0.636 -0.2623  2.2433 -0.0745
37690SOL     OW16471   5.030   1.919   5.801  0.8212  0.2097  0.3311
37690SOL    HW116472   5.065   1.830   5.800 -1.0824 -0.5891  0.7561
37690SOL    HW216473   4.988   1.927   5.887 -0.6704  0.8173 -0.4230
37691SOL     OW16474   5.188   5.786   7.199  0.5689 -0.2473  0.0136
37691SOL    HW116475   5.218   5.784   7.108  1.0179  0.5802  0.1308
37691SOL    HW216476   5.190   5.695   7.227 -0.2905 -0.6172 -1.0274
37692SOL     OW16477   6.726   3.012   9.125 -0.5297  0.0481  0.3498
37692SOL    HW116478   6.677   2.947   9.175  1.1627  0.3609  2.5680
37692SOL    HW216479   6.817   3.000   9.152  0.2584  1.3265 -1.5072
37693SOL     OW16480   4.924   9.284   0.395  0.4655 -0.3539 -0.1246
37693SOL    HW116481   4.836   9.302   0.428  0.3461 -0.7367 -0.2305
37693SOL    HW216482   4.930   9.332   0.313  0.7331  0.5394  0.3998
37694SOL     OW16483   3.166   9.106   3.342  0.2980  0.2278  0.3494
37694SOL    HW116484   3.073   9.122   3.357 -0.6447 -0.7044 -3.4290
37694SOL    HW216485   3.177   9.012   3.358 -0.2933 -0.3810 -2.4023
37695SOL     OW16486   6.584   0.647   4.992 -0.4116 -0.7170  0.2944
37695SOL    HW116487   6.550   0.636   4.903  0.2572  0.5767 -0.1537
37695SOL    HW216488   6.552   0.734   5.018  1.8330  0.2136  0.1489
37696SOL     OW16489   0.136   3.073   2.635  0.2705  0.6706  0.0759
37696SOL    HW116490   0.112   3.018   2.560  1.7043  0.6245 -0.3847
37696SOL    HW216491   0.053   3.108   2.667 -0.4925 -0.3480 -0.7289
37697SOL     OW16492  10.826   0.396   5.233  0.3620  0.0366  0.2717
37697SOL    HW116493  10.838   0.480   5.188  0.9812  0.3053  0.9183
37697SOL    HW216494  10.758   0.351   5.182  0.4709  0.6666 -0.4469
37698SOL     OW16495   5.002   8.433   3.172 -0.3505 -0.1539 -0.6085
37698SOL    HW116496   5.066   8.480   3.119  0.6865 -1.1911 -0.3079
37698SOL    HW216497   4.987   8.351   3.124  0.3118 -0.9374  0.4876
37699SOL     OW16498   5.913   9.793   1.188  0.3267 -0.1794  0.7040
37699SOL    HW116499   5.872   9.789   1.275 -0.6135  0.3510  0.2980
37699SOL    HW216500   5.922   9.701   1.162  1.4418 -0.3878  1.7197
37700SOL     OW16501   6.614   3.783   0.654  0.3486  0.1499  0.2826
37700SOL    HW116502   6.615   3.688   0.643  1.6813  0.2357 -0.5279
37700SOL    HW216503   6.522   3.807   0.643  0.1058 -0.9556 -0.2781
37701SOL     OW16504   2.927   4.150   2.395  0.5530 -0.2013  0.7885
37701SOL    HW116505   2.921   4.231   2.345 -2.5026 -1.9494 -2.0880
37701SOL    HW216506   2.869   4.163   2.470 -1.5049 -0.2674 -0.7111
37702SOL     OW16507   9.885   1.021   8.954  0.1120  0.2834 -0.1033
37702SOL    HW116508   9.869   0.994   8.864 -1.5976 -2.5119  0.9312
37702SOL    HW216509   9.801   1.056   8.984  0.8259  1.7499  0.2838
37703SOL     OW16510   5.368   1.241   4.018 -0.3755  0.5693  0.2009
37703SOL    HW116511   5.445   1.199   3.979 -0.0811  0.3184  1.0487
37703SOL    HW216512   5.297   1.179   4.002 -0.7188  1.3777 -1.7609
37704SOL     OW16513   4.036   9.744   3.448  0.1486 -0.4178  0.3995
37704SOL    HW116514   3.966   9.679   3.439 -0.2506 -0.0036  0.4685
37704SOL    HW216515   4.069   9.732   3.536 -0.0779 -0.3781  0.4909
37705SOL     OW16516   7.955   0.270   9.391  0.2392  0.0431  0.9624
37705SOL    HW116517   7.971   0.254   9.299 -0.6205  0.7857  0.6655
37705SOL    HW216518   7.997   0.354   9.409  1.1959 -0.5264  1.4885
37706SOL     OW16519   3.132   7.128   6.241 -0.1987 -0.0068  0.1892
37706SOL    HW116520   3.135   7.037   6.212 -1.0336 -0.3645  1.1935
37706SOL    HW216521   3.063   7.168   6.187 -0.2943 -0.1324  0.2198
37707SOL     OW16522   2.023   8.968  10.085  0.3683 -0.0452 -0.2536
37707SOL    HW116523   2.038   9.061  10.066  2.3657 -0.6296 -1.8980
37707SOL    HW216524   1.992   8.931  10.003  2.2463 -1.3153 -0.4477
37708SOL     OW16525  10.809   9.255   4.214  0.3616 -0.2559  0.5369
37708SOL    HW116526  10.873   9.325   4.197  1.5343 -1.6130 -0.9587
37708SOL    HW216527  10.859   9.187   4.259 -0.4056 -0.7369  0.6820
37709SOL     OW16528   6.265   3.522   5.281 -0.1421 -0.2323  0.4666
37709SOL    HW116529   6.250   3.615   5.301  0.9898 -0.1866  1.1608
37709SOL    HW216530   6.359   3.517   5.263 -0.1412 -1.3118  0.7575
37710SOL     OW16531  10.749   8.238   4.743  0.1241  0.0103 -0.2759
37710SOL    HW116532  10.745   8.222   4.838  0.0198 -1.0185 -0.4380
37710SOL    HW216533  10.800   8.318   4.734 -1.5923  1.2757  0.7454
37711SOL     OW16534   6.922   3.010  10.790 -0.5096 -0.1379  0.3038
37711SOL    HW116535   6.949   2.918  10.788 -0.4054 -0.1051  0.1809
37711SOL    HW216536   6.991   3.055  10.838 -0.3004 -0.0405 -0.0822
37712SOL     OW16537   4.808  10.698  10.466  0.1302  0.5026  0.1371
37712SOL    HW116538   4.795  10.788  10.435  0.0920  0.9254  1.3464
37712SOL    HW216539   4.815  10.646  10.386  1.0757  1.7065 -0.5937
37713SOL     OW16540  10.756   5.041   7.761  0.2270  0.6214 -0.0762
37713SOL    HW116541  10.797   5.114   7.807  1.0451  0.5208 -0.6302
37713SOL    HW216542  10.774   4.965   7.816 -0.3715  0.7811  0.3512
37714SOL     OW16543   7.916   2.691   8.173  0.7378  0.0035 -0.1010
37714SOL    HW116544   7.848   2.658   8.233 -0.1084  0.9838 -0.4902
37714SOL    HW216545   7.902   2.642   8.092 -0.4061  1.1097 -0.6204
37715SOL     OW16546   2.533   5.408   7.107  0.3169 -0.3925 -0.2442
37715SOL    HW116547   2.507   5.430   7.196 -0.1556  0.3571 -0.5556
37715SOL    HW216548   2.456   5.431   7.054  0.3512 -1.4337 -0.7669
37716SOL     OW16549   2.026   1.326   2.098 -0.0772 -0.2765  0.4115
37716SOL    HW116550   2.049   1.367   2.014 -1.4706  1.2493  0.7336
37716SOL    HW216551   2.091   1.256   2.108  1.9927  1.3953 -0.5010
37717SOL     OW16552   4.227   4.301   0.877  1.0183  0.1676  0.0802
37717SOL    HW116553   4.279   4.372   0.913  0.5966 -0.2519  1.5963
37717SOL    HW216554   4.136   4.330   0.887  0.8328 -0.6212  0.8513
37718SOL     OW16555   6.535   9.156  10.349  0.4320  0.6840  0.7109
37718SOL    HW116556   6.451   9.201  10.341  0.1100 -0.1123 -0.8982
37718SOL    HW216557   6.566   9.147  10.259  2.0398  0.5605  1.2499
37719SOL     OW16558   4.364   3.686  10.894 -0.2327  0.0834  0.5792
37719SOL    HW116559   4.415   3.694  10.975 -2.5001 -0.4106  2.1595
37719SOL    HW216560   4.338   3.594  10.892 -2.0819  0.5682  0.5515
37720SOL     OW16561   9.256   6.091   9.605  0.6223  0.0045  0.5260
37720SOL    HW116562   9.246   6.036   9.683  1.8673  0.5625  1.1090
37720SOL    HW216563   9.212   6.173   9.627 -1.7258 -0.8677 -0.5514
37721SOL     OW16564   3.807   4.900   5.610  0.6055  0.1180 -0.2799
37721SOL    HW116565   3.731   4.905   5.553 -0.6845  0.2611  1.3837
37721SOL    HW216566   3.868   4.843   5.563 -1.6360 -2.3056 -0.4351
37722SOL     OW16567   8.612   9.250   6.144  0.5827 -0.3255 -0.3826
37722SOL    HW116568   8.639   9.326   6.196  0.0231  1.7057 -2.8311
37722SOL    HW216569   8.523   9.231   6.173  1.0793 -0.7261  0.9359
37723SOL     OW16570   4.889   2.501   3.114  0.7041 -0.3503 -0.4277
37723SOL    HW116571   4.893   2.568   3.183  0.6750 -1.1468  0.3626
37723SOL    HW216572   4.921   2.546   3.036 -0.3315  0.8932 -0.1729
37724SOL     OW16573   5.951   9.170   0.455 -0.1334 -0.1375 -0.1105
37724SOL    HW116574   6.043   9.191   0.440 -0.1525 -0.4463 -0.6970
37724SOL    HW216575   5.939   9.084   0.415 -0.8758  0.2759 -0.8291
37725SOL     OW16576   9.195   7.881   2.671  0.1043  0.2041 -0.0159
37725SOL    HW116577   9.107   7.918   2.674 -1.6915 -3.5424  2.6237
37725SOL    HW216578   9.242   7.923   2.743  0.1529  1.4600 -0.7638
37726SOL     OW16579   1.172   9.707   3.239  0.3962 -0.0135  0.0005
37726SOL    HW116580   1.116   9.785   3.234 -0.9989 -1.0531 -1.8067
37726SOL    HW216581   1.157   9.672   3.327  0.3128  1.2133  0.4925
37727SOL     OW16582   3.975   4.815   8.699  0.4772  0.9810  0.5499
37727SOL    HW116583   4.057   4.768   8.689 -1.3391 -1.9711 -4.8919
37727SOL    HW216584   3.920   4.758   8.752  0.6577  0.8027  0.5445
37728SOL     OW16585   0.983   1.953   7.595 -0.0584  0.2185  0.1859
37728SOL    HW116586   1.036   2.032   7.586  1.1443 -0.3419  1.7701
37728SOL    HW216587   0.927   1.953   7.518  0.0571  2.4861  0.0178
37729SOL     OW16588   6.168   8.933   9.474 -0.0915  0.3880  0.0105
37729SOL    HW116589   6.117   8.893   9.544 -1.3546  0.9564 -0.5600
37729SOL    HW216590   6.231   8.990   9.519  0.8678 -1.2065  0.7661
37730SOL     OW16591   1.701   6.749   5.856 -0.4274 -0.2400 -0.3403
37730SOL    HW116592   1.648   6.802   5.796 -0.7216 -0.0741  0.0674
37730SOL    HW216593   1.789   6.786   5.849 -0.8577  1.0739  0.8184
37731SOL     OW16594   8.850   5.648   0.416  0.0250  0.0631 -0.5104
37731SOL    HW116595   8.931   5.678   0.459  1.1731 -1.3094 -1.6234
37731SOL    HW216596   8.810   5.728   0.382 -0.1918  1.0242  1.7942
37732SOL     OW16597   0.489   4.559   6.001 -0.0332  0.3018  0.3404
37732SOL    HW116598   0.567   4.541   5.948  0.2522  2.8424 -0.2105
37732SOL    HW216599   0.523   4.573   6.089  0.2724  2.0498 -0.0215
37733SOL     OW16600   8.207   0.688   3.497  0.3288  0.3742  0.0110
37733SOL    HW116601   8.215   0.593   3.481  0.0452  0.1881  0.9333
37733SOL    HW216602   8.166   0.721   3.417 -0.5958 -0.4598  0.1151
37734SOL     OW16603   8.320   8.856   7.464  0.1801 -0.2980  0.3815
37734SOL    HW116604   8.372   8.865   7.384  0.4849 -0.3450  0.5740
37734SOL    HW216605   8.333   8.939   7.511  0.1528 -0.3456  0.4729
37735SOL     OW16606   0.573   9.084  10.711  0.5998  0.2610 -0.1951
37735SOL    HW116607   0.601   8.995  10.733 -0.3246  0.4899  2.1457
37735SOL    HW216608   0.613   9.139  10.779  1.4751  1.7383 -1.8158
37736SOL     OW16609   6.009   3.045   8.906 -0.0411 -0.2303 -0.5181
37736SOL    HW116610   6.045   2.980   8.847 -0.8260 -0.0196 -1.2557
37736SOL    HW216611   6.085   3.081   8.953  0.6620 -0.0624 -1.7422
37737SOL     OW16612   4.269   7.976  10.108  0.6056 -0.0197 -0.5275
37737SOL    HW116613   4.254   7.903  10.168 -0.6897  1.1914  0.7051
37737SOL    HW216614   4.350   8.017  10.138  0.4311  0.0469 -0.1409
37738SOL     OW16615   0.716   8.911   1.444  0.0396 -0.3920  0.0159
37738SOL    HW116616   0.693   8.952   1.360  0.5383 -0.7426 -0.2993
37738SOL    HW216617   0.642   8.930   1.501 -0.7984 -1.0564 -0.8101
37739SOL     OW16618   1.600  10.353   1.983  0.8716  0.8492  0.2751
37739SOL    HW116619   1.580  10.412   2.055 -1.1922  1.1253 -0.4657
37739SOL    HW216620   1.528  10.364   1.922  2.6386  0.7868 -1.9744
37740SOL     OW16621   1.463   2.814   0.638 -0.1460  0.1473  0.7169
37740SOL    HW116622   1.412   2.888   0.606  2.3256  0.9965 -1.6313
37740SOL    HW216623   1.522   2.852   0.703  0.4088  0.0413  0.2803
37741SOL     OW16624   5.613  10.011   1.248 -0.1224 -0.4516  0.2817
37741SOL    HW116625   5.613   9.949   1.321  1.0183  1.9094  2.4285
37741SOL    HW216626   5.594  10.095   1.289  1.4464  1.1127 -2.0121
37742SOL     OW16627   4.981   2.582   1.274 -0.0442 -0.7057 -0.3339
37742SOL    HW116628   5.010   2.557   1.362 -0.8744 -0.0417  0.1396
37742SOL    HW216629   5.055   2.632   1.239 -0.0951 -0.1320  0.3629
37743SOL     OW16630   4.840   3.156   9.673  0.1925  0.3698  0.1141
37743SOL    HW116631   4.935   3.152   9.682  0.0460  0.7616  2.5902
37743SOL    HW216632   4.821   3.108   9.592  2.4021 -0.7610  0.1930
37744SOL     OW16633   8.866   6.403  10.540 -0.1968  0.4183 -0.0025
37744SOL    HW116634   8.908   6.401  10.454 -2.2031  0.5765 -1.0284
37744SOL    HW216635   8.828   6.316  10.550  0.6072  0.1603  1.0781
37745SOL     OW16636   7.005   3.945   3.317 -0.3841 -0.0558  0.4847
37745SOL    HW116637   6.955   3.867   3.293  0.6143 -0.8286  0.8486
37745SOL    HW216638   6.940   4.016   3.319 -1.0392 -0.5188 -1.5097
37746SOL     OW16639   1.423   7.836   7.940 -0.2373  0.4110 -0.2436
37746SOL    HW116640   1.379   7.848   7.856  0.2253  1.7097 -0.3321
37746SOL    HW216641   1.399   7.748   7.968  0.2523 -0.3506 -2.1137
37747SOL     OW16642   3.925   0.165   3.805  0.3878  0.2438 -0.3380
37747SOL    HW116643   3.939   0.136   3.715 -0.4344  1.5286 -0.9014
37747SOL    HW216644   3.888   0.088   3.849 -2.6402  0.6056 -2.0298
37748SOL     OW16645  10.879   4.953   9.385 -0.6444  0.3109 -0.6400
37748SOL    HW116646  10.871   4.968   9.290 -1.2225  0.1790 -0.6197
37748SOL    HW216647  10.929   4.872   9.391  0.6002  1.0449 -0.7943
37749SOL     OW16648   8.172   8.483   2.569  0.2261  0.6563  0.2181
37749SOL    HW116649   8.159   8.449   2.481  0.2011  0.0637  0.4497
37749SOL    HW216650   8.144   8.575   2.564  2.5784  1.3803 -1.0078
37750SOL     OW16651   0.594   7.643   8.902 -0.0762 -0.2497  0.1945
37750SOL    HW116652   0.535   7.581   8.945  1.3674 -1.7189  0.1505
37750SOL    HW216653   0.652   7.674   8.971 -0.2880  0.4831  0.0582
37751SOL     OW16654   6.336   0.337   7.746  0.3100  0.1571  0.0655
37751SOL    HW116655   6.371   0.402   7.807 -0.8344 -0.4248  1.4264
37751SOL    HW216656   6.249   0.316   7.782  0.5696 -1.9621 -0.4145
37752SOL     OW16657  10.495   8.054   2.168  0.0214  0.0567  0.1836
37752SOL    HW116658  10.511   8.142   2.133 -1.9095  0.3465 -0.1019
37752SOL    HW216659  10.528   8.058   2.257  0.1085  1.0403  0.1212
37753SOL     OW16660   4.784   9.080   6.863 -0.1910  0.9716 -0.0877
37753SOL    HW116661   4.836   9.156   6.839  1.1742  0.1366  0.1311
37753SOL    HW216662   4.837   9.005   6.837 -1.5733  0.0752 -0.4418
37754SOL     OW16663   0.668   7.306  10.711  0.5293 -0.6652 -0.1315
37754SOL    HW116664   0.679   7.326  10.619 -0.9683 -1.6618 -0.5670
37754SOL    HW216665   0.662   7.210  10.714 -0.0477 -0.6107  0.9258
37755SOL     OW16666   1.338   5.898   7.311 -0.3810 -0.0688  0.0273
37755SOL    HW116667   1.392   5.972   7.286  0.7939 -0.2856  1.7355
37755SOL    HW216668   1.373   5.824   7.261 -0.5470  0.2155 -0.5152
37756SOL     OW16669   2.655   4.224   6.666  0.2251  0.7704 -0.2570
37756SOL    HW116670   2.642   4.309   6.710  2.4972  1.1409 -0.1641
37756SOL    HW216671   2.681   4.165   6.737  0.8669  0.5878 -0.6355
37757SOL     OW16672   9.376   7.545   9.816 -0.1896  0.1516 -0.7213
37757SOL    HW116673   9.458   7.551   9.865  0.4495  0.2320 -1.7676
37757SOL    HW216674   9.327   7.476   9.860  0.8184 -0.5213 -0.6084
37758SOL     OW16675   9.406   8.263   3.429 -0.3730  0.2055 -0.5703
37758SOL    HW116676   9.313   8.269   3.447 -0.2351  1.7152 -0.2153
37758SOL    HW216677   9.445   8.231   3.511 -0.3306  1.9674  0.1362
37759SOL     OW16678   4.679   0.517   3.152 -0.3822  0.0060 -0.2305
37759SOL    HW116679   4.665   0.549   3.241 -1.2532 -1.8551  0.3328
37759SOL    HW216680   4.693   0.423   3.162 -0.0338 -0.1648 -2.0244
37760SOL     OW16681   4.257   6.861   9.430  0.0220 -0.1257 -0.4149
37760SOL    HW116682   4.318   6.835   9.361  0.7570  2.6706 -0.9539
37760SOL    HW216683   4.171   6.837   9.397  0.5518 -1.0002 -1.1966
37761SOL     OW16684   8.577   2.402  10.031  0.2324 -0.4108  0.1002
37761SOL    HW116685   8.657   2.396  10.084  0.7922 -0.2777 -0.7250
37761SOL    HW216686   8.543   2.312  10.030  0.5111 -0.5189  0.2367
37762SOL     OW16687   8.563   5.595   5.492  0.6835 -0.2208 -0.2493
37762SOL    HW116688   8.610   5.590   5.576  0.3616 -0.0498 -0.0568
37762SOL    HW216689   8.627   5.632   5.431  0.6495  0.4795  0.1293
37763SOL     OW16690   5.943   4.964   0.301 -0.0829  0.2513  0.2011
37763SOL    HW116691   5.886   5.039   0.282  0.3489  0.5222 -0.0637
37763SOL    HW216692   6.026   4.987   0.258  0.1131 -0.2916  0.2893
37764SOL     OW16693   8.083   1.052  10.720  0.9011  0.4261 -0.0766
37764SOL    HW116694   8.149   1.092  10.663  2.2859 -1.9154 -0.2279
37764SOL    HW216695   8.087   0.959  10.699 -1.0886 -0.0337  1.3581
37765SOL     OW16696  10.694   6.235   9.403  0.0177  0.2798 -1.1543
37765SOL    HW116697  10.675   6.248   9.496 -0.7141 -1.5074 -1.0064
37765SOL    HW216698  10.687   6.322   9.364  0.1535  1.0275  0.4215
37766SOL     OW16699   2.938   3.462   8.291 -0.7257  0.0870 -0.5025
37766SOL    HW116700   2.904   3.407   8.221  0.8826 -1.3780 -0.1759
37766SOL    HW216701   3.032   3.468   8.275 -0.6949  1.8794  0.0875
37767SOL     OW16702   6.980   2.907   5.370 -0.3763 -0.2567 -0.4240
37767SOL    HW116703   6.926   2.967   5.421 -0.7021 -0.1078 -0.9359
37767SOL    HW216704   7.021   2.851   5.435 -0.0309  0.5464  0.0735
37768SOL     OW16705   9.874   6.219   7.366  0.0179 -0.0392 -0.4861
37768SOL    HW116706   9.864   6.224   7.271  1.4496 -1.0555 -0.7265
37768SOL    HW216707   9.904   6.306   7.391  0.6659 -0.0704 -1.1177
37769SOL     OW16708   4.219   4.189   0.096 -0.2328 -0.2250  0.3061
37769SOL    HW116709   4.254   4.180   0.185  0.2966  0.2649  0.1575
37769SOL    HW216710   4.294   4.219   0.045 -1.0766  1.7660  0.1525
37770SOL     OW16711   3.902   0.523   3.537 -0.4934 -1.0151  0.3698
37770SOL    HW116712   3.831   0.526   3.602 -0.5494  1.4702  0.3179
37770SOL    HW216713   3.979   0.557   3.584  0.1793 -1.8659 -0.1014
37771SOL     OW16714   9.605   3.668   7.550 -1.0433  0.1259 -0.5780
37771SOL    HW116715   9.680   3.720   7.520 -0.4465 -0.2150  0.2758
37771SOL    HW216716   9.586   3.609   7.477  0.2598 -0.5587 -0.4055
37772SOL     OW16717   3.843   6.186   3.742 -0.3171 -0.1868 -0.4496
37772SOL    HW116718   3.898   6.109   3.728 -0.8880 -0.7460  0.2572
37772SOL    HW216719   3.893   6.241   3.803 -0.7370 -0.9318  0.5932
37773SOL     OW16720   5.863   8.993   4.154  0.1525  0.5156 -0.8104
37773SOL    HW116721   5.884   9.073   4.203 -0.4241  1.4024 -1.9577
37773SOL    HW216722   5.771   9.002   4.130 -0.2201 -1.0051 -0.0826
37774SOL     OW16723   6.358   1.616   7.371  0.4681  0.6052  0.1350
37774SOL    HW116724   6.331   1.682   7.435 -0.4365 -0.2137  0.6329
37774SOL    HW216725   6.292   1.622   7.301 -0.0907 -0.2927  0.5661
37775SOL     OW16726   6.846   9.363   5.335  0.1190  0.3450 -0.2672
37775SOL    HW116727   6.779   9.427   5.358 -0.8379 -0.5598 -0.4850
37775SOL    HW216728   6.927   9.414   5.328  0.0867  1.0142  2.9507
37776SOL     OW16729   9.059   1.353   3.086 -0.0689 -0.2793 -0.2908
37776SOL    HW116730   8.966   1.374   3.088 -0.3103 -1.3023 -0.2186
37776SOL    HW216731   9.092   1.396   3.007 -0.6319 -0.0379 -0.3973
37777SOL     OW16732   1.298   2.099   3.183 -0.5328 -0.2787  0.2685
37777SOL    HW116733   1.310   2.194   3.188  0.0331 -0.3299  0.0026
37777SOL    HW216734   1.381   2.067   3.147 -0.7996 -0.8538  0.1648
37778SOL     OW16735   4.273  10.389   0.002  0.0014 -0.1904  0.0733
37778SOL    HW116736   4.303  10.406  -0.087  1.4740 -2.3610  0.0747
37778SOL    HW216737   4.348  10.408   0.058 -0.0182 -1.3747  0.5458
37779SOL     OW16738  10.019   5.829   0.041  0.4482 -0.3764  0.2569
37779SOL    HW116739  10.079   5.894   0.004  0.5083 -1.5654 -1.9551
37779SOL    HW216740  10.056   5.745   0.014 -2.0915 -1.1624 -1.1258
37780SOL     OW16741   3.552   8.265   2.403  0.4031 -0.1155 -0.2768
37780SOL    HW116742   3.523   8.317   2.478 -1.5149 -1.1507 -0.2328
37780SOL    HW216743   3.638   8.301   2.380 -0.6312  2.7986  0.0088
37781SOL     OW16744   1.346  10.499   8.798  0.2942 -0.2884 -0.3343
37781SOL    HW116745   1.441  10.500   8.786  0.1826  1.9944 -1.5684
37781SOL    HW216746   1.311  10.469   8.715 -0.1015  0.3928 -0.4165
37782SOL     OW16747   6.145  10.761   1.612  0.0397 -0.0850 -0.6435
37782SOL    HW116748   6.115  10.700   1.545 -0.6463  0.5043 -0.8884
37782SOL    HW216749   6.069  10.816   1.630  0.0374 -0.6062  1.0577
37783SOL     OW16750   0.760   3.198   6.425  1.2620 -0.1986  0.1259
37783SOL    HW116751   0.712   3.226   6.502  1.3764 -0.1110  0.1655
37783SOL    HW216752   0.786   3.280   6.381  1.4106 -0.2434  0.1275
37784SOL     OW16753   8.260   2.519  10.404 -0.2074  0.1440  0.3371
37784SOL    HW116754   8.238   2.611  10.413 -0.9414 -0.1072  1.1570
37784SOL    HW216755   8.332   2.518  10.340 -1.5710  1.1018 -1.3142
37785SOL     OW16756  10.340   2.042   7.984  0.3358  0.2137  0.1800
37785SOL    HW116757  10.335   2.067   8.077  1.0875  2.0990 -0.2293
37785SOL    HW216758  10.406   1.973   7.981 -1.8627 -2.1010  1.3887
37786SOL     OW16759   0.129   6.716   7.061 -0.6369 -0.3032  0.1163
37786SOL    HW116760   0.175   6.793   7.095 -1.4994 -0.0590  0.7526
37786SOL    HW216761   0.199   6.651   7.049 -0.0546  0.2101  0.6220
37787SOL     OW16762   9.688   5.300   2.302  0.1490 -0.2632 -0.3039
37787SOL    HW116763   9.753   5.252   2.354 -0.8455 -0.5597  0.6914
37787SOL    HW216764   9.613   5.309   2.360  0.2446  2.4341 -0.4872
37788SOL     OW16765   4.734   0.780   2.061 -0.2724 -0.2491  0.7447
37788SOL    HW116766   4.735   0.870   2.095  0.0357 -0.0598  0.2563
37788SOL    HW216767   4.787   0.785   1.981  0.3855 -1.0302  1.1269
37789SOL     OW16768   2.948   2.546   4.605 -0.4793 -0.0216 -0.2292
37789SOL    HW116769   2.860   2.517   4.580  0.2539 -1.8790 -0.8100
37789SOL    HW216770   2.943   2.641   4.604 -2.6159 -0.0793  0.2303
37790SOL     OW16771   1.370   2.865   0.103  0.5344 -0.3216  0.1614
37790SOL    HW116772   1.334   2.938   0.153  1.4587  1.3743 -1.5307
37790SOL    HW216773   1.458   2.894   0.078  0.4836 -1.4982 -1.5496
37791SOL     OW16774   9.317   8.070   0.585  0.4470  0.5491  0.4244
37791SOL    HW116775   9.357   8.029   0.508 -1.6365 -0.5547 -0.1509
37791SOL    HW216776   9.349   8.018   0.659  0.6313  0.1460  0.0646
37792SOL     OW16777   2.671   0.754   5.275  0.0363 -0.0230 -0.3445
37792SOL    HW116778   2.753   0.800   5.257  0.8717 -1.8592 -1.4696
37792SOL    HW216779   2.662   0.759   5.371  1.8681 -0.4172 -0.1086
37793SOL     OW16780   6.972   0.224   9.735 -0.1012  0.7234  0.5335
37793SOL    HW116781   7.020   0.229   9.653  0.2405  0.4352  0.7173
37793SOL    HW216782   7.033   0.184   9.797 -0.6117  0.2386  0.7356
37794SOL     OW16783   5.167   3.323   8.891 -0.3510 -0.1010 -0.3998
37794SOL    HW116784   5.199   3.241   8.853 -1.7033 -0.7329 -0.2052
37794SOL    HW216785   5.235   3.348   8.953  0.2093 -0.9177 -0.6603
37795SOL     OW16786   1.390   1.137   9.974  0.0384  0.3386  0.1720
37795SOL    HW116787   1.445   1.149  10.051  0.3058 -1.2209  0.2681
37795SOL    HW216788   1.301   1.136  10.008  0.0970  0.6638  0.3286
37796SOL     OW16789   2.173   5.856   8.951  0.0322 -0.6207  0.3243
37796SOL    HW116790   2.258   5.865   8.908  0.8724 -1.3235  1.7972
37796SOL    HW216791   2.168   5.929   9.012 -0.0438 -1.0603  0.8535
37797SOL     OW16792   0.061   9.146   4.404  0.0097  0.3373  0.4413
37797SOL    HW116793   0.152   9.122   4.390  0.2705  1.1187  0.7391
37797SOL    HW216794   0.065   9.229   4.452 -0.8252 -0.6666  2.3732
37798SOL     OW16795   2.952   1.835   4.214  0.0939  0.4445 -0.1705
37798SOL    HW116796   2.882   1.772   4.233 -0.8510  1.4527 -0.1850
37798SOL    HW216797   3.020   1.815   4.278 -0.9711  0.5921  1.0582
37799SOL     OW16798   5.598   2.111   3.318 -0.7004 -0.4278 -0.7121
37799SOL    HW116799   5.555   2.151   3.243 -0.2346 -1.7706 -1.7418
37799SOL    HW216800   5.540   2.128   3.392 -1.2411  0.7865 -1.3927
37800SOL     OW16801   3.262   8.171   8.872 -0.4953 -0.3860 -0.0203
37800SOL    HW116802   3.221   8.084   8.867 -1.2478 -0.0215 -0.4322
37800SOL    HW216803   3.192   8.228   8.905  0.3770 -0.1640  1.5780
37801SOL     OW16804   8.967   2.522   0.040 -0.4574  0.2064 -0.1741
37801SOL    HW116805   9.060   2.523   0.060 -0.2978 -0.3869 -0.8530
37801SOL    HW216806   8.961   2.482  -0.047 -1.4950 -1.8659  0.7591
37802SOL     OW16807   3.508   8.976   5.730  0.0070 -0.2990  0.0387
37802SOL    HW116808   3.525   8.929   5.649  2.8667 -1.2498  1.0462
37802SOL    HW216809   3.518   9.068   5.707 -0.9219 -0.4383 -1.0010
37803SOL     OW16810   7.141   4.309   8.987  0.2957  0.5745  0.4470
37803SOL    HW116811   7.105   4.301   8.898  1.2087  0.9385  0.0346
37803SOL    HW216812   7.225   4.354   8.975  0.5941  0.3069  1.4585
37804SOL     OW16813   4.900   4.354   0.878 -0.1374 -0.5177  0.0534
37804SOL    HW116814   4.994   4.355   0.897 -0.0206  0.1551 -0.5452
37804SOL    HW216815   4.895   4.364   0.783 -0.8851  2.1412  0.3139
37805SOL     OW16816   3.053   0.207   1.236  0.2724 -0.2050 -0.1896
37805SOL    HW116817   3.088   0.214   1.325 -0.2169  2.0819 -0.1144
37805SOL    HW216818   3.125   0.237   1.180  0.9310 -2.5819 -0.7042
37806SOL     OW16819   5.525   0.206  10.327 -0.2332 -0.6977  0.6715
37806SOL    HW116820   5.497   0.237  10.241 -0.4386 -1.6742  0.3697
37806SOL    HW216821   5.545   0.285  10.376 -0.8948 -0.0955 -0.0097
37807SOL     OW16822   3.689   6.139   4.411  0.1390 -0.5161 -0.3183
37807SOL    HW116823   3.679   6.043   4.409 -2.2349 -0.3421  0.5728
37807SOL    HW216824   3.622   6.171   4.350  0.6885  0.6107 -0.3527
37808SOL     OW16825   6.545   0.903   7.443  0.3991 -0.5489 -0.5126
37808SOL    HW116826   6.584   0.887   7.530  0.5694  0.8597 -0.3037
37808SOL    HW216827   6.621   0.911   7.385  0.5191  2.0397 -0.1336
37809SOL     OW16828  10.257   3.848   9.054 -0.2540  0.3013 -0.0349
37809SOL    HW116829  10.249   3.815   9.144 -0.6543  0.9787  0.1886
37809SOL    HW216830  10.176   3.822   9.011  0.0976 -0.3483 -0.3178
37810SOL     OW16831   4.680   7.332   4.122  0.2706  0.0112  0.4630
37810SOL    HW116832   4.669   7.258   4.182 -0.3124  0.4271  0.8774
37810SOL    HW216833   4.744   7.388   4.166  2.1242 -1.0783 -0.6743
37811SOL     OW16834   6.983   2.182   9.800 -0.2832  0.0775  0.1416
37811SOL    HW116835   7.068   2.213   9.830 -0.0438 -1.2465  0.9448
37811SOL    HW216836   6.931   2.173   9.880 -0.6681 -0.5870 -0.1708
37812SOL     OW16837   7.115   3.295   8.208 -0.1310 -0.5875  0.2861
37812SOL    HW116838   7.139   3.245   8.286  2.5520  1.1329  0.6805
37812SOL    HW216839   7.129   3.235   8.135  1.4934 -0.9360  0.8543
37813SOL     OW16840  10.120   2.865   1.207  0.0428  0.4320 -1.0620
37813SOL    HW116841  10.131   2.828   1.294  0.5221  1.9175 -0.4499
37813SOL    HW216842  10.025   2.862   1.191 -0.2082  1.4282  0.1249
37814SOL     OW16843   7.302   0.802   2.003 -0.1904  0.1215 -0.1536
37814SOL    HW116844   7.307   0.798   1.907 -1.0956  0.1939 -0.2108
37814SOL    HW216845   7.224   0.750   2.025 -1.1673  1.7492  0.3960
37815SOL     OW16846   6.014   7.764  10.214  0.2795  0.0378  0.2144
37815SOL    HW116847   6.101   7.785  10.248  0.8162 -0.1019 -1.0267
37815SOL    HW216848   5.972   7.849  10.202 -0.0490  0.0737  1.5368
37816SOL     OW16849   9.696   8.697   7.383 -0.2594  0.0992 -0.1634
37816SOL    HW116850   9.671   8.716   7.473  2.3068  0.8079  0.4875
37816SOL    HW216851   9.622   8.726   7.330 -1.2682  0.9340  1.6258
37817SOL     OW16852   5.884  10.501   8.492 -0.0406  0.2463  0.3211
37817SOL    HW116853   5.867  10.516   8.399  0.1419  0.1105  0.2632
37817SOL    HW216854   5.842  10.575   8.537  0.0512  0.4252  0.1154
37818SOL     OW16855   4.248   9.326   6.038  0.2807 -0.3547 -0.1926
37818SOL    HW116856   4.324   9.268   6.030  0.0496 -0.8034  0.8394
37818SOL    HW216857   4.282   9.404   6.082  0.5021  0.1642 -1.2327
37819SOL     OW16858   5.800   9.688   3.599 -0.0434 -0.5786 -0.7311
37819SOL    HW116859   5.798   9.694   3.504  0.1953 -0.3750 -0.7247
37819SOL    HW216860   5.708   9.696   3.626  0.1154  2.5741 -0.7565
37820SOL     OW16861   4.640   1.813   5.651 -0.2684 -0.3317 -0.3980
37820SOL    HW116862   4.626   1.848   5.739  0.7304 -0.0191 -0.3558
37820SOL    HW216863   4.593   1.873   5.594 -2.8830 -1.7833  0.0614
37821SOL     OW16864   1.616   6.149   4.296  0.2748  0.1622  0.9343
37821SOL    HW116865   1.672   6.105   4.232  1.1676  0.1485  1.7168
37821SOL    HW216866   1.605   6.238   4.261 -1.1953 -0.5104 -0.4385
37822SOL     OW16867   5.903   4.315   0.603 -0.3440  0.1305 -0.2844
37822SOL    HW116868   5.971   4.324   0.536 -0.2773  1.8445 -0.0380
37822SOL    HW216869   5.951   4.317   0.686 -0.4656 -1.5542 -0.1408
37823SOL     OW16870   6.899   6.525   1.147 -0.3142  0.4803  0.5160
37823SOL    HW116871   6.844   6.448   1.133  2.1419 -1.1835 -0.5491
37823SOL    HW216872   6.933   6.546   1.060  1.6380  0.7149  1.3076
37824SOL     OW16873   5.880   4.844   9.589 -0.6652  0.1038 -0.3678
37824SOL    HW116874   5.928   4.925   9.605 -1.0904  0.4213 -0.6601
37824SOL    HW216875   5.917   4.781   9.651  0.1838  0.3107 -0.6539
37825SOL     OW16876   8.082   0.557   8.471  0.0827 -0.1249  0.6700
37825SOL    HW116877   8.158   0.597   8.513  0.0881  1.0263 -0.3747
37825SOL    HW216878   8.066   0.611   8.394 -1.1679 -0.9699  0.3021
37826SOL     OW16879   8.603   5.828   1.261 -0.4901  0.1557 -0.6537
37826SOL    HW116880   8.596   5.733   1.270 -2.0880  0.2165 -0.9585
37826SOL    HW216881   8.512   5.858   1.256  0.0189  1.5585 -2.0219
37827SOL     OW16882   8.443   1.590   7.681  0.0199 -0.2978  0.3547
37827SOL    HW116883   8.463   1.498   7.701 -0.3039 -1.1821 -2.8472
37827SOL    HW216884   8.349   1.597   7.695 -0.2760 -1.0104 -1.1150
37828SOL     OW16885   8.052   3.226   8.559 -0.5139 -0.0242 -0.3726
37828SOL    HW116886   8.127   3.278   8.586  0.8132 -0.8991 -2.1621
37828SOL    HW216887   8.072   3.137   8.590 -1.1238 -0.1360 -0.2840
37829SOL     OW16888   2.109   9.067   2.732 -0.6189  0.2338 -0.4114
37829SOL    HW116889   2.114   8.974   2.713 -0.5769  0.2217 -0.3425
37829SOL    HW216890   2.200   9.094   2.743 -0.7087 -0.2785  2.3226
37830SOL     OW16891   3.780   7.558   2.716  0.1498  0.4430 -0.4743
37830SOL    HW116892   3.776   7.582   2.623  1.6506 -0.1591 -0.7128
37830SOL    HW216893   3.733   7.628   2.761 -2.6154 -0.3755 -1.8563
37831SOL     OW16894   1.905   0.353  10.581 -0.0650 -0.1985  0.2196
37831SOL    HW116895   1.958   0.365  10.659  0.4748  0.4726 -0.2487
37831SOL    HW216896   1.835   0.293  10.609 -0.8094  1.2534  1.6588
37832SOL     OW16897   1.905   3.203   6.271  0.0445 -0.3472  0.0128
37832SOL    HW116898   1.944   3.117   6.287  0.2183 -0.1266  0.8386
37832SOL    HW216899   1.902   3.244   6.358  0.2611  0.6051 -0.4227
37833SOL     OW16900   1.843   5.539   4.023  0.4267 -0.0191 -0.2585
37833SOL    HW116901   1.915   5.497   3.975  1.7702  1.4930  0.3349
37833SOL    HW216902   1.785   5.572   3.954  0.1554 -1.4201 -0.7421
37834SOL     OW16903   6.953   8.496   8.285  0.2624  0.3377  0.2648
37834SOL    HW116904   6.899   8.462   8.357  0.2177  0.7003  0.4066
37834SOL    HW216905   6.984   8.418   8.240 -0.3411  0.1187  0.2148
37835SOL     OW16906   1.531   3.217   7.088 -0.2513 -0.0606  0.0641
37835SOL    HW116907   1.493   3.304   7.104 -0.6672 -0.2184 -0.0500
37835SOL    HW216908   1.494   3.190   7.003  1.5610  0.5687 -0.9729
37836SOL     OW16909   1.768   8.061   5.180  0.0549 -0.2043  0.7614
37836SOL    HW116910   1.855   8.031   5.151 -0.5388  0.4764 -1.9793
37836SOL    HW216911   1.786   8.139   5.232  1.1021  3.2568 -4.0939
37837SOL     OW16912   4.545   7.171   2.884  0.0871 -0.1924 -0.2579
37837SOL    HW116913   4.455   7.160   2.853  0.1799  0.2264 -0.6836
37837SOL    HW216914   4.593   7.096   2.846 -0.2277 -0.8397  0.5825
37838SOL     OW16915   8.212   6.858  10.289  0.4523  0.1460 -0.4259
37838SOL    HW116916   8.296   6.847  10.334 -1.1927 -0.2676  2.8319
37838SOL    HW216917   8.183   6.769  10.271  1.2539  0.3107 -2.8374
37839SOL     OW16918   5.820   3.653   5.264 -0.3552  0.3778  0.7073
37839SOL    HW116919   5.884   3.583   5.257  0.3222  1.0140  0.3073
37839SOL    HW216920   5.801   3.677   5.173 -1.5148 -0.1137  0.8126
37840SOL     OW16921   5.572   9.805   4.550  0.4596  0.1594  0.4255
37840SOL    HW116922   5.539   9.716   4.539  0.4399 -0.2504  3.2199
37840SOL    HW216923   5.505   9.861   4.510 -2.1768 -0.8336  3.1209
37841SOL     OW16924  10.711  10.907   5.645  0.1997  0.2970  0.1195
37841SOL    HW116925  10.662  10.956   5.579  0.0228 -0.1430 -0.0808
37841SOL    HW216926  10.803  10.919   5.621  0.2279  1.5492  0.7947
37842SOL     OW16927   3.568   4.543   5.388  0.1489  0.1353 -0.7121
37842SOL    HW116928   3.656   4.539   5.426  0.7219 -0.5747 -2.0252
37842SOL    HW216929   3.583   4.536   5.293 -1.3767 -1.4172 -0.8911
37843SOL     OW16930   7.608   4.607   5.568 -0.2179  0.1240  0.1348
37843SOL    HW116931   7.554   4.643   5.638  0.2660  2.8495 -0.7649
37843SOL    HW216932   7.589   4.662   5.492  2.5540  0.1766 -0.6473
37844SOL     OW16933  10.857   1.941   0.696 -0.1914  0.7923 -0.0532
37844SOL    HW116934  10.904   1.928   0.779 -0.4925  1.5010  0.2320
37844SOL    HW216935  10.914   1.901   0.631 -0.6521 -1.1506  0.6582
37845SOL     OW16936   6.672   8.282   1.740  0.3285 -0.6135  0.3247
37845SOL    HW116937   6.661   8.287   1.835 -0.1107  0.7539  0.2253
37845SOL    HW216938   6.676   8.373   1.712 -1.3521 -0.9585 -1.1815
37846SOL     OW16939   3.609   0.475   7.288 -0.3150 -0.2591  0.3753
37846SOL    HW116940   3.608   0.413   7.362 -0.1243  0.1080  0.6906
37846SOL    HW216941   3.555   0.548   7.318  1.1544  0.6769  0.8579
37847SOL     OW16942   9.753   0.094   1.655 -0.3723 -0.4348  0.1562
37847SOL    HW116943   9.827   0.153   1.650  0.2352 -0.9508  2.0968
37847SOL    HW216944   9.789   0.008   1.631 -0.5201 -0.5549  0.3625
37848SOL     OW16945   3.048   7.882   6.105 -0.0286 -0.4171 -0.2437
37848SOL    HW116946   3.033   7.945   6.175 -0.3769 -0.7525 -0.0086
37848SOL    HW216947   3.116   7.824   6.139 -0.7892 -1.0911  0.1729
37849SOL     OW16948   4.664   1.943   7.016  0.2441 -0.4552  0.0559
37849SOL    HW116949   4.756   1.954   7.041  0.5388 -1.2331 -0.6450
37849SOL    HW216950   4.664   1.957   6.921 -0.5938  0.9011  0.2293
37850SOL     OW16951  10.599   2.588   6.465  0.1190  0.5159  0.2066
37850SOL    HW116952  10.600   2.592   6.370 -1.4510  3.7486  0.1842
37850SOL    HW216953  10.506   2.578   6.488  0.4504 -0.0138  1.3916
37851SOL     OW16954  10.354   9.056   0.212 -0.3160 -0.0784  0.1524
37851SOL    HW116955  10.395   9.030   0.295 -0.4724  2.4569  1.1091
37851SOL    HW216956  10.418   9.113   0.170 -1.2171  0.6290 -0.2931
37852SOL     OW16957   1.406  10.633   6.378 -0.2575 -0.0851  0.0074
37852SOL    HW116958   1.353  10.640   6.299 -0.1256 -2.5502 -0.3937
37852SOL    HW216959   1.495  10.655   6.350 -0.7624  2.8809  0.4173
37853SOL     OW16960   8.749   2.178   8.334 -0.7997 -0.7979 -0.0892
37853SOL    HW116961   8.803   2.255   8.315  0.2632 -1.5030  0.0149
37853SOL    HW216962   8.744   2.175   8.429 -2.3952  0.1816 -0.1140
37854SOL     OW16963   2.645   1.105   7.204  0.2602  0.4595 -0.0276
37854SOL    HW116964   2.716   1.049   7.171 -0.4036 -0.8528  0.6786
37854SOL    HW216965   2.613   1.060   7.282 -1.9009  0.5594 -0.7868
37855SOL     OW16966   0.529   0.107  10.280  0.1022  0.0374 -0.3912
37855SOL    HW116967   0.575   0.190  10.295  0.1683 -0.1539  0.4760
37855SOL    HW216968   0.571   0.071  10.202  0.2860  0.6680 -0.5937
37856SOL     OW16969   9.603   7.443   3.153  0.1835 -0.3331 -0.1906
37856SOL    HW116970   9.661   7.477   3.085 -0.9044  0.1223 -0.9134
37856SOL    HW216971   9.623   7.349   3.156 -0.0088 -0.4317 -1.4073
37857SOL     OW16972   3.437   6.223   9.254  0.5138 -0.5622  0.6247
37857SOL    HW116973   3.366   6.171   9.292  1.5307 -1.0730  1.9006
37857SOL    HW216974   3.442   6.301   9.308 -0.3919  0.4750 -0.7187
37858SOL     OW16975   0.152   5.391   3.106  0.1353  0.2700 -0.7560
37858SOL    HW116976   0.129   5.298   3.101 -1.7441  0.6144  0.3600
37858SOL    HW216977   0.216   5.404   3.037  2.3174 -2.3666  0.5861
37859SOL     OW16978   4.375   5.233   9.431  0.1034  0.2154  0.1875
37859SOL    HW116979   4.305   5.220   9.495  0.5052 -1.0396  0.4047
37859SOL    HW216980   4.420   5.148   9.428 -1.2465 -0.5416 -3.3798
37860SOL     OW16981   7.965   6.327   4.633 -0.0394  0.5280  0.0611
37860SOL    HW116982   8.047   6.377   4.632  0.3900 -0.1271  1.2982
37860SOL    HW216983   7.976   6.263   4.563  1.3606 -0.8426  1.4592
37861SOL     OW16984   1.599   8.033   6.968 -0.9891 -0.3239 -0.3845
37861SOL    HW116985   1.624   7.941   6.969  0.2906 -0.0001 -0.6799
37861SOL    HW216986   1.630   8.066   6.883 -2.3993  0.1292 -0.7429
37862SOL     OW16987   2.483   8.260   7.669  0.6439 -0.2964 -0.1246
37862SOL    HW116988   2.522   8.347   7.666 -0.2307  0.0907 -0.5630
37862SOL    HW216989   2.517   8.215   7.591  1.3305 -0.4606  0.2613
37863SOL     OW16990   9.318   8.990   3.011  0.5241  0.7300  0.4477
37863SOL    HW116991   9.249   8.940   2.969  0.6534  1.7078 -0.9776
37863SOL    HW216992   9.383   8.924   3.038  0.0367  0.0165 -0.1092
37864SOL     OW16993   8.456   7.320  10.032  0.5015 -0.4197  0.0702
37864SOL    HW116994   8.386   7.376   9.999  1.0951  0.4519  0.2433
37864SOL    HW216995   8.498   7.372  10.101  1.4708 -0.8076 -0.2079
37865SOL     OW16996   2.864   2.584   7.244 -0.1380  0.1369 -0.2064
37865SOL    HW116997   2.855   2.596   7.150  0.5659  0.9590 -0.1824
37865SOL    HW216998   2.952   2.547   7.255  0.4433  1.6124  0.2365
37866SOL     OW16999   8.325   1.688   6.108 -0.0716 -0.1349 -0.3806
37866SOL    HW117000   8.309   1.782   6.105 -0.8973 -0.2913 -1.4539
37866SOL    HW217001   8.255   1.655   6.165 -1.2613 -0.3564 -1.9166
37867SOL     OW17002   6.967   5.531   4.136 -0.1200 -0.0479  0.1613
37867SOL    HW117003   6.909   5.529   4.212  0.4437 -1.3243  0.5905
37867SOL    HW217004   7.050   5.495   4.168 -0.6894 -3.4177 -1.6828
37868SOL     OW17005   8.794   8.426   1.835 -0.3503 -1.0288 -0.2842
37868SOL    HW117006   8.885   8.394   1.833 -0.7316 -2.4276  1.7810
37868SOL    HW217007   8.741   8.347   1.826 -1.4058 -0.2580 -1.1414
37869SOL     OW17008   6.388   5.203   9.674  0.0053  0.4578 -0.8245
37869SOL    HW117009   6.329   5.216   9.600 -2.1967 -0.8061  0.6115
37869SOL    HW217010   6.356   5.261   9.742 -1.5227 -2.2897  0.9697
37870SOL     OW17011   1.861   8.441   4.791 -0.9835 -0.7721  0.0960
37870SOL    HW117012   1.871   8.536   4.799  0.6409 -0.9129 -0.0536
37870SOL    HW217013   1.897   8.406   4.872 -0.5638 -1.3097 -0.3141
37871SOL     OW17014   7.867   5.318   8.718  0.3780 -0.2194  0.5717
37871SOL    HW117015   7.779   5.283   8.701  0.1526  0.2966  0.6674
37871SOL    HW217016   7.861   5.359   8.804  0.5006  0.4941  0.2474
37872SOL     OW17017   5.178   2.278   2.929  0.0018  0.3846  0.1808
37872SOL    HW117018   5.177   2.374   2.936 -1.5028  0.3251  1.3890
37872SOL    HW217019   5.155   2.261   2.838  1.6458  1.1506 -0.4209
37873SOL     OW17020   0.205   3.260   4.131 -0.0287  0.3995  0.5791
37873SOL    HW117021   0.192   3.354   4.123  0.7434  0.4321 -0.6692
37873SOL    HW217022   0.240   3.234   4.045 -0.6275 -1.0837  0.7627
37874SOL     OW17023   7.405   3.157   1.354  0.1797  0.0922  0.1687
37874SOL    HW117024   7.383   3.250   1.362 -2.5997 -0.5243  0.8520
37874SOL    HW217025   7.499   3.153   1.369  0.3134  2.7447  0.5049
37875SOL     OW17026   1.320   4.622   6.127  0.0552 -1.0054  0.5197
37875SOL    HW117027   1.242   4.618   6.071  1.0841  0.4518 -1.1379
37875SOL    HW217028   1.321   4.712   6.160  1.6306 -0.6181 -0.4669
37876SOL     OW17029   0.703   4.113   3.073  0.0032  0.0344  0.1383
37876SOL    HW117030   0.772   4.091   3.010 -0.3109  1.3657 -0.6986
37876SOL    HW217031   0.749   4.132   3.155  0.4172 -1.6725  0.3322
37877SOL     OW17032   4.451   4.912  10.128 -0.2726  0.0960  0.1533
37877SOL    HW117033   4.467   4.857  10.204 -0.7557 -0.2044  0.0402
37877SOL    HW217034   4.481   4.999  10.155  2.3979 -0.5706 -0.3593
37878SOL     OW17035   0.585   8.333  10.201 -0.1853 -0.1994 -0.1636
37878SOL    HW117036   0.648   8.362  10.135 -0.9427  0.1575 -0.7403
37878SOL    HW217037   0.537   8.262  10.159 -0.1849 -0.4668  0.2743
37879SOL     OW17038   1.672   1.631   9.654 -0.3273  0.2821  0.6541
37879SOL    HW117039   1.766   1.623   9.667  0.0255  0.0178 -1.6342
37879SOL    HW217040   1.633   1.578   9.724  1.1649  0.9420  2.0382
37880SOL     OW17041   8.905   2.778  10.745 -0.2590 -0.5638 -0.0108
37880SOL    HW117042   8.989   2.746  10.778  0.5742  1.0399 -0.5073
37880SOL    HW217043   8.847   2.702  10.752  1.1384 -1.6259  0.6109
37881SOL     OW17044   5.625   8.930   4.593 -0.4919 -0.8189  0.0451
37881SOL    HW117045   5.666   9.015   4.604  0.4099 -1.4260  1.6899
37881SOL    HW217046   5.586   8.933   4.505 -0.5734  1.2943  0.1177
37882SOL     OW17047   0.342   8.848   1.025 -0.0580  0.1219  0.2538
37882SOL    HW117048   0.420   8.793   1.034  0.1771  0.4207  0.0758
37882SOL    HW217049   0.293   8.834   1.106 -0.1213 -0.5314  0.1025
37883SOL     OW17050   9.453   0.127   7.247 -0.2102 -0.2254 -0.5112
37883SOL    HW117051   9.498   0.193   7.300  1.5439 -1.1644 -0.7672
37883SOL    HW217052   9.439   0.054   7.307 -1.5794  0.1161 -0.3933
37884SOL     OW17053   9.290   3.310   3.561  0.0702  0.2530  0.5653
37884SOL    HW117054   9.199   3.333   3.579  0.1481  1.1077 -0.0485
37884SOL    HW217055   9.333   3.394   3.544  0.9086 -0.1659  0.5643
37885SOL     OW17056   3.926   4.311   9.204  0.2142 -0.0183  0.4002
37885SOL    HW117057   3.864   4.244   9.234 -0.1411  0.5280  0.9192
37885SOL    HW217058   3.984   4.325   9.278  1.5045 -1.1180 -0.3653
37886SOL     OW17059  10.454   1.129   6.898  0.1812  0.1502  0.2686
37886SOL    HW117060  10.493   1.199   6.952 -2.6987  2.5809 -0.5027
37886SOL    HW217061  10.395   1.084   6.958 -0.3189  0.4881  0.0387
37887SOL     OW17062   9.389   9.842   5.416  0.6141  0.2436  0.3264
37887SOL    HW117063   9.341   9.899   5.477 -0.4249  0.7684 -0.9536
37887SOL    HW217064   9.372   9.879   5.330 -2.2415 -3.3756 -0.9112
37888SOL     OW17065  10.528   1.211   8.127  0.6212  0.2211 -0.0694
37888SOL    HW117066  10.458   1.166   8.079  0.3090  0.5172  0.1006
37888SOL    HW217067  10.607   1.161   8.107  0.3021 -0.3317  0.0272
37889SOL     OW17068   7.438   1.487   0.998 -0.1972 -0.1211 -0.4456
37889SOL    HW117069   7.391   1.436   1.064  0.3988 -0.4385 -0.2570
37889SOL    HW217070   7.413   1.446   0.914 -1.0902  0.3932 -0.4418
37890SOL     OW17071   9.999   7.960   8.607 -0.4767 -0.1056 -0.6478
37890SOL    HW117072  10.060   7.988   8.539 -1.0670  0.6005 -0.8933
37890SOL    HW217073   9.968   8.041   8.646 -0.4331 -0.4985  0.2142
37891SOL     OW17074   5.259   5.818   6.716  0.6076  0.3377  0.2807
37891SOL    HW117075   5.284   5.820   6.808 -3.3085  0.5903  1.5398
37891SOL    HW217076   5.264   5.910   6.688  2.1804  0.2085  0.0609
37892SOL     OW17077   1.122   2.642   9.607 -0.2935 -0.3078  0.9637
37892SOL    HW117078   1.190   2.701   9.573 -1.1475 -0.1205 -0.4944
37892SOL    HW217079   1.168   2.587   9.670  1.0619  0.2733  0.5273
37893SOL     OW17080   9.154   4.024   9.040 -0.0700  0.0107 -0.5411
37893SOL    HW117081   9.094   4.098   9.030 -0.2353 -0.1301 -0.6192
37893SOL    HW217082   9.103   3.960   9.090 -0.3541 -0.5142 -1.4729
37894SOL     OW17083  10.249   3.716   9.292  0.0286 -0.4068 -0.5507
37894SOL    HW117084  10.296   3.640   9.326  0.7847  0.0093 -0.6567
37894SOL    HW217085  10.168   3.720   9.344  0.0586 -1.1840 -0.4416
37895SOL     OW17086   5.033   5.992   4.967 -0.3990 -0.5798  0.0358
37895SOL    HW117087   5.023   5.970   4.874  1.6464 -2.3056  0.1517
37895SOL    HW217088   4.944   6.007   4.998 -1.2432 -1.2955 -1.9074
37896SOL     OW17089   2.752   9.555   2.927  0.3348 -0.3785 -0.1151
37896SOL    HW117090   2.695   9.531   3.000  1.8570  2.6266  2.2461
37896SOL    HW217091   2.709   9.630   2.887 -0.1083 -1.5485 -1.9890
37897SOL     OW17092   6.070   7.442   2.086 -0.4485 -0.2382  0.2609
37897SOL    HW117093   6.012   7.513   2.116 -1.5589 -0.9954 -0.0491
37897SOL    HW217094   6.106   7.405   2.166 -0.4686  0.1673  0.4623
37898SOL     OW17095   0.458   4.953   9.050 -0.0407 -0.5087  0.7644
37898SOL    HW117096   0.513   4.895   8.998  0.0194 -1.5021  1.9022
37898SOL    HW217097   0.487   4.940   9.140 -0.7122  0.5434  1.1526
37899SOL     OW17098   9.186   4.360   4.095  0.0442  0.4540 -0.2408
37899SOL    HW117099   9.149   4.442   4.061  0.7130  0.6459 -0.5219
37899SOL    HW217100   9.250   4.387   4.160 -0.4503  0.1150  0.3958
37900SOL     OW17101   9.496  10.764  10.705 -0.1227  0.1068  0.2590
37900SOL    HW117102   9.515  10.769  10.799 -0.4356  2.0614  0.2645
37900SOL    HW217103   9.434  10.692  10.697 -0.9847  0.6418  1.7318
37901SOL     OW17104   7.532   9.872   8.610  0.0670 -0.1818 -0.2949
37901SOL    HW117105   7.444   9.883   8.573  0.6566 -1.2510 -2.1300
37901SOL    HW217106   7.516   9.837   8.697 -1.3457 -1.8355 -1.1462
37902SOL     OW17107   3.857   6.718   1.454 -0.0152 -0.1389  0.3415
37902SOL    HW117108   3.860   6.810   1.427 -1.2669  0.7063  2.7177
37902SOL    HW217109   3.924   6.711   1.523  0.2199 -1.0701  0.0280
37903SOL     OW17110   8.320   2.287   6.277  0.4092 -0.3305  0.0071
37903SOL    HW117111   8.351   2.353   6.339 -1.1991  0.9806 -0.4958
37903SOL    HW217112   8.381   2.214   6.286  1.2428  0.5339  1.8376
37904SOL     OW17113   4.955   4.875   8.885  0.0729  0.4233 -0.2941
37904SOL    HW117114   4.986   4.879   8.795 -2.0581  0.7745 -1.0576
37904SOL    HW217115   4.947   4.966   8.913 -1.7220  0.4286 -0.6921
37905SOL     OW17116   5.020  10.822   6.314 -0.2308  0.2464  0.0260
37905SOL    HW117117   5.090  10.759   6.301 -1.3546 -0.9191 -0.6554
37905SOL    HW217118   5.049  10.877   6.387  1.2257 -0.3952 -0.0412
37906SOL     OW17119   3.254   0.007   7.904 -0.4671 -0.2215 -0.2556
37906SOL    HW117120   3.246   0.093   7.944  0.3242 -0.0595 -0.4192
37906SOL    HW217121   3.191  -0.048   7.951 -0.5311  0.2964  0.2737
37907SOL     OW17122   3.872   1.062   7.557 -0.4719  0.3802  0.4916
37907SOL    HW117123   3.909   0.978   7.583  1.5056  1.3362  0.9139
37907SOL    HW217124   3.917   1.084   7.475 -1.2168  0.8816  0.2064
37908SOL     OW17125   6.686   5.837   1.230 -0.5211 -0.2964 -0.2343
37908SOL    HW117126   6.715   5.823   1.320 -2.5163 -0.7338  0.3905
37908SOL    HW217127   6.703   5.754   1.186 -1.3586 -0.7510  0.2803
37909SOL     OW17128   4.151   1.864   1.388 -0.2241 -0.0519 -0.5927
37909SOL    HW117129   4.202   1.901   1.460  0.8807  0.1096 -1.4200
37909SOL    HW217130   4.118   1.941   1.341 -0.1368 -0.1349 -0.7939
37910SOL     OW17131   4.314   0.690   7.932 -0.2862 -0.3612  0.1475
37910SOL    HW117132   4.405   0.676   7.905 -0.2960 -0.2002  0.0341
37910SOL    HW217133   4.263   0.681   7.852 -0.3926 -0.6688  0.2495
37911SOL     OW17134   3.976   4.361   4.149  0.5405  0.2648  0.4449
37911SOL    HW117135   4.021   4.373   4.233  3.0311 -2.4930 -0.3195
37911SOL    HW217136   4.029   4.296   4.103 -2.4532 -0.6650 -2.0175
37912SOL     OW17137   5.854   0.710   7.464  0.3699  0.1903 -0.5480
37912SOL    HW117138   5.949   0.718   7.461  0.5004  0.4716  2.1531
37912SOL    HW217139   5.822   0.791   7.424  1.2425  0.0890 -1.4953
37913SOL     OW17140   0.127   1.686   5.223 -0.0221 -0.0952  0.3907
37913SOL    HW117141   0.052   1.746   5.225  0.2086  0.2194  2.2085
37913SOL    HW217142   0.194   1.731   5.276  1.3967 -0.4515 -1.0211
37914SOL     OW17143   7.162   1.433   7.302  0.3304 -0.0565  0.1997
37914SOL    HW117144   7.228   1.502   7.310  0.9186 -0.7191  1.2897
37914SOL    HW217145   7.210   1.359   7.265  0.3257 -0.6885  1.4145
37915SOL     OW17146   0.729   7.825  10.455 -0.0964  0.8614 -0.2580
37915SOL    HW117147   0.783   7.894  10.418  2.1330 -1.4518 -1.6458
37915SOL    HW217148   0.726   7.757  10.387  0.0711 -1.5144  1.9483
37916SOL     OW17149   1.996   3.706   3.146 -0.2257  0.6345 -0.5005
37916SOL    HW117150   1.980   3.788   3.193  2.8212  1.9809 -1.5536
37916SOL    HW217151   2.087   3.684   3.167 -1.1702 -3.0118  0.4094
37917SOL     OW17152   7.373   9.077   4.836  0.0033 -0.8391  0.3374
37917SOL    HW117153   7.381   9.030   4.753 -0.2974 -2.5485  1.2163
37917SOL    HW217154   7.283   9.109   4.837  0.2798 -0.0178 -0.3793
37918SOL     OW17155   2.927   5.508   9.000 -0.1313 -0.6513  0.4323
37918SOL    HW117156   2.849   5.460   9.027 -1.1369 -0.5997 -2.0267
37918SOL    HW217157   2.971   5.449   8.938 -0.4311  0.7934 -1.2555
37919SOL     OW17158   7.235   3.455   3.505  0.3006  0.0779 -0.9059
37919SOL    HW117159   7.221   3.478   3.414  0.4984 -0.9170 -1.1987
37919SOL    HW217160   7.326   3.480   3.523 -0.2169  1.8262 -0.4707
37920SOL     OW17161  10.777   0.017   0.893 -0.2053  0.8467  0.2008
37920SOL    HW117162  10.782   0.050   0.803  0.3360 -0.8104 -0.4208
37920SOL    HW217163  10.830  -0.063   0.892 -1.0943  0.1985  1.7121
37921SOL     OW17164   8.841   5.145   9.982 -0.2715 -0.3669 -0.1688
37921SOL    HW117165   8.913   5.196  10.019  0.2798 -0.4337 -1.1001
37921SOL    HW217166   8.762   5.192  10.006  0.1568  0.2793 -0.0191
37922SOL     OW17167   8.789   5.536   5.675  0.8112  0.0594 -0.1868
37922SOL    HW117168   8.749   5.511   5.758 -1.0694 -1.2147 -1.4111
37922SOL    HW217169   8.857   5.470   5.660  1.6772  0.7331  0.6657
37923SOL     OW17170   8.894   0.111   4.939  0.1244  0.0672  0.0676
37923SOL    HW117171   8.916   0.018   4.936  1.2927  0.3281  0.2885
37923SOL    HW217172   8.808   0.114   4.980 -0.1084 -0.9408 -0.3147
37924SOL     OW17173   2.819   6.967   2.155 -0.1945 -0.1670  0.9720
37924SOL    HW117174   2.764   7.029   2.203 -0.7313  0.1810 -0.0639
37924SOL    HW217175   2.909   6.992   2.178 -0.4254  0.3082  1.3874
37925SOL     OW17176  10.035   6.052   5.650  0.1669  0.0617 -0.3961
37925SOL    HW117177  10.088   6.099   5.715 -0.2384  0.1186 -0.1063
37925SOL    HW217178  10.021   5.966   5.689  0.1393  0.0081 -0.5250
37926SOL     OW17179   1.263   0.071   3.175  0.0863 -0.0555  0.5202
37926SOL    HW117180   1.306   0.156   3.178 -0.4130  0.2049  0.4297
37926SOL    HW217181   1.254   0.045   3.267 -0.0733  0.1524  0.5644
37927SOL     OW17182   6.989   8.364   3.914 -0.4430  0.4882  0.9056
37927SOL    HW117183   7.041   8.290   3.946 -0.7943 -0.2837 -0.2364
37927SOL    HW217184   6.993   8.429   3.984  2.3028  0.5888  0.7519
37928SOL     OW17185   5.196   1.170   7.012 -0.2196  0.6650 -0.0193
37928SOL    HW117186   5.280   1.140   6.975  0.0417  0.6782  0.5538
37928SOL    HW217187   5.131   1.109   6.976  0.1408  0.1742  0.1422
37929SOL     OW17188   2.478   5.884   8.051 -0.3318  0.8000  0.5019
37929SOL    HW117189   2.396   5.931   8.035 -0.5946  0.5108  0.9766
37929SOL    HW217190   2.530   5.899   7.972 -0.4368  1.8200  0.6210
37930SOL     OW17191   1.623   3.499   3.354  0.6262 -0.2230  0.8370
37930SOL    HW117192   1.666   3.499   3.269  0.7534 -1.3917  0.8874
37930SOL    HW217193   1.531   3.482   3.335  0.3156  1.3108  0.8096
37931SOL     OW17194   4.052   0.632   2.799  0.1144 -0.4210 -0.0574
37931SOL    HW117195   4.011   0.546   2.794 -0.7573 -0.0530  0.5029
37931SOL    HW217196   4.146   0.614   2.808 -0.0069 -1.2931 -0.4509
37932SOL     OW17197   8.470   0.090   4.977  0.4463  0.4062 -0.4947
37932SOL    HW117198   8.511   0.163   4.931  0.2918 -1.3738 -3.7352
37932SOL    HW217199   8.535   0.020   4.973 -0.4626 -0.4849  0.0280
37933SOL     OW17200   9.690   6.604   5.295  0.0935 -0.4758 -0.1923
37933SOL    HW117201   9.676   6.660   5.371  1.6578  0.1807 -0.3471
37933SOL    HW217202   9.747   6.655   5.237  2.5201 -2.5782  0.1588
37934SOL     OW17203   9.610   6.430   8.210  0.7381  0.5336  0.2914
37934SOL    HW117204   9.663   6.373   8.266  1.9527  1.5178  0.1908
37934SOL    HW217205   9.521   6.418   8.242  1.5149  2.2213  3.6228
37935SOL     OW17206   7.314   3.370   6.064 -0.1993 -0.2091 -0.1699
37935SOL    HW117207   7.230   3.331   6.087 -0.3170 -0.6550 -1.3303
37935SOL    HW217208   7.375   3.334   6.128 -0.6449 -0.8946 -0.1212
37936SOL     OW17209   2.724   0.250   9.514  0.5105 -0.4001 -0.1519
37936SOL    HW117210   2.718   0.271   9.420 -1.9521 -1.7707 -0.3974
37936SOL    HW217211   2.793   0.185   9.519  0.7841 -0.1947 -0.9814
37937SOL     OW17212   2.674  10.835   2.444  0.0685 -0.3557 -0.5002
37937SOL    HW117213   2.744  10.895   2.472 -0.2572  0.1808 -0.8216
37937SOL    HW217214   2.702  10.749   2.475  0.1918  0.0725  0.6261
37938SOL     OW17215   2.285   1.743   5.126 -0.0578 -0.0617 -0.2037
37938SOL    HW117216   2.288   1.776   5.216  0.0362  1.3337 -0.6809
37938SOL    HW217217   2.372   1.763   5.091 -0.4196  0.3426 -0.8954
37939SOL     OW17218   8.729   3.114   6.143 -0.2754 -0.5816 -0.3745
37939SOL    HW117219   8.682   3.103   6.225 -1.4838  1.0978 -0.8117
37939SOL    HW217220   8.716   3.205   6.119  2.4232 -0.2760 -1.0177
37940SOL     OW17221   1.123   9.653   3.501 -0.0940 -0.0268 -0.1166
37940SOL    HW117222   1.097   9.642   3.592 -0.0639 -0.1630 -0.1249
37940SOL    HW217223   1.193   9.590   3.487 -0.3504 -0.2677 -0.3365
37941SOL     OW17224   7.558   0.357   3.996 -0.5463 -0.0958 -0.0383
37941SOL    HW117225   7.515   0.438   4.024  0.0568 -0.2911  1.5649
37941SOL    HW217226   7.650   0.369   4.022 -0.2408 -0.8832 -0.7207
37942SOL     OW17227   1.645   8.907   4.623 -0.6143 -0.3858  0.2911
37942SOL    HW117228   1.690   8.862   4.695  1.6959 -0.0274 -0.8476
37942SOL    HW217229   1.706   8.975   4.595 -2.3661  0.8996 -0.6460
37943SOL     OW17230   0.366  10.297   7.704  0.2284 -0.4222 -0.1410
37943SOL    HW117231   0.342  10.325   7.793  1.2112 -1.4865  0.4898
37943SOL    HW217232   0.299  10.231   7.682 -0.0295 -0.1419 -0.2040
37944SOL     OW17233   6.782   2.847   0.371 -0.5959  0.3299  0.1441
37944SOL    HW117234   6.792   2.752   0.379  1.8878  0.5225  0.3809
37944SOL    HW217235   6.786   2.864   0.277 -0.7893  0.2194  0.1161
37945SOL     OW17236  10.283  10.651   4.212  0.0518  0.0966 -0.3156
37945SOL    HW117237  10.242  10.584   4.157  2.0649 -0.4085 -1.2558
37945SOL    HW217238  10.218  10.721   4.215 -0.9951 -0.7690 -1.5305
37946SOL     OW17239   5.975   1.738   2.269  0.1029 -0.1697 -0.2677
37946SOL    HW117240   5.962   1.649   2.302 -0.6800  0.0645  0.0869
37946SOL    HW217241   6.036   1.729   2.196  0.3843 -0.9372  0.0589
37947SOL     OW17242  10.676   6.578   0.180  0.2272 -0.3508 -0.1610
37947SOL    HW117243  10.753   6.522   0.169  1.1129  0.5479  1.1659
37947SOL    HW217244  10.605   6.518   0.204  0.5660 -1.1516 -1.0762
37948SOL     OW17245   6.297   9.461  10.033  0.2523 -0.1718 -0.1830
37948SOL    HW117246   6.225   9.477  10.093  0.1571 -3.6667  0.8411
37948SOL    HW217247   6.371   9.438  10.089  1.1981  0.0043 -1.3173
37949SOL     OW17248   0.234   0.401   0.125  0.2542 -0.1607  0.0757
37949SOL    HW117249   0.251   0.414   0.218 -0.6984 -0.3951  0.3001
37949SOL    HW217250   0.288   0.466   0.081 -0.2569  0.8291  0.8599
37950SOL     OW17251   1.749   4.547   7.222  0.1049 -0.0021 -0.5894
37950SOL    HW117252   1.675   4.549   7.283  1.9348 -0.3845  1.7704
37950SOL    HW217253   1.765   4.454   7.206  2.0849 -0.1164  1.6120
37951SOL     OW17254   7.640   5.958   7.335 -0.4411  0.1119  0.1995
37951SOL    HW117255   7.707   5.893   7.352  0.9476  1.6623  0.9866
37951SOL    HW217256   7.676   6.010   7.263 -1.5370  0.0022 -0.4419
37952SOL     OW17257   0.524   9.499   0.586  0.7897  0.0287  0.0799
37952SOL    HW117258   0.554   9.585   0.615 -1.2414  0.6328  0.5103
37952SOL    HW217259   0.596   9.466   0.531  2.0311  1.5369  0.7290
37953SOL     OW17260   4.114   8.196   3.394  0.0871  0.1002  0.8744
37953SOL    HW117261   4.035   8.242   3.423 -1.1271 -0.4998 -1.2363
37953SOL    HW217262   4.176   8.265   3.372 -0.7395  0.6607  0.2696
37954SOL     OW17263   3.158  10.275   8.429 -0.0674  0.1393  0.4462
37954SOL    HW117264   3.208  10.194   8.430 -0.2423  0.0280  1.3171
37954SOL    HW217265   3.066  10.247   8.431 -0.1190  0.3537  1.3931
37955SOL     OW17266  10.214   8.024   7.844 -0.4403  0.0721  0.6590
37955SOL    HW117267  10.121   8.045   7.847 -0.9850 -1.9626 -0.2555
37955SOL    HW217268  10.219   7.942   7.795  1.6653 -0.7564  2.0755
37956SOL     OW17269   0.712   9.266  10.908  0.6395 -0.7618  0.0101
37956SOL    HW117270   0.806   9.253  10.889  1.0005  2.7411 -1.3565
37956SOL    HW217271   0.711   9.321  10.986 -0.2804 -0.6035 -0.1111
37957SOL     OW17272   3.065  10.222   6.573 -0.3443 -0.2916 -0.6506
37957SOL    HW117273   3.110  10.288   6.520  0.2818  0.7522  1.0679
37957SOL    HW217274   3.120  10.214   6.651 -2.7274  0.5023  1.2229
37958SOL     OW17275   4.145   2.120   7.761  0.2392 -0.5381 -0.0520
37958SOL    HW117276   4.201   2.192   7.788 -2.7313  1.5082  1.2019
37958SOL    HW217277   4.102   2.151   7.681  0.9374 -2.1143 -1.0904
37959SOL     OW17278  10.529   6.466   4.904  0.1888  0.2160  0.3933
37959SOL    HW117279  10.585   6.445   4.978  0.4141  0.3681  0.2683
37959SOL    HW217280  10.562   6.412   4.832  0.9403  1.1617 -0.0006
37960SOL     OW17281   2.304   6.377  10.875 -0.3598 -0.4555 -0.1064
37960SOL    HW117282   2.370   6.328  10.925 -0.7140  0.0474  0.8881
37960SOL    HW217283   2.296   6.460  10.922 -1.5377 -0.4229 -0.3472
37961SOL     OW17284   0.532   1.683   7.076 -0.5862 -0.2284  0.6617
37961SOL    HW117285   0.490   1.763   7.106 -1.3222 -0.7513  1.0649
37961SOL    HW217286   0.595   1.662   7.144  0.8047  0.8866 -0.2328
37962SOL     OW17287   7.528   2.982   0.568  0.2032 -0.2229  0.0160
37962SOL    HW117288   7.440   2.994   0.603  0.3988  0.2561  0.3582
37962SOL    HW217289   7.584   2.975   0.645  0.5816  0.3950 -0.1881
37963SOL     OW17290   0.565   8.224   5.185 -0.0259 -0.1713  0.8984
37963SOL    HW117291   0.564   8.281   5.262 -0.6895  0.6795  0.2733
37963SOL    HW217292   0.654   8.187   5.185 -0.0520 -0.2920  2.1320
37964SOL     OW17293   3.891   2.698  10.919 -0.3377 -0.2984  0.2876
37964SOL    HW117294   3.844   2.677  10.839  0.1238 -0.2702  0.0022
37964SOL    HW217295   3.971   2.645  10.915 -0.7485 -1.0073  1.1886
37965SOL     OW17296   4.917   0.851   5.656  0.1409 -0.4250  0.1239
37965SOL    HW117297   4.943   0.939   5.683  0.5108 -0.6517  0.5242
37965SOL    HW217298   4.997   0.799   5.662 -0.2813 -1.0141  0.8664
37966SOL     OW17299   3.642   7.176   9.934  0.0501  0.1550  0.1534
37966SOL    HW117300   3.593   7.239   9.881 -2.9997 -1.0178  1.3567
37966SOL    HW217301   3.576   7.135   9.990  2.2786 -2.4248  1.1128
37967SOL     OW17302   8.533  10.409   8.173  0.1279  0.0105  0.1116
37967SOL    HW117303   8.479  10.330   8.175  0.3981 -0.2690 -1.6319
37967SOL    HW217304   8.480  10.473   8.125  1.2042 -0.2037 -1.4436
37968SOL     OW17305   9.929   2.874   5.693 -0.3039  0.0139  0.0267
37968SOL    HW117306   9.845   2.829   5.687 -0.1684 -0.3721  0.9624
37968SOL    HW217307   9.993   2.804   5.704  0.0680  0.3523  0.0304
37969SOL     OW17308   0.159   3.902   1.662  0.0227 -0.5865  0.3542
37969SOL    HW117309   0.088   3.855   1.617 -1.4785  0.3169  1.6836
37969SOL    HW217310   0.122   3.987   1.683  1.5309 -0.0747  1.0968
37970SOL     OW17311   8.307   0.914   2.740  0.2235  0.2105 -0.2513
37970SOL    HW117312   8.216   0.897   2.716 -0.1298 -0.9718  1.7077
37970SOL    HW217313   8.326   1.001   2.703 -2.1522  1.0941  0.4440
37971SOL     OW17314   1.059   6.384   5.187  0.0170 -0.0627 -0.0646
37971SOL    HW117315   0.996   6.317   5.211  1.1678 -1.4174 -0.6840
37971SOL    HW217316   1.121   6.385   5.260  0.8798 -0.8265 -0.7619
37972SOL     OW17317   0.166   6.549   9.362  0.5596 -0.5874 -0.5083
37972SOL    HW117318   0.224   6.620   9.388 -2.0478  0.9369  1.6296
37972SOL    HW217319   0.188   6.477   9.421  0.8715 -0.3651 -0.3487
37973SOL     OW17320   6.668   4.428  10.120 -0.1292  0.5717  0.0249
37973SOL    HW117321   6.625   4.512  10.139  0.0600  0.5638  0.5157
37973SOL    HW217322   6.648   4.411  10.028 -0.2949  1.0814 -0.0380
37974SOL     OW17323   3.714   3.112   4.252  0.2190 -0.4157  0.2143
37974SOL    HW117324   3.726   3.033   4.200 -0.8183 -0.2069 -0.3920
37974SOL    HW217325   3.673   3.082   4.333 -3.1281 -0.2636 -1.2625
37975SOL     OW17326   9.656   3.638   2.735  0.5606  0.0068 -0.1912
37975SOL    HW117327   9.705   3.568   2.692  1.4166  0.5018 -0.0584
37975SOL    HW217328   9.592   3.667   2.670  0.5384 -0.5531 -0.4243
37976SOL     OW17329   5.136   7.040   1.010  0.1701  0.2482  0.0517
37976SOL    HW117330   5.105   7.014   1.097  1.8225 -0.9947  0.2983
37976SOL    HW217331   5.162   6.959   0.968 -0.5005  0.8489 -1.5988
37977SOL     OW17332   3.058   7.133   9.051  0.1228  0.5542  0.2814
37977SOL    HW117333   2.978   7.081   9.058  0.6747 -0.4285 -0.4400
37977SOL    HW217334   3.040   7.212   9.102 -1.4887  0.5832 -0.2697
37978SOL     OW17335   5.499   8.362   2.571  0.1259  0.1583 -0.0237
37978SOL    HW117336   5.477   8.300   2.501  1.6960  0.7280 -1.0832
37978SOL    HW217337   5.496   8.309   2.651 -1.2666 -0.6154 -0.5440
37979SOL     OW17338   2.160   4.972   6.580 -0.1087 -0.4393  0.4039
37979SOL    HW117339   2.100   4.899   6.569 -1.4722  0.8779 -1.5506
37979SOL    HW217340   2.143   5.029   6.505  1.3390  1.5792  1.5047
37980SOL     OW17341   3.929   9.851  10.324 -0.4373  1.0304 -0.3827
37980SOL    HW117342   3.840   9.879  10.303 -2.1978 -1.8792  2.3489
37980SOL    HW217343   3.968   9.927  10.368 -1.6209  2.2785 -1.3991
37981SOL     OW17344   9.571  10.452   9.536 -0.7839 -0.8359  0.6233
37981SOL    HW117345   9.599  10.415   9.620 -2.5247 -1.0258  1.1618
37981SOL    HW217346   9.485  10.489   9.554 -2.6265 -3.5423 -1.7265
37982SOL     OW17347   5.559   7.608   6.723 -0.4629  0.4940 -0.1932
37982SOL    HW117348   5.563   7.625   6.629 -0.3438  2.6702  0.1705
37982SOL    HW217349   5.553   7.694   6.764  0.9530 -0.2952  1.8765
37983SOL     OW17350  10.421   2.616   2.843 -0.2789 -0.6195  0.4498
37983SOL    HW117351  10.428   2.524   2.866  0.5357 -0.7773 -0.3751
37983SOL    HW217352  10.496   2.633   2.786  0.3521  0.8770  1.6273
37984SOL     OW17353   4.804   4.638   4.787  0.9747  0.2228 -0.1666
37984SOL    HW117354   4.893   4.673   4.788  0.3751  1.8596 -0.1176
37984SOL    HW217355   4.775   4.648   4.696  0.4633  0.7801  0.0495
37985SOL     OW17356   3.727   7.673   1.706  0.1978 -0.3110  0.0287
37985SOL    HW117357   3.758   7.617   1.635 -0.3123 -3.0163  1.7637
37985SOL    HW217358   3.688   7.612   1.769  1.6605  1.7375  3.2015
37986SOL     OW17359   3.213   1.992   0.328  0.9120 -0.0900 -0.3571
37986SOL    HW117360   3.140   1.969   0.270  0.5185 -0.2607  0.1937
37986SOL    HW217361   3.272   2.044   0.273 -0.4831  1.5954 -0.3705
37987SOL     OW17362   7.418   9.896   2.186  0.0523  0.2080  0.4471
37987SOL    HW117363   7.463   9.874   2.104 -2.9611  1.7068 -1.7968
37987SOL    HW217364   7.392   9.812   2.223  1.0306 -0.4757 -0.3845
37988SOL     OW17365   6.329   7.275   9.818  0.1771 -0.5205  0.3710
37988SOL    HW117366   6.349   7.279   9.911 -0.2268 -0.0637  0.4353
37988SOL    HW217367   6.414   7.255   9.777  0.2186 -1.5077  0.8887
37989SOL     OW17368  10.860   8.287   6.707  0.0063 -0.4079 -0.3360
37989SOL    HW117369  10.856   8.299   6.612 -0.6645  0.1333 -0.2500
37989SOL    HW217370  10.948   8.312   6.731  1.2013 -3.3317 -1.1611
37990SOL     OW17371   5.859   1.176  10.383  0.0840 -0.1413  0.2681
37990SOL    HW117372   5.880   1.087  10.411  1.4096  0.3404  0.8630
37990SOL    HW217373   5.763   1.178  10.380 -0.0079 -1.1796  1.5756
37991SOL     OW17374   5.087   7.423   9.847 -0.5524  0.5370  0.2154
37991SOL    HW117375   5.041   7.457   9.924  0.6221  2.9466 -0.0508
37991SOL    HW217376   5.179   7.440   9.865  0.0642 -1.6899 -0.4519
37992SOL     OW17377   5.559   2.637   0.778  0.3889 -0.0789  0.1658
37992SOL    HW117378   5.551   2.544   0.800  0.8101  0.0510  0.8811
37992SOL    HW217379   5.507   2.647   0.698 -0.2187 -0.7912  0.4576
37993SOL     OW17380   3.710   4.499   0.715 -0.4032  0.5366 -0.4960
37993SOL    HW117381   3.628   4.545   0.698 -0.6042  0.0015 -0.9869
37993SOL    HW217382   3.775   4.544   0.661 -0.1116  1.7093  0.7637
37994SOL     OW17383   0.094   2.656   2.850 -0.2920 -0.3902  0.3260
37994SOL    HW117384   0.087   2.631   2.758  0.0187 -2.2375  0.7564
37994SOL    HW217385   0.162   2.723   2.852  0.6331 -1.2680 -0.6475
37995SOL     OW17386   6.747   0.020   3.693 -0.3042  0.4270  0.1581
37995SOL    HW117387   6.671   0.075   3.676  0.6173  1.4354 -0.8076
37995SOL    HW217388   6.769  -0.019   3.609 -0.2583 -0.5366  0.6036
37996SOL     OW17389   0.059   6.061   8.781  0.0642 -0.0822  0.3081
37996SOL    HW117390   0.040   6.145   8.822  1.0161 -0.4635  1.6043
37996SOL    HW217391  -0.027   6.017   8.775 -0.2535  0.4618  0.8006
37997SOL     OW17392   0.284   7.466   1.177  0.2710  0.0914 -0.1213
37997SOL    HW117393   0.250   7.555   1.168  1.7017  0.9424  1.9468
37997SOL    HW217394   0.371   7.468   1.138 -0.4640 -1.0345 -1.9607
37998SOL     OW17395   8.974   0.863   9.694  0.0108 -0.3573  0.1812
37998SOL    HW117396   9.055   0.906   9.665 -0.0432  0.0106  0.5601
37998SOL    HW217397   8.958   0.900   9.781 -1.8007  1.3428 -0.7882
37999SOL     OW17398   7.402   5.683   3.127 -0.1647  0.4352  0.6756
37999SOL    HW117399   7.325   5.733   3.153 -0.9344  1.2130 -2.6711
37999SOL    HW217400   7.476   5.737   3.156 -0.8549  0.7186  2.0170
38000SOL     OW17401   1.195  10.262   7.239  0.4767 -0.4254  0.8146
38000SOL    HW117402   1.167  10.172   7.222  1.3158 -0.7951  1.3096
38000SOL    HW217403   1.165  10.281   7.327  0.1342 -0.1535  0.6383
38001SOL     OW17404   9.904  10.410   7.240  0.4500 -0.2798  0.0113
38001SOL    HW117405   9.836  10.348   7.264  0.6382 -0.7956 -0.7674
38001SOL    HW217406   9.937  10.443   7.324 -2.1227  1.5338  0.4093
38002SOL     OW17407   2.767   5.772   3.348  0.0893 -0.5480 -0.2443
38002SOL    HW117408   2.787   5.802   3.259  0.8678 -0.3798 -0.0243
38002SOL    HW217409   2.852   5.741   3.382  0.1584  0.9580  1.0358
38003SOL     OW17410   5.676   7.306   5.258  0.1454 -0.2160 -0.1294
38003SOL    HW117411   5.699   7.376   5.318  1.2608 -0.1348 -0.6258
38003SOL    HW217412   5.758   7.258   5.244  0.2758  0.5967 -2.6521
38004SOL     OW17413   7.972   3.972  10.763 -0.4327  0.6435  0.6538
38004SOL    HW117414   7.913   3.976  10.838  0.0570  1.2011  1.0159
38004SOL    HW217415   7.989   4.063  10.740 -1.1522  0.4783 -0.6022
38005SOL     OW17416   3.488   0.839   0.641  0.1922 -0.7724  0.4180
38005SOL    HW117417   3.525   0.807   0.724 -0.8472 -0.2014  1.1339
38005SOL    HW217418   3.551   0.903   0.610  1.1628 -1.8196  0.1521
38006SOL     OW17419   3.813   2.475  10.796 -0.2892 -0.1069 -0.2340
38006SOL    HW117420   3.767   2.456  10.714  1.7650 -0.7042 -1.3285
38006SOL    HW217421   3.892   2.420  10.792  1.4141  2.1256  0.6795
38007SOL     OW17422   4.209   5.910   4.536 -0.3477 -0.1291 -0.0365
38007SOL    HW117423   4.158   5.862   4.471 -0.6509 -0.8578  0.7121
38007SOL    HW217424   4.149   5.920   4.610 -0.0986  0.9197  0.0346
38008SOL     OW17425   7.609   7.212   1.610 -0.4279 -0.0858  0.3046
38008SOL    HW117426   7.604   7.244   1.700 -1.9257 -0.6607  0.4470
38008SOL    HW217427   7.526   7.239   1.570 -0.0911 -0.4787 -0.6965
38009SOL     OW17428   7.941   8.356   0.983  0.4676  0.1826  0.4372
38009SOL    HW117429   7.879   8.423   0.954  1.2992  0.8684  0.2069
38009SOL    HW217430   7.895   8.274   0.968  0.7831  0.4540 -2.8949
38010SOL     OW17431   3.765   2.672   5.033 -0.1092 -0.6460 -0.4547
38010SOL    HW117432   3.680   2.714   5.048 -0.1638 -1.0878  0.5999
38010SOL    HW217433   3.790   2.698   4.944 -0.2492  1.4039  0.0557
38011SOL     OW17434   4.907   9.215  10.418  0.2513  0.6569 -0.2695
38011SOL    HW117435   4.895   9.228  10.512  0.1844  0.3007 -0.2273
38011SOL    HW217436   5.001   9.226  10.404  0.1161  1.8699 -0.3518
38012SOL     OW17437   4.323   4.330   5.862 -0.3080  0.3169  0.2872
38012SOL    HW117438   4.258   4.355   5.796 -0.6509  2.1306  1.2675
38012SOL    HW217439   4.326   4.404   5.922  1.6963 -0.3080  1.0251
38013SOL     OW17440   9.022   7.907   9.451  0.2843  0.0468  0.1861
38013SOL    HW117441   8.962   7.855   9.398  0.6097  0.7843 -0.9345
38013SOL    HW217442   8.990   7.897   9.541  0.0089 -1.6051 -0.0763
38014SOL     OW17443   4.280   9.764   7.177 -0.0907 -0.1449  0.6814
38014SOL    HW117444   4.261   9.824   7.105 -0.2364  0.7674  1.4602
38014SOL    HW217445   4.213   9.696   7.169  0.6664 -0.7649 -0.7938
38015SOL     OW17446   9.895   6.092   1.528  0.1991 -0.1918 -0.8375
38015SOL    HW117447   9.854   6.172   1.495 -0.0841  1.0186  2.0994
38015SOL    HW217448   9.828   6.025   1.516 -0.3625  0.4528 -1.4657
38016SOL     OW17449   2.867  10.386   3.968 -0.1721  0.3090  0.0316
38016SOL    HW117450   2.797  10.356   4.027  0.5771 -2.2371 -0.2390
38016SOL    HW217451   2.831  10.464   3.926 -2.4447 -0.2969  0.6659
38017SOL     OW17452   7.802   0.027   8.504  0.5736 -0.2884 -0.6111
38017SOL    HW117453   7.805  -0.021   8.586 -0.3218  0.2142 -0.2746
38017SOL    HW217454   7.894   0.044   8.483  0.7910  0.2601  0.6862
38018SOL     OW17455   1.488   8.438   5.851 -0.2210  0.1752  0.5885
38018SOL    HW117456   1.441   8.424   5.933  0.5395  0.3893  1.0766
38018SOL    HW217457   1.468   8.361   5.798 -0.8037  0.0846  0.9365
38019SOL     OW17458   9.402  10.790   2.712 -0.2499  0.6175 -0.5634
38019SOL    HW117459   9.347  10.713   2.729 -0.1292  0.6874  0.1995
38019SOL    HW217460   9.465  10.790   2.784  0.1194  1.1024 -0.8832
38020SOL     OW17461   8.323   2.184   6.900 -0.8854 -0.2234 -0.0882
38020SOL    HW117462   8.399   2.242   6.905 -0.4225 -0.4726 -2.5364
38020SOL    HW217463   8.353   2.102   6.940 -0.0461 -0.1212 -0.4782
38021SOL     OW17464   2.960   6.232   0.968 -0.1118  0.2132 -0.1453
38021SOL    HW117465   3.030   6.250   0.904  1.5800  1.7491  1.9726
38021SOL    HW217466   2.966   6.139   0.985 -1.1046 -0.4092 -2.6696
38022SOL     OW17467   1.650   1.008   5.325  0.1797 -0.4978  0.4693
38022SOL    HW117468   1.570   0.957   5.316 -0.2862  0.3934 -0.8212
38022SOL    HW217469   1.672   1.034   5.235  1.0494  0.5679  0.9617
38023SOL     OW17470  10.502   0.646   8.933 -0.1094 -0.0724  0.2906
38023SOL    HW117471  10.468   0.696   8.859 -2.3247 -1.6820  0.1059
38023SOL    HW217472  10.430   0.587   8.957  2.0208 -2.5678  0.9903
38024SOL     OW17473   0.430   2.901   0.796  0.2627 -0.4680  0.2126
38024SOL    HW117474   0.455   2.945   0.715 -1.4593 -0.2881 -0.2695
38024SOL    HW217475   0.379   2.825   0.767 -1.5215  0.3279  1.0907
38025SOL     OW17476   5.398   3.403   3.125 -0.2039 -0.4394 -0.0014
38025SOL    HW117477   5.417   3.444   3.210 -0.2628  0.3588 -0.3674
38025SOL    HW217478   5.386   3.477   3.065 -2.0969 -0.9266 -0.3077
38026SOL     OW17479   5.795   9.385   4.243 -0.0744 -0.2198 -0.2880
38026SOL    HW117480   5.801   9.469   4.289  1.8965 -0.2194 -0.4976
38026SOL    HW217481   5.701   9.374   4.229 -0.3697  2.2255 -0.7658
38027SOL     OW17482   7.838   9.387   9.328  0.0763  0.2766 -0.2345
38027SOL    HW117483   7.926   9.424   9.329  0.0736  0.3122 -0.7467
38027SOL    HW217484   7.798   9.423   9.248 -0.5159  0.5170  0.1635
38028SOL     OW17485   2.688   4.467   4.854  0.3097 -0.0492 -0.5832
38028SOL    HW117486   2.660   4.529   4.921 -0.1198 -2.0064  1.1682
38028SOL    HW217487   2.645   4.497   4.774 -1.6998  0.6756  0.6762
38029SOL     OW17488   0.560   7.304   4.740  0.3524 -0.0584  0.2985
38029SOL    HW117489   0.569   7.239   4.670  0.1612 -0.4782  0.6546
38029SOL    HW217490   0.511   7.258   4.809  0.4532  0.3781  0.6669
38030SOL     OW17491   1.853   7.736   2.187 -0.1587  0.5394 -0.0481
38030SOL    HW117492   1.894   7.796   2.125  0.7749 -0.3772 -0.3382
38030SOL    HW217493   1.797   7.680   2.132 -0.1593  0.4135  0.0810
38031SOL     OW17494   7.103   5.458   1.888  0.2246 -0.2455  0.5954
38031SOL    HW117495   7.192   5.467   1.921  1.1200 -0.1352 -1.6381
38031SOL    HW217496   7.093   5.531   1.826  0.3781 -2.7706 -2.7414
38032SOL     OW17497   7.398   4.007   1.614  0.2426  0.0703  0.2745
38032SOL    HW117498   7.313   4.050   1.599  0.8338  1.4180  0.6238
38032SOL    HW217499   7.383   3.950   1.689 -0.3298  0.3639  0.3905
38033SOL     OW17500   2.180   2.662   2.213  0.1083  0.3742 -0.4589
38033SOL    HW117501   2.162   2.627   2.125 -1.3759  2.9333 -1.2773
38033SOL    HW217502   2.125   2.741   2.219  1.9693  1.6081  1.8586
38034SOL     OW17503   8.200   9.281   4.816 -0.0440  0.3580 -0.5522
38034SOL    HW117504   8.176   9.284   4.909 -0.2689 -3.4926 -0.3389
38034SOL    HW217505   8.289   9.317   4.814 -0.1533  0.8076  1.1016
38035SOL     OW17506   0.500   0.446   2.567  0.2662  0.6283 -0.2407
38035SOL    HW117507   0.458   0.480   2.646  0.7878  0.1702  0.2478
38035SOL    HW217508   0.429   0.411   2.515 -0.0010  0.1553  0.4247
38036SOL     OW17509   5.546  10.485   4.408 -0.3423 -0.0377 -0.4536
38036SOL    HW117510   5.467  10.432   4.416  0.1304 -0.7591 -0.3918
38036SOL    HW217511   5.522  10.571   4.441 -1.0431 -0.3064 -0.2578
38037SOL     OW17512   5.338   5.850   6.977  0.3228  0.1593 -0.5375
38037SOL    HW117513   5.417   5.798   6.995  0.6776  1.7188  3.4998
38037SOL    HW217514   5.369   5.940   6.969 -0.9544  0.7960  1.0556
38038SOL     OW17515   7.704   4.891   5.400  0.2660  0.4530 -0.2058
38038SOL    HW117516   7.791   4.899   5.361 -0.0377  1.9998 -0.6097
38038SOL    HW217517   7.644   4.893   5.325 -0.0863 -3.3547 -0.2207
38039SOL     OW17518   5.140   9.672   6.529 -0.3758 -0.3591 -0.8695
38039SOL    HW117519   5.134   9.768   6.526 -1.0669 -0.3438  0.1926
38039SOL    HW217520   5.232   9.653   6.509 -0.0941  0.5707 -0.5245
38040SOL     OW17521   2.133   6.351   9.985  0.5394 -0.0486  0.1359
38040SOL    HW117522   2.214   6.304   9.964  2.1219  1.7318  1.8612
38040SOL    HW217523   2.122   6.340  10.080  0.7922  2.6448  0.5695
38041SOL     OW17524   0.511   0.252   3.834 -0.0009 -0.0680  0.2438
38041SOL    HW117525   0.568   0.305   3.890  0.2221  0.7268 -0.7202
38041SOL    HW217526   0.483   0.311   3.765 -0.0665 -1.1014 -0.6386
38042SOL     OW17527   7.405   7.338  10.613  0.3419 -0.2979 -0.4356
38042SOL    HW117528   7.426   7.349  10.520 -0.9103  0.3813 -0.6590
38042SOL    HW217529   7.322   7.384  10.624  0.6561 -0.0741  1.1076
38043SOL     OW17530   2.562   1.525   2.537 -0.4098 -0.0822  0.0340
38043SOL    HW117531   2.469   1.548   2.537 -0.0431  1.4898 -0.6657
38043SOL    HW217532   2.608   1.608   2.533  1.0278 -0.8664 -0.6519
38044SOL     OW17533   2.034   4.939   8.060  0.0260  0.3203 -0.0111
38044SOL    HW117534   2.037   4.945   8.156  0.1170  1.7943 -0.0893
38044SOL    HW217535   1.951   4.979   8.036 -0.0366 -0.1253 -0.5416
38045SOL     OW17536   0.477   7.905   8.881  0.5686  0.1940 -0.1075
38045SOL    HW117537   0.486   7.809   8.888  1.7942  0.3699  1.6435
38045SOL    HW217538   0.440   7.931   8.966  1.2241  1.3568 -0.1611
38046SOL     OW17539   3.033   1.493   7.144  0.2457  0.3254 -0.4153
38046SOL    HW117540   2.960   1.465   7.199  1.9245  0.4609  2.0251
38046SOL    HW217541   3.048   1.420   7.084 -1.1921 -0.1231 -0.2721
38047SOL     OW17542   7.395   1.085   2.048  0.1713  0.0115 -0.3563
38047SOL    HW117543   7.385   0.991   2.031 -0.9034  0.0034  0.2658
38047SOL    HW217544   7.315   1.124   2.013  0.1087  0.5562  0.3883
38048SOL     OW17545   4.826   7.510   4.316 -0.3452  0.4298 -0.0585
38048SOL    HW117546   4.893   7.571   4.347  1.1424 -1.2919  0.2810
38048SOL    HW217547   4.762   7.506   4.387 -0.4601  1.5304 -0.0800
38049SOL     OW17548   5.294   8.648  10.670  0.0705  0.1020  0.3844
38049SOL    HW117549   5.388   8.640  10.657 -0.4089 -1.4497 -3.9926
38049SOL    HW217550   5.275   8.741  10.658  1.0618  0.5365  2.0145
38050SOL     OW17551   9.931   9.570   5.274  0.2111 -0.1308  0.2396
38050SOL    HW117552   9.842   9.604   5.286  0.3342 -0.3918  2.1750
38050SOL    HW217553   9.987   9.643   5.301  0.5659 -0.3397  0.0616
38051SOL     OW17554   9.266   9.458   9.834 -0.7016 -0.4095 -0.1079
38051SOL    HW117555   9.238   9.521   9.901 -2.6005 -1.5439  0.2178
38051SOL    HW217556   9.266   9.373   9.879  0.5337 -0.8605 -0.8910
38052SOL     OW17557   3.227   9.569   9.129 -0.4782  0.2974  0.3052
38052SOL    HW117558   3.293   9.573   9.060  1.6991 -1.0217  2.1550
38052SOL    HW217559   3.143   9.578   9.083  0.9170  1.5122 -2.2206
38053SOL     OW17560   5.571   9.401   3.479  0.1274  0.1328  0.0305
38053SOL    HW117561   5.661   9.377   3.499 -1.0575 -2.9540  2.5997
38053SOL    HW217562   5.548   9.346   3.404  0.3068  0.8048 -0.5252
38054SOL     OW17563   5.970  10.183   7.201  0.3764 -0.8656 -0.8954
38054SOL    HW117564   5.894  10.157   7.253  1.4981 -0.7322  0.8961
38054SOL    HW217565   6.045  10.150   7.249  1.6081  1.3500 -1.1376
38055SOL     OW17566  10.569   0.566   3.415 -0.0142 -0.3878  0.1092
38055SOL    HW117567  10.485   0.531   3.444 -0.3769 -0.7116 -1.2460
38055SOL    HW217568  10.604   0.611   3.491 -0.3576 -2.1843  1.3844
38056SOL     OW17569   3.131   4.784   2.697 -0.3162 -0.0377  0.2307
38056SOL    HW117570   3.166   4.822   2.616 -1.2287 -0.8536 -0.5903
38056SOL    HW217571   3.060   4.844   2.722 -0.7259 -0.3364 -0.1845
38057SOL     OW17572   0.021   5.850   8.324  0.5716 -1.1875 -0.7132
38057SOL    HW117573   0.032   5.809   8.410  0.9408 -0.2932 -0.3178
38057SOL    HW217574   0.073   5.930   8.329  0.5403 -1.0953 -1.7543
38058SOL     OW17575   5.278   2.049   4.491  0.6490 -0.4427 -0.3960
38058SOL    HW117576   5.265   1.971   4.544  0.1898 -0.1983 -0.1406
38058SOL    HW217577   5.371   2.048   4.468  0.6739 -0.9814 -0.2701
38059SOL     OW17578  10.618   2.260   7.722  0.1152 -0.0887 -0.7802
38059SOL    HW117579  10.534   2.305   7.724  0.8061  1.2303  0.0735
38059SOL    HW217580  10.643   2.251   7.814  1.9004  1.5425 -1.0348
38060SOL     OW17581   2.906   0.869   6.454  0.1513  0.2965 -0.6110
38060SOL    HW117582   2.999   0.869   6.431  0.3348  0.9695  0.1147
38060SOL    HW217583   2.893   0.949   6.504 -0.6740 -0.1270 -0.1241
38061SOL     OW17584   1.599   7.167   6.072  0.2891  0.3103 -0.0740
38061SOL    HW117585   1.632   7.077   6.068  0.3595  0.2992  0.5679
38061SOL    HW217586   1.534   7.173   6.002 -0.3869 -0.5167  0.4690
38062SOL     OW17587   9.948   9.643   3.680  0.5000  0.2097 -0.0282
38062SOL    HW117588  10.009   9.716   3.672 -0.6121  0.9813 -2.6652
38062SOL    HW217589   9.982   9.576   3.621 -1.0343  0.6028 -1.4457
38063SOL     OW17590   1.815   5.931   1.179 -0.2564 -0.3456  0.3561
38063SOL    HW117591   1.882   5.991   1.211  0.2054 -0.6723  0.0024
38063SOL    HW217592   1.733   5.981   1.184  0.1159  0.2869  0.1191
38064SOL     OW17593   9.314   5.161   8.910  0.7190  0.3755 -0.3118
38064SOL    HW117594   9.341   5.157   9.002 -0.1786  0.1541 -0.0516
38064SOL    HW217595   9.259   5.084   8.897  0.4378  0.6656 -0.9008
38065SOL     OW17596   2.963   4.153   1.352 -0.0033 -0.0637  0.3557
38065SOL    HW117597   3.047   4.191   1.381  1.2244 -2.6759  0.4524
38065SOL    HW217598   2.943   4.086   1.416 -3.2045  1.6083  1.3564
38066SOL     OW17599   4.961   0.711   7.924 -0.6250  0.0485 -0.0608
38066SOL    HW117600   5.031   0.708   7.859 -0.3753  0.3148  0.1900
38066SOL    HW217601   4.978   0.791   7.974 -0.3617 -0.5468  0.8391
38067SOL     OW17602   1.780  10.537   2.842 -0.1813 -0.4332  0.2680
38067SOL    HW117603   1.874  10.527   2.857 -0.1763  0.3439  0.7987
38067SOL    HW217604   1.763  10.482   2.765  0.2582 -2.4560  1.5363
38068SOL     OW17605   0.361   6.964   9.758  0.5409 -0.3418 -0.1503
38068SOL    HW117606   0.385   7.043   9.806  1.2807  0.2657 -1.4760
38068SOL    HW217607   0.326   6.905   9.825 -0.0515  1.0992  0.8627
38069SOL     OW17608   0.705   2.202  10.298  0.3048 -0.4413  0.4616
38069SOL    HW117609   0.710   2.173  10.207  2.9364 -2.6897  1.1750
38069SOL    HW217610   0.632   2.151  10.335 -1.6979  1.4953 -0.5875
38070SOL     OW17611   6.804   4.448   8.696 -0.2613  0.3908  0.0608
38070SOL    HW117612   6.864   4.377   8.673 -1.1188  0.2215 -1.8451
38070SOL    HW217613   6.861   4.523   8.713  0.5730 -0.3055  0.4149
38071SOL     OW17614   8.480   1.746   4.924  0.3869 -0.2781 -0.4993
38071SOL    HW117615   8.571   1.747   4.954  0.3673 -1.4645 -0.3343
38071SOL    HW217616   8.458   1.653   4.920 -0.5146 -0.0345 -1.4767
38072SOL     OW17617   0.761   8.618   8.047 -0.3110 -0.3808 -0.1110
38072SOL    HW117618   0.811   8.644   7.970 -2.2277  0.1036 -1.2834
38072SOL    HW217619   0.823   8.570   8.101  1.0900 -0.8870 -2.0314
38073SOL     OW17620   3.477   1.845   5.347 -0.0032 -0.3318  0.0762
38073SOL    HW117621   3.504   1.921   5.296  0.6611 -1.3291 -1.1143
38073SOL    HW217622   3.389   1.824   5.314  0.7146 -1.4193 -1.2561
38074SOL     OW17623   0.833   6.105   3.220 -0.0500 -0.4426  0.8018
38074SOL    HW117624   0.827   6.141   3.308 -0.2766  0.4707  0.4172
38074SOL    HW217625   0.839   6.181   3.162  2.2716 -1.0480  0.1644
38075SOL     OW17626   8.108  10.615   1.837 -0.2294  0.4161  0.0214
38075SOL    HW117627   8.139  10.565   1.761  0.0399 -1.1435  1.1056
38075SOL    HW217628   8.188  10.643   1.881 -0.3855  1.1506 -0.1548
38076SOL     OW17629   9.077  10.864   8.865 -0.3708  0.2476 -0.0953
38076SOL    HW117630   9.066  10.851   8.960  0.1082  0.4357 -0.0126
38076SOL    HW217631   8.995  10.903   8.837 -0.7010 -0.2469  0.1631
38077SOL     OW17632   4.214   9.241   1.598  0.3005  0.6088  0.0059
38077SOL    HW117633   4.267   9.279   1.668  0.1005  2.0098 -0.5628
38077SOL    HW217634   4.135   9.295   1.596  0.3449  0.6645 -1.3346
38078SOL     OW17635   4.250   1.345  10.301  0.1384  0.2150  0.1594
38078SOL    HW117636   4.299   1.349  10.219 -1.0085  0.7409 -0.5154
38078SOL    HW217637   4.316   1.358  10.369  1.0312  0.2486 -0.6978
38079SOL     OW17638   8.388   2.836   2.850  0.0169  0.5076  0.1931
38079SOL    HW117639   8.386   2.836   2.754 -1.7319 -0.3253  0.1942
38079SOL    HW217640   8.297   2.847   2.876  0.4395  0.5103  1.7718
38080SOL     OW17641   8.902  10.665   6.740 -0.0040  0.3318 -0.0396
38080SOL    HW117642   8.875  10.620   6.820  1.0599 -0.6256 -0.2066
38080SOL    HW217643   8.914  10.596   6.675  0.8915  0.9250 -0.5254
38081SOL     OW17644   9.048   9.460  10.382 -0.6826  0.2911 -0.6546
38081SOL    HW117645   9.102   9.537  10.398 -2.0714  0.8526  2.0123
38081SOL    HW217646   9.106   9.399  10.336  1.3546  1.8275 -0.2887
38082SOL     OW17647   1.431  10.512   2.467 -0.4016  0.1615 -0.0115
38082SOL    HW117648   1.354  10.551   2.508  0.0638  1.4992 -0.3672
38082SOL    HW217649   1.396  10.454   2.399 -1.1214 -0.6302  0.9932
38083SOL     OW17650   4.222  10.289   8.920 -0.2153 -0.4609 -0.4809
38083SOL    HW117651   4.296  10.289   8.860  0.1355 -1.4684 -0.0650
38083SOL    HW217652   4.260  10.278   9.007 -0.8183 -0.4993 -0.2113
38084SOL     OW17653   9.230   1.985   1.599  0.3717 -0.3067  0.2504
38084SOL    HW117654   9.284   1.983   1.678  0.4906  0.1001  0.1807
38084SOL    HW217655   9.291   2.004   1.528  0.2878 -0.8240  0.0398
38085SOL     OW17656   1.607   2.439   9.093 -0.0648 -0.0052 -0.1649
38085SOL    HW117657   1.677   2.379   9.121  2.1641  2.4408 -0.1916
38085SOL    HW217658   1.606   2.432   8.997  1.2082  1.0179 -0.2724
38086SOL     OW17659   3.888   7.871   7.926  0.0054  0.1574 -0.1407
38086SOL    HW117660   3.940   7.948   7.903  0.8151  0.0146  1.1370
38086SOL    HW217661   3.947   7.797   7.911 -0.5608 -0.1889 -0.7521
38087SOL     OW17662   5.195   7.867   9.827 -0.2915  0.5796  0.2605
38087SOL    HW117663   5.174   7.775   9.841 -3.8182  1.3115  0.5624
38087SOL    HW217664   5.255   7.867   9.752  0.0353 -1.9282  0.4526
38088SOL     OW17665   0.061   9.469   7.719  0.4028 -0.4126  0.1894
38088SOL    HW117666   0.076   9.539   7.782 -1.4720  0.8605 -0.6845
38088SOL    HW217667   0.123   9.487   7.649 -0.9922  1.2988 -0.6909
38089SOL     OW17668   0.384   1.303   1.872 -0.2865  1.6242 -0.0201
38089SOL    HW117669   0.433   1.227   1.840  0.3249  2.4133 -1.0294
38089SOL    HW217670   0.296   1.269   1.889 -0.1089  0.7438 -0.7424
38090SOL     OW17671   4.877   9.743   2.295  0.2264 -0.0748 -0.9756
38090SOL    HW117672   4.855   9.686   2.221 -0.2183  0.0144 -0.9193
38090SOL    HW217673   4.906   9.825   2.256 -0.1157  0.0115 -1.0565
38091SOL     OW17674   8.199   2.584   8.768 -0.1285 -0.0592 -0.1361
38091SOL    HW117675   8.108   2.554   8.773 -0.6037  1.1603 -0.8435
38091SOL    HW217676   8.220   2.610   8.858 -1.6920  2.8319 -0.4754
38092SOL     OW17677   6.715   5.684   2.172  0.3551  0.2215 -0.2425
38092SOL    HW117678   6.758   5.751   2.119 -1.6413  0.3491 -1.8146
38092SOL    HW217679   6.732   5.602   2.126  1.2580 -0.1323  0.6860
38093SOL     OW17680   3.508   2.322   3.217 -0.0372  0.2602 -0.1531
38093SOL    HW117681   3.461   2.334   3.300 -0.0395 -1.6629  0.1717
38093SOL    HW217682   3.595   2.291   3.244  0.9315  2.1907 -0.8134
38094SOL     OW17683   2.934   2.168   3.890  0.0680  0.4797 -0.1169
38094SOL    HW117684   2.869   2.153   3.821  0.4964 -1.1343 -0.2034
38094SOL    HW217685   2.902   2.245   3.937 -0.7066  1.0686 -1.5509
38095SOL     OW17686   2.318   1.911   2.495 -0.6072  0.1275 -0.5388
38095SOL    HW117687   2.355   1.902   2.407  1.3310 -0.1641  0.2398
38095SOL    HW217688   2.291   1.823   2.519 -0.3502  0.0441 -0.5448
38096SOL     OW17689   1.869   5.677   0.568  0.0250 -0.3487 -0.7176
38096SOL    HW117690   1.784   5.679   0.524  0.7266  1.2434 -2.1180
38096SOL    HW217691   1.867   5.750   0.629 -0.2129 -1.3661  0.5426
38097SOL     OW17692   9.918   6.037   0.274  0.2165  0.2767 -0.2682
38097SOL    HW117693   9.830   6.002   0.263  0.4882 -0.3473 -0.4975
38097SOL    HW217694   9.968   6.001   0.201  0.5097  1.1440 -0.5034
38098SOL     OW17695   6.312   6.076   8.736 -0.4236  0.3000  0.0555
38098SOL    HW117696   6.327   6.171   8.737 -1.4026  0.5376 -2.0512
38098SOL    HW217697   6.229   6.065   8.783  0.1910  0.3361  1.1904
38099SOL     OW17698   4.083   3.750  10.430 -0.5325 -0.6336  0.2838
38099SOL    HW117699   4.169   3.781  10.401 -0.5919 -0.3694  0.3925
38099SOL    HW217700   4.064   3.801  10.509 -0.6120 -0.9730  0.4879
38100SOL     OW17701   3.145   6.514   6.621  0.3957  0.1438 -0.4209
38100SOL    HW117702   3.128   6.570   6.545  1.7321 -0.0545 -0.8849
38100SOL    HW217703   3.097   6.557   6.692 -1.3643  0.0230 -1.4600
38101SOL     OW17704   3.032   2.266  10.790  0.5056 -0.1636  0.7648
38101SOL    HW117705   3.088   2.189  10.785 -1.3066 -1.4844 -2.1469
38101SOL    HW217706   3.062   2.322  10.718 -0.2626  0.3135  0.8009
38102SOL     OW17707   9.594   9.654   4.518 -0.4143 -0.4299 -0.1194
38102SOL    HW117708   9.546   9.737   4.514 -1.0616 -0.8268 -3.6817
38102SOL    HW217709   9.529   9.587   4.495  1.1508 -1.2944 -2.3205
38103SOL     OW17710   6.451   4.582   0.378 -0.4933  0.2592  0.3079
38103SOL    HW117711   6.531   4.594   0.429 -1.0813  0.5885  1.1750
38103SOL    HW217712   6.478   4.594   0.287  0.5728 -0.3301  0.5369
38104SOL     OW17713   0.557  10.620   3.879  0.1274 -0.1974 -0.5394
38104SOL    HW117714   0.531  10.679   3.809 -3.1842 -1.5924 -0.6428
38104SOL    HW217715   0.560  10.676   3.957  0.6304  0.7373 -1.1988
38105SOL     OW17716   2.212   1.404   8.581 -0.4425 -0.1290  0.2412
38105SOL    HW117717   2.160   1.436   8.654  0.5020  0.4265  0.6915
38105SOL    HW217718   2.273   1.475   8.562 -2.2653  0.7965 -2.7600
38106SOL     OW17719   6.147  10.026   6.278 -0.5849  0.1532 -0.5259
38106SOL    HW117720   6.196  10.107   6.288 -0.8681  0.2196  0.3373
38106SOL    HW217721   6.206   9.958   6.309 -2.1340  0.5327  3.8622
38107SOL     OW17722   8.232   0.289   4.647 -0.6987  0.4815  0.3143
38107SOL    HW117723   8.178   0.363   4.619 -0.6627  0.4715  0.2182
38107SOL    HW217724   8.295   0.278   4.576 -0.5536  0.5113  0.4398
38108SOL     OW17725   7.069   9.924   3.703 -0.7855  0.1695 -0.2357
38108SOL    HW117726   6.982   9.957   3.682 -1.1133  0.7362  1.8032
38108SOL    HW217727   7.067   9.909   3.798  2.2515  3.1686  0.5005
38109SOL     OW17728   8.729   2.756   1.802 -0.7116 -0.3624 -0.1427
38109SOL    HW117729   8.725   2.720   1.890 -1.1442  1.0897  0.4790
38109SOL    HW217730   8.820   2.781   1.789 -0.2956 -2.0908 -0.7882
38110SOL     OW17731   4.421   9.774   7.442 -0.0530 -0.2366 -0.2362
38110SOL    HW117732   4.351   9.715   7.468  0.5502 -1.4182 -1.2242
38110SOL    HW217733   4.397   9.803   7.354 -0.8119  1.7690  0.5620
38111SOL     OW17734   0.408  10.832   3.704  0.2088  0.7697 -0.3423
38111SOL    HW117735   0.488  10.884   3.696 -1.3147  3.6474  1.5706
38111SOL    HW217736   0.357  10.855   3.626 -0.0947  1.5287  0.0691
38112SOL     OW17737  10.906   6.986   6.258 -0.1464  0.5731 -0.4267
38112SOL    HW117738  10.945   6.903   6.230  0.6031  1.4690 -2.2079
38112SOL    HW217739  10.977   7.032   6.303 -0.5384  0.3209  0.4839
38113SOL     OW17740   2.349   2.444   9.700 -0.1068  0.1645 -0.0697
38113SOL    HW117741   2.360   2.524   9.649 -1.2422  0.2099 -0.2802
38113SOL    HW217742   2.288   2.391   9.648  0.0756 -0.5270  0.4113
38114SOL     OW17743   4.532   4.865   0.344 -0.4088  0.3095  0.6226
38114SOL    HW117744   4.481   4.792   0.379  1.1817 -1.2875 -0.2145
38114SOL    HW217745   4.600   4.881   0.409 -0.0262  0.2039  0.2570
38115SOL     OW17746   5.411   8.324  10.411 -0.1444  0.5977  0.2122
38115SOL    HW117747   5.365   8.240  10.402  0.0334  0.6300 -1.1899
38115SOL    HW217748   5.472   8.310  10.484  0.8480 -0.9657 -0.8454
38116SOL     OW17749   8.860   4.416   7.617 -0.1241 -0.1325  0.2316
38116SOL    HW117750   8.919   4.386   7.687 -1.3833 -0.7165  1.0814
38116SOL    HW217751   8.773   4.409   7.655 -0.8710 -0.6612 -1.5021
38117SOL     OW17752   8.934  10.572   2.070 -0.3357 -0.1876 -0.1403
38117SOL    HW117753   8.890  10.624   2.003 -0.0288  0.4874  0.1688
38117SOL    HW217754   8.987  10.509   2.020 -0.6857 -0.1835 -0.5222
38118SOL     OW17755   9.993   5.499   6.674 -0.0042 -0.2112  0.0784
38118SOL    HW117756   9.899   5.517   6.677 -0.2437 -0.4663 -2.8729
38118SOL    HW217757  10.004   5.421   6.727 -1.1008  0.9134  2.0761
38119SOL     OW17758   6.023   6.886   9.631 -0.3440  0.5982 -0.6324
38119SOL    HW117759   6.068   6.802   9.633 -2.4530 -0.6001  0.3005
38119SOL    HW217760   6.081   6.946   9.679  0.9577 -0.4253 -0.8829
38120SOL     OW17761   9.886   6.648   5.076  0.8621 -0.0799  0.2910
38120SOL    HW117762   9.870   6.560   5.109  0.8510 -0.3957 -0.5285
38120SOL    HW217763   9.949   6.635   5.005  0.0270  0.4433 -0.5622
38121SOL     OW17764   7.412   7.372   3.817  0.4487 -0.3629 -0.5709
38121SOL    HW117765   7.410   7.449   3.874 -0.7755 -0.2509 -0.7571
38121SOL    HW217766   7.504   7.345   3.818  0.3281 -0.9799  2.2894
38122SOL     OW17767   1.551   0.636   8.313 -0.4377  0.0171  0.2878
38122SOL    HW117768   1.502   0.660   8.390 -1.0642  0.3779 -0.2184
38122SOL    HW217769   1.500   0.669   8.239  0.5536  0.4131 -0.2533
38123SOL     OW17770   0.745   9.295   2.596  0.3203 -0.7583 -0.4159
38123SOL    HW117771   0.681   9.356   2.633 -0.3668 -0.0208 -2.6472
38123SOL    HW217772   0.812   9.286   2.664 -0.7657  0.6393  0.8961
38124SOL     OW17773   9.449   3.864   9.199 -0.3392 -0.3336  0.2873
38124SOL    HW117774   9.466   3.771   9.195 -0.4307 -0.3667  0.6181
38124SOL    HW217775   9.519   3.904   9.148 -0.8726 -0.6468 -0.7250
38125SOL     OW17776  10.040   9.216   6.622  0.3729 -0.2575 -0.1524
38125SOL    HW117777  10.017   9.199   6.713  1.2029  0.4806  0.2050
38125SOL    HW217778   9.971   9.172   6.571 -2.1834  2.2505  0.8525
38126SOL     OW17779   2.117   4.748   0.232  0.6920 -0.3148  0.5631
38126SOL    HW117780   2.181   4.709   0.172 -0.8937 -1.8076 -0.2270
38126SOL    HW217781   2.039   4.761   0.179 -0.3612 -0.5247  2.0109
38127SOL     OW17782   1.938   7.697   9.115  1.1451 -0.2060 -0.5604
38127SOL    HW117783   1.915   7.642   9.040 -1.0824  1.5656 -1.2925
38127SOL    HW217784   1.875   7.671   9.183  0.2859  1.1278 -0.8091
38128SOL     OW17785   9.682   0.419   9.133  0.7322  0.0637  0.3365
38128SOL    HW117786   9.692   0.383   9.221  0.1969  0.0154  0.3772
38128SOL    HW217787   9.711   0.349   9.075 -0.0106 -0.3290  0.4280
38129SOL     OW17788   1.106   5.361   5.578  0.0927  0.0231 -0.3314
38129SOL    HW117789   1.061   5.277   5.574  2.2291 -1.2252  0.1004
38129SOL    HW217790   1.068   5.412   5.506 -1.1275 -1.3680 -0.7260
38130SOL     OW17791   0.030   8.230   1.993 -0.9051 -0.3760  0.8654
38130SOL    HW117792   0.121   8.208   2.014  0.2381 -0.3858 -3.1963
38130SOL    HW217793   0.001   8.160   1.935 -2.4964  1.0771 -0.1886
38131SOL     OW17794   2.422   7.623   7.067  0.0167  0.7126  0.4348
38131SOL    HW117795   2.468   7.593   7.145 -0.0155  1.0037  0.5689
38131SOL    HW217796   2.487   7.617   6.997 -0.8488 -2.7276 -0.2643
38132SOL     OW17797   4.353   0.977   3.520 -0.1083 -0.6018 -0.1256
38132SOL    HW117798   4.444   0.963   3.494 -0.6688 -4.1416 -0.7681
38132SOL    HW217799   4.332   1.065   3.490  2.7719 -0.0914 -0.9246
38133SOL     OW17800   1.339   4.670   4.970 -0.5476  0.1101 -0.1787
38133SOL    HW117801   1.316   4.586   4.929 -4.0729  0.0637  1.4934
38133SOL    HW217802   1.356   4.729   4.897  0.5299 -1.6562 -1.4276
38134SOL     OW17803  10.315   5.324   4.316  0.9622  0.0867  0.1519
38134SOL    HW117804  10.392   5.303   4.368  0.2651 -0.6472  0.9210
38134SOL    HW217805  10.288   5.410   4.347  0.2722 -0.5493  1.3869
38135SOL     OW17806   9.008  10.237   6.456  0.2257 -0.1362  0.1059
38135SOL    HW117807   8.931  10.195   6.418  0.2672 -0.0149 -0.1184
38135SOL    HW217808   9.026  10.188   6.536  1.1381 -1.4399 -0.8828
38136SOL     OW17809   3.382  10.110   8.717  0.0657  0.3958 -0.4755
38136SOL    HW117810   3.390  10.180   8.782 -2.0735 -0.3623  0.7287
38136SOL    HW217811   3.437  10.039   8.751 -0.5843  0.2159  0.2318
38137SOL     OW17812   7.940   3.390   1.117 -0.2201 -0.4167  0.7379
38137SOL    HW117813   8.032   3.400   1.141 -0.0441  1.9245 -0.5744
38137SOL    HW217814   7.904   3.478   1.122 -1.8954 -0.9511 -0.6395
38138SOL     OW17815  10.314  10.192  10.094 -0.1445  0.3795  0.0529
38138SOL    HW117816  10.276  10.278  10.114  1.1435  1.3375 -1.3195
38138SOL    HW217817  10.379  10.178  10.163  1.5171  1.8238 -1.1087
38139SOL     OW17818   1.634   2.430   8.810 -0.4624  0.0516  1.0187
38139SOL    HW117819   1.692   2.505   8.801 -1.0989  0.5570  1.0541
38139SOL    HW217820   1.570   2.441   8.740 -0.7106 -0.3254  1.1825
38140SOL     OW17821   2.194   9.763   6.194 -0.3428 -0.5242 -0.6556
38140SOL    HW117822   2.179   9.696   6.260  1.2704 -0.2627  0.0116
38140SOL    HW217823   2.280   9.799   6.214 -0.5790  0.8108 -1.8256
38141SOL     OW17824   4.945   0.723  10.273 -0.3696 -0.6481 -0.3391
38141SOL    HW117825   4.993   0.784  10.218 -1.7082 -0.9282 -1.9119
38141SOL    HW217826   4.993   0.640  10.266  0.2996 -0.3042  0.1434
38142SOL     OW17827   9.183   6.292   6.816  0.1707  0.0923 -0.4284
38142SOL    HW117828   9.155   6.369   6.766  0.3547 -0.3420 -1.2254
38142SOL    HW217829   9.176   6.319   6.907 -0.5411  0.7859 -0.6699
38143SOL     OW17830   4.923   5.525   2.965 -0.1657  0.2267 -0.6902
38143SOL    HW117831   4.840   5.491   2.932 -1.0406  0.9295  0.6806
38143SOL    HW217832   4.961   5.453   3.013  0.9528 -0.6944 -2.8195
38144SOL     OW17833   2.793   0.177   7.961 -0.0067  0.1297 -0.3598
38144SOL    HW117834   2.865   0.170   8.024 -1.3453 -1.0419  1.1329
38144SOL    HW217835   2.719   0.206   8.013 -1.5074 -2.1439 -1.0581
38145SOL     OW17836   4.797   1.006   9.558 -0.3267 -0.5193 -0.5097
38145SOL    HW117837   4.725   1.061   9.589 -0.1922 -0.2714 -0.6339
38145SOL    HW217838   4.799   1.022   9.463 -0.4055 -0.8799 -0.5748
38146SOL     OW17839   0.339   6.095  10.364 -0.4328  0.2713  0.5590
38146SOL    HW117840   0.295   6.179  10.350  0.3239  0.8130  1.2464
38146SOL    HW217841   0.273   6.029  10.344 -1.4426  1.0452  1.2090
38147SOL     OW17842   4.520   6.127   6.768  0.6198 -0.0522  0.1425
38147SOL    HW117843   4.571   6.166   6.840  0.2550 -0.4179  0.6078
38147SOL    HW217844   4.549   6.174   6.690  1.2574  0.1377  0.4814
38148SOL     OW17845   3.812   8.515   0.002 -0.4270 -0.5748 -0.2704
38148SOL    HW117846   3.789   8.464   0.080 -0.6153  0.9508  0.6924
38148SOL    HW217847   3.848   8.596   0.035  0.9092 -0.5021 -1.7966
38149SOL     OW17848   9.644   3.052   1.088  0.2006  0.1327 -0.3793
38149SOL    HW117849   9.580   3.036   1.157  0.0920 -0.5209 -0.6271
38149SOL    HW217850   9.608   3.008   1.011  0.5107  0.5263 -0.7525
38150SOL     OW17851   8.083   1.301   0.306  0.3608  0.2466  0.2127
38150SOL    HW117852   8.160   1.264   0.349  0.3828  0.3623  0.2756
38150SOL    HW217853   8.024   1.324   0.379  0.4908  0.6469  0.1948
38151SOL     OW17854   0.753   9.399   7.718  0.4412  0.1534  0.1979
38151SOL    HW117855   0.689   9.450   7.669  0.4508 -0.5422 -0.5435
38151SOL    HW217856   0.701   9.338   7.771  0.4826 -1.2076 -1.2638
38152SOL     OW17857   2.829   0.544   7.604  0.1682  0.0056 -0.0294
38152SOL    HW117858   2.768   0.617   7.616 -0.3616 -0.4485  0.1056
38152SOL    HW217859   2.779   0.467   7.631  0.4734 -0.5009 -0.8796
38153SOL     OW17860   2.022  10.451   4.005 -0.5347 -0.1963 -0.2851
38153SOL    HW117861   2.096  10.467   4.064 -0.2913  1.6210 -1.0343
38153SOL    HW217862   1.974  10.379   4.047  1.7899 -1.6654  0.0657
38154SOL     OW17863   1.848   4.767   5.308 -0.2511 -0.3625 -0.3919
38154SOL    HW117864   1.851   4.857   5.341 -0.8898 -0.5607  0.2147
38154SOL    HW217865   1.865   4.712   5.384 -3.7886 -0.9173  0.1828
38155SOL     OW17866   5.655   1.227   2.025 -0.1990 -0.4074 -0.1142
38155SOL    HW117867   5.621   1.282   2.095  0.4300 -2.1858  1.6830
38155SOL    HW217868   5.733   1.274   1.994  1.7104 -1.2279  2.9754
38156SOL     OW17869   0.195   0.852   3.643 -0.6901 -0.2931 -0.3475
38156SOL    HW117870   0.136   0.878   3.572  0.3062  0.4969 -0.8954
38156SOL    HW217871   0.230   0.767   3.615  1.2143  0.9027 -1.7909
38157SOL     OW17872   6.702   4.380   5.402 -0.2131  0.1354 -0.3428
38157SOL    HW117873   6.701   4.435   5.323 -1.0202 -0.9070 -1.0829
38157SOL    HW217874   6.788   4.397   5.441 -0.4528  1.9526 -0.5052
38158SOL     OW17875   6.660   1.588   1.627 -0.0681 -0.1349 -0.0536
38158SOL    HW117876   6.603   1.595   1.703 -0.6735  0.2661 -0.5389
38158SOL    HW217877   6.679   1.678   1.603  1.4222 -0.2478  0.5680
38159SOL     OW17878   1.605   3.839   6.029 -0.2564  0.1355 -0.2515
38159SOL    HW117879   1.638   3.859   6.117 -2.5448 -0.2600  0.7678
38159SOL    HW217880   1.532   3.780   6.044 -0.1532 -0.6655 -2.5208
38160SOL     OW17881   8.316   6.347   2.274 -0.1115 -0.3889  0.5093
38160SOL    HW117882   8.267   6.287   2.218  0.7129  0.7992 -1.6387
38160SOL    HW217883   8.408   6.334   2.249  0.1165  1.4955  0.2006
38161SOL     OW17884   2.679  10.621   3.808 -0.3914  0.2385 -0.1083
38161SOL    HW117885   2.773  10.638   3.805 -0.3480 -0.1020 -0.9190
38161SOL    HW217886   2.641  10.686   3.749 -0.8252  1.2871  1.2706
38162SOL     OW17887   2.137   3.771   6.247 -0.0177 -0.0324 -0.2240
38162SOL    HW117888   2.076   3.836   6.280  0.4759 -0.2087  1.1001
38162SOL    HW217889   2.201   3.760   6.318  1.4174 -0.0276 -1.4540
38163SOL     OW17890  10.350   4.467   4.710 -0.4539  0.0920  0.1209
38163SOL    HW117891  10.344   4.425   4.624 -0.7122  1.4452 -0.5528
38163SOL    HW217892  10.441   4.456   4.736 -0.3397 -0.2044 -0.3964
38164SOL     OW17893   9.660   8.095   9.443 -0.1559 -0.0062  0.0737
38164SOL    HW117894   9.652   8.004   9.470 -2.0522 -0.4679 -1.7517
38164SOL    HW217895   9.743   8.100   9.396  0.3044 -0.5789  0.7977
38165SOL     OW17896   1.973   5.516   8.154  0.2511  0.0193  0.2205
38165SOL    HW117897   1.906   5.569   8.112 -1.1433 -1.2720  0.7478
38165SOL    HW217898   2.051   5.528   8.098 -0.1139  2.2285  0.1011
38166SOL     OW17899   2.634   9.322   4.699 -0.5663  0.3282 -0.1404
38166SOL    HW117900   2.586   9.402   4.721 -1.6926 -0.5813  0.8687
38166SOL    HW217901   2.726   9.349   4.698 -0.5543  1.0487  3.4792
38167SOL     OW17902   2.026   3.407   4.256 -0.0647  0.0172 -0.1972
38167SOL    HW117903   2.014   3.495   4.291 -0.7280 -0.7170  1.5355
38167SOL    HW217904   1.939   3.368   4.259  0.3753 -0.9835 -0.1046
38168SOL     OW17905   2.282   5.057   5.124 -0.1025  0.2786 -0.2093
38168SOL    HW117906   2.262   5.144   5.158  1.1843  0.0761  1.1461
38168SOL    HW217907   2.200   5.008   5.135 -0.8463  1.2972 -1.0070
38169SOL     OW17908   3.076   6.784   3.744 -0.4720  0.5739 -0.2813
38169SOL    HW117909   3.086   6.799   3.650 -0.6934  1.0845 -0.2283
38169SOL    HW217910   3.127   6.854   3.784  1.1756 -0.7200 -0.0058
38170SOL     OW17911   4.174   5.182  10.048  0.1977  0.4978 -0.1296
38170SOL    HW117912   4.165   5.192   9.953  0.8385  0.9348 -0.1488
38170SOL    HW217913   4.100   5.127  10.073  0.6119 -0.5035 -1.0213
38171SOL     OW17914  10.838   5.903   3.290  0.1664 -0.4392 -0.4027
38171SOL    HW117915  10.914   5.956   3.265  0.6103  0.0098  1.6595
38171SOL    HW217916  10.873   5.841   3.354 -1.2080 -0.0566  0.7881
38172SOL     OW17917   7.503  10.642   3.546 -0.3374  0.0440  0.3866
38172SOL    HW117918   7.444  10.606   3.612  0.5813  0.9576  1.7737
38172SOL    HW217919   7.556  10.706   3.594 -0.9698  2.2114 -1.6615
38173SOL     OW17920   0.890   7.863   2.030 -0.5274  1.1377 -0.3547
38173SOL    HW117921   0.818   7.857   2.092 -0.7561  3.0333 -0.3944
38173SOL    HW217922   0.857   7.822   1.950 -0.8218  0.1839  0.2424
38174SOL     OW17923   9.408   5.262   9.204  0.4523 -0.6029  0.2788
38174SOL    HW117924   9.331   5.207   9.192  0.1796  0.1293 -1.7050
38174SOL    HW217925   9.373   5.347   9.230  0.4186  0.1478 -2.0314
38175SOL     OW17926   4.767   1.030   2.162 -0.8097  0.4744 -0.1481
38175SOL    HW117927   4.707   1.041   2.236 -0.0421  1.7913  0.3363
38175SOL    HW217928   4.852   1.059   2.197 -0.5237  1.5818 -1.6529
38176SOL     OW17929   6.311   6.940   8.842  0.3963 -0.1992  0.3050
38176SOL    HW117930   6.233   6.903   8.803  0.3522 -0.2314  0.4240
38176SOL    HW217931   6.309   6.912   8.933  0.9276 -0.8204  0.1340
38177SOL     OW17932   6.094   6.627   2.503 -0.3628  0.4272 -0.2585
38177SOL    HW117933   6.173   6.577   2.522 -0.6070  0.0607 -0.1865
38177SOL    HW217934   6.054   6.643   2.589  0.9085  2.7884 -0.0268
38178SOL     OW17935   3.582  10.342   1.343  0.1944  0.3226 -0.6444
38178SOL    HW117936   3.533  10.266   1.312 -1.4425  1.3216 -0.5890
38178SOL    HW217937   3.542  10.364   1.427  1.8513  0.1880  0.2426
38179SOL     OW17938   4.405   6.909   3.442  0.3486  0.0279 -0.2537
38179SOL    HW117939   4.494   6.873   3.440  0.5740  0.5885 -1.0640
38179SOL    HW217940   4.418   7.004   3.440 -0.2610  0.1318  0.5319
38180SOL     OW17941  10.338   3.533   0.261  0.0220 -0.0131  0.0411
38180SOL    HW117942  10.363   3.472   0.191 -0.4154 -0.2232  0.0640
38180SOL    HW217943  10.276   3.593   0.219  0.6585  0.6006 -0.0543
38181SOL     OW17944   6.678   4.575   2.373 -0.2797 -0.8030  0.1190
38181SOL    HW117945   6.717   4.639   2.433 -0.5796 -0.6273  0.1256
38181SOL    HW217946   6.627   4.517   2.429  0.5724 -1.4923  0.2027
38182SOL     OW17947   6.660   4.544   3.982  0.1974  0.1425 -0.0006
38182SOL    HW117948   6.647   4.630   4.022  2.1419  0.1207  0.7741
38182SOL    HW217949   6.611   4.484   4.037  0.3533  0.5108  0.5447
38183SOL     OW17950   3.927   4.458   3.100  0.0272  0.1323 -0.1099
38183SOL    HW117951   3.896   4.519   3.167 -0.5501  0.1196 -0.3628
38183SOL    HW217952   3.913   4.504   3.017 -0.6829 -0.4537 -0.3224
38184SOL     OW17953   7.786   6.550   1.156 -0.2234 -0.0131  0.0048
38184SOL    HW117954   7.735   6.473   1.182 -1.1793 -0.3637 -2.6112
38184SOL    HW217955   7.773   6.556   1.061  1.6429  2.0900 -0.1876
38185SOL     OW17956   1.661   7.914   7.858 -0.3105  0.2198  0.3654
38185SOL    HW117957   1.612   7.986   7.818 -1.1415 -0.8579 -0.6376
38185SOL    HW217958   1.600   7.876   7.921  0.1673  0.4614  0.9809
38186SOL     OW17959   5.042   9.980   2.906  0.0473  0.5795  1.0506
38186SOL    HW117960   5.095  10.042   2.955  0.7148  1.0092 -0.1577
38186SOL    HW217961   5.103   9.909   2.884 -0.6362 -0.3948  2.1735
38187SOL     OW17962   1.133   4.333   3.389  0.7401 -0.1432 -0.3499
38187SOL    HW117963   1.133   4.335   3.485  0.1677  2.2921 -0.3187
38187SOL    HW217964   1.212   4.381   3.364  0.5154 -0.1323 -1.0630
38188SOL     OW17965   5.621  10.293   8.751  0.6127 -0.6067 -0.1854
38188SOL    HW117966   5.526  10.288   8.736  0.3009 -0.9513  1.6845
38188SOL    HW217967   5.657  10.228   8.691 -0.5742 -2.1216  0.6438
38189SOL     OW17968   1.263   7.797   0.247  0.3097 -0.5232 -0.1428
38189SOL    HW117969   1.198   7.859   0.214  1.4249  1.5362  1.2907
38189SOL    HW217970   1.343   7.849   0.256  1.8461 -2.6536 -0.6273
38190SOL     OW17971   0.124   3.792   7.639  0.0365  0.4665  0.1475
38190SOL    HW117972   0.084   3.862   7.690  1.4833  1.8066 -0.4836
38190SOL    HW217973   0.206   3.772   7.686  0.3392  0.2262 -0.4739
38191SOL     OW17974   3.997   4.312   2.337  0.3953  0.3650  0.1569
38191SOL    HW117975   3.936   4.239   2.324 -0.1966  0.7192  0.8566
38191SOL    HW217976   3.965   4.380   2.278 -0.5504  0.9359  1.2996
38192SOL     OW17977   8.529   0.382   3.687 -0.3408  0.0531 -0.0850
38192SOL    HW117978   8.437   0.403   3.705 -0.2283  1.3485 -0.9331
38192SOL    HW217979   8.552   0.318   3.754 -2.2075 -1.2394 -0.5923
38193SOL     OW17980  10.714   1.869   5.799  1.0444 -0.1031  0.7888
38193SOL    HW117981  10.707   1.880   5.704 -0.8457  1.9694  1.0776
38193SOL    HW217982  10.683   1.780   5.815 -0.8375  0.2792 -0.4128
38194SOL     OW17983   0.957   6.588   2.931  0.2614 -0.1622 -0.3011
38194SOL    HW117984   0.929   6.659   2.989 -0.8762 -0.5524 -0.3319
38194SOL    HW217985   0.940   6.621   2.843 -1.6795 -0.9709 -0.2860
38195SOL     OW17986   0.427   5.786   4.534  0.5585 -0.1474 -0.2176
38195SOL    HW117987   0.421   5.881   4.546 -1.3169 -0.2364 -0.0761
38195SOL    HW217988   0.491   5.758   4.600  0.2399  0.8906  0.5719
38196SOL     OW17989   0.134   9.109   1.755 -0.1249  0.4350 -0.1000
38196SOL    HW117990   0.165   9.060   1.678 -2.8612 -1.3575 -0.2002
38196SOL    HW217991   0.195   9.085   1.824 -0.1558 -1.4973 -0.6867
38197SOL     OW17992   4.611   4.709   0.120 -0.0486  0.0966  0.1173
38197SOL    HW117993   4.582   4.761   0.195  1.5141  2.3235 -0.7068
38197SOL    HW217994   4.704   4.692   0.138 -0.2043 -1.2843 -0.2928
38198SOL     OW17995   0.085   0.320   4.159 -0.0286 -0.2651  0.5967
38198SOL    HW117996   0.054   0.347   4.245 -2.1852  1.4251 -0.5982
38198SOL    HW217997   0.122   0.399   4.121  0.2851 -0.8258 -0.2923
38199SOL     OW17998   8.319   6.566   3.451  0.2291  0.4522 -0.3503
38199SOL    HW117999   8.364   6.626   3.510  0.8761  0.3611 -0.7402
38199SOL    HW218000   8.266   6.511   3.508 -0.4610  1.4605  0.0042
38200SOL     OW18001   9.143   5.393   6.529 -0.5188  0.4361 -0.0253
38200SOL    HW118002   9.223   5.414   6.481 -1.4958  0.3371 -1.7365
38200SOL    HW218003   9.148   5.448   6.608  2.0154 -0.7920  0.7590
38201SOL     OW18004   0.816   4.429   6.838  0.0172 -0.3088 -0.0162
38201SOL    HW118005   0.777   4.372   6.904 -1.3175  0.0582 -0.4576
38201SOL    HW218006   0.744   4.449   6.778  0.7132  0.9654 -0.4638
38202SOL     OW18007   4.264   6.396   4.632 -0.1837 -0.0070  0.7020
38202SOL    HW118008   4.209   6.468   4.662 -0.6776 -0.8704  1.9432
38202SOL    HW218009   4.207   6.342   4.578 -0.0863  0.0076  0.5836
38203SOL     OW18010   8.802   6.758   5.111 -0.4773  0.6938 -0.2239
38203SOL    HW118011   8.813   6.722   5.023 -1.2205 -0.3109  0.0744
38203SOL    HW218012   8.727   6.816   5.104 -1.0708 -0.0342 -0.0877
38204SOL     OW18013   4.364   1.803   2.257  0.1999  0.1643 -0.0131
38204SOL    HW118014   4.324   1.735   2.203  0.4454 -0.2496  0.3203
38204SOL    HW218015   4.323   1.793   2.343  1.2998 -0.5262  0.4465
38205SOL     OW18016   8.380   5.686   7.061  0.4123 -0.1842 -0.4081
38205SOL    HW118017   8.306   5.641   7.021  2.0457 -0.6310 -3.2028
38205SOL    HW218018   8.431   5.615   7.102  0.2644 -0.1225 -0.1111
38206SOL     OW18019   5.637   0.322   0.665 -0.4055  0.3953  0.1943
38206SOL    HW118020   5.673   0.397   0.711  0.8989 -0.3331  0.4094
38206SOL    HW218021   5.712   0.281   0.623 -1.0386 -0.9237  0.2827
38207SOL     OW18022   3.748   7.461   7.845 -0.2929  0.3628 -0.1656
38207SOL    HW118023   3.777   7.468   7.936 -0.3445  2.7336 -0.2569
38207SOL    HW218024   3.796   7.387   7.810 -0.8911 -1.1432  1.9841
38208SOL     OW18025   9.842   8.065   0.025 -0.9848 -0.3130 -0.2755
38208SOL    HW118026   9.821   8.157   0.010 -0.2252 -0.1929 -0.6051
38208SOL    HW218027   9.810   8.048   0.114 -1.2791  0.2174 -0.2733
38209SOL     OW18028   5.105   4.912   0.174 -0.0854  0.5653 -0.6114
38209SOL    HW118029   5.082   4.973   0.104 -1.5682  2.1232  1.1492
38209SOL    HW218030   5.089   4.960   0.255  0.2518 -1.6274  0.8507
38210SOL     OW18031   1.093   3.746   4.999 -0.4213  0.0681 -0.0538
38210SOL    HW118032   1.003   3.777   5.004 -1.3747 -2.6601  1.2898
38210SOL    HW218033   1.103   3.717   4.908 -0.6153  1.1216 -0.4189
38211SOL     OW18034   4.713   7.730   9.105  0.0334  0.4351 -0.5440
38211SOL    HW118035   4.720   7.648   9.055 -0.7865 -0.4922  0.7978
38211SOL    HW218036   4.755   7.710   9.189  0.0790  1.4976 -0.3072
38212SOL     OW18037   3.373   5.296   2.580 -0.4463  0.3560  0.1801
38212SOL    HW118038   3.373   5.380   2.626  1.6569  0.5059 -0.0055
38212SOL    HW218039   3.366   5.319   2.487 -1.8053  0.2026  0.2297
38213SOL     OW18040   7.590   1.301   1.943 -0.3327  0.2561 -0.3782
38213SOL    HW118041   7.547   1.315   1.858  0.8813 -1.7740 -1.4148
38213SOL    HW218042   7.541   1.229   1.983  1.1055 -1.0984 -0.9366
38214SOL     OW18043   6.729   4.654   8.449  0.0341 -0.0003 -0.3315
38214SOL    HW118044   6.730   4.590   8.521  0.6915  2.7196  2.2928
38214SOL    HW218045   6.820   4.682   8.441 -0.1232  0.1219 -1.9284
38215SOL     OW18046   6.011   3.130   1.802  0.3678  0.3207  0.4600
38215SOL    HW118047   6.040   3.218   1.776 -0.9833  0.4091 -0.8169
38215SOL    HW218048   6.082   3.073   1.772  0.9228  0.8813  0.6574
38216SOL     OW18049   7.143  10.545   4.409  0.8087  0.5592  0.3003
38216SOL    HW118050   7.212  10.481   4.391  0.5119  0.4333 -0.4556
38216SOL    HW218051   7.112  10.522   4.496 -0.7326 -1.7390 -0.7367
38217SOL     OW18052   3.735   6.661   5.933 -0.9336 -0.0779  0.3390
38217SOL    HW118053   3.757   6.639   5.842  1.2314 -1.2458  1.0566
38217SOL    HW218054   3.644   6.634   5.943 -0.7692 -1.3353 -1.0879
38218SOL     OW18055   0.829   9.387   2.110  0.5590  0.0593  0.3413
38218SOL    HW118056   0.807   9.398   2.017  4.9422 -0.5215 -1.0010
38218SOL    HW218057   0.859   9.474   2.138  4.2071 -0.7330 -0.5460
38219SOL     OW18058   5.003   5.332   4.451 -0.2584  0.1999 -0.1977
38219SOL    HW118059   5.038   5.353   4.537 -0.9110 -0.4033  0.2275
38219SOL    HW218060   5.048   5.391   4.391 -0.9244  1.7216  0.7443
38220SOL     OW18061   3.507   5.418   1.762  0.0901 -0.2961 -0.3221
38220SOL    HW118062   3.596   5.388   1.748 -0.6300 -2.0608 -1.4116
38220SOL    HW218063   3.513   5.478   1.837  2.3664  0.7424 -1.2470
38221SOL     OW18064   3.241   9.044   9.673  0.0455 -0.4879 -0.0656
38221SOL    HW118065   3.174   9.000   9.622 -1.3086  1.1191  0.2395
38221SOL    HW218066   3.220   9.137   9.665  1.0610 -0.0654  1.6641
38222SOL     OW18067   9.550   3.619   3.407  0.0105  0.2775  0.0497
38222SOL    HW118068   9.637   3.597   3.375  0.1365  0.9848 -0.1274
38222SOL    HW218069   9.538   3.711   3.381 -1.0238  0.0111 -0.4537
38223SOL     OW18070   6.960   6.136   2.795 -0.5520  0.5392  0.3474
38223SOL    HW118071   7.028   6.178   2.742 -2.9268  3.0231 -0.9921
38223SOL    HW218072   6.984   6.044   2.797  2.6527  1.2364 -0.2733
38224SOL     OW18073   3.129   6.008   1.843  0.3089 -0.1720 -0.2804
38224SOL    HW118074   3.057   5.955   1.810 -0.7431  0.0844  1.4630
38224SOL    HW218075   3.162   6.055   1.766 -1.9463  0.3354 -0.9969
38225SOL     OW18076   3.462  10.369   9.767  0.3871 -0.1694  0.0585
38225SOL    HW118077   3.368  10.378   9.757  0.5724  0.8885 -0.9475
38225SOL    HW218078   3.475  10.346   9.859 -0.7812  0.7559  0.4695
38226SOL     OW18079   8.795   0.988   6.368  0.0329 -0.3700 -0.2521
38226SOL    HW118080   8.754   1.043   6.301 -0.1022  1.2379  1.0693
38226SOL    HW218081   8.882   1.026   6.382 -0.2615 -0.1094  1.0709
38227SOL     OW18082   4.437   1.543   3.591  0.8047  0.3137 -0.1097
38227SOL    HW118083   4.488   1.468   3.623  0.1569 -1.3104 -2.6020
38227SOL    HW218084   4.364   1.549   3.652  1.0528 -0.8886  0.3460
38228SOL     OW18085   4.100   9.000   3.557 -0.0119 -0.6787 -0.5733
38228SOL    HW118086   4.155   9.054   3.501  0.1488  0.5718  0.7400
38228SOL    HW218087   4.135   9.013   3.645 -1.6179 -0.8677  0.1237
38229SOL     OW18088   6.085   5.763  10.047  0.3167 -0.1211  0.4863
38229SOL    HW118089   6.069   5.791   9.957  1.4431 -0.5633  0.1321
38229SOL    HW218090   6.003   5.781  10.092  0.5846  2.6735  0.0357
38230SOL     OW18091   8.552   7.658  10.856  0.2932 -0.8187 -0.1871
38230SOL    HW118092   8.533   7.729  10.794 -1.3942 -2.6721 -1.9700
38230SOL    HW218093   8.544   7.699  10.942 -0.1101  1.2590 -1.1323
38231SOL     OW18094   1.317   1.987   0.012 -0.3442  0.5480 -0.3303
38231SOL    HW118095   1.234   1.980  -0.036 -1.0874 -1.1596  1.1005
38231SOL    HW218096   1.377   1.929  -0.035 -0.3852  0.6440 -0.5040
38232SOL     OW18097   7.475   2.648   4.875 -0.2978 -0.4370  0.1840
38232SOL    HW118098   7.441   2.569   4.917  1.4687 -1.3538 -0.0313
38232SOL    HW218099   7.417   2.718   4.905 -0.4412 -1.4036  2.3449
38233SOL     OW18100   4.079   9.406   3.876 -0.0877 -0.2093  0.0271
38233SOL    HW118101   4.062   9.349   3.951 -0.7057 -2.9512 -2.0477
38233SOL    HW218102   4.173   9.395   3.860 -0.2957 -1.0559 -0.6567
38234SOL     OW18103   2.830   5.662   8.551  0.0267  0.4280 -0.0575
38234SOL    HW118104   2.747   5.618   8.532  0.6751 -0.6851 -0.4305
38234SOL    HW218105   2.830   5.670   8.647 -0.5376  0.5076 -0.0567
38235SOL     OW18106   3.285   2.776   2.984  0.0726 -0.2812 -0.4594
38235SOL    HW118107   3.338   2.855   2.975 -0.0940  0.1331  1.7128
38235SOL    HW218108   3.344   2.713   3.026 -0.2193 -0.8519 -0.8997
38236SOL     OW18109   0.913   9.065   8.601  0.4275 -0.5228 -0.1815
38236SOL    HW118110   0.905   9.108   8.516 -1.3543  0.9190  0.6413
38236SOL    HW218111   1.006   9.071   8.623  0.3660  2.6073 -0.3405
38237SOL     OW18112   0.169  10.850   4.855 -0.1374 -0.1278 -0.4313
38237SOL    HW118113   0.122  10.829   4.936  0.2788 -0.7588 -0.3505
38237SOL    HW218114   0.206  10.767   4.826  1.4722  0.4535 -0.1602
38238SOL     OW18115   8.408   9.188   2.915  0.0473 -0.1897 -0.2525
38238SOL    HW118116   8.501   9.184   2.934  0.6092  4.5717 -0.8110
38238SOL    HW218117   8.402   9.190   2.820 -1.0180 -3.3846 -0.3624
38239SOL     OW18118   3.260   8.381   3.787 -0.3531 -0.9678 -0.1296
38239SOL    HW118119   3.207   8.460   3.773 -0.8276 -0.8154  2.0362
38239SOL    HW218120   3.327   8.384   3.719 -1.3472  0.4274 -1.1046
38240SOL     OW18121   7.253   3.015  10.436 -0.1340  0.1357 -0.1208
38240SOL    HW118122   7.256   3.079  10.507 -0.2449 -0.3319  0.3049
38240SOL    HW218123   7.345   2.998  10.416 -0.0958  0.8666 -0.6456
38241SOL     OW18124   9.678   7.097   4.948 -0.2540 -0.3171 -0.0912
38241SOL    HW118125   9.687   7.143   4.865 -1.8818 -1.0316 -0.7232
38241SOL    HW218126   9.767   7.086   4.980  0.5632 -1.4223 -2.5410
38242SOL     OW18127   5.618   1.187   7.165 -1.0520  0.0620 -0.1608
38242SOL    HW118128   5.598   1.279   7.179 -3.6400 -0.3758 -0.4439
38242SOL    HW218129   5.686   1.187   7.098 -2.3732  1.7761 -1.5946
38243SOL     OW18130  10.578   3.757   9.968 -0.0387 -0.5451 -0.1715
38243SOL    HW118131  10.511   3.732   9.905  1.3411 -3.1042 -0.7574
38243SOL    HW218132  10.574   3.689  10.035  1.9211 -0.7481 -0.2169
38244SOL     OW18133   6.523   1.594   4.610  0.0705  0.6263 -0.1175
38244SOL    HW118134   6.580   1.563   4.539  3.8904  4.1354  0.9913
38244SOL    HW218135   6.463   1.655   4.568 -0.1684 -0.0822 -0.8145
38245SOL     OW18136   8.204   5.884   8.823 -0.3898  0.0486  0.1967
38245SOL    HW118137   8.272   5.951   8.818 -0.4011  0.0007 -0.8534
38245SOL    HW218138   8.136   5.922   8.879  1.2965 -0.6419  2.8579
38246SOL     OW18139   4.279  10.314   5.081  0.6196 -0.4004  0.0765
38246SOL    HW118140   4.365  10.299   5.119  0.7926 -1.3516 -0.6563
38246SOL    HW218141   4.221  10.256   5.130  0.5243 -0.2893  0.0949
38247SOL     OW18142   3.279   6.168   4.107  0.1249  0.0235 -0.0792
38247SOL    HW118143   3.200   6.217   4.128 -1.5163 -2.3919 -0.1757
38247SOL    HW218144   3.289   6.105   4.179 -0.3322 -2.2610 -1.8904
38248SOL     OW18145   0.054   1.244   9.308  0.3965  0.4609  0.3075
38248SOL    HW118146   0.087   1.167   9.262 -1.1238  0.6496 -1.2053
38248SOL    HW218147   0.130   1.302   9.313  1.3017 -0.7057  0.5711
38249SOL     OW18148   5.836   5.637  10.616 -0.2160 -0.1652  0.6091
38249SOL    HW118149   5.777   5.562  10.613  0.8932 -1.1704  2.3321
38249SOL    HW218150   5.791   5.702  10.670  0.1343 -0.8453  1.7406
38250SOL     OW18151   8.943   5.289   6.369 -0.4605  0.1145  0.3975
38250SOL    HW118152   9.019   5.323   6.417 -0.0757 -1.3785  0.9097
38250SOL    HW218153   8.873   5.287   6.434 -0.6655  0.5502  0.1908
38251SOL     OW18154   2.850   3.461   7.407  0.4523  0.0620 -0.0618
38251SOL    HW118155   2.939   3.493   7.426  1.0220 -0.1660 -2.1193
38251SOL    HW218156   2.821   3.514   7.333 -0.3250 -1.2282 -0.7110
38252SOL     OW18157   9.091   8.365   8.084  0.1980  0.2803 -0.1681
38252SOL    HW118158   9.163   8.374   8.022 -1.0295 -0.0346 -1.7021
38252SOL    HW218159   9.045   8.286   8.056  0.6013 -0.8975  2.2503
38253SOL     OW18160   8.480   3.677   9.013 -0.0247 -0.0189  0.2372
38253SOL    HW118161   8.413   3.612   9.036 -0.4933 -0.4731 -2.1355
38253SOL    HW218162   8.469   3.690   8.919  2.5899  0.6412 -0.0504
38254SOL     OW18163   0.845   8.987   7.955 -0.2717  0.0424 -0.1669
38254SOL    HW118164   0.776   8.921   7.960 -0.7300  0.4572 -0.8339
38254SOL    HW218165   0.798   9.071   7.955  0.0649  0.3063 -2.5578
38255SOL     OW18166   8.065   6.008   3.710  0.1635 -0.1688  0.4779
38255SOL    HW118167   8.065   6.085   3.654 -0.3736 -1.0027 -0.7187
38255SOL    HW218168   7.986   6.018   3.763 -0.1970 -0.1375 -0.0476
38256SOL     OW18169   2.824   9.280   5.761 -0.1167 -0.4834 -0.3220
38256SOL    HW118170   2.777   9.358   5.790  0.9701 -0.3217  1.1752
38256SOL    HW218171   2.900   9.314   5.713  0.6954 -0.5321  0.8554
38257SOL     OW18172   3.518   2.403   9.902  0.5473 -0.1562 -0.3339
38257SOL    HW118173   3.588   2.350   9.865 -0.1120 -1.4468  0.2138
38257SOL    HW218174   3.511   2.375   9.993  1.0551  1.8238  0.3662
38258SOL     OW18175   2.831   3.884   5.235  0.0130  0.2284 -0.0538
38258SOL    HW118176   2.802   3.874   5.326  0.3356 -0.1761  0.0087
38258SOL    HW218177   2.922   3.857   5.236 -0.3974 -1.3142 -0.7893
38259SOL     OW18178   8.258   8.238   0.041  0.0083  0.0389  0.6600
38259SOL    HW118179   8.319   8.283   0.100  0.9123 -1.8839  1.3042
38259SOL    HW218180   8.238   8.302  -0.026  2.5387  0.8860  0.5842
38260SOL     OW18181   1.324   5.873   8.524  0.2012  0.3247 -0.2402
38260SOL    HW118182   1.376   5.825   8.459 -0.4071  0.9022 -1.1749
38260SOL    HW218183   1.345   5.830   8.607 -0.2134 -1.4731 -1.0064
38261SOL     OW18184   0.892   3.006   9.732 -0.0729 -0.2656  0.4050
38261SOL    HW118185   0.842   3.084   9.758 -0.2766  0.2742 -1.4243
38261SOL    HW218186   0.983   3.030   9.747 -0.2304 -0.9091  2.8759
38262SOL     OW18187   2.108   0.096  10.494  0.0900  0.5128 -0.2786
38262SOL    HW118188   2.043   0.115  10.562  0.1823  0.8768 -0.2902
38262SOL    HW218189   2.192   0.104  10.539  0.1209 -0.4711 -0.1344
38263SOL     OW18190   8.491   0.617   2.114 -0.3194 -0.0006  0.0870
38263SOL    HW118191   8.507   0.708   2.091  0.8842  0.1428  1.3082
38263SOL    HW218192   8.421   0.589   2.057 -0.8297  1.7510 -0.1958
38264SOL     OW18193   0.025   0.062   4.379 -0.4050 -0.2006  0.1380
38264SOL    HW118194   0.087   0.087   4.310 -1.3799 -0.2298 -0.7672
38264SOL    HW218195  -0.037   0.135   4.382 -0.5731 -0.3652  0.7567
38265SOL     OW18196   7.087   5.350  10.578  0.7709  0.0682  0.2478
38265SOL    HW118197   6.998   5.331  10.550  0.6642  0.5044  0.2889
38265SOL    HW218198   7.101   5.441  10.552  1.1957  0.0086  0.2632
38266SOL     OW18199  10.187   7.731   9.948 -0.0817 -0.5112 -0.0939
38266SOL    HW118200  10.113   7.730   9.887 -0.1797  0.9221 -0.0277
38266SOL    HW218201  10.172   7.808  10.002  1.1653 -0.5292  0.2980
38267SOL     OW18202   0.352  10.265   1.616 -0.3405  0.1782 -0.2804
38267SOL    HW118203   0.350  10.177   1.578  1.4197 -0.7368  1.5186
38267SOL    HW218204   0.322  10.253   1.706 -0.7482  1.5637 -0.2105
38268SOL     OW18205   3.766   9.389   2.041  0.0161 -0.5554  0.1021
38268SOL    HW118206   3.835   9.324   2.029  0.3213 -0.0755 -0.8657
38268SOL    HW218207   3.705   9.372   1.969 -0.1140 -0.0422  0.0869
38269SOL     OW18208   0.846   2.917   0.610  0.9007  0.0906  0.2962
38269SOL    HW118209   0.836   2.823   0.601 -1.5521  0.3176  0.1458
38269SOL    HW218210   0.852   2.950   0.521  1.9663  0.1020  0.3516
38270SOL     OW18211   2.575   9.018   8.656  0.2643 -0.3066  0.3915
38270SOL    HW118212   2.561   8.932   8.616  0.0278 -0.5134  0.9174
38270SOL    HW218213   2.603   9.074   8.583  0.4017 -0.8232  0.0447
38271SOL     OW18214   2.078   5.200   2.815 -0.2082  0.3311 -0.0506
38271SOL    HW118215   2.068   5.219   2.722  0.1918 -1.1117 -0.4048
38271SOL    HW218216   2.011   5.254   2.858 -1.1034  0.2133 -1.2544
38272SOL     OW18217   7.576   9.456   0.641  0.1913  0.1241 -0.1569
38272SOL    HW118218   7.597   9.522   0.575  1.2317  1.8485  1.7493
38272SOL    HW218219   7.658   9.409   0.655 -0.5244 -1.5920 -1.4397
38273SOL     OW18220   5.853   4.173   1.819 -0.2611 -0.4568 -0.2708
38273SOL    HW118221   5.820   4.259   1.796  1.0238  0.1265 -0.0217
38273SOL    HW218222   5.944   4.173   1.788  0.0272 -1.3889  0.5253
38274SOL     OW18223   7.190   4.658  10.338 -0.3186  0.3948  0.8266
38274SOL    HW118224   7.187   4.605  10.418  3.2395 -1.0312  0.1911
38274SOL    HW218225   7.266   4.715  10.350 -0.7559  1.4158 -0.8705
38275SOL     OW18226   8.246   0.288   3.588  0.2522 -0.4695 -0.2495
38275SOL    HW118227   8.170   0.232   3.601 -1.3696  1.8828  1.2538
38275SOL    HW218228   8.226   0.335   3.507  1.0661 -1.2031 -0.8934
38276SOL     OW18229   8.469   2.645   8.711 -0.3345 -0.5027 -0.3457
38276SOL    HW118230   8.463   2.663   8.805 -1.4983  0.1987 -0.5374
38276SOL    HW218231   8.380   2.658   8.678  0.4775  1.6445 -1.9403
38277SOL     OW18232   1.412   9.490   4.728  0.7064  0.2040  0.0372
38277SOL    HW118233   1.429   9.541   4.649 -1.4929 -0.3217 -0.8473
38277SOL    HW218234   1.396   9.556   4.796  1.0534  0.6753 -0.3324
38278SOL     OW18235   9.022   4.849   0.084  0.8548  0.3868  0.1472
38278SOL    HW118236   8.967   4.775   0.059  0.3464  0.4417  1.0400
38278SOL    HW218237   8.961   4.923   0.090  1.5554  1.2196 -2.0353
38279SOL     OW18238   0.164   7.138   8.738  0.5560  0.4885  0.7329
38279SOL    HW118239   0.115   7.193   8.677 -0.9535 -0.7844  0.7448
38279SOL    HW218240   0.187   7.061   8.686  2.2353  0.8783  0.8452
38280SOL     OW18241   7.987   5.424  10.273 -0.5286  0.1438  0.2637
38280SOL    HW118242   7.950   5.343  10.309  2.3266 -0.7584  1.4130
38280SOL    HW218243   7.996   5.482  10.348  1.3062 -0.0716  0.2513
38281SOL     OW18244   8.468   6.956   9.265 -0.1873 -0.2127  0.2232
38281SOL    HW118245   8.403   7.025   9.253  0.2645  0.1904  0.0882
38281SOL    HW218246   8.416   6.876   9.280 -0.7845 -0.4450 -2.6395
38282SOL     OW18247   0.632   6.055   8.620 -0.8425 -0.0308 -0.2643
38282SOL    HW118248   0.680   6.081   8.541 -0.2613 -0.8392 -0.1871
38282SOL    HW218249   0.643   5.960   8.626 -0.6968  0.0374  0.9018
38283SOL     OW18250   0.862   4.008   0.612  0.4511 -0.1887  0.1788
38283SOL    HW118251   0.810   3.930   0.634  2.2365 -1.3094  0.6155
38283SOL    HW218252   0.914   3.980   0.536  0.0183  1.1119 -0.6257
38284SOL     OW18253   1.539   9.498   3.310  0.4052  0.0921 -0.2654
38284SOL    HW118254   1.617   9.463   3.268  2.2663  0.4822  2.6068
38284SOL    HW218255   1.520   9.435   3.380 -0.1976  1.4016  0.7840
38285SOL     OW18256   3.149   1.720   0.479  0.5181  0.2702  0.5220
38285SOL    HW118257   3.145   1.655   0.550 -1.7503  2.0280  2.1650
38285SOL    HW218258   3.092   1.684   0.411  2.1382 -1.0849 -0.2042
38286SOL     OW18259   5.882   2.233   9.013  0.3437  0.3603 -0.3949
38286SOL    HW118260   5.807   2.174   9.017  0.7525 -0.1135  2.4774
38286SOL    HW218261   5.901   2.254   9.105  3.5993  0.6186 -1.0078
38287SOL     OW18262   8.399   3.809   7.905  0.2528 -0.4724  0.1469
38287SOL    HW118263   8.471   3.858   7.865 -0.9173  0.7637 -0.5287
38287SOL    HW218264   8.353   3.873   7.959 -1.9676 -0.4530 -1.6105
38288SOL     OW18265   2.866  10.863   7.645  0.0987 -0.3692  0.0796
38288SOL    HW118266   2.898  10.784   7.600 -0.3928 -0.1625 -0.6493
38288SOL    HW218267   2.938  10.926   7.636 -0.0121 -0.3144 -0.4731
38289SOL     OW18268   7.929   6.471   7.090  0.6706 -0.6291  0.7885
38289SOL    HW118269   8.000   6.410   7.106  1.9322  0.2297 -1.2181
38289SOL    HW218270   7.951   6.548   7.144  2.2821  0.3327 -1.1302
38290SOL     OW18271   0.655   8.844  10.814  0.5500  0.1131 -0.6121
38290SOL    HW118272   0.738   8.871  10.853  0.4913  1.3429 -1.2860
38290SOL    HW218273   0.674   8.760  10.773  1.9115  1.0815 -2.0832
38291SOL     OW18274   0.911   0.457   7.142 -0.1568 -0.8105 -0.4009
38291SOL    HW118275   0.972   0.414   7.081 -0.2544  0.4357 -1.4344
38291SOL    HW218276   0.963   0.525   7.183 -0.6931 -0.1068 -0.8689
38292SOL     OW18277   6.922   9.409   6.030  0.0734  0.5742  0.6604
38292SOL    HW118278   6.919   9.427   6.124 -0.3913  1.1843  0.5329
38292SOL    HW218279   6.947   9.317   6.025 -0.0798  0.4824  1.3869
38293SOL     OW18280   5.623   9.191  10.246  0.1965 -0.1837 -0.0493
38293SOL    HW118281   5.623   9.239  10.329 -1.4889 -2.5168  1.4343
38293SOL    HW218282   5.714   9.193  10.217  0.2661  3.7474 -0.1426
38294SOL     OW18283   5.379   4.353   8.968 -0.1901 -0.2516  0.3480
38294SOL    HW118284   5.375   4.406   9.047  0.0503 -0.2137  0.3351
38294SOL    HW218285   5.290   4.355   8.933 -0.3108 -0.3264  0.6536
38295SOL     OW18286   5.332  10.855   7.770 -0.1301 -0.4062 -0.0439
38295SOL    HW118287   5.405  10.811   7.812 -1.0735 -1.3919  0.6135
38295SOL    HW218288   5.348  10.844   7.676 -0.7809 -2.9923  0.0770
38296SOL     OW18289   8.166   1.297   6.044  0.4214 -0.3138  0.1196
38296SOL    HW118290   8.253   1.323   6.016  0.6585  0.1225  1.1825
38296SOL    HW218291   8.130   1.247   5.971  0.9019  0.9557 -1.0137
38297SOL     OW18292   3.559   7.761   5.318  0.1018 -0.1359  0.5381
38297SOL    HW118293   3.613   7.823   5.269  0.8771  0.2569  1.8464
38297SOL    HW218294   3.534   7.807   5.398  1.4156 -1.7548  1.9600
38298SOL     OW18295   9.944   1.430   8.996 -0.4879 -0.7474 -0.0227
38298SOL    HW118296   9.953   1.456   8.904 -3.0543 -1.4351 -0.5335
38298SOL    HW218297   9.853   1.448   9.018  0.4401  1.0643  2.9835
38299SOL     OW18298   1.607   5.693   2.652  0.2175 -0.0998  0.0863
38299SOL    HW118299   1.604   5.688   2.556 -0.8462  1.0606  0.0498
38299SOL    HW218300   1.556   5.617   2.681 -0.4196  0.1826 -0.2770
38300SOL     OW18301   6.283   6.550   0.865  0.0554  0.4028 -0.3365
38300SOL    HW118302   6.309   6.524   0.776  0.1550  0.6875 -0.3906
38300SOL    HW218303   6.243   6.471   0.902  0.5134  0.1184 -0.4395
38301SOL     OW18304  10.088   3.406  10.116 -0.0757  0.0623 -0.1195
38301SOL    HW118305  10.083   3.500  10.100 -0.3855  0.2467  0.9914
38301SOL    HW218306  10.045   3.367  10.040  0.9206  0.7663 -1.0673
38302SOL     OW18307   4.923   0.565  10.791 -0.0619 -0.4721  0.4024
38302SOL    HW118308   4.919   0.587  10.698  0.5198 -0.0956  0.4663
38302SOL    HW218309   4.975   0.485  10.794 -0.2564 -0.6007  0.3885
38303SOL     OW18310   2.965  10.110   2.700 -0.0257  0.2971 -0.1502
38303SOL    HW118311   2.997  10.082   2.786  0.1100  0.1004 -0.2643
38303SOL    HW218312   3.044  10.135   2.652  0.0243 -0.7583 -0.6373
38304SOL     OW18313   8.106   8.076   2.698  0.3202  0.6123  0.2113
38304SOL    HW118314   8.078   8.119   2.618  1.5536  0.3680 -0.3739
38304SOL    HW218315   8.202   8.076   2.693  0.3771 -1.4547  0.5764
38305SOL     OW18316   1.511  10.044   0.903  0.0606  0.1174 -0.0725
38305SOL    HW118317   1.444   9.987   0.940  0.8038 -0.2557  0.7491
38305SOL    HW218318   1.588   9.987   0.893 -0.1951  0.1211 -2.5288
38306SOL     OW18319   6.468   2.082   6.435  0.0457  0.3853 -0.1987
38306SOL    HW118320   6.544   2.077   6.492  0.3436  1.5096 -0.4603
38306SOL    HW218321   6.478   2.008   6.375 -1.3823 -2.1423  2.4269
38307SOL     OW18322   7.712   8.949  10.582  0.2279  0.1071 -0.2077
38307SOL    HW118323   7.668   9.011  10.640 -0.9090 -0.3012 -0.6236
38307SOL    HW218324   7.659   8.947  10.503  0.6228 -0.8881 -0.4670
38308SOL     OW18325   9.615  10.229   0.513  0.3391 -0.6835  0.2145
38308SOL    HW118326   9.630  10.321   0.533  0.0101 -0.9294  1.6854
38308SOL    HW218327   9.520  10.218   0.519  0.4472 -1.2991  0.9187
38309SOL     OW18328   0.088   7.430   9.341  0.2472  0.4124 -0.3370
38309SOL    HW118329   0.008   7.459   9.385  0.0698 -2.3882  1.4913
38309SOL    HW218330   0.159   7.463   9.396  0.1082 -1.1039  0.8087
38310SOL     OW18331   4.249   4.619  10.839  0.0565 -0.1715 -0.1888
38310SOL    HW118332   4.158   4.601  10.813  0.1356 -0.2842 -0.3945
38310SOL    HW218333   4.277   4.539  10.884  0.8311 -1.1489 -2.2445
38311SOL     OW18334   6.942   2.089   5.079 -0.0234 -0.3324 -0.0403
38311SOL    HW118335   6.925   2.076   4.986  0.3830  2.1016 -0.5195
38311SOL    HW218336   6.974   2.004   5.110  0.0347 -1.1271 -2.1540
38312SOL     OW18337  10.530   4.587   9.055 -0.3910  0.4187  0.1827
38312SOL    HW118338  10.520   4.544   9.139 -0.0217 -1.7865 -0.8362
38312SOL    HW218339  10.452   4.563   9.005  0.4605 -0.2943 -0.8786
38313SOL     OW18340   0.583   3.365   2.815 -0.5327 -0.3874 -0.6486
38313SOL    HW118341   0.616   3.309   2.885 -1.2825  0.4065  0.3696
38313SOL    HW218342   0.499   3.326   2.791  0.2073 -1.3025 -1.9217
38314SOL     OW18343   7.067   8.646   0.724 -0.3765 -0.0922  0.6151
38314SOL    HW118344   7.097   8.647   0.815 -2.0999 -0.5580  1.2399
38314SOL    HW218345   7.099   8.563   0.689  0.6072  0.2519  0.6557
38315SOL     OW18346   2.181   7.987   9.680 -0.5395  0.9169  0.6003
38315SOL    HW118347   2.154   8.014   9.768 -1.1566 -2.2001  1.4650
38315SOL    HW218348   2.103   8.001   9.626 -0.6759  1.2900  0.8879
38316SOL     OW18349   2.691  10.394   8.980  0.2341  0.0926  0.3076
38316SOL    HW118350   2.655  10.436   8.901 -0.1109  0.4280  0.6369
38316SOL    HW218351   2.786  10.398   8.968  0.1744 -0.2674 -0.3031
38317SOL     OW18352   7.903   8.929   4.672  0.1376  0.4955  0.6372
38317SOL    HW118353   7.888   8.991   4.743  0.4958  1.7760 -0.3707
38317SOL    HW218354   7.996   8.909   4.676 -0.1464 -0.7364  1.5403
38318SOL     OW18355  10.200   5.608   3.780 -0.0095 -0.0205  0.0894
38318SOL    HW118356  10.222   5.646   3.695 -2.3408  1.5171  0.0880
38318SOL    HW218357  10.129   5.548   3.762 -0.0896 -0.1758  0.8733
38319SOL     OW18358   7.518   6.637   5.552  0.0174  0.2484  0.0497
38319SOL    HW118359   7.483   6.719   5.585 -0.8608  0.2714 -0.8801
38319SOL    HW218360   7.487   6.632   5.462  2.8427  0.4999 -1.0303
38320SOL     OW18361   0.574  10.117   6.708 -0.1164 -0.2454 -0.2060
38320SOL    HW118362   0.568  10.208   6.680  2.6496  0.3174  0.7674
38320SOL    HW218363   0.612  10.071   6.633 -1.7559 -0.7307 -0.7964
38321SOL     OW18364   7.444   1.692   0.439 -0.4009 -0.5428  0.4914
38321SOL    HW118365   7.395   1.612   0.420 -1.1184 -0.4728  1.9153
38321SOL    HW218366   7.484   1.676   0.524  0.5818  0.0983  0.1625
38322SOL     OW18367   9.868   7.242   9.328  0.1837 -0.4658 -0.1811
38322SOL    HW118368   9.789   7.207   9.370 -0.1807  3.2085  2.7483
38322SOL    HW218369   9.938   7.183   9.357 -0.9664 -1.7554  0.1049
38323SOL     OW18370  10.146  10.825   6.187  0.3090 -0.1342 -0.3302
38323SOL    HW118371  10.102  10.910   6.198 -1.9741 -1.2846  0.2021
38323SOL    HW218372  10.226  10.845   6.138 -1.7204  1.9394 -3.1479
38324SOL     OW18373   6.620   3.565   3.845 -0.1236 -0.3929  0.2143
38324SOL    HW118374   6.543   3.513   3.866 -0.5742 -0.5000 -1.5567
38324SOL    HW218375   6.590   3.656   3.851  0.4287 -0.3020  2.4196
38325SOL     OW18376   2.024   5.554   2.721 -0.5545  0.6295  0.1910
38325SOL    HW118377   1.969   5.492   2.673 -0.2286 -0.6491  1.4110
38325SOL    HW218378   2.006   5.536   2.813 -0.7924  2.6937  0.5881
38326SOL     OW18379   2.678   7.054   9.602 -0.5284  0.8342 -0.1398
38326SOL    HW118380   2.692   7.031   9.510 -0.9387  1.4240 -0.3589
38326SOL    HW218381   2.608   7.119   9.600  1.2283  2.8404  0.3492
38327SOL     OW18382   4.079   2.779   6.853 -0.5420  0.1338  0.1354
38327SOL    HW118383   4.127   2.819   6.781 -0.7593 -0.6670 -0.4733
38327SOL    HW218384   4.056   2.852   6.910  1.9216  0.4685  0.7982
38328SOL     OW18385   4.512   0.543   1.474 -0.3725 -0.0039 -0.2185
38328SOL    HW118386   4.505   0.572   1.564  0.0413  1.2621 -0.5813
38328SOL    HW218387   4.582   0.595   1.436 -0.1731 -0.8916 -1.1371
38329SOL     OW18388   9.142   1.961   7.077 -0.0805  0.3842  0.3057
38329SOL    HW118389   9.155   1.995   7.165 -2.0637 -1.0350  1.2034
38329SOL    HW218390   9.180   1.873   7.079 -1.7285 -0.3594  0.3382
38330SOL     OW18391   0.130   2.841   7.064 -0.2235  0.4246 -0.0708
38330SOL    HW118392   0.057   2.890   7.104  0.4257  1.1476  0.2542
38330SOL    HW218393   0.145   2.769   7.124 -0.2432  0.6544  0.2149
38331SOL     OW18394  10.188   6.179   7.371 -0.1122 -0.0131  0.1610
38331SOL    HW118395  10.095   6.186   7.389 -0.8006 -1.4973 -2.3629
38331SOL    HW218396  10.215   6.097   7.414 -0.4897 -0.7126 -0.9168
38332SOL     OW18397   4.703   3.906   5.973 -1.3612 -0.1655  0.1928
38332SOL    HW118398   4.753   3.842   5.921 -0.5318  1.5295 -1.1808
38332SOL    HW218399   4.615   3.870   5.976 -0.6743 -1.9470  0.4492
38333SOL     OW18400   2.433   8.278   1.395  0.2376  0.4547  0.0277
38333SOL    HW118401   2.518   8.259   1.356 -0.2740  1.6379 -1.7874
38333SOL    HW218402   2.439   8.370   1.422 -0.6218  0.6919 -0.5609
38334SOL     OW18403   8.582   2.006   9.292 -0.3476 -0.2245  0.5668
38334SOL    HW118404   8.609   1.927   9.245 -0.2227  0.4076 -0.4505
38334SOL    HW218405   8.602   2.077   9.232 -0.3923  0.5933  1.5087
38335SOL     OW18406   4.166   0.070   5.674  0.0467 -0.0160  0.6289
38335SOL    HW118407   4.217   0.058   5.594 -1.6705 -0.7181 -0.4252
38335SOL    HW218408   4.121   0.154   5.661 -0.6269 -0.3723  0.6006
38336SOL     OW18409   1.386   0.706   4.155  0.4130  0.1405  0.1791
38336SOL    HW118410   1.434   0.730   4.076  1.4275 -2.0546  0.0522
38336SOL    HW218411   1.406   0.776   4.218  1.1336  0.9361 -0.9056
38337SOL     OW18412   3.138   0.533   5.223 -0.6047  0.3713  0.2521
38337SOL    HW118413   3.094   0.561   5.303 -0.7643  1.8048 -0.3152
38337SOL    HW218414   3.160   0.441   5.239 -0.2411  0.7425  2.1100
38338SOL     OW18415   0.851   8.766   9.920  0.2249 -0.1606 -0.1093
38338SOL    HW118416   0.939   8.736   9.941  0.1097 -0.1021  0.4613
38338SOL    HW218417   0.824   8.818   9.995  0.6536  1.9271 -1.3283
38339SOL     OW18418   4.134   5.898   7.310  0.3276 -0.0613 -0.5471
38339SOL    HW118419   4.157   5.805   7.307  1.4474  0.1422  0.6621
38339SOL    HW218420   4.190   5.939   7.244  1.8403  0.0839  0.7402
38340SOL     OW18421   6.363   3.313   7.345  0.3608 -0.2116 -0.0599
38340SOL    HW118422   6.445   3.358   7.362  0.5746 -1.0557  1.2515
38340SOL    HW218423   6.295   3.371   7.380  0.4092  0.2931 -0.7742
38341SOL     OW18424   2.794   6.147   2.814 -0.6333 -0.3835 -0.5830
38341SOL    HW118425   2.741   6.177   2.740 -0.7955 -0.9700 -0.7026
38341SOL    HW218426   2.757   6.194   2.890  0.9453  1.9740 -1.1525
38342SOL     OW18427   9.898   0.011   0.616  0.4676  0.1358  0.0106
38342SOL    HW118428   9.934   0.077   0.558  0.9287  0.7571  0.9726
38342SOL    HW218429   9.864   0.060   0.691 -2.9071 -0.3523 -1.0339
38343SOL     OW18430   1.417   9.715   6.798 -0.5087  0.0400  0.3935
38343SOL    HW118431   1.354   9.787   6.809 -1.6491 -1.0357  1.0804
38343SOL    HW218432   1.367   9.647   6.752 -0.2871 -1.3547  2.1454
38344SOL     OW18433   0.663   4.829  10.436 -0.7431  0.1141 -0.0227
38344SOL    HW118434   0.718   4.845  10.359  0.1538 -0.4814  0.4745
38344SOL    HW218435   0.634   4.916  10.463 -2.0928  0.2424 -1.7474
38345SOL     OW18436   4.864   4.640   8.310 -0.3764 -0.4706 -0.4376
38345SOL    HW118437   4.945   4.645   8.361 -0.5042 -0.4315 -0.2395
38345SOL    HW218438   4.839   4.548   8.314  0.8765 -0.9760 -2.3913
38346SOL     OW18439  10.469   7.541   9.653  0.1094 -0.2328  0.4994
38346SOL    HW118440  10.451   7.628   9.688 -0.3554 -0.0913 -0.0696
38346SOL    HW218441  10.506   7.559   9.566 -0.9222 -0.6205 -0.0285
38347SOL     OW18442   1.311  10.240   5.237  0.1301 -0.4552  0.1779
38347SOL    HW118443   1.362  10.303   5.186  0.2267 -0.7254 -0.0596
38347SOL    HW218444   1.373  10.171   5.259 -0.5942 -1.8542 -1.9016
38348SOL     OW18445   6.315   5.483   2.204  0.2502 -0.2545  0.0358
38348SOL    HW118446   6.356   5.397   2.216 -1.0595 -0.9224 -0.0791
38348SOL    HW218447   6.336   5.531   2.285  2.1237 -0.1673 -0.4529
38349SOL     OW18448   5.335   2.793   2.876 -0.3010  0.0974  0.4106
38349SOL    HW118449   5.295   2.857   2.935  0.8879  0.4682  0.8502
38349SOL    HW218450   5.298   2.814   2.790 -1.5799 -0.0480  0.9001
38350SOL     OW18451   6.242   9.472   4.803 -0.0077 -0.4634  0.0319
38350SOL    HW118452   6.222   9.545   4.744 -2.7734 -1.1440 -0.0068
38350SOL    HW218453   6.296   9.413   4.751  2.7347  1.6815  0.2255
38351SOL     OW18454   8.552   6.316   5.250 -0.2101  0.6782 -0.2683
38351SOL    HW118455   8.465   6.354   5.259 -1.2434 -1.8807  1.9135
38351SOL    HW218456   8.611   6.385   5.279 -1.7372  1.5791  0.8785
38352SOL     OW18457   0.358  10.091   7.154  0.2465 -0.3323  0.0977
38352SOL    HW118458   0.287  10.074   7.216  0.9608  1.7850  1.6178
38352SOL    HW218459   0.422  10.023   7.173  0.1911 -0.0721  1.3055
38353SOL     OW18460   9.880   1.130   4.028  0.6633  0.0804  0.5208
38353SOL    HW118461   9.880   1.048   3.978  0.8425 -0.1721  0.9361
38353SOL    HW218462   9.964   1.130   4.074  0.2354  0.0117  1.3143
38354SOL     OW18463   7.672   1.865   3.969  0.0952 -0.6020 -0.3895
38354SOL    HW118464   7.663   1.867   4.065 -1.6670  0.8402 -0.5222
38354SOL    HW218465   7.612   1.796   3.942  0.4824 -0.9075 -0.4791
38355SOL     OW18466   0.923  10.174   9.222 -0.5548  0.0873 -0.3794
38355SOL    HW118467   0.861  10.245   9.240 -0.9537 -0.0937 -0.9824
38355SOL    HW218468   0.986  10.178   9.293 -0.4414  1.1944 -0.5302
38356SOL     OW18469   1.834   9.266   5.354 -0.4791 -0.2515  0.1944
38356SOL    HW118470   1.777   9.189   5.354 -1.3606  0.3761 -0.7035
38356SOL    HW218471   1.900   9.247   5.288  0.1190 -0.8083  0.9449
38357SOL     OW18472  10.401   6.239   1.755 -0.5494  0.5186  0.3647
38357SOL    HW118473  10.372   6.182   1.684  1.6368  0.0074 -0.1924
38357SOL    HW218474  10.441   6.314   1.712  1.9290 -0.3712  0.9377
38358SOL     OW18475  10.380   0.364   0.089 -0.1858  0.2660  0.2469
38358SOL    HW118476  10.402   0.425   0.019  2.3437  1.2582  1.7633
38358SOL    HW218477  10.381   0.417   0.169  1.0375 -1.5127  1.5054
38359SOL     OW18478   7.262   8.322   0.343  0.1372  0.0863  0.3955
38359SOL    HW118479   7.177   8.354   0.371 -0.3145 -0.2642 -0.5330
38359SOL    HW218480   7.311   8.309   0.424 -0.9232 -0.3735  0.9835
38360SOL     OW18481   6.309   7.619   0.604  0.0069  0.8793 -0.1717
38360SOL    HW118482   6.339   7.676   0.533 -0.7009 -0.7573 -1.8697
38360SOL    HW218483   6.321   7.530   0.570 -0.3975  0.0364  1.7677
38361SOL     OW18484   7.803   4.201   9.694 -0.3906 -0.2575  1.0007
38361SOL    HW118485   7.833   4.113   9.670 -0.8130  0.0572 -0.8111
38361SOL    HW218486   7.872   4.234   9.752  0.5156 -1.2359  0.5244
38362SOL     OW18487   5.161   2.485   8.405  0.2196  0.3821 -0.2603
38362SOL    HW118488   5.194   2.549   8.468  1.5556 -0.4097 -0.1112
38362SOL    HW218489   5.183   2.522   8.319  0.3358  0.4620 -0.1959
38363SOL     OW18490   8.700   0.922   7.768  0.1505 -0.1334  0.0611
38363SOL    HW118491   8.745   0.907   7.851  0.5049  0.2221 -0.0612
38363SOL    HW218492   8.609   0.896   7.784  0.7179 -2.4340 -0.1639
38364SOL     OW18493   3.188   6.394   3.266 -0.3786 -0.2822 -0.2512
38364SOL    HW118494   3.243   6.444   3.327 -2.2992  1.1413  0.4178
38364SOL    HW218495   3.106   6.381   3.313 -0.7361 -2.1207 -1.3168
38365SOL     OW18496   3.251   8.123   4.304  0.5278 -0.2327 -0.3371
38365SOL    HW118497   3.267   8.053   4.240  1.0201 -0.3244 -0.1164
38365SOL    HW218498   3.179   8.091   4.358 -0.5118  0.2291 -1.4093
38366SOL     OW18499   9.039   2.015   5.414  0.2434  0.2233 -0.0865
38366SOL    HW118500   8.989   2.008   5.495 -0.9687 -1.4309 -0.9234
38366SOL    HW218501   9.095   1.938   5.414  0.7720  0.5998 -0.4940
38367SOL     OW18502   6.275   0.511   5.937  0.3529  0.2217 -0.4334
38367SOL    HW118503   6.343   0.471   5.882  0.9991 -0.9089  1.1346
38367SOL    HW218504   6.322   0.577   5.989  0.1466 -0.1481  0.2304
38368SOL     OW18505   4.059   1.690   2.232  0.5612 -0.4240  0.7239
38368SOL    HW118506   4.026   1.769   2.188  0.2874 -0.5666  0.6674
38368SOL    HW218507   4.097   1.722   2.313  1.5902 -0.0876  0.1342
38369SOL     OW18508   3.103   8.232   3.319  0.2194 -0.7182 -0.3017
38369SOL    HW118509   3.183   8.258   3.273  0.7526 -0.7139  0.6011
38369SOL    HW218510   3.094   8.139   3.301  1.5335 -1.1786  1.1581
38370SOL     OW18511   5.750   0.793   8.073  0.0714  0.4369 -0.2213
38370SOL    HW118512   5.803   0.871   8.088  1.2860 -0.1874 -1.1297
38370SOL    HW218513   5.778   0.731   8.140  0.4667  0.1292 -0.6634
38371SOL     OW18514   8.499   9.513   8.995 -0.1731 -0.0700 -0.0026
38371SOL    HW118515   8.515   9.581   9.061 -1.6634 -0.8228  1.2155
38371SOL    HW218516   8.464   9.439   9.046  0.2650 -1.3102 -1.4420
38372SOL     OW18517   7.832   5.669   2.884  0.0263 -0.1619 -0.3724
38372SOL    HW118518   7.859   5.758   2.862  0.9723 -0.2381  0.4297
38372SOL    HW218519   7.810   5.629   2.800 -1.7436  1.2340 -0.6322
38373SOL     OW18520   9.014   5.646   2.231 -0.2606 -0.7333 -0.1139
38373SOL    HW118521   8.936   5.689   2.266  1.0790  2.9429 -1.0634
38373SOL    HW218522   9.077   5.648   2.303  0.8275  2.1002 -0.9970
38374SOL     OW18523   5.329   5.961   5.748  0.0941 -0.2712  0.0159
38374SOL    HW118524   5.300   5.931   5.834 -0.0525 -1.2302 -0.3489
38374SOL    HW218525   5.260   5.932   5.688  0.2352  0.3064 -0.4385
38375SOL     OW18526   4.175  10.683   3.917 -0.2277  0.2540  0.7308
38375SOL    HW118527   4.106  10.664   3.854 -0.4183 -1.0584  1.3126
38375SOL    HW218528   4.240  10.614   3.904  1.1792  1.6588 -0.0510
38376SOL     OW18529   6.322   7.936   3.271 -0.0027  0.2681 -0.4311
38376SOL    HW118530   6.356   7.891   3.193 -0.8641 -1.5174  0.1529
38376SOL    HW218531   6.393   7.932   3.334  0.1796  0.3660 -0.6295
38377SOL     OW18532  10.137   1.485   2.476  0.3205  0.2304 -0.2593
38377SOL    HW118533  10.163   1.572   2.446  1.0365 -0.4660 -1.7733
38377SOL    HW218534  10.198   1.464   2.547  0.0671  0.9852  0.1965
38378SOL     OW18535   6.990   9.180   5.827 -0.0171 -0.0272  0.5244
38378SOL    HW118536   7.061   9.129   5.787 -0.9943 -0.5743 -0.5841
38378SOL    HW218537   6.978   9.254   5.768 -0.2872  0.1257  0.7708
38379SOL     OW18538   6.108   3.603   1.365  0.1895  0.0360  0.2035
38379SOL    HW118539   6.054   3.662   1.418  1.1174 -1.9305  3.6353
38379SOL    HW218540   6.197   3.639   1.373  0.2781 -0.0542 -0.3733
38380SOL     OW18541   8.673   3.083   5.068  0.0593  0.5637  0.4968
38380SOL    HW118542   8.713   3.043   4.991 -1.9826  0.0904 -0.3820
38380SOL    HW218543   8.579   3.069   5.057 -0.4308  2.0585  2.1985
38381SOL     OW18544   6.058   6.364  10.675  0.1379  0.1829  0.2628
38381SOL    HW118545   6.102   6.305  10.737 -0.1098  0.6293  0.8702
38381SOL    HW218546   5.984   6.400  10.724 -0.3898  0.1187 -0.4746
38382SOL     OW18547   8.249   8.279   2.109  0.1202  0.2441 -0.0407
38382SOL    HW118548   8.201   8.342   2.055 -0.4908 -0.5089 -0.3883
38382SOL    HW218549   8.337   8.317   2.118 -0.4517  1.5189  0.4000
38383SOL     OW18550   0.040   3.886   8.888 -0.2404 -0.0980  0.1660
38383SOL    HW118551   0.121   3.932   8.909 -0.4475 -0.2110  1.2635
38383SOL    HW218552  -0.015   3.952   8.846  0.1026  0.1995  0.1813
38384SOL     OW18553   6.026  10.364   4.565 -0.5270  0.0514 -0.9463
38384SOL    HW118554   6.066  10.351   4.651  0.7333 -0.9295 -1.6410
38384SOL    HW218555   6.036  10.458   4.548  0.0347  0.0977 -0.4040
38385SOL     OW18556   3.327   3.344   4.314  0.1256  0.0161  0.5608
38385SOL    HW118557   3.314   3.364   4.407 -3.1193  0.8845  0.0248
38385SOL    HW218558   3.357   3.427   4.276 -1.7952  0.6603  0.3427
38386SOL     OW18559   2.448   8.942   0.477 -0.0781 -0.0866  0.6374
38386SOL    HW118560   2.380   8.948   0.409  0.2049  0.8465  0.4101
38386SOL    HW218561   2.402   8.960   0.558  0.0646  1.7324  0.3602
38387SOL     OW18562   3.010   4.168   3.044  0.0143 -0.5695 -0.0770
38387SOL    HW118563   3.035   4.149   3.134 -3.0979  0.3224  1.1005
38387SOL    HW218564   3.002   4.264   3.041 -0.0813 -0.5943 -1.2728
38388SOL     OW18565   2.392   9.175  10.848 -0.3066  0.2668  0.1344
38388SOL    HW118566   2.383   9.084  10.818 -0.1102  0.7825 -1.5830
38388SOL    HW218567   2.355   9.174  10.937  0.1693 -1.5881  0.3651
38389SOL     OW18568   6.476   9.764   4.003  0.2911 -0.0516  0.2370
38389SOL    HW118569   6.476   9.672   3.979 -0.3324 -0.1936  0.7438
38389SOL    HW218570   6.479   9.763   4.099  0.0883  0.4509  0.2509
38390SOL     OW18571   2.686   6.108   5.073  0.0266  0.5186  0.4674
38390SOL    HW118572   2.775   6.112   5.037 -0.2096  1.0954 -0.0836
38390SOL    HW218573   2.664   6.015   5.071  0.7813  0.3134  1.0410
38391SOL     OW18574   8.209  10.132   2.028  0.1975 -0.1246  0.2129
38391SOL    HW118575   8.234  10.198   1.964 -0.5206  0.5741  0.6330
38391SOL    HW218576   8.270  10.143   2.100  0.5603 -0.4401 -0.0408
38392SOL     OW18577   5.763   2.666   7.239 -0.2009 -0.0079 -0.4049
38392SOL    HW118578   5.756   2.734   7.306  0.1222  2.0482 -2.3308
38392SOL    HW218579   5.684   2.613   7.250  0.3051 -0.3156  2.1361
38393SOL     OW18580   5.867  10.628   3.958  0.6274 -0.3057 -0.1995
38393SOL    HW118581   5.884  10.644   3.865  1.2974 -1.8891 -0.3849
38393SOL    HW218582   5.952  10.635   4.000  0.6707 -1.5705 -0.0421
38394SOL     OW18583   5.058   3.037   0.130 -0.6756 -0.2644 -0.1769
38394SOL    HW118584   5.029   3.055   0.041 -1.5718 -0.0747  0.1388
38394SOL    HW218585   5.096   3.120   0.160  0.7540 -0.6661 -0.7780
38395SOL     OW18586   2.007   4.751   1.638 -0.4062  0.0841 -0.5030
38395SOL    HW118587   1.941   4.704   1.587 -0.2863 -2.4522  1.4203
38395SOL    HW218588   1.957   4.797   1.705 -0.3550 -0.0265 -0.3876
38396SOL     OW18589   3.130   8.177   2.700 -0.0306  0.8051 -0.0188
38396SOL    HW118590   3.063   8.110   2.717 -0.3383  1.1607  0.1730
38396SOL    HW218591   3.126   8.235   2.776  0.9664  0.4483  0.3195
38397SOL     OW18592   4.990   6.209   9.357 -0.4832  0.0770  0.3560
38397SOL    HW118593   4.913   6.212   9.300 -0.6023  0.8535  0.5414
38397SOL    HW218594   5.008   6.116   9.368 -0.2239 -0.1019 -1.2490
38398SOL     OW18595   9.240   6.436   1.010 -0.5589  0.4992  0.0911
38398SOL    HW118596   9.186   6.367   1.050 -2.1412  0.3482 -2.0923
38398SOL    HW218597   9.226   6.513   1.065 -1.3248 -0.1114  0.7784
38399SOL     OW18598   9.211   1.740   0.077  0.3164 -0.0192  0.0700
38399SOL    HW118599   9.297   1.784   0.077 -0.5293  1.7316  0.4480
38399SOL    HW218600   9.232   1.647   0.066  2.1181  0.5958 -3.1324
38400SOL     OW18601   1.376   7.663   4.136  0.1055  0.4303 -0.2667
38400SOL    HW118602   1.414   7.747   4.165  0.5549  0.6358 -1.3897
38400SOL    HW218603   1.413   7.599   4.196  0.8542  0.8701 -0.2368
38401SOL     OW18604   6.988   9.254   7.357 -0.5429  0.1316 -0.1013
38401SOL    HW118605   6.948   9.259   7.270  0.2953  0.1346 -0.4955
38401SOL    HW218606   6.916   9.229   7.415 -1.6776  2.4359 -0.3778
38402SOL     OW18607   4.670   1.547   7.890 -0.0235 -0.6676 -0.2900
38402SOL    HW118608   4.728   1.483   7.848  0.8489  0.4649 -0.8367
38402SOL    HW218609   4.598   1.557   7.828 -0.1063 -1.0278 -0.2553
38403SOL     OW18610   4.552   2.473   9.530  0.7186  0.4827  0.4030
38403SOL    HW118611   4.638   2.442   9.559  0.8506 -0.1753 -0.6209
38403SOL    HW218612   4.491   2.407   9.562  0.5697  0.9819  1.1826
38404SOL     OW18613   5.566   3.447   9.598  0.3733  0.2096  0.1490
38404SOL    HW118614   5.496   3.511   9.589  0.5153  0.1676 -1.5075
38404SOL    HW218615   5.644   3.493   9.568  1.1553  0.3329  2.1700
38405SOL     OW18616   4.188   0.219   0.263 -0.0188  0.0694  0.9873
38405SOL    HW118617   4.246   0.189   0.333  1.2713  1.4443  0.5808
38405SOL    HW218618   4.140   0.293   0.302  0.0954  0.3047  0.6862
38406SOL     OW18619   0.723   5.112   9.027 -0.0684 -0.2885  0.3455
38406SOL    HW118620   0.651   5.064   8.988 -0.1171  0.2785 -0.2881
38406SOL    HW218621   0.718   5.092   9.120 -0.9833 -0.3297  0.2935
38407SOL     OW18622   1.301   5.604   0.781  0.3258 -0.1136  0.4464
38407SOL    HW118623   1.390   5.634   0.798  1.3518 -0.9903 -2.7036
38407SOL    HW218624   1.246   5.678   0.807  2.3178  2.1417 -1.3175
38408SOL     OW18625   8.957   3.825   0.303 -0.4462  0.2509 -0.6992
38408SOL    HW118626   8.889   3.776   0.348 -0.1772  0.6534  0.1685
38408SOL    HW218627   8.987   3.767   0.233 -0.8519 -0.3969 -0.3400
38409SOL     OW18628   1.422   0.346   8.780  0.1691 -0.5486  0.4243
38409SOL    HW118629   1.359   0.289   8.736  0.1495 -0.5012  0.3906
38409SOL    HW218630   1.468   0.288   8.841 -0.2617 -0.4763  0.8210
38410SOL     OW18631   1.363   5.532   1.598 -0.1783 -0.9455  0.3581
38410SOL    HW118632   1.396   5.584   1.672  0.0761 -0.8487  0.1761
38410SOL    HW218633   1.441   5.510   1.548 -0.4996  0.3234 -0.7478
38411SOL     OW18634   3.039   3.918   2.656  0.1836  0.0813 -0.1733
38411SOL    HW118635   3.011   4.000   2.615 -1.7673 -0.2870  0.3131
38411SOL    HW218636   3.081   3.945   2.738 -1.6154  0.6161  0.6335
38412SOL     OW18637   8.712   4.079   7.207 -0.3619  0.1423 -0.0817
38412SOL    HW118638   8.724   4.155   7.264 -2.1625 -0.2497  0.9212
38412SOL    HW218639   8.715   4.114   7.118 -1.7483  1.5300  0.3720
38413SOL     OW18640   9.913   9.542   0.862 -0.0468 -0.3314 -0.3764
38413SOL    HW118641   9.916   9.520   0.955  1.6055 -1.0689 -0.5643
38413SOL    HW218642   9.956   9.468   0.819 -0.8379 -0.0297 -1.7461
38414SOL     OW18643   5.144   4.202   6.359 -0.1046 -0.0203 -0.1809
38414SOL    HW118644   5.171   4.138   6.425 -0.2743 -0.5002 -0.5700
38414SOL    HW218645   5.050   4.188   6.349  0.0016 -0.2834 -0.8682
38415SOL     OW18646   1.088   5.534   4.358  0.0534 -0.7403 -0.2685
38415SOL    HW118647   1.005   5.582   4.362 -0.3081 -1.4330  0.8154
38415SOL    HW218648   1.147   5.586   4.412 -0.0896 -1.0371  0.1745
38416SOL     OW18649  10.791   3.845   6.744  0.5843 -0.4020  0.2599
38416SOL    HW118650  10.872   3.893   6.726 -0.0981 -0.2848 -3.2214
38416SOL    HW218651  10.745   3.899   6.808  1.7625  1.3006 -0.2637
38417SOL     OW18652   6.556  10.477   3.120 -0.0587  1.0816  0.0087
38417SOL    HW118653   6.565  10.500   3.212 -1.7697  3.6921 -0.3458
38417SOL    HW218654   6.467  10.441   3.113 -0.0293  1.1150 -0.6400
38418SOL     OW18655   0.158   1.043   8.412 -0.1850 -0.0557  0.5254
38418SOL    HW118656   0.140   1.027   8.505 -0.3584 -0.0767  0.4882
38418SOL    HW218657   0.074   1.031   8.369 -0.1150  0.0034  0.3707
38419SOL     OW18658   1.985   8.366   2.016 -0.0577  0.5864 -0.6270
38419SOL    HW118659   1.919   8.316   2.064  0.8164 -0.6215 -0.6277
38419SOL    HW218660   2.061   8.367   2.074  0.2084  1.2008 -0.9791
38420SOL     OW18661   4.509   5.775  10.136 -0.6671  0.5995 -0.6447
38420SOL    HW118662   4.457   5.852  10.157 -1.5580  0.2966 -1.6863
38420SOL    HW218663   4.599   5.802  10.154 -1.1274  1.2417  0.8273
38421SOL     OW18664   0.003   3.539   3.972  0.1080  0.2916 -0.2421
38421SOL    HW118665  -0.066   3.602   3.995 -0.3584 -0.5810  0.8619
38421SOL    HW218666   0.036   3.569   3.887  0.6361  2.6291  0.7148
38422SOL     OW18667   6.811   8.221   3.429 -0.1319  1.0922 -0.2245
38422SOL    HW118668   6.747   8.162   3.389  0.2555  0.4121  0.1432
38422SOL    HW218669   6.894   8.198   3.387 -0.2098  2.3927 -1.1501
38423SOL     OW18670   8.917   3.023   0.467  0.3854 -0.3180 -0.2254
38423SOL    HW118671   8.880   2.983   0.388 -1.6715 -1.3143  1.1560
38423SOL    HW218672   8.979   2.958   0.499  0.9585 -0.0671 -0.8082
38424SOL     OW18673  10.381  10.188   2.304  0.7018 -0.2577 -0.1637
38424SOL    HW118674  10.473  10.211   2.291  1.2748 -2.1555  0.2036
38424SOL    HW218675  10.355  10.146   2.222  1.3159 -3.0480  0.9545
38425SOL     OW18676   2.691   1.078   3.083  0.3491  0.3879  0.7029
38425SOL    HW118677   2.647   1.053   3.164 -1.0569  1.2160  0.2263
38425SOL    HW218678   2.623   1.119   3.030  0.9687 -1.0778 -1.3491
38426SOL     OW18679   1.621   7.295   8.805  0.4567 -0.1101  0.3711
38426SOL    HW118680   1.694   7.235   8.820  0.8799 -0.0482 -1.2413
38426SOL    HW218681   1.558   7.244   8.755 -1.6581 -0.8407  3.5238
38427SOL     OW18682   6.737   7.361   3.265  0.2826  0.2676  0.4673
38427SOL    HW118683   6.810   7.300   3.267 -1.4661 -2.0512 -0.6586
38427SOL    HW218684   6.737   7.397   3.177  1.0601  1.6534  1.0016
38428SOL     OW18685   5.635   9.381   0.672  0.2859 -0.8825  0.0789
38428SOL    HW118686   5.721   9.342   0.656 -0.4602 -2.1583 -1.0098
38428SOL    HW218687   5.602   9.336   0.750  1.0716  0.4912  1.2678
38429SOL     OW18688   4.646   3.716   7.819  0.1272  0.4043 -0.1368
38429SOL    HW118689   4.612   3.748   7.736 -2.7233  0.3663  0.8934
38429SOL    HW218690   4.620   3.623   7.821  0.2569  0.3779  0.7320
38430SOL     OW18691   3.856   5.771   0.181  0.1126 -0.5779  0.1397
38430SOL    HW118692   3.801   5.745   0.255 -0.2209  0.6247  0.3321
38430SOL    HW218693   3.907   5.692   0.161 -1.6053 -1.7112 -0.0124
38431SOL     OW18694   7.498  10.375   5.248  0.1647 -0.6315 -0.7267
38431SOL    HW118695   7.565  10.307   5.241 -0.7822 -1.4901 -1.7872
38431SOL    HW218696   7.443  10.346   5.321 -0.1893 -0.9906 -1.1248
38432SOL     OW18697   6.069  10.260  10.193  0.3512  0.1972 -0.1663
38432SOL    HW118698   6.033  10.290  10.109  0.1975  0.1702 -0.1105
38432SOL    HW218699   5.992  10.248  10.249  0.3874 -0.5507 -0.2674
38433SOL     OW18700   7.895   1.167  10.871 -0.4086  0.3470 -0.5114
38433SOL    HW118701   7.957   1.148  10.801 -0.0858 -2.6201  0.4223
38433SOL    HW218702   7.846   1.086  10.882 -1.1637  1.0468  1.9755
38434SOL     OW18703   3.351   8.386   5.689 -0.1449  0.2799 -0.4540
38434SOL    HW118704   3.434   8.417   5.653 -0.5607 -0.1950 -1.8830
38434SOL    HW218705   3.365   8.293   5.703 -0.0562  0.4230  0.4513
38435SOL     OW18706  10.418   7.665   1.087  0.3546  0.8213 -0.2741
38435SOL    HW118707  10.447   7.694   1.174  0.6291 -0.4497  0.0782
38435SOL    HW218708  10.322   7.672   1.091  0.1544 -1.5711  1.0578
38436SOL     OW18709   5.506   4.099   6.740  0.0013 -0.3330 -0.4312
38436SOL    HW118710   5.551   4.016   6.720 -1.8329 -0.9430 -2.3877
38436SOL    HW218711   5.462   4.082   6.824  1.5692 -0.4603  0.4095
38437SOL     OW18712   2.016   2.301   3.496  0.3964  0.1713  0.2365
38437SOL    HW118713   2.094   2.286   3.443 -0.4609  1.1232 -1.3961
38437SOL    HW218714   1.998   2.394   3.486 -1.2014 -0.1075  0.1641
38438SOL     OW18715   2.224   8.529   1.975  0.5286  0.3580  0.4346
38438SOL    HW118716   2.181   8.611   2.001 -0.5809  0.0583 -0.3620
38438SOL    HW218717   2.151   8.469   1.956  1.2981 -0.3262 -0.4725
38439SOL     OW18718   7.825   6.165   2.456  0.2900 -0.3478 -0.5426
38439SOL    HW118719   7.761   6.200   2.395 -0.5706 -1.1947 -0.1449
38439SOL    HW218720   7.874   6.100   2.405 -0.4162 -1.0411 -0.3528
38440SOL     OW18721   9.986   7.182   1.252  0.3254  0.2921  0.3626
38440SOL    HW118722  10.034   7.260   1.279 -1.2478  1.4314 -0.0038
38440SOL    HW218723   9.966   7.137   1.334  1.7888 -0.0991  0.5351
38441SOL     OW18724  10.425   5.562   5.923  0.4124  0.2846  0.2478
38441SOL    HW118725  10.463   5.628   5.864  2.2424  0.5096  1.5910
38441SOL    HW218726  10.475   5.571   6.004 -0.9878 -1.0825  1.3181
38442SOL     OW18727   2.868   3.565   0.801 -0.4552 -0.1832 -0.1987
38442SOL    HW118728   2.950   3.541   0.845 -0.5465 -0.6656 -0.2895
38442SOL    HW218729   2.862   3.506   0.727 -0.9990 -0.3054 -0.0627
38443SOL     OW18730   4.873   3.770   1.822 -0.4289  0.0761  0.7608
38443SOL    HW118731   4.814   3.701   1.791  0.3265 -0.5567  0.6772
38443SOL    HW218732   4.890   3.823   1.744  1.8360 -1.7830 -0.1367
38444SOL     OW18733   8.664  10.510   7.264 -0.0456  0.8136  0.2189
38444SOL    HW118734   8.569  10.508   7.264 -0.0606 -1.1676 -1.6128
38444SOL    HW218735   8.689  10.455   7.338 -0.3090  0.4339  0.0233
38445SOL     OW18736   8.051   2.458   0.713 -0.4420  0.0782 -0.3251
38445SOL    HW118737   8.079   2.549   0.719  1.9017 -0.5968 -0.0494
38445SOL    HW218738   7.956   2.463   0.703 -0.2597  2.5621 -1.5422
38446SOL     OW18739   6.224   1.162   2.819 -0.1582 -0.1957  0.0549
38446SOL    HW118740   6.181   1.210   2.890  0.6313  0.4303  0.1313
38446SOL    HW218741   6.279   1.098   2.865  0.4217  0.2701  0.0189
38447SOL     OW18742   2.698   2.254   1.328 -0.7373 -0.1559 -0.2483
38447SOL    HW118743   2.653   2.337   1.311 -0.1575  0.4171  0.9044
38447SOL    HW218744   2.694   2.244   1.424 -2.2708 -2.3021 -0.4438
38448SOL     OW18745   0.490   2.205   5.780 -0.9950  0.0257 -0.2848
38448SOL    HW118746   0.578   2.176   5.756 -0.8938 -0.9123  1.0613
38448SOL    HW218747   0.480   2.290   5.738  1.3052  1.0348  1.0044
38449SOL     OW18748   0.994   4.610   6.948  0.4802  0.3661  0.4270
38449SOL    HW118749   0.935   4.535   6.939  1.3757 -0.1847 -1.7083
38449SOL    HW218750   0.937   4.683   6.971 -1.3755  0.1652 -2.8169
38450SOL     OW18751   3.793   9.672  10.828  0.2282  0.1970  0.4004
38450SOL    HW118752   3.745   9.638  10.753 -0.5342 -0.4101  1.1560
38450SOL    HW218753   3.824   9.595  10.875 -0.0027  0.5509  1.1578
38451SOL     OW18754   3.892   4.602   6.271  0.3895  0.9442  0.0392
38451SOL    HW118755   3.885   4.684   6.222 -2.5109  0.5579 -0.3952
38451SOL    HW218756   3.815   4.602   6.328  0.4959 -1.3343  0.2741
38452SOL     OW18757   1.365   5.756   5.238 -0.1776 -0.3627 -0.4578
38452SOL    HW118758   1.418   5.815   5.186 -1.3911  0.7704 -0.4735
38452SOL    HW218759   1.398   5.766   5.327 -0.2322  0.1897 -0.4961
38453SOL     OW18760   1.497   7.545   6.117  0.0032 -0.3997 -0.2619
38453SOL    HW118761   1.494   7.454   6.147 -0.0872 -0.0517  0.8307
38453SOL    HW218762   1.558   7.588   6.178  0.2070  0.2339 -0.8923
38454SOL     OW18763   2.204   4.833   4.251 -0.3540  0.0828  0.3704
38454SOL    HW118764   2.273   4.777   4.285 -0.1703 -0.1646 -0.4032
38454SOL    HW218765   2.235   4.861   4.165 -1.5375 -0.6242 -0.3058
38455SOL     OW18766   2.841   3.655   3.491 -0.0714  0.0930  0.3837
38455SOL    HW118767   2.759   3.611   3.468 -0.3162  0.3943  0.6641
38455SOL    HW218768   2.821   3.749   3.485  0.8140  0.1931 -1.5118
38456SOL     OW18769   2.724   2.050   5.586 -0.2136  0.0215 -0.7378
38456SOL    HW118770   2.798   2.038   5.646 -0.6132  0.5847 -0.1062
38456SOL    HW218771   2.764   2.062   5.500  0.4476  0.5932 -0.3597
38457SOL     OW18772   5.769   6.266   3.945  0.6807  0.4424 -0.8813
38457SOL    HW118773   5.860   6.235   3.952  0.4869  0.2192  1.4244
38457SOL    HW218774   5.763   6.335   4.011 -1.0264 -0.0472 -0.4975
38458SOL     OW18775   2.808   6.163   8.191 -0.1060 -0.0009  0.3603
38458SOL    HW118776   2.800   6.072   8.161 -0.8388  0.3584 -0.6140
38458SOL    HW218777   2.731   6.206   8.153  0.6569  1.1968  0.1378
38459SOL     OW18778   2.421   6.329   5.399 -0.5093 -0.5215 -0.1622
38459SOL    HW118779   2.467   6.413   5.404 -0.0623 -0.7565 -0.3066
38459SOL    HW218780   2.378   6.330   5.314 -1.1997 -0.0850  0.1836
38460SOL     OW18781   4.906   7.087   7.594  0.3199 -0.4312 -0.6053
38460SOL    HW118782   4.908   7.171   7.548  1.2552 -0.5247 -0.7607
38460SOL    HW218783   4.961   7.101   7.672  1.3101 -1.1634 -1.1380
38461SOL     OW18784   2.199   2.656   6.277  0.1297  0.4766  0.2089
38461SOL    HW118785   2.294   2.667   6.277  0.1960  0.0947  1.4869
38461SOL    HW218786   2.175   2.655   6.370 -1.2538  1.5978 -0.1058
38462SOL     OW18787  10.770   5.245   8.045 -0.4074 -0.4662  0.6090
38462SOL    HW118788  10.702   5.306   8.018  0.1148  0.0862  0.5262
38462SOL    HW218789  10.846   5.300   8.062  1.0980 -1.2807 -2.5827
38463SOL     OW18790   0.089   3.177   4.379 -0.0966  0.1426 -0.1075
38463SOL    HW118791   0.091   3.248   4.314 -1.1965  0.8676  0.6047
38463SOL    HW218792   0.034   3.211   4.450  0.6044 -0.8508  0.9520
38464SOL     OW18793   0.447   8.008   6.776  0.1370 -0.0532 -0.7970
38464SOL    HW118794   0.537   7.983   6.755  0.8133 -0.3773  2.1530
38464SOL    HW218795   0.450   8.104   6.783  0.7045 -0.1784  1.0036
38465SOL     OW18796   5.801   5.431   0.112 -0.1625  0.4275  0.0169
38465SOL    HW118797   5.868   5.447   0.046 -1.8310  3.4883 -1.1272
38465SOL    HW218798   5.850   5.406   0.191  2.0657 -0.2357 -1.4900
38466SOL     OW18799   3.122  10.833   7.294  0.2753  0.2920 -0.0972
38466SOL    HW118800   3.051  10.897   7.304  0.1719  0.0245  0.9626
38466SOL    HW218801   3.077  10.749   7.282  0.4212  0.2177 -0.1281
38467SOL     OW18802   2.600   1.710   9.229  0.5831 -0.2958  0.4756
38467SOL    HW118803   2.526   1.771   9.226  0.3848 -0.4809  1.2269
38467SOL    HW218804   2.662   1.744   9.164 -0.2904 -0.3158 -0.3988
38468SOL     OW18805   3.937  10.598   8.384  0.0468 -0.3310 -0.1335
38468SOL    HW118806   3.875  10.605   8.311 -0.3806 -2.2263  0.0011
38468SOL    HW218807   3.979  10.684   8.388 -0.8548  0.2282 -1.7700
38469SOL     OW18808   3.774   6.814   2.318 -0.7682  0.0484 -0.2665
38469SOL    HW118809   3.690   6.814   2.363 -0.3233  2.7579  0.8029
38469SOL    HW218810   3.807   6.725   2.327 -1.7195 -0.1097  2.9408
38470SOL     OW18811   9.771   8.610   3.185 -0.4426 -0.2453  0.4629
38470SOL    HW118812   9.690   8.642   3.225 -0.5147 -0.6356  0.6353
38470SOL    HW218813   9.829   8.686   3.184 -2.2841  1.4040 -3.7681
38471SOL     OW18814   9.400   2.082   1.401 -0.5710 -0.7914 -0.2087
38471SOL    HW118815   9.353   2.159   1.366  0.7883 -0.5568 -1.6302
38471SOL    HW218816   9.482   2.118   1.435 -0.5358 -1.4440  0.3961
38472SOL     OW18817   3.403   7.034   1.806  0.2084  0.6815  0.2644
38472SOL    HW118818   3.403   6.965   1.873  0.1388  1.0332  0.6320
38472SOL    HW218819   3.368   7.111   1.851  0.1881  0.9311 -0.1718
38473SOL     OW18820   4.127   7.792   2.993  0.4004 -0.6391 -0.1514
38473SOL    HW118821   4.080   7.867   3.030  0.1949 -1.4755  1.3199
38473SOL    HW218822   4.072   7.762   2.921 -0.1184 -0.1277  0.0289
38474SOL     OW18823   8.907   2.555   9.149  0.2838 -0.2990 -0.5727
38474SOL    HW118824   8.827   2.511   9.179 -0.1036 -0.2952 -1.5888
38474SOL    HW218825   8.965   2.552   9.225 -0.4261 -0.9062 -0.0383
38475SOL     OW18826   6.162   1.797   8.156 -0.8128  0.8956  0.4522
38475SOL    HW118827   6.147   1.748   8.237 -0.9101 -0.1125 -0.1517
38475SOL    HW218828   6.194   1.731   8.095 -0.1696  1.7634 -0.1610
38476SOL     OW18829   3.155   4.823   5.987 -0.3675 -0.9432  0.4895
38476SOL    HW118830   3.162   4.757   5.919 -3.6547 -1.6271  0.6380
38476SOL    HW218831   3.148   4.774   6.068 -0.0540 -0.2949  0.9209
38477SOL     OW18832   3.467   8.686   9.374  0.1809  0.5129 -0.8787
38477SOL    HW118833   3.544   8.686   9.430  0.8587 -1.2780 -1.7315
38477SOL    HW218834   3.441   8.778   9.369 -0.2110  0.7352  2.6582
38478SOL     OW18835   9.150   8.031   2.113  0.1781 -0.1279  0.6658
38478SOL    HW118836   9.082   8.091   2.083 -0.4420 -0.4672  1.3766
38478SOL    HW218837   9.228   8.059   2.065 -0.6330 -0.2872 -0.8297
38479SOL     OW18838   6.144   4.366  10.397 -0.2743 -0.3577  0.5095
38479SOL    HW118839   6.104   4.294  10.348 -1.2010 -0.4385  1.3533
38479SOL    HW218840   6.130   4.344  10.489 -1.4638  1.3398  0.8041
38480SOL     OW18841   6.747   9.590   5.414  0.9130  0.2209  0.2165
38480SOL    HW118842   6.767   9.674   5.455  0.8161  0.2347  0.2360
38480SOL    HW218843   6.682   9.550   5.471  0.3856  0.4702 -0.1991
38481SOL     OW18844   4.986  10.373   7.165  0.2342 -0.3820  0.2371
38481SOL    HW118845   4.929  10.398   7.092  1.3328  2.5923  0.2551
38481SOL    HW218846   4.925  10.345   7.234 -0.9221 -1.3804 -1.1220
38482SOL     OW18847   5.478   3.158   6.601 -0.4255 -0.1155  0.2023
38482SOL    HW118848   5.504   3.134   6.512  1.0303  1.0497  0.2674
38482SOL    HW218849   5.558   3.149   6.653 -0.9897  0.2743  1.1663
38483SOL     OW18850   7.894   7.266   4.094  0.5529 -0.2029 -0.0397
38483SOL    HW118851   7.944   7.346   4.111  0.5315 -0.0459 -0.6793
38483SOL    HW218852   7.958   7.206   4.054  0.3296 -0.1399 -0.4984
38484SOL     OW18853   8.617   3.990   3.117  1.0741  0.0703  0.2605
38484SOL    HW118854   8.593   3.908   3.073 -1.3639  0.0238  1.4946
38484SOL    HW218855   8.696   4.020   3.071  0.0542 -1.1738 -2.5286
38485SOL     OW18856   0.077  10.185   5.842 -0.6152  0.3062  0.0322
38485SOL    HW118857   0.156  10.184   5.788 -0.9788  1.8111 -0.5811
38485SOL    HW218858   0.005  10.182   5.780 -1.0399  1.7292  0.4121
38486SOL     OW18859  10.699   4.056  10.233  0.1850  0.4213  0.2985
38486SOL    HW118860  10.656   3.974  10.259  1.2763 -0.7375 -1.3740
38486SOL    HW218861  10.632   4.103  10.183  0.1988 -0.3939 -0.4931
38487SOL     OW18862   0.461   1.273   6.035  0.5049 -0.0481 -0.0280
38487SOL    HW118863   0.392   1.310   6.091  0.4938  0.7825 -0.5814
38487SOL    HW218864   0.426   1.280   5.946  2.0358  2.1507 -0.5424
38488SOL     OW18865   1.071   5.774   0.473  0.1978  0.5654  0.7399
38488SOL    HW118866   1.045   5.776   0.565  1.1017  0.0590  1.0267
38488SOL    HW218867   1.106   5.861   0.455 -0.4752  0.8324  0.7193
38489SOL     OW18868   6.765   9.500   2.094  0.0575 -0.0514 -0.1816
38489SOL    HW118869   6.752   9.409   2.067  0.6059  0.4006 -2.2083
38489SOL    HW218870   6.850   9.501   2.138  1.2295 -0.1831 -2.3080
38490SOL     OW18871   1.394   8.401   0.746  0.0215  0.5371 -0.3355
38490SOL    HW118872   1.343   8.441   0.816  1.2171  1.8392 -0.1518
38490SOL    HW218873   1.330   8.354   0.693 -1.4109  2.2383 -0.2150
38491SOL     OW18874   5.534   4.227   9.735 -0.0578 -0.3231 -0.1552
38491SOL    HW118875   5.556   4.271   9.653 -0.3343  0.7093  0.3149
38491SOL    HW218876   5.496   4.295   9.790 -2.7627 -1.6291 -0.2580
38492SOL     OW18877   0.445   2.903   0.029 -0.0932  0.1752  0.0691
38492SOL    HW118878   0.430   2.901   0.124  0.0736  0.7115  0.1093
38492SOL    HW218879   0.522   2.958   0.018  0.3809 -0.5603 -0.3242
38493SOL     OW18880   9.712   0.843   6.952  0.7131  0.3607 -0.0375
38493SOL    HW118881   9.669   0.784   7.014  1.3728  0.4305  0.4981
38493SOL    HW218882   9.651   0.849   6.878  0.3639 -0.5048  0.1695
38494SOL     OW18883   3.511   7.259   9.210 -0.1631  0.1176  0.4492
38494SOL    HW118884   3.444   7.326   9.194 -0.3736  0.4415  2.3786
38494SOL    HW218885   3.482   7.184   9.158 -0.8672  0.9460 -0.4026
38495SOL     OW18886   2.328   8.165   0.104 -0.6876  0.0859  0.3561
38495SOL    HW118887   2.310   8.237   0.165  0.9136  0.5692  0.3042
38495SOL    HW218888   2.369   8.208   0.029 -1.2984 -0.6920 -0.4369
38496SOL     OW18889   6.624   3.270   8.135  0.4599  0.0144  0.4380
38496SOL    HW118890   6.685   3.339   8.109  1.2365 -0.2571  1.4697
38496SOL    HW218891   6.553   3.317   8.179  0.5202  0.2357  0.3014
38497SOL     OW18892  10.298   2.669   5.045 -0.3075 -0.6459  0.1635
38497SOL    HW118893  10.352   2.739   5.082  1.0492 -1.2457 -0.5821
38497SOL    HW218894  10.312   2.594   5.104 -0.7373 -0.6574  0.2506
38498SOL     OW18895   4.347   3.959   5.729  0.5269 -0.2698 -0.2708
38498SOL    HW118896   4.258   3.926   5.734 -0.3158  1.6627 -1.3651
38498SOL    HW218897   4.377   3.933   5.642 -0.1833  1.7546 -1.1869
38499SOL     OW18898   4.418   6.182   8.555 -0.1694 -0.2207 -0.1626
38499SOL    HW118899   4.329   6.176   8.521 -0.1515 -0.3416 -0.1892
38499SOL    HW218900   4.423   6.113   8.622 -0.1183 -0.1684 -0.1133
38500SOL     OW18901  10.800   4.381   8.407 -0.1674 -0.0818  0.1754
38500SOL    HW118902  10.775   4.289   8.398  0.6319 -0.2643 -0.2380
38500SOL    HW218903  10.896   4.380   8.405 -0.1608  0.8281 -0.5415
38501SOL     OW18904   8.033   4.367   4.265 -0.2964  0.5382 -0.0433
38501SOL    HW118905   8.040   4.455   4.301  0.3860  1.0469 -1.3528
38501SOL    HW218906   8.091   4.367   4.189  1.3800 -1.6791  1.0889
38502SOL     OW18907   5.895   2.611   9.872  0.0534  0.3625  0.0205
38502SOL    HW118908   5.986   2.603   9.901 -0.4991 -0.0308  1.7729
38502SOL    HW218909   5.899   2.672   9.798  2.1324 -2.1775 -2.1694
38503SOL     OW18910   0.432   3.512   8.808 -0.2481 -0.0509 -0.5586
38503SOL    HW118911   0.522   3.544   8.794 -0.2144 -0.4435 -1.2732
38503SOL    HW218912   0.438   3.456   8.886 -0.6162  2.9331  1.8237
38504SOL     OW18913   0.986  10.038  10.578  0.2369 -0.2499 -0.8234
38504SOL    HW118914   1.059  10.016  10.520  1.5204  1.5891  0.0131
38504SOL    HW218915   0.943  10.113  10.536 -0.9750 -1.0581 -1.1026
38505SOL     OW18916   4.513   4.743   9.931  0.1879  0.0551  0.1045
38505SOL    HW118917   4.486   4.810   9.993  1.2513  1.1178 -0.5388
38505SOL    HW218918   4.528   4.665   9.985  1.1438  0.9685  1.2209
38506SOL     OW18919   1.096   7.595  10.549  0.7062 -0.1677 -0.3810
38506SOL    HW118920   1.124   7.578  10.459 -2.5204  0.3815 -1.6114
38506SOL    HW218921   1.007   7.560  10.554 -0.2347  2.1791  1.7798
38507SOL     OW18922   9.425   0.685   7.016 -0.3245 -0.2813 -0.3441
38507SOL    HW118923   9.430   0.591   7.000 -1.9416 -0.5981  0.8349
38507SOL    HW218924   9.352   0.714   6.962 -0.9995 -0.0476  0.6668
38508SOL     OW18925   6.903  10.016   5.678  0.3294 -0.1867  0.6630
38508SOL    HW118926   6.944  10.102   5.676 -1.2345  0.6686 -2.6117
38508SOL    HW218927   6.833  10.023   5.743 -0.4240  1.4191 -0.2620
38509SOL     OW18928  10.572   9.515   4.992 -0.3613 -0.1466  0.5479
38509SOL    HW118929  10.560   9.496   5.085  1.9627  2.7095  1.6141
38509SOL    HW218930  10.520   9.593   4.976  1.1108  0.7847  0.1239
38510SOL     OW18931   3.186   1.602   8.102  0.2045  0.6176 -0.3590
38510SOL    HW118932   3.258   1.658   8.074  0.2144 -1.1386 -4.6641
38510SOL    HW218933   3.229   1.522   8.133  0.1840  0.4464 -0.7566
38511SOL     OW18934   5.630   2.161   2.876 -0.0469  0.1293 -0.6686
38511SOL    HW118935   5.701   2.155   2.811  0.2302  0.2387 -0.3822
38511SOL    HW218936   5.609   2.070   2.896  0.3523  0.0911 -0.3966
38512SOL     OW18937   2.699   4.268   7.004  0.2998 -0.8283 -0.1046
38512SOL    HW118938   2.656   4.342   6.960 -1.5366 -2.1840 -0.7001
38512SOL    HW218939   2.670   4.274   7.095  1.1258 -0.1693  0.1364
38513SOL     OW18940   0.332   2.113   1.411 -0.2352  0.4632  0.3448
38513SOL    HW118941   0.327   2.075   1.498 -0.9087  2.5505  1.2792
38513SOL    HW218942   0.422   2.145   1.404 -0.5459  1.4441  0.7948
38514SOL     OW18943   7.638   4.800   5.901  0.0680  1.1549  0.5111
38514SOL    HW118944   7.685   4.830   5.823 -0.0074 -0.0496 -0.0166
38514SOL    HW218945   7.589   4.723   5.871 -0.0935  0.7760  1.7088
38515SOL     OW18946   3.535   7.929   0.316 -0.1860 -0.4451 -0.0375
38515SOL    HW118947   3.626   7.918   0.344 -0.4654 -0.4601  0.8882
38515SOL    HW218948   3.488   7.953   0.395 -1.0403 -0.6688 -0.4633
38516SOL     OW18949   1.054   1.890   0.456  0.5922 -0.3604 -0.1983
38516SOL    HW118950   1.077   1.899   0.548 -0.2599  0.7522 -0.0696
38516SOL    HW218951   1.137   1.872   0.412  1.0185 -0.8384  0.7721
38517SOL     OW18952   7.846   5.035   2.554  0.4341 -0.1112 -0.0414
38517SOL    HW118953   7.914   4.967   2.557 -0.4114 -1.1288 -1.9411
38517SOL    HW218954   7.892   5.112   2.521  1.1008 -0.1382  0.7667
38518SOL     OW18955   0.970   7.295   4.546 -0.0778  0.2050  0.0296
38518SOL    HW118956   1.027   7.230   4.587  1.5473  2.6552  1.9338
38518SOL    HW218957   0.930   7.342   4.619 -2.4226  0.4285 -1.2899
38519SOL     OW18958   3.202   2.558   4.477  0.4368  0.0043  0.1089
38519SOL    HW118959   3.206   2.472   4.434 -0.9526  0.1642 -0.3932
38519SOL    HW218960   3.114   2.561   4.514  0.7508  0.9060  0.7890
38520SOL     OW18961   9.741   7.160   8.893 -0.2777  0.3453 -0.4401
38520SOL    HW118962   9.714   7.068   8.888 -1.0715  0.6044 -1.2424
38520SOL    HW218963   9.662   7.207   8.920  0.4579  0.6652  1.2836
38521SOL     OW18964   8.597   8.024   5.012  1.0747  1.0056 -0.2235
38521SOL    HW118965   8.587   7.959   4.943  0.7678  2.2634 -1.4072
38521SOL    HW218966   8.681   8.066   4.993  0.8668  1.5367  0.0096
38522SOL     OW18967  10.222   8.607  10.505 -0.0530  0.0869  0.1400
38522SOL    HW118968  10.196   8.641  10.420  0.9356 -1.3670 -0.7991
38522SOL    HW218969  10.149   8.551  10.532 -0.8818  1.4475  0.8408
38523SOL     OW18970   6.348   4.402   2.773 -0.8132 -0.1098  0.2719
38523SOL    HW118971   6.269   4.376   2.820 -1.5522  2.9649  0.9993
38523SOL    HW218972   6.316   4.441   2.691  0.1782 -1.3842 -0.7654
38524SOL     OW18973   9.552   5.425   8.140  0.0922  0.2029 -0.2133
38524SOL    HW118974   9.540   5.357   8.206 -0.1926 -0.3091 -0.7770
38524SOL    HW218975   9.647   5.428   8.126 -0.0071 -1.7393 -1.8370
38525SOL     OW18976   8.085   0.005   5.909  0.3627 -0.1117  0.4152
38525SOL    HW118977   8.167   0.035   5.947 -0.2209  1.4306  0.5045
38525SOL    HW218978   8.065   0.067   5.839 -0.3721 -0.8711 -0.0810
38526SOL     OW18979   0.614  10.655   1.088 -0.3020 -0.0239 -0.3703
38526SOL    HW118980   0.607  10.748   1.109  1.6861 -0.2558  1.7545
38526SOL    HW218981   0.589  10.610   1.169  0.4539 -1.2633 -0.7965
38527SOL     OW18982   6.846   7.246   8.943  0.1680 -0.2374  0.7325
38527SOL    HW118983   6.866   7.319   9.003 -0.2515 -0.5124  1.2121
38527SOL    HW218984   6.760   7.266   8.908 -0.3459 -0.9335  1.5460
38528SOL     OW18985   4.156  10.666   7.206  0.4764 -0.7985  0.4870
38528SOL    HW118986   4.244  10.702   7.198 -0.3194  1.2834  0.5275
38528SOL    HW218987   4.139  10.627   7.120  1.8952 -2.4441  0.9019
38529SOL     OW18988   9.768   6.317   1.475 -0.2304  0.4991  0.3776
38529SOL    HW118989   9.776   6.364   1.392  0.5756  1.4511  0.9810
38529SOL    HW218990   9.788   6.382   1.542  2.0374 -0.9209  1.1939
38530SOL     OW18991   0.647   9.213   5.956 -0.6037  0.3086 -0.2358
38530SOL    HW118992   0.680   9.209   6.046 -1.4281  0.0718  0.0609
38530SOL    HW218993   0.671   9.301   5.926 -1.2939  0.8016  0.6035
38531SOL     OW18994   6.090   6.934   6.161 -0.7961  0.8219 -0.0242
38531SOL    HW118995   6.071   6.852   6.206  0.8722  0.0030 -0.7340
38531SOL    HW218996   6.028   6.997   6.198 -2.7028 -0.9294 -0.0699
38532SOL     OW18997   5.921   3.548   0.376  0.0636  0.0806  0.0129
38532SOL    HW118998   5.987   3.579   0.314 -0.7606  1.0441 -0.4099
38532SOL    HW218999   5.842   3.597   0.353 -0.4675 -0.1402  1.3057
38533SOL     OW19000   0.998   0.096   3.080 -0.2559 -0.1583  0.1745
38533SOL    HW119001   1.025   0.179   3.040 -0.1960 -0.3224 -0.1312
38533SOL    HW219002   1.078   0.060   3.118 -0.5231  0.5430  1.4649
38534SOL     OW19003   9.445   3.806   2.652 -0.0005 -0.3715  0.2226
38534SOL    HW119004   9.416   3.847   2.570  0.0955 -0.4882  0.1321
38534SOL    HW219005   9.363   3.787   2.698 -0.0285  0.6492  0.6184
38535SOL     OW19006  10.295   5.032   8.976 -0.2100  0.4822 -0.3241
38535SOL    HW119007  10.355   4.984   8.920 -0.3157  0.9914 -0.8915
38535SOL    HW219008  10.215   4.979   8.977 -0.3891  0.7174 -1.0881
38536SOL     OW19009   3.493   7.057  10.413 -0.2272  0.1235  0.3621
38536SOL    HW119010   3.458   6.972  10.389 -1.7602  0.5314  1.0560
38536SOL    HW219011   3.545   7.040  10.491  0.4392 -0.3458 -0.1692
38537SOL     OW19012   9.685   8.610   9.631  0.0193  0.1262  0.5182
38537SOL    HW119013   9.733   8.547   9.685  0.8165  0.1017 -0.1985
38537SOL    HW219014   9.740   8.688   9.630 -1.0762  0.9489  1.5962
38538SOL     OW19015   6.100   7.275   2.405  0.3638  0.0933 -0.6128
38538SOL    HW119016   6.179   7.290   2.354  0.7425 -0.3231 -0.1530
38538SOL    HW219017   6.059   7.198   2.364  0.4730 -0.0149 -0.5184
38539SOL     OW19018   7.938   5.759   6.567  0.5579  0.0654 -0.1477
38539SOL    HW119019   7.955   5.800   6.482  0.8078 -0.7580 -0.5029
38539SOL    HW219020   8.021   5.717   6.590  0.5818  0.5320  0.6517
38540SOL     OW19021   9.541   0.868   6.746  0.1925 -0.4987  0.2448
38540SOL    HW119022   9.560   0.901   6.658  0.1008  2.0915  1.1091
38540SOL    HW219023   9.467   0.808   6.734 -1.4919  1.7285 -1.1779
38541SOL     OW19024   0.479  10.394   9.046  0.0596  0.1073 -0.3484
38541SOL    HW119025   0.540  10.463   9.072  1.1641 -0.7055 -0.7032
38541SOL    HW219026   0.421  10.436   8.983  1.5386  0.4384 -1.5700
38542SOL     OW19027   8.762   2.969   9.949 -0.0450  0.0494  0.2676
38542SOL    HW119028   8.780   2.887   9.903 -3.7231 -0.9692  0.2947
38542SOL    HW219029   8.762   3.035   9.880 -0.8518 -0.6739 -0.4521
38543SOL     OW19030   3.866   2.093   7.823 -0.7755 -0.4472 -0.3556
38543SOL    HW119031   3.960   2.112   7.815 -0.6643 -1.2619 -1.1170
38543SOL    HW219032   3.862   2.014   7.877 -0.9918 -0.6557 -0.6729
38544SOL     OW19033   7.197   4.314   2.166 -0.2364  0.5643 -0.7401
38544SOL    HW119034   7.153   4.260   2.231 -0.4162  0.2406 -1.1258
38544SOL    HW219035   7.192   4.263   2.085  0.5428  0.6741 -0.8648
38545SOL     OW19036   7.964  10.302  10.515  0.0538  0.1071 -0.2095
38545SOL    HW119037   7.933  10.390  10.538 -1.0807 -0.3619  0.1364
38545SOL    HW219038   8.020  10.277  10.589 -0.3042  0.2138  0.1045
38546SOL     OW19039   2.928   6.018   3.341  0.5006 -0.1327  0.0552
38546SOL    HW119040   2.887   6.073   3.409 -1.8172  1.0159 -2.1101
38546SOL    HW219041   2.856   5.964   3.308  2.1794 -2.6808  0.3190
38547SOL     OW19042   7.177   3.770   0.686 -0.1491 -0.4671 -0.7813
38547SOL    HW119043   7.248   3.713   0.715 -0.9317 -1.3786 -0.5859
38547SOL    HW219044   7.105   3.710   0.666 -1.1395  0.4742 -0.1741
38548SOL     OW19045   6.689   4.528   5.177 -0.5315  0.0378 -0.1487
38548SOL    HW119046   6.774   4.542   5.134 -0.4685 -0.7039 -0.2765
38548SOL    HW219047   6.631   4.498   5.106 -0.4852 -0.9771  0.2270
38549SOL     OW19048   1.778   3.040   3.163 -0.1248 -0.4283  0.1459
38549SOL    HW119049   1.835   3.110   3.197 -1.9641  2.3828 -2.1245
38549SOL    HW219050   1.690   3.064   3.193 -0.8374 -1.7401 -0.7999
38550SOL     OW19051   4.726   5.405   4.573  0.6758 -1.0017  0.0616
38550SOL    HW119052   4.680   5.369   4.496 -0.4244  4.3613 -2.2172
38550SOL    HW219053   4.817   5.411   4.545  0.6441 -0.8823 -0.0142
38551SOL     OW19054   5.013   6.474   9.215  0.2620  0.1522 -0.0496
38551SOL    HW119055   4.987   6.388   9.247  0.0807  0.0890 -0.3630
38551SOL    HW219056   5.049   6.519   9.291 -0.3930  0.0971  0.2914
38552SOL     OW19057   0.483   1.200   1.157  0.3595  0.0838 -0.2985
38552SOL    HW119058   0.523   1.279   1.122  1.2013 -0.9816 -1.8461
38552SOL    HW219059   0.555   1.137   1.161 -0.2461 -0.5479  1.1433
38553SOL     OW19060  10.706   2.915   8.748 -0.0831  0.4668  0.1273
38553SOL    HW119061  10.688   2.839   8.693  0.6161  0.6382 -0.3581
38553SOL    HW219062  10.624   2.964   8.750 -0.5946 -0.3779  0.5834
38554SOL     OW19063   8.507   7.274   5.226 -0.0414 -0.4116 -0.1538
38554SOL    HW119064   8.492   7.211   5.297  1.7571 -0.5190  0.1908
38554SOL    HW219065   8.527   7.356   5.270 -0.1210 -0.1710 -0.5589
38555SOL     OW19066   2.580   3.200   5.785  0.0786  0.0444 -0.5337
38555SOL    HW119067   2.516   3.218   5.716  0.7610  0.1389 -1.1581
38555SOL    HW219068   2.536   3.225   5.866 -1.0194 -0.7781 -0.8496
38556SOL     OW19069   3.429   1.861   0.889  0.3906 -0.0702 -0.3563
38556SOL    HW119070   3.482   1.789   0.923  0.6450  0.5579  0.6206
38556SOL    HW219071   3.493   1.919   0.847  0.4936  0.6541  0.7635
38557SOL     OW19072   6.109   7.728   0.217 -0.0664  0.0807 -0.5686
38557SOL    HW119073   6.091   7.757   0.307  0.2528  1.6590 -0.9752
38557SOL    HW219074   6.147   7.641   0.227 -0.3489  0.0858  0.7995
38558SOL     OW19075   3.757  10.591   5.720 -0.2506 -0.0203 -0.2113
38558SOL    HW119076   3.726  10.669   5.675  0.6576 -0.5339 -1.8202
38558SOL    HW219077   3.851  10.607   5.734  0.3364 -1.4378 -2.0774
38559SOL     OW19078   2.483   7.323   9.153 -0.6277  0.1380  0.3372
38559SOL    HW119079   2.395   7.340   9.187 -0.1345 -0.4212  1.9972
38559SOL    HW219080   2.527   7.408   9.157 -1.3057  0.5910 -1.2501
38560SOL     OW19081   4.035   7.497   7.331 -0.0963  0.1887  0.0698
38560SOL    HW119082   3.969   7.566   7.329 -0.8066 -0.4736  0.0154
38560SOL    HW219083   4.084   7.508   7.250 -0.8953 -0.0173 -0.4571
38561SOL     OW19084   1.232   6.858   4.237  0.1656 -0.3235 -0.0625
38561SOL    HW119085   1.246   6.785   4.296 -1.8152 -1.2115 -0.6256
38561SOL    HW219086   1.153   6.835   4.188  0.6760  1.2421 -1.7259
38562SOL     OW19087   9.653  10.652   8.138  0.0093 -0.4747 -0.0106
38562SOL    HW119088   9.689  10.741   8.135 -0.8223 -0.1225  0.0720
38562SOL    HW219089   9.702  10.603   8.073 -0.2275  0.3175 -0.7998
38563SOL     OW19090   2.092   7.313   3.557 -0.0534  0.2831 -0.2099
38563SOL    HW119091   2.029   7.243   3.577 -1.4666  2.3654  3.5886
38563SOL    HW219092   2.043   7.377   3.506  0.7921 -0.6164 -2.2852
38564SOL     OW19093   8.984   9.319   2.010  0.9257 -0.1176  0.2253
38564SOL    HW119094   8.933   9.242   2.036  0.7606  0.2382  0.9808
38564SOL    HW219095   8.931   9.361   1.943 -0.1023  0.5909  1.4338
38565SOL     OW19096   3.049   5.441   4.573 -0.3552  0.5245  0.2670
38565SOL    HW119097   3.125   5.400   4.533 -2.3132 -2.3899 -0.8214
38565SOL    HW219098   3.053   5.415   4.665 -0.4408 -0.3558  0.0304
38566SOL     OW19099   9.070   3.027  10.850  0.0977  0.1313  0.0741
38566SOL    HW119100   9.066   2.941  10.892 -0.1958  0.7248  1.3069
38566SOL    HW219101   8.994   3.074  10.883  0.0757  0.7646 -0.8372
38567SOL     OW19102   3.100   1.544   0.704  0.2376 -0.2781  0.6851
38567SOL    HW119103   3.017   1.588   0.720  0.0834  0.1148 -1.0178
38567SOL    HW219104   3.166   1.605   0.736  0.0191  1.2157 -1.4872
38568SOL     OW19105   8.389   4.569   3.870 -0.6429 -0.1667 -0.3598
38568SOL    HW119106   8.423   4.501   3.812 -0.0854 -0.9802  0.8719
38568SOL    HW219107   8.419   4.651   3.831 -0.1331 -0.6985 -1.1120
38569SOL     OW19108   1.879   1.669   2.548 -0.1337  0.7470  0.8368
38569SOL    HW119109   1.897   1.753   2.505 -1.1512  0.5219 -0.0810
38569SOL    HW219110   1.887   1.604   2.478  0.2213  0.1139  1.4454
38570SOL     OW19111   6.307   2.696   5.846  0.4082  0.3487  0.4874
38570SOL    HW119112   6.266   2.730   5.925  0.4762 -0.1434  0.7354
38570SOL    HW219113   6.239   2.642   5.805  0.7247 -0.2884  0.7839
38571SOL     OW19114  10.032   1.904   5.395  0.1396 -0.1247 -0.9429
38571SOL    HW119115  10.004   1.813   5.392  1.5301 -0.5893 -0.6389
38571SOL    HW219116   9.990   1.940   5.473 -0.2602 -0.5608 -0.9571
38572SOL     OW19117   3.610   2.558   6.763 -0.4998  0.4314 -0.1629
38572SOL    HW119118   3.670   2.628   6.790 -2.7099  2.5229 -0.2530
38572SOL    HW219119   3.592   2.510   6.844  1.4031 -0.3998 -0.1835
38573SOL     OW19120   8.083   3.631   3.882 -0.5169  0.1327  0.4175
38573SOL    HW119121   8.068   3.584   3.964  0.4247  0.4070  0.7480
38573SOL    HW219122   8.169   3.602   3.853 -0.6402  0.4061 -0.2364
38574SOL     OW19123   8.118   6.191   6.100 -0.5481  0.1823  0.6213
38574SOL    HW119124   8.138   6.271   6.052 -1.7674 -0.4983 -1.1098
38574SOL    HW219125   8.163   6.122   6.050  0.7208 -0.2321  2.2444
38575SOL     OW19126   7.159   5.972  10.871 -0.7120  0.9005 -0.4551
38575SOL    HW119127   7.246   5.969  10.911 -0.5158  0.3305 -0.9125
38575SOL    HW219128   7.160   5.902  10.806 -1.9096  0.0997  0.3441
38576SOL     OW19129   7.216   8.076   9.375 -0.3569 -0.2404  0.3713
38576SOL    HW119130   7.233   8.158   9.330  0.0906 -0.2042  0.5988
38576SOL    HW219131   7.121   8.064   9.370 -0.3845  0.1243  0.0551
38577SOL     OW19132   0.385   9.289   4.641  0.6174  0.2930  0.2165
38577SOL    HW119133   0.307   9.340   4.663  0.8579  0.2055  1.3529
38577SOL    HW219134   0.350   9.207   4.604  0.2011  0.6796 -0.2526
38578SOL     OW19135   1.707   0.318   0.738  0.5473 -0.0993  0.1727
38578SOL    HW119136   1.634   0.292   0.795  0.2929 -0.2026 -0.2031
38578SOL    HW219137   1.705   0.414   0.738  1.2192 -0.0692  1.2125
38579SOL     OW19138   0.999   1.532   8.058 -0.1468 -0.4866 -0.0788
38579SOL    HW119139   1.086   1.569   8.046 -0.4168  0.7670  1.3786
38579SOL    HW219140   0.950   1.561   7.981 -0.0079  1.2403  0.4294
38580SOL     OW19141   1.862   2.289   8.537 -0.0465  0.0405  0.2485
38580SOL    HW119142   1.935   2.349   8.553 -0.4218  0.8048 -0.7545
38580SOL    HW219143   1.854   2.287   8.442 -1.2666 -0.1033  0.3410
38581SOL     OW19144  10.781   6.093   2.131  0.2429  0.2438  0.0177
38581SOL    HW119145  10.698   6.085   2.084 -0.4140  1.9642  0.8267
38581SOL    HW219146  10.848   6.092   2.062 -0.5719  0.7242 -0.7996
38582SOL     OW19147   1.195   4.121  10.605 -0.6178  0.0988 -0.5449
38582SOL    HW119148   1.160   4.036  10.579 -0.2283  0.6254 -3.0986
38582SOL    HW219149   1.149   4.184  10.549  0.6308  1.3215 -0.2616
38583SOL     OW19150   9.720   5.433   5.519 -0.6565 -0.4709 -0.1225
38583SOL    HW119151   9.653   5.387   5.569 -3.0284  0.6349 -2.0755
38583SOL    HW219152   9.688   5.432   5.429  0.7356  2.2408 -0.7682
38584SOL     OW19153  10.640   7.526   0.768 -0.0860 -0.2247  0.2124
38584SOL    HW119154  10.672   7.560   0.851  0.6987 -2.4132  0.8621
38584SOL    HW219155  10.633   7.604   0.712  3.2137  0.8775  1.0684
38585SOL     OW19156   1.808   8.894   4.240 -0.2464  0.3435  0.0280
38585SOL    HW119157   1.821   8.947   4.162 -2.0351 -1.8782 -1.9266
38585SOL    HW219158   1.884   8.836   4.243 -0.9599 -0.7128 -1.1382
38586SOL     OW19159   7.983   2.365   1.162 -0.5713 -0.5432  0.2889
38586SOL    HW119160   7.945   2.347   1.076 -0.8754  1.3822 -0.0163
38586SOL    HW219161   7.938   2.444   1.192 -1.3050 -1.7921  2.7430
38587SOL     OW19162   2.664   5.636   2.896  0.2834  0.0083  0.3630
38587SOL    HW119163   2.624   5.723   2.898 -1.9455 -0.9677  0.2635
38587SOL    HW219164   2.647   5.599   2.983  3.6438  0.6071  1.4490
38588SOL     OW19165   5.045  10.092   7.859 -0.0704  0.4408 -0.0187
38588SOL    HW119166   4.970  10.044   7.824 -0.0069  0.8355 -0.7176
38588SOL    HW219167   5.017  10.121   7.946  0.0518 -1.2278  0.6220
38589SOL     OW19168   6.836   8.488   9.928 -0.5623 -0.4432  0.5821
38589SOL    HW119169   6.788   8.439   9.995  0.7901  0.1274  2.0521
38589SOL    HW219170   6.863   8.568   9.973  3.1032 -1.4251  0.4103
38590SOL     OW19171   1.366   6.312   6.798 -0.4146  0.2550  0.8873
38590SOL    HW119172   1.373   6.407   6.784  0.8584  0.4165  2.2742
38590SOL    HW219173   1.457   6.282   6.797 -0.5441 -0.4501  3.4045
38591SOL     OW19174   4.230   8.646   5.107  0.3603 -0.0753  0.2495
38591SOL    HW119175   4.173   8.571   5.092  1.9782 -1.3085 -0.0913
38591SOL    HW219176   4.316   8.617   5.077  0.8498  2.3215 -0.9654
38592SOL     OW19177   8.416   5.996   9.287 -0.1696 -0.1588 -0.6949
38592SOL    HW119178   8.359   6.016   9.360  1.1805 -1.4690  0.7905
38592SOL    HW219179   8.403   5.902   9.271 -0.0032 -0.0172 -1.7492
38593SOL     OW19180   8.068   6.794   6.970 -0.1251 -0.5604  0.1699
38593SOL    HW119181   8.080   6.825   6.880  1.6564 -1.4804  0.0498
38593SOL    HW219182   8.080   6.699   6.964 -0.4416 -0.6837  1.3247
38594SOL     OW19183   2.158   9.383   8.352 -0.3831 -0.0588 -0.0792
38594SOL    HW119184   2.242   9.428   8.344 -0.4307 -0.0869 -0.7467
38594SOL    HW219185   2.146   9.373   8.447 -0.1744  0.9494  0.0664
38595SOL     OW19186   4.644   7.179   0.119 -0.4697  0.4515  0.4675
38595SOL    HW119187   4.651   7.158   0.212 -1.1670 -1.9476  0.0445
38595SOL    HW219188   4.551   7.165   0.098  0.0672 -1.2035 -1.0146
38596SOL     OW19189   4.417   6.122   2.804  0.1328 -0.1446 -0.2465
38596SOL    HW119190   4.324   6.121   2.825  0.2073  1.3994  0.2784
38596SOL    HW219191   4.424   6.077   2.720 -1.0772 -0.3106 -0.2639
38597SOL     OW19192   8.901   6.535   4.506 -0.8953  0.1257  0.0775
38597SOL    HW119193   8.840   6.535   4.579 -0.0475 -0.5188  0.8046
38597SOL    HW219194   8.987   6.539   4.547 -0.3664 -1.2449 -0.8453
38598SOL     OW19195   9.830   1.758   7.908  0.0387  0.3039  0.1348
38598SOL    HW119196   9.775   1.749   7.986 -0.7042 -2.7072 -0.6254
38598SOL    HW219197   9.913   1.718   7.932  0.0625  0.0403 -0.3834
38599SOL     OW19198   9.587   0.514   3.995 -0.1165 -0.2102 -0.1329
38599SOL    HW119199   9.511   0.460   4.016 -0.2557 -0.6015 -1.5151
38599SOL    HW219200   9.655   0.452   3.968 -0.2051  0.2408 -1.5174
38600SOL     OW19201   7.269   6.040   4.194 -0.2821 -0.5673  0.4795
38600SOL    HW119202   7.329   5.980   4.149 -1.4096 -1.0091 -0.4802
38600SOL    HW219203   7.294   6.034   4.286  0.6958 -1.2560  0.1926
38601SOL     OW19204   0.183   1.511   4.110 -0.2470  0.2051 -0.2857
38601SOL    HW119205   0.181   1.528   4.016  1.6235  0.1538 -0.3651
38601SOL    HW219206   0.242   1.436   4.120 -0.1842  0.3964  0.9493
38602SOL     OW19207   3.416   2.865   3.281 -0.0824 -0.5201  0.5344
38602SOL    HW119208   3.362   2.919   3.224  0.5927 -0.9745 -0.5885
38602SOL    HW219209   3.420   2.913   3.364 -0.2889  0.6634 -0.1161
38603SOL     OW19210   9.063  10.136   1.068 -0.4744 -0.2015  0.4395
38603SOL    HW119211   9.052  10.047   1.034 -2.6686  0.3508 -0.4210
38603SOL    HW219212   9.053  10.126   1.163  0.5700 -1.0233  0.4886
38604SOL     OW19213   1.598   7.624   0.308  0.0158  0.2401 -0.0164
38604SOL    HW119214   1.562   7.682   0.375  2.1994  0.6133  0.9250
38604SOL    HW219215   1.674   7.583   0.350  0.4564 -0.8022 -1.7288
38605SOL     OW19216   2.941   4.957   2.742  0.6445 -0.1772 -0.2579
38605SOL    HW119217   2.913   4.985   2.655 -0.0445 -1.3953 -0.4461
38605SOL    HW219218   2.933   5.036   2.796 -0.6223  0.1627 -0.9098
38606SOL     OW19219   6.438   4.674   0.852  0.0632  0.0483  0.7945
38606SOL    HW119220   6.344   4.686   0.841 -0.0466 -0.5403  1.0186
38606SOL    HW219221   6.478   4.751   0.812 -0.4770 -0.1297 -0.0917
38607SOL     OW19222   7.781   3.377   0.134  0.1523 -0.1877  0.2747
38607SOL    HW119223   7.761   3.306   0.195 -1.2175  0.5249  0.7012
38607SOL    HW219224   7.782   3.456   0.189 -0.3920  0.3737 -0.5106
38608SOL     OW19225   0.296   7.501   8.405  0.1903  0.8742 -0.2231
38608SOL    HW119226   0.381   7.458   8.391  0.1467  1.0532 -1.1278
38608SOL    HW219227   0.318   7.582   8.451  0.2455 -0.1930  1.7104
38609SOL     OW19228   4.200  10.416   9.497 -0.3911  0.2297  0.7162
38609SOL    HW119229   4.175  10.448   9.584  1.3706  1.2028  0.9092
38609SOL    HW219230   4.267  10.350   9.514 -1.0210 -0.5832  0.1250
38610SOL     OW19231   6.281   7.983   1.765  0.1801 -0.4659 -0.1755
38610SOL    HW119232   6.252   8.058   1.712 -0.6883 -0.1163  0.7526
38610SOL    HW219233   6.224   7.911   1.738 -0.8530 -0.0702  0.8355
38611SOL     OW19234   9.716   1.988   4.821 -0.0487  0.0244 -0.1602
38611SOL    HW119235   9.728   1.895   4.838 -0.7231  0.3155  2.3063
38611SOL    HW219236   9.621   1.999   4.815  0.0650  0.4036 -1.6223
38612SOL     OW19237  10.588   0.980   4.495  0.0255 -0.5478 -0.4609
38612SOL    HW119238  10.612   1.024   4.413 -0.7230 -0.2591 -0.5390
38612SOL    HW219239  10.667   0.934   4.522 -0.1788 -2.0472 -2.2437
38613SOL     OW19240   7.098   3.242   1.419 -0.1451  0.1864 -0.1858
38613SOL    HW119241   7.182   3.285   1.406  0.9891 -1.2676  1.8557
38613SOL    HW219242   7.054   3.294   1.486  1.2427 -1.6333  2.3119
38614SOL     OW19243   7.525   6.227   4.597  0.1463  0.8827 -0.1246
38614SOL    HW119244   7.474   6.235   4.517  0.4229 -4.1245 -1.1171
38614SOL    HW219245   7.464   6.189   4.661  0.7679  1.7801  1.0442
38615SOL     OW19246   7.751   4.866   7.218  0.3527  0.0994  0.4625
38615SOL    HW119247   7.796   4.871   7.302  2.3897 -0.2254 -0.5620
38615SOL    HW219248   7.676   4.809   7.234  0.8091 -0.0998  1.9971
38616SOL     OW19249   1.925  10.880   2.172 -0.1275  0.5060 -0.5970
38616SOL    HW119250   1.866  10.950   2.201 -0.2128  0.4533 -0.6437
38616SOL    HW219251   1.932  10.822   2.248  0.9263  1.2111 -0.1234
38617SOL     OW19252   6.199   1.368  10.070  0.2186  0.1497 -0.2778
38617SOL    HW119253   6.170   1.392   9.982  0.3897  1.8236  0.0906
38617SOL    HW219254   6.118   1.363  10.121  0.3242  4.0266  0.5600
38618SOL     OW19255   5.668   5.926   1.405  0.4849 -0.8374  0.1673
38618SOL    HW119256   5.604   5.994   1.384  1.3176 -0.3825 -1.0224
38618SOL    HW219257   5.616   5.847   1.421 -0.3622 -0.6326 -1.4056
38619SOL     OW19258   2.465  10.681   4.584  0.1169 -0.5732 -0.2440
38619SOL    HW119259   2.427  10.603   4.623 -2.7099  0.0103 -1.5588
38619SOL    HW219260   2.507  10.727   4.657 -1.9808 -1.1919  1.4755
38620SOL     OW19261   0.068   6.722   2.047  0.4531  0.1598 -0.4771
38620SOL    HW119262   0.011   6.747   1.973  0.2181  0.0259 -0.3410
38620SOL    HW219263   0.139   6.787   2.045  2.0644 -1.5222 -2.6348
38621SOL     OW19264   6.565   6.602   0.861 -0.4214  0.6270 -0.3098
38621SOL    HW119265   6.570   6.669   0.930 -1.0504  0.1149  0.2485
38621SOL    HW219266   6.475   6.569   0.867  0.4143 -1.6316  0.7392
38622SOL     OW19267  10.282   0.332   2.827  0.1735  0.0299 -0.0738
38622SOL    HW119268  10.307   0.344   2.736 -1.9877 -1.4756 -0.9205
38622SOL    HW219269  10.327   0.252   2.854 -1.4908 -1.2027 -0.7923
38623SOL     OW19270   8.273   0.628   3.183  0.2949  0.1438 -0.1309
38623SOL    HW119271   8.342   0.593   3.127  0.2277  0.7457 -0.5982
38623SOL    HW219272   8.278   0.723   3.171 -1.2479  0.1543 -0.9634
38624SOL     OW19273   8.237   0.068   6.247 -0.6009  0.4929  0.5014
38624SOL    HW119274   8.307   0.085   6.310  0.0817  0.3087 -0.1835
38624SOL    HW219275   8.283   0.059   6.163 -1.4608  0.4723  0.0239
38625SOL     OW19276  10.253   6.493   1.368  0.5790  0.3004 -0.1583
38625SOL    HW119277  10.266   6.476   1.275 -1.1371  1.8326 -0.7502
38625SOL    HW219278  10.177   6.440   1.391  1.2733 -0.4255  0.5106
38626SOL     OW19279   3.308   8.147   5.970 -0.0599  0.2359  0.5254
38626SOL    HW119280   3.375   8.079   5.968  0.7212  0.9204  2.0502
38626SOL    HW219281   3.295   8.166   6.063 -3.1340 -0.5890  0.3859
38627SOL     OW19282   8.853   5.935   4.569  0.3523 -0.2544  0.2650
38627SOL    HW119283   8.864   6.026   4.545  0.5698  0.0098  1.2893
38627SOL    HW219284   8.819   5.938   4.659 -0.7435 -1.1647 -0.0911
38628SOL     OW19285   8.290   5.514   1.967 -0.6368 -0.0341  0.5975
38628SOL    HW119286   8.257   5.434   2.008  2.1265 -1.5147  0.1555
38628SOL    HW219287   8.211   5.560   1.938 -2.3183 -3.0942 -0.0701
38629SOL     OW19288   3.652   9.511   7.611  0.0521 -0.5146 -0.2357
38629SOL    HW119289   3.724   9.567   7.640 -1.0366 -0.0944  1.8034
38629SOL    HW219290   3.586   9.572   7.578 -0.9046 -0.5656  1.4725
38630SOL     OW19291   8.970   9.061   6.319  0.1147 -0.1967 -0.1900
38630SOL    HW119292   8.966   9.016   6.404  0.0780  0.6348  0.2565
38630SOL    HW219293   8.887   9.038   6.276 -0.4236  0.3861  0.5209
38631SOL     OW19294   0.618   7.010   1.476  0.4798  0.2916  0.1937
38631SOL    HW119295   0.578   6.926   1.454  0.0065  0.6370 -0.3010
38631SOL    HW219296   0.571   7.040   1.554 -0.7210  1.0116 -0.7753
38632SOL     OW19297   4.899  10.273   1.078  0.2031 -0.1389  0.6836
38632SOL    HW119298   4.961  10.338   1.112  0.1818  0.6512 -0.6869
38632SOL    HW219299   4.836  10.325   1.027  0.9198 -1.2851 -1.5313
38633SOL     OW19300   5.360  10.862   4.665 -0.0777 -0.4367 -0.3277
38633SOL    HW119301   5.297  10.890   4.597 -0.6050  0.7885  0.6356
38633SOL    HW219302   5.396  10.780   4.631 -2.8624 -1.6932 -0.5311
38634SOL     OW19303   8.414   4.356   2.671  0.1678  0.1045  0.4439
38634SOL    HW119304   8.487   4.329   2.728 -0.1913 -2.5768 -0.2386
38634SOL    HW219305   8.364   4.276   2.657  0.2409  0.5538 -3.6667
38635SOL     OW19306  10.373   1.832   1.456 -0.1398 -0.1719 -0.1592
38635SOL    HW119307  10.455   1.785   1.470 -0.4137 -0.0363  2.3648
38635SOL    HW219308  10.305   1.764   1.460 -0.2842 -0.0579 -0.5645
38636SOL     OW19309   9.624   5.700   3.410 -0.6032 -0.5481 -0.8124
38636SOL    HW119310   9.532   5.689   3.385 -1.7818 -1.1531  3.1169
38636SOL    HW219311   9.636   5.795   3.416 -1.2691 -0.4878 -0.3633
38637SOL     OW19312   6.859   1.008   4.982  0.1430  0.3488  0.3665
38637SOL    HW119313   6.920   1.080   4.965  1.5042 -0.8855 -0.0687
38637SOL    HW219314   6.861   0.998   5.078 -1.3880  1.9717  0.6399
38638SOL     OW19315  10.395   1.757   2.661 -0.3427 -0.7500  0.0435
38638SOL    HW119316  10.472   1.744   2.606  0.0970  0.2902  0.3873
38638SOL    HW219317  10.321   1.749   2.602  0.1010 -0.2365 -0.5961
38639SOL     OW19318   8.611   2.151   1.482  0.1903 -0.3950  0.3099
38639SOL    HW119319   8.624   2.129   1.575  0.7815 -1.6035 -0.0354
38639SOL    HW219320   8.646   2.239   1.474 -1.1892  0.3139  1.5286
38640SOL     OW19321   7.815   6.417   3.163  0.3470 -0.0474  0.3919
38640SOL    HW119322   7.839   6.503   3.128  2.9987 -0.2669  1.4753
38640SOL    HW219323   7.828   6.357   3.089  2.9222 -0.0707  0.7584
38641SOL     OW19324   9.683   8.517   1.244  0.2251  0.3839 -0.3370
38641SOL    HW119325   9.624   8.588   1.270 -1.0464 -0.8974  0.4232
38641SOL    HW219326   9.625   8.443   1.227  1.5901 -0.7868 -0.0735
38642SOL     OW19327   1.378   4.532   9.581  0.1455 -0.3152  0.0321
38642SOL    HW119328   1.443   4.472   9.545 -0.7820 -1.2847 -0.0739
38642SOL    HW219329   1.320   4.551   9.507 -0.7975 -0.9868  0.5822
38643SOL     OW19330   8.522   0.539   0.012  0.5286  0.1261  0.8457
38643SOL    HW119331   8.544   0.630  -0.005  1.4261  0.4309  3.2249
38643SOL    HW219332   8.481   0.540   0.098 -0.9484 -1.5513  0.2221
38644SOL     OW19333   1.367   5.388   3.024  0.0532 -0.0873  0.3113
38644SOL    HW119334   1.323   5.306   3.000  0.9805 -0.5189  0.0104
38644SOL    HW219335   1.342   5.403   3.115 -1.5359  0.2495 -0.1433
38645SOL     OW19336   0.694   5.922   0.500 -0.2137  0.4312  0.4257
38645SOL    HW119337   0.700   5.849   0.562  2.5411 -0.1535 -0.4028
38645SOL    HW219338   0.719   5.999   0.551 -0.7339  0.4266  0.6987
38646SOL     OW19339   4.435   0.968   6.996  0.2523 -0.4739 -0.3138
38646SOL    HW119340   4.396   1.034   7.054  1.2758  0.2130 -0.3751
38646SOL    HW219341   4.449   0.892   7.052  0.5632 -0.0646  0.1746
38647SOL     OW19342   9.284   9.276   1.539 -1.0867 -0.1332 -0.2476
38647SOL    HW119343   9.347   9.347   1.526  0.2619 -1.2718 -0.1259
38647SOL    HW219344   9.255   9.253   1.450 -0.3330 -0.4563 -0.4216
38648SOL     OW19345   4.569   9.906   2.316 -0.7413 -0.2697  0.1166
38648SOL    HW119346   4.553   9.818   2.349  2.0592 -1.0315 -0.3546
38648SOL    HW219347   4.607   9.953   2.391 -0.6303  0.0290 -0.1234
38649SOL     OW19348   1.469   7.100   9.307 -0.0792  0.3193 -0.2282
38649SOL    HW119349   1.424   7.063   9.383 -1.0584  2.1012  0.1173
38649SOL    HW219350   1.561   7.105   9.335 -0.2667  0.0336  0.4731
38650SOL     OW19351   9.508   6.428   6.181  0.6257  0.0305 -0.4794
38650SOL    HW119352   9.516   6.405   6.088 -0.6817  1.6082 -1.0331
38650SOL    HW219353   9.581   6.382   6.223  1.2720 -0.7024 -2.2732
38651SOL     OW19354   2.330   4.791   8.848 -0.3609 -0.4029  0.2396
38651SOL    HW119355   2.287   4.714   8.811  2.4630 -1.2558 -1.6053
38651SOL    HW219356   2.398   4.755   8.906  1.6272  0.5246 -1.3724
38652SOL     OW19357   0.499   5.632  10.732 -0.2197  1.1043  0.0049
38652SOL    HW119358   0.591   5.657  10.724 -0.1262  1.2935  1.3398
38652SOL    HW219359   0.493   5.595  10.821 -1.5167  1.5257  0.1035
38653SOL     OW19360   0.960   4.484   8.668 -0.2902 -0.2984  0.7508
38653SOL    HW119361   0.914   4.432   8.734  0.0888  0.7156  1.8602
38653SOL    HW219362   0.958   4.573   8.703  1.5048 -0.0325  0.2835
38654SOL     OW19363   4.387   2.206   2.300 -0.0048 -0.1472 -0.5168
38654SOL    HW119364   4.312   2.167   2.346  0.8112 -1.9072 -0.5723
38654SOL    HW219365   4.441   2.244   2.369 -0.8790  1.0662 -0.4678
38655SOL     OW19366   0.200   6.992   7.156  0.3615 -0.6871  0.0591
38655SOL    HW119367   0.230   7.060   7.095 -0.0850 -0.9245 -0.4367
38655SOL    HW219368   0.112   7.021   7.183  0.8378 -0.2141  1.1617
38656SOL     OW19369   0.416   9.483   7.186  0.3845  0.1542  0.0493
38656SOL    HW119370   0.454   9.437   7.262  0.4896  1.3974  0.7754
38656SOL    HW219371   0.324   9.494   7.209  0.7206  1.9230  0.7603
38657SOL     OW19372  10.760   6.271   3.137  0.6125  0.0997  0.3986
38657SOL    HW119373  10.791   6.335   3.073  1.3110 -0.1168  0.5153
38657SOL    HW219374  10.668   6.294   3.151  0.6603  0.6222 -0.1064
38658SOL     OW19375   3.273   5.125   8.385 -0.4859  0.6072 -0.0077
38658SOL    HW119376   3.323   5.203   8.409  1.3113 -0.6644  0.5687
38658SOL    HW219377   3.282   5.119   8.290 -1.1032  1.3933 -0.1231
38659SOL     OW19378   9.907   3.093   7.477  0.1623 -0.4212 -0.1520
38659SOL    HW119379   9.841   3.145   7.432  0.7535 -0.1818 -0.7532
38659SOL    HW219380   9.953   3.045   7.407  0.7553 -0.4357  0.2336
38660SOL     OW19381   8.269   3.456   9.978  0.1397 -0.1960  0.3192
38660SOL    HW119382   8.190   3.404   9.966  0.0194  0.1245 -0.2909
38660SOL    HW219383   8.338   3.391   9.995  0.2041 -0.6585 -1.4877
38661SOL     OW19384   0.173  10.901   7.034 -0.1177  0.1001 -0.1825
38661SOL    HW119385   0.208  10.861   7.114  2.4766  0.3725 -1.0715
38661SOL    HW219386   0.250  10.939   6.991 -1.9883  3.3806 -0.9259
38662SOL     OW19387   5.455   7.287   3.217 -0.1288  0.2373  0.2134
38662SOL    HW119388   5.495   7.359   3.167 -2.9350  1.4063 -0.5147
38662SOL    HW219389   5.410   7.234   3.151  1.9460 -2.3563  0.7314
38663SOL     OW19390   8.337  10.894   3.943  0.2072 -0.0136  0.5088
38663SOL    HW119391   8.408  10.872   3.883  0.4871 -0.1157  0.8711
38663SOL    HW219392   8.338  10.989   3.948  0.3568 -0.0168  0.5546
38664SOL     OW19393   9.244   3.597   0.666 -0.6054 -0.0341 -0.0664
38664SOL    HW119394   9.333   3.563   0.668 -0.1700  1.0901  1.0673
38664SOL    HW219395   9.209   3.568   0.582  1.2609  0.5359 -1.1054
38665SOL     OW19396   8.927   4.988   4.407 -0.2722  0.0407  0.1829
38665SOL    HW119397   8.854   4.945   4.362  0.0244 -0.7268  0.4246
38665SOL    HW219398   8.960   4.922   4.467 -0.5470  0.9868  1.4138
38666SOL     OW19399   1.270   4.919   7.845  0.6203  0.5332 -0.2051
38666SOL    HW119400   1.190   4.881   7.810  0.9865 -0.2093 -0.2644
38666SOL    HW219401   1.329   4.844   7.857  0.7019  0.8292  1.4854
38667SOL     OW19402   9.269   1.732   0.869 -0.1077  0.2920  0.0470
38667SOL    HW119403   9.176   1.747   0.884 -0.3956 -0.4574 -0.8898
38667SOL    HW219404   9.275   1.710   0.776  1.0197  0.4371  0.0756
38668SOL     OW19405   3.897   2.973  10.764 -0.4433 -0.1538 -0.3983
38668SOL    HW119406   3.903   2.955  10.858  0.8049  0.0900 -0.4265
38668SOL    HW219407   3.831   2.911  10.732 -0.9014 -0.2179  0.6342
38669SOL     OW19408   6.231   4.084   9.230  0.2731 -0.2282  0.1285
38669SOL    HW119409   6.176   4.062   9.305 -0.7024  1.7778  0.0693
38669SOL    HW219410   6.311   4.032   9.242 -1.3819 -2.8290  0.4821
38670SOL     OW19411   8.528   2.529   3.864  0.2528  0.1815 -0.1570
38670SOL    HW119412   8.501   2.526   3.773  0.8832  1.7153 -0.4278
38670SOL    HW219413   8.471   2.466   3.908 -0.2008 -0.4334 -1.5593
38671SOL     OW19414   6.297   5.280  10.377 -0.0254 -0.0433 -0.2842
38671SOL    HW119415   6.236   5.353  10.385 -0.4967 -0.4666  0.0574
38671SOL    HW219416   6.278   5.243  10.291 -0.8802 -0.7167  0.1749
38672SOL     OW19417   2.026   8.739   7.455  0.2779  0.0583  0.3410
38672SOL    HW119418   2.039   8.657   7.502 -2.1094 -0.9895 -0.6128
38672SOL    HW219419   1.938   8.767   7.480 -0.1397  0.6837 -1.6501
38673SOL     OW19420   4.337   8.053   1.568  0.1375 -0.0325  0.1294
38673SOL    HW119421   4.250   8.018   1.587 -0.8925  1.9757 -0.6409
38673SOL    HW219422   4.323   8.145   1.547  2.3192  0.1148 -1.0787
38674SOL     OW19423   4.351   2.035   5.573  0.3473 -0.4580  0.0984
38674SOL    HW119424   4.301   2.114   5.549 -0.9608 -1.1103  0.5932
38674SOL    HW219425   4.411   2.065   5.641 -1.7994 -0.3220  2.0586
38675SOL     OW19426   2.979   5.311  10.719  0.1499 -0.1481 -0.1684
38675SOL    HW119427   2.972   5.217  10.705  0.0684  0.0373 -1.5010
38675SOL    HW219428   3.047   5.320  10.786  0.2164 -1.1339 -0.0847
38676SOL     OW19429   6.268   4.290   5.022  0.1758  0.1098  0.6631
38676SOL    HW119430   6.198   4.277   4.957  0.0608 -0.3878  0.8833
38676SOL    HW219431   6.228   4.270   5.106  0.3308  0.7419  0.8933
38677SOL     OW19432   1.510   6.656   4.597  0.0077  0.1463 -0.0775
38677SOL    HW119433   1.592   6.695   4.628 -0.1428  1.0560 -0.8009
38677SOL    HW219434   1.442   6.700   4.648 -0.2252  1.4834 -1.4712
38678SOL     OW19435   6.157   2.182  10.465 -0.4773  0.3042  0.0926
38678SOL    HW119436   6.136   2.139  10.382  0.4209  1.8375 -0.9945
38678SOL    HW219437   6.244   2.220  10.450 -1.0645  2.1837  1.0620
38679SOL     OW19438   2.247   8.130   3.961  0.5535 -0.0717 -0.1209
38679SOL    HW119439   2.306   8.068   3.919 -0.6893 -0.5121 -1.2738
38679SOL    HW219440   2.230   8.093   4.047  2.0614  0.1505  0.2989
38680SOL     OW19441   2.214   1.111   2.802  0.2041  0.2872 -0.0029
38680SOL    HW119442   2.210   1.203   2.773  0.8375  0.2132 -0.3513
38680SOL    HW219443   2.125   1.078   2.789  0.2202  0.5618 -0.8784
38681SOL     OW19444   7.157  10.843  10.661 -0.1377  0.1931  0.1329
38681SOL    HW119445   7.217  10.885  10.723 -2.0268  1.7236  1.0783
38681SOL    HW219446   7.183  10.876  10.575  0.8501  0.2001  0.4320
38682SOL     OW19447   5.803  10.854   6.559  0.3161  0.7240  0.0896
38682SOL    HW119448   5.765  10.799   6.627  0.6344  0.6144  0.1809
38682SOL    HW219449   5.786  10.943   6.587 -2.7249  0.7355 -1.4402
38683SOL     OW19450   6.964   1.629   9.900  0.5090 -0.2225  0.4610
38683SOL    HW119451   7.029   1.579   9.852 -1.1454 -2.3567  0.3031
38683SOL    HW219452   6.956   1.711   9.851  1.0741 -1.0601 -1.1093
38684SOL     OW19453   2.022   5.014   9.595  0.4164  0.5263 -0.2679
38684SOL    HW119454   1.946   4.979   9.641  1.4225 -1.6447 -0.1537
38684SOL    HW219455   2.038   4.953   9.524  0.7616  2.1530 -1.6569
38685SOL     OW19456   0.948   2.195   2.091 -0.3961 -0.0200  0.0779
38685SOL    HW119457   0.922   2.287   2.098 -0.7567  0.0745 -1.8134
38685SOL    HW219458   0.867   2.148   2.075 -0.0259 -0.4299 -0.6689
38686SOL     OW19459   1.112   9.487   3.992  0.0789 -0.1036 -0.7073
38686SOL    HW119460   1.190   9.494   4.048  0.7486 -2.6944 -1.2092
38686SOL    HW219461   1.049   9.546   4.033  1.3794 -0.0266  1.3499
38687SOL     OW19462   6.622   0.544   6.812 -0.0279  0.0761  0.6355
38687SOL    HW119463   6.584   0.463   6.845  0.2532  0.2326  1.3545
38687SOL    HW219464   6.711   0.546   6.849 -0.0488  0.7335  0.6629
38688SOL     OW19465   4.451   4.717   2.884 -0.3254  0.0632 -0.1871
38688SOL    HW119466   4.450   4.811   2.901 -0.7165 -0.2088  1.4707
38688SOL    HW219467   4.362   4.688   2.905 -0.6754 -0.4584 -2.2048
38689SOL     OW19468   9.882   3.174   7.900  0.1826  0.5723  0.7198
38689SOL    HW119469   9.806   3.159   7.957 -0.2248 -1.7217 -0.3024
38689SOL    HW219470   9.958   3.162   7.957 -0.2136  0.2606  1.1887
38690SOL     OW19471   9.037   5.702   0.636  0.2126 -0.2141  0.0822
38690SOL    HW119472   9.117   5.709   0.688  0.8164 -1.4094 -0.6367
38690SOL    HW219473   8.974   5.758   0.681  0.9343 -0.5995  1.6469
38691SOL     OW19474   1.768   9.012   9.349 -0.2884 -0.6082 -0.3002
38691SOL    HW119475   1.718   9.090   9.326 -2.6840 -1.9623  0.0299
38691SOL    HW219476   1.771   8.960   9.269  1.2917 -0.2472 -0.5197
38692SOL     OW19477   7.814   9.458   7.162  0.0848 -0.0800  0.2014
38692SOL    HW119478   7.731   9.414   7.180 -0.5912  1.2929  0.5058
38692SOL    HW219479   7.846   9.415   7.083 -1.0076 -0.4922 -0.0373
38693SOL     OW19480   0.193   4.578   8.125 -0.6245 -0.4246  0.0278
38693SOL    HW119481   0.200   4.484   8.141  1.8672 -0.4122 -0.5489
38693SOL    HW219482   0.192   4.617   8.212  0.5671 -0.9148  0.2829
38694SOL     OW19483   1.317   9.763   3.861  0.2729  0.1518  0.4144
38694SOL    HW119484   1.395   9.769   3.806  0.0219  0.5599  0.1018
38694SOL    HW219485   1.299   9.852   3.889  0.0489  0.0286  0.6712
38695SOL     OW19486   6.305   3.893   2.247  0.9556  0.1563 -0.2113
38695SOL    HW119487   6.355   3.967   2.212  0.2796  1.5831  1.6270
38695SOL    HW219488   6.370   3.838   2.290  1.1118  2.0479  2.2477
38696SOL     OW19489   1.392  10.611   0.669 -0.1600  0.2703 -0.1937
38696SOL    HW119490   1.327  10.662   0.620  1.0790  0.9131 -1.2466
38696SOL    HW219491   1.408  10.663   0.748 -1.5820 -0.3675  0.5470
38697SOL     OW19492   7.344   8.793   9.988 -0.1757  0.2409 -0.4886
38697SOL    HW119493   7.368   8.786   9.895  1.1556  1.5710 -0.2940
38697SOL    HW219494   7.426   8.778  10.035 -0.9416 -0.9601  0.5246
38698SOL     OW19495   2.686   8.149   5.646  0.3884 -0.3523 -0.2445
38698SOL    HW119496   2.628   8.226   5.647  1.0416  0.1660  1.5319
38698SOL    HW219497   2.760   8.176   5.593  1.7625  1.2211  2.2915
38699SOL     OW19498   9.369  10.007   1.856  0.2659  0.5362 -0.5475
38699SOL    HW119499   9.421  10.032   1.933  1.1266  0.4865 -1.0929
38699SOL    HW219500   9.395  10.070   1.789  2.3501 -1.6049 -1.9077
38700SOL     OW19501   7.826  10.337   1.706  0.0222 -0.0248 -0.4428
38700SOL    HW119502   7.749  10.387   1.732  1.4534  1.4946  1.1615
38700SOL    HW219503   7.840  10.276   1.779  0.8554  0.3423 -0.2908
38701SOL     OW19504   4.117   5.428   9.377 -0.5884 -0.0103 -0.0546
38701SOL    HW119505   4.189   5.470   9.423 -0.1020  0.0303 -0.8242
38701SOL    HW219506   4.041   5.484   9.394 -0.1182  0.7545 -0.4230
38702SOL     OW19507   0.527   2.749   6.533 -0.1714  0.0446 -0.4479
38702SOL    HW119508   0.457   2.789   6.482  1.0340  1.3143 -1.1873
38702SOL    HW219509   0.523   2.655   6.511 -1.6381  0.0913 -0.4342
38703SOL     OW19510   1.604   4.293   6.874 -0.3510 -0.7682  0.3258
38703SOL    HW119511   1.516   4.326   6.893 -0.5552 -0.5528 -0.9480
38703SOL    HW219512   1.632   4.341   6.797  0.9679 -0.7197  0.8098
38704SOL     OW19513   7.020   2.150   1.452  0.5246 -0.1802  0.0576
38704SOL    HW119514   7.065   2.066   1.448  1.3345  0.2508  0.0439
38704SOL    HW219515   7.082   2.209   1.493  0.2742  0.6157 -0.6739
38705SOL     OW19516   9.370   7.169   4.168  0.2167 -1.0368 -0.1476
38705SOL    HW119517   9.446   7.128   4.127  1.5842 -0.8628  2.0178
38705SOL    HW219518   9.317   7.096   4.200  0.6472 -1.1688  0.2862
38706SOL     OW19519   2.980   3.364   8.046  0.4035 -0.0088  0.7273
38706SOL    HW119520   3.014   3.275   8.059  1.2679  0.3367  0.9529
38706SOL    HW219521   3.057   3.420   8.056 -0.0737  0.7428  0.2495
38707SOL     OW19522   7.203   7.100   2.907 -0.2701 -0.1760 -0.2101
38707SOL    HW119523   7.155   7.182   2.919  1.3935  0.6302  1.8454
38707SOL    HW219524   7.154   7.035   2.957  0.3914  0.5200  1.4317
38708SOL     OW19525   7.127   9.921   9.354 -0.1793 -0.5110  0.5362
38708SOL    HW119526   7.158   9.925   9.445  2.2262 -1.9017 -0.1446
38708SOL    HW219527   7.170   9.845   9.317 -1.3855 -0.1890 -1.7205
38709SOL     OW19528   2.285   6.309  10.436 -0.1967  0.0258 -0.4251
38709SOL    HW119529   2.374   6.275  10.429 -0.5690 -0.6655 -2.5782
38709SOL    HW219530   2.275   6.365  10.359 -1.4906  0.4836  0.0443
38710SOL     OW19531   4.105   3.011   6.997 -0.4052 -0.1278 -0.3495
38710SOL    HW119532   4.197   2.983   6.994 -0.5585 -1.1624  2.3429
38710SOL    HW219533   4.110   3.106   6.992  0.9767 -0.0585  1.3657
38711SOL     OW19534   0.661   6.547   4.330  0.4624 -0.0573  0.5062
38711SOL    HW119535   0.699   6.579   4.412 -1.0322 -1.8141  1.9927
38711SOL    HW219536   0.615   6.466   4.355 -3.0315  1.1404 -1.3767
38712SOL     OW19537   1.229   4.253   9.425  0.1692  0.5032  0.5841
38712SOL    HW119538   1.191   4.341   9.425  1.8153  1.2820 -0.9313
38712SOL    HW219539   1.323   4.267   9.438  0.3065 -1.1495  1.6654
38713SOL     OW19540   1.805   5.344   7.710 -0.1905  0.0773  0.0157
38713SOL    HW119541   1.729   5.286   7.704  0.3282 -0.6495  0.2587
38713SOL    HW219542   1.769   5.428   7.737 -1.0466  0.0884 -1.0967
38714SOL     OW19543   4.476   7.223   6.877 -0.3570 -0.2624 -0.0672
38714SOL    HW119544   4.502   7.164   6.806 -0.0026  0.6077 -0.6798
38714SOL    HW219545   4.484   7.310   6.839  3.7918  0.5976  2.1608
38715SOL     OW19546   2.895   8.477   1.329 -0.4557 -0.2203 -0.6660
38715SOL    HW119547   2.917   8.407   1.268  0.1156 -2.1060  1.5720
38715SOL    HW219548   2.824   8.525   1.287 -1.2551 -2.4991 -2.0576
38716SOL     OW19549   5.035   5.566   6.964 -0.3166 -0.1595 -0.5025
38716SOL    HW119550   5.079   5.595   6.884 -1.1231  1.8715 -0.2739
38716SOL    HW219551   4.951   5.531   6.933 -0.5861  0.5302 -0.5624
38717SOL     OW19552   7.685   9.891   9.590 -0.5143 -0.2302 -0.4843
38717SOL    HW119553   7.654   9.864   9.676 -2.3612  0.1249 -0.9895
38717SOL    HW219554   7.780   9.889   9.596 -0.6175 -1.7717  1.0526
38718SOL     OW19555   5.807  10.188   0.159  0.1723 -0.2683  0.2366
38718SOL    HW119556   5.797  10.245   0.235  2.1646 -0.2092  0.5195
38718SOL    HW219557   5.773  10.240   0.085  0.4089  0.6325  0.7416
38719SOL     OW19558   1.622   0.779   1.052 -0.1055  0.2544 -0.3072
38719SOL    HW119559   1.655   0.819   1.132 -1.0606  1.4195 -0.4830
38719SOL    HW219560   1.642   0.685   1.062  0.4787  0.4984  0.9293
38720SOL     OW19561   6.677   0.270   8.674  0.6007  0.3197  0.3959
38720SOL    HW119562   6.692   0.200   8.737  2.4316  0.4465  0.1382
38720SOL    HW219563   6.743   0.257   8.606 -1.6290 -0.1204 -1.8215
38721SOL     OW19564   9.861   2.511   8.448  0.1308  0.5282  0.4844
38721SOL    HW119565   9.841   2.544   8.360 -0.8774 -0.0880  0.4737
38721SOL    HW219566   9.939   2.456   8.436 -0.0460  0.3903 -0.0303
38722SOL     OW19567   8.614  10.447   0.211  0.3248  0.2463  0.6234
38722SOL    HW119568   8.662  10.401   0.280  1.1076  1.4297  0.8789
38722SOL    HW219569   8.674  10.448   0.137 -0.0155  0.1447  0.3413
38723SOL     OW19570  10.854  10.646   5.489 -0.3231 -0.9665 -0.1731
38723SOL    HW119571  10.811  10.621   5.571 -0.1832 -1.2573 -0.1865
38723SOL    HW219572  10.906  10.724   5.512  0.0920 -1.3232  0.1329
38724SOL     OW19573  10.417   6.732   7.939  0.5442  0.3755  0.6148
38724SOL    HW119574  10.328   6.759   7.916 -0.3966 -2.4469  0.5162
38724SOL    HW219575  10.457   6.811   7.977 -1.1887  2.3632 -1.4018
38725SOL     OW19576   1.700   0.451   0.287 -0.3507 -0.0426  0.0675
38725SOL    HW119577   1.705   0.393   0.363  1.7860  1.4620  1.1874
38725SOL    HW219578   1.683   0.392   0.213  3.2579 -2.4649  0.8649
38726SOL     OW19579   9.072   0.503   0.738 -0.3416  0.0599  0.6549
38726SOL    HW119580   9.054   0.578   0.681  0.5730  0.0960  0.3899
38726SOL    HW219581   9.156   0.524   0.779  1.7933 -2.2486 -2.0082
38727SOL     OW19582   0.207   4.440   1.077  0.4318 -0.1905 -0.4304
38727SOL    HW119583   0.162   4.468   0.997 -1.3045 -0.8556  0.2784
38727SOL    HW219584   0.137   4.414   1.137  1.6653  0.5799  1.4443
38728SOL     OW19585  10.081   3.996   4.960  0.6230 -0.1284  0.0843
38728SOL    HW119586  10.105   3.914   4.918 -2.3260  0.2288 -2.7376
38728SOL    HW219587  10.154   4.055   4.941  0.4688 -0.6935 -2.7034
38729SOL     OW19588   5.241  10.758   3.862 -0.2493 -0.7215 -0.6044
38729SOL    HW119589   5.259  10.844   3.825 -0.6162 -0.8313 -1.0556
38729SOL    HW219590   5.145  10.755   3.869 -0.3312 -1.5878 -1.8384
38730SOL     OW19591   3.925   3.352   1.199  0.4930  0.3213 -0.2886
38730SOL    HW119592   3.861   3.420   1.220  1.2775  0.9617  0.0315
38730SOL    HW219593   3.930   3.298   1.278 -1.5939 -1.3485 -1.1718
38731SOL     OW19594   9.788   7.551  10.399 -0.3936 -0.7353 -0.1374
38731SOL    HW119595   9.851   7.534  10.330 -0.1804  0.8239 -0.3689
38731SOL    HW219596   9.798   7.477  10.460  2.4850  0.0024  0.4388
38732SOL     OW19597   5.424   5.111   3.772  0.1902  0.0692  0.1408
38732SOL    HW119598   5.458   5.025   3.747  3.1672  0.6720  1.6149
38732SOL    HW219599   5.434   5.114   3.867 -2.7225  0.9893  0.5111
38733SOL     OW19600   3.022   4.519   2.157  0.1464 -0.1866 -0.9886
38733SOL    HW119601   2.986   4.484   2.076 -0.3148  0.2800 -0.9960
38733SOL    HW219602   3.113   4.491   2.157 -1.0274 -4.8043  0.9235
38734SOL     OW19603   9.426  10.422   2.078  0.0262  0.2685 -0.2313
38734SOL    HW119604   9.366  10.496   2.086 -1.0552 -0.6093  0.1823
38734SOL    HW219605   9.415  10.391   1.988  1.1284  1.1200 -0.6779
38735SOL     OW19606   8.269   7.412   9.611 -0.1834 -0.1869  0.2660
38735SOL    HW119607   8.284   7.506   9.616 -1.5667 -0.0304  2.4456
38735SOL    HW219608   8.185   7.404   9.565 -0.0316 -0.3833  0.0171
38736SOL     OW19609   4.206   1.115   7.919 -0.5735  0.3394  0.2217
38736SOL    HW119610   4.294   1.079   7.926  0.0175  1.6283 -0.2007
38736SOL    HW219611   4.149   1.039   7.904  0.6645 -0.3696 -1.0805
38737SOL     OW19612   8.913  10.791   5.999 -0.0653  0.5568  1.0880
38737SOL    HW119613   8.947  10.854   6.063  0.6056  0.0832  1.2026
38737SOL    HW219614   8.877  10.720   6.052 -2.1019  1.4533  1.0017
38738SOL     OW19615   5.959   3.083   0.598 -0.2121 -0.3189  0.5742
38738SOL    HW119616   5.926   3.144   0.532  0.7487  0.4895  0.8122
38738SOL    HW219617   5.945   2.996   0.561 -0.7724  0.0803 -0.1730
38739SOL     OW19618   3.943   3.848   3.181  0.1914 -0.1785  0.7185
38739SOL    HW119619   3.886   3.923   3.197  0.5468 -0.0338  1.3337
38739SOL    HW219620   4.029   3.876   3.214  0.0776 -1.2660  2.0105
38740SOL     OW19621   5.536   7.877   6.769 -0.3771 -0.1999  0.3699
38740SOL    HW119622   5.443   7.870   6.790 -0.7709  0.4222 -1.0598
38740SOL    HW219623   5.542   7.946   6.703  0.9846 -0.8038 -0.2039
38741SOL     OW19624   2.327   3.249   5.655 -0.2486 -0.1328  0.6481
38741SOL    HW119625   2.291   3.300   5.583 -0.3794  0.0103  0.8165
38741SOL    HW219626   2.293   3.290   5.734  0.5946  0.2461  0.8291
38742SOL     OW19627   1.184   5.702   9.491 -0.0103 -0.1533 -0.1302
38742SOL    HW119628   1.211   5.678   9.580 -0.1824 -0.3238 -0.1235
38742SOL    HW219629   1.141   5.787   9.502  1.6688  0.7485 -0.3282
38743SOL     OW19630   3.576   2.344   1.242 -0.3915 -0.5523 -0.1675
38743SOL    HW119631   3.506   2.408   1.260 -1.4451 -1.6586 -0.1698
38743SOL    HW219632   3.602   2.363   1.152  0.8881  1.2873  0.5207
38744SOL     OW19633   1.843   1.758   1.431 -0.3525  0.0169  0.1571
38744SOL    HW119634   1.780   1.753   1.359  0.5521  0.0633 -0.6548
38744SOL    HW219635   1.790   1.781   1.508 -1.4984 -1.0960 -0.2528
38745SOL     OW19636   1.781   7.366   2.153  0.4979  0.8716  0.2575
38745SOL    HW119637   1.723   7.384   2.228  0.7882  0.0658  0.6900
38745SOL    HW219638   1.746   7.285   2.116 -1.1643  2.5061 -2.0186
38746SOL     OW19639   1.662   8.610   0.523  0.2648  0.2215  0.1063
38746SOL    HW119640   1.573   8.576   0.510  0.5135 -1.3941  2.0955
38746SOL    HW219641   1.651   8.705   0.522 -0.8769  0.1785 -3.0888
38747SOL     OW19642   7.168   3.036   0.960 -0.1466 -0.4817  0.0124
38747SOL    HW119643   7.115   3.106   0.999 -0.4742  1.1226 -2.9663
38747SOL    HW219644   7.236   3.019   1.025 -1.6920  0.5878  2.0470
38748SOL     OW19645   3.178   8.861   8.365 -0.4218  0.4433 -0.3090
38748SOL    HW119646   3.158   8.767   8.368  1.5595 -0.0212 -0.0312
38748SOL    HW219647   3.242   8.869   8.294  0.6055  1.3002  0.6701
38749SOL     OW19648   8.547   6.892   5.339 -0.0065  0.1204 -0.4104
38749SOL    HW119649   8.504   6.808   5.354 -0.6034  0.3833 -0.6211
38749SOL    HW219650   8.546   6.903   5.244 -1.8659  1.3369 -0.3077
38750SOL     OW19651   6.770   8.785   0.633 -0.3968  0.1231  0.0266
38750SOL    HW119652   6.822   8.801   0.711  0.4810 -0.3473 -0.4455
38750SOL    HW219653   6.679   8.799   0.661 -0.6840 -4.3857  2.4182
38751SOL     OW19654   2.468   4.769   3.164  0.4048 -0.0343  0.6145
38751SOL    HW119655   2.550   4.818   3.158 -0.0185  0.7159  0.7895
38751SOL    HW219656   2.416   4.816   3.230  0.2376 -1.1065  1.2654
38752SOL     OW19657   9.665   8.028   5.073 -0.0859 -0.4637  0.2988
38752SOL    HW119658   9.633   8.029   4.982 -0.1220  0.0765  0.3165
38752SOL    HW219659   9.635   7.943   5.107 -0.4532 -0.4825 -0.0586
38753SOL     OW19660   8.907   0.692   8.363  0.2337  0.4405  0.1770
38753SOL    HW119661   8.895   0.638   8.441  0.6262 -0.3419 -0.2860
38753SOL    HW219662   8.831   0.750   8.361 -0.2578 -0.1794  0.6273
38754SOL     OW19663   1.048   7.614   5.157  0.4650 -0.1921  0.8034
38754SOL    HW119664   1.041   7.582   5.247 -0.4094 -0.4492  0.6589
38754SOL    HW219665   0.970   7.667   5.144  1.3360  1.0823  0.6612
38755SOL     OW19666   8.374   9.379   7.754  0.0248 -0.0869  0.1846
38755SOL    HW119667   8.350   9.444   7.688 -0.1959 -0.6606 -0.3152
38755SOL    HW219668   8.469   9.375   7.750 -0.0409 -2.0489 -2.0770
38756SOL     OW19669   9.529   3.516   4.156  0.2123  0.1507 -0.1492
38756SOL    HW119670   9.523   3.455   4.083  2.0958  0.2764 -0.4483
38756SOL    HW219671   9.558   3.598   4.117 -0.1725  0.6359  0.5581
38757SOL     OW19672   1.315   2.595   0.249 -0.4732  0.1273 -0.2989
38757SOL    HW119673   1.400   2.552   0.251 -0.4284  0.2006 -0.6774
38757SOL    HW219674   1.331   2.679   0.207 -0.1849  1.3573  2.0534
38758SOL     OW19675   7.413   3.850   4.061  0.4755 -0.2725 -0.1041
38758SOL    HW119676   7.477   3.817   4.123  0.1355  0.3288  0.5772
38758SOL    HW219677   7.355   3.776   4.045  1.2143 -0.7627 -0.5804
38759SOL     OW19678   9.797   7.662   0.504 -0.0703 -0.1972  0.2410
38759SOL    HW119679   9.830   7.574   0.522 -1.6870 -1.5054 -2.5267
38759SOL    HW219680   9.863   7.701   0.447 -0.2001 -0.2960  0.0240
38760SOL     OW19681   2.740   0.090   2.761  0.1496 -0.0475  0.0357
38760SOL    HW119682   2.800   0.053   2.825 -0.8383 -2.1690 -0.2130
38760SOL    HW219683   2.795   0.104   2.683  1.0491  1.3182  0.8579
38761SOL     OW19684   3.901   1.746   1.455  0.1784  0.5767  0.5021
38761SOL    HW119685   3.983   1.789   1.430 -0.4956  1.4615 -0.2420
38761SOL    HW219686   3.834   1.787   1.400 -0.6467 -0.7346  0.4923
38762SOL     OW19687   8.734  10.096   4.640 -0.3594 -0.4628 -0.0300
38762SOL    HW119688   8.650  10.100   4.686  0.6559  1.7752  1.8371
38762SOL    HW219689   8.774  10.014   4.668 -1.5281 -1.1569 -0.3104
38763SOL     OW19690   1.675   2.732   2.754 -0.1395 -0.4514  0.8270
38763SOL    HW119691   1.715   2.645   2.762 -0.6276 -0.6855  0.7307
38763SOL    HW219692   1.659   2.759   2.844 -0.9747 -0.9232  0.8281
38764SOL     OW19693   6.488   3.366   7.851 -0.1283  0.3599  0.1920
38764SOL    HW119694   6.561   3.416   7.888  0.3928  0.2493 -0.6524
38764SOL    HW219695   6.411   3.421   7.866  0.5013  1.7142 -1.1854
38765SOL     OW19696   4.455   1.300   7.036  0.2527 -0.2726 -0.1600
38765SOL    HW119697   4.524   1.323   7.099 -0.1240 -0.4786  0.3294
38765SOL    HW219698   4.503   1.273   6.957  0.7505 -1.2861  0.4716
38766SOL     OW19699   0.104   9.195   9.164 -0.2674  0.1136  0.0748
38766SOL    HW119700   0.145   9.152   9.089 -0.7257 -0.0309 -0.0993
38766SOL    HW219701   0.162   9.268   9.185  0.5288 -0.5862  0.3738
38767SOL     OW19702   8.563   3.314   0.925 -0.1041  0.1703  0.0569
38767SOL    HW119703   8.472   3.321   0.897 -0.2275 -1.0582  0.1013
38767SOL    HW219704   8.559   3.309   1.020  0.1373  1.6844  0.1721
38768SOL     OW19705   8.080   4.896   7.915 -0.3412 -0.3819  0.1872
38768SOL    HW119706   8.150   4.894   7.981 -1.3601  1.8681  1.4399
38768SOL    HW219707   8.022   4.823   7.939 -0.4772  0.1590  1.5632
38769SOL     OW19708   6.151   8.554   4.722  0.4944 -0.0075  0.1513
38769SOL    HW119709   6.126   8.481   4.666 -1.3078 -0.1241  1.0170
38769SOL    HW219710   6.244   8.567   4.706  0.4013 -1.1695 -1.5222
38770SOL     OW19711   2.318   5.488   4.374  0.1167  1.0680  0.8088
38770SOL    HW119712   2.396   5.480   4.429  0.3368 -2.2763  0.1884
38770SOL    HW219713   2.313   5.582   4.354  3.5285  1.5244  1.4818
38771SOL     OW19714   9.863   9.422   4.446 -0.0776  0.3586 -0.3738
38771SOL    HW119715   9.871   9.355   4.514 -0.2798 -0.3310 -1.0083
38771SOL    HW219716   9.935   9.482   4.462 -0.4110  0.4958  0.7491
38772SOL     OW19717   0.066   2.631   6.146 -0.1242 -0.1707  0.1420
38772SOL    HW119718   0.075   2.685   6.067 -0.9221  1.1671  0.9366
38772SOL    HW219719   0.146   2.577   6.146 -0.1803 -0.3301 -1.6440
38773SOL     OW19720   1.564   5.386   7.156 -0.3018  0.2697 -0.2821
38773SOL    HW119721   1.469   5.373   7.156 -0.0735 -1.8910  1.2526
38773SOL    HW219722   1.599   5.307   7.115  0.8764  0.6331 -0.0194
38774SOL     OW19723   5.744   6.881   5.356  0.1527  0.1644  0.3756
38774SOL    HW119724   5.831   6.896   5.393  0.7777 -3.1526  0.5727
38774SOL    HW219725   5.758   6.877   5.261  0.1801 -0.1019  0.3897
38775SOL     OW19726   3.561   1.726   1.618 -0.7572 -0.5280  0.3244
38775SOL    HW119727   3.488   1.664   1.609 -0.9838 -0.8458  3.3848
38775SOL    HW219728   3.607   1.721   1.534 -2.4937 -2.5914 -0.6030
38776SOL     OW19729   1.837   5.215   1.240 -0.2955  1.1563  0.4783
38776SOL    HW119730   1.802   5.127   1.226 -1.5556  1.2905  2.4547
38776SOL    HW219731   1.932   5.203   1.240 -0.3184  0.3460 -2.2988
38777SOL     OW19732   1.931   7.236   8.180  0.0760 -0.0326 -0.1245
38777SOL    HW119733   1.851   7.261   8.227 -0.2416 -1.5717  0.2170
38777SOL    HW219734   1.994   7.216   8.250  0.9045  1.5261 -0.3884
38778SOL     OW19735   1.100   8.454   7.618  0.0561 -0.0207  0.0189
38778SOL    HW119736   1.104   8.360   7.600  1.7594 -0.2239  1.2140
38778SOL    HW219737   1.187   8.487   7.595 -0.4386  1.2378 -0.1605
38779SOL     OW19738   6.799   9.829   1.437  0.0234  0.0088 -1.0454
38779SOL    HW119739   6.872   9.869   1.484 -0.8413  1.7754 -1.1290
38779SOL    HW219740   6.837   9.799   1.355  0.5174  1.8223 -1.5369
38780SOL     OW19741   8.528   7.781   2.043  0.0935  0.6023 -0.8381
38780SOL    HW119742   8.593   7.815   1.982  2.7943 -0.0318  1.5012
38780SOL    HW219743   8.541   7.831   2.123 -1.4736 -0.4184  0.1269
38781SOL     OW19744   1.177   6.247  10.829 -0.2636  0.1202  0.2955
38781SOL    HW119745   1.105   6.255  10.892 -0.6792  3.0960 -0.4148
38781SOL    HW219746   1.150   6.177  10.770 -1.5183 -0.3289  1.3487
38782SOL     OW19747   2.286   9.099   6.749  0.0923  0.3516  0.2075
38782SOL    HW119748   2.232   9.021   6.763 -0.4647  0.5678 -0.7145
38782SOL    HW219749   2.225   9.172   6.748  0.5754  0.7765  0.7115
38783SOL     OW19750  10.726   0.797   1.757  0.1055  0.0442 -0.3857
38783SOL    HW119751  10.783   0.741   1.810 -0.3115  0.3852  0.4432
38783SOL    HW219752  10.678   0.736   1.702 -0.2491 -0.4238  0.4167
38784SOL     OW19753   5.288   9.181   7.583  0.1486 -0.2449 -0.2346
38784SOL    HW119754   5.344   9.258   7.587  0.8917 -0.8201  0.8490
38784SOL    HW219755   5.329   9.118   7.642  0.1357 -1.8672 -1.8638
38785SOL     OW19756   1.253   9.705   6.470  0.9363 -0.1820 -0.1879
38785SOL    HW119757   1.300   9.714   6.388 -0.6853  0.2329 -1.1100
38785SOL    HW219758   1.213   9.790   6.485 -0.5204 -0.8580 -0.0865
38786SOL     OW19759  10.364   8.308  10.015 -0.4516  0.1367 -0.4406
38786SOL    HW119760  10.330   8.250   9.947 -1.2609  0.2170 -0.1149
38786SOL    HW219761  10.356   8.396   9.978 -0.7700  0.1693 -0.3039
38787SOL     OW19762   9.576   2.690   8.277 -0.3795 -0.2827 -0.0508
38787SOL    HW119763   9.659   2.663   8.240 -0.5956  0.1223 -0.8560
38787SOL    HW219764   9.543   2.612   8.322 -0.2654 -0.8911 -0.9931
38788SOL     OW19765   4.953  10.071   9.131  0.3954 -0.1154  0.3910
38788SOL    HW119766   4.942  10.149   9.077 -0.9736 -0.2190  0.4899
38788SOL    HW219767   4.925   9.999   9.076  0.5301 -0.4104  0.7021
38789SOL     OW19768   2.281   4.249   4.295 -0.0665 -0.4107 -0.7566
38789SOL    HW119769   2.199   4.220   4.335 -0.8721 -1.2799 -2.8808
38789SOL    HW219770   2.345   4.183   4.321 -0.3708 -0.5042 -0.2356
38790SOL     OW19771   6.246   1.225   1.775 -0.7096 -0.4931  0.6617
38790SOL    HW119772   6.280   1.312   1.753  0.8330 -0.3728  3.1202
38790SOL    HW219773   6.223   1.186   1.691 -0.5536  1.9291 -0.5817
38791SOL     OW19774   2.020   4.933   3.676 -0.4626 -0.0689  0.0509
38791SOL    HW119775   2.022   5.028   3.669 -2.5664 -0.0784 -1.4855
38791SOL    HW219776   1.934   4.913   3.713 -1.1217 -1.4045 -2.0137
38792SOL     OW19777   7.182   4.028   5.529 -0.0713  0.3558 -0.5275
38792SOL    HW119778   7.138   4.059   5.450 -1.1596 -1.2799 -0.6271
38792SOL    HW219779   7.131   3.951   5.556  1.5078 -0.3715  0.5724
38793SOL     OW19780   5.888   0.942   2.478 -0.2784  0.3130  0.0780
38793SOL    HW119781   5.927   0.855   2.472 -0.5307  0.2668 -1.1299
38793SOL    HW219782   5.812   0.931   2.535 -0.6737 -0.4024 -0.5655
38794SOL     OW19783   6.942   3.541   5.675  0.3355 -0.1336  0.1464
38794SOL    HW119784   6.854   3.560   5.709  0.4510 -1.1145  1.0220
38794SOL    HW219785   6.926   3.504   5.588 -0.1442 -0.6647  0.4524
38795SOL     OW19786   9.424   4.091   5.215 -0.1116 -0.7389 -0.5949
38795SOL    HW119787   9.485   4.026   5.182  0.3283 -1.3245  1.2504
38795SOL    HW219788   9.461   4.175   5.188 -0.2585 -1.1943 -2.2988
38796SOL     OW19789   3.017   3.113   2.551 -0.5086  0.2590 -0.6017
38796SOL    HW119790   2.934   3.148   2.518 -0.1981  0.8832 -0.7357
38796SOL    HW219791   3.051   3.062   2.478 -0.9130 -0.2535 -0.4422
38797SOL     OW19792   1.344   6.340   1.677  0.5387  0.8769 -0.3126
38797SOL    HW119793   1.351   6.435   1.682 -0.6201  1.1207 -2.2747
38797SOL    HW219794   1.254   6.320   1.702  0.2425  0.4934 -1.6081
38798SOL     OW19795   8.574   2.828   8.210  0.3472  0.3062  0.0121
38798SOL    HW119796   8.586   2.739   8.244 -0.4325  0.7823  1.6361
38798SOL    HW219797   8.479   2.838   8.202  0.4819  0.4062 -1.9057
38799SOL     OW19798   3.019  10.770   1.957 -0.8794 -0.3573 -0.6468
38799SOL    HW119799   2.961  10.789   1.883 -1.6498 -0.3918 -0.0645
38799SOL    HW219800   3.061  10.687   1.934 -1.0642 -0.3369 -1.0726
38800SOL     OW19801   6.235   5.625   0.877  0.1290 -0.2477 -0.4363
38800SOL    HW119802   6.150   5.667   0.895  0.2581 -0.1377 -0.0670
38800SOL    HW219803   6.278   5.622   0.963 -0.2607 -1.9765 -0.2729
38801SOL     OW19804   4.142   3.377   6.742  0.5264  0.5980 -0.0228
38801SOL    HW119805   4.136   3.470   6.764  2.1002  1.1959 -1.8051
38801SOL    HW219806   4.086   3.367   6.665 -0.1576 -0.0745  0.5627
38802SOL     OW19807   6.946   5.381   0.419  0.0894 -0.3901 -0.2505
38802SOL    HW119808   6.894   5.377   0.500  2.5910  0.6196  1.5515
38802SOL    HW219809   6.983   5.293   0.411  0.0052 -0.4348 -0.1514
38803SOL     OW19810   5.828   7.562   6.417 -0.5542 -0.2297  0.0294
38803SOL    HW119811   5.858   7.563   6.326  0.2522  1.0318  0.2816
38803SOL    HW219812   5.873   7.487   6.457  1.1873  0.7579  0.0261
38804SOL     OW19813   6.363   8.710   2.017  0.1972  0.5112  0.6629
38804SOL    HW119814   6.313   8.634   2.046  0.1537  0.2456 -0.0939
38804SOL    HW219815   6.403   8.744   2.097 -1.4224  0.9156  1.3496
38805SOL     OW19816   0.957   0.168   8.849 -0.1614 -0.2988  0.1162
38805SOL    HW119817   0.938   0.083   8.808 -3.0356  0.1661  0.2966
38805SOL    HW219818   0.902   0.170   8.927  2.3008  0.4663  1.9820
38806SOL     OW19819   1.691   4.848   2.480 -0.1504 -0.0735  0.1224
38806SOL    HW119820   1.768   4.904   2.469 -0.5729  0.5678  0.3465
38806SOL    HW219821   1.681   4.839   2.574 -1.3269  1.2753  0.1725
38807SOL     OW19822   5.677   6.126   2.983 -0.3785 -0.2454 -0.0199
38807SOL    HW119823   5.690   6.185   2.908  2.3464  0.6106  0.9926
38807SOL    HW219824   5.742   6.156   3.048 -0.6898 -2.7474  1.5552
38808SOL     OW19825   4.840   0.269   3.774 -0.5364 -0.0668 -0.1409
38808SOL    HW119826   4.902   0.342   3.764  0.1854 -0.3187  1.9591
38808SOL    HW219827   4.775   0.301   3.836 -0.1367 -1.2172  0.9123
38809SOL     OW19828   8.639   3.654   4.158  0.0496  0.0602  0.0904
38809SOL    HW119829   8.635   3.595   4.083 -1.4449 -0.4939  0.5613
38809SOL    HW219830   8.549   3.659   4.189  0.7742 -0.6596  2.5620
38810SOL     OW19831   0.671  10.316   8.324  0.1011 -0.4032  0.1266
38810SOL    HW119832   0.731  10.266   8.268 -1.3443  0.1810 -2.0942
38810SOL    HW219833   0.604  10.253   8.350 -0.3172 -0.2355 -0.5175
38811SOL     OW19834   4.485   6.341   5.040  0.5723  0.6701 -0.8370
38811SOL    HW119835   4.416   6.401   5.068  2.4457  2.5973 -0.1058
38811SOL    HW219836   4.460   6.317   4.950 -1.8741 -0.0648 -0.0410
38812SOL     OW19837   1.371   0.265   7.661  0.3703  0.8358  0.1615
38812SOL    HW119838   1.281   0.290   7.638  0.5223  0.9860 -0.2806
38812SOL    HW219839   1.365   0.237   7.752 -1.1630 -3.8389 -1.0672
38813SOL     OW19840  10.411   4.781   1.525 -0.0722  0.5386 -0.0994
38813SOL    HW119841  10.417   4.699   1.575 -0.2717  0.3601 -0.3649
38813SOL    HW219842  10.343   4.764   1.460  0.5411  0.5955 -0.7619
38814SOL     OW19843   1.838   9.966   7.308 -0.1026  0.3818 -0.2343
38814SOL    HW119844   1.909   9.995   7.250 -0.0772 -0.9718 -0.9220
38814SOL    HW219845   1.810   9.883   7.272 -1.6444  0.5869  0.4012
38815SOL     OW19846   7.161  10.312   0.246 -0.2055 -0.0446  0.6551
38815SOL    HW119847   7.078  10.292   0.288 -0.1992 -0.5389  0.4437
38815SOL    HW219848   7.227  10.299   0.315 -0.3343  0.7381  0.9315
38816SOL     OW19849   9.639   0.930   0.993 -0.0749 -0.2119 -0.0525
38816SOL    HW119850   9.545   0.937   1.011 -0.8649 -0.9880 -3.3345
38816SOL    HW219851   9.669   1.021   0.986 -0.6252  0.0330  0.6881
38817SOL     OW19852   1.151   6.673   8.884 -0.2735 -0.3096  0.3570
38817SOL    HW119853   1.121   6.703   8.970  0.3965 -2.0557  1.2411
38817SOL    HW219854   1.093   6.718   8.822 -1.9140 -0.3189  1.7918
38818SOL     OW19855   2.512   3.476   7.817  0.3550 -0.0189 -0.1979
38818SOL    HW119856   2.604   3.481   7.845 -0.0334  1.8318  0.9692
38818SOL    HW219857   2.516   3.439   7.729  2.0944 -1.2568  0.3373
38819SOL     OW19858   4.864   5.593   6.540 -0.3189 -0.3880  0.1911
38819SOL    HW119859   4.860   5.607   6.445 -1.3455  0.9024  0.3998
38819SOL    HW219860   4.824   5.508   6.553 -1.3643 -0.0052 -0.4278
38820SOL     OW19861   5.029   0.429   3.240 -0.3036 -0.7203  0.6100
38820SOL    HW119862   4.967   0.415   3.168  0.1741 -2.3746  0.4840
38820SOL    HW219863   5.069   0.343   3.254  0.8823 -0.0162  1.6890
38821SOL     OW19864   1.211   2.771   5.516  0.2660  0.2989  0.2650
38821SOL    HW119865   1.205   2.836   5.587  0.0628  2.0566 -1.2651
38821SOL    HW219866   1.177   2.817   5.439 -0.1882 -1.7726 -0.8384
38822SOL     OW19867   4.405   4.831   8.401  0.1325 -0.2266 -0.4040
38822SOL    HW119868   4.432   4.751   8.445 -0.4518  0.2978  0.9461
38822SOL    HW219869   4.436   4.902   8.457 -0.7213  0.4590 -0.7735
38823SOL     OW19870   3.113   2.977   6.532  0.2777  0.8687  0.2706
38823SOL    HW119871   3.202   2.958   6.501 -0.1870  1.2086 -1.3608
38823SOL    HW219872   3.109   2.937   6.619  1.7523  0.1256  0.0318
38824SOL     OW19873   1.647   8.876   3.203  0.2624 -0.5633  0.6481
38824SOL    HW119874   1.731   8.906   3.237  0.6009 -0.8032  0.0447
38824SOL    HW219875   1.585   8.944   3.228  0.5659 -0.5715  1.4252
38825SOL     OW19876   0.647   1.359   3.900 -0.1340  0.1592 -0.2641
38825SOL    HW119877   0.734   1.321   3.883 -1.3066 -2.3323 -1.2914
38825SOL    HW219878   0.643   1.435   3.843  1.4412  0.4568 -0.0320
38826SOL     OW19879   5.916   3.762   1.482 -0.0793  1.0100  0.3356
38826SOL    HW119880   5.838   3.707   1.482  0.5183  0.0739 -1.3390
38826SOL    HW219881   5.883   3.851   1.474 -0.9825  0.6174 -0.5227
38827SOL     OW19882   4.249   3.846   5.026 -0.0255 -0.5534  0.6937
38827SOL    HW119883   4.294   3.789   5.089 -2.7883 -0.0903  3.3135
38827SOL    HW219884   4.165   3.802   5.010  1.0240 -1.4288 -4.0299
38828SOL     OW19885   4.113   5.811  10.326 -0.5251  0.3294  0.4084
38828SOL    HW119886   4.030   5.773  10.354 -0.3374 -1.2807 -1.0709
38828SOL    HW219887   4.175   5.739  10.331  0.0148  0.5763 -1.7794
38829SOL     OW19888   4.832   2.806   4.061 -0.7256 -0.4760 -0.2524
38829SOL    HW119889   4.891   2.820   3.987 -1.1342 -2.4808 -1.0227
38829SOL    HW219890   4.844   2.714   4.084 -1.7039 -0.2684  1.2311
38830SOL     OW19891   6.050   1.570   0.586  0.4233 -0.1486 -0.7513
38830SOL    HW119892   5.991   1.570   0.662  1.2514  1.4054 -0.0526
38830SOL    HW219893   6.072   1.478   0.574  0.1063 -0.4646  0.7787
38831SOL     OW19894   1.169   2.632   0.487 -0.3369 -0.3008  0.2477
38831SOL    HW119895   1.208   2.609   0.571  1.1513  1.8733  0.2226
38831SOL    HW219896   1.240   2.624   0.424 -0.8367  0.2984 -0.4085
38832SOL     OW19897   5.491   2.888   7.294 -0.1714  0.0703  0.7887
38832SOL    HW119898   5.497   2.811   7.238  0.6874 -0.3360  1.4135
38832SOL    HW219899   5.404   2.882   7.333 -1.4646  1.2471 -1.7094
38833SOL     OW19900   8.009   7.203   6.328 -0.3213  0.2558  0.2882
38833SOL    HW119901   7.924   7.168   6.300  0.5660 -2.0885  0.2948
38833SOL    HW219902   8.050   7.235   6.248 -0.1592 -1.0803 -0.1876
38834SOL     OW19903   1.137   6.969   9.653  0.1271  0.0286 -0.8256
38834SOL    HW119904   1.108   6.943   9.741 -0.1236  2.2515 -0.1806
38834SOL    HW219905   1.105   6.900   9.596 -0.7048 -0.9063  0.7039
38835SOL     OW19906   1.695   3.322   2.931  0.1815 -0.0603 -0.1180
38835SOL    HW119907   1.770   3.363   2.974  0.6289  0.5652 -1.4327
38835SOL    HW219908   1.646   3.281   3.002  1.2377  0.3639  0.8891
38836SOL     OW19909   9.783   5.790   1.042  0.3097 -0.2107  0.0606
38836SOL    HW119910   9.729   5.744   1.106  0.6500 -0.7883 -0.0616
38836SOL    HW219911   9.764   5.883   1.057  2.8836 -0.0435  3.3060
38837SOL     OW19912   5.130   0.222   2.472 -0.7717 -0.1769  0.2517
38837SOL    HW119913   5.182   0.261   2.543 -1.9939  0.7655  0.6702
38837SOL    HW219914   5.167   0.135   2.460  1.4179  0.7303 -0.0227
38838SOL     OW19915   1.919   4.808   9.751 -0.1785  0.0612  0.2848
38838SOL    HW119916   1.857   4.736   9.735 -0.7588  0.4661  0.7106
38838SOL    HW219917   2.000   4.764   9.777 -0.3421 -0.4620 -0.0685
38839SOL     OW19918   5.593   2.372   4.550 -0.3504  0.4294  0.2730
38839SOL    HW119919   5.585   2.286   4.591 -1.5595  0.6403  0.5315
38839SOL    HW219920   5.660   2.417   4.601 -1.9712  0.7728  2.2313
38840SOL     OW19921   5.962   5.388  10.813  0.5679  0.1914  0.5159
38840SOL    HW119922   5.991   5.447  10.743  3.0808 -1.3423  0.1074
38840SOL    HW219923   6.032   5.392  10.878  0.5635 -1.8592  0.7305
38841SOL     OW19924   5.701   7.749   2.968 -0.0957 -0.1399  0.7529
38841SOL    HW119925   5.761   7.724   2.897  1.4792  1.8736  1.2854
38841SOL    HW219926   5.695   7.670   3.022  0.9326 -0.8372 -0.1049
38842SOL     OW19927   1.526   8.209   5.693 -0.6469 -1.1121  0.4835
38842SOL    HW119928   1.519   8.210   5.598 -4.2581  0.1433  0.6132
38842SOL    HW219929   1.522   8.117   5.717 -2.1578 -1.3366 -0.5312
38843SOL     OW19930   1.960   8.096   4.873  0.1078 -0.0029 -0.4038
38843SOL    HW119931   1.965   8.168   4.936  4.6863  0.3129 -0.8180
38843SOL    HW219932   1.908   8.132   4.801 -1.0778  1.3856  1.0500
38844SOL     OW19933   6.395   2.673   4.237  0.3987 -0.0387  0.5310
38844SOL    HW119934   6.457   2.640   4.172 -0.8451  0.8778 -1.2162
38844SOL    HW219935   6.360   2.594   4.278 -0.1242 -0.7837 -1.2341
38845SOL     OW19936   5.597   0.206   2.143  0.0416  0.7787  0.2585
38845SOL    HW119937   5.684   0.216   2.182  0.5119 -0.5793 -0.3865
38845SOL    HW219938   5.540   0.259   2.199  0.8424 -0.3340  2.2362
38846SOL     OW19939   5.308   1.569   5.134  0.1393 -0.0331  0.3564
38846SOL    HW119940   5.295   1.663   5.143 -3.0494 -0.3195 -0.1993
38846SOL    HW219941   5.246   1.530   5.196 -0.7394 -1.7274 -1.4652
38847SOL     OW19942   3.905   4.001   5.606  0.1544  0.0801  0.2964
38847SOL    HW119943   3.817   3.975   5.581  0.4218 -0.9675  0.3753
38847SOL    HW219944   3.900   4.019   5.700  0.2296 -1.0112  0.5280
38848SOL     OW19945   5.986  10.607   6.501  0.5896  0.0782 -0.3851
38848SOL    HW119946   5.950  10.543   6.440  0.6849 -2.3602  1.9420
38848SOL    HW219947   5.909  10.647   6.542  0.5129 -0.2576 -0.1956
38849SOL     OW19948   4.512   8.544   3.631  0.3354 -0.4185 -0.1596
38849SOL    HW119949   4.499   8.579   3.719  0.7134 -1.1292  0.1879
38849SOL    HW219950   4.475   8.610   3.573 -0.4884 -0.2253  0.5634
38850SOL     OW19951   4.785   1.154   1.801  0.4944 -0.2921  0.6164
38850SOL    HW119952   4.839   1.115   1.733  0.6181  0.5471  0.2191
38850SOL    HW219953   4.699   1.114   1.790  0.6379 -0.5028  0.2650
38851SOL     OW19954   6.983  10.708   7.883  0.0286 -0.3883  0.3007
38851SOL    HW119955   6.921  10.777   7.859 -0.8864 -1.1206  0.4903
38851SOL    HW219956   7.015  10.734   7.970 -2.8013 -1.7696  1.9161
38852SOL     OW19957   1.184   6.797   4.640  0.3444 -0.1023 -0.4061
38852SOL    HW119958   1.241   6.764   4.570  0.0884  0.4127 -0.8653
38852SOL    HW219959   1.242   6.806   4.715  0.2189 -2.6539  0.0904
38853SOL     OW19960   2.253   5.542   0.383  0.1068  0.3836 -0.3307
38853SOL    HW119961   2.307   5.466   0.362 -0.0223 -0.0223  0.7179
38853SOL    HW219962   2.266   5.602   0.310  1.8411  0.2121 -0.2105
38854SOL     OW19963   8.981   3.278   6.728  0.1391  0.6873 -0.1072
38854SOL    HW119964   9.065   3.308   6.693 -0.4379  1.8364 -0.5474
38854SOL    HW219965   8.938   3.357   6.761 -0.2710 -0.0638  1.2322
38855SOL     OW19966   2.924   7.048   1.759 -0.2948 -0.4394  0.4343
38855SOL    HW119967   2.970   7.091   1.832 -0.5053 -1.4078  1.1676
38855SOL    HW219968   2.994   7.016   1.702 -0.0490 -1.1564  1.1070
38856SOL     OW19969   6.511  10.173   8.291 -0.7505 -0.2277 -0.2469
38856SOL    HW119970   6.442  10.203   8.231 -1.3580 -0.3976  0.3546
38856SOL    HW219971   6.466  10.162   8.375 -0.0945 -0.8240  0.0320
38857SOL     OW19972   4.286   9.291   3.161 -0.3774  0.5697 -0.0718
38857SOL    HW119973   4.290   9.316   3.069 -0.3216 -0.6960 -0.4361
38857SOL    HW219974   4.336   9.358   3.207  0.1343  0.8647 -1.0372
38858SOL     OW19975  10.468   6.633   1.709  0.4209  0.3891 -0.3091
38858SOL    HW119976  10.512   6.559   1.667 -0.5131 -0.2107 -0.2487
38858SOL    HW219977  10.454   6.605   1.799  1.1255  1.1117  0.0403
38859SOL     OW19978  10.187   7.461   7.565 -0.3941 -0.2497  0.2521
38859SOL    HW119979  10.107   7.513   7.559 -1.2275 -1.6616 -1.6004
38859SOL    HW219980  10.168   7.380   7.518  2.1002 -0.6576 -0.2229
38860SOL     OW19981  10.703   4.018   0.184  0.0408 -0.4541 -0.0789
38860SOL    HW119982  10.796   4.031   0.164  0.1080 -1.2368 -0.3122
38860SOL    HW219983  10.701   4.012   0.280 -0.0487  1.5225  0.0767
38861SOL     OW19984   8.874   7.457   2.611 -0.2440 -0.0660  0.1291
38861SOL    HW119985   8.960   7.430   2.642  0.3203  0.2141 -1.1098
38861SOL    HW219986   8.891   7.500   2.527 -1.6847 -0.8853 -0.6207
38862SOL     OW19987   8.872   3.298   1.188 -0.5450 -0.3638  0.4594
38862SOL    HW119988   8.807   3.361   1.221 -0.3345 -0.5576  1.2781
38862SOL    HW219989   8.921   3.272   1.266  1.0914  0.4245 -0.2395
38863SOL     OW19990   8.605   0.745   9.854 -0.0276 -0.0873  0.0052
38863SOL    HW119991   8.610   0.840   9.841 -1.1906 -0.0264 -0.0709
38863SOL    HW219992   8.517   0.721   9.825  0.9951 -1.5406 -2.1287
38864SOL     OW19993   0.226  10.648   2.378 -0.2241  0.6449  0.6882
38864SOL    HW119994   0.253  10.675   2.467 -0.8196  1.2227  0.6959
38864SOL    HW219995   0.205  10.730   2.334  2.7023  0.6708 -0.9056
38865SOL     OW19996   9.997   7.715   1.453  0.3153  0.3127 -0.7125
38865SOL    HW119997   9.951   7.781   1.504 -0.5768 -0.4633 -0.4876
38865SOL    HW219998   9.968   7.631   1.489  1.2405 -0.2149 -1.1481
38866SOL     OW19999   3.623   7.375   1.640 -0.3240 -0.5560  0.4993
38866SOL    HW120000   3.633   7.294   1.589  0.9922  0.6355 -1.2606
38866SOL    HW220001   3.704   7.381   1.691  1.1735  1.1961 -1.8562
38867SOL     OW20002   3.768   0.038   2.967 -0.2691  0.5718 -0.5576
38867SOL    HW120003   3.824   0.052   3.044 -0.4628  0.4037 -0.3836
38867SOL    HW220004   3.821   0.067   2.893  0.3181 -0.2519 -0.4678
38868SOL     OW20005   3.187   0.656   0.244  0.0764  0.1426  0.1938
38868SOL    HW120006   3.267   0.627   0.202  0.1432  0.3011  0.2091
38868SOL    HW220007   3.131   0.685   0.172 -0.1777 -0.4765  0.1416
38869SOL     OW20008   1.538   0.489   9.134  0.2472  0.3216  0.3031
38869SOL    HW120009   1.632   0.471   9.130  0.0625 -0.6702  0.1716
38869SOL    HW220010   1.528   0.548   9.208  0.7992 -0.9193  1.4121
38870SOL     OW20011   0.915   0.814   4.964 -0.5557 -0.3316 -0.2921
38870SOL    HW120012   0.884   0.904   4.973  2.9091  1.0990 -1.0216
38870SOL    HW220013   0.900   0.776   5.050  1.0987  2.1664  1.2510
38871SOL     OW20014   8.979   5.232   5.572  0.0308  0.5694  0.4160
38871SOL    HW120015   8.991   5.185   5.654 -0.2964  1.1983  0.8287
38871SOL    HW220016   9.032   5.184   5.509  0.5808  0.3034  1.0734
38872SOL     OW20017   0.254   2.667   4.325  0.0551  0.3409 -0.3625
38872SOL    HW120018   0.294   2.751   4.349  0.2324  0.2894 -0.4750
38872SOL    HW220019   0.329   2.611   4.302 -0.0044 -0.0977  0.4856
38873SOL     OW20020   7.695   2.217   2.343  0.0074 -0.5644 -0.1389
38873SOL    HW120021   7.762   2.157   2.309 -1.0890 -1.1507 -1.3551
38873SOL    HW220022   7.614   2.186   2.304 -0.7533  1.0685  0.0756
38874SOL     OW20023   3.121   0.451   1.717 -0.1687 -0.2914  0.6439
38874SOL    HW120024   3.176   0.511   1.768  1.1711 -0.3421 -0.6570
38874SOL    HW220025   3.160   0.365   1.731  0.3798 -0.2661 -0.6364
38875SOL     OW20026   1.722   8.463   0.210 -0.1196 -0.1926 -0.1773
38875SOL    HW120027   1.734   8.374   0.245 -1.6453 -0.5459 -0.4887
38875SOL    HW220028   1.656   8.502   0.266  0.6271  0.8064  0.0231
38876SOL     OW20029   6.459   9.826   8.214 -0.6187 -0.1873  0.4268
38876SOL    HW120030   6.471   9.823   8.309 -2.6420  0.6653  0.7532
38876SOL    HW220031   6.375   9.871   8.201 -0.8442 -1.0836 -1.7313
38877SOL     OW20032   6.956   2.747   4.617 -0.8020  0.2645 -0.0723
38877SOL    HW120033   6.929   2.749   4.525 -0.5679  2.3252 -0.1504
38877SOL    HW220034   6.995   2.833   4.632 -0.9808  0.0300  2.0085
38878SOL     OW20035   8.402   7.831   7.070  0.5130  0.1154  0.4191
38878SOL    HW120036   8.439   7.917   7.088 -0.2156  0.4054  0.5231
38878SOL    HW220037   8.373   7.836   6.979 -1.2306  0.6059  0.9726
38879SOL     OW20038   0.657   6.625  10.689 -0.4919  0.1151  0.1811
38879SOL    HW120039   0.564   6.612  10.710 -0.3679  0.1912  0.7924
38879SOL    HW220040   0.701   6.621  10.774 -0.1901  2.3512  0.1795
38880SOL     OW20041   1.417   8.337   2.797 -0.4342 -0.4211 -0.0630
38880SOL    HW120042   1.481   8.290   2.744 -0.3226 -0.9817  0.5525
38880SOL    HW220043   1.337   8.285   2.791 -1.2418  0.9265 -1.8319
38881SOL     OW20044   9.427   3.303   2.574 -0.2415  0.2904 -0.1156
38881SOL    HW120045   9.393   3.278   2.659 -1.4882 -0.3469 -0.7749
38881SOL    HW220046   9.426   3.399   2.575  0.0696  0.2906  0.6905
38882SOL     OW20047   1.262   9.448   1.030  0.0940 -0.6480 -0.2929
38882SOL    HW120048   1.296   9.380   1.087 -1.2015 -1.0903 -0.0192
38882SOL    HW220049   1.241   9.403   0.948  1.1804 -0.1678 -0.8629
38883SOL     OW20050  10.382   7.330   2.010 -0.3993 -0.2995  0.6699
38883SOL    HW120051  10.388   7.280   1.929 -2.0652 -2.9451  2.0740
38883SOL    HW220052  10.457   7.301   2.062  1.0732  1.8972 -0.0468
38884SOL     OW20053   5.115   6.340   7.943  0.1509 -0.0347  0.2697
38884SOL    HW120054   5.180   6.300   7.885  0.4995 -0.2188  0.7846
38884SOL    HW220055   5.038   6.283   7.935  0.0585  0.1580 -0.3048
38885SOL     OW20056   6.562   5.003   4.181  0.1624 -0.4803 -0.2603
38885SOL    HW120057   6.534   5.063   4.113  0.1278 -0.2989 -0.0879
38885SOL    HW220058   6.576   5.059   4.258  1.0743 -0.5463 -0.3654
38886SOL     OW20059  10.455   7.744   3.561 -0.0254  0.2085 -0.2949
38886SOL    HW120060  10.481   7.675   3.621  1.2199  0.2970 -0.7045
38886SOL    HW220061  10.416   7.811   3.617  0.9005  0.1936  0.3785
38887SOL     OW20062   2.339  10.157   2.741  0.2279 -0.7044 -0.1387
38887SOL    HW120063   2.244  10.166   2.732  0.2327 -1.9279 -2.0101
38887SOL    HW220064   2.351  10.079   2.795  0.1724 -0.4520  0.2404
38888SOL     OW20065   7.911   3.890   6.612  0.6529 -0.5084  0.2947
38888SOL    HW120066   7.993   3.936   6.624 -0.2160  0.6666  2.3079
38888SOL    HW220067   7.911   3.863   6.520  2.2494  1.4348 -0.3425
38889SOL     OW20068   6.061   0.779   7.879 -0.1028  0.0703 -0.3205
38889SOL    HW120069   6.132   0.778   7.814 -0.7255 -1.3404 -1.0165
38889SOL    HW220070   6.092   0.840   7.946  1.5698 -0.1542 -0.8257
38890SOL     OW20071   2.286   9.918   8.173  0.1580 -0.3626 -0.0503
38890SOL    HW120072   2.285  10.004   8.217  1.2963  0.7344 -2.0233
38890SOL    HW220073   2.254   9.937   8.084  0.3353 -2.0110 -0.4905
38891SOL     OW20074   4.025  10.203  10.722  0.4009  0.1527 -0.0191
38891SOL    HW120075   4.033  10.216  10.816  2.1006 -0.9390  0.0229
38891SOL    HW220076   4.054  10.286  10.684  4.3142 -0.8444  0.3850
38892SOL     OW20077   1.699   2.912   5.664  0.0367 -0.3443 -0.6012
38892SOL    HW120078   1.610   2.942   5.682 -0.1037 -0.4587 -1.0871
38892SOL    HW220079   1.725   2.865   5.744  0.4208  1.3836  0.3441
38893SOL     OW20080   7.020   8.380   9.100  0.4347 -0.1441 -0.2716
38893SOL    HW120081   6.941   8.326   9.105  0.6847 -0.5062 -0.1409
38893SOL    HW220082   7.089   8.326   9.140  0.5988  0.4494  0.2731
38894SOL     OW20083   8.781  10.537   1.548  0.2609  0.9146  0.2792
38894SOL    HW120084   8.745  10.466   1.494  0.1340  1.3409 -0.2089
38894SOL    HW220085   8.855  10.571   1.498  1.4195 -0.0020  1.3153
38895SOL     OW20086   6.085   9.331   9.432  0.0012  0.1735 -0.1014
38895SOL    HW120087   6.089   9.383   9.512  1.1251 -0.5805  0.3627
38895SOL    HW220088   6.027   9.258   9.454  1.8697 -1.1274  0.7385
38896SOL     OW20089   0.130   0.777   6.346 -0.0981  0.7446 -0.1902
38896SOL    HW120090   0.223   0.782   6.368  0.1385 -3.3900  0.4955
38896SOL    HW220091   0.126   0.804   6.254  1.7489  0.9759 -0.2436
38897SOL     OW20092   6.282  10.588  10.488 -0.0644  0.0491  0.0989
38897SOL    HW120093   6.194  10.601  10.525  0.9502 -1.2510  3.2478
38897SOL    HW220094   6.285  10.496  10.464  0.7433 -0.1376  0.8936
38898SOL     OW20095   4.643   0.139   6.997 -0.3996 -0.3795 -0.1103
38898SOL    HW120096   4.597   0.100   7.071  0.1197 -0.3768  0.2178
38898SOL    HW220097   4.697   0.069   6.962 -0.4731 -0.3185 -0.3520
38899SOL     OW20098   3.389  10.768   7.116 -0.2705 -0.1048  0.1384
38899SOL    HW120099   3.436  10.762   7.198  0.0237  0.4277  0.0149
38899SOL    HW220100   3.383  10.678   7.084  1.4057 -0.1028 -0.2571
38900SOL     OW20101   2.216   1.531   0.326 -0.2124 -0.4831 -0.0436
38900SOL    HW120102   2.125   1.557   0.331 -0.3557 -1.1586  1.4629
38900SOL    HW220103   2.266   1.609   0.348 -0.3586  0.1239 -1.7267
38901SOL     OW20104   0.069   6.968   8.459  0.5032 -0.2585  0.0461
38901SOL    HW120105   0.041   6.999   8.373  0.6058 -0.1898  0.0369
38901SOL    HW220106  -0.013   6.953   8.507  0.4528  1.5653  0.6134
38902SOL     OW20107  10.170  10.692   6.546  0.7049 -0.2444 -0.0726
38902SOL    HW120108  10.087  10.646   6.531  1.2883 -1.2397 -0.3203
38902SOL    HW220109  10.204  10.655   6.627  0.2060  1.2373  0.8542
38903SOL     OW20110   6.551   2.349   2.143  0.5704 -0.1337 -0.1972
38903SOL    HW120111   6.526   2.396   2.064 -2.0435 -0.7731  0.1546
38903SOL    HW220112   6.514   2.262   2.133  0.7377 -0.4379  1.4351
38904SOL     OW20113   4.033   8.080   8.119 -0.1615  0.7928  0.5741
38904SOL    HW120114   4.121   8.044   8.125  0.7292  2.6313 -0.6408
38904SOL    HW220115   4.005   8.090   8.210  0.2459 -1.1748  0.9586
38905SOL     OW20116   2.449   7.345   7.952  0.1332  0.1961 -0.0954
38905SOL    HW120117   2.391   7.393   7.893  1.6820  1.4559 -0.6803
38905SOL    HW220118   2.434   7.385   8.038 -1.9214 -1.4541  0.3924
38906SOL     OW20119   6.416   2.493   0.061  0.7785 -0.5948  0.7300
38906SOL    HW120120   6.494   2.440   0.076  1.1473  0.1959  1.6174
38906SOL    HW220121   6.433   2.576   0.104 -1.1952 -0.9534  2.3861
38907SOL     OW20122   3.980   7.153   4.166  0.0210 -0.2064 -0.0672
38907SOL    HW120123   4.039   7.084   4.137  1.0417  0.6664 -0.1025
38907SOL    HW220124   4.001   7.167   4.258 -1.0799 -0.8146  0.3044
38908SOL     OW20125  10.919   2.273   0.200  0.0620 -0.4707  0.5067
38908SOL    HW120126  10.834   2.265   0.157  0.3675 -0.6462 -0.0686
38908SOL    HW220127  10.982   2.280   0.129  0.5978 -0.9452  0.9229
38909SOL     OW20128   2.455   7.608   9.058  0.2144  0.1287 -0.1658
38909SOL    HW120129   2.365   7.638   9.047 -0.0662 -0.8002 -0.5230
38909SOL    HW220130   2.482   7.579   8.971  1.3473  1.6424 -0.3555
38910SOL     OW20131  10.719   0.552   9.514 -0.4288  0.3567  0.0081
38910SOL    HW120132  10.748   0.499   9.439  0.8070  1.3288 -0.2240
38910SOL    HW220133  10.628   0.524   9.529 -0.0959 -1.1942 -0.6511
38911SOL     OW20134   6.880   9.522   1.160 -0.1035 -0.1145 -0.3347
38911SOL    HW120135   6.933   9.596   1.191  0.4215 -0.0775 -1.2972
38911SOL    HW220136   6.839   9.488   1.240 -1.4186  2.0112 -0.0168
38912SOL     OW20137   3.865   9.730   7.652 -0.0894 -0.5374 -0.7284
38912SOL    HW120138   3.817   9.813   7.642  1.5300  0.3557 -1.4850
38912SOL    HW220139   3.935   9.750   7.713 -1.0361 -2.0331  0.9419
38913SOL     OW20140   6.825   5.068   3.333 -0.5289  0.2945 -0.2508
38913SOL    HW120141   6.811   5.137   3.398 -0.2365 -0.8140  1.0436
38913SOL    HW220142   6.850   4.991   3.385 -1.7599 -1.0619 -1.5610
38914SOL     OW20143  10.520   9.165   4.075 -0.1904 -0.5696  0.5220
38914SOL    HW120144  10.539   9.126   4.160 -2.0840 -1.4300  0.6059
38914SOL    HW220145  10.511   9.259   4.093 -2.0608 -0.9051  1.6126
38915SOL     OW20146   3.019   5.751   2.011  0.0741 -0.3057 -0.4293
38915SOL    HW120147   2.986   5.792   1.930 -0.2179  1.7808  0.6671
38915SOL    HW220148   3.105   5.791   2.024 -0.1647 -0.1108  0.6217
38916SOL     OW20149  10.379   2.494   2.146  0.5848 -0.1468  0.2834
38916SOL    HW120150  10.335   2.518   2.064 -1.5047 -0.2136  1.3163
38916SOL    HW220151  10.468   2.469   2.119  0.6742  1.9752 -1.6556
38917SOL     OW20152   9.048   6.205   1.069  0.1642  0.5451 -0.4191
38917SOL    HW120153   8.991   6.129   1.057 -1.8308  2.0024 -0.7246
38917SOL    HW220154   9.009   6.273   1.014  0.3076  2.5728  1.8084
38918SOL     OW20155   6.418   1.694  10.699 -0.5568 -0.5781 -0.0274
38918SOL    HW120156   6.414   1.609  10.742 -0.2111 -0.1514  0.8717
38918SOL    HW220157   6.328   1.714  10.676 -0.4338 -2.1829 -2.3055
38919SOL     OW20158   3.555   7.497   5.284  0.0371 -0.0049  0.6856
38919SOL    HW120159   3.483   7.475   5.344 -0.4679  0.4829  0.2746
38919SOL    HW220160   3.553   7.593   5.280  0.4269 -0.0107  0.3203
38920SOL     OW20161   4.479   8.983   7.917  0.1508 -0.3097 -0.6947
38920SOL    HW120162   4.473   8.956   7.825  0.4074 -0.8098 -0.5663
38920SOL    HW220163   4.417   8.926   7.962 -1.5117  1.2895 -0.8395
38921SOL     OW20164   0.950   9.784   4.392  0.1063  0.4172 -0.4306
38921SOL    HW120165   0.977   9.842   4.463  0.1410 -0.3026  0.1570
38921SOL    HW220166   0.891   9.721   4.433  1.2146 -0.8712 -0.7152
38922SOL     OW20167   4.992   2.220   5.957  0.0294  0.5627  0.0367
38922SOL    HW120168   5.079   2.185   5.939 -0.2097 -0.0790  0.0836
38922SOL    HW220169   4.983   2.215   6.052 -0.2204  0.2131 -0.0016
38923SOL     OW20170   8.784   4.316   9.674  0.3962 -0.3319  0.4258
38923SOL    HW120171   8.846   4.260   9.721  1.4997  0.4491 -0.0408
38923SOL    HW220172   8.772   4.392   9.731  0.4568 -0.1435  0.1928
38924SOL     OW20173   8.849   9.971   6.204 -0.3364 -0.3617 -0.1670
38924SOL    HW120174   8.828  10.064   6.208 -0.5134 -0.3980 -0.2489
38924SOL    HW220175   8.769   9.929   6.173 -1.3436 -0.9214  2.8840
38925SOL     OW20176   8.874   3.614   2.911 -0.2370 -0.2498 -0.2053
38925SOL    HW120177   8.887   3.525   2.943  1.1219 -0.2318 -0.6545
38925SOL    HW220178   8.844   3.663   2.988  2.1293 -0.3903  0.9145
38926SOL     OW20179   0.526   2.674   9.581 -0.1634 -0.4636  0.0176
38926SOL    HW120180   0.553   2.766   9.589 -0.5678 -0.1711 -1.5244
38926SOL    HW220181   0.534   2.655   9.488 -0.5078 -1.8718  0.2546
38927SOL     OW20182   9.710  10.702   9.072  0.1164  0.6144 -0.0605
38927SOL    HW120183   9.761  10.747   9.006 -2.2215 -0.0554 -2.4904
38927SOL    HW220184   9.759  10.622   9.090  1.3021  1.2996 -0.1885
38928SOL     OW20185   9.738   3.852  10.286 -0.4095 -0.0248  0.2455
38928SOL    HW120186   9.813   3.905  10.257  0.0068 -0.9637 -0.4095
38928SOL    HW220187   9.747   3.770  10.239 -1.4963 -0.3946  0.6697
38929SOL     OW20188   4.704  10.477   7.862  0.9532 -0.4533 -0.1532
38929SOL    HW120189   4.756  10.398   7.879 -1.1477 -2.1097 -0.9819
38929SOL    HW220190   4.658  10.494   7.944  0.3561 -0.9471 -0.3768
38930SOL     OW20191   4.726   7.705   8.410 -0.0709  0.4480  0.2138
38930SOL    HW120192   4.692   7.760   8.339 -0.2356  0.0928  0.0111
38930SOL    HW220193   4.665   7.718   8.482  0.5698  1.4679  0.5899
38931SOL     OW20194   9.971   5.318   8.786  0.7756  0.0551  0.1569
38931SOL    HW120195  10.024   5.363   8.720 -0.4163  2.4369  0.7054
38931SOL    HW220196  10.031   5.303   8.858  1.0209  1.7205  0.3406
38932SOL     OW20197   8.796   4.062   5.172 -0.2372 -0.2655  0.3133
38932SOL    HW120198   8.808   4.083   5.265 -0.3882  0.6472  0.1344
38932SOL    HW220199   8.744   3.981   5.172  0.5891 -0.8243  1.0271
38933SOL     OW20200   4.867   1.348   7.071 -0.5421  0.2315  0.0656
38933SOL    HW120201   4.796   1.333   7.133 -0.6177 -0.7820 -0.2506
38933SOL    HW220202   4.824   1.359   6.986 -0.4084  1.1457  0.1025
38934SOL     OW20203   7.455   2.419   1.907 -0.4083 -0.6178 -0.6902
38934SOL    HW120204   7.379   2.360   1.906  0.4310 -1.8235 -3.2598
38934SOL    HW220205   7.429   2.491   1.849 -0.1747 -0.1894 -0.2686
38935SOL     OW20206   2.332   3.980   6.107 -0.0538 -0.1121 -0.0978
38935SOL    HW120207   2.354   4.073   6.105  0.4571 -0.2048  0.6594
38935SOL    HW220208   2.237   3.977   6.101  0.0297  0.3510 -2.4661
38936SOL     OW20209   3.512   4.446   9.210  0.3276  0.7190  0.3650
38936SOL    HW120210   3.539   4.370   9.261  0.6402  0.8945  0.4644
38936SOL    HW220211   3.457   4.497   9.269 -1.2982 -0.2623 -0.2297
38937SOL     OW20212   4.111   0.642   7.775  0.0314 -0.0986 -0.1136
38937SOL    HW120213   4.080   0.625   7.864  0.8943  0.3019  0.2749
38937SOL    HW220214   4.042   0.607   7.719 -0.8402  0.2427  0.7138
38938SOL     OW20215  10.550   2.360   1.971  0.0698  0.5829  0.4497
38938SOL    HW120216  10.608   2.372   1.897 -0.2845  2.3789  0.4207
38938SOL    HW220217  10.507   2.276   1.955  2.4479 -0.6997  0.3785
38939SOL     OW20218  10.271   9.955   1.433 -0.7413 -0.5924 -0.2014
38939SOL    HW120219  10.279  10.029   1.373 -1.1747 -1.0473 -0.8297
38939SOL    HW220220  10.177   9.940   1.440 -0.6449 -1.3264 -0.3860
38940SOL     OW20221   3.529   7.282   3.240  0.3424  0.1657  0.1313
38940SOL    HW120222   3.440   7.295   3.275  0.2656 -0.5891  0.2538
38940SOL    HW220223   3.515   7.255   3.149  0.3312 -1.6603  0.6262
38941SOL     OW20224   9.188   9.258   0.218 -0.1481 -0.6624  0.6182
38941SOL    HW120225   9.103   9.291   0.247 -0.6673 -1.2675 -0.1540
38941SOL    HW220226   9.167   9.204   0.141  1.0445 -0.0179 -0.1874
38942SOL     OW20227   2.131   9.668   1.297 -0.0984  0.8238 -0.3178
38942SOL    HW120228   2.057   9.640   1.351 -1.8342  1.0625 -2.4049
38942SOL    HW220229   2.099   9.660   1.207  1.6462  3.0344 -1.2456
38943SOL     OW20230   3.987   3.925   9.671 -0.1027 -0.0258 -0.3361
38943SOL    HW120231   3.996   3.847   9.616  0.5610  0.1064 -0.4341
38943SOL    HW220232   4.061   3.980   9.646 -0.2438  0.3858  0.1313
38944SOL     OW20233   9.398   2.905   8.793 -0.3180 -0.2780  0.2187
38944SOL    HW120234   9.461   2.905   8.865  1.2893 -1.1344 -1.1108
38944SOL    HW220235   9.414   2.822   8.747  0.9162  1.5039 -2.9077
38945SOL     OW20236   4.097   1.970  10.084  0.7625 -0.3154  0.4361
38945SOL    HW120237   4.169   1.913  10.110  1.3774  0.0291 -0.4614
38945SOL    HW220238   4.114   2.053  10.129  1.1904 -0.0862 -0.1395
38946SOL     OW20239   7.154   2.511   7.141  0.4387 -0.1852 -0.2746
38946SOL    HW120240   7.179   2.592   7.186 -1.2067  0.0418  0.2702
38946SOL    HW220241   7.195   2.442   7.193 -2.9497 -0.0944  2.9434
38947SOL     OW20242   3.183   6.551   9.336 -0.0797 -0.4076  0.3976
38947SOL    HW120243   3.112   6.517   9.391 -1.2596  0.7589 -0.3790
38947SOL    HW220244   3.140   6.583   9.257  0.7879  3.5145  1.2956
38948SOL     OW20245   2.831   8.170   7.738 -0.2789  0.5337 -0.1659
38948SOL    HW120246   2.871   8.248   7.777  1.6869 -0.8537  0.7662
38948SOL    HW220247   2.740   8.172   7.768  0.8701  0.0565  3.8616
38949SOL     OW20248   5.920   7.937   6.097  0.2991 -0.0376  0.2417
38949SOL    HW120249   5.837   7.936   6.144 -0.3233 -2.1471 -0.7821
38949SOL    HW220250   5.978   7.882   6.149  0.3511 -0.3896 -0.1821
38950SOL     OW20251   7.877   6.179   2.724 -0.1554 -0.5507 -0.2097
38950SOL    HW120252   7.852   6.170   2.632  1.1788 -0.7993 -0.5729
38950SOL    HW220253   7.794   6.176   2.772 -0.7850 -1.8730 -1.2945
38951SOL     OW20254   0.029   3.042   9.813 -0.5855 -0.4503  0.3543
38951SOL    HW120255   0.020   3.018   9.905  1.4146 -0.7022  0.5386
38951SOL    HW220256   0.012   3.136   9.811 -1.3898 -0.5794  0.8471
38952SOL     OW20257   9.827   1.748   8.429  0.9165  0.5811 -0.4600
38952SOL    HW120258   9.907   1.787   8.464  0.0049  1.7700  0.3471
38952SOL    HW220259   9.799   1.809   8.361  0.2949  0.5422 -0.2373
38953SOL     OW20260  10.374   1.786   6.613 -0.1312 -0.0883  0.2443
38953SOL    HW120261  10.386   1.702   6.657 -0.1344  0.1407  0.6848
38953SOL    HW220262  10.355   1.763   6.522  0.5506 -0.5434  0.2113
38954SOL     OW20263   0.421   2.297   4.831  0.3869 -0.4405 -0.3441
38954SOL    HW120264   0.489   2.324   4.893  1.3047 -0.7656 -1.1945
38954SOL    HW220265   0.347   2.271   4.887  0.9827 -0.1539  0.5908
38955SOL     OW20266   0.944   1.277   3.945  0.1462 -0.3374 -0.4861
38955SOL    HW120267   0.923   1.257   4.036 -1.0636  0.4972 -0.5586
38955SOL    HW220268   1.010   1.212   3.921  0.5373 -0.5263  0.9968
38956SOL     OW20269   1.480  10.365   5.021 -0.3704 -0.4949  0.5646
38956SOL    HW120270   1.395  10.401   4.994 -0.6551 -0.3433  1.6381
38956SOL    HW220271   1.514  10.323   4.941 -1.3416 -0.3540  0.0600
38957SOL     OW20272   8.084   6.831   0.467 -0.7283  0.8504 -0.6753
38957SOL    HW120273   8.083   6.755   0.525  1.6787  1.0367 -0.2782
38957SOL    HW220274   8.080   6.906   0.526 -0.9556  1.0470 -0.9362
38958SOL     OW20275   0.845   0.781   7.685  0.9941  0.0280  0.3910
38958SOL    HW120276   0.931   0.820   7.667  1.0898  0.7421  2.1654
38958SOL    HW220277   0.858   0.733   7.768 -0.0254 -0.8681  0.0555
38959SOL     OW20278   3.978   2.389   7.281 -0.1818 -0.5008  0.6760
38959SOL    HW120279   3.986   2.320   7.215 -1.8538  1.0319 -1.2502
38959SOL    HW220280   4.051   2.447   7.264 -1.0947  0.3551 -0.4711
38960SOL     OW20281  10.340  10.909   7.047 -0.4327 -0.1466 -0.0432
38960SOL    HW120282  10.260  10.868   7.015  0.0336 -2.3388  1.4070
38960SOL    HW220283  10.313  10.955   7.126 -1.0461  2.9924 -1.8915
38961SOL     OW20284   6.142  10.817   1.967 -0.2973 -0.1860  0.6461
38961SOL    HW120285   6.054  10.856   1.965 -0.1103  0.2316  0.2894
38961SOL    HW220286   6.197  10.885   2.005 -0.4451 -1.1314  2.6503
38962SOL     OW20287   8.300   7.076   4.846 -0.1183 -0.1299 -0.3471
38962SOL    HW120288   8.374   7.053   4.902 -0.7577  1.5099  1.2784
38962SOL    HW220289   8.332   7.063   4.756  2.4698  1.3540  0.2535
38963SOL     OW20290   9.983   6.566  10.373  0.2927  0.3081  0.2585
38963SOL    HW120291   9.896   6.576  10.411  0.9672  1.6171  1.5888
38963SOL    HW220292   9.993   6.642  10.316  0.7429  0.4311  0.4993
38964SOL     OW20293  10.627   5.472   2.128 -0.1127  0.3407 -0.0829
38964SOL    HW120294  10.669   5.416   2.193 -1.7786 -0.1382  0.6596
38964SOL    HW220295  10.618   5.416   2.051 -0.7742 -0.0853  0.2874
38965SOL     OW20296   9.763   5.485   6.974  0.7418 -0.1137  0.1463
38965SOL    HW120297   9.702   5.426   6.930 -0.2142  1.7463 -1.1739
38965SOL    HW220298   9.753   5.464   7.067  0.2986 -1.8419 -0.2495
38966SOL     OW20299   0.734   7.137   9.560  0.4343  0.1055 -0.5372
38966SOL    HW120300   0.828   7.152   9.569  0.6187 -0.5201 -1.2498
38966SOL    HW220301   0.725   7.102   9.471 -0.4178 -0.2449 -0.3167
38967SOL     OW20302   3.869   1.716  10.474  0.5001  0.3902 -0.4577
38967SOL    HW120303   3.878   1.653  10.402  1.4976  0.2401 -0.2135
38967SOL    HW220304   3.789   1.765  10.453  0.3957 -0.1196 -1.2980
38968SOL     OW20305   2.141   6.062   9.118 -0.1961  0.2093 -0.4222
38968SOL    HW120306   2.149   6.145   9.072  0.4094  0.3274 -0.1081
38968SOL    HW220307   2.138   6.085   9.211  0.0685 -0.1215 -0.3296
38969SOL     OW20308   0.414   5.363   9.711 -0.5330  0.5386  0.1047
38969SOL    HW120309   0.426   5.279   9.665  0.1052  0.4593  0.4049
38969SOL    HW220310   0.328   5.355   9.752 -2.3729  1.6134 -3.1462
38970SOL     OW20311   2.416   8.731   1.853 -0.1672  0.7929  0.0344
38970SOL    HW120312   2.471   8.656   1.830  1.0612  1.6248  0.2126
38970SOL    HW220313   2.351   8.694   1.913  0.7003 -0.0494  0.4891
38971SOL     OW20314  10.420   5.857   0.398 -0.1162  0.0824  0.3537
38971SOL    HW120315  10.375   5.805   0.332  0.2382  0.7068 -0.3985
38971SOL    HW220316  10.452   5.794   0.462 -0.2148 -0.5520 -0.2221
38972SOL     OW20317   0.029   2.815   8.166  0.5266 -0.6907  0.1508
38972SOL    HW120318   0.109   2.799   8.118  0.0814  0.6884 -1.1274
38972SOL    HW220319  -0.039   2.824   8.099  0.0320  2.0955  0.8849
38973SOL     OW20320  10.331   4.886   3.539  0.6560  0.2334 -0.9673
38973SOL    HW120321  10.395   4.944   3.498  0.0668  0.4267 -1.6261
38973SOL    HW220322  10.281   4.943   3.598 -0.7998  0.7137 -2.5934
38974SOL     OW20323   3.756   7.388   3.540 -0.5704  0.3020  0.2160
38974SOL    HW120324   3.695   7.405   3.468 -1.6545 -0.7674  0.8361
38974SOL    HW220325   3.775   7.474   3.577 -1.3281  0.7032 -0.2946
38975SOL     OW20326   1.231   1.821   1.935 -0.0862  0.1486  0.2938
38975SOL    HW120327   1.229   1.864   2.021 -0.1683  0.2422  0.2452
38975SOL    HW220328   1.291   1.748   1.947 -0.5134 -0.1657  0.5929
38976SOL     OW20329   5.098  10.556   9.030 -0.0413  0.1289  0.5610
38976SOL    HW120330   5.110  10.605   9.112 -0.7480  1.2582 -0.0002
38976SOL    HW220331   5.183  10.513   9.016  0.0471 -0.2107  1.9614
38977SOL     OW20332   1.538   6.485   6.526 -0.5137  0.7032  0.7358
38977SOL    HW120333   1.537   6.462   6.433  0.6285 -1.9282  1.2792
38977SOL    HW220334   1.460   6.540   6.538 -1.8218 -0.5501 -1.3910
38978SOL     OW20335   4.822   8.688  10.576  0.3396  0.1409 -0.0828
38978SOL    HW120336   4.808   8.778  10.548  0.8886  0.3854  0.3917
38978SOL    HW220337   4.875   8.696  10.656 -0.5688 -0.5519  0.6177
38979SOL     OW20338   0.322   0.719   5.451  0.1507  0.0351  0.4651
38979SOL    HW120339   0.333   0.645   5.392 -1.6330 -0.1266  0.2900
38979SOL    HW220340   0.392   0.709   5.515  1.1441 -0.6827 -0.6763
38980SOL     OW20341   2.540   0.033   6.385 -0.0602 -0.3451 -0.1252
38980SOL    HW120342   2.619   0.087   6.389  0.5444 -1.0879 -1.3772
38980SOL    HW220343   2.509   0.029   6.475  0.7646  0.7889  0.2330
38981SOL     OW20344   9.411  10.168   1.335  0.2199 -0.1015 -0.2990
38981SOL    HW120345   9.506  10.172   1.326  0.2073  1.6132 -0.1049
38981SOL    HW220346   9.387  10.081   1.304  1.9373 -0.9500  0.6431
38982SOL     OW20347   3.589   3.913  10.622  0.0484  0.0455  0.0956
38982SOL    HW120348   3.498   3.927  10.599  0.9154  2.8193 -2.2658
38982SOL    HW220349   3.623   3.855  10.554  0.1371 -0.7898  0.8315
38983SOL     OW20350   9.766   6.584   9.023 -0.4184 -0.0633 -0.1178
38983SOL    HW120351   9.684   6.550   9.058 -0.1835  1.4236  2.0757
38983SOL    HW220352   9.834   6.533   9.066 -0.1450  0.4846  0.1057
38984SOL     OW20353  10.074   6.106   9.612  0.3674  0.0423  0.3103
38984SOL    HW120354  10.096   6.197   9.630  1.4543 -0.3419  0.9821
38984SOL    HW220355  10.158   6.062   9.597 -0.1588 -0.7893 -0.3435
38985SOL     OW20356   9.969   1.967   1.916 -0.2936  0.3564 -0.2285
38985SOL    HW120357   9.902   2.035   1.919 -0.6064  0.0297  0.4443
38985SOL    HW220358  10.035   1.995   1.980  0.2631  0.7217 -0.9506
38986SOL     OW20359   4.336   1.953   1.574  0.2223 -0.5773 -0.9266
38986SOL    HW120360   4.362   1.919   1.660 -0.6537 -0.0169 -0.4201
38986SOL    HW220361   4.358   2.046   1.577 -0.7420 -0.3347 -0.9053
38987SOL     OW20362   4.764   7.968  10.835  0.0701 -0.2344 -0.0799
38987SOL    HW120363   4.819   7.916  10.893 -1.0724 -0.7917  0.5282
38987SOL    HW220364   4.751   7.913  10.758 -0.9159 -0.7665  0.4492
38988SOL     OW20365  10.870   7.795   7.278 -0.3320  0.0461 -0.4857
38988SOL    HW120366  10.776   7.781   7.266 -0.8333  2.9284 -0.5172
38988SOL    HW220367  10.880   7.890   7.280  2.7837 -0.1349 -1.9414
38989SOL     OW20368   0.244   9.489   1.991 -0.1033 -0.0560  0.4019
38989SOL    HW120369   0.339   9.477   1.997 -0.0177  0.4853  0.2097
38989SOL    HW220370   0.219   9.532   2.072  0.0262  1.0234 -0.1103
38990SOL     OW20371   8.168   4.813   8.364 -0.0299 -0.6565 -0.5037
38990SOL    HW120372   8.123   4.749   8.420  0.6161 -0.5893  0.1043
38990SOL    HW220373   8.099   4.873   8.335 -0.4947 -1.1243 -0.3809
38991SOL     OW20374   1.188   5.638   6.829 -0.4239  0.2675 -0.0265
38991SOL    HW120375   1.128   5.685   6.887  0.4646  1.7174 -0.2255
38991SOL    HW220376   1.171   5.675   6.743 -1.0819 -1.2146 -0.5707
38992SOL     OW20377   6.295  10.206   8.076 -0.2441 -0.3132 -0.1810
38992SOL    HW120378   6.254  10.213   7.989 -1.4076  1.3121  0.4495
38992SOL    HW220379   6.286  10.114   8.099  0.2453 -0.8226 -1.8441
38993SOL     OW20380  10.480   2.572  10.787 -0.2461 -0.0396  0.2027
38993SOL    HW120381  10.565   2.615  10.796  0.7684 -2.1509  1.5652
38993SOL    HW220382  10.460   2.541  10.875 -0.8515 -2.3903 -0.7084
38994SOL     OW20383   3.320  10.416   7.766 -0.0836 -0.4236 -0.4233
38994SOL    HW120384   3.231  10.402   7.800 -0.1143 -0.1820 -0.4038
38994SOL    HW220385   3.339  10.336   7.716 -0.5882 -0.1662 -1.0301
38995SOL     OW20386   5.833   9.938   0.945  0.9871 -0.1106 -0.2335
38995SOL    HW120387   5.821   9.907   1.035 -0.5310  1.1546  0.0508
38995SOL    HW220388   5.922   9.973   0.944  1.4814 -1.2631  0.3938
38996SOL     OW20389   4.807   7.699   1.647  0.1269  0.3098 -1.0333
38996SOL    HW120390   4.901   7.720   1.641  0.5571 -0.7465  0.9334
38996SOL    HW220391   4.765   7.783   1.663  0.8521  0.6903 -1.0772
38997SOL     OW20392   7.812   2.047   5.041 -0.1769 -0.3173 -0.1375
38997SOL    HW120393   7.855   1.965   5.065 -0.0259  0.3800  2.2876
38997SOL    HW220394   7.727   2.043   5.086 -0.1378  0.8613  0.0726
38998SOL     OW20395   6.452   6.514   4.120 -0.2389 -0.1511 -0.0193
38998SOL    HW120396   6.357   6.520   4.123 -0.2497  0.5282 -1.1249
38998SOL    HW220397   6.470   6.459   4.043  0.2518 -1.0237  0.6988
38999SOL     OW20398   6.537   6.958   8.541  0.1265  0.2952 -0.2709
38999SOL    HW120399   6.599   7.001   8.599 -0.9270  2.0180 -0.3415
38999SOL    HW220400   6.454   7.003   8.557 -0.4688  0.0094 -2.2175
39000SOL     OW20401   6.466   2.144   1.106 -0.3005  0.2934 -0.4803
39000SOL    HW120402   6.428   2.120   1.021 -2.1593 -0.2489  0.4526
39000SOL    HW220403   6.428   2.230   1.126 -2.2045 -0.8319  1.0707
39001SOL     OW20404  10.003  10.641   3.541  0.3644  0.3516 -0.0277
39001SOL    HW120405   9.984  10.585   3.466  0.5243  0.5395 -0.2102
39001SOL    HW220406   9.926  10.698   3.548 -0.2695 -0.5816  0.8056
39002SOL     OW20407   0.793   2.827   1.605 -0.1094 -0.1244  0.3013
39002SOL    HW120408   0.803   2.753   1.664 -0.0531 -0.6458 -0.3503
39002SOL    HW220409   0.821   2.903   1.657 -0.7020 -0.4764  1.1521
39003SOL     OW20410   3.831   8.072   1.522  0.1034 -0.0309 -0.5676
39003SOL    HW120411   3.895   8.028   1.465 -1.1907 -1.6337 -0.8616
39003SOL    HW220412   3.795   8.002   1.576  1.2433  1.4238  2.2931
39004SOL     OW20413   3.236   3.725   8.334  0.1200  0.2243 -0.1251
39004SOL    HW120414   3.165   3.782   8.365 -0.3943 -0.2170 -0.4675
39004SOL    HW220415   3.307   3.786   8.311 -0.4169  0.7347 -0.4825
39005SOL     OW20416   3.042  10.271   0.310  0.2699  0.1356 -0.2893
39005SOL    HW120417   3.045  10.366   0.301 -0.0398  0.0999 -0.8442
39005SOL    HW220418   3.129  10.241   0.286  0.0074  0.1927 -1.3823
39006SOL     OW20419   2.736   9.899   1.999 -0.2131  0.8380  0.0580
39006SOL    HW120420   2.662   9.890   2.058 -0.6778  0.5167 -0.5566
39006SOL    HW220421   2.767   9.810   1.985 -0.6822  0.8021 -0.8787
39007SOL     OW20422   3.502  10.140   9.055  0.2988  0.1088  0.6043
39007SOL    HW120423   3.486  10.072   8.989 -1.2600 -0.3625  1.4243
39007SOL    HW220424   3.584  10.114   9.097  0.5684 -0.3618 -0.1862
39008SOL     OW20425   2.364   4.124   7.043  0.1106 -0.7089 -0.1346
39008SOL    HW120426   2.441   4.068   7.028 -0.2433 -1.5278  0.9423
39008SOL    HW220427   2.395   4.190   7.105  0.7757  0.9034 -2.0774
39009SOL     OW20428   9.200   7.701   6.745 -0.8435  0.0682 -0.3911
39009SOL    HW120429   9.288   7.662   6.741 -0.9727 -0.1740 -1.2045
39009SOL    HW220430   9.169   7.698   6.654 -1.8189 -0.1296 -0.0605
39010SOL     OW20431   9.389   0.184   6.629 -0.4142 -0.3767 -0.2553
39010SOL    HW120432   9.323   0.195   6.698 -0.0428  1.1449 -0.1084
39010SOL    HW220433   9.452   0.123   6.666 -0.6119 -0.1544  0.4624
39011SOL     OW20434  10.446   9.724   2.751 -0.1518 -0.0046  0.4124
39011SOL    HW120435  10.357   9.733   2.784 -1.0245  0.4072 -1.8924
39011SOL    HW220436  10.439   9.739   2.657  3.0196  5.0946  0.5911
39012SOL     OW20437   3.060   5.299   4.190 -0.2475  0.2378 -0.3553
39012SOL    HW120438   3.140   5.327   4.232  0.6799 -0.4246 -1.6035
39012SOL    HW220439   2.990   5.330   4.247  0.9194 -0.2342  1.3970
39013SOL     OW20440   4.072   6.650  10.231 -0.5473 -0.7006  0.9693
39013SOL    HW120441   4.151   6.675  10.278  0.3459 -1.8640  0.1394
39013SOL    HW220442   4.082   6.690  10.145 -0.1436 -2.0280  0.3717
39014SOL     OW20443   3.645   1.599  10.262 -0.2289 -0.4890 -0.1342
39014SOL    HW120444   3.605   1.680  10.230  0.7335  0.3218  0.6276
39014SOL    HW220445   3.704   1.572  10.191  0.2513  0.0890  0.0324
39015SOL     OW20446   1.228   3.084   2.158 -0.4448 -1.3860 -0.4806
39015SOL    HW120447   1.310   3.036   2.172 -0.5925 -1.1015  1.7918
39015SOL    HW220448   1.254   3.175   2.153 -0.5990 -1.2978  0.2096
39016SOL     OW20449   0.008   3.327   9.842  0.7108  0.2832 -0.0450
39016SOL    HW120450  -0.054   3.400   9.850 -0.2195 -0.6807  2.1810
39016SOL    HW220451   0.044   3.337   9.754  0.1607  3.0504 -0.0484
39017SOL     OW20452  10.754   2.338   2.912 -0.8352  0.5506  0.2958
39017SOL    HW120453  10.681   2.287   2.946 -1.7674  2.1954  0.9038
39017SOL    HW220454  10.738   2.427   2.944 -0.5339  1.7375 -2.5236
39018SOL     OW20455   4.678   4.659   2.443  0.5339  0.2490  0.2055
39018SOL    HW120456   4.622   4.602   2.495 -2.7342  1.5751 -1.6118
39018SOL    HW220457   4.730   4.599   2.389 -0.2460 -1.0150  0.8186
39019SOL     OW20458   0.309   5.717   5.777  0.3862  0.3380  0.3380
39019SOL    HW120459   0.326   5.632   5.738  0.6738  0.8269 -0.6319
39019SOL    HW220460   0.266   5.768   5.709 -0.5643  0.7083  1.1814
39020SOL     OW20461   6.038   6.077   3.111 -0.3356  0.0445  0.0467
39020SOL    HW120462   6.066   6.015   3.044  2.6443  0.3437  0.8788
39020SOL    HW220463   5.977   6.026   3.166 -0.0658 -1.2949 -0.8355
39021SOL     OW20464   2.420  10.066   5.704  0.4580  0.6038 -0.0119
39021SOL    HW120465   2.388  10.012   5.776  1.4890  0.2184  0.1892
39021SOL    HW220466   2.500  10.021   5.675 -0.1928  0.4920 -1.7133
39022SOL     OW20467   8.332   4.251   5.254 -0.1861 -0.3141  1.2760
39022SOL    HW120468   8.284   4.258   5.337 -1.1786 -1.3809  0.8080
39022SOL    HW220469   8.420   4.283   5.276 -0.1904 -1.3252  2.9606
39023SOL     OW20470   8.194   2.685   7.861 -0.0856  0.1159  0.4124
39023SOL    HW120471   8.253   2.632   7.915  1.5121 -0.1542 -1.4818
39023SOL    HW220472   8.166   2.626   7.791  0.5867  1.3080 -0.9340
39024SOL     OW20473   1.446   4.110  10.064  0.5763  0.1493 -0.8981
39024SOL    HW120474   1.494   4.087  10.143  2.1192 -0.5994 -2.0115
39024SOL    HW220475   1.449   4.032  10.009 -0.3897  0.6750 -1.7476
39025SOL     OW20476   8.347   0.392   8.738 -0.2825  0.2210 -0.4069
39025SOL    HW120477   8.435   0.429   8.727  0.0965 -0.5394 -0.0320
39025SOL    HW220478   8.336   0.385   8.832 -0.5042 -0.2386 -0.4649
39026SOL     OW20479   2.989   8.595   1.702 -0.0404  0.1670 -0.0573
39026SOL    HW120480   2.919   8.659   1.690  0.6582  0.5965 -2.3303
39026SOL    HW220481   3.068   8.639   1.669  0.8308 -1.1905  0.1267
39027SOL     OW20482   0.299   4.116   7.192  0.0578  0.3320 -0.0963
39027SOL    HW120483   0.268   4.157   7.273 -0.8179  0.7673 -0.6417
39027SOL    HW220484   0.262   4.027   7.195  0.9206 -0.0231  0.4839
39028SOL     OW20485   5.512   3.480   4.535 -0.3405 -0.8345  0.0884
39028SOL    HW120486   5.528   3.388   4.553  0.3380 -1.1027 -1.7129
39028SOL    HW220487   5.546   3.494   4.446  1.6674  1.6730  1.1137
39029SOL     OW20488   6.198   8.048   0.506  0.0648 -0.2772  0.6729
39029SOL    HW120489   6.107   8.068   0.484 -0.0760  0.5240  1.8767
39029SOL    HW220490   6.204   7.953   0.499 -0.9351 -0.3625  0.8067
39030SOL     OW20491   2.852   1.727   0.484  0.0237  0.0211  0.0079
39030SOL    HW120492   2.845   1.650   0.428 -0.7954 -0.1223  0.2956
39030SOL    HW220493   2.798   1.793   0.441  0.3567  0.2936  0.0046
39031SOL     OW20494   4.225   6.110   7.943  0.0553  0.5965 -0.0265
39031SOL    HW120495   4.283   6.137   7.871  1.2003  0.0688  0.6538
39031SOL    HW220496   4.283   6.108   8.020 -0.1885 -2.4632  0.2337
39032SOL     OW20497   5.946   1.730   6.220  0.2717  0.4654 -0.0476
39032SOL    HW120498   5.911   1.784   6.150 -0.4602  1.0654  0.7678
39032SOL    HW220499   6.001   1.789   6.272  1.1683 -0.0746 -0.3474
39033SOL     OW20500   0.917   6.999   2.863 -0.2741 -0.5157 -0.3463
39033SOL    HW120501   0.827   7.024   2.841  0.1583  1.8148  0.2510
39033SOL    HW220502   0.907   6.929   2.928 -1.6605 -0.0763 -0.0577
39034SOL     OW20503   3.315   0.055   4.499 -0.1678 -0.3662  0.1589
39034SOL    HW120504   3.402   0.088   4.479  0.1731  0.0965  2.1722
39034SOL    HW220505   3.259   0.133   4.501 -0.4024 -0.5276  0.0180
39035SOL     OW20506   9.380   7.635   4.763  0.1290 -0.0937  0.5285
39035SOL    HW120507   9.406   7.555   4.808  0.7557  0.6622  1.5365
39035SOL    HW220508   9.462   7.683   4.750 -0.2288  0.3601 -0.1529
39036SOL     OW20509   4.165   0.126  10.003  0.2417  0.0376  0.0859
39036SOL    HW120510   4.212   0.197   9.959  0.2801  1.9050  2.8592
39036SOL    HW220511   4.232   0.058  10.015 -0.0833 -1.1776 -3.6676
39037SOL     OW20512   9.894   5.923   1.979 -0.0475 -0.5848  0.0482
39037SOL    HW120513   9.918   5.892   1.892 -0.7657 -1.5182  0.1582
39037SOL    HW220514   9.871   6.015   1.968  3.0971  0.3151 -0.1357
39038SOL     OW20515   4.479   5.246   1.759 -0.0375  0.7555  0.0134
39038SOL    HW120516   4.551   5.243   1.822 -0.2953  1.6136  0.3767
39038SOL    HW220517   4.459   5.339   1.751 -1.0498  0.5350 -0.1451
39039SOL     OW20518   5.762   3.183   3.639  0.1460  0.0842  0.3704
39039SOL    HW120519   5.669   3.160   3.642  0.5351 -1.6150  0.7036
39039SOL    HW220520   5.790   3.180   3.730  0.3517  1.4862  0.3706
39040SOL     OW20521   5.920   2.078   6.593 -1.0062  0.3555 -0.4075
39040SOL    HW120522   5.951   2.033   6.515 -2.9587 -1.6494 -0.1325
39040SOL    HW220523   5.856   2.018   6.632 -0.2435  1.3356  2.6566
39041SOL     OW20524   7.136  10.830   2.399  0.2352 -0.3125 -0.7280
39041SOL    HW120525   7.169  10.876   2.321 -0.7013  0.7261 -0.5261
39041SOL    HW220526   7.184  10.870   2.472 -0.1948 -0.0289 -0.6013
39042SOL     OW20527   1.031  10.820   0.250  0.4722  0.1241 -0.5510
39042SOL    HW120528   0.972  10.764   0.300  1.9088  0.8348  2.1263
39042SOL    HW220529   1.081  10.759   0.195 -0.1046 -0.8521 -0.0220
39043SOL     OW20530   9.809   3.843   1.834 -0.2810  0.0091 -0.2185
39043SOL    HW120531   9.799   3.767   1.891 -2.9194  0.1359 -0.3885
39043SOL    HW220532   9.752   3.826   1.760 -1.4683  2.3926  0.0394
39044SOL     OW20533   1.254   8.598   7.194  0.2019 -0.1682 -0.3913
39044SOL    HW120534   1.171   8.573   7.153 -0.6642  0.6559  0.7417
39044SOL    HW220535   1.292   8.516   7.224 -0.3767 -0.5384 -0.6483
39045SOL     OW20536   0.690   5.122   2.912  0.4791 -0.0941  0.2195
39045SOL    HW120537   0.699   5.075   2.829  0.5655  2.9728 -1.7000
39045SOL    HW220538   0.596   5.125   2.928  0.2608  1.2670 -1.1083
39046SOL     OW20539   3.484   3.870   4.579 -0.1255  0.6620 -0.2081
39046SOL    HW120540   3.424   3.843   4.510 -0.2657 -0.2719  0.2579
39046SOL    HW220541   3.457   3.959   4.601 -1.3611  0.2558 -0.0035
39047SOL     OW20542   5.045   9.981   0.832  0.5718 -0.1632 -0.3272
39047SOL    HW120543   5.125   9.929   0.825  0.3974 -0.4706 -0.0208
39047SOL    HW220544   4.974   9.918   0.821  0.3706  0.1499 -0.8688
39048SOL     OW20545   3.786   1.375   2.219 -0.0434 -0.3344 -0.3718
39048SOL    HW120546   3.716   1.361   2.154  0.6634 -1.4839 -0.9245
39048SOL    HW220547   3.860   1.407   2.168 -0.0328  0.5088  0.1565
39049SOL     OW20548   7.697   5.285  10.857 -0.0432  0.5573  0.7324
39049SOL    HW120549   7.786   5.268  10.825 -0.2894  2.0944 -0.9648
39049SOL    HW220550   7.642   5.224  10.808 -0.1032  0.8499  0.4311
39050SOL     OW20551   2.607   5.316   1.876  0.2465 -0.0036  0.3744
39050SOL    HW120552   2.583   5.408   1.865  0.1557  0.0982  1.3054
39050SOL    HW220553   2.695   5.318   1.913  1.1424 -0.3489 -1.6523
39051SOL     OW20554   6.089   5.324   1.222  0.0504  0.8459 -0.4629
39051SOL    HW120555   6.176   5.362   1.212  0.6022 -0.4980 -0.8817
39051SOL    HW220556   6.098   5.258   1.290 -1.1176  2.0260  0.9252
39052SOL     OW20557   9.124  10.099   3.128 -0.3696  0.1668  0.0358
39052SOL    HW120558   9.170  10.021   3.158 -1.4153 -0.4866 -0.0215
39052SOL    HW220559   9.193  10.158   3.099  0.4501 -0.6129  0.3652
39053SOL     OW20560   8.270   3.640   7.107 -0.2604 -0.2552 -0.7061
39053SOL    HW120561   8.291   3.615   7.017 -3.8322 -3.0277 -0.9737
39053SOL    HW220562   8.338   3.597   7.160  0.6678 -0.3495 -1.9356
39054SOL     OW20563   8.616   6.750   3.202  0.9011  0.4440  0.6054
39054SOL    HW120564   8.626   6.746   3.107  0.6094 -0.6703  0.6095
39054SOL    HW220565   8.703   6.773   3.235  0.6336  2.5813  0.0044
39055SOL     OW20566   1.507   4.101   7.944  0.2003  0.3873  0.0252
39055SOL    HW120567   1.455   4.158   7.888  1.3093  0.4215 -1.0101
39055SOL    HW220568   1.460   4.100   8.028 -0.9804  1.0899 -0.6039
39056SOL     OW20569   9.348  10.030   7.019  0.0783  0.0257 -0.0712
39056SOL    HW120570   9.396  10.094   6.967 -0.4665  0.9917  0.5855
39056SOL    HW220571   9.363  10.056   7.110  1.1709 -1.7375  0.3146
39057SOL     OW20572   5.252   8.190   1.270 -0.1862  0.0559  0.3143
39057SOL    HW120573   5.291   8.222   1.188 -0.5147 -0.9368 -0.2523
39057SOL    HW220574   5.279   8.098   1.275 -3.1298 -0.9819 -0.5905
39058SOL     OW20575   6.631   0.863   4.268  0.1411 -0.1841  0.3757
39058SOL    HW120576   6.655   0.809   4.193  1.4696  1.7643 -0.6891
39058SOL    HW220577   6.545   0.899   4.247  0.4668  0.2782 -0.1996
39059SOL     OW20578   3.235   2.372   0.570 -0.0093  0.5714 -0.7346
39059SOL    HW120579   3.300   2.315   0.529  1.8326  0.6922  1.8020
39059SOL    HW220580   3.263   2.460   0.548  0.7039  0.6220  0.3160
39060SOL     OW20581   6.885   8.177   3.116 -0.3635 -0.1936 -0.2201
39060SOL    HW120582   6.961   8.122   3.096  0.3635  0.9805 -0.8208
39060SOL    HW220583   6.870   8.226   3.036  0.4499  2.1274  0.9521
39061SOL     OW20584   2.628   7.138   7.437  0.3351 -0.5497  0.2548
39061SOL    HW120585   2.701   7.078   7.424  0.2225 -0.4428 -1.0044
39061SOL    HW220586   2.661   7.203   7.499  0.2094 -2.2878  2.2239
39062SOL     OW20587   2.776   7.186   6.981 -0.1986  0.4083  0.5580
39062SOL    HW120588   2.698   7.213   6.932 -0.6546 -0.4001  0.8170
39062SOL    HW220589   2.820   7.124   6.923 -0.0080  0.4906  0.6149
39063SOL     OW20590  10.178   6.169   1.264 -0.3425 -0.0773  0.0283
39063SOL    HW120591  10.093   6.209   1.244 -0.9568 -1.1375  0.4178
39063SOL    HW220592  10.192   6.107   1.192  0.9209  1.2570 -0.9370
39064SOL     OW20593   8.590   1.068   1.304 -0.3748  0.3658 -0.2319
39064SOL    HW120594   8.682   1.093   1.292 -0.0779 -0.6177 -0.1410
39064SOL    HW220595   8.571   1.091   1.395  0.2510 -0.7720  0.2119
39065SOL     OW20596   9.633   3.700  10.040  0.5168  0.3689  0.0396
39065SOL    HW120597   9.666   3.634  10.101 -0.3221  0.8946  1.0910
39065SOL    HW220598   9.538   3.695  10.048  0.4222  2.6011  1.1824
39066SOL     OW20599  10.900   2.765   3.634 -0.3511 -0.6343 -0.1835
39066SOL    HW120600  10.959   2.737   3.565  0.2207  0.3141 -0.0851
39066SOL    HW220601  10.821   2.712   3.620  0.3402 -1.6050 -0.5708
39067SOL     OW20602   9.841   9.154   1.858  0.1838  0.3471 -0.1453
39067SOL    HW120603   9.806   9.205   1.931 -0.0589 -0.3544  0.2424
39067SOL    HW220604   9.936   9.159   1.868  0.1612 -0.7319  0.9557
39068SOL     OW20605   0.165   0.533   7.362  0.1638  0.1697 -0.0576
39068SOL    HW120606   0.088   0.585   7.385  0.2383  0.6557 -0.8863
39068SOL    HW220607   0.237   0.597   7.359  0.8704 -0.4534  1.9163
39069SOL     OW20608   4.168   2.486   8.885 -0.8504 -0.9710  0.2063
39069SOL    HW120609   4.261   2.469   8.898 -0.8076 -1.4345 -0.6127
39069SOL    HW220610   4.145   2.435   8.807 -1.5431 -0.0230 -0.2335
39070SOL     OW20611   6.652   9.392   5.593 -0.3654  0.6097 -0.1104
39070SOL    HW120612   6.647   9.377   5.687  0.9228 -0.8193 -0.2361
39070SOL    HW220613   6.683   9.309   5.557 -1.3430  0.9592 -1.8636
39071SOL     OW20614   9.147   7.233   6.917 -0.2302  0.0259 -0.6416
39071SOL    HW120615   9.120   7.230   7.009 -1.2691 -1.2054 -0.9673
39071SOL    HW220616   9.089   7.298   6.877  1.1704  1.6520 -0.1782
39072SOL     OW20617   0.088   9.722   3.271 -0.0200  0.0329 -0.2981
39072SOL    HW120618   0.045   9.646   3.232 -0.5990  1.2194 -2.0497
39072SOL    HW220619   0.115   9.692   3.358 -1.7794 -1.6324 -0.2743
39073SOL     OW20620   2.676   3.421   3.068  0.1111 -0.0179  1.0137
39073SOL    HW120621   2.592   3.406   3.025  0.2105 -0.2155  0.8840
39073SOL    HW220622   2.684   3.349   3.131  0.5082 -0.4194  0.5165
39074SOL     OW20623   7.560   1.244   8.622  0.0991  0.1269 -0.2340
39074SOL    HW120624   7.650   1.277   8.621  0.3809 -0.6198 -0.5209
39074SOL    HW220625   7.506   1.322   8.631  0.7872  0.5591  0.3369
39075SOL     OW20626   2.991   5.282   5.203  0.5890  0.0736  0.0269
39075SOL    HW120627   3.070   5.333   5.217 -0.5579  1.7091  0.8465
39075SOL    HW220628   3.012   5.195   5.238  1.2353  1.1701  2.5530
39076SOL     OW20629   1.379   3.292   9.696 -0.7003 -0.4623  0.0081
39076SOL    HW120630   1.472   3.311   9.681 -0.9748  0.8857 -0.1293
39076SOL    HW220631   1.378   3.245   9.779  0.0454  0.4153  0.5408
39077SOL     OW20632   9.489   5.967   7.833  0.3505  0.4479 -0.1868
39077SOL    HW120633   9.540   5.889   7.814  0.6827  0.3715  0.9220
39077SOL    HW220634   9.506   5.984   7.926 -1.5497  0.4708  0.1996
39078SOL     OW20635   6.437   8.414   5.907  0.2683 -0.2121  0.0775
39078SOL    HW120636   6.416   8.328   5.945  1.6994  0.0411  1.5541
39078SOL    HW220637   6.388   8.416   5.825 -1.9833 -1.3169  1.2936
39079SOL     OW20638   3.648   6.962   1.682 -0.2990 -0.2566 -0.3090
39079SOL    HW120639   3.668   6.874   1.716  1.2745  1.4178  3.7542
39079SOL    HW220640   3.553   6.965   1.679 -0.4321 -2.6384 -2.5833
39080SOL     OW20641   9.428   2.625   2.392  0.5124 -0.0077 -0.0452
39080SOL    HW120642   9.425   2.586   2.479  1.6890  0.5823  0.2764
39080SOL    HW220643   9.509   2.676   2.390 -0.0401  0.8974 -1.1059
39081SOL     OW20644   5.106   6.190   1.654  0.2302  0.2021  0.1849
39081SOL    HW120645   5.162   6.193   1.577  1.1689 -0.4326  0.8134
39081SOL    HW220646   5.160   6.148   1.721 -0.7670  0.1982  1.0153
39082SOL     OW20647   8.779   1.260   6.751 -0.2029  0.1756  0.3484
39082SOL    HW120648   8.795   1.308   6.833  1.7818  0.7203 -0.2999
39082SOL    HW220649   8.859   1.209   6.737  0.3132  1.5176 -2.1724
39083SOL     OW20650   2.086   6.308   8.651 -0.0107 -0.1916  0.0704
39083SOL    HW120651   2.123   6.264   8.574  2.3144 -1.0903  1.5818
39083SOL    HW220652   2.101   6.401   8.635  0.1491 -0.3386 -0.6881
39084SOL     OW20653   4.344   7.980   9.328 -0.0338  0.1260 -0.1839
39084SOL    HW120654   4.350   8.015   9.239 -0.1975 -0.0943 -0.2805
39084SOL    HW220655   4.309   7.892   9.317  0.3030 -0.0410  0.0682
39085SOL     OW20656   0.263  10.197   0.607 -0.7327 -0.2981  0.1105
39085SOL    HW120657   0.255  10.125   0.669 -1.8622  0.7550  1.2439
39085SOL    HW220658   0.305  10.267   0.658 -1.3524  0.4640 -0.4075
39086SOL     OW20659   5.456   9.559   9.364 -0.4455  0.0517  0.2137
39086SOL    HW120660   5.521   9.524   9.303 -0.8187  0.5294 -0.4730
39086SOL    HW220661   5.413   9.482   9.401 -0.7415 -0.2296 -0.7097
39087SOL     OW20662   6.651   6.995   0.206  0.0671 -0.5281 -0.2418
39087SOL    HW120663   6.614   6.921   0.156  0.4228 -1.1140  0.3515
39087SOL    HW220664   6.620   7.073   0.159  2.6512 -1.0363 -3.0984
39088SOL     OW20665   2.030   1.135  10.295  0.3258 -0.3892 -0.1171
39088SOL    HW120666   1.978   1.116  10.373 -0.6178  1.3640 -0.2575
39088SOL    HW220667   2.074   1.217  10.315 -0.9323  0.7828 -1.8495
39089SOL     OW20668   0.563  10.687   8.453 -0.2004 -0.3513 -0.4931
39089SOL    HW120669   0.629  10.667   8.519 -1.2403 -0.5360  0.5265
39089SOL    HW220670   0.496  10.620   8.465 -2.0317  1.5536  0.5751
39090SOL     OW20671   4.482  10.501   5.700  0.0514 -0.2761 -0.0336
39090SOL    HW120672   4.395  10.490   5.739 -0.8721  1.6059 -1.4157
39090SOL    HW220673   4.505  10.592   5.719  2.0737 -0.9110  0.8884
39091SOL     OW20674   7.889   5.365   5.308 -0.1107 -0.7066 -0.4292
39091SOL    HW120675   7.861   5.352   5.217 -1.2561 -0.2487 -0.1592
39091SOL    HW220676   7.873   5.458   5.325  1.3080 -0.4928 -0.1427
39092SOL     OW20677   9.364   6.702   0.454  0.1236  0.4343 -0.5376
39092SOL    HW120678   9.334   6.787   0.422 -0.8863 -0.2715 -1.5192
39092SOL    HW220679   9.292   6.668   0.506  0.3027 -0.0704 -0.6123
39093SOL     OW20680   0.583   0.671   0.178 -0.1158 -0.6641  0.0066
39093SOL    HW120681   0.554   0.652   0.267 -1.2814  0.1562 -0.1713
39093SOL    HW220682   0.533   0.611   0.123 -2.0391  1.1838 -0.3559
39094SOL     OW20683  10.048   9.733   3.948  0.1049 -0.5220  0.3326
39094SOL    HW120684  10.108   9.768   3.882 -0.1024 -0.6435  0.0750
39094SOL    HW220685   9.961   9.753   3.914 -0.0559 -2.4154 -0.4681
39095SOL     OW20686   9.065   2.349   8.445 -0.3498  0.6532 -0.1741
39095SOL    HW120687   9.039   2.258   8.431 -0.9125  0.7702  0.1031
39095SOL    HW220688   9.068   2.387   8.357 -3.3330  1.2458 -0.1271
39096SOL     OW20689   9.218   7.069   6.529 -0.0182 -0.4363 -0.7933
39096SOL    HW120690   9.234   7.072   6.434  0.2727 -1.5166 -0.7996
39096SOL    HW220691   9.141   7.123   6.542 -1.5345 -2.1635 -2.0172
39097SOL     OW20692   8.716   1.714   3.116 -0.1356 -0.1328  0.2614
39097SOL    HW120693   8.666   1.795   3.114  1.3847  0.8415 -0.6808
39097SOL    HW220694   8.786   1.730   3.179 -0.0072 -0.8393  0.3147
39098SOL     OW20695   5.672   2.912   5.116  0.0069  0.1991  0.6782
39098SOL    HW120696   5.595   2.869   5.154 -1.2127  0.3615 -1.4158
39098SOL    HW220697   5.643   3.002   5.100  0.1843 -0.0432 -1.2236
39099SOL     OW20698   8.569   4.070   9.001  0.7295 -0.1779 -0.1492
39099SOL    HW120699   8.541   4.161   9.013  2.8601  0.4104  0.9504
39099SOL    HW220700   8.489   4.019   9.008 -0.5404  1.6132 -0.8919
39100SOL     OW20701   1.181   5.699   9.756  0.1437 -0.1920 -0.4670
39100SOL    HW120702   1.172   5.781   9.803 -1.9159 -0.2175 -0.6803
39100SOL    HW220703   1.206   5.635   9.823  1.7819  0.5708 -0.3078
39101SOL     OW20704   8.734   0.507   0.270 -0.2436 -0.5511  0.0040
39101SOL    HW120705   8.764   0.591   0.305 -1.4727 -0.1243  0.1015
39101SOL    HW220706   8.772   0.503   0.182  0.3536 -0.1946  0.2431
39102SOL     OW20707   4.656   8.651   0.960  0.2443 -0.2514 -0.4513
39102SOL    HW120708   4.590   8.706   1.003  1.4923  2.7402 -2.1059
39102SOL    HW220709   4.683   8.590   1.029 -1.6504  0.7808  1.3491
39103SOL     OW20710   5.769   8.727   9.158  0.2573 -0.2348  0.1303
39103SOL    HW120711   5.779   8.772   9.074 -1.5094 -0.0379 -0.0183
39103SOL    HW220712   5.790   8.794   9.224  2.6158 -0.6657 -0.1292
39104SOL     OW20713   4.963   5.811   8.850 -0.3367  0.0636  0.2472
39104SOL    HW120714   4.937   5.722   8.826 -0.2144 -0.3644  1.6039
39104SOL    HW220715   5.048   5.801   8.892  0.5865  1.0749 -1.2816
39105SOL     OW20716   0.783   9.473   0.743  0.2570  0.4271  0.0895
39105SOL    HW120717   0.830   9.414   0.684  1.5151  1.6591 -0.1795
39105SOL    HW220718   0.691   9.454   0.727  0.5322  1.0635 -2.6667
39106SOL     OW20719   0.308   8.565   0.665  0.2964  0.5862  0.0701
39106SOL    HW120720   0.287   8.645   0.714  0.2560  0.8175 -0.3229
39106SOL    HW220721   0.356   8.595   0.588 -0.3249  0.3044 -0.4421
39107SOL     OW20722   2.122   2.725  10.407  0.2476  0.2133  0.3334
39107SOL    HW120723   2.107   2.777  10.329  1.9118  0.0623 -0.1366
39107SOL    HW220724   2.146   2.638  10.375 -1.6575 -0.6585  1.0919
39108SOL     OW20725   0.974   9.140   5.772  0.2313 -0.5181  0.0079
39108SOL    HW120726   1.025   9.074   5.725  0.3374  0.7844 -1.7973
39108SOL    HW220727   0.883   9.109   5.767  0.3882 -1.0022  0.0545
39109SOL     OW20728  10.644   7.094   0.927  0.3919 -0.1365  0.3513
39109SOL    HW120729  10.631   7.186   0.948  2.0422 -0.0424  1.0896
39109SOL    HW220730  10.555   7.059   0.918 -0.2685  1.3462  0.7589
39110SOL     OW20731   8.986   0.522   3.792  0.1254  0.2777 -0.0041
39110SOL    HW120732   8.927   0.593   3.767 -1.0377 -0.7020 -0.1421
39110SOL    HW220733   8.955   0.447   3.741 -0.7397 -1.1654  2.4854
39111SOL     OW20734  10.104   5.228   0.460  0.3114  0.4272 -0.4910
39111SOL    HW120735  10.098   5.158   0.394  0.2122  1.0946 -1.2063
39111SOL    HW220736  10.196   5.229   0.485  0.1280 -0.6722  0.3377
39112SOL     OW20737   0.096   7.337   0.961 -0.3517 -0.1607 -0.4478
39112SOL    HW120738   0.079   7.430   0.942  0.0157  0.5727  2.3561
39112SOL    HW220739   0.148   7.338   1.041  1.3139 -2.7925 -1.3770
39113SOL     OW20740   8.360   8.842   2.367  0.3249  0.0712 -0.4667
39113SOL    HW120741   8.327   8.842   2.457 -0.7065 -1.3401 -0.8115
39113SOL    HW220742   8.447   8.881   2.373 -0.3925  1.5862  0.8671
39114SOL     OW20743   8.474   1.485   2.891 -0.2109  0.0358 -0.3998
39114SOL    HW120744   8.382   1.460   2.894  0.0318 -0.9758 -0.8482
39114SOL    HW220745   8.521   1.402   2.887  0.7140  0.5455 -0.4358
39115SOL     OW20746   2.631   2.407   0.647 -0.4636  0.1466  0.2069
39115SOL    HW120747   2.580   2.385   0.569  0.0991  0.3627 -0.2276
39115SOL    HW220748   2.566   2.443   0.708 -0.7828  0.7113 -0.4526
39116SOL     OW20749   2.266   2.349   6.640  0.0307  0.0240  0.0855
39116SOL    HW120750   2.237   2.383   6.556 -0.4425  0.1939  0.3123
39116SOL    HW220751   2.279   2.427   6.694  2.0441  0.0341 -0.3496
39117SOL     OW20752   6.931   0.946   3.703  0.0484 -0.1091 -0.4319
39117SOL    HW120753   6.852   0.997   3.722 -0.8494 -1.3160 -0.8105
39117SOL    HW220754   7.003   1.007   3.718 -0.9480  0.9995 -0.0033
39118SOL     OW20755   0.455   4.263   0.749 -0.4392  0.0412  0.3027
39118SOL    HW120756   0.477   4.263   0.842 -0.2094  1.5905  0.2675
39118SOL    HW220757   0.540   4.257   0.705 -0.4031  1.1607  0.1966
39119SOL     OW20758   1.276   2.317   6.583  0.3077 -0.2698  0.5293
39119SOL    HW120759   1.268   2.397   6.530  1.5613 -0.2518  0.3151
39119SOL    HW220760   1.193   2.310   6.629  0.5778  1.8766  1.5187
39120SOL     OW20761   2.845   1.475   8.407  0.7203  0.3503  0.5862
39120SOL    HW120762   2.791   1.512   8.337  1.9780  0.9503 -0.0869
39120SOL    HW220763   2.862   1.385   8.379 -1.0861 -0.3327  1.5020
39121SOL     OW20764   5.750  10.209   2.903  0.1284  0.2636 -0.1430
39121SOL    HW120765   5.831  10.162   2.886  1.7298  2.4488  0.9965
39121SOL    HW220766   5.711  10.164   2.978 -1.0998 -2.3285 -2.1850
39122SOL     OW20767   4.681  10.094   7.350 -0.0943  0.0299 -0.2695
39122SOL    HW120768   4.697  10.018   7.294  2.5649  0.0679  0.3075
39122SOL    HW220769   4.644  10.057   7.430 -0.9387 -0.3635 -0.8193
39123SOL     OW20770   6.818   9.101   3.204 -0.6081  0.2967  0.3748
39123SOL    HW120771   6.753   9.137   3.264 -0.8323  1.1572 -0.3660
39123SOL    HW220772   6.853   9.177   3.157 -0.4139 -0.3454 -0.5557
39124SOL     OW20773   1.015   3.159   2.859  0.3447  0.1493 -0.2072
39124SOL    HW120774   1.058   3.187   2.940  0.5896 -0.0056 -0.2803
39124SOL    HW220775   1.057   3.212   2.791 -0.8573  1.3071 -0.0761
39125SOL     OW20776   2.550   0.570   5.460  0.7587  0.7772  0.2780
39125SOL    HW120777   2.605   0.538   5.389 -0.0618  1.1885 -0.5557
39125SOL    HW220778   2.465   0.585   5.420  0.5537  1.9746  1.1115
39126SOL     OW20779   7.069   3.662   4.820  0.1556 -0.3075  0.2798
39126SOL    HW120780   7.013   3.729   4.782  2.0169  1.6595  0.8241
39126SOL    HW220781   7.112   3.621   4.745  2.3610  2.2348  0.0414
39127SOL     OW20782   4.558   5.975   2.048  0.1083 -0.3392 -0.0551
39127SOL    HW120783   4.538   6.018   1.965 -0.6529 -1.3103 -0.3959
39127SOL    HW220784   4.492   6.008   2.108  1.1734  1.0238  0.4276
39128SOL     OW20785   4.559   0.671   0.810  0.2746 -0.0655  0.1621
39128SOL    HW120786   4.509   0.738   0.856 -0.2670 -0.6906  0.5112
39128SOL    HW220787   4.499   0.636   0.745  0.2648 -0.7838  0.5459
39129SOL     OW20788   3.833   1.408   6.463 -0.9760 -0.4004 -0.1904
39129SOL    HW120789   3.864   1.457   6.539 -2.2527  0.7990 -0.3774
39129SOL    HW220790   3.908   1.404   6.404 -0.8015  1.4202 -0.1665
39130SOL     OW20791   5.060   5.112   2.868 -0.2173  0.3093  0.2176
39130SOL    HW120792   5.121   5.183   2.849  1.2043 -0.6399  1.0170
39130SOL    HW220793   5.052   5.064   2.786 -0.2855  0.7352 -0.0236
39131SOL     OW20794  10.878   0.085   3.669  0.0119  0.4025 -0.4356
39131SOL    HW120795  10.948   0.107   3.729 -0.3741  1.7127 -0.4405
39131SOL    HW220796  10.880  -0.011   3.664  2.0486  0.4276 -0.7747
39132SOL     OW20797  10.764   7.007   8.629 -0.1871 -0.5335  0.7358
39132SOL    HW120798  10.694   6.975   8.572 -0.4724 -1.2789  1.4786
39132SOL    HW220799  10.718   7.048   8.702  0.1765  1.1896  0.0429
39133SOL     OW20800   6.383   0.882   4.524  0.0402 -0.6902 -0.1253
39133SOL    HW120801   6.361   0.925   4.607  1.0086 -0.4702  0.0329
39133SOL    HW220802   6.333   0.931   4.458 -1.1502 -1.2012  0.3681
39134SOL     OW20803   7.687   4.012   0.436 -0.4475 -0.7127 -0.7234
39134SOL    HW120804   7.748   3.944   0.465 -1.7432 -0.7605  2.2101
39134SOL    HW220805   7.719   4.092   0.476 -0.7707 -0.2063 -1.4533
39135SOL     OW20806   3.070   6.484   2.793  0.1490  0.0798  0.0248
39135SOL    HW120807   2.998   6.421   2.802  0.0219  0.2128 -0.0654
39135SOL    HW220808   3.108   6.488   2.881 -0.2054  0.3095  0.1689
39136SOL     OW20809   4.801   8.497   9.897  0.3548 -0.2056 -0.0415
39136SOL    HW120810   4.757   8.533   9.974 -0.0408 -1.8254  0.5289
39136SOL    HW220811   4.747   8.527   9.823  0.0756  0.3873  0.3951
39137SOL     OW20812   6.490   4.003   7.006  0.0522  0.1504 -0.0968
39137SOL    HW120813   6.460   3.938   7.070 -0.2708 -0.6115 -0.9968
39137SOL    HW220814   6.425   3.999   6.936 -0.8571  2.6004  0.5169
39138SOL     OW20815   2.044   9.984   8.560  0.3622 -0.1704 -0.0218
39138SOL    HW120816   2.015   9.907   8.511  0.4721 -0.3114  0.1320
39138SOL    HW220817   1.973  10.003   8.620  0.5580 -0.4762  0.3088
39139SOL     OW20818   9.595   2.601   6.996  0.0195 -0.0563  0.4377
39139SOL    HW120819   9.530   2.564   6.936 -0.6804  0.5301  0.8216
39139SOL    HW220820   9.666   2.536   6.996  0.6774  0.5294 -2.0480
39140SOL     OW20821   0.296   1.252   1.350  0.8095 -0.3364 -0.6050
39140SOL    HW120822   0.355   1.220   1.281  0.9472 -0.5678 -0.3815
39140SOL    HW220823   0.211   1.216   1.328  1.0171 -1.0868 -0.2062
39141SOL     OW20824   9.434  10.714   7.922  0.2621 -0.3418 -0.0297
39141SOL    HW120825   9.476  10.735   8.005 -0.1489  1.1458 -0.1692
39141SOL    HW220826   9.438  10.618   7.916  1.4246 -0.3838  1.0933
39142SOL     OW20827   8.503   2.907   1.761 -0.0131 -0.1272 -0.6658
39142SOL    HW120828   8.563   2.834   1.773  0.3021  0.2500  0.1653
39142SOL    HW220829   8.420   2.876   1.797 -0.0881 -0.3509 -1.0350
39143SOL     OW20830   8.117   7.891  10.253 -0.8029  0.5392 -0.3479
39143SOL    HW120831   8.087   7.847  10.173  2.1876 -0.7913 -0.8758
39143SOL    HW220832   8.133   7.820  10.315 -1.9362  1.4721  1.0795
39144SOL     OW20833   0.303   5.800   3.481  0.6279 -0.8169 -0.2276
39144SOL    HW120834   0.278   5.797   3.389  1.1432  0.2065 -0.4221
39144SOL    HW220835   0.220   5.807   3.528  0.4311  0.8623 -0.7643
39145SOL     OW20836   9.175   4.712   0.626 -0.4676  0.4346  0.0658
39145SOL    HW120837   9.107   4.728   0.560  0.3269 -0.4994 -1.0275
39145SOL    HW220838   9.139   4.642   0.680 -0.6885  0.4505 -0.0570
39146SOL     OW20839   9.932   3.927   7.249  0.5833  0.1675 -0.3215
39146SOL    HW120840   9.892   3.971   7.174  0.5625 -0.2147 -0.5393
39146SOL    HW220841   9.869   3.938   7.320  0.1780 -0.2520 -0.6070
39147SOL     OW20842   5.514   3.165   3.467  0.4486  0.1456 -0.0697
39147SOL    HW120843   5.455   3.240   3.476  1.1291  0.5202  1.7720
39147SOL    HW220844   5.574   3.189   3.397 -0.6567  0.3814 -0.9627
39148SOL     OW20845   2.495   8.248   6.596 -0.4944  0.1828 -0.0314
39148SOL    HW120846   2.410   8.211   6.621 -0.4084 -0.5876 -0.8251
39148SOL    HW220847   2.558   8.198   6.648 -0.4981  0.4986  0.2797
39149SOL     OW20848  10.487   7.277   1.107 -0.9292  0.0306  0.2062
39149SOL    HW120849  10.480   7.372   1.114  0.2941  0.0836  0.9593
39149SOL    HW220850  10.401   7.249   1.074 -2.1433  1.1536  2.2333
39150SOL     OW20851   0.325  10.285  10.232  0.8587 -0.2371 -0.1042
39150SOL    HW120852   0.230  10.288  10.238  0.7631 -2.2031 -0.0161
39150SOL    HW220853   0.354  10.373  10.258 -0.9785  1.0764 -2.1173
39151SOL     OW20854  10.606   8.792   6.633 -0.6296  0.5021 -0.3641
39151SOL    HW120855  10.517   8.804   6.666 -0.1704 -0.1303  1.1795
39151SOL    HW220856  10.649   8.876   6.648 -0.0261 -0.1686  2.0463
39152SOL     OW20857   2.961   4.974   2.263  0.2066 -0.2533  0.4234
39152SOL    HW120858   3.019   5.045   2.237 -0.2640  0.3540  1.0020
39152SOL    HW220859   2.908   4.956   2.185 -0.3733  0.7316  0.5693
39153SOL     OW20860   2.182   8.896   7.683 -0.2716 -0.3267 -0.0638
39153SOL    HW120861   2.193   8.965   7.618  2.4473 -0.5162  0.0989
39153SOL    HW220862   2.136   8.826   7.635 -0.1317  0.3107 -1.1762
39154SOL     OW20863   8.767   2.351  10.209  0.5930  0.1226 -0.2754
39154SOL    HW120864   8.847   2.301  10.224  0.6569  0.1602 -0.4834
39154SOL    HW220865   8.752   2.398  10.290  0.8501  0.2097 -0.2770
39155SOL     OW20866   2.535   4.185   3.438 -0.4262  0.4637 -0.3460
39155SOL    HW120867   2.503   4.216   3.353  0.0386  0.6342 -0.4580
39155SOL    HW220868   2.457   4.149   3.480 -0.7425  0.7495 -0.6759
39156SOL     OW20869   4.176   3.217   2.169  0.1258 -0.0541  0.3324
39156SOL    HW120870   4.241   3.219   2.239 -0.6900  0.9274  1.0784
39156SOL    HW220871   4.223   3.182   2.093  1.0680 -0.9475  1.3126
39157SOL     OW20872   8.113   4.223   4.536  0.1090 -0.5788 -0.2418
39157SOL    HW120873   8.077   4.245   4.450  0.7807  1.8213  0.0457
39157SOL    HW220874   8.207   4.235   4.527  0.1894 -0.3448  0.8300
39158SOL     OW20875   1.710   9.460   7.991  0.2049 -0.2114  0.0209
39158SOL    HW120876   1.683   9.493   8.076  1.0078  0.4561  0.0379
39158SOL    HW220877   1.778   9.395   8.010  1.5685  1.1017 -0.1217
39159SOL     OW20878  10.824   1.249   6.600  0.1918  0.2770  0.9206
39159SOL    HW120879  10.915   1.248   6.569  0.2532 -0.5446  1.1221
39159SOL    HW220880  10.815   1.170   6.653 -0.6147  0.4078  0.9945
39160SOL     OW20881   3.639   0.917  10.630 -0.1618 -0.1834  0.0447
39160SOL    HW120882   3.646   0.993  10.688 -1.5108  0.9997 -1.2668
39160SOL    HW220883   3.728   0.898  10.603  0.1383  1.2479  0.0010
39161SOL     OW20884   4.777   7.243   2.226 -0.0907 -0.0788  0.0253
39161SOL    HW120885   4.840   7.303   2.266 -0.5560  1.9855 -2.1588
39161SOL    HW220886   4.796   7.246   2.133 -1.7760 -1.4269 -0.4106
39162SOL     OW20887   6.139   5.148   3.370  0.1063  0.2598  0.3286
39162SOL    HW120888   6.182   5.221   3.414  4.5173 -1.5625 -0.4202
39162SOL    HW220889   6.119   5.181   3.283 -0.4627  1.2755  0.8173
39163SOL     OW20890   0.486  10.284   3.900  0.5761 -0.1712 -0.0029
39163SOL    HW120891   0.450  10.201   3.868 -0.7023 -0.4324  1.9088
39163SOL    HW220892   0.561  10.258   3.954 -0.0490 -0.1558  0.9012
39164SOL     OW20893   2.112  10.544   8.745  0.0934 -0.1822 -0.1007
39164SOL    HW120894   2.073  10.509   8.826 -1.8565  0.9806 -0.4691
39164SOL    HW220895   2.095  10.476   8.679 -0.8138  0.0353 -0.1113
39165SOL     OW20896   9.198   3.722   2.329  0.1560 -0.1701  0.3109
39165SOL    HW120897   9.126   3.740   2.390  1.1089  0.1921  1.3773
39165SOL    HW220898   9.257   3.797   2.340  0.4685 -0.2096 -0.9178
39166SOL     OW20899  10.190   2.232   7.561 -0.3604  0.3541 -0.2456
39166SOL    HW120900  10.245   2.279   7.623 -0.9556  1.5272 -0.5737
39166SOL    HW220901  10.236   2.150   7.546  0.1604  0.3531  1.1812
39167SOL     OW20902   1.590   5.147   1.486 -0.4388 -0.0963 -0.1342
39167SOL    HW120903   1.510   5.135   1.537 -0.1039 -0.8197  0.2459
39167SOL    HW220904   1.562   5.195   1.408 -1.0036  0.8353  0.6143
39168SOL     OW20905   8.341   4.267   2.022  0.4915  0.3368  0.6741
39168SOL    HW120906   8.358   4.306   2.107  0.8892  0.7912  0.3946
39168SOL    HW220907   8.354   4.339   1.960  1.4736 -0.2827  0.1315
39169SOL     OW20908   5.744   0.045  10.439 -0.1763  0.4063 -0.1014
39169SOL    HW120909   5.673   0.081  10.387  1.4161  0.0192 -2.7360
39169SOL    HW220910   5.771   0.117  10.497 -1.8016  0.9535  0.0283
39170SOL     OW20911   3.438   3.923   9.214  0.3895 -0.0107  0.5095
39170SOL    HW120912   3.433   3.895   9.123 -1.8976  0.5635  0.3872
39170SOL    HW220913   3.474   4.011   9.210  0.7293 -0.1657  0.1936
39171SOL     OW20914   9.355   7.538   0.152 -0.3026 -0.2921 -0.9652
39171SOL    HW120915   9.424   7.572   0.096  0.1417 -0.5128 -0.5623
39171SOL    HW220916   9.318   7.616   0.194  1.5664 -0.3301  0.9361
39172SOL     OW20917   7.347  10.742   9.486  0.0655  0.6495 -0.1357
39172SOL    HW120918   7.370  10.704   9.570  0.9841  1.7824  0.1525
39172SOL    HW220919   7.371  10.675   9.422 -2.6181 -1.1455  0.5295
39173SOL     OW20920   9.136   0.341   9.574  0.6083  0.3551  0.1383
39173SOL    HW120921   9.217   0.391   9.581 -0.1049  1.3490  2.4294
39173SOL    HW220922   9.104   0.360   9.486  1.4951  2.1643  0.1481
39174SOL     OW20923   2.217   2.149   9.627  0.0275  0.5401 -0.1591
39174SOL    HW120924   2.249   2.147   9.718  0.3358 -0.4133 -0.2819
39174SOL    HW220925   2.281   2.098   9.578 -0.6195  0.2927 -0.7627
39175SOL     OW20926   1.313   3.594   3.431 -0.3731 -0.2280 -0.6346
39175SOL    HW120927   1.220   3.615   3.436 -0.0792  0.8666  1.4677
39175SOL    HW220928   1.356   3.678   3.417  0.3837 -0.4947 -0.0047
39176SOL     OW20929   8.991   4.589   1.538  0.4030 -0.6631 -0.2295
39176SOL    HW120930   9.063   4.636   1.497 -0.3336  0.2303 -0.5513
39176SOL    HW220931   8.912   4.632   1.503 -0.3234 -2.6487 -1.1469
39177SOL     OW20932   1.461   5.984   6.555  0.1517  0.3048 -0.0181
39177SOL    HW120933   1.469   5.933   6.474  2.5653  0.2379  0.1889
39177SOL    HW220934   1.542   5.967   6.602 -1.4005 -0.0625  2.7240
39178SOL     OW20935   0.802   4.946   7.339 -0.3545  0.4349 -0.1521
39178SOL    HW120936   0.725   4.969   7.391 -0.0891  0.1428  0.3894
39178SOL    HW220937   0.869   5.008   7.368  0.3324 -0.8805  1.2341
39179SOL     OW20938   3.099   9.954   7.209 -0.2118  0.1043  0.1074
39179SOL    HW120939   3.124   9.933   7.119  1.9782 -0.0816  0.7047
39179SOL    HW220940   3.037   9.886   7.233 -0.8664  0.1782 -1.2599
39180SOL     OW20941   4.708   2.269   7.191 -0.2853 -0.2667 -0.0499
39180SOL    HW120942   4.798   2.256   7.220  0.5969 -0.4659 -2.5893
39180SOL    HW220943   4.680   2.351   7.233  0.9591 -0.3787  1.0251
39181SOL     OW20944   7.538   3.608  10.589 -0.2254  0.0827  0.4393
39181SOL    HW120945   7.455   3.646  10.616  0.1595  2.4442 -1.3832
39181SOL    HW220946   7.600   3.636  10.657 -0.1942  1.8153 -0.2438
39182SOL     OW20947   8.451   1.397   8.679  0.2678 -0.5871 -0.0165
39182SOL    HW120948   8.442   1.435   8.592  1.2877  2.4460  1.0637
39182SOL    HW220949   8.525   1.337   8.672  0.0387 -0.7432 -1.3006
39183SOL     OW20950   8.769   5.457   0.767 -0.2947  0.4300 -0.0811
39183SOL    HW120951   8.840   5.427   0.710 -0.9845  1.5020 -1.5740
39183SOL    HW220952   8.746   5.379   0.818  0.2360 -0.6362 -1.3860
39184SOL     OW20953   3.278   3.599   6.905 -0.0997 -0.6845  0.1329
39184SOL    HW120954   3.252   3.691   6.901  0.9835 -0.3716 -0.1435
39184SOL    HW220955   3.198   3.550   6.886 -0.7170  0.1967  0.4171
39185SOL     OW20956   2.033   7.216   8.669  0.2177 -0.3420  0.0564
39185SOL    HW120957   2.120   7.249   8.690 -0.1630 -0.9344  2.9905
39185SOL    HW220958   2.015   7.151   8.737 -2.7494  0.1687 -0.1269
39186SOL     OW20959   5.789   5.539   9.900  0.0173 -0.0208  0.8140
39186SOL    HW120960   5.725   5.556   9.832  0.0170 -1.0024  0.5441
39186SOL    HW220961   5.873   5.563   9.861 -0.0644  0.1664  0.7548
39187SOL     OW20962   9.174   8.267   4.704 -0.1148 -0.1938 -0.3014
39187SOL    HW120963   9.090   8.271   4.658 -0.2752 -2.0908 -0.2536
39187SOL    HW220964   9.185   8.174   4.726  0.0764  0.5405  3.2608
39188SOL     OW20965   5.744   4.659   7.559 -0.2425 -0.3264  0.3698
39188SOL    HW120966   5.726   4.654   7.465 -0.2163 -1.1365  0.4050
39188SOL    HW220967   5.658   4.671   7.599 -0.0011  4.7133  0.0037
39189SOL     OW20968   4.746   2.399  10.399 -0.3415 -0.0998 -0.0726
39189SOL    HW120969   4.721   2.465  10.463  1.2120  0.3448  0.1048
39189SOL    HW220970   4.842   2.398  10.400 -0.2735 -0.5418 -1.9073
39190SOL     OW20971   5.632   9.517   4.691  0.4729  0.0790  0.2314
39190SOL    HW120972   5.555   9.562   4.658  0.8931  1.4243  0.9992
39190SOL    HW220973   5.660   9.569   4.767  0.9322 -1.5372  1.2337
39191SOL     OW20974   1.387   6.885  10.117 -0.2606 -0.1247 -0.4412
39191SOL    HW120975   1.404   6.958  10.177  1.5869 -1.7595  1.1469
39191SOL    HW220976   1.436   6.906  10.038 -0.3346  0.6740 -0.2803
39192SOL     OW20977  10.070   7.794   6.823  0.2244 -0.4449  0.2215
39192SOL    HW120978  10.052   7.817   6.915  1.6771  0.8851  0.2240
39192SOL    HW220979   9.990   7.819   6.776 -0.1685 -0.2142  0.9982
39193SOL     OW20980   3.307   7.424   8.022  0.1399 -0.2602 -1.2570
39193SOL    HW120981   3.254   7.426   7.942 -4.1335  1.2071  1.2863
39193SOL    HW220982   3.291   7.338   8.060 -2.0681  0.7866  0.3767
39194SOL     OW20983   9.678   8.721   7.672 -0.0941  0.3151  0.1231
39194SOL    HW120984   9.625   8.750   7.745 -0.0337  0.5559  0.0711
39194SOL    HW220985   9.756   8.776   7.675  0.2260 -0.1449  0.2941
39195SOL     OW20986   5.612   5.379   5.415  0.0746 -0.1734 -0.0837
39195SOL    HW120987   5.613   5.391   5.320 -1.6857 -1.4430 -0.3087
39195SOL    HW220988   5.539   5.432   5.446 -0.8354 -1.5371  0.2319
39196SOL     OW20989   8.832   6.995   6.431  0.3345 -1.1230  0.2882
39196SOL    HW120990   8.741   6.982   6.457  0.0492 -0.2883 -0.2544
39196SOL    HW220991   8.870   6.907   6.431  0.0483 -1.3030  2.3249
39197SOL     OW20992   3.463  10.678   9.632  0.1691 -0.0848 -0.0430
39197SOL    HW120993   3.453  10.638   9.546 -1.9890 -0.1641  0.1835
39197SOL    HW220994   3.458  10.605   9.693  0.9247  0.0532  0.1888
39198SOL     OW20995   1.584   4.781   8.457  0.1270 -0.1763  0.0848
39198SOL    HW120996   1.649   4.810   8.521  0.4378 -0.9733  0.1500
39198SOL    HW220997   1.637   4.752   8.381 -0.2431  0.9539 -0.6216
39199SOL     OW20998   4.209   7.768   0.459  0.5032  0.2959 -0.3461
39199SOL    HW120999   4.119   7.790   0.481  0.6186  1.2862 -0.8235
39199SOL    HW221000   4.236   7.706   0.527 -0.3693  0.3879  0.0917
39200SOL     OW21001   3.277   0.923   8.399  0.5760  0.6924  0.4867
39200SOL    HW121002   3.343   0.992   8.406  1.2620  0.1923 -0.6546
39200SOL    HW221003   3.329   0.842   8.393 -0.1881  0.1647  0.8348
39201SOL     OW21004   5.399   6.662   5.179  0.4266 -0.1208 -0.3296
39201SOL    HW121005   5.465   6.680   5.111 -1.1999  1.8265 -1.5418
39201SOL    HW221006   5.414   6.730   5.245 -0.0828  0.0620 -0.4003
39202SOL     OW21007   5.959   2.288   4.892 -0.2654 -1.1232  0.2621
39202SOL    HW121008   5.876   2.259   4.856 -0.7156  2.8207 -2.4230
39202SOL    HW221009   5.938   2.325   4.978 -1.8727  1.8656 -1.2885
39203SOL     OW21010   3.990   3.583   9.888 -0.2866 -0.6387 -0.6629
39203SOL    HW121011   4.032   3.497   9.881 -0.0088 -0.7076  1.2146
39203SOL    HW221012   4.061   3.642   9.913 -1.0578 -0.5991  1.7346
39204SOL     OW21013   8.581  10.695  10.129  0.2012  0.0243  0.1818
39204SOL    HW121014   8.506  10.726  10.180  1.4501  1.9713  0.9798
39204SOL    HW221015   8.542  10.647  10.056 -1.7666  0.0699  1.1265
39205SOL     OW21016   8.007   5.695   1.174  0.0061  0.0221 -0.3318
39205SOL    HW121017   8.012   5.614   1.225  1.6059  0.9726  1.0891
39205SOL    HW221018   7.916   5.724   1.184 -0.3880 -1.1740 -0.2381
39206SOL     OW21019   1.581   7.798   6.727  0.1545 -0.5716 -0.1103
39206SOL    HW121020   1.523   7.871   6.706 -0.3352  0.0134  2.8045
39206SOL    HW221021   1.670   7.835   6.721 -0.0029 -0.2407 -0.3980
39207SOL     OW21022   2.633   9.732   1.583 -0.1444 -0.2772 -0.3598
39207SOL    HW121023   2.691   9.718   1.658  0.7309 -2.7595 -1.3995
39207SOL    HW221024   2.669   9.810   1.539 -0.8601  1.4117  1.8556
39208SOL     OW21025   1.241   6.528   1.119 -0.0132 -0.2652 -0.4015
39208SOL    HW121026   1.331   6.526   1.086 -0.4348 -1.5793 -1.5489
39208SOL    HW221027   1.245   6.482   1.203  1.0738  3.1352  1.6076
39209SOL     OW21028   8.045   6.420   4.213 -0.1689  0.0900  0.1418
39209SOL    HW121029   7.999   6.465   4.283 -0.3834  0.3269 -0.1465
39209SOL    HW221030   8.121   6.477   4.195  0.5245 -0.5478  0.9523
39210SOL     OW21031   9.586   7.199   5.203  0.7434  0.1705  0.3305
39210SOL    HW121032   9.645   7.176   5.274 -0.6361 -0.1053  1.4232
39210SOL    HW221033   9.568   7.116   5.159  0.1763  0.0473  0.7896
39211SOL     OW21034   9.559   6.397   9.095  0.2786 -0.1850 -0.5666
39211SOL    HW121035   9.493   6.364   9.035 -0.4154 -1.7891  0.9703
39211SOL    HW221036   9.626   6.328   9.098  1.8103  1.1774 -1.6922
39212SOL     OW21037   6.095   8.749   3.652  0.1681 -0.4264 -0.3532
39212SOL    HW121038   6.099   8.839   3.682  0.6164 -0.5447 -0.0451
39212SOL    HW221039   6.186   8.723   3.639  0.0006 -0.4255 -1.7043
39213SOL     OW21040   8.822   1.737   9.557 -0.2510  0.1370  0.1359
39213SOL    HW121041   8.879   1.721   9.481 -0.2364  0.7953  0.0044
39213SOL    HW221042   8.783   1.823   9.540 -1.8099 -0.5817 -0.1093
39214SOL     OW21043   2.181  10.570   6.033 -0.4767 -0.3186  0.2346
39214SOL    HW121044   2.139  10.535   6.112 -0.5993 -0.1799  0.2322
39214SOL    HW221045   2.231  10.496   5.997 -1.4598 -0.7585 -0.2693
39215SOL     OW21046   0.776   6.197   2.113  0.5263  0.3691 -0.4965
39215SOL    HW121047   0.857   6.246   2.128 -0.2866  1.8772 -0.8908
39215SOL    HW221048   0.801   6.106   2.129  2.0254  0.9041  0.4997
39216SOL     OW21049   7.148   1.936   8.683 -0.1086 -0.6939 -0.4389
39216SOL    HW121050   7.234   1.901   8.705  0.1628 -0.4090 -1.0119
39216SOL    HW221051   7.122   1.888   8.605 -0.4750 -0.7830 -0.2630
39217SOL     OW21052   1.552  10.414   6.588 -0.0289 -0.5842 -0.6065
39217SOL    HW121053   1.615  10.439   6.520  2.4371 -0.2462  1.6548
39217SOL    HW221054   1.512  10.497   6.615  0.1988 -0.5061 -0.5092
39218SOL     OW21055   4.881   4.598   9.362  0.1970 -0.3795  1.1473
39218SOL    HW121056   4.960   4.590   9.416  0.0703 -0.2402  1.3547
39218SOL    HW221057   4.872   4.513   9.321 -0.8842 -1.2039  2.9793
39219SOL     OW21058   0.366   8.171   2.561 -0.9709  0.1608 -0.0286
39219SOL    HW121059   0.374   8.197   2.653  0.1808  0.8960 -0.3127
39219SOL    HW221060   0.316   8.242   2.521 -0.7964  0.2279 -0.1268
39220SOL     OW21061   1.126  10.394   9.236  0.1229  0.9872 -0.4176
39220SOL    HW121062   1.037  10.430   9.240 -0.5615 -0.6730  0.3428
39220SOL    HW221063   1.177  10.450   9.294 -0.4124  1.9446 -0.8405
39221SOL     OW21064   0.416   0.523   1.778 -0.0234  0.6449 -0.3461
39221SOL    HW121065   0.357   0.448   1.786 -1.4428  1.8240  1.2390
39221SOL    HW221066   0.441   0.525   1.686  1.3066 -2.6208 -0.1769
39222SOL     OW21067   7.196   1.787  10.762 -0.1606  0.4100 -0.1092
39222SOL    HW121068   7.231   1.711  10.716 -1.3897  0.1755 -0.7200
39222SOL    HW221069   7.101   1.780  10.750 -0.4880  0.6431  2.0506
39223SOL     OW21070  10.464   6.207   1.230 -0.6819  0.2762 -0.2080
39223SOL    HW121071  10.390   6.192   1.289  0.8894 -1.3063  1.5447
39223SOL    HW221072  10.510   6.282   1.268 -1.1825  1.0454 -1.0966
39224SOL     OW21073   2.377   5.219   7.960  0.1963  0.6292  0.0956
39224SOL    HW121074   2.386   5.138   8.011 -0.4030  1.7005  2.0406
39224SOL    HW221075   2.308   5.199   7.896  0.7290 -0.6669 -0.1125
39225SOL     OW21076   0.667   0.101   7.970 -0.0604 -0.6298 -0.8642
39225SOL    HW121077   0.662   0.193   7.992 -1.8639 -0.6500 -1.0811
39225SOL    HW221078   0.756   0.075   7.996 -0.8199  0.1309  3.1287
39226SOL     OW21079   8.566   4.870   1.619 -0.3230  0.1405 -0.3602
39226SOL    HW121080   8.471   4.880   1.623 -0.2857  0.1850  0.6980
39226SOL    HW221081   8.590   4.837   1.705  0.6349  0.2139 -0.5925
39227SOL     OW21082   8.303   5.234   8.866 -0.0886  0.0090  0.6588
39227SOL    HW121083   8.297   5.310   8.924 -1.6154 -0.4392  1.1346
39227SOL    HW221084   8.315   5.159   8.925 -0.7619 -0.3541  0.3469
39228SOL     OW21085  10.850   4.988   8.100 -0.1984 -0.2863  0.0097
39228SOL    HW121086  10.821   5.078   8.084 -1.8384 -0.8061 -0.1559
39228SOL    HW221087  10.921   4.996   8.164  2.3149  1.3859 -2.7727
39229SOL     OW21088   4.042   8.879   1.646  0.0014  0.1914  0.4380
39229SOL    HW121089   4.106   8.900   1.714  1.1172  0.1108 -0.5540
39229SOL    HW221090   4.035   8.783   1.650 -0.8576  0.2733  1.2292
39230SOL     OW21091   8.531   7.813   7.704 -0.5399 -0.2477  0.4892
39230SOL    HW121092   8.467   7.781   7.640 -1.3742 -0.4410  1.3907
39230SOL    HW221093   8.616   7.785   7.669 -0.8238  1.0530 -1.3331
39231SOL     OW21094   1.075   7.745   9.794  0.3750  0.2679  0.6880
39231SOL    HW121095   1.098   7.682   9.726  2.9326 -0.9080  2.4788
39231SOL    HW221096   1.147   7.808   9.793 -0.2578  1.0265  1.4082
39232SOL     OW21097  10.347   3.320  10.116 -0.3320  0.0242  0.5733
39232SOL    HW121098  10.254   3.341  10.113 -0.3716 -0.1942  0.1805
39232SOL    HW221099  10.354   3.254  10.185 -0.7284 -1.1687 -0.4798
39233SOL     OW21100   1.096   7.778   8.813  0.7968 -0.1422  0.1280
39233SOL    HW121101   1.007   7.792   8.782  0.1201  0.0608  2.0293
39233SOL    HW221102   1.124   7.697   8.770 -0.5451 -0.5639  0.0202
39234SOL     OW21103  10.555   6.554   6.605 -0.1027 -0.7107  0.8590
39234SOL    HW121104  10.606   6.553   6.686  2.1533 -1.3632 -0.4718
39234SOL    HW221105  10.526   6.464   6.593 -0.2687 -0.6556  0.8360
39235SOL     OW21106   8.587   5.060   9.284 -0.0328 -0.1871 -0.3484
39235SOL    HW121107   8.586   4.997   9.356 -1.0637  0.8355  0.5808
39235SOL    HW221108   8.679   5.070   9.262  0.4454  0.3706  1.6719
39236SOL     OW21109   8.425   5.753   3.651 -0.4980 -0.6276  0.2520
39236SOL    HW121110   8.464   5.688   3.592  0.7902 -0.9236  1.3773
39236SOL    HW221111   8.488   5.761   3.722 -0.4603  2.1250  0.0030
39237SOL     OW21112   3.979   1.262   4.566  0.6382  0.3314 -0.0215
39237SOL    HW121113   3.937   1.309   4.638  1.3018  0.8074  0.0563
39237SOL    HW221114   4.072   1.265   4.586  0.8364  0.5268 -0.9341
39238SOL     OW21115   8.355   6.018   5.435 -0.0215 -0.1587  0.2904
39238SOL    HW121116   8.406   5.988   5.510  2.0219 -1.2753 -1.4237
39238SOL    HW221117   8.264   6.004   5.461  0.5660  0.0342  2.7405
39239SOL     OW21118   7.310   6.787   5.144  0.1544 -0.3321  0.0374
39239SOL    HW121119   7.343   6.761   5.058  0.0390 -2.0989  0.4836
39239SOL    HW221120   7.215   6.777   5.137  0.2176 -1.5981  0.6733
39240SOL     OW21121   1.818   1.455   0.590 -0.0627 -0.2126 -0.0482
39240SOL    HW121122   1.883   1.421   0.651  1.4337  1.0363 -0.8680
39240SOL    HW221123   1.825   1.550   0.598 -2.9832  0.0083  1.0232
39241SOL     OW21124   3.304   4.935   7.826  0.1414 -0.0727 -0.0372
39241SOL    HW121125   3.372   4.924   7.760  0.2199  0.1453  0.0047
39241SOL    HW221126   3.312   5.027   7.853 -0.5091  0.0971 -0.4028
39242SOL     OW21127   8.877   4.483   3.391  0.1512 -0.3354 -0.1646
39242SOL    HW121128   8.891   4.392   3.363 -0.8082 -0.6861  0.4318
39242SOL    HW221129   8.954   4.504   3.444  0.7442 -0.5363 -0.9274
39243SOL     OW21130   4.846   7.917   1.974 -0.3122  0.3482 -0.9963
39243SOL    HW121131   4.755   7.918   1.944 -0.4697  1.5538 -0.5642
39243SOL    HW221132   4.890   7.982   1.920 -0.1222  1.0351 -0.0551
39244SOL     OW21133   0.717   1.918   1.758  0.7710  0.2800 -0.1723
39244SOL    HW121134   0.638   1.879   1.721  0.4854  1.0555 -0.4096
39244SOL    HW221135   0.708   2.012   1.738  0.2993  0.8496  2.3849
39245SOL     OW21136   8.564   9.285   3.666  0.1136  0.3540  0.4954
39245SOL    HW121137   8.495   9.301   3.731  0.1417  2.4050  0.0869
39245SOL    HW221138   8.636   9.246   3.716 -0.4081  0.5304  1.4054
39246SOL     OW21139   3.437   4.766   0.248  0.4205  0.4878  0.2476
39246SOL    HW121140   3.461   4.852   0.214  0.2049  1.2922  2.0570
39246SOL    HW221141   3.520   4.729   0.279  0.7606 -0.5867 -1.7381
39247SOL     OW21142   5.252  10.788   1.641 -0.0615 -0.0966  0.1029
39247SOL    HW121143   5.216  10.808   1.728 -1.4403  0.0338 -0.4828
39247SOL    HW221144   5.187  10.820   1.579  1.0504  0.0900 -1.0061
39248SOL     OW21145   6.068   3.878   5.571 -0.2049 -0.1211 -0.0353
39248SOL    HW121146   6.048   3.814   5.640  0.2106 -0.9855 -0.7003
39248SOL    HW221147   5.984   3.917   5.550 -0.7070 -1.4471 -0.5850
39249SOL     OW21148  10.385   1.283   8.341  0.0575 -0.5570 -0.2010
39249SOL    HW121149  10.442   1.261   8.415 -0.6823 -0.1017  0.5128
39249SOL    HW221150  10.427   1.241   8.266  0.7646 -1.1135  0.4887
39250SOL     OW21151   8.947   2.819   7.916  0.7708 -0.2655 -0.0896
39250SOL    HW121152   8.913   2.804   7.828  1.2476 -1.9171 -0.0242
39250SOL    HW221153   8.885   2.880   7.956 -0.2257 -0.5961 -1.0862
39251SOL     OW21154   3.830   4.472   1.526  0.0999 -0.0140 -0.9127
39251SOL    HW121155   3.916   4.436   1.503  0.7241  0.9326 -0.1711
39251SOL    HW221156   3.804   4.522   1.449  1.1280  1.2746 -0.4760
39252SOL     OW21157   3.361   0.165   1.307  0.2320 -0.5884  0.0533
39252SOL    HW121158   3.454   0.176   1.324  0.5899 -0.5582 -1.7409
39252SOL    HW221159   3.351   0.072   1.286  0.2000 -0.2608 -1.5006
39253SOL     OW21160   6.338   8.508   1.445  0.2600 -0.1808 -0.0078
39253SOL    HW121161   6.277   8.569   1.486 -0.2038 -0.9823  0.5047
39253SOL    HW221162   6.287   8.465   1.377  0.3396 -0.6405  0.2235
39254SOL     OW21163   8.119   6.332   8.547 -0.1970 -0.0243 -0.2397
39254SOL    HW121164   8.039   6.305   8.501 -0.2143  1.1089 -0.9083
39254SOL    HW221165   8.101   6.420   8.578 -0.0728 -0.6667  1.7570
39255SOL     OW21166   0.774   6.979   6.439  0.0972 -0.3449  0.1203
39255SOL    HW121167   0.801   6.894   6.473  1.2275 -0.4865 -1.0684
39255SOL    HW221168   0.722   7.018   6.510 -1.2576 -2.3924  0.3429
39256SOL     OW21169   5.844   2.516   0.606  0.0071 -0.5063  0.0068
39256SOL    HW121170   5.818   2.425   0.620 -0.2699 -0.9364 -2.7076
39256SOL    HW221171   5.771   2.554   0.557 -0.0468  1.3217  1.4208
39257SOL     OW21172   8.270   6.177   0.084 -0.2727  0.3845  0.2739
39257SOL    HW121173   8.327   6.243   0.122 -1.0120  1.3787 -0.2971
39257SOL    HW221174   8.207   6.227   0.032  0.5559 -0.8727 -2.1072
39258SOL     OW21175   5.378   4.332   7.354  0.0362  0.1406 -0.3932
39258SOL    HW121176   5.314   4.386   7.400  0.0054  0.4796 -0.8271
39258SOL    HW221177   5.402   4.264   7.417  0.4478  0.9557  0.3477
39259SOL     OW21178   8.895   6.033   6.699 -0.2377  0.0625  0.4738
39259SOL    HW121179   8.937   6.119   6.692 -1.0267  0.4273  0.1633
39259SOL    HW221180   8.804   6.052   6.720 -0.6828 -0.6555 -0.7126
39260SOL     OW21181   1.410   4.748   0.815  0.4235 -0.0792  0.2626
39260SOL    HW121182   1.436   4.833   0.780 -0.7336  0.2954  0.2449
39260SOL    HW221183   1.342   4.717   0.755  0.1726 -0.5758  0.7850
39261SOL     OW21184   0.507   8.241   2.086  0.0565 -0.3524  0.2741
39261SOL    HW121185   0.560   8.184   2.143  0.6930  0.0156  0.0602
39261SOL    HW221186   0.521   8.329   2.121  0.3187 -0.1423 -0.3387
39262SOL     OW21187   8.445   7.653   3.253 -0.0244  0.3335  0.2485
39262SOL    HW121188   8.417   7.561   3.254  1.3042 -0.1152 -0.7612
39262SOL    HW221189   8.400   7.692   3.327 -1.1161 -0.9832  0.3272
39263SOL     OW21190   3.008   7.557   7.923 -0.2223 -0.6571  0.0178
39263SOL    HW121191   3.051   7.580   7.840 -0.7822 -0.0984 -0.1292
39263SOL    HW221192   2.927   7.608   7.922 -0.7068 -1.3974  0.4625
39264SOL     OW21193   0.978   1.953   6.996  0.4353 -0.5689  0.5637
39264SOL    HW121194   1.049   1.903   6.956 -0.7244 -1.0637 -0.9593
39264SOL    HW221195   0.962   1.910   7.079  1.4091 -0.9136  0.5897
39265SOL     OW21196   6.694   7.794   1.892  0.1485 -0.4521 -1.2806
39265SOL    HW121197   6.772   7.848   1.906  0.1693 -0.6521 -0.6073
39265SOL    HW221198   6.621   7.849   1.919  0.3354 -1.6922  2.3832
39266SOL     OW21199   5.238   3.849   0.926 -0.7647  0.1548  0.5610
39266SOL    HW121200   5.206   3.799   1.001 -0.8013 -0.4131  0.1717
39266SOL    HW221201   5.310   3.797   0.891  0.6425  1.4293  1.4513
39267SOL     OW21202   8.781   2.947   4.034  0.4440 -0.4340  0.5687
39267SOL    HW121203   8.716   2.981   4.096  0.4679  0.6370  0.0259
39267SOL    HW221204   8.802   2.860   4.068  1.6646  0.7003  3.0405
39268SOL     OW21205   6.590   4.062   2.247 -0.4767 -0.2481 -0.0972
39268SOL    HW121206   6.657   4.128   2.270 -0.9321  0.1982 -0.0369
39268SOL    HW221207   6.600   3.995   2.315  1.2630 -1.2063 -1.2162
39269SOL     OW21208   5.136   0.316   8.609 -0.4296 -0.9202  0.1207
39269SOL    HW121209   5.091   0.400   8.623 -2.0116 -1.8009  0.5061
39269SOL    HW221210   5.190   0.305   8.687 -0.7176 -0.5725  0.3751
39270SOL     OW21211   2.999   9.573   8.999 -0.1549  0.0847 -0.4807
39270SOL    HW121212   2.956   9.504   8.948 -2.1160  0.5753  0.4086
39270SOL    HW221213   2.993   9.651   8.944 -0.7553  0.2357 -0.2063
39271SOL     OW21214   9.614   0.637   2.976 -0.2911  0.1355  0.0689
39271SOL    HW121215   9.573   0.701   2.917 -0.7637  0.8300  1.1348
39271SOL    HW221216   9.688   0.603   2.925 -0.6325  0.7860 -0.8953
39272SOL     OW21217   5.412   5.553   0.376  0.1303 -0.3758  0.0736
39272SOL    HW121218   5.429   5.491   0.305 -0.6966 -1.0848  0.4808
39272SOL    HW221219   5.325   5.530   0.408  0.6133 -0.2849  1.5207
39273SOL     OW21220   0.199   9.474   9.164  0.0502  0.3963 -0.0180
39273SOL    HW121221   0.176   9.559   9.201 -0.0493  0.3462  0.0359
39273SOL    HW221222   0.293   9.466   9.178  0.0496  0.4709  0.0298
39274SOL     OW21223   2.523   5.424   7.863 -0.4391 -0.3245 -0.2654
39274SOL    HW121224   2.482   5.353   7.913 -0.5976 -0.5483 -0.7087
39274SOL    HW221225   2.520   5.500   7.922  2.0635 -1.2786  1.2603
39275SOL     OW21226   0.480   4.922   7.531  0.1909  0.4889  0.2528
39275SOL    HW121227   0.466   4.843   7.582 -1.0477  0.1777 -0.5187
39275SOL    HW221228   0.474   4.893   7.440  0.5125  1.3362 -0.0455
39276SOL     OW21229   5.584  10.255   0.472  0.3983  0.8411 -0.6390
39276SOL    HW121230   5.629  10.321   0.419 -0.0313  0.5614 -1.3740
39276SOL    HW221231   5.621  10.264   0.560  2.7028 -0.1333 -1.4328
39277SOL     OW21232   3.141   8.263   7.181 -0.0263 -0.0369  0.1964
39277SOL    HW121233   3.157   8.280   7.088 -0.0592 -1.0842 -0.0164
39277SOL    HW221234   3.196   8.187   7.201 -1.5516 -1.0884  0.5166
39278SOL     OW21235   4.574   0.734   7.103  0.0747 -0.0824 -0.3278
39278SOL    HW121236   4.526   0.659   7.138  0.2365 -0.1744 -0.3057
39278SOL    HW221237   4.595   0.710   7.013  1.5026 -0.7221  0.1451
39279SOL     OW21238   8.743   4.134   8.808 -0.3070 -0.1322 -0.5084
39279SOL    HW121239   8.679   4.108   8.874 -0.4876  0.5333 -0.4169
39279SOL    HW221240   8.719   4.081   8.731 -1.6944  0.9001 -0.8395
39280SOL     OW21241   6.117   0.722   7.473  0.1994  0.0202 -0.2755
39280SOL    HW121242   6.194   0.678   7.438  0.5051 -0.0163  0.4131
39280SOL    HW221243   6.149   0.766   7.552 -0.0855  1.4928 -0.9496
39281SOL     OW21244   7.640   9.582   0.221  0.4767 -0.8675  0.4004
39281SOL    HW121245   7.683   9.500   0.196  1.6350 -0.3855  0.7351
39281SOL    HW221246   7.683   9.608   0.302  1.4298  0.9975 -0.6306
39282SOL     OW21247   3.615   3.016   9.033 -0.6620 -0.2236 -0.0015
39282SOL    HW121248   3.622   3.052   8.945 -1.3182 -2.0770 -0.8527
39282SOL    HW221249   3.591   3.091   9.087 -0.5345  0.8944 -1.4337
39283SOL     OW21250   0.268   1.208   2.204 -0.1635 -0.7760 -0.0894
39283SOL    HW121251   0.208   1.200   2.129 -1.6091 -0.7816  1.0142
39283SOL    HW221252   0.352   1.229   2.165 -1.0629  0.0829 -1.6750
39284SOL     OW21253   8.484   9.257   1.865  0.0329 -0.2837  0.1580
39284SOL    HW121254   8.561   9.202   1.850 -0.4646 -0.9902  0.1578
39284SOL    HW221255   8.517   9.346   1.859  1.0475 -0.5735  1.1566
39285SOL     OW21256   5.522  10.532   0.614 -0.5147 -0.0936  0.2652
39285SOL    HW121257   5.497  10.539   0.522 -0.4329  1.1341  0.3230
39285SOL    HW221258   5.464  10.465   0.649 -1.4711  0.3760 -0.3705
39286SOL     OW21259   4.212   0.211   3.215  0.4609 -0.2071  0.0837
39286SOL    HW121260   4.297   0.191   3.177  0.3697 -0.8249  0.1952
39286SOL    HW221261   4.197   0.303   3.193 -0.0620 -0.7856 -2.3016
39287SOL     OW21262   8.712   4.342   5.150 -0.2667 -0.1859  0.1366
39287SOL    HW121263   8.752   4.256   5.140  1.2806  0.4996  0.2786
39287SOL    HW221264   8.743   4.374   5.234 -0.9989  0.4457  0.1840
39288SOL     OW21265   4.380  10.016   3.900 -0.0144 -0.1604 -0.0544
39288SOL    HW121266   4.471  10.046   3.901 -0.3581  0.9026  0.5023
39288SOL    HW221267   4.387   9.923   3.881  1.2039 -0.1337  0.1206
39289SOL     OW21268   8.757   0.782   4.046 -0.5938 -0.2227 -0.3132
39289SOL    HW121269   8.837   0.732   4.063 -1.2263 -1.4664 -0.8738
39289SOL    HW221270   8.787   0.858   3.996  0.4282  0.1541  0.8119
39290SOL     OW21271   9.369   9.719   2.936 -0.3410 -0.1024 -0.3924
39290SOL    HW121272   9.284   9.698   2.975 -0.0152 -0.8586 -0.0756
39290SOL    HW221273   9.426   9.736   3.011 -0.3039  0.8227 -0.6126
39291SOL     OW21274   2.883   6.891  10.643  0.0188 -0.1158 -0.0420
39291SOL    HW121275   2.898   6.984  10.629 -1.4587  0.1969  0.2422
39291SOL    HW221276   2.901   6.878  10.736  1.1566 -0.3321 -0.2785
39292SOL     OW21277   6.638   2.010   8.514  0.7482 -0.1217  0.1843
39292SOL    HW121278   6.684   2.046   8.438  1.4096  1.4701  1.2822
39292SOL    HW221279   6.708   1.977   8.570  0.2204 -2.0299 -0.2015
39293SOL     OW21280   4.147   2.951   0.904  0.4508 -0.3796 -0.3061
39293SOL    HW121281   4.127   3.043   0.922  0.7852 -0.3348 -0.1614
39293SOL    HW221282   4.224   2.932   0.957 -1.1389 -1.4905  1.7677
39294SOL     OW21283   0.186  10.579   4.347 -0.2873  0.2866 -0.3206
39294SOL    HW121284   0.207  10.631   4.269 -1.9563  1.3074 -0.1273
39294SOL    HW221285   0.265  10.528   4.363  0.5797  1.0579 -1.8830
39295SOL     OW21286   6.782   4.150   9.238 -0.5143 -0.1593  0.0156
39295SOL    HW121287   6.830   4.192   9.310  1.5637 -0.8396 -0.8752
39295SOL    HW221288   6.848   4.093   9.196 -1.6655  0.1384 -2.3640
39296SOL     OW21289   6.861   3.903   0.416 -0.3637  0.3071 -0.7256
39296SOL    HW121290   6.782   3.952   0.439 -1.4020 -1.3819 -0.5853
39296SOL    HW221291   6.923   3.922   0.487 -0.9810  0.8608 -0.3311
39297SOL     OW21292   5.025   0.573   8.736 -0.0348  0.3656 -0.0626
39297SOL    HW121293   5.010   0.644   8.674 -1.3824 -0.9780 -1.3661
39297SOL    HW221294   5.117   0.581   8.760  0.5510  0.9415 -2.2672
39298SOL     OW21295   5.502   2.601  10.398 -0.3678 -0.5656  0.2717
39298SOL    HW121296   5.545   2.583  10.481 -1.2359 -1.0138  0.6284
39298SOL    HW221297   5.429   2.658  10.420 -0.0825  0.0400 -0.3086
39299SOL     OW21298   0.599   1.302  10.875 -0.1471  0.0053  0.6323
39299SOL    HW121299   0.604   1.384  10.923  0.2476 -1.0141  2.4262
39299SOL    HW221300   0.572   1.237  10.941 -1.9872 -1.0488 -1.0395
39300SOL     OW21301   3.409   7.338   9.894 -0.0526 -0.3036 -0.2140
39300SOL    HW121302   3.384   7.365   9.983  0.2574 -0.8110  0.0303
39300SOL    HW221303   3.328   7.305   9.856 -0.3575  0.6112 -0.3893
39301SOL     OW21304   2.838   0.133   2.511  0.0596  0.1264  0.2481
39301SOL    HW121305   2.780   0.203   2.483  1.0847  0.2562 -1.7792
39301SOL    HW221306   2.907   0.131   2.444  0.8961 -1.7914  1.0843
39302SOL     OW21307   8.966   8.100   2.459 -0.1449 -0.0283 -0.4455
39302SOL    HW121308   8.950   8.074   2.550 -1.1303 -2.0946 -1.1337
39302SOL    HW221309   9.051   8.144   2.461  0.2343 -0.7501  1.3441
39303SOL     OW21310   6.677   8.039   1.050  0.1562 -0.1436  0.2082
39303SOL    HW121311   6.737   7.965   1.057  2.2145  1.3995  0.1916
39303SOL    HW221312   6.690   8.088   1.132 -1.7101 -0.1537  0.5561
39304SOL     OW21313   7.273   4.274   2.859 -0.7555 -0.1421  0.4867
39304SOL    HW121314   7.327   4.217   2.804 -1.6996 -0.6652  0.0772
39304SOL    HW221315   7.325   4.287   2.938 -0.3659 -1.2943  0.4460
39305SOL     OW21316  10.425   2.769   4.829  0.4650  0.7507  0.3258
39305SOL    HW121317  10.471   2.718   4.762  1.6972  0.9136  1.0001
39305SOL    HW221318  10.388   2.703   4.888 -0.2141  0.6134 -0.2520
39306SOL     OW21319   2.688   8.149   2.848  0.2154  0.2042  0.4854
39306SOL    HW121320   2.594   8.136   2.836  0.2646  0.0530  0.2659
39306SOL    HW221321   2.729   8.089   2.787  0.4443  2.4580 -1.7336
39307SOL     OW21322   0.820   6.190   7.195 -0.5392 -0.3643  0.2070
39307SOL    HW121323   0.866   6.120   7.149  0.1032 -1.0692  1.8569
39307SOL    HW221324   0.887   6.255   7.212 -0.3936 -0.8365  1.5276
39308SOL     OW21325   0.062   8.057   5.678  0.2173  0.0066 -0.1853
39308SOL    HW121326   0.034   8.114   5.750  0.4582  0.4176 -0.4202
39308SOL    HW221327  -0.020   8.016   5.647  0.2553 -1.2323  1.2082
39309SOL     OW21328   9.772   8.587   7.026  0.7346  0.4345  0.2480
39309SOL    HW121329   9.757   8.511   6.971  0.4223 -0.3319  1.3544
39309SOL    HW221330   9.851   8.566   7.075  0.2189  0.4746  1.1175
39310SOL     OW21331   9.584   1.843   2.943  0.4574  0.4655  0.3995
39310SOL    HW121332   9.620   1.771   2.892  0.7401  0.6588  0.3202
39310SOL    HW221333   9.530   1.892   2.881  1.0501  0.8768  0.2059
39311SOL     OW21334   9.785  10.136   4.927 -0.2440 -0.2263  0.3395
39311SOL    HW121335   9.878  10.140   4.907 -0.1900 -0.5840  0.5134
39311SOL    HW221336   9.781  10.130   5.023 -0.3739 -1.8999  0.2657
39312SOL     OW21337   8.417  10.550   1.662  0.2305  0.4509 -0.1829
39312SOL    HW121338   8.339  10.510   1.623 -0.2122 -0.6779  1.7258
39312SOL    HW221339   8.427  10.506   1.747  0.5545  3.3989  1.4629
39313SOL     OW21340   1.658  10.194   8.009  0.2317  0.4912 -0.3702
39313SOL    HW121341   1.581  10.168   7.958  1.1219 -0.1414 -1.4414
39313SOL    HW221342   1.714  10.117   8.010  1.2546  1.2078 -0.3869
39314SOL     OW21343   6.823   8.436   2.903 -0.1830 -0.5335  0.2726
39314SOL    HW121344   6.857   8.377   2.835  1.5461 -1.5369  1.9081
39314SOL    HW221345   6.901   8.474   2.943 -1.1051 -0.4294  2.0682
39315SOL     OW21346   1.472   4.152   9.751  0.4837 -0.6235 -0.4817
39315SOL    HW121347   1.471   4.209   9.828  2.7701  0.5702 -1.2646
39315SOL    HW221348   1.477   4.063   9.787  1.2121 -0.1026  0.7617
39316SOL     OW21349   4.821   1.809   7.941 -0.1762 -0.4951 -0.0066
39316SOL    HW121350   4.776   1.724   7.935 -1.6561  0.3394 -1.4337
39316SOL    HW221351   4.818   1.844   7.853 -0.2004  1.3553  0.6882
39317SOL     OW21352  10.544   1.702   4.668 -0.9320 -0.3883  0.5754
39317SOL    HW121353  10.516   1.697   4.576  0.9861 -0.3518 -0.0437
39317SOL    HW221354  10.577   1.614   4.688 -1.1887 -0.3485  1.1909
39318SOL     OW21355   9.932   3.742   7.925  0.1277 -0.0586 -0.4040
39318SOL    HW121356   9.941   3.720   7.832  0.3798  0.8769 -0.6114
39318SOL    HW221357   9.905   3.660   7.966 -2.4744  0.0591 -1.6609
39319SOL     OW21358   1.921   6.923   8.672  0.0865 -0.4651 -0.5460
39319SOL    HW121359   1.924   6.931   8.577  4.4569  1.0763 -0.5097
39319SOL    HW221360   1.936   6.829   8.688  1.3971 -0.4420 -1.4491
39320SOL     OW21361   9.988   7.000   5.851 -0.3642 -0.6052  0.0203
39320SOL    HW121362  10.078   7.005   5.884 -0.4050 -2.4112  0.5265
39320SOL    HW221363   9.943   7.074   5.890  0.5933 -0.4220  0.8104
39321SOL     OW21364   7.453   3.920  10.795 -0.5817  0.3741 -0.5185
39321SOL    HW121365   7.404   3.843  10.825 -0.0654  0.2333 -0.0239
39321SOL    HW221366   7.403   3.952  10.721 -0.7245 -0.5321 -0.8301
39322SOL     OW21367   5.075   1.560   3.041 -0.2714  0.3769  0.0720
39322SOL    HW121368   5.015   1.615   2.991 -0.7902 -0.9119 -0.7615
39322SOL    HW221369   5.018   1.502   3.092  0.2494 -0.7318 -0.5819
39323SOL     OW21370   2.713   9.906   0.849  0.2396  0.5155 -0.2368
39323SOL    HW121371   2.721   9.838   0.783 -2.6187 -1.3962  1.1750
39323SOL    HW221372   2.623   9.937   0.841 -0.4540 -0.2545  3.0589
39324SOL     OW21373   2.628   3.732   2.224  0.1550 -0.1407 -0.0010
39324SOL    HW121374   2.693   3.743   2.155  0.5322  1.1765  0.5167
39324SOL    HW221375   2.548   3.772   2.189 -0.4805 -1.9453 -0.7193
39325SOL     OW21376   0.547   7.746   2.116  0.1248  0.3171 -0.1285
39325SOL    HW121377   0.470   7.731   2.171  0.8879 -0.4193  0.7757
39325SOL    HW221378   0.620   7.753   2.178  0.7622  1.2380 -0.9535
39326SOL     OW21379   1.390   9.708   6.221 -0.3259  0.1480 -0.1963
39326SOL    HW121380   1.434   9.626   6.201  0.1066 -0.0298  1.3214
39326SOL    HW221381   1.353   9.737   6.138  2.3057  0.1016 -1.4676
39327SOL     OW21382   3.457   3.114   8.050  0.2861  0.0922 -0.5737
39327SOL    HW121383   3.462   3.144   7.959  0.5472  0.6360 -0.3855
39327SOL    HW221384   3.373   3.069   8.056 -1.4824  3.1302 -0.2200
39328SOL     OW21385   4.340   7.520   3.520  0.3888  0.2407 -0.0708
39328SOL    HW121386   4.397   7.562   3.455 -0.0300 -0.0471 -0.6321
39328SOL    HW221387   4.253   7.522   3.481  0.5391 -2.2883 -0.7029
39329SOL     OW21388   1.140  10.688   9.882 -0.2742 -1.0705 -0.5054
39329SOL    HW121389   1.163  10.749   9.952  2.0968 -0.7967 -1.4262
39329SOL    HW221390   1.151  10.601   9.920  1.3783 -0.9287 -0.5910
39330SOL     OW21391   1.122   8.513   1.990  0.2876 -0.0965  0.2521
39330SOL    HW121392   1.095   8.582   2.051  1.6319 -0.1359  0.9438
39330SOL    HW221393   1.135   8.559   1.907  0.6472  0.4053  0.5749
39331SOL     OW21394   6.258   4.934   1.617 -0.4383  0.0216 -0.5902
39331SOL    HW121395   6.194   4.868   1.588 -0.7638  0.2587 -0.4290
39331SOL    HW221396   6.208   5.016   1.616  0.2377  0.4311 -1.7579
39332SOL     OW21397   8.598   8.112   6.478 -0.6809  0.0029  0.4783
39332SOL    HW121398   8.626   8.198   6.446  0.1532  0.2588  1.8253
39332SOL    HW221399   8.508   8.103   6.445  0.0392  0.2928 -1.7528
39333SOL     OW21400  10.246   8.025   6.727  0.1511 -0.1462 -0.6610
39333SOL    HW121401  10.232   7.931   6.730  2.3939 -0.5631 -1.8332
39333SOL    HW221402  10.284   8.047   6.812 -1.9086  0.0489  0.2765
39334SOL     OW21403   9.584   7.240   0.019  0.0656  0.8421 -0.3925
39334SOL    HW121404   9.646   7.291   0.071  1.4128  0.5315 -1.6492
39334SOL    HW221405   9.602   7.149   0.043 -0.7464  0.7997  0.1150
39335SOL     OW21406   5.081   6.053   3.789  0.0647 -0.7077  0.3315
39335SOL    HW121407   5.116   5.996   3.857  0.4816 -1.9825 -0.8884
39335SOL    HW221408   5.142   6.127   3.786  1.7437 -2.0376 -0.5467
39336SOL     OW21409   3.150   0.803   5.149 -0.6443  0.4112 -0.0673
39336SOL    HW121410   3.115   0.714   5.160 -0.7033  0.5596  1.0605
39336SOL    HW221411   3.227   0.792   5.094  0.0971 -0.5374  1.1109
39337SOL     OW21412   2.066   9.824   3.005  0.0684 -0.2560  0.5721
39337SOL    HW121413   2.053   9.918   2.992 -0.9981 -0.0222  2.7646
39337SOL    HW221414   2.060   9.787   2.918 -1.6312  1.5001 -0.1358
39338SOL     OW21415   3.258   0.258   1.849  0.4840 -0.3394 -0.8505
39338SOL    HW121416   3.324   0.219   1.791  0.6200  0.5320 -1.2817
39338SOL    HW221417   3.301   0.336   1.885  0.8849 -1.4859  1.4064
39339SOL     OW21418   1.621   7.949   9.265  0.2062  0.0507  0.6295
39339SOL    HW121419   1.630   8.017   9.332 -0.8297  0.8275  0.0229
39339SOL    HW221420   1.624   7.997   9.182 -0.4209 -0.6593  0.1828
39340SOL     OW21421  10.390   3.301   5.810  0.0726  0.1941 -0.0752
39340SOL    HW121422  10.446   3.224   5.825  0.8190  0.5668 -0.8566
39340SOL    HW221423  10.351   3.286   5.725 -2.8667 -1.1372  1.3595
39341SOL     OW21424   0.586   1.482   0.175 -0.1921  0.3594  0.2648
39341SOL    HW121425   0.500   1.454   0.207 -0.0694  1.0687  1.2669
39341SOL    HW221426   0.568   1.560   0.123 -0.0661  1.1881  1.4197
39342SOL     OW21427  10.529   2.947  10.022 -0.2172  0.6260  0.4494
39342SOL    HW121428  10.442   2.926   9.989 -0.7198  1.6308  1.0781
39342SOL    HW221429  10.513   2.985  10.109  1.0432 -2.2223  2.0743
39343SOL     OW21430   8.032  10.086   8.650 -0.0745 -0.4185 -0.3355
39343SOL    HW121431   8.015  10.157   8.588 -1.0650 -1.1539 -0.9342
39343SOL    HW221432   8.038  10.008   8.596  2.1488 -0.6780  0.1842
39344SOL     OW21433   6.369   8.868   5.880  0.0936 -0.6736  0.4484
39344SOL    HW121434   6.428   8.853   5.954  0.0959  1.4080  0.9423
39344SOL    HW221435   6.297   8.919   5.917 -0.5508 -0.7045 -0.7256
39345SOL     OW21436   6.017   8.823  10.859  0.2315  0.2689  0.1768
39345SOL    HW121437   6.074   8.746  10.861  0.2283  0.0552 -3.0552
39345SOL    HW221438   6.044   8.875  10.935  3.1000 -0.9547  0.1115
39346SOL     OW21439  10.437   9.163   6.562 -0.5019 -0.1582 -0.6334
39346SOL    HW121440  10.414   9.249   6.527  0.8049  1.0085  1.2240
39346SOL    HW221441  10.521   9.142   6.521  0.0783  0.3128  0.2995
39347SOL     OW21442   2.913   4.081  10.354 -0.3287 -0.2450 -0.5188
39347SOL    HW121443   2.864   4.104  10.433 -0.7151 -0.4971 -0.6792
39347SOL    HW221444   2.854   4.023  10.306 -0.4276  0.5535 -1.3910
39348SOL     OW21445   5.250  10.415   0.711 -0.4570 -0.6446  0.3362
39348SOL    HW121446   5.172  10.412   0.656 -1.4758  0.7131  1.6223
39348SOL    HW221447   5.227  10.365   0.789 -0.7109  1.1253  1.4638
39349SOL     OW21448  10.205   7.281   5.481 -0.4991 -0.0070  0.5612
39349SOL    HW121449  10.257   7.349   5.439  1.0649 -0.8158  1.1151
39349SOL    HW221450  10.230   7.284   5.573 -0.2801 -1.4079  0.5755
39350SOL     OW21451   4.894   5.882   4.691 -0.0490 -0.1076 -0.3044
39350SOL    HW121452   4.833   5.925   4.631 -0.2377 -1.4900 -1.1482
39350SOL    HW221453   4.838   5.830   4.749  0.2349  0.0040  0.0736
39351SOL     OW21454   7.708   3.776   5.270  0.2539  0.9007 -0.2309
39351SOL    HW121455   7.630   3.724   5.248  0.4053  0.2959  0.6408
39351SOL    HW221456   7.678   3.836   5.338  0.7326  0.1489  0.6511
39352SOL     OW21457   9.655   9.019   6.841  0.3453 -0.3049 -0.1231
39352SOL    HW121458   9.643   8.940   6.893  0.8556 -0.3159 -0.0088
39352SOL    HW221459   9.670   8.987   6.752  2.1698 -0.4523  0.1878
39353SOL     OW21460   6.858   3.087   7.025 -0.0059 -0.4028  0.0482
39353SOL    HW121461   6.849   3.149   7.097  1.4913  0.6528 -0.6068
39353SOL    HW221462   6.928   3.125   6.970 -0.6471 -1.4958 -1.5955
39354SOL     OW21463   8.651   6.184   9.503  0.2552  0.0817 -0.4673
39354SOL    HW121464   8.562   6.206   9.477  0.3702  0.5027 -0.5114
39354SOL    HW221465   8.647   6.174   9.598 -0.2263 -1.7463 -0.6395
39355SOL     OW21466   2.352   4.302   6.245  0.1129  0.1238 -0.1671
39355SOL    HW121467   2.405   4.280   6.168 -0.3570 -2.1436  0.1102
39355SOL    HW221468   2.407   4.279   6.320  0.0817  1.1341  0.1819
39356SOL     OW21469   1.656   2.020  10.712 -0.3802  0.0879  0.2122
39356SOL    HW121470   1.582   1.976  10.755 -1.9180  2.1262 -0.2092
39356SOL    HW221471   1.616   2.074  10.644  1.6656  0.0312 -1.1215
39357SOL     OW21472   0.183   8.235   0.490 -0.2966  0.1720 -0.1824
39357SOL    HW121473   0.147   8.300   0.430  1.1126  0.1893 -1.0758
39357SOL    HW221474   0.158   8.265   0.577 -1.7629  0.5455 -0.7048
39358SOL     OW21475   7.957   7.583   9.721 -0.5395  0.6151 -0.5747
39358SOL    HW121476   7.971   7.535   9.803 -0.1852  0.3595 -0.7799
39358SOL    HW221477   8.046   7.606   9.692 -0.7043  1.4000 -0.4793
39359SOL     OW21478   4.395   8.280   1.321 -0.0368 -0.0299  0.7904
39359SOL    HW121479   4.487   8.279   1.347 -0.4078 -2.6188  2.2760
39359SOL    HW221480   4.349   8.240   1.395 -2.1442 -0.3529 -0.6312
39360SOL     OW21481   3.974   9.617   7.434 -0.1320 -0.1121  0.6831
39360SOL    HW121482   4.016   9.700   7.414  1.8100 -1.5727 -1.9554
39360SOL    HW221483   3.919   9.635   7.511  1.0624  3.2676  0.8877
39361SOL     OW21484   2.535   4.342   1.477 -0.1025  0.4519  0.2924
39361SOL    HW121485   2.452   4.388   1.467 -0.9764 -1.1258  0.0117
39361SOL    HW221486   2.529   4.268   1.418  1.4713  0.2285  0.3671
39362SOL     OW21487   1.831   5.700   6.950 -0.0106 -0.5906  0.5882
39362SOL    HW121488   1.815   5.686   6.857 -2.3199  2.2877  0.4120
39362SOL    HW221489   1.753   5.666   6.993  0.6629 -1.1232  1.4261
39363SOL     OW21490   3.238   4.177   1.467 -0.2066  0.2036  0.2350
39363SOL    HW121491   3.310   4.136   1.515 -0.2884 -0.7421 -0.4270
39363SOL    HW221492   3.203   4.242   1.528  0.0724 -0.5549  1.2355
39364SOL     OW21493  10.601   0.805   4.179 -0.1784 -0.2959  0.2383
39364SOL    HW121494  10.612   0.888   4.133 -0.9286 -0.0052  0.5500
39364SOL    HW221495  10.532   0.823   4.244 -0.2192 -1.1084  0.4360
39365SOL     OW21496   0.844   5.731  10.278 -0.5379 -0.1657 -0.6482
39365SOL    HW121497   0.824   5.729  10.185 -1.2386 -2.6673 -0.5301
39365SOL    HW221498   0.759   5.745  10.321 -0.5283 -0.9172 -0.3661
39366SOL     OW21499  10.111   5.165   7.569  0.5316  0.0190  0.1589
39366SOL    HW121500  10.093   5.213   7.649  1.0347  0.4599  0.0157
39366SOL    HW221501  10.196   5.123   7.585  0.2466 -0.5659  0.1644
39367SOL     OW21502   8.449  10.039   1.312 -0.2238 -0.7267  0.0794
39367SOL    HW121503   8.475  10.131   1.305  2.9376 -1.6249 -1.7763
39367SOL    HW221504   8.495  10.007   1.390 -1.9585 -0.6531  1.2047
39368SOL     OW21505   5.490   3.950   7.567 -0.7617 -0.2220 -0.1358
39368SOL    HW121506   5.456   3.872   7.610 -1.6028 -0.8254 -1.7956
39368SOL    HW221507   5.487   3.929   7.473  0.3499  1.2712 -0.5527
39369SOL     OW21508   8.490   7.660  10.061 -0.1285 -0.0767  0.2428
39369SOL    HW121509   8.534   7.716  10.125 -1.6255  0.6843  0.6438
39369SOL    HW221510   8.417   7.622  10.109 -0.5356 -0.4960 -0.6815
39370SOL     OW21511   7.914   9.616   6.760 -0.5265  0.3477  0.1127
39370SOL    HW121512   7.928   9.550   6.828  1.2552  0.2202 -0.3340
39370SOL    HW221513   7.975   9.686   6.781  3.1206 -1.3869 -3.4053
39371SOL     OW21514   0.593   2.794   9.051  0.4425  0.0085  0.6570
39371SOL    HW121515   0.626   2.826   8.967 -1.5396 -1.5631 -0.8061
39371SOL    HW221516   0.609   2.700   9.048 -0.7451 -0.2316  1.5137
39372SOL     OW21517   6.250   6.145   1.764 -0.1557  0.0384  0.4693
39372SOL    HW121518   6.291   6.226   1.735 -0.0824 -0.0247  0.3957
39372SOL    HW221519   6.286   6.130   1.852  0.6548 -0.4749  0.0698
39373SOL     OW21520   9.262   9.572   8.796 -0.4063 -0.4028  0.5354
39373SOL    HW121521   9.174   9.585   8.760 -0.1331  0.5966  0.1920
39373SOL    HW221522   9.318   9.560   8.719  0.0964  1.1884  0.6078
39374SOL     OW21523   3.211   5.580   1.678 -0.6718  0.2566  0.3331
39374SOL    HW121524   3.284   5.530   1.643 -0.8208  1.9788 -2.8055
39374SOL    HW221525   3.252   5.652   1.727 -0.3883 -0.3714  1.0456
39375SOL     OW21526   8.021   2.049   1.322 -0.3228 -1.1567  0.1790
39375SOL    HW121527   8.003   2.131   1.277  1.7902 -0.1014  1.1352
39375SOL    HW221528   8.057   1.992   1.254  0.1534 -0.5692 -0.0699
39376SOL     OW21529   8.719   1.893   0.273  0.1580  0.5766  0.5252
39376SOL    HW121530   8.713   1.816   0.330  1.8367 -0.4727 -0.6133
39376SOL    HW221531   8.630   1.907   0.242 -0.4195 -0.0597  1.8093
39377SOL     OW21532   4.182   7.371   8.173  0.7906  0.3517 -0.6557
39377SOL    HW121533   4.218   7.391   8.259 -0.4820 -0.9060  0.2183
39377SOL    HW221534   4.129   7.293   8.187 -2.2845  2.0830 -1.8334
39378SOL     OW21535  10.436   0.297   3.233 -0.1519  0.7659 -0.1756
39378SOL    HW121536  10.525   0.272   3.256  0.4209  2.0269 -0.8866
39378SOL    HW221537  10.408   0.356   3.304  0.6497  2.5727 -1.2755
39379SOL     OW21538   8.464   4.426   7.161 -0.6543  0.0494 -0.3775
39379SOL    HW121539   8.419   4.349   7.126 -1.8485  1.3780 -1.9170
39379SOL    HW221540   8.538   4.390   7.210 -1.3773 -2.0771 -0.7308
39380SOL     OW21541  10.464   3.623   6.259 -0.2601  0.2929 -0.4244
39380SOL    HW121542  10.503   3.681   6.326 -0.5876 -0.9716  0.9168
39380SOL    HW221543  10.371   3.619   6.282 -0.0091 -1.9272  0.4951
39381SOL     OW21544   5.172   4.912   3.338  0.3152 -0.6436  0.5410
39381SOL    HW121545   5.143   4.935   3.250 -3.6825  1.3629  2.1227
39381SOL    HW221546   5.172   4.816   3.340 -0.3662 -0.7104 -1.3863
39382SOL     OW21547   1.177   6.197   7.182  0.7874 -0.1528 -0.0913
39382SOL    HW121548   1.114   6.143   7.134  0.9232 -0.4359  0.0487
39382SOL    HW221549   1.215   6.254   7.115  0.1368  0.2625 -0.1186
39383SOL     OW21550   2.589   7.378   9.902 -0.5186  0.5055  0.1370
39383SOL    HW121551   2.564   7.462   9.940 -1.5650  0.2254  0.0747
39383SOL    HW221552   2.509   7.343   9.866  0.0097 -0.3141 -0.2613
39384SOL     OW21553   7.372   8.034   4.087 -0.3299 -0.2694  0.1838
39384SOL    HW121554   7.390   8.064   4.176 -1.6138 -0.5577  0.5582
39384SOL    HW221555   7.459   8.019   4.049  0.2364 -0.2694  1.4221
39385SOL     OW21556   9.665   8.226   6.117  0.3460  0.1441  0.0494
39385SOL    HW121557   9.715   8.206   6.196  0.8462  0.2400 -0.2395
39385SOL    HW221558   9.576   8.239   6.148  0.4786 -0.1278  0.5581
39386SOL     OW21559  10.367   5.066   7.752 -0.5379  0.0193  0.2176
39386SOL    HW121560  10.422   4.989   7.769  1.2951  1.0903 -0.5437
39386SOL    HW221561  10.280   5.041   7.782  0.0503 -2.2783  0.1698
39387SOL     OW21562   5.376   5.280   2.824  0.9034  0.2703  0.5017
39387SOL    HW121563   5.389   5.343   2.754  0.3182  0.0798  0.2159
39387SOL    HW221564   5.338   5.331   2.895 -0.5719  0.0535 -0.1031
39388SOL     OW21565  10.082   2.083   3.782  0.1260  0.5953  0.1278
39388SOL    HW121566  10.115   2.152   3.724  0.0816 -0.5433 -1.3019
39388SOL    HW221567  10.001   2.053   3.741  0.4091 -0.6601  0.4401
39389SOL     OW21568   7.935  10.378   3.433  0.6670 -0.0510 -0.1263
39389SOL    HW121569   7.906  10.442   3.498  2.1313  0.1466  0.3781
39389SOL    HW221570   8.031  10.382   3.437  0.7853 -0.9600 -1.3955
39390SOL     OW21571   1.564   1.578   1.628 -0.0311 -0.2329  0.3585
39390SOL    HW121572   1.552   1.501   1.683  2.4489 -1.1005 -0.1859
39390SOL    HW221573   1.521   1.555   1.545 -1.8384  0.2023  1.1202
39391SOL     OW21574   6.191   4.892   7.958 -0.4565  0.4509 -0.3966
39391SOL    HW121575   6.214   4.923   8.045  0.6267  0.6295 -0.7357
39391SOL    HW221576   6.143   4.965   7.919 -0.7764  0.4434 -0.0219
39392SOL     OW21577   7.335   6.429   9.192  0.1341  0.3138  0.4628
39392SOL    HW121578   7.338   6.524   9.204 -0.1220  0.3149  0.5376
39392SOL    HW221579   7.337   6.416   9.098  1.8074  0.3266  0.4794
39393SOL     OW21580   1.244   3.091   6.406  0.2608  0.5288 -0.0491
39393SOL    HW121581   1.273   3.014   6.358  1.8298  1.1540 -0.1650
39393SOL    HW221582   1.266   3.165   6.349 -1.5619  1.0685 -0.1131
39394SOL     OW21583   3.035   9.013   7.430 -0.0138  0.1201  0.0117
39394SOL    HW121584   3.099   8.965   7.482  2.0446  3.0303  0.4461
39394SOL    HW221585   2.998   9.077   7.491  0.1367  1.5399 -1.3200
39395SOL     OW21586   5.539   7.405   2.929  0.0887  0.0612 -0.4102
39395SOL    HW121587   5.598   7.439   2.997  2.3822 -1.1794 -1.6406
39395SOL    HW221588   5.579   7.432   2.847 -1.2728 -0.5460 -1.3062
39396SOL     OW21589   0.205   8.787   0.784  0.1477  0.5573 -0.5770
39396SOL    HW121590   0.246   8.818   0.864 -0.4969  0.0585 -0.0486
39396SOL    HW221591   0.181   8.868   0.737  0.3284  0.8537 -0.1664
39397SOL     OW21592   1.834   5.534   8.956 -0.9647  0.7590 -1.0072
39397SOL    HW121593   1.816   5.495   9.042  0.0756  0.0601 -1.0913
39397SOL    HW221594   1.926   5.557   8.959 -0.2836 -1.3969 -2.7302
39398SOL     OW21595   5.243   1.694  10.225 -0.3760  1.0206 -0.4713
39398SOL    HW121596   5.243   1.611  10.176 -0.5108  2.0632 -2.3353
39398SOL    HW221597   5.334   1.723  10.224 -0.2961  0.8303  0.3464
39399SOL     OW21598   1.719  10.254   8.308 -0.1344 -0.1764  0.3974
39399SOL    HW121599   1.769  10.173   8.319  0.0538  0.0561  1.2766
39399SOL    HW221600   1.698  10.256   8.214  0.1437 -1.0702  0.3075
39400SOL     OW21601   0.530   0.857   3.495  0.0675 -0.4007  0.4010
39400SOL    HW121602   0.473   0.902   3.558  0.1777 -0.3978  0.4994
39400SOL    HW221603   0.568   0.928   3.443  0.2855 -0.3741  0.5937
39401SOL     OW21604   3.254   7.947   5.071  0.1397 -0.0053 -0.2192
39401SOL    HW121605   3.281   8.025   5.120  0.1274 -0.5188  0.6054
39401SOL    HW221606   3.298   7.957   4.986  0.6295  0.5936  0.0930
39402SOL     OW21607   0.269   1.959  10.883 -0.3596 -0.1733  0.0541
39402SOL    HW121608   0.312   1.882  10.921  1.0225  0.3287 -0.4367
39402SOL    HW221609   0.297   2.032  10.938  0.0894  0.2816 -0.7681
39403SOL     OW21610  10.382   8.575   6.691  0.0138 -0.3531  0.1297
39403SOL    HW121611  10.317   8.525   6.742 -0.3436  0.1739  0.1988
39403SOL    HW221612  10.358   8.667   6.705  0.4809 -0.1705 -0.2445
39404SOL     OW21613   1.629   1.810   4.500  0.1997 -0.0798 -0.5471
39404SOL    HW121614   1.708   1.832   4.549  0.7342 -0.5113 -1.1868
39404SOL    HW221615   1.585   1.893   4.485  0.0115  0.0630  0.6607
39405SOL     OW21616   0.845  10.400  10.135 -0.2289 -0.3980 -0.3436
39405SOL    HW121617   0.909  10.460  10.096  1.0405  0.5459  2.8345
39405SOL    HW221618   0.761  10.436  10.109  0.5304  0.9964 -1.0294
39406SOL     OW21619   8.368   1.018   4.181 -0.7053  0.2572  0.4593
39406SOL    HW121620   8.353   1.110   4.159  0.1876  0.1079 -0.8883
39406SOL    HW221621   8.463   1.008   4.182 -0.7859 -0.8122 -0.2555
39407SOL     OW21622   8.973   3.644   2.547  0.7419 -0.4548  0.5360
39407SOL    HW121623   8.954   3.602   2.463 -0.0094 -0.0704  0.5148
39407SOL    HW221624   8.992   3.571   2.606  1.4639 -0.7189 -0.0065
39408SOL     OW21625   6.034   9.609   5.357  0.1330  0.0799  0.2865
39408SOL    HW121626   5.951   9.640   5.393  0.8541  2.0399  0.3584
39408SOL    HW221627   6.074   9.560   5.429 -0.8462 -0.7136  0.3118
39409SOL     OW21628   9.602   1.373   9.983  0.6677 -0.3691 -0.0469
39409SOL    HW121629   9.579   1.291   9.939 -1.3501 -0.0806  0.4152
39409SOL    HW221630   9.613   1.349  10.075  1.4599 -0.3395 -0.1214
39410SOL     OW21631   2.226   2.265   3.337  0.9318  0.6594 -0.6800
39410SOL    HW121632   2.227   2.307   3.250  1.4049  0.9311 -0.5487
39410SOL    HW221633   2.317   2.268   3.365  0.5278  2.2512  0.6235
39411SOL     OW21634   4.545   7.341   8.534 -0.2396  0.1476 -0.4590
39411SOL    HW121635   4.513   7.382   8.614 -0.1068  1.1367 -0.8988
39411SOL    HW221636   4.563   7.250   8.559  0.3156  0.5732  0.7623
39412SOL     OW21637   4.280   1.794   6.757  0.0244 -0.0054  0.3447
39412SOL    HW121638   4.224   1.722   6.784  0.0351  0.0325  0.4675
39412SOL    HW221639   4.333   1.815   6.834 -0.3049  0.4442  0.4541
39413SOL     OW21640   6.005   6.075   4.759  0.8742  0.4569 -0.6983
39413SOL    HW121641   6.082   6.124   4.787  0.8078  1.0402 -1.4933
39413SOL    HW221642   6.028   5.984   4.773  1.4360  0.6588 -0.2590
39414SOL     OW21643   7.455   2.364   5.042 -0.3260 -0.0510  0.4754
39414SOL    HW121644   7.376   2.407   5.008  0.2465  0.6044 -0.0665
39414SOL    HW221645   7.449   2.274   5.009  0.3210  0.6205 -1.6345
39415SOL     OW21646   4.323   6.027  10.607 -0.2411 -0.3704 -0.0481
39415SOL    HW121647   4.261   5.955  10.599  1.5990 -1.9593 -0.7391
39415SOL    HW221648   4.409   5.987  10.595  0.8223  2.1341 -1.7809
39416SOL     OW21649   8.540   7.945  10.277 -0.0852 -0.0575  0.1488
39416SOL    HW121650   8.608   7.881  10.253  0.1481  0.8924 -1.9448
39416SOL    HW221651   8.498   7.907  10.354  0.4284 -2.4616 -0.6622
39417SOL     OW21652   9.057   1.658   1.945 -0.2879  0.0402 -0.3413
39417SOL    HW121653   9.006   1.716   2.001 -0.0796 -0.5737  0.5076
39417SOL    HW221654   9.081   1.584   2.002  1.0603  0.0394 -0.8644
39418SOL     OW21655   9.026   6.758   5.261  0.1932 -0.0196  0.1551
39418SOL    HW121656   9.061   6.844   5.283 -1.9951  1.3696 -1.3552
39418SOL    HW221657   8.936   6.775   5.235 -0.3574 -2.8187 -0.0977
39419SOL     OW21658  10.485   7.148   7.518 -0.4371 -0.1687  0.3354
39419SOL    HW121659  10.538   7.093   7.576 -0.4681 -0.4334  0.1137
39419SOL    HW221660  10.476   7.231   7.565 -2.0058 -0.9727  1.5894
39420SOL     OW21661   8.161   4.873   6.465 -0.1918 -0.1172 -0.3410
39420SOL    HW121662   8.175   4.780   6.481 -1.8741 -0.2940  0.3487
39420SOL    HW221663   8.065   4.883   6.464 -0.1244  1.9583  2.0800
39421SOL     OW21664   9.872   0.843   8.682  0.3301 -0.0938  0.1064
39421SOL    HW121665   9.941   0.811   8.740  0.4306  1.3692  0.8414
39421SOL    HW221666   9.791   0.812   8.723  0.4467  0.1095  0.5018
39422SOL     OW21667   2.415   3.828   2.070 -0.6039  0.1023  0.5469
39422SOL    HW121668   2.395   3.834   1.977  0.1462  0.5327  0.4030
39422SOL    HW221669   2.330   3.822   2.113 -0.9631  0.1219 -0.1467
39423SOL     OW21670   3.386   1.498   1.654  0.1470 -0.1130  0.8092
39423SOL    HW121671   3.305   1.550   1.655  0.1651 -0.0776  0.3494
39423SOL    HW221672   3.368   1.425   1.713 -0.1102  0.0638  0.9524
39424SOL     OW21673   8.186   4.510   2.856  0.0355  0.0267  0.2150
39424SOL    HW121674   8.093   4.486   2.848 -0.1318  0.4271  0.8913
39424SOL    HW221675   8.230   4.454   2.793 -0.7777  0.4383 -0.7571
39425SOL     OW21676  10.693   0.195   9.724  0.9235 -0.2297  0.2745
39425SOL    HW121677  10.740   0.208   9.642  1.2765 -1.8961  0.1638
39425SOL    HW221678  10.617   0.141   9.701  0.1429  0.6249  0.7979
39426SOL     OW21679   4.074   8.938   7.584 -0.6156  0.0351 -0.0623
39426SOL    HW121680   4.078   8.847   7.614  0.3779  0.0301 -0.1634
39426SOL    HW221681   4.166   8.962   7.570 -0.8391  1.1664  0.3033
39427SOL     OW21682   8.279   3.993   0.309 -0.3068  0.0390  0.2692
39427SOL    HW121683   8.319   3.937   0.243 -1.5751  0.5969 -1.0160
39427SOL    HW221684   8.328   3.975   0.389  0.7867 -1.1936 -0.6498
39428SOL     OW21685   7.068   0.188  10.135  0.3339  0.0606  0.2026
39428SOL    HW121686   6.976   0.188  10.159  0.9231  0.9798  2.8455
39428SOL    HW221687   7.106   0.258  10.188  2.2675  0.9475 -2.1543
39429SOL     OW21688   1.085   3.578   5.228 -0.3738 -0.6175 -0.6684
39429SOL    HW121689   1.167   3.609   5.266 -1.1535  0.6237  0.0867
39429SOL    HW221690   1.084   3.613   5.139  0.3286 -1.4433 -1.0167
39430SOL     OW21691   8.651  10.443   4.625  0.5320 -0.0808  0.6660
39430SOL    HW121692   8.562  10.421   4.598  0.7183  0.9118 -0.8908
39430SOL    HW221693   8.704  10.429   4.546  1.3560  1.6094  0.8689
39431SOL     OW21694   7.362   0.713   5.891 -0.2047  0.1738 -0.3924
39431SOL    HW121695   7.406   0.629   5.903  0.5147  0.6510  0.4638
39431SOL    HW221696   7.409   0.754   5.818 -0.1660  0.0836 -0.4187
39432SOL     OW21697   9.294   1.597   3.646  0.0804 -0.0383  0.5555
39432SOL    HW121698   9.207   1.581   3.683 -0.5518  0.4373 -0.6737
39432SOL    HW221699   9.279   1.662   3.577  1.7530  1.8904  1.8946
39433SOL     OW21700   0.397  10.774  10.418 -0.4957 -0.3156  0.2691
39433SOL    HW121701   0.426  10.850  10.366  0.6016 -0.4754  0.6317
39433SOL    HW221702   0.309  10.756  10.386 -0.6208  0.8734 -0.0975
39434SOL     OW21703   6.799   0.539   6.189  0.2124  0.2977  0.2457
39434SOL    HW121704   6.728   0.602   6.173  0.4649  0.0563 -2.1818
39434SOL    HW221705   6.878   0.584   6.160  0.2338 -1.5224 -2.9654
39435SOL     OW21706   3.331   8.704   5.130 -0.1818  0.4970 -0.1699
39435SOL    HW121707   3.356   8.653   5.052  1.5909 -0.3467  0.8825
39435SOL    HW221708   3.379   8.663   5.202 -2.4186  0.7237  1.5623
39436SOL     OW21709   2.192   8.931   1.044  0.2659 -0.6589 -0.1969
39436SOL    HW121710   2.148   9.011   1.018 -2.1166 -1.2628  1.5551
39436SOL    HW221711   2.136   8.861   1.010  0.5977 -1.4954  0.8996
39437SOL     OW21712   7.126   3.719   8.458  0.2747  0.4379 -0.2966
39437SOL    HW121713   7.130   3.810   8.426 -0.7330  0.8064  0.5467
39437SOL    HW221714   7.119   3.666   8.379  1.1810  1.0670 -0.8145
39438SOL     OW21715   4.163   2.117   4.825 -0.3077 -0.5398 -0.1026
39438SOL    HW121716   4.224   2.158   4.886 -0.0015  0.2267 -0.8899
39438SOL    HW221717   4.109   2.189   4.793 -1.2211 -1.1125  0.1080
39439SOL     OW21718   7.153   0.233   3.772 -0.1702  0.2108  0.7117
39439SOL    HW121719   7.081   0.226   3.834 -0.5652  1.4480  0.4423
39439SOL    HW221720   7.173   0.327   3.770 -2.8733  0.9938 -3.9269
39440SOL     OW21721   6.292   6.044   4.814 -0.5875 -0.6263  0.0454
39440SOL    HW121722   6.362   6.010   4.869 -0.2628 -0.1793 -0.0914
39440SOL    HW221723   6.279   6.134   4.844  0.0376 -0.1631 -1.0279
39441SOL     OW21724   7.258   7.255   9.803  0.0968  0.0148  0.8314
39441SOL    HW121725   7.272   7.325   9.866  0.3247  0.3617  0.3949
39441SOL    HW221726   7.167   7.265   9.775  0.2484  0.3814  0.4700
39442SOL     OW21727   9.031   7.844   7.656  0.4410  0.0390 -0.2424
39442SOL    HW121728   9.039   7.902   7.732  0.5235 -0.6290  0.2664
39442SOL    HW221729   9.012   7.903   7.583 -3.4951  0.4385  0.8992
39443SOL     OW21730   5.510  10.734   5.447 -0.4727 -0.3906  0.2784
39443SOL    HW121731   5.481  10.790   5.375 -1.7064 -0.6089  0.5675
39443SOL    HW221732   5.600  10.761   5.465 -0.6149  0.6099 -0.4263
39444SOL     OW21733   9.074   5.686  10.050 -0.1157 -0.8211 -0.1898
39444SOL    HW121734   9.024   5.657  10.126  0.4769 -0.3781  0.3712
39444SOL    HW221735   9.077   5.782  10.058 -0.3871 -0.7344 -0.9860
39445SOL     OW21736   7.460   1.731   9.906 -0.1721 -0.2330 -1.2908
39445SOL    HW121737   7.445   1.811   9.956 -1.8332 -1.9145  1.1388
39445SOL    HW221738   7.420   1.748   9.820 -0.6080  1.4799 -0.7738
39446SOL     OW21739   2.170   8.075   1.802 -0.0570  0.4369  0.3098
39446SOL    HW121740   2.252   8.120   1.784  1.3137 -1.7918  0.5884
39446SOL    HW221741   2.184   8.031   1.885 -1.6040  0.1300  0.4454
39447SOL     OW21742  10.469   4.716   8.717  0.3786 -0.2667  0.1660
39447SOL    HW121743  10.427   4.630   8.715  0.9212 -0.5474  0.5700
39447SOL    HW221744  10.431   4.763   8.643  0.6416 -1.1224 -0.5271
39448SOL     OW21745  10.838   8.841   8.926  0.0676 -0.2781  1.2444
39448SOL    HW121746  10.885   8.778   8.872 -0.5340 -0.8137  1.3366
39448SOL    HW221747  10.759   8.862   8.875  1.2625  2.0345  0.2260
39449SOL     OW21748   2.653  10.899   8.578 -0.6290 -0.0482  0.0285
39449SOL    HW121749   2.662  10.983   8.623  2.1331 -0.3031  0.1287
39449SOL    HW221750   2.694  10.913   8.493  2.5848 -1.9587  1.1062
39450SOL     OW21751   6.994   3.339   4.716 -0.5653  0.3486 -0.1660
39450SOL    HW121752   6.947   3.296   4.788  0.1442 -2.3029 -1.1592
39450SOL    HW221753   6.930   3.397   4.676 -1.7020 -0.0032  1.0893
39451SOL     OW21754   5.301  10.515  10.047 -0.0545 -0.0664  0.1191
39451SOL    HW121755   5.360  10.590  10.037 -1.0909  0.5139 -2.4820
39451SOL    HW221756   5.246  10.538  10.121 -1.0549  2.3347 -1.2510
39452SOL     OW21757   0.772  10.481   3.994  0.3835  0.0793  0.0097
39452SOL    HW121758   0.689  10.526   4.009 -0.1255 -0.4751 -1.0279
39452SOL    HW221759   0.826  10.544   3.947  0.2536  0.1664 -0.0216
39453SOL     OW21760   6.375   4.782   2.099  0.4227  0.1357 -0.0704
39453SOL    HW121761   6.446   4.723   2.123 -1.6522 -2.1313  0.9833
39453SOL    HW221762   6.400   4.817   2.014  2.8827 -0.3333  0.3955
39454SOL     OW21763   2.140   4.401  10.904 -0.0263  0.0689 -0.5113
39454SOL    HW121764   2.066   4.462  10.898  0.1145  0.2905 -0.0148
39454SOL    HW221765   2.185   4.409  10.820 -0.0722  0.5630 -0.4882
39455SOL     OW21766   0.735   7.598   8.207  0.0208  0.1736 -0.4764
39455SOL    HW121767   0.650   7.560   8.180  0.0151 -0.5432  0.4885
39455SOL    HW221768   0.780   7.526   8.250 -0.2183  1.4076  1.9658
39456SOL     OW21769   3.034  10.220   7.478  0.5920 -0.0451  0.3679
39456SOL    HW121770   3.097  10.149   7.493 -0.6172 -1.0288  1.0813
39456SOL    HW221771   3.033  10.231   7.383  0.0503 -1.7524  0.1327
39457SOL     OW21772   6.993   9.559   5.789 -0.4855  0.1802  0.0659
39457SOL    HW121773   7.027   9.640   5.752 -0.7629  0.1744 -0.2059
39457SOL    HW221774   6.960   9.584   5.875 -0.3008  0.2979  0.1025
39458SOL     OW21775   9.205   3.710   9.214 -0.4056  0.6492 -0.0792
39458SOL    HW121776   9.258   3.790   9.216  2.7482 -1.0562 -3.2408
39458SOL    HW221777   9.118   3.738   9.242  1.1107  4.5840  1.4329
39459SOL     OW21778   7.677   6.675   5.068 -0.0705  0.3426 -0.0872
39459SOL    HW121779   7.767   6.689   5.040  0.2052 -0.6195  0.2929
39459SOL    HW221780   7.650   6.760   5.104  1.7452 -0.1084  2.7303
39460SOL     OW21781   4.465   7.702   3.290  0.1685  0.4613 -0.1097
39460SOL    HW121782   4.511   7.773   3.246 -0.8315  0.2266 -1.6156
39460SOL    HW221783   4.372   7.721   3.277 -0.1824  0.3184  1.8627
39461SOL     OW21784   0.732  10.901   1.933  0.2124 -0.4077  0.4089
39461SOL    HW121785   0.697  10.817   1.964 -0.2191  0.2170  1.6974
39461SOL    HW221786   0.663  10.936   1.877 -0.7799  0.2514  1.9625
39462SOL     OW21787   8.496   0.797   6.209  0.0300  0.5116 -0.3573
39462SOL    HW121788   8.574   0.759   6.168  0.0753  0.7638 -0.5074
39462SOL    HW221789   8.479   0.877   6.159 -1.3094 -0.3872 -1.3794
39463SOL     OW21790   6.670   2.364   3.041 -0.9842 -0.0271 -0.3038
39463SOL    HW121791   6.680   2.450   3.000 -1.0184  0.2334  0.2287
39463SOL    HW221792   6.728   2.307   2.991  1.1535  0.8714  1.0177
39464SOL     OW21793   2.162   1.683  10.135 -0.3924 -0.2525  0.3045
39464SOL    HW121794   2.230   1.619  10.113  0.0541  0.7014 -1.2604
39464SOL    HW221795   2.084   1.653  10.089 -0.0001  0.6460 -1.0126
39465SOL     OW21796   8.889   2.758   2.399 -0.6391  0.3207  0.0182
39465SOL    HW121797   8.859   2.677   2.440 -2.0256  1.1367  0.6915
39465SOL    HW221798   8.964   2.785   2.452 -0.1240 -0.5432 -0.2523
39466SOL     OW21799   3.398   6.170   0.307 -0.4840  0.6067  0.1198
39466SOL    HW121800   3.485   6.198   0.280 -0.4020 -0.4769 -0.8343
39466SOL    HW221801   3.339   6.238   0.275 -0.1315  0.5917 -0.5727
39467SOL     OW21802   0.915   4.976   9.865  0.5650  0.4073 -0.0276
39467SOL    HW121803   0.976   4.962   9.793 -1.0927  0.0161 -1.4342
39467SOL    HW221804   0.933   4.905   9.926 -1.3647 -2.5262 -2.5546
39468SOL     OW21805   5.401   4.867   0.106  0.2315 -0.1786 -0.1056
39468SOL    HW121806   5.409   4.772   0.093 -2.0068 -0.3300 -0.7495
39468SOL    HW221807   5.310   4.880   0.133  1.1007  1.5928  2.2952
39469SOL     OW21808   2.801   0.497   8.896 -0.1895  0.4634 -0.3163
39469SOL    HW121809   2.712   0.499   8.929  0.1231  1.0464  0.5142
39469SOL    HW221810   2.855   0.475   8.972  0.1903 -2.2712 -1.2666
39470SOL     OW21811  10.567   5.838   6.405 -0.4351 -0.2523 -0.0890
39470SOL    HW121812  10.582   5.760   6.353 -0.7712  0.8431 -1.9375
39470SOL    HW221813  10.655   5.874   6.421 -0.3171 -0.7062  0.3066
39471SOL     OW21814   8.192   1.617   7.071  0.4660  0.2995  0.1443
39471SOL    HW121815   8.141   1.603   6.992 -1.1226  0.5297  1.0845
39471SOL    HW221816   8.175   1.539   7.125  1.0674  0.4006  0.4919
39472SOL     OW21817   5.354   7.313   7.996 -0.0867 -0.2514  0.3951
39472SOL    HW121818   5.349   7.353   7.909 -1.6233  1.3608  1.1818
39472SOL    HW221819   5.351   7.387   8.057  0.9091 -1.3503  1.8530
39473SOL     OW21820   8.753   2.796   6.682 -0.0477 -0.8191 -0.6517
39473SOL    HW121821   8.847   2.806   6.695 -0.2928  0.9141  0.2389
39473SOL    HW221822   8.734   2.845   6.602 -0.0879 -1.8935 -1.3097
39474SOL     OW21823   6.750   8.989   5.721 -0.3262  0.3930  0.8582
39474SOL    HW121824   6.691   9.061   5.743 -0.0605  0.8360  0.1446
39474SOL    HW221825   6.838   9.024   5.734 -0.1739  0.4954 -0.3385
39475SOL     OW21826   4.216   2.652   1.046  0.1670 -0.2583 -0.5510
39475SOL    HW121827   4.224   2.696   0.962 -0.6716  1.4849  0.2275
39475SOL    HW221828   4.291   2.684   1.097  0.6534 -1.2800 -0.5958
39476SOL     OW21829   9.162   8.190   5.784 -0.4615  0.0774  0.1898
39476SOL    HW121830   9.098   8.254   5.755 -2.0257 -1.0992  0.8769
39476SOL    HW221831   9.122   8.105   5.765  0.2284 -0.7095  1.9515
39477SOL     OW21832   4.450   9.702   6.617  0.7324 -0.1406 -0.0119
39477SOL    HW121833   4.364   9.742   6.606  0.3852 -1.2120 -1.4476
39477SOL    HW221834   4.480   9.733   6.703 -1.8418 -1.1680  1.3630
39478SOL     OW21835   2.447   3.921   7.798 -0.5821  0.1296 -0.5197
39478SOL    HW121836   2.401   3.837   7.800 -1.0183  0.3263  2.3567
39478SOL    HW221837   2.386   3.981   7.756 -1.3613 -0.4589 -0.2599
39479SOL     OW21838   6.207   8.077  10.318 -0.1770 -0.3050 -0.1183
39479SOL    HW121839   6.218   8.155  10.263 -0.8813 -1.7393 -2.4462
39479SOL    HW221840   6.282   8.022  10.296 -1.2202 -1.5113 -0.7697
39480SOL     OW21841   1.759   2.668   8.783 -0.3924  0.2699 -0.1484
39480SOL    HW121842   1.809   2.670   8.701 -0.1622 -0.7103 -0.0491
39480SOL    HW221843   1.766   2.757   8.818  2.2887 -0.0683  0.4267
39481SOL     OW21844   0.890   3.717   8.654 -0.0396  0.9695  0.3921
39481SOL    HW121845   0.957   3.707   8.722 -0.2071 -1.6191  0.2884
39481SOL    HW221846   0.939   3.712   8.572 -0.3438 -1.8771  0.2972
39482SOL     OW21847   7.732   2.843   7.156  1.4276  0.1810  0.1885
39482SOL    HW121848   7.715   2.765   7.102 -0.7725  0.2135  0.7645
39482SOL    HW221849   7.775   2.904   7.097 -0.4545  0.0213 -1.4348
39483SOL     OW21850   1.829   7.860   4.897  0.1006  0.4205 -0.4385
39483SOL    HW121851   1.898   7.925   4.915  0.2916  0.2826 -0.6837
39483SOL    HW221852   1.762   7.910   4.850  0.1259  0.5019 -0.3902
39484SOL     OW21853   3.499   1.498   3.680  0.0181 -0.0497  0.3536
39484SOL    HW121854   3.433   1.534   3.621 -0.6100  1.2233  1.7495
39484SOL    HW221855   3.557   1.447   3.624 -2.1758 -1.2910 -0.9325
39485SOL     OW21856   1.115   9.693   0.976 -0.0853 -0.2831 -0.0688
39485SOL    HW121857   1.151   9.604   0.986 -2.7310 -1.5676 -0.9058
39485SOL    HW221858   1.048   9.683   0.908 -0.6285  2.3459  0.0048
39486SOL     OW21859   6.143  10.282   2.004  0.5597  0.0736  0.3562
39486SOL    HW121860   6.065  10.266   2.057  0.6125  2.1066  1.1373
39486SOL    HW221861   6.123  10.243   1.919 -0.7017 -0.7298  0.9897
39487SOL     OW21862   7.868   2.562   7.928 -0.4633 -0.0635  0.2738
39487SOL    HW121863   7.928   2.494   7.900  0.0611  0.7335 -0.6191
39487SOL    HW221864   7.850   2.612   7.848 -2.2895 -0.2508  0.5113
39488SOL     OW21865   1.607  10.169   5.792  0.2168 -0.2168  0.1139
39488SOL    HW121866   1.514  10.152   5.800  0.1076  0.6854  0.9119
39488SOL    HW221867   1.614  10.233   5.720  0.2516 -0.4869 -0.1254
39489SOL     OW21868   5.439   4.840   7.543 -0.1711  0.1245  0.5946
39489SOL    HW121869   5.350   4.809   7.528 -0.3819  0.5289  1.0048
39489SOL    HW221870   5.471   4.785   7.615 -0.3747  0.5285  0.9944
39490SOL     OW21871   4.325   6.971   7.505  0.3730 -0.5708  0.2243
39490SOL    HW121872   4.235   6.985   7.476 -0.5556 -1.7159  2.3523
39490SOL    HW221873   4.364   6.916   7.437 -1.2697 -1.9887  0.3623
39491SOL     OW21874   6.376   4.261   2.238 -0.2929  0.1968  0.9042
39491SOL    HW121875   6.320   4.231   2.166  0.0699  1.0002  0.2673
39491SOL    HW221876   6.449   4.200   2.239  0.5890  1.1582 -0.5677
39492SOL     OW21877   3.191   8.527   6.049  0.0635 -0.5930 -0.0579
39492SOL    HW121878   3.141   8.460   6.000 -1.0394 -0.3574  0.6920
39492SOL    HW221879   3.281   8.517   6.018 -0.1763 -2.0482 -0.3872
39493SOL     OW21880   7.298   6.693   2.075  0.1650 -0.0098 -0.2077
39493SOL    HW121881   7.305   6.745   1.995  1.2231  0.7643  0.3751
39493SOL    HW221882   7.383   6.650   2.083 -0.3528 -1.0611 -0.1425
39494SOL     OW21883   4.844   3.767   2.400  0.4031  0.4266  0.0814
39494SOL    HW121884   4.827   3.796   2.311 -0.9181  0.9824  0.4908
39494SOL    HW221885   4.828   3.673   2.398 -2.5578  0.8348  0.3338
39495SOL     OW21886   8.351   4.265   5.908 -0.0173 -0.2078 -0.3927
39495SOL    HW121887   8.256   4.280   5.905  0.1252  0.9784  0.4689
39495SOL    HW221888   8.388   4.352   5.923  1.0909 -0.9396  1.3630
39496SOL     OW21889   7.232   7.289   8.607  0.0903  0.3503  0.4900
39496SOL    HW121890   7.321   7.254   8.603  0.0048  0.1868 -0.1562
39496SOL    HW221891   7.179   7.218   8.642 -0.1269 -0.2910 -1.0492
39497SOL     OW21892   7.596   2.284   8.022  0.1087 -0.1205 -0.0280
39497SOL    HW121893   7.619   2.283   7.929  0.4959  0.5114  0.0542
39497SOL    HW221894   7.548   2.366   8.034 -0.9413 -0.7285  0.1058
39498SOL     OW21895   4.250   4.458   2.685  0.4162  0.0397 -0.3635
39498SOL    HW121896   4.228   4.428   2.773 -1.7827 -0.5854 -1.0454
39498SOL    HW221897   4.218   4.388   2.627 -0.0814  1.3461 -1.7464
39499SOL     OW21898   9.121   1.466   2.114 -0.1695  0.4460 -0.1558
39499SOL    HW121899   9.186   1.506   2.173  0.7854  0.5987 -1.2766
39499SOL    HW221900   9.088   1.391   2.163  0.4124  0.7202  0.6824
39500SOL     OW21901   2.404   0.737  10.817  0.5235 -0.1808 -0.2126
39500SOL    HW121902   2.472   0.785  10.770  0.5532 -0.4796 -0.4741
39500SOL    HW221903   2.386   0.791  10.895  2.4066 -1.0120  0.8598
39501SOL     OW21904   9.408   6.771   8.475 -0.0268  0.0546 -0.0430
39501SOL    HW121905   9.425   6.787   8.382 -1.3853  0.0971 -0.3044
39501SOL    HW221906   9.360   6.848   8.504 -0.2301 -0.2837  0.5198
39502SOL     OW21907  10.684   7.816   3.385 -0.4104 -0.5140 -0.0754
39502SOL    HW121908  10.595   7.818   3.420  0.4044 -2.4794  2.4228
39502SOL    HW221909  10.710   7.724   3.393  1.6913 -0.0638 -1.1786
39503SOL     OW21910   8.662   2.491   7.439  0.2970  0.2995  0.1549
39503SOL    HW121911   8.664   2.531   7.353 -0.1582  1.9784  0.8925
39503SOL    HW221912   8.598   2.419   7.431 -0.0060  0.6690 -0.7985
39504SOL     OW21913   0.298   8.546  10.577 -0.3969  0.2275  0.3704
39504SOL    HW121914   0.310   8.456  10.547  0.2718  0.2775  0.4725
39504SOL    HW221915   0.320   8.599  10.501  1.6984  0.3684  1.0064
39505SOL     OW21916   4.682   7.990   4.149 -0.0532 -0.1720  0.5338
39505SOL    HW121917   4.671   7.945   4.066  0.5459  0.2386  0.2231
39505SOL    HW221918   4.615   8.058   4.148 -1.0030 -1.0752  1.0341
39506SOL     OW21919   3.607   5.314   9.206  0.0687  0.1767  0.0795
39506SOL    HW121920   3.669   5.305   9.134  2.4054  4.4938  1.1870
39506SOL    HW221921   3.537   5.369   9.171 -0.0426  0.2775  0.4534
39507SOL     OW21922  10.868   0.581   8.431  1.1558 -0.3220 -0.2989
39507SOL    HW121923  10.896   0.560   8.342  0.8887  0.2959 -0.5325
39507SOL    HW221924  10.901   0.509   8.484 -1.8638 -2.8037 -1.4440
39508SOL     OW21925   4.334   0.505   6.831 -0.7367 -0.0852  0.6767
39508SOL    HW121926   4.327   0.584   6.778 -2.0247 -0.7139 -0.1598
39508SOL    HW221927   4.274   0.519   6.904 -1.2937 -0.4400  0.2978
39509SOL     OW21928   9.878   2.543   3.348  0.0163 -0.4712  0.2218
39509SOL    HW121929   9.913   2.517   3.433  1.1524 -0.9906 -0.3878
39509SOL    HW221930   9.955   2.562   3.294 -0.5905 -1.7278 -1.1780
39510SOL     OW21931   7.829   1.150   5.254  0.9765  0.0719  0.6862
39510SOL    HW121932   7.750   1.111   5.215  1.5731 -0.5241  0.0511
39510SOL    HW221933   7.823   1.242   5.230 -0.3481  0.3676  2.0333
39511SOL     OW21934   4.471   6.764   2.166  0.3380 -0.7477  0.5770
39511SOL    HW121935   4.398   6.768   2.104  0.7289  0.7302  0.1606
39511SOL    HW221936   4.549   6.776   2.112  0.6373  1.5207  1.3851
39512SOL     OW21937   1.379   9.408   8.345  0.7198 -0.2226 -0.4697
39512SOL    HW121938   1.368   9.318   8.375  1.4306  0.2510  1.3695
39512SOL    HW221939   1.299   9.427   8.297 -1.0351 -0.7727  1.9852
39513SOL     OW21940   8.934   6.837   2.401  0.4522  0.0776 -0.3609
39513SOL    HW121941   8.941   6.782   2.322 -1.2008  0.3877 -0.7631
39513SOL    HW221942   8.851   6.811   2.441  0.0013  1.7438 -0.1461
39514SOL     OW21943   0.024   4.107   1.178  0.4460  0.3457 -0.3443
39514SOL    HW121944   0.045   4.128   1.087  0.3002  1.3692 -0.1577
39514SOL    HW221945   0.005   4.192   1.218 -0.1117 -0.1564  0.4821
39515SOL     OW21946   4.734   5.973   0.905  0.3178 -0.1471  0.4757
39515SOL    HW121947   4.749   5.881   0.884 -0.3442 -0.6531  2.0300
39515SOL    HW221948   4.757   5.980   0.998  0.7228  1.3542  0.2864
39516SOL     OW21949   0.263  10.133   3.217 -0.5299 -0.2419  0.1320
39516SOL    HW121950   0.249  10.164   3.306  1.2394 -0.7008  0.6092
39516SOL    HW221951   0.258  10.038   3.224 -0.0421 -0.2928 -0.1873
39517SOL     OW21952   6.362   0.873  10.612  0.3352  0.4029 -0.0412
39517SOL    HW121953   6.342   0.836  10.698  0.4418 -0.4412 -0.3768
39517SOL    HW221954   6.363   0.798  10.553 -0.0573  1.0192 -0.8424
39518SOL     OW21955   9.779   3.065   4.841 -0.2533  0.0659  0.2480
39518SOL    HW121956   9.756   3.155   4.864  1.1209  0.4881  0.0622
39518SOL    HW221957   9.790   3.020   4.925  0.8344  0.5691  0.3997
39519SOL     OW21958   0.522   8.648   1.224 -0.0187  0.1430  0.2977
39519SOL    HW121959   0.446   8.647   1.283  0.7567 -0.4415  1.3270
39519SOL    HW221960   0.592   8.606   1.275  0.7849 -0.0336 -0.9137
39520SOL     OW21961   4.297   2.359   3.267  0.1241  0.0761  0.0642
39520SOL    HW121962   4.376   2.410   3.251 -0.3864  1.0066  0.4094
39520SOL    HW221963   4.225   2.415   3.236 -0.3014 -1.6250 -2.2945
39521SOL     OW21964   8.954   8.820   1.928  0.3638  0.5093  0.0811
39521SOL    HW121965   9.023   8.885   1.936 -0.5929  1.4021  1.6891
39521SOL    HW221966   8.911   8.841   1.845 -0.1116  2.1662  0.7069
39522SOL     OW21967   4.518   9.258   1.863 -0.3169 -1.0043  0.2065
39522SOL    HW121968   4.549   9.262   1.772  1.8112  1.0470  0.9350
39522SOL    HW221969   4.446   9.321   1.865  1.2928  0.9116  0.4497
39523SOL     OW21970   5.658   4.463   8.203  0.6452  0.0024 -0.0591
39523SOL    HW121971   5.608   4.501   8.275  2.3775 -0.3765  1.4333
39523SOL    HW221972   5.710   4.394   8.243  0.9671 -0.8778 -1.8732
39524SOL     OW21973   6.882   7.993   3.793  0.0504 -0.8633 -0.3804
39524SOL    HW121974   6.847   8.082   3.798 -0.8787 -1.2329  0.1123
39524SOL    HW221975   6.976   8.005   3.785 -0.1955  0.1875 -2.2818
39525SOL     OW21976  10.700  10.392   4.054 -0.2283  0.3916  0.8159
39525SOL    HW121977  10.752  10.324   4.010 -0.6860 -0.5607  1.6979
39525SOL    HW221978  10.761  10.465   4.065  0.8686 -0.5909  1.5759
39526SOL     OW21979   4.805   8.997   3.142 -0.3666 -0.6247  0.0253
39526SOL    HW121980   4.757   8.915   3.139 -2.3116  0.4544 -0.1746
39526SOL    HW221981   4.896   8.973   3.124 -1.0761 -2.5697 -1.2394
39527SOL     OW21982   4.430   8.278   3.885  0.1296 -0.2989 -0.1824
39527SOL    HW121983   4.362   8.342   3.907  0.3744  0.2491 -0.9548
39527SOL    HW221984   4.400   8.240   3.802  0.2678 -0.7785 -0.0133
39528SOL     OW21985   7.071   6.179   4.051  0.7025 -0.4799  0.4614
39528SOL    HW121986   7.136   6.131   4.103  1.3593  0.0634  0.1747
39528SOL    HW221987   7.080   6.270   4.081 -1.3357 -0.6585  1.8357
39529SOL     OW21988   5.717  10.313   0.717 -0.2110 -0.0233 -0.0979
39529SOL    HW121989   5.727  10.376   0.788  0.3627 -2.3145  2.0172
39529SOL    HW221990   5.807  10.285   0.697 -0.2392  1.4040 -2.6379
39530SOL     OW21991   4.867   4.796   3.383 -0.2534 -0.3099 -0.4243
39530SOL    HW121992   4.824   4.837   3.457  1.2770 -0.8921  0.8363
39530SOL    HW221993   4.946   4.849   3.368  0.3439 -1.1990 -0.5055
39531SOL     OW21994   9.081   5.532   0.935 -0.0603  0.2630  0.2664
39531SOL    HW121995   9.126   5.480   0.869  0.3798 -0.4966  1.1559
39531SOL    HW221996   9.078   5.620   0.898 -0.4850 -0.3007 -1.0885
39532SOL     OW21997   5.580   6.152   0.835  0.4465  0.2803 -0.3564
39532SOL    HW121998   5.646   6.084   0.820  0.4332  0.5089 -1.5827
39532SOL    HW221999   5.607   6.224   0.778 -0.5933  0.5584 -0.5132
39533SOL     OW22000   5.859   8.351  10.110  0.1535 -0.0576 -0.1014
39533SOL    HW122001   5.949   8.377  10.093 -0.2945  2.7215  1.1401
39533SOL    HW222002   5.806   8.420  10.069 -1.2477  0.1023  1.8298
39534SOL     OW22003   9.467   3.130   3.710 -0.5946  0.2854 -0.4357
39534SOL    HW122004   9.415   3.201   3.673  0.4787  1.8269  0.8827
39534SOL    HW222005   9.557   3.162   3.709  0.6804 -2.7103 -3.6382
39535SOL     OW22006   9.696   2.678   0.273  0.1732 -0.8645  0.0854
39535SOL    HW122007   9.778   2.681   0.323  0.0848  0.4556  0.1885
39535SOL    HW222008   9.697   2.758   0.221 -2.0040  0.2559  1.6207
39536SOL     OW22009   8.818   4.932   8.232  0.4412  0.4809  1.2301
39536SOL    HW122010   8.892   4.956   8.177  0.2547 -2.1194 -0.3320
39536SOL    HW222011   8.852   4.934   8.321  2.6596 -1.3352  0.5006
39537SOL     OW22012   3.894   1.522   1.606 -0.2399  0.1082  0.3029
39537SOL    HW122013   3.890   1.598   1.547 -0.9703 -0.0242  0.1694
39537SOL    HW222014   3.907   1.447   1.549 -1.9106 -0.1334  0.1956
39538SOL     OW22015   3.580   4.275   6.740 -0.0227 -0.2207  0.2449
39538SOL    HW122016   3.648   4.288   6.806 -1.2651  1.1358  1.3355
39538SOL    HW222017   3.518   4.215   6.781 -1.1079  1.0908  0.6366
39539SOL     OW22018   7.745   6.415   8.335 -0.4333 -0.1017  0.6475
39539SOL    HW122019   7.755   6.322   8.355  2.4963 -0.1169 -0.3847
39539SOL    HW222020   7.795   6.460   8.404 -2.0703  0.7921  1.3194
39540SOL     OW22021   8.793   4.432   4.870  0.4718  0.1236  0.2326
39540SOL    HW122022   8.877   4.420   4.915  2.1679  1.4675 -2.3661
39540SOL    HW222023   8.738   4.477   4.934  2.0811  0.2265  1.6147
39541SOL     OW22024   4.449  10.716   7.461 -0.0765  0.0996 -0.0340
39541SOL    HW122025   4.536  10.720   7.499 -1.5004  1.2877  3.4671
39541SOL    HW222026   4.401  10.654   7.516 -1.5423 -0.3996 -1.7570
39542SOL     OW22027   4.705   6.029   4.558 -0.5180 -0.2689  0.0592
39542SOL    HW122028   4.734   6.028   4.467  1.7601  0.0899  0.7002
39542SOL    HW222029   4.611   6.046   4.554 -0.7860 -1.8174 -2.2579
39543SOL     OW22030  10.219   2.650   3.909 -0.0095 -0.6248  0.2905
39543SOL    HW122031  10.226   2.728   3.854 -1.0586 -0.7496 -0.0418
39543SOL    HW222032  10.276   2.668   3.984 -0.3209  0.4980  0.2684
39544SOL     OW22033   3.540   0.133   7.711 -0.4458 -0.4602  0.4260
39544SOL    HW122034   3.571   0.065   7.771  2.1479 -0.3087 -0.6126
39544SOL    HW222035   3.586   0.212   7.738  0.2647 -0.2364 -1.2876
39545SOL     OW22036   7.185   6.226   4.758 -0.7140 -0.7724  0.9594
39545SOL    HW122037   7.105   6.176   4.742 -0.1357 -1.0620 -1.3920
39545SOL    HW222038   7.240   6.167   4.810 -1.2106 -1.4048  0.7865
39546SOL     OW22039   0.367   0.116   6.896  0.1326  0.3140 -0.2900
39546SOL    HW122040   0.452   0.140   6.933  0.3584  1.0549 -1.2416
39546SOL    HW222041   0.388   0.072   6.814 -0.3670 -1.0718  0.2974
39547SOL     OW22042  10.103   9.994   2.659  0.4299  0.7314  0.0132
39547SOL    HW122043  10.069   9.967   2.574  2.3287 -1.1179 -0.2404
39547SOL    HW222044  10.095   9.916   2.714 -2.6655  2.4435  2.2755
39548SOL     OW22045   3.613   8.965   6.202 -0.0281 -0.5630 -0.7055
39548SOL    HW122046   3.644   8.889   6.251  0.6927  0.0580 -0.1558
39548SOL    HW222047   3.644   8.952   6.113  0.3529 -0.7680 -0.5423
39549SOL     OW22048   4.308   3.166   4.627  0.2408  0.1889  0.1261
39549SOL    HW122049   4.396   3.178   4.592 -0.1642  0.9521 -0.6743
39549SOL    HW222050   4.253   3.151   4.550 -0.8078  2.6896  0.2846
39550SOL     OW22051   7.832   3.406   8.107 -0.1770 -0.4566 -0.4147
39550SOL    HW122052   7.862   3.385   8.195 -2.1016  0.1911  0.4471
39550SOL    HW222053   7.803   3.322   8.071 -2.0120 -0.3333  0.6686
39551SOL     OW22054   3.831  10.496   1.660  0.3120  0.2619 -0.3788
39551SOL    HW122055   3.903  10.497   1.723  1.4580  1.6773 -1.6442
39551SOL    HW222056   3.867  10.455   1.582 -0.3923  0.5497 -0.8704
39552SOL     OW22057   0.165   2.928   9.573 -0.2846 -0.1124  0.1157
39552SOL    HW122058   0.131   3.002   9.624 -0.4232 -0.4960  0.5849
39552SOL    HW222059   0.200   2.868   9.638 -0.9771 -0.8714 -0.1959
39553SOL     OW22060   3.518   8.928   8.466 -0.2432 -0.1115  0.0008
39553SOL    HW122061   3.427   8.949   8.447 -0.3839 -0.7461 -0.0440
39553SOL    HW222062   3.516   8.836   8.494  0.4565 -0.3230 -0.6022
39554SOL     OW22063   5.891   3.766   7.543 -0.1664  0.1141 -0.0171
39554SOL    HW122064   5.913   3.673   7.548 -0.4455  0.1271  3.0664
39554SOL    HW222065   5.795   3.768   7.546 -0.1646  0.5003 -0.1574
39555SOL     OW22066  10.173   2.229   0.650  0.3012  0.2053  0.0827
39555SOL    HW122067  10.172   2.134   0.655  1.2821  0.0127 -2.2268
39555SOL    HW222068  10.264   2.251   0.630  0.6006  1.8393  2.7346
39556SOL     OW22069   2.804   3.238   7.105 -0.4208 -0.6892  0.5453
39556SOL    HW122070   2.796   3.219   7.012  1.8997  0.5497  0.0164
39556SOL    HW222071   2.761   3.323   7.117 -0.7607 -0.8706  0.6256
39557SOL     OW22072   8.828   7.245   2.035  0.0457  0.0789 -0.1725
39557SOL    HW122073   8.808   7.326   1.988 -2.6060 -0.4140 -0.0261
39557SOL    HW222074   8.884   7.195   1.975  4.1307  2.9854  0.7657
39558SOL     OW22075   4.403   5.667   3.255 -0.4092  0.3857 -0.1515
39558SOL    HW122076   4.454   5.736   3.212 -0.0054 -0.0653 -0.3981
39558SOL    HW222077   4.344   5.715   3.314  0.3798  0.9122  0.2298
39559SOL     OW22078   8.523   1.503   6.129  0.1360  0.4218  0.4393
39559SOL    HW122079   8.525   1.488   6.224  0.9731 -1.3168  0.1876
39559SOL    HW222080   8.451   1.565   6.116 -1.1495 -0.6557  2.0460
39560SOL     OW22081   4.834   4.511   2.035  0.2650  0.6472  0.4611
39560SOL    HW122082   4.749   4.470   2.022  0.1889  1.3131 -1.3999
39560SOL    HW222083   4.895   4.437   2.043 -0.4133  0.1730  1.4969
39561SOL     OW22084   7.391   5.021   9.844  0.0860 -0.6259 -0.0306
39561SOL    HW122085   7.377   4.948   9.904  0.3394 -2.4701 -2.0778
39561SOL    HW222086   7.416   4.980   9.761  1.4144  1.8468 -0.9818
39562SOL     OW22087   9.658   4.370   9.709  0.3209 -0.5237  0.1616
39562SOL    HW122088   9.566   4.354   9.688 -0.2627  3.5285 -1.1642
39562SOL    HW222089   9.704   4.359   9.626  0.5053  0.4395  0.1228
39563SOL     OW22090   0.557   2.067   5.401  0.3245 -0.1480  0.5968
39563SOL    HW122091   0.464   2.072   5.423 -0.1103 -1.5158 -0.7590
39563SOL    HW222092   0.563   2.106   5.314  0.7578 -1.2961  0.0884
39564SOL     OW22093   7.631   9.477   9.727 -0.0135  0.1472 -0.1004
39564SOL    HW122094   7.681   9.395   9.725  1.6667  1.1118  0.4298
39564SOL    HW222095   7.568   9.466   9.798 -0.9825 -1.2950 -1.1204
39565SOL     OW22096   3.112   6.503   5.306  0.2401 -0.1853  0.0759
39565SOL    HW122097   3.081   6.582   5.351 -1.3489 -0.3622 -0.6464
39565SOL    HW222098   3.032   6.461   5.273  1.0421 -2.1127  0.4421
39566SOL     OW22099   6.079   0.945   5.420  0.1058  0.0092  0.4459
39566SOL    HW122100   6.087   0.941   5.516 -0.2362  0.7006  0.5042
39566SOL    HW222101   5.985   0.946   5.404  0.1640 -0.0028  0.1027
39567SOL     OW22102   8.809   5.039  10.835 -0.0004  0.5279 -0.1658
39567SOL    HW122103   8.779   4.974  10.898  0.1881  0.5631 -0.0361
39567SOL    HW222104   8.819   4.991  10.753 -0.0465  0.4349 -0.1166
39568SOL     OW22105   4.185   2.509   7.001  0.2820  0.0325  0.0013
39568SOL    HW122106   4.161   2.595   6.965  0.5235 -0.4085 -1.2479
39568SOL    HW222107   4.200   2.526   7.094 -0.2984  1.2203 -0.0990
39569SOL     OW22108   4.824   9.318   6.283  0.6678 -0.3941  0.0254
39569SOL    HW122109   4.909   9.274   6.280  0.3220 -1.0430 -0.5366
39569SOL    HW222110   4.775   9.281   6.210 -0.7245 -1.3263  1.3538
39570SOL     OW22111   3.919   8.285   7.221 -0.3055 -0.2066 -0.4512
39570SOL    HW122112   3.943   8.281   7.313 -2.6280 -0.9508  0.1803
39570SOL    HW222113   3.944   8.373   7.193  1.1586 -0.2419  0.6251
39571SOL     OW22114   9.298   1.593   5.972  0.4898 -0.0424  0.6538
39571SOL    HW122115   9.237   1.606   6.045 -0.9308 -0.5760 -0.3796
39571SOL    HW222116   9.290   1.501   5.950 -1.0849  0.5741 -1.7632
39572SOL     OW22117  10.289   2.542   7.480  0.4194 -0.0416 -0.0913
39572SOL    HW122118  10.266   2.550   7.387  1.6321  2.4159 -0.2471
39572SOL    HW222119  10.384   2.529   7.480  0.8988  2.8262  0.7994
39573SOL     OW22120   0.147   1.183   1.928 -0.1168 -0.1211 -0.1940
39573SOL    HW122121   0.065   1.200   1.976  0.3144 -1.5391  1.1288
39573SOL    HW222122   0.124   1.115   1.865  0.0769 -0.6987  0.3471
39574SOL     OW22123   0.540   3.025   6.330  0.2059  0.5653  0.1885
39574SOL    HW122124   0.567   3.086   6.261  0.3572  1.9059  1.3927
39574SOL    HW222125   0.618   3.016   6.386 -0.2530  0.4020  0.8160
39575SOL     OW22126   7.531  10.414   6.396  0.2766  0.2654  0.1949
39575SOL    HW122127   7.446  10.408   6.439  0.1645  0.9036  0.0768
39575SOL    HW222128   7.532  10.501   6.357  0.7781  0.0685 -0.2462
39576SOL     OW22129   2.939   6.053  10.539 -0.1108 -0.4707  0.1068
39576SOL    HW122130   2.969   5.963  10.549 -2.6506 -1.2601  1.5285
39576SOL    HW222131   2.953   6.073  10.447  0.1703 -2.4565 -0.3279
39577SOL     OW22132   0.460   5.041   0.029  0.0833  0.0255 -0.0341
39577SOL    HW122133   0.515   4.964   0.015  1.2193  0.1051  3.1631
39577SOL    HW222134   0.371   5.006   0.032  0.3223 -0.7395 -1.1253
39578SOL     OW22135   6.118   5.973   0.744 -0.6060 -0.2159 -0.0868
39578SOL    HW122136   6.059   5.906   0.778 -0.5357 -0.1122  0.2378
39578SOL    HW222137   6.060   6.034   0.697 -0.8359  0.2053  0.7339
39579SOL     OW22138   1.794   3.641   8.555  0.5775  0.4594 -0.0880
39579SOL    HW122139   1.872   3.693   8.538  2.0380 -0.5100  2.9856
39579SOL    HW222140   1.749   3.687   8.626 -1.8853  1.1440 -1.9627
39580SOL     OW22141   7.007   5.073   2.038 -0.7802  0.2899 -0.0947
39580SOL    HW122142   6.931   5.126   2.062 -1.0026  0.2022 -0.5954
39580SOL    HW222143   7.032   5.105   1.951 -1.1103 -0.6436 -0.5376
39581SOL     OW22144   0.884  10.000   0.059  0.5196  0.3572 -0.0450
39581SOL    HW122145   0.851   9.938  -0.006 -1.6179  0.6143  0.7289
39581SOL    HW222146   0.819   9.999   0.129  1.0549  2.5152  0.5733
39582SOL     OW22147   7.860   2.827   6.525 -0.5002 -0.1925  0.0740
39582SOL    HW122148   7.947   2.842   6.561 -0.7935 -1.0891  1.2063
39582SOL    HW222149   7.819   2.913   6.524  0.3477  0.2189 -0.3693
39583SOL     OW22150   9.006   2.079   5.152 -0.5420 -0.0111  0.5235
39583SOL    HW122151   8.924   2.127   5.141 -0.4715  0.0981  0.4756
39583SOL    HW222152   9.012   2.061   5.246 -0.9738 -0.6382  0.4399
39584SOL     OW22153   3.213   6.239   6.214  0.1967 -0.1785 -0.4533
39584SOL    HW122154   3.306   6.215   6.220  0.2152 -0.3241 -1.2260
39584SOL    HW222155   3.212   6.316   6.157 -0.1735 -0.2936 -0.6065
39585SOL     OW22156   7.790   3.019   4.466 -0.0749 -0.1024  0.1274
39585SOL    HW122157   7.715   3.015   4.407 -0.1316 -0.8719  0.2415
39585SOL    HW222158   7.802   2.929   4.496 -0.9177  0.4648  2.4011
39586SOL     OW22159   2.710   8.969  10.146 -0.4940 -0.5018  0.4517
39586SOL    HW122160   2.622   8.974  10.109 -0.7822  0.6715  1.2147
39586SOL    HW222161   2.726   8.876  10.160 -1.7716 -0.7119  0.6372
39587SOL     OW22162   8.928   8.000   6.806 -0.0389 -0.4701 -0.3616
39587SOL    HW122163   8.923   8.073   6.745 -1.0456 -0.9154 -0.8205
39587SOL    HW222164   9.008   7.953   6.781  0.9342  0.7763  0.3041
39588SOL     OW22165   5.975   2.608   3.793 -0.3066  0.0176  0.3683
39588SOL    HW122166   5.920   2.560   3.855 -0.2350 -0.4080  0.1039
39588SOL    HW222167   5.947   2.578   3.707  1.2315 -1.2303  0.2592
39589SOL     OW22168   0.042   1.717   9.866 -0.3238 -0.0205 -0.0169
39589SOL    HW122169   0.133   1.725   9.891 -0.2954  2.0959 -0.6274
39589SOL    HW222170  -0.007   1.762   9.935 -0.7900  0.1127 -0.4255
39590SOL     OW22171   1.239   8.549   6.713 -0.1362  0.3411 -0.3350
39590SOL    HW122172   1.300   8.476   6.703 -1.5825 -0.9082 -0.2721
39590SOL    HW222173   1.153   8.511   6.696 -0.8573  2.1982 -1.0203
39591SOL     OW22174   1.973   3.678   6.549 -0.1297 -0.4847 -0.5173
39591SOL    HW122175   1.935   3.674   6.461 -2.2675 -2.4880  0.3992
39591SOL    HW222176   2.058   3.635   6.540  0.5498  1.0395 -1.9394
39592SOL     OW22177   4.208   3.622   0.236 -0.0881  0.4144  0.7785
39592SOL    HW122178   4.263   3.678   0.181 -0.0541 -0.6597 -0.3281
39592SOL    HW222179   4.121   3.662   0.233  0.0020  0.5748  0.2393
39593SOL     OW22180   1.459   8.020   0.162 -0.0985  0.2538 -0.7472
39593SOL    HW122181   1.472   8.099   0.110  1.7378 -0.5898 -1.6590
39593SOL    HW222182   1.525   8.025   0.231 -0.3501 -0.2141 -0.4647
39594SOL     OW22183   9.475   3.748   6.318 -0.1717 -0.4100 -0.1941
39594SOL    HW122184   9.510   3.756   6.229 -0.0147  0.8788 -0.0369
39594SOL    HW222185   9.553   3.747   6.374 -0.3066  0.0126  0.0030
39595SOL     OW22186   9.808   3.910   5.589  0.4905  0.2535 -0.3607
39595SOL    HW122187   9.758   3.836   5.555  2.3787 -1.1347 -0.2196
39595SOL    HW222188   9.802   3.976   5.520 -1.5896  0.1927 -0.3008
39596SOL     OW22189   6.316   0.236   1.858 -0.0598  0.0744 -0.1269
39596SOL    HW122190   6.240   0.242   1.801 -0.7084 -1.7332  0.4741
39596SOL    HW222191   6.373   0.171   1.815  0.0767 -0.2786  0.5683
39597SOL     OW22192   2.408   0.237   7.594  0.7531 -0.5603  0.1155
39597SOL    HW122193   2.483   0.180   7.576  0.5248 -0.3590 -1.7266
39597SOL    HW222194   2.361   0.194   7.665  1.7999 -1.4860  0.2721
39598SOL     OW22195   1.051   7.651   8.502  0.2771  0.1192 -0.0382
39598SOL    HW122196   0.977   7.704   8.530  1.3977  2.2503 -0.8804
39598SOL    HW222197   1.017   7.597   8.431 -0.8755 -0.2837  0.7949
39599SOL     OW22198   2.514   2.877   2.580  0.0489 -0.7036  0.0084
39599SOL    HW122199   2.485   2.959   2.619 -2.0551 -1.4247  0.0585
39599SOL    HW222200   2.467   2.872   2.496  1.2018 -1.2253 -0.6411
39600SOL     OW22201   3.388   8.397   9.467 -0.3788  0.6240 -0.6989
39600SOL    HW122202   3.394   8.330   9.399  0.3659  2.2583 -2.3041
39600SOL    HW222203   3.383   8.480   9.420 -0.2949  1.8042  1.2419
39601SOL     OW22204   1.446   7.041   2.252  0.3968 -0.0671 -0.0012
39601SOL    HW122205   1.447   7.036   2.347  1.4475  0.7664  0.0514
39601SOL    HW222206   1.499   6.967   2.223 -0.2060 -0.5234  0.0356
39602SOL     OW22207   4.948   4.153   2.366 -0.1447 -0.7021 -0.1612
39602SOL    HW122208   4.871   4.124   2.317 -1.3067  1.8044  0.0244
39602SOL    HW222209   4.929   4.128   2.457 -0.6985 -0.2687 -0.1471
39603SOL     OW22210   9.664   3.057   2.256 -0.4310  0.3783 -0.3938
39603SOL    HW122211   9.629   2.968   2.265 -0.0407  0.2342 -0.2342
39603SOL    HW222212   9.726   3.051   2.184 -0.6502  0.6016 -0.5999
39604SOL     OW22213  10.407   9.343   2.743  0.1620 -0.1318  0.4146
39604SOL    HW122214  10.443   9.431   2.754  0.2016  0.3148 -2.5544
39604SOL    HW222215  10.447   9.310   2.663 -1.4263 -2.0413  0.3218
39605SOL     OW22216   0.682   4.996   9.280 -0.3675 -0.5765 -0.1239
39605SOL    HW122217   0.711   4.908   9.255 -1.4471 -0.8625 -0.4310
39605SOL    HW222218   0.667   4.990   9.375  3.1474  0.3420  0.6154
39606SOL     OW22219  10.464   9.114   5.983  1.1408 -0.5311  0.1218
39606SOL    HW122220  10.400   9.049   6.013  0.6699  0.5697  1.5937
39606SOL    HW222221  10.534   9.062   5.943  1.1053 -2.0073  1.8590
39607SOL     OW22222   2.287   5.717   7.186  0.6901 -0.8497  0.3211
39607SOL    HW122223   2.268   5.722   7.280 -1.8415  2.6618 -0.1858
39607SOL    HW222224   2.336   5.797   7.168 -0.6110 -0.4351 -1.6254
39608SOL     OW22225   6.383   3.527   0.417  0.1993 -0.3852 -0.5327
39608SOL    HW122226   6.312   3.464   0.427 -0.3823 -0.1870 -2.7935
39608SOL    HW222227   6.342   3.613   0.429  0.3218 -0.3134 -0.6210
39609SOL     OW22228   4.356   5.483   8.214  0.5595  0.4201  0.2837
39609SOL    HW122229   4.419   5.465   8.144 -0.3687  0.9888 -0.7175
39609SOL    HW222230   4.356   5.402   8.266  0.9253 -0.1843 -0.6276
39610SOL     OW22231   4.569   5.147   2.379  0.0098  0.1410  0.2780
39610SOL    HW122232   4.632   5.171   2.447 -0.1942 -1.9427  1.3057
39610SOL    HW222233   4.540   5.059   2.404  0.4952 -1.0720 -2.9284
39611SOL     OW22234   4.945   0.408   6.243  0.4078  0.1386  0.1557
39611SOL    HW122235   4.976   0.487   6.288  1.9893 -0.5614  0.3448
39611SOL    HW222236   4.916   0.350   6.314  0.8589 -0.1177  0.1312
39612SOL     OW22237  10.321   9.989   3.073 -0.0624 -0.1828 -0.9641
39612SOL    HW122238  10.324  10.073   3.027 -0.8389 -0.5637 -1.7293
39612SOL    HW222239  10.256  10.002   3.142 -0.9622 -0.4582 -1.7367
39613SOL     OW22240   5.209   6.241   5.029 -0.0196  0.2286 -0.0592
39613SOL    HW122241   5.141   6.301   5.059 -1.5304 -1.6160  0.4303
39613SOL    HW222242   5.161   6.173   4.981  1.5709 -0.7081 -0.3945
39614SOL     OW22243   3.043   8.935   4.113  0.4471 -0.1202 -0.0298
39614SOL    HW122244   3.109   8.950   4.180  1.1676 -1.5217 -0.3911
39614SOL    HW222245   2.976   8.882   4.157 -0.1607  0.7908  0.1681
39615SOL     OW22246   4.347   7.145   8.041 -0.3805 -0.7517 -0.0578
39615SOL    HW122247   4.386   7.140   7.954 -2.5873 -2.8150 -1.0480
39615SOL    HW222248   4.263   7.188   8.027  0.1716  0.9766  1.5122
39616SOL     OW22249  10.154  10.376   5.433 -0.0282 -0.2073 -0.1395
39616SOL    HW122250  10.153  10.430   5.512 -1.7307  0.0576 -0.3080
39616SOL    HW222251  10.065  10.341   5.426  0.1760 -0.4946 -1.7518
39617SOL     OW22252   2.124   6.480   2.795  0.1710 -0.2835  0.6761
39617SOL    HW122253   2.100   6.460   2.886  2.1438  0.8911  1.5378
39617SOL    HW222254   2.080   6.563   2.777  0.4907 -0.0562  0.9102
39618SOL     OW22255   0.364   4.908   6.484 -0.3962  0.0558 -0.0469
39618SOL    HW122256   0.407   4.823   6.489 -2.3734 -1.0542 -0.7226
39618SOL    HW222257   0.379   4.937   6.394 -1.2448 -0.4812 -0.3801
39619SOL     OW22258   1.159   1.518  10.823 -0.6004  1.1677  0.1972
39619SOL    HW122259   1.137   1.553  10.736 -1.9372  2.0069  0.8491
39619SOL    HW222260   1.075   1.509  10.867 -0.1390 -1.1754  0.7343
39620SOL     OW22261   3.325   7.951   4.094 -0.2072 -0.8355  0.0293
39620SOL    HW122262   3.403   7.902   4.120  0.0075 -0.3300  0.3643
39620SOL    HW222263   3.359   8.030   4.052 -0.4573  0.5034  2.1786
39621SOL     OW22264   3.813   2.415   0.160  0.3667 -0.5951 -0.3860
39621SOL    HW122265   3.829   2.321   0.168 -1.5115 -0.9000  0.4592
39621SOL    HW222266   3.826   2.434   0.068  1.3715 -1.5498 -0.4600
39622SOL     OW22267   0.545   2.436   0.820  0.5042 -0.5913 -0.4886
39622SOL    HW122268   0.515   2.349   0.793  1.5964 -1.2231  0.2549
39622SOL    HW222269   0.545   2.487   0.739 -0.6148 -1.1398 -0.8477
39623SOL     OW22270   6.386   1.709   7.910 -0.3020  0.4097 -0.3122
39623SOL    HW122271   6.441   1.690   7.833  1.3764 -0.9526  1.1263
39623SOL    HW222272   6.405   1.800   7.931 -2.4516  1.5318 -2.7114
39624SOL     OW22273   8.679   3.773   7.204 -0.3393 -0.4429 -0.3025
39624SOL    HW122274   8.684   3.862   7.241  0.4565 -1.0851  1.2539
39624SOL    HW222275   8.597   3.738   7.239  0.8253 -1.3524  1.6967
39625SOL     OW22276   8.104   3.109   8.913  0.1971  0.3194  0.2151
39625SOL    HW122277   8.114   3.071   8.826  0.1074  0.1296  0.2875
39625SOL    HW222278   8.066   3.195   8.897 -0.4142  0.0353  0.1080
39626SOL     OW22279   6.830   1.825   5.719 -0.7491 -0.0057  0.2355
39626SOL    HW122280   6.893   1.777   5.773  0.4380 -0.6894 -1.6735
39626SOL    HW222281   6.869   1.911   5.707 -0.4219 -0.2497 -0.4963
39627SOL     OW22282   2.569   6.609  10.158 -0.2987  0.1717 -0.0551
39627SOL    HW122283   2.624   6.626  10.082 -0.8499  0.1129 -0.4715
39627SOL    HW222284   2.513   6.687  10.166 -1.7168 -0.6995 -1.0021
39628SOL     OW22285   4.518   6.783   6.815 -0.5991  0.4871  0.3122
39628SOL    HW122286   4.579   6.710   6.802  0.0769  1.1128 -0.1472
39628SOL    HW222287   4.440   6.758   6.766  0.3213  0.8892 -1.4428
39629SOL     OW22288   1.242   8.793   6.610 -0.1733 -0.0882  0.2933
39629SOL    HW122289   1.338   8.789   6.614 -0.1786 -1.2556 -0.3627
39629SOL    HW222290   1.213   8.725   6.671 -0.6068  0.5271  0.7891
39630SOL     OW22291  10.557   5.944   9.570  0.6374  0.2289 -0.0605
39630SOL    HW122292  10.465   5.960   9.590  0.3555 -0.4565 -0.7930
39630SOL    HW222293  10.594   5.909   9.651 -0.0510 -0.7477 -0.1657
39631SOL     OW22294   7.358   0.467   7.882 -0.1409  0.0115 -0.2758
39631SOL    HW122295   7.382   0.534   7.946  1.9828  0.6871 -1.6701
39631SOL    HW222296   7.404   0.492   7.802 -0.9927 -1.9606 -1.4657
39632SOL     OW22297   6.300   0.213   6.293  0.3938 -0.9070  0.2341
39632SOL    HW122298   6.347   0.297   6.297  1.1368 -1.2750 -0.3709
39632SOL    HW222299   6.242   0.222   6.218  0.4399 -0.9145  0.1973
39633SOL     OW22300   8.692   6.847  10.813 -0.0781  0.1025 -0.3323
39633SOL    HW122301   8.755   6.918  10.827 -0.5794  0.4006  0.4453
39633SOL    HW222302   8.676   6.811  10.900  0.5360 -1.3046 -0.7667
39634SOL     OW22303   1.550   9.601  10.338  0.5518 -0.9620 -0.3218
39634SOL    HW122304   1.483   9.620  10.271  1.6373 -0.6014 -1.3415
39634SOL    HW222305   1.559   9.506  10.336 -2.3417 -1.4547  2.2767
39635SOL     OW22306   4.683   8.154   2.769  0.3150  0.6211 -0.6293
39635SOL    HW122307   4.675   8.059   2.773  1.9360  0.4991  0.6701
39635SOL    HW222308   4.605   8.187   2.814  0.2008 -0.0981 -0.2985
39636SOL     OW22309   7.605   1.527   2.420 -0.0824 -0.2802  0.2198
39636SOL    HW122310   7.655   1.578   2.356 -0.7967  1.6321  1.1081
39636SOL    HW222311   7.646   1.547   2.504  0.3427 -2.1357  0.5017
39637SOL     OW22312   4.281   4.317   9.732  0.1557  0.2237  0.1187
39637SOL    HW122313   4.352   4.320   9.797  0.1815  1.1798  0.0609
39637SOL    HW222314   4.314   4.368   9.658  0.2825 -1.1703 -0.8313
39638SOL     OW22315   7.102   9.102   4.642 -0.4741 -0.7292  0.8332
39638SOL    HW122316   7.115   9.177   4.584 -0.8822  0.5802  2.3837
39638SOL    HW222317   7.117   9.026   4.586 -1.0043  0.4728 -1.0352
39639SOL     OW22318   6.773   2.222   2.040 -0.3570  0.4350  0.7884
39639SOL    HW122319   6.805   2.143   2.083 -1.3593 -0.7091 -0.4828
39639SOL    HW222320   6.678   2.219   2.052 -0.5142  0.8273 -0.2578
39640SOL     OW22321   5.556   6.943   0.451 -0.2032  0.2105  0.1520
39640SOL    HW122322   5.475   6.961   0.402  0.1675 -0.3054 -0.6646
39640SOL    HW222323   5.592   6.864   0.411 -0.0825 -0.4666  1.5222
39641SOL     OW22324   3.367   1.243   5.298 -0.1788  0.3697 -0.3924
39641SOL    HW122325   3.331   1.331   5.289  2.3888  1.5236 -0.1927
39641SOL    HW222326   3.372   1.228   5.392 -1.3744 -0.3601 -0.4288
39642SOL     OW22327   3.387   8.950   8.928  0.5520  0.0022  0.0279
39642SOL    HW122328   3.469   8.973   8.971  0.8620 -0.2313 -0.4411
39642SOL    HW222329   3.350   9.034   8.900  0.1213  0.2063  1.1389
39643SOL     OW22330   3.023   8.811   8.725  0.6463  0.0538  0.1639
39643SOL    HW122331   3.078   8.760   8.784 -0.9857 -2.6568 -0.4744
39643SOL    HW222332   2.938   8.766   8.727  0.0256  0.8419 -2.9371
39644SOL     OW22333   6.875   0.236   5.637  0.2940  0.5463 -0.4172
39644SOL    HW122334   6.856   0.188   5.556 -0.7552 -0.8754  0.6160
39644SOL    HW222335   6.853   0.327   5.617 -2.0071 -0.1006 -1.1153
39645SOL     OW22336   5.764   9.945   8.903  0.1296 -0.2651  0.1498
39645SOL    HW122337   5.755  10.038   8.921  0.8605 -0.2844  0.6305
39645SOL    HW222338   5.776   9.905   8.989  1.1340 -0.6502 -0.1608
39646SOL     OW22339   3.254  10.274   3.209  0.3447 -0.2551 -0.4454
39646SOL    HW122340   3.317  10.260   3.279 -1.0143  0.2962  0.9391
39646SOL    HW222341   3.248  10.369   3.201 -0.6225 -0.2906 -0.2523
39647SOL     OW22342   6.794   5.313  10.592 -0.3436  0.2430  0.3590
39647SOL    HW122343   6.763   5.318  10.683 -1.6209  1.0247 -0.0984
39647SOL    HW222344   6.714   5.313  10.540  0.3674 -0.6482 -0.7665
39648SOL     OW22345   5.394   9.393   2.360  0.7122 -0.6251  0.0020
39648SOL    HW122346   5.432   9.394   2.447  0.6545 -2.8415  0.0938
39648SOL    HW222347   5.452   9.449   2.308  2.1866 -1.2465  0.9026
39649SOL     OW22348   9.471   4.950   1.857 -0.3096 -0.6189 -0.1964
39649SOL    HW122349   9.521   4.924   1.934  0.0348 -0.4972 -0.3758
39649SOL    HW222350   9.536   4.990   1.799 -0.7173  0.0411 -0.2045
39650SOL     OW22351   1.765   2.772   0.183 -0.2216  0.6168 -0.1701
39650SOL    HW122352   1.754   2.750   0.275 -0.7252  1.4673 -0.0158
39650SOL    HW222353   1.737   2.863   0.176  2.4701  1.4936 -0.6455
39651SOL     OW22354   6.434   9.577   0.745 -0.4702 -0.1553  0.4533
39651SOL    HW122355   6.521   9.560   0.708 -0.7520  0.7313 -0.6651
39651SOL    HW222356   6.446   9.654   0.800 -0.6430  0.2756 -0.1051
39652SOL     OW22357   7.304   9.941   8.456  0.0622 -0.0250 -0.6011
39652SOL    HW122358   7.325  10.002   8.385  0.6431  1.9264  1.1694
39652SOL    HW222359   7.219   9.971   8.489 -0.1991 -0.9155 -0.4129
39653SOL     OW22360   4.453   9.259   8.096 -0.1383  0.0229 -0.6262
39653SOL    HW122361   4.401   9.290   8.022 -1.5703 -1.9495 -0.5252
39653SOL    HW222362   4.536   9.233   8.057 -0.3093  0.4383 -1.2801
39654SOL     OW22363   5.021   9.668   9.083  0.2077 -0.7546  0.4868
39654SOL    HW122364   5.095   9.695   9.137 -0.5842 -0.0511  1.2550
39654SOL    HW222365   4.998   9.581   9.116  1.3909 -1.4858 -0.5290
39655SOL     OW22366   6.220   2.992   1.614  0.4017 -0.6160  0.0545
39655SOL    HW122367   6.146   2.967   1.558  0.5000  0.8403 -0.7870
39655SOL    HW222368   6.283   2.921   1.603 -0.0868 -0.9440 -0.7469
39656SOL     OW22369   7.913   8.921   9.299  0.6288 -0.1974  0.0828
39656SOL    HW122370   7.889   8.983   9.368 -3.0609  0.0828 -1.2401
39656SOL    HW222371   7.923   8.974   9.221  1.0695 -0.9131 -0.3580
39657SOL     OW22372   6.797   3.523   1.893  0.0886  0.0862  0.0394
39657SOL    HW122373   6.890   3.537   1.873  0.6789 -2.5285  0.6618
39657SOL    HW222374   6.757   3.506   1.808  0.1925  1.0467 -0.2125
39658SOL     OW22375   1.599   3.553  10.388  0.0628 -0.5156 -0.0158
39658SOL    HW122376   1.526   3.605  10.353  0.3728 -0.0970 -0.0503
39658SOL    HW222377   1.563   3.510  10.465 -0.0170  0.3136  0.4303
39659SOL     OW22378   2.875   2.839   8.636  0.3772 -0.0448  0.2769
39659SOL    HW122379   2.933   2.891   8.693 -0.3786 -1.2794  2.2684
39659SOL    HW222380   2.851   2.763   8.689 -1.3134 -0.6834 -1.3049
39660SOL     OW22381   6.626   2.610   7.535  0.1417 -0.0332 -0.1056
39660SOL    HW122382   6.690   2.670   7.574 -0.5881  0.3734  0.4851
39660SOL    HW222383   6.680   2.544   7.490  0.9610  1.4932 -1.4768
39661SOL     OW22384   0.315   9.712   8.688  0.0547  0.4856  0.2446
39661SOL    HW122385   0.407   9.734   8.672 -0.2615  0.6748 -1.5088
39661SOL    HW222386   0.267   9.754   8.616 -1.3249 -0.2094  0.7164
39662SOL     OW22387   8.719   3.672   0.433 -1.0543  0.1953  0.3433
39662SOL    HW122388   8.739   3.597   0.378 -2.2692 -0.2519  0.4901
39662SOL    HW222389   8.721   3.639   0.523 -0.5091  0.5895  0.4809
39663SOL     OW22390   2.082   7.782   2.317  0.2104  0.5262 -0.1818
39663SOL    HW122391   2.133   7.792   2.236 -0.4233 -0.7899 -0.7825
39663SOL    HW222392   1.996   7.753   2.287 -0.1338  0.3401  0.9590
39664SOL     OW22393   3.800   2.701   9.812  0.1440 -0.9334  0.0677
39664SOL    HW122394   3.893   2.722   9.823 -0.1548  1.3575 -1.1994
39664SOL    HW222395   3.800   2.619   9.762  1.4668 -0.9929  0.1286
39665SOL     OW22396   5.555   3.468   0.087 -0.2692  0.4482 -0.1066
39665SOL    HW122397   5.569   3.379   0.119  3.2317  0.7792 -0.3290
39665SOL    HW222398   5.462   3.484   0.100 -0.8399 -2.8895  0.7911
39666SOL     OW22399   4.789   8.472   2.597 -0.0121 -0.1744 -0.2443
39666SOL    HW122400   4.738   8.515   2.528 -0.9369 -1.0203 -0.1121
39666SOL    HW222401   4.791   8.535   2.669 -0.9279 -0.1437 -0.2378
39667SOL     OW22402   9.155   4.974   7.272  0.4270  0.2596 -0.1503
39667SOL    HW122403   9.120   4.954   7.358 -1.4776 -0.3922 -1.0234
39667SOL    HW222404   9.163   5.070   7.270  0.7179  0.2615  0.8092
39668SOL     OW22405   3.782  10.229  10.225  0.0467 -0.2776 -1.1443
39668SOL    HW122406   3.689  10.223  10.244  0.5168 -2.1806  1.0195
39668SOL    HW222407   3.806  10.318  10.250 -0.7485 -0.5856  0.9570
39669SOL     OW22408   1.472   8.628   4.377  0.0504 -0.2084 -0.0783
39669SOL    HW122409   1.536   8.676   4.324  0.9777 -0.1895  1.0242
39669SOL    HW222410   1.480   8.666   4.464  0.6765 -2.2217  0.7977
39670SOL     OW22411   6.670   7.872   8.595  0.0386 -0.3157  0.3016
39670SOL    HW122412   6.720   7.792   8.579  0.0355 -0.2651  0.0268
39670SOL    HW222413   6.630   7.892   8.510  0.1317  0.0410  0.3411
39671SOL     OW22414   4.341   0.016   3.760 -0.3001  0.3987 -0.1032
39671SOL    HW122415   4.250  -0.015   3.763 -0.7514  1.6509  0.0019
39671SOL    HW222416   4.376  -0.019   3.679 -0.0380 -2.2598  1.0776
39672SOL     OW22417   2.461   3.983   0.306 -0.7218 -0.6394 -0.1836
39672SOL    HW122418   2.494   4.073   0.308  0.4663 -1.0635  0.9007
39672SOL    HW222419   2.407   3.976   0.385 -1.6920 -0.5842 -0.8271
39673SOL     OW22420   4.679   4.183   1.691  0.0163 -0.2934  0.1259
39673SOL    HW122421   4.677   4.272   1.657 -2.3305  0.2866  1.5516
39673SOL    HW222422   4.600   4.143   1.657  0.6488 -1.6081  0.1405
39674SOL     OW22423   9.979   2.439   7.078  0.6297  0.0052  0.7270
39674SOL    HW122424   9.943   2.361   7.036 -0.4649  1.0071 -0.2880
39674SOL    HW222425  10.026   2.484   7.008 -0.9304  1.5236  0.5845
39675SOL     OW22426   5.625   8.099   4.303 -0.4374  0.1736  0.1006
39675SOL    HW122427   5.634   8.022   4.246  1.2899 -0.9874  1.8104
39675SOL    HW222428   5.617   8.173   4.243 -3.0067 -1.3323 -1.6421
39676SOL     OW22429   4.504   7.338   1.978 -0.0213 -0.2531 -0.7620
39676SOL    HW122430   4.534   7.291   1.900 -0.4760 -2.2505  0.2169
39676SOL    HW222431   4.584   7.355   2.028 -0.0558 -2.0447 -0.0479
39677SOL     OW22432   4.109   0.233   4.901  0.1574  0.1992  0.3912
39677SOL    HW122433   4.152   0.204   4.821 -1.6408 -0.4447 -0.3931
39677SOL    HW222434   4.170   0.296   4.940  2.0742 -1.1413 -0.2920
39678SOL     OW22435   9.034   0.496   9.055 -0.3578  0.0731 -0.1724
39678SOL    HW122436   9.089   0.547   8.994 -0.6306 -0.4142 -0.8408
39678SOL    HW222437   8.953   0.547   9.062 -0.0603  0.4882  0.3468
39679SOL     OW22438   9.995   6.365   9.047  0.3985  0.2251  0.6306
39679SOL    HW122439  10.034   6.297   8.991 -1.1662 -0.1961  0.0094
39679SOL    HW222440  10.047   6.443   9.030  1.6372 -0.5674  0.6446
39680SOL     OW22441   3.787   7.715   1.254 -0.2047 -0.5392  0.1300
39680SOL    HW122442   3.802   7.790   1.197  1.3557 -0.8916  0.0358
39680SOL    HW222443   3.709   7.672   1.219 -1.2193  1.1142  0.2941
39681SOL     OW22444   8.629   1.510   0.780 -0.7283 -0.1299  0.0181
39681SOL    HW122445   8.677   1.590   0.758 -0.0150 -0.8711 -1.1927
39681SOL    HW222446   8.632   1.506   0.876 -0.4076  1.0649  0.0703
39682SOL     OW22447   8.322   4.993   5.793  0.5251 -0.4607  0.6105
39682SOL    HW122448   8.292   5.083   5.807  1.3781 -0.2143  0.9016
39682SOL    HW222449   8.416   5.001   5.776  0.1120 -1.0105 -2.4834
39683SOL     OW22450   7.999   4.601   4.935 -0.3810 -0.1260  0.1820
39683SOL    HW122451   8.042   4.653   5.002 -0.9456  0.4732  0.0865
39683SOL    HW222452   7.985   4.515   4.976  1.4071 -0.5375  0.0189
39684SOL     OW22453   9.887   8.391   1.086 -0.1446 -0.3112 -0.2400
39684SOL    HW122454   9.837   8.460   1.130 -0.5269 -1.0711  0.5402
39684SOL    HW222455   9.873   8.407   0.993 -1.2550 -0.0708 -0.0517
39685SOL     OW22456   5.610   9.024  10.474  0.1600  0.0529  0.2834
39685SOL    HW122457   5.560   8.962  10.527  1.2305 -1.1866 -0.1036
39685SOL    HW222458   5.648   8.971  10.405  1.1941  1.1423 -0.0119
39686SOL     OW22459  10.027   9.315   0.749 -0.3728  0.5205 -0.3686
39686SOL    HW122460  10.121   9.333   0.746  0.2616 -2.2527  0.0716
39686SOL    HW222461  10.015   9.247   0.682 -1.7176 -0.4589  0.8352
39687SOL     OW22462  10.773   3.029   3.379 -0.4825  0.3349  0.1130
39687SOL    HW122463  10.775   3.124   3.368  0.1679  0.3101 -0.0132
39687SOL    HW222464  10.756   3.016   3.472 -1.0629  0.5682  0.0439
39688SOL     OW22465   5.869   6.828   5.872  0.3791  0.5106 -0.0413
39688SOL    HW122466   5.807   6.792   5.936  0.4458  1.6923  0.7122
39688SOL    HW222467   5.955   6.817   5.912  0.3148  2.6392  0.8286
39689SOL     OW22468   2.224   0.576   2.111  0.2439  0.2201  0.0354
39689SOL    HW122469   2.177   0.657   2.087  0.5961  0.5701  0.5062
39689SOL    HW222470   2.155   0.510   2.120 -0.5511  1.2805  3.2609
39690SOL     OW22471   5.347   6.559  10.132 -0.6949 -0.3523 -0.3046
39690SOL    HW122472   5.423   6.502  10.120 -0.4029  0.2229 -1.2773
39690SOL    HW222473   5.351   6.621  10.059 -2.8303 -1.1007 -1.1465
39691SOL     OW22474   8.727  10.334   3.928  0.4648 -0.2074  0.1709
39691SOL    HW122475   8.699  10.419   3.961  0.8670 -0.0733  0.1746
39691SOL    HW222476   8.682  10.270   3.983 -0.2183 -0.0050 -0.1386
39692SOL     OW22477   4.741  10.720   6.258  0.0331 -0.1624 -0.1600
39692SOL    HW122478   4.826  10.743   6.297 -0.5386  2.1342 -0.1548
39692SOL    HW222479   4.751  10.742   6.165 -0.5664  0.1838 -0.1464
39693SOL     OW22480   9.101   5.306   6.094  0.1251 -0.3921  0.6692
39693SOL    HW122481   9.197   5.308   6.100  0.2568 -1.7667 -0.4368
39693SOL    HW222482   9.073   5.263   6.175  0.3015  1.4668  1.7638
39694SOL     OW22483   5.075   9.874   4.302  0.2929 -0.0775 -0.0058
39694SOL    HW122484   5.085   9.846   4.393 -0.0891  1.5909  0.5843
39694SOL    HW222485   4.983   9.860   4.283  0.2473  0.1170  0.0658
39695SOL     OW22486   6.050   0.618   5.265  0.0639  0.1590  0.0911
39695SOL    HW122487   6.033   0.711   5.250 -1.4073 -0.3886 -2.1471
39695SOL    HW222488   6.143   0.608   5.243  0.0746  0.9954 -0.3267
39696SOL     OW22489   0.297  10.008   9.065 -0.0276 -0.0253 -0.7468
39696SOL    HW122490   0.293   9.912   9.073 -1.6536  0.0913  0.6071
39696SOL    HW222491   0.209  10.037   9.089  0.3436  1.8045 -1.4611
39697SOL     OW22492   9.587   8.398   2.231  0.2254  0.1268  0.4078
39697SOL    HW122493   9.558   8.445   2.153  0.4425  0.5682  0.5906
39697SOL    HW222494   9.515   8.409   2.294 -0.1372 -0.5940  0.1272
39698SOL     OW22495   8.483   4.414   0.039  0.4140 -0.0880 -0.1261
39698SOL    HW122496   8.423   4.342   0.022  0.6644 -0.4549  0.5182
39698SOL    HW222497   8.509   4.444  -0.048  0.5599 -0.9944 -0.4114
39699SOL     OW22498   4.390   4.925   9.482 -0.4146 -0.3524 -0.0041
39699SOL    HW122499   4.300   4.956   9.482 -0.4428 -0.3644  1.4801
39699SOL    HW222500   4.397   4.868   9.558  0.3452 -1.9501 -1.2170
39700SOL     OW22501   6.257   8.478   2.092 -0.4016  0.1981  0.4312
39700SOL    HW122502   6.324   8.439   2.149  0.9033 -0.4733 -1.4640
39700SOL    HW222503   6.230   8.407   2.034 -0.3489  1.2809 -0.9747
39701SOL     OW22504   5.898   2.293   5.162 -0.1048  0.3669  0.3807
39701SOL    HW122505   5.850   2.211   5.173  0.1628  0.0024 -0.9952
39701SOL    HW222506   5.934   2.312   5.249 -1.6145 -0.0419  1.1351
39702SOL     OW22507   1.588  10.754   1.270 -0.0093 -0.3475  0.0057
39702SOL    HW122508   1.501  10.716   1.276  0.3815 -1.9025 -2.6077
39702SOL    HW222509   1.635  10.720   1.346 -1.6921  0.7788  1.6295
39703SOL     OW22510   9.310  10.175   0.945 -0.2913 -0.0498 -0.3060
39703SOL    HW122511   9.334  10.267   0.939 -0.3899  0.0438  0.5887
39703SOL    HW222512   9.217  10.175   0.970 -0.8904 -0.4074 -2.3601
39704SOL     OW22513   7.422   8.562   1.391 -0.0341 -0.1886  0.0204
39704SOL    HW122514   7.398   8.653   1.413  0.5944  0.0707 -0.3445
39704SOL    HW222515   7.356   8.535   1.327  0.0821  0.1968 -0.2697
39705SOL     OW22516   7.368   6.199  10.692  0.1965  0.1313 -0.0482
39705SOL    HW122517   7.386   6.121  10.640  1.4324  2.3872 -3.2752
39705SOL    HW222518   7.453   6.222  10.731  0.0301  0.3569  0.1864
39706SOL     OW22519   9.471   0.989   5.344 -0.3348  0.8050  0.1660
39706SOL    HW122520   9.439   1.079   5.332 -1.0379  0.8596  2.1047
39706SOL    HW222521   9.520   0.992   5.427 -0.1988 -0.5567  0.1494
39707SOL     OW22522   5.091   7.217   0.287 -0.7046  0.2084 -0.8227
39707SOL    HW122523   5.170   7.244   0.239 -0.1358 -0.0788 -0.0728
39707SOL    HW222524   5.090   7.272   0.365 -1.7440  0.8184 -1.2468
39708SOL     OW22525  10.717   2.506   1.769  0.5037 -0.7236  0.2900
39708SOL    HW122526  10.681   2.498   1.680 -0.0213 -1.6976  0.5772
39708SOL    HW222527  10.810   2.486   1.760  0.6070 -0.0892 -0.1503
39709SOL     OW22528   0.038   6.949   5.769  0.4247  0.8947 -0.1341
39709SOL    HW122529   0.030   6.972   5.677  1.8723  0.9072 -0.2786
39709SOL    HW222530   0.079   7.026   5.810  0.5324  0.5857  0.3538
39710SOL     OW22531   6.233   4.052   5.462 -0.2005 -0.5097  0.0297
39710SOL    HW122532   6.172   4.004   5.517 -0.1420 -3.0370 -1.9141
39710SOL    HW222533   6.319   4.032   5.498 -0.2792 -0.4036  0.2745
39711SOL     OW22534  10.216   6.822   1.938  0.1020 -0.0785  0.5452
39711SOL    HW122535  10.285   6.800   2.001  0.4421  0.3018  0.3177
39711SOL    HW222536  10.134   6.805   1.984  0.2986  2.0181  1.7909
39712SOL     OW22537   4.593   9.882  10.582 -0.0638  0.4546  0.1036
39712SOL    HW122538   4.597   9.806  10.640 -1.3878  0.7009  0.5500
39712SOL    HW222539   4.603   9.845  10.494 -2.2875 -0.4901  0.1784
39713SOL     OW22540  10.756   1.139   7.570  0.3794  0.3070 -0.2713
39713SOL    HW122541  10.736   1.049   7.597  0.4339  0.3055 -0.2350
39713SOL    HW222542  10.852   1.142   7.568  0.3755  0.2952 -0.5022
39714SOL     OW22543   7.025   4.508   7.563 -0.5579 -0.4547 -0.5842
39714SOL    HW122544   7.010   4.435   7.502 -1.7146 -0.8675  0.1592
39714SOL    HW222545   7.111   4.489   7.601  0.1481 -0.2267 -2.0153
39715SOL     OW22546   8.458   4.819   7.244  0.2487 -0.2263 -0.4745
39715SOL    HW122547   8.407   4.898   7.225  1.2125  0.6731  0.5128
39715SOL    HW222548   8.421   4.785   7.325  1.1547  0.4003  0.2163
39716SOL     OW22549   4.809   5.906   5.155  0.1588 -0.4986  0.6297
39716SOL    HW122550   4.736   5.967   5.164 -0.2476 -0.6454 -1.2112
39716SOL    HW222551   4.793   5.840   5.222 -1.6374 -0.7117  0.0747
39717SOL     OW22552   1.242   1.455   0.652  0.0480 -0.0947 -0.6782
39717SOL    HW122553   1.209   1.367   0.634 -0.1504  0.3523 -2.7302
39717SOL    HW222554   1.163   1.509   0.658  0.2255  0.4041 -2.3017
39718SOL     OW22555   9.555   3.801   4.081 -0.2217  0.1019  0.2033
39718SOL    HW122556   9.573   3.860   4.155 -1.1419  0.3836  0.2185
39718SOL    HW222557   9.472   3.760   4.103 -0.9052  0.7664 -1.0159
39719SOL     OW22558   2.524   3.952   3.866 -0.5735  0.3794  0.1453
39719SOL    HW122559   2.484   3.865   3.864 -1.6633  0.8696 -0.4797
39719SOL    HW222560   2.553   3.967   3.776 -2.1842  1.4271 -0.2477
39720SOL     OW22561  10.670   1.622   7.575 -0.4653  0.1193  0.1629
39720SOL    HW122562  10.709   1.693   7.627 -1.6334  0.3181  0.8252
39720SOL    HW222563  10.579   1.618   7.606 -0.1197 -2.5360  1.0648
39721SOL     OW22564   2.732   5.999   9.071 -0.7226 -0.5317  0.1436
39721SOL    HW122565   2.788   5.924   9.052 -1.7547 -1.1612 -0.4672
39721SOL    HW222566   2.668   5.966   9.134 -1.3732 -0.2553 -0.3636
39722SOL     OW22567   5.768   2.973   8.780 -0.2422 -0.4596 -0.5943
39722SOL    HW122568   5.849   3.019   8.803 -0.5180 -0.5890  0.6981
39722SOL    HW222569   5.699   3.032   8.808 -0.5991 -1.0109 -0.3057
39723SOL     OW22570   6.498   2.302   7.439  0.1233 -0.3712  0.3926
39723SOL    HW122571   6.510   2.223   7.386  0.2810  0.5191 -0.9639
39723SOL    HW222572   6.582   2.315   7.482  0.0793 -0.9674  0.6689
39724SOL     OW22573   2.209   7.522   5.972  0.0878 -0.3256 -0.0324
39724SOL    HW122574   2.279   7.560   5.919 -1.2341  2.2405 -0.0812
39724SOL    HW222575   2.129   7.545   5.926 -0.9569 -0.4373  1.6499
39725SOL     OW22576   4.452   2.174   9.231 -0.1807  0.2564  0.8164
39725SOL    HW122577   4.373   2.134   9.268 -0.0713 -0.2922  0.4730
39725SOL    HW222578   4.437   2.268   9.238 -1.3807  0.1735 -0.3178
39726SOL     OW22579   9.346   1.644   7.532  0.3470 -0.0260 -0.3950
39726SOL    HW122580   9.418   1.634   7.470  1.9846 -2.0841  1.6599
39726SOL    HW222581   9.384   1.692   7.606 -1.0819  0.8955 -0.2130
39727SOL     OW22582   7.094   9.253   8.080 -0.2857  0.0547  0.0827
39727SOL    HW122583   7.155   9.181   8.095 -0.8925 -0.0537  2.4498
39727SOL    HW222584   7.146   9.319   8.033  0.7546 -1.2076 -0.6151
39728SOL     OW22585   8.085   6.356  10.822  0.3275  0.1863  0.3447
39728SOL    HW122586   8.120   6.425  10.766 -0.2900  0.1004 -0.1721
39728SOL    HW222587   7.993   6.380  10.835 -0.2362 -1.1496 -0.8662
39729SOL     OW22588   7.159   3.715   1.035  0.3981 -0.3551  0.5135
39729SOL    HW122589   7.093   3.655   1.070  0.8196 -1.5166 -0.6003
39729SOL    HW222590   7.243   3.672   1.054  0.8555  0.9372  1.6069
39730SOL     OW22591   2.732   3.897  10.524 -0.0044  0.2191  0.3104
39730SOL    HW122592   2.819   3.860  10.511  0.3634  1.4611 -0.9984
39730SOL    HW222593   2.710   3.936  10.440 -1.1590  1.2987  1.0832
39731SOL     OW22594  10.907   0.652   5.090 -0.0424 -0.0756  0.0421
39731SOL    HW122595  10.979   0.660   5.028  0.3266 -0.6097  0.3990
39731SOL    HW222596  10.939   0.695   5.169 -0.6106  0.8409 -0.2016
39732SOL     OW22597   7.796   1.014   2.918 -0.2508  0.0065  0.1690
39732SOL    HW122598   7.755   0.963   2.847  0.5782 -0.8492  0.2832
39732SOL    HW222599   7.786   0.958   2.995  0.1803  0.2740  0.4174
39733SOL     OW22600   1.077   8.873   2.072  0.1242  0.0661 -0.1573
39733SOL    HW122601   1.128   8.902   2.148  0.7369  0.6407 -0.7590
39733SOL    HW222602   1.008   8.819   2.108  1.1013 -0.6504  0.7119
39734SOL     OW22603   5.628   2.078   5.788  0.2781  0.5359  0.1775
39734SOL    HW122604   5.644   2.054   5.879  2.0281  0.6699 -0.0609
39734SOL    HW222605   5.561   2.016   5.757  2.1699 -1.8211  0.5628
39735SOL     OW22606   8.395   3.994   6.741  0.4528  0.2153  0.3159
39735SOL    HW122607   8.358   3.978   6.827  1.1389 -0.7497  0.4515
39735SOL    HW222608   8.468   3.932   6.734  1.1524  1.0918 -0.4863
39736SOL     OW22609   5.786   7.931   4.131 -0.2265 -0.2993  0.0346
39736SOL    HW122610   5.880   7.946   4.118 -0.5115  1.9438  0.0676
39736SOL    HW222611   5.760   7.878   4.056  0.9029 -0.1039 -0.5223
39737SOL     OW22612   0.971  10.583   5.058 -0.0047 -0.0176 -0.1794
39737SOL    HW122613   0.981  10.662   5.005  3.0249 -0.2407 -0.1439
39737SOL    HW222614   0.954  10.616   5.147  1.8931  0.7130 -0.0355
39738SOL     OW22615   0.948   9.838   3.381 -0.2361  0.2362  0.3502
39738SOL    HW122616   1.014   9.901   3.409  0.4754  0.2493 -1.2508
39738SOL    HW222617   0.984   9.753   3.404  0.2299  0.2608 -0.2553
39739SOL     OW22618   0.191   9.008  10.267  0.5438 -0.5832 -0.5619
39739SOL    HW122619   0.221   8.947  10.335 -1.3599 -0.2004  0.6846
39739SOL    HW222620   0.271   9.053  10.238  1.4451 -0.9497  1.2349
39740SOL     OW22621  10.423   4.744   4.425  0.6539  0.2129 -1.0157
39740SOL    HW122622  10.337   4.729   4.387  0.3120 -0.1937 -0.0997
39740SOL    HW222623  10.461   4.815   4.372 -0.8761  1.5086 -0.4356
39741SOL     OW22624   5.354   2.484  10.753 -0.1332  0.0170  0.1765
39741SOL    HW122625   5.287   2.492  10.685  2.0464 -1.7566 -2.3790
39741SOL    HW222626   5.320   2.535  10.826 -4.0076 -0.3817 -1.1175
39742SOL     OW22627   8.666   5.354   7.391 -0.3443  0.5619  0.3473
39742SOL    HW122628   8.723   5.412   7.341  0.1974  0.6790  1.0995
39742SOL    HW222629   8.618   5.412   7.450 -1.6731  0.5371 -0.6549
39743SOL     OW22630   5.164  10.239   3.702  0.0128  0.0751  0.0748
39743SOL    HW122631   5.252  10.253   3.667  0.2373  0.5101  0.7950
39743SOL    HW222632   5.157  10.301   3.775 -0.8698  0.0052  0.0613
39744SOL     OW22633   1.947   1.424  10.482 -0.3642 -0.7916 -0.3709
39744SOL    HW122634   1.950   1.486  10.556  0.5975  1.4649 -2.1629
39744SOL    HW222635   2.033   1.434  10.440 -0.5214 -2.7806 -1.2493
39745SOL     OW22636   0.160   4.683  10.221 -0.2094 -0.3105  0.6665
39745SOL    HW122637   0.139   4.756  10.162 -1.4296 -0.8725  0.3872
39745SOL    HW222638   0.146   4.719  10.309  0.1994  0.0913  0.5731
39746SOL     OW22639   0.283   5.206   5.699 -0.4318  0.1923  0.8956
39746SOL    HW122640   0.211   5.164   5.652  1.4353 -0.6595 -1.4510
39746SOL    HW222641   0.264   5.300   5.693 -0.7047  0.0561 -0.8603
39747SOL     OW22642   2.955   6.417   8.146 -0.0959  0.1505  0.2413
39747SOL    HW122643   2.969   6.452   8.234 -2.6173 -0.5255  0.9820
39747SOL    HW222644   2.930   6.326   8.160  1.3186 -0.5260 -1.3390
39748SOL     OW22645   3.530   9.730   5.259  0.1678  0.1472  0.3493
39748SOL    HW122646   3.435   9.740   5.271  0.2582  0.0361  1.2300
39748SOL    HW222647   3.546   9.636   5.269  0.3812  0.1759  0.2807
39749SOL     OW22648   1.377   4.099   3.578 -0.5133 -0.0126  0.0616
39749SOL    HW122649   1.393   4.111   3.672  0.8666  0.0584 -0.1614
39749SOL    HW222650   1.282   4.086   3.572 -0.7222  0.6259  1.3917
39750SOL     OW22651   2.712   8.282   1.533  0.2977  0.4667 -0.3556
39750SOL    HW122652   2.687   8.214   1.595  1.0028  1.4542  1.0837
39750SOL    HW222653   2.761   8.236   1.465 -0.0319 -0.5802  0.1031
39751SOL     OW22654   4.580   4.658   6.958 -0.2991  0.0972 -0.3626
39751SOL    HW122655   4.503   4.619   7.000 -0.3851 -0.0769 -0.6766
39751SOL    HW222656   4.599   4.736   7.010 -1.0841  0.5042 -0.6751
39752SOL     OW22657   1.296   0.316   7.331 -0.0329 -0.0921  0.6504
39752SOL    HW122658   1.254   0.334   7.415 -1.1409 -0.7118  0.2575
39752SOL    HW222659   1.266   0.228   7.308 -0.0803  0.2207 -0.5809
39753SOL     OW22660  10.822   0.395  10.566 -0.0110  0.2658 -0.2573
39753SOL    HW122661  10.798   0.426  10.653 -3.1668  1.5637 -1.4352
39753SOL    HW222662  10.902   0.444  10.545  0.5838  0.2241  1.7101
39754SOL     OW22663   3.583   0.696   5.679  1.1677 -0.1133  0.0151
39754SOL    HW122664   3.553   0.642   5.752 -2.5937  1.1371 -0.4028
39754SOL    HW222665   3.665   0.655   5.651  0.7028 -2.9781  2.4052
39755SOL     OW22666   6.215   3.938   4.993  0.4239  0.4127 -0.1078
39755SOL    HW122667   6.274   3.911   5.063 -0.3536  1.4455  0.9956
39755SOL    HW222668   6.132   3.894   5.013  0.3269  0.3610 -0.6227
39756SOL     OW22669   6.676   6.165   8.762 -0.3146 -0.0777 -0.4076
39756SOL    HW122670   6.686   6.141   8.854  1.2247  0.7117 -0.3326
39756SOL    HW222671   6.764   6.189   8.733 -0.6410 -0.9013 -2.2777
39757SOL     OW22672   9.523   2.818   3.383 -0.0910 -0.4352 -0.1760
39757SOL    HW122673   9.599   2.869   3.412 -1.3953  0.7333  1.3738
39757SOL    HW222674   9.472   2.803   3.462 -1.8573 -0.5518 -1.2758
39758SOL     OW22675   4.097   1.420   2.370 -0.1921  0.3782  0.0726
39758SOL    HW122676   4.071   1.505   2.333 -2.0559  0.2136  0.8698
39758SOL    HW222677   4.079   1.357   2.301  0.2549  0.5085 -0.1689
39759SOL     OW22678   8.525   2.405   5.792 -0.0362  0.4981  0.2154
39759SOL    HW122679   8.491   2.449   5.870 -0.6568  1.5955 -0.6457
39759SOL    HW222680   8.502   2.463   5.720  1.2148 -0.1130 -0.7103
39760SOL     OW22681   0.950  10.445   1.023 -0.7420 -0.1980 -0.0886
39760SOL    HW122682   0.887  10.502   0.980 -0.2095 -0.3119 -1.0583
39760SOL    HW222683   0.986  10.392   0.952 -0.0402 -0.5947  0.5484
39761SOL     OW22684   8.484   4.801   4.257  0.1271  0.2817  0.3802
39761SOL    HW122685   8.409   4.839   4.211 -0.6057 -0.2086  1.1333
39761SOL    HW222686   8.477   4.706   4.241 -0.5182  0.0218  1.9796
39762SOL     OW22687   9.245   4.716   4.713 -0.4447  1.0278  0.1232
39762SOL    HW122688   9.180   4.785   4.698 -0.3692  0.8119 -1.3500
39762SOL    HW222689   9.320   4.761   4.752 -1.5920  1.2095  2.2949
39763SOL     OW22690   0.834   7.599   7.501  0.1707 -0.0697  0.5718
39763SOL    HW122691   0.812   7.650   7.580  1.0624 -0.5226  1.1279
39763SOL    HW222692   0.774   7.525   7.504 -1.0358  0.8410 -0.1622
39764SOL     OW22693  10.118   9.305  10.044 -0.2904 -0.2075  0.2231
39764SOL    HW122694  10.200   9.255  10.046 -0.1549 -0.0211 -0.5607
39764SOL    HW222695  10.072   9.277  10.124  0.2656 -0.7628  0.3627
39765SOL     OW22696   8.108   3.405   0.256  0.0542  0.1316  0.4024
39765SOL    HW122697   8.099   3.321   0.212  0.9583 -0.1203  0.6949
39765SOL    HW222698   8.125   3.383   0.347  1.2142  0.6102  0.3178
39766SOL     OW22699   2.661   3.742  10.074  0.1715  0.0050 -0.2940
39766SOL    HW122700   2.675   3.648  10.066  0.3641 -0.1154  1.2122
39766SOL    HW222701   2.734   3.781  10.026  1.1197 -0.6226  0.6080
39767SOL     OW22702   5.797   0.355   2.884  0.1606 -0.2083 -0.1572
39767SOL    HW122703   5.821   0.267   2.914 -0.4764 -0.4743 -0.4014
39767SOL    HW222704   5.811   0.411   2.961  0.1149 -0.6043  0.1457
39768SOL     OW22705   6.151   0.545   7.231 -0.2660  0.5277 -0.3575
39768SOL    HW122706   6.077   0.568   7.287 -0.2363  0.1380 -0.1565
39768SOL    HW222707   6.214   0.617   7.244 -0.4312  0.6470 -0.2093
39769SOL     OW22708   7.547   4.010   5.653 -0.1277 -0.1921 -0.7778
39769SOL    HW122709   7.505   4.066   5.718  0.8535  0.3504 -0.5843
39769SOL    HW222710   7.514   3.923   5.671 -1.8506  0.3426 -1.2172
39770SOL     OW22711   7.400   1.271   9.844  0.1311  0.3002 -0.0050
39770SOL    HW122712   7.400   1.217   9.765  0.1802 -0.6926  0.6585
39770SOL    HW222713   7.315   1.316   9.843 -0.5368 -0.9286  0.1924
39771SOL     OW22714   8.278   9.730   6.059  0.0182 -0.5258  0.3474
39771SOL    HW122715   8.238   9.687   6.135  0.1301  1.0565  1.3416
39771SOL    HW222716   8.260   9.823   6.072  1.6140 -0.0430 -0.6325
39772SOL     OW22717   6.821   5.884   1.984 -0.6793  0.0421 -0.5917
39772SOL    HW122718   6.806   5.951   2.051  1.3640 -0.4061  0.3711
39772SOL    HW222719   6.912   5.896   1.957 -0.5240 -1.7957 -1.0075
39773SOL     OW22720   4.387  10.561   3.397  0.5373  0.4373 -0.3098
39773SOL    HW122721   4.336  10.500   3.450 -0.2425  0.8982 -0.5151
39773SOL    HW222722   4.443  10.504   3.343  0.4205 -0.0679  0.0902
39774SOL     OW22723   8.462   9.381  10.127  0.1992 -0.2582  0.7412
39774SOL    HW122724   8.472   9.294  10.087 -0.0437 -0.2946  0.7554
39774SOL    HW222725   8.469   9.442  10.054 -1.9581 -0.4050  0.3565
39775SOL     OW22726   5.655   9.193   9.938  0.3538  0.2584  0.6064
39775SOL    HW122727   5.653   9.270   9.996  1.0727  0.3160  0.5714
39775SOL    HW222728   5.565   9.161   9.937 -0.0865  1.4558  0.1466
39776SOL     OW22729   8.181  10.465   2.977 -0.2653 -0.1803  0.3915
39776SOL    HW122730   8.179  10.525   2.903  0.6771 -0.1037  0.4126
39776SOL    HW222731   8.108  10.405   2.961 -1.1293  0.8676  0.2974
39777SOL     OW22732   7.730  10.420   2.098 -0.5048 -0.4727 -0.7779
39777SOL    HW122733   7.717  10.331   2.130  1.6940 -0.4761  0.3054
39777SOL    HW222734   7.676  10.474   2.156  1.1128 -0.7893  1.1613
39778SOL     OW22735   5.722  10.721   6.816  0.0695 -0.5315 -0.3823
39778SOL    HW122736   5.739  10.750   6.906 -0.7114  3.5896 -1.3342
39778SOL    HW222737   5.635  10.680   6.820 -0.4992  0.6926  0.6128
39779SOL     OW22738   3.347   3.243   2.369  0.3517 -0.1821  0.0829
39779SOL    HW122739   3.409   3.221   2.299  0.0466  2.4652 -1.1515
39779SOL    HW222740   3.268   3.271   2.323 -0.9689 -1.2064  1.6006
39780SOL     OW22741   1.926   0.373   0.928 -0.2534  0.9776  0.5056
39780SOL    HW122742   1.883   0.388   0.844  1.1944  3.3168  0.0729
39780SOL    HW222743   1.854   0.359   0.990 -1.3302 -1.6183 -1.1580
39781SOL     OW22744   3.714   6.628   4.412 -0.5895  0.2065  0.2953
39781SOL    HW122745   3.626   6.643   4.377 -1.1238 -2.1230  0.4719
39781SOL    HW222746   3.739   6.712   4.450 -3.2486  0.6136  1.3634
39782SOL     OW22747   2.382   3.130   2.103  0.5147  0.0441 -0.3798
39782SOL    HW122748   2.377   3.115   2.197 -0.4193 -0.8860 -0.5522
39782SOL    HW222749   2.399   3.224   2.094  2.8835 -0.2126  0.7231
39783SOL     OW22750   0.146   7.850   3.845  0.3802  0.3908 -0.3704
39783SOL    HW122751   0.231   7.834   3.886  0.9698  1.8584 -0.9561
39783SOL    HW222752   0.143   7.789   3.771  0.1906 -0.8161  0.5908
39784SOL     OW22753   5.233   1.786   4.578  0.5539  0.2442  0.1760
39784SOL    HW122754   5.223   1.693   4.595 -2.4269  0.2706 -0.7487
39784SOL    HW222755   5.213   1.796   4.485 -3.3899  2.0800  0.9611
39785SOL     OW22756   6.495   4.946   8.503 -0.4083 -0.1678 -0.3025
39785SOL    HW122757   6.535   4.911   8.582 -0.1971  1.3366  0.2773
39785SOL    HW222758   6.403   4.957   8.525  0.0948  2.8680  0.7728
39786SOL     OW22759   4.909  10.548   9.331 -0.0827  0.2999  0.1257
39786SOL    HW122760   4.954  10.464   9.341 -0.6262  0.0891  0.8918
39786SOL    HW222761   4.976  10.608   9.298  0.1100 -0.6324 -1.2813
39787SOL     OW22762   4.523   0.256   2.264  0.5051  0.5759  0.7691
39787SOL    HW122763   4.433   0.253   2.295  0.3375  0.2055  0.2604
39787SOL    HW222764   4.576   0.230   2.339  0.5584  4.5922  2.3758
39788SOL     OW22765  10.806   1.833   1.526 -0.1373 -0.0573 -0.2050
39788SOL    HW122766  10.851   1.916   1.513  2.7406 -1.8155 -2.7214
39788SOL    HW222767  10.846   1.796   1.604  2.7919 -1.3893 -2.1531
39789SOL     OW22768   9.771   1.517   1.816 -0.0463 -0.3100  0.1681
39789SOL    HW122769   9.756   1.427   1.789  1.2346 -1.0748  1.7935
39789SOL    HW222770   9.809   1.559   1.738  0.0922 -1.3963 -0.3750
39790SOL     OW22771   8.926   4.193  10.268  0.0636  0.0952  0.7956
39790SOL    HW122772   8.861   4.133  10.304 -2.0131  1.3184 -0.6480
39790SOL    HW222773   8.898   4.206  10.177  1.9725  1.2220  0.3052
39791SOL     OW22774   3.997   9.427   6.126 -0.6290  0.2675  0.3174
39791SOL    HW122775   3.969   9.467   6.043  0.2870 -0.0269 -0.1525
39791SOL    HW222776   4.081   9.386   6.105  0.7088  2.0300  1.8889
39792SOL     OW22777   0.523   9.204   1.925 -0.2368  0.4232  0.7718
39792SOL    HW122778   0.582   9.159   1.986 -0.7850  0.0320  1.0271
39792SOL    HW222779   0.523   9.295   1.954  2.8008  1.2164 -1.2187
39793SOL     OW22780   6.864   8.270   2.085 -0.0179  0.6860  0.3241
39793SOL    HW122781   6.955   8.261   2.111  0.1653 -1.4849 -0.8317
39793SOL    HW222782   6.863   8.347   2.028  1.8356 -1.0704 -2.3237
39794SOL     OW22783   5.113   7.375   6.405 -0.0479 -0.0677  0.3181
39794SOL    HW122784   5.151   7.394   6.319 -1.0978  0.6631 -0.0067
39794SOL    HW222785   5.067   7.455   6.429 -1.6710 -1.0094  0.5182
39795SOL     OW22786   0.022   3.965   3.131  0.1598  0.2615 -0.6533
39795SOL    HW122787   0.048   3.995   3.043  1.1277 -0.2091 -0.5432
39795SOL    HW222788  -0.064   3.926   3.118  0.1566  0.4735 -1.3394
39796SOL     OW22789   6.084   3.442   3.308 -0.1258  0.1811  0.4356
39796SOL    HW122790   6.086   3.360   3.358 -0.0878  0.1695  0.4155
39796SOL    HW222791   6.176   3.469   3.304 -0.2920  1.0810  1.8769
39797SOL     OW22792   1.337  10.651   1.285 -0.8459  0.1907 -0.4911
39797SOL    HW122793   1.263  10.601   1.321 -0.7229  0.4881  0.1908
39797SOL    HW222794   1.302  10.739   1.270 -0.8386  0.1245 -0.9109
39798SOL     OW22795   6.930   3.671   1.628 -0.1711  0.0511 -0.2497
39798SOL    HW122796   6.950   3.757   1.592 -0.4649  0.3566  0.2971
39798SOL    HW222797   6.836   3.675   1.647  0.0453  0.0475  0.9109
39799SOL     OW22798   7.652   8.285   2.333 -0.3719 -0.4390  0.4023
39799SOL    HW122799   7.564   8.322   2.337 -0.3531 -0.0204 -1.7799
39799SOL    HW222800   7.638   8.193   2.310 -0.2501 -0.5702  0.8413
39800SOL     OW22801   6.669   5.350   4.397  0.2499 -0.3798  0.1813
39800SOL    HW122802   6.690   5.356   4.303 -1.6745 -0.4831 -0.2932
39800SOL    HW222803   6.636   5.437   4.420  1.7125 -0.0262  1.0626
39801SOL     OW22804   9.305   2.291   4.286 -0.1303  0.6088 -0.2429
39801SOL    HW122805   9.221   2.325   4.319 -0.4339  0.4647 -0.8445
39801SOL    HW222806   9.283   2.205   4.250  0.4946  0.0853  0.5959
39802SOL     OW22807   5.463   7.363   6.833 -0.4162 -0.3062 -0.7496
39802SOL    HW122808   5.504   7.304   6.770  1.5666 -0.2668  0.4172
39802SOL    HW222809   5.498   7.449   6.812 -0.5539 -0.1238 -0.2646
39803SOL     OW22810   3.526   1.314   1.497 -0.0157  0.2501 -0.7688
39803SOL    HW122811   3.520   1.401   1.535  2.0855  0.6793 -1.2757
39803SOL    HW222812   3.618   1.289   1.507 -0.6128 -2.0695 -0.3328
39804SOL     OW22813   8.090   7.866   0.842  0.1250  0.2521  0.0332
39804SOL    HW122814   8.175   7.908   0.856  0.8297 -1.0083 -0.2882
39804SOL    HW222815   8.077   7.869   0.747 -1.4273  2.6866  0.2316
39805SOL     OW22816   5.994   5.744   4.748  0.0329 -0.0216  0.6520
39805SOL    HW122817   6.047   5.739   4.828 -0.9813  0.2559  1.3608
39805SOL    HW222818   5.978   5.653   4.724 -0.6794 -0.1305  1.4780
39806SOL     OW22819   3.983  10.427   7.654  0.1566 -0.3055  0.2614
39806SOL    HW122820   3.991  10.494   7.722 -0.6444 -0.7585  0.8199
39806SOL    HW222821   3.897  10.441   7.615  0.3655 -0.4227 -0.2638
39807SOL     OW22822  10.398   8.604   8.630  0.5634  0.1217 -0.5020
39807SOL    HW122823  10.345   8.662   8.684  0.9972  0.9482 -0.9473
39807SOL    HW222824  10.414   8.653   8.549  1.0405 -0.5614 -0.8357
39808SOL     OW22825   0.891   8.179   4.908 -0.3177 -0.1259 -0.1858
39808SOL    HW122826   0.915   8.239   4.837  1.9799  0.3668  0.8995
39808SOL    HW222827   0.932   8.096   4.884  0.8626  0.1615  0.6990
39809SOL     OW22828   1.158  10.546  10.135  0.0281 -0.4642 -0.2976
39809SOL    HW122829   1.195  10.465  10.171  1.6860 -0.2676 -1.4615
39809SOL    HW222830   1.177  10.613  10.201  0.8153 -0.5764 -0.4005
39810SOL     OW22831   4.374   4.344   1.782  0.0093 -0.5936 -0.3981
39810SOL    HW122832   4.350   4.437   1.778 -2.9169 -1.2584 -0.6632
39810SOL    HW222833   4.399   4.330   1.874  0.0526  0.3627 -0.2495
39811SOL     OW22834   0.045   7.962   9.882  0.1439 -0.0779 -0.1794
39811SOL    HW122835   0.059   7.916   9.965  0.1059  0.1385 -0.0538
39811SOL    HW222836  -0.036   7.923   9.848  0.5639 -0.7065 -0.4880
39812SOL     OW22837   9.678   5.458   4.025  0.1106  0.1917 -0.7594
39812SOL    HW122838   9.690   5.443   3.931 -0.8730 -1.3577 -0.6808
39812SOL    HW222839   9.636   5.544   4.030 -1.6143 -0.5132 -1.9185
39813SOL     OW22840   5.290   9.788   4.909 -0.5449  0.5098 -0.1086
39813SOL    HW122841   5.292   9.878   4.874  0.3934  0.7110  0.4321
39813SOL    HW222842   5.258   9.735   4.836 -1.4669  1.3258 -0.3279
39814SOL     OW22843   9.266   5.097   1.847  0.0464 -0.7915  0.1381
39814SOL    HW122844   9.351   5.062   1.874  0.3200  0.1950  0.6284
39814SOL    HW222845   9.266   5.089   1.752  0.3431 -1.5496  0.1920
39815SOL     OW22846   8.478   5.284   9.395  0.7924 -0.3563 -0.1327
39815SOL    HW122847   8.521   5.212   9.349  0.7403 -1.1629  1.0276
39815SOL    HW222848   8.409   5.241   9.446  1.5142  0.3504  1.5119
39816SOL     OW22849   1.673   3.986   7.175  0.4793 -0.1104 -0.1840
39816SOL    HW122850   1.758   3.943   7.178  0.0234 -1.0285 -0.1021
39816SOL    HW222851   1.682   4.052   7.107  0.9775 -0.8157 -0.8186
39817SOL     OW22852   1.518   8.118   1.473  0.3919  0.1959  0.9097
39817SOL    HW122853   1.557   8.204   1.484 -0.0801  0.4786  0.3973
39817SOL    HW222854   1.523   8.078   1.561  2.1129  0.0821  0.7947
39818SOL     OW22855   7.670   1.962   2.148  0.3327 -0.0104 -0.2319
39818SOL    HW122856   7.725   1.886   2.129  1.3120  0.1613  1.6955
39818SOL    HW222857   7.694   2.026   2.081 -1.1501 -1.6034 -2.4598
39819SOL     OW22858   2.360   2.443   5.792 -0.1707  0.1313  0.5356
39819SOL    HW122859   2.318   2.512   5.843 -0.8378 -1.4081  2.1605
39819SOL    HW222860   2.300   2.426   5.720  0.1601  1.4217 -0.0867
39820SOL     OW22861   3.674   8.864   7.398  0.2845  0.3540 -0.4910
39820SOL    HW122862   3.661   8.785   7.451  1.2072 -1.3326 -2.6249
39820SOL    HW222863   3.622   8.931   7.442 -2.7171 -2.0604 -0.0144
39821SOL     OW22864   5.391   0.897  10.537 -0.3114 -0.2988 -0.5685
39821SOL    HW122865   5.304   0.867  10.511  0.1018 -0.7664 -1.4408
39821SOL    HW222866   5.439   0.817  10.559 -0.2278 -0.0110  0.3760
39822SOL     OW22867   8.954   4.171   8.422  0.8436  0.6475 -0.5530
39822SOL    HW122868   8.885   4.106   8.411 -0.0913  1.3919  0.6813
39822SOL    HW222869   9.021   4.145   8.358  1.2951 -2.5304  0.9826
39823SOL     OW22870   7.348   9.104   8.097  0.0427  0.0964 -0.0056
39823SOL    HW122871   7.389   9.129   8.014  0.3326 -0.2668  0.0302
39823SOL    HW222872   7.386   9.020   8.119 -0.5138 -0.1156  0.1724
39824SOL     OW22873   6.348   1.962   4.659 -0.1256  0.3709 -0.1302
39824SOL    HW122874   6.285   2.031   4.681 -0.4461  0.3458 -0.8993
39824SOL    HW222875   6.404   2.002   4.592  1.7301  0.9314  1.6457
39825SOL     OW22876   0.804   7.797   1.787 -0.2440  0.4119  0.2921
39825SOL    HW122877   0.861   7.873   1.782  0.1446  0.1323  0.4195
39825SOL    HW222878   0.771   7.785   1.698  1.1256 -0.3613 -0.1278
39826SOL     OW22879   2.407   0.514   4.891  0.1763  0.1703 -0.0260
39826SOL    HW122880   2.465   0.590   4.899 -0.2707  0.6428 -1.1027
39826SOL    HW222881   2.391   0.505   4.797 -0.1218 -1.0061  0.1132
39827SOL     OW22882   0.907   5.891   1.329 -0.1383 -0.0467  0.2007
39827SOL    HW122883   0.856   5.810   1.324 -1.3697  0.6367  1.1149
39827SOL    HW222884   0.984   5.869   1.381 -1.1991 -0.2947  1.7266
39828SOL     OW22885   1.442   4.410   3.128 -0.1112  0.0917  0.1392
39828SOL    HW122886   1.533   4.434   3.148 -0.0310 -0.2489  0.1950
39828SOL    HW222887   1.399   4.410   3.213  0.7229 -3.4477  0.7217
39829SOL     OW22888   2.306   6.094   1.559 -0.4413 -0.5488 -0.4475
39829SOL    HW122889   2.387   6.058   1.595  0.3421 -0.5888 -2.1640
39829SOL    HW222890   2.328   6.183   1.533 -1.3786 -0.0411  0.4002
39830SOL     OW22891   8.623   0.164   1.083  0.0493 -0.0892 -0.3093
39830SOL    HW122892   8.669   0.126   1.009  0.6510  0.3339 -0.1664
39830SOL    HW222893   8.663   0.251   1.094  1.2368 -0.7979  1.5864
39831SOL     OW22894   9.545   0.272   0.190  0.0283 -0.2215 -0.2759
39831SOL    HW122895   9.486   0.315   0.128  0.1266  2.0199  1.0395
39831SOL    HW222896   9.591   0.345   0.233  3.8830 -1.8249 -1.2552
39832SOL     OW22897   9.607   1.390   4.389 -0.4214 -0.1952  0.6500
39832SOL    HW122898   9.613   1.309   4.440 -1.1090  0.3429  1.6150
39832SOL    HW222899   9.578   1.456   4.451 -1.7276  0.4031 -0.5390
39833SOL     OW22900   3.776   0.733   4.850  0.3422 -0.0000  0.0768
39833SOL    HW122901   3.775   0.694   4.762  1.5514 -0.7266  0.3646
39833SOL    HW222902   3.716   0.679   4.901  0.7687 -0.5047  0.0585
39834SOL     OW22903   1.349  10.379   7.764  0.5479  0.2624 -0.0158
39834SOL    HW122904   1.442  10.358   7.756  0.7355  0.7125  0.8723
39834SOL    HW222905   1.348  10.467   7.801 -0.2371  0.3962 -0.3461
39835SOL     OW22906   9.375   4.436   7.798 -0.1272  0.0867 -0.0631
39835SOL    HW122907   9.380   4.342   7.783  0.1115  0.0635  0.1632
39835SOL    HW222908   9.432   4.474   7.731  2.0139 -0.0923  1.5628
39836SOL     OW22909   9.977   2.946  10.593  0.1507  0.0182  0.5476
39836SOL    HW122910  10.016   2.866  10.559  2.1382  0.9847  0.4064
39836SOL    HW222911  10.038   2.975  10.661 -0.4780  1.4505  0.5319
39837SOL     OW22912   8.736   3.028   9.585 -0.4464  0.2980  0.8683
39837SOL    HW122913   8.802   2.977   9.538  0.0847  1.5023  0.2534
39837SOL    HW222914   8.671   2.964   9.613 -0.3838 -0.5710 -0.8343
39838SOL     OW22915   5.765   1.261   8.956 -0.3308 -0.1355  0.2855
39838SOL    HW122916   5.742   1.341   8.908  0.2761 -0.2625 -0.2213
39838SOL    HW222917   5.778   1.195   8.888 -2.2310 -1.0719  0.7410
39839SOL     OW22918   4.639   0.281   1.016 -0.0193 -0.2361  0.0357
39839SOL    HW122919   4.624   0.279   1.110  3.0005 -1.6834  0.6171
39839SOL    HW222920   4.663   0.371   0.997 -0.7543  0.0902  0.6270
39840SOL     OW22921   0.465   4.047   1.773  0.1663 -0.1101  0.5249
39840SOL    HW122922   0.457   3.972   1.831  0.5446 -0.2302  0.4305
39840SOL    HW222923   0.467   4.009   1.685  0.3988  0.0028  0.4785
39841SOL     OW22924  10.413   9.715  10.824  0.2512  0.4127  0.0392
39841SOL    HW122925  10.325   9.680  10.811 -0.5778  1.6002  1.9914
39841SOL    HW222926  10.468   9.638  10.840 -1.0002 -0.2249  1.5600
39842SOL     OW22927   2.627   3.918   1.706 -0.4507 -0.0739 -0.3101
39842SOL    HW122928   2.632   3.962   1.621 -1.7879 -0.8163 -0.8141
39842SOL    HW222929   2.703   3.949   1.754 -0.5294  1.6043 -1.1883
39843SOL     OW22930   2.484   1.416   4.727  0.3398 -0.8133  0.2318
39843SOL    HW122931   2.407   1.422   4.670 -0.9256 -1.7010  1.7640
39843SOL    HW222932   2.455   1.361   4.800  2.9703 -2.6102  0.0412
39844SOL     OW22933   0.948   4.664   8.004 -0.1200 -0.1573 -0.2541
39844SOL    HW122934   0.928   4.571   7.994 -2.4029  0.2116  0.3977
39844SOL    HW222935   0.989   4.688   7.921 -1.4901 -1.2895 -1.3187
39845SOL     OW22936   7.882   0.393   2.840 -0.4986  0.1267 -0.4407
39845SOL    HW122937   7.920   0.479   2.855 -0.1429 -0.1729  0.4561
39845SOL    HW222938   7.934   0.334   2.895 -1.9697 -0.3542  0.5132
39846SOL     OW22939   4.815   0.278   5.268 -0.3775 -0.7902 -0.4788
39846SOL    HW122940   4.851   0.351   5.218  1.1665 -0.1954  1.4157
39846SOL    HW222941   4.723   0.274   5.241 -0.5010  1.8044 -0.7066
39847SOL     OW22942   1.182   0.050   8.455  0.3503 -0.0372  0.4370
39847SOL    HW122943   1.165   0.115   8.523 -0.2809 -0.6792  0.9014
39847SOL    HW222944   1.272   0.023   8.469  0.7055  0.9102  0.0803
39848SOL     OW22945   1.922   6.122   2.157  0.3119 -0.2390 -0.5533
39848SOL    HW122946   1.966   6.078   2.230  1.4913  2.6141  0.5830
39848SOL    HW222947   1.978   6.103   2.081  0.5628 -1.0103 -0.1897
39849SOL     OW22948   2.768   2.818   4.766 -0.2129 -0.0012 -0.0707
39849SOL    HW122949   2.772   2.852   4.856 -0.6710 -0.5333  0.1557
39849SOL    HW222950   2.710   2.742   4.771 -0.3859  0.0703 -0.8565
39850SOL     OW22951   4.532   1.847  10.489 -0.6062 -0.1662 -0.5035
39850SOL    HW122952   4.543   1.810  10.577 -0.8277 -0.5929 -0.6509
39850SOL    HW222953   4.523   1.941  10.503  0.1380 -0.1461 -0.1345
39851SOL     OW22954   1.128   7.330   9.351 -0.3145 -0.0840  0.5248
39851SOL    HW122955   1.189   7.404   9.354 -1.2624  0.6912  1.7159
39851SOL    HW222956   1.066   7.352   9.282 -0.3171  0.0122  0.5573
39852SOL     OW22957   6.553   3.456   5.261 -0.6970 -0.3206 -0.4411
39852SOL    HW122958   6.618   3.438   5.193 -1.3994 -1.4227 -0.8606
39852SOL    HW222959   6.571   3.392   5.329 -2.9769 -2.5818 -1.7627
39853SOL     OW22960   0.848   7.067   8.651 -0.5773 -0.4963  0.3651
39853SOL    HW122961   0.757   7.082   8.628 -0.7010 -2.6116 -0.8332
39853SOL    HW222962   0.890   7.041   8.568  0.9583 -0.2299  1.0165
39854SOL     OW22963  10.576   4.918   7.114  0.7354 -0.1857 -0.1785
39854SOL    HW122964  10.485   4.912   7.084  0.0752  1.8458  1.1988
39854SOL    HW222965  10.600   4.828   7.135 -0.9122 -0.7863 -0.6969
39855SOL     OW22966   4.974   8.532   6.419  0.0245  0.3638 -0.7447
39855SOL    HW122967   4.954   8.613   6.466  2.3730  0.5727  0.0290
39855SOL    HW222968   4.895   8.479   6.428 -0.4567  1.3216  1.4998
39856SOL     OW22969   2.291   3.027   3.930  0.5858  0.1174 -0.5385
39856SOL    HW122970   2.381   2.999   3.950  0.0157 -0.5645  1.2619
39856SOL    HW222971   2.276   3.101   3.989  0.2017  0.7130 -1.3711
39857SOL     OW22972   4.216   0.852   2.185  0.7316 -0.5696 -0.1424
39857SOL    HW122973   4.148   0.796   2.223  0.7054 -0.1402  0.4429
39857SOL    HW222974   4.180   0.878   2.100  1.0907 -2.0949 -0.7894
39858SOL     OW22975  10.148   5.534   7.621  0.6512  0.4873 -0.0834
39858SOL    HW122976  10.170   5.456   7.571  0.4580  1.7267 -2.2034
39858SOL    HW222977  10.233   5.571   7.646  0.7715  0.4894 -0.4976
39859SOL     OW22978   7.661   1.702   4.598 -0.2318  0.3236  0.2143
39859SOL    HW122979   7.680   1.659   4.682  0.6202 -1.4218 -0.8107
39859SOL    HW222980   7.733   1.763   4.585 -0.0793  0.2028  0.4828
39860SOL     OW22981   2.377   3.115   2.388  0.1647 -0.6013  0.1427
39860SOL    HW122982   2.379   3.122   2.483 -0.0147  2.3626  0.0328
39860SOL    HW222983   2.470   3.109   2.362  0.2896 -0.1562  0.4724
39861SOL     OW22984  10.035   8.960   2.414  0.3160 -0.9226  0.7875
39861SOL    HW122985  10.128   8.935   2.412  0.0728 -1.9498  1.4042
39861SOL    HW222986  10.013   8.980   2.323  0.7518 -2.2271  0.3703
39862SOL     OW22987   5.048   2.748   7.088 -0.0467  0.0626 -0.4636
39862SOL    HW122988   5.045   2.688   7.163  1.7515  0.1700 -0.2664
39862SOL    HW222989   4.962   2.792   7.089  0.1518  0.5402  1.9535
39863SOL     OW22990   0.100  10.673   8.922 -0.5069 -0.3817 -0.9832
39863SOL    HW122991   0.005  10.676   8.924 -0.5755 -0.5294 -2.6636
39863SOL    HW222992   0.124  10.712   8.838  0.9124 -0.3942 -0.6159
39864SOL     OW22993   6.206  10.906   0.448 -0.5510 -0.2333 -0.0176
39864SOL    HW122994   6.121  10.892   0.489 -1.2827 -0.0817 -1.4500
39864SOL    HW222995   6.186  10.930   0.358  1.0307 -0.7607 -0.5388
39865SOL     OW22996   9.363   1.413   7.154  0.0903  0.0188 -0.2573
39865SOL    HW122997   9.398   1.358   7.084 -1.0494 -0.4617 -0.4844
39865SOL    HW222998   9.356   1.354   7.229  1.6577  0.6242  0.3899
39866SOL     OW22999   4.909  10.248   8.658 -0.5013  0.0187 -0.3525
39866SOL    HW123000   4.836  10.191   8.635 -0.6177  0.5365 -1.3077
39866SOL    HW223001   4.937  10.286   8.575 -0.0083  0.8512  0.1811
39867SOL     OW23002   4.732   5.124   8.063 -0.5999 -0.1804  0.0629
39867SOL    HW123003   4.649   5.146   8.106 -0.6362 -2.0797  1.0687
39867SOL    HW223004   4.796   5.120   8.134  0.2697  0.7382 -0.6399
39868SOL     OW23005   2.518   0.112   4.581  0.3075  0.1697  0.2490
39868SOL    HW123006   2.474   0.168   4.517  1.4108  3.0656  1.8168
39868SOL    HW223007   2.573   0.054   4.529 -0.5773  0.8181 -1.4979
39869SOL     OW23008   7.610   9.725   5.024  0.1674 -0.6835  0.1204
39869SOL    HW123009   7.545   9.793   5.010 -0.2829 -1.0468  0.4234
39869SOL    HW223010   7.651   9.712   4.938  0.3085  0.0179  0.0803
39870SOL     OW23011   1.063   4.501  10.288 -0.5173 -0.0275 -1.0366
39870SOL    HW123012   0.967   4.508  10.287 -0.4624  1.1526 -0.5007
39870SOL    HW223013   1.093   4.590  10.308  0.5694 -1.0735  2.8565
39871SOL     OW23014   8.542   5.175  10.575 -0.1762  0.2404  0.3104
39871SOL    HW123015   8.594   5.118  10.519 -1.7548 -0.9521 -0.0054
39871SOL    HW223016   8.565   5.149  10.664 -1.1429 -1.1723  0.1704
39872SOL     OW23017   7.733   0.500   1.441  0.4873 -0.3126 -0.3835
39872SOL    HW123018   7.721   0.593   1.426  1.8939  0.0663  0.6030
39872SOL    HW223019   7.651   0.471   1.481  0.4559  0.7611  0.3682
39873SOL     OW23020   0.865   4.802   5.461  0.0427 -0.1080  0.6892
39873SOL    HW123021   0.909   4.817   5.378  0.0131 -1.9019  0.2911
39873SOL    HW223022   0.918   4.735   5.505 -0.5648 -0.0199  1.5933
39874SOL     OW23023   0.172   8.475   5.085 -0.7250 -0.5927 -0.1397
39874SOL    HW123024   0.122   8.446   5.162 -0.2098 -0.4628  0.2532
39874SOL    HW223025   0.175   8.398   5.028 -3.3306  0.0426 -1.2459
39875SOL     OW23026   6.533   0.988   7.906  0.6987  0.3021 -0.2547
39875SOL    HW123027   6.563   1.068   7.947  0.8063 -0.1446  0.5443
39875SOL    HW223028   6.438   1.000   7.897  0.6186  0.2379  0.4846
39876SOL     OW23029   8.758   2.244   9.530  0.1702  0.2358  0.0180
39876SOL    HW123030   8.675   2.212   9.566 -1.1397  1.3738 -1.7995
39876SOL    HW223031   8.783   2.179   9.465  0.7795 -0.1530  0.6292
39877SOL     OW23032   9.491   3.634   8.340  0.0927 -0.1713  0.2375
39877SOL    HW123033   9.516   3.598   8.425  0.6259  0.2611  0.2698
39877SOL    HW223034   9.574   3.654   8.297 -0.1464 -1.2505 -0.7774
39878SOL     OW23035   3.051   0.399   3.870  0.1011 -0.1396  0.6394
39878SOL    HW123036   3.028   0.332   3.934 -1.7689 -0.3407 -0.1746
39878SOL    HW223037   2.968   0.437   3.844  0.6869 -0.5291 -2.1532
39879SOL     OW23038   1.698   5.044   0.305 -0.8422  0.0489  0.2785
39879SOL    HW123039   1.748   4.976   0.261 -0.1455  0.9622 -0.3951
39879SOL    HW223040   1.619   5.000   0.336  0.0504 -1.2732  0.7688
39880SOL     OW23041   2.880   5.928   0.364 -0.3955 -0.5316 -0.0760
39880SOL    HW123042   2.909   5.933   0.455  0.2829  0.2951 -0.3224
39880SOL    HW223043   2.789   5.957   0.367 -0.4668 -0.7905  0.3775
39881SOL     OW23044   6.012   9.087   0.845 -0.6170 -0.2582 -0.2194
39881SOL    HW123045   6.078   9.137   0.893 -0.9328 -0.2073  0.1754
39881SOL    HW223046   6.060   9.015   0.805 -0.2078  0.1817 -0.5256
39882SOL     OW23047   4.412   1.338   2.774  0.8916  0.5742  0.1330
39882SOL    HW123048   4.382   1.370   2.689  0.4477  0.5797  0.2844
39882SOL    HW223049   4.431   1.246   2.759 -1.9631 -0.2105  0.6471
39883SOL     OW23050  10.576   9.742   6.974  0.0315  0.1701 -0.0786
39883SOL    HW123051  10.496   9.790   6.994  0.4098  0.6295  0.3593
39883SOL    HW223052  10.600   9.771   6.886  0.3401  0.9058  0.2444
39884SOL     OW23053   5.948   9.780   9.398 -0.5070  0.9446  0.2956
39884SOL    HW123054   6.036   9.743   9.384 -0.4997  0.9904  0.2206
39884SOL    HW223055   5.934   9.773   9.493 -0.8801 -0.1094  0.1831
39885SOL     OW23056   5.231   9.272   0.937  0.1614  0.3269  0.6554
39885SOL    HW123057   5.302   9.225   0.981  0.3228  1.5927  1.8116
39885SOL    HW223058   5.275   9.329   0.874 -0.0715 -1.5307 -1.3179
39886SOL     OW23059   4.308   9.959   4.162 -0.3874  0.0463  0.0280
39886SOL    HW123060   4.311   9.863   4.160  2.5011 -0.0567  1.8043
39886SOL    HW223061   4.299   9.985   4.071 -0.6146 -1.9096 -0.5633
39887SOL     OW23062   8.755   9.854   0.081  0.6642  0.2047 -0.2298
39887SOL    HW123063   8.782   9.765   0.103 -2.5353 -0.9006 -0.2132
39887SOL    HW223064   8.711   9.846  -0.003  0.8812  1.9089 -0.5388
39888SOL     OW23065   9.916   3.987   2.085  0.3499  0.3136  0.2000
39888SOL    HW123066  10.002   4.010   2.052  1.3631 -2.0732  0.9495
39888SOL    HW223067   9.878   3.931   2.017  0.6068 -0.9595  1.0640
39889SOL     OW23068   4.780   5.671   0.909 -0.1164  0.2213 -0.1368
39889SOL    HW123069   4.703   5.637   0.955  0.7331  0.0182  1.1803
39889SOL    HW223070   4.779   5.625   0.825 -2.1697  1.2083 -0.7354
39890SOL     OW23071   9.699   5.798   2.813  0.0627 -0.3129 -0.5298
39890SOL    HW123072   9.622   5.743   2.830  0.4166 -0.3504  1.1089
39890SOL    HW223073   9.748   5.750   2.747  0.0440 -1.6721  0.4112
39891SOL     OW23074   5.632   9.774   2.721 -0.0363 -0.7087 -0.0907
39891SOL    HW123075   5.620   9.790   2.627  1.1990  0.5986 -0.0635
39891SOL    HW223076   5.594   9.850   2.764 -1.5317 -1.7888  0.5564
39892SOL     OW23077   2.607   3.656   9.431 -0.2661  0.2116  0.2571
39892SOL    HW123078   2.677   3.718   9.412  0.7794 -1.2464 -0.9278
39892SOL    HW223079   2.619   3.587   9.366 -0.4001 -2.0336  2.4762
39893SOL     OW23080   7.321   4.012   5.850 -0.2517  0.0222  0.7189
39893SOL    HW123081   7.278   4.087   5.810 -1.9516  0.4943  3.1588
39893SOL    HW223082   7.310   3.941   5.787  2.1130  1.8661 -2.0190
39894SOL     OW23083   3.687   9.141   2.854  0.2402  0.3461 -0.4345
39894SOL    HW123084   3.593   9.126   2.856  0.1042  1.1365 -0.2301
39894SOL    HW223085   3.710   9.164   2.944  0.6083  0.2499 -0.5010
39895SOL     OW23086   2.387   0.548  10.060 -0.0045  0.1425 -0.2295
39895SOL    HW123087   2.307   0.594  10.084 -0.9483 -0.9463 -1.1617
39895SOL    HW223088   2.357   0.477  10.003  1.6607 -0.0889 -0.8560
39896SOL     OW23089  10.221   6.145   3.168 -0.3740 -0.0680  0.0763
39896SOL    HW123090  10.282   6.132   3.241 -1.0717 -1.6623  0.4236
39896SOL    HW223091  10.212   6.058   3.129 -3.4129 -0.2331  0.8882
39897SOL     OW23092   7.043   1.622   7.899 -0.3660 -0.6526 -0.8600
39897SOL    HW123093   6.995   1.675   7.835  0.6461  0.0746 -1.0534
39897SOL    HW223094   7.134   1.625   7.868 -0.2235 -2.2269 -0.6778
39898SOL     OW23095   1.483  10.294   4.737  0.4219  0.3665  0.0823
39898SOL    HW123096   1.557  10.246   4.699  0.4091  0.7548 -0.4394
39898SOL    HW223097   1.418  10.226   4.755  1.1543 -0.0711  1.1665
39899SOL     OW23098   2.368  10.536   5.309 -0.0177 -0.5327  0.4599
39899SOL    HW123099   2.280  10.503   5.323 -0.2480 -0.6441 -1.0558
39899SOL    HW223100   2.378  10.537   5.214  1.2052  0.5625  0.5739
39900SOL     OW23101   3.606   3.707   4.059  0.0463 -0.2848 -0.3613
39900SOL    HW123102   3.628   3.725   3.967  0.3426 -0.0732 -0.2506
39900SOL    HW223103   3.683   3.735   4.108 -0.8078  1.2974  0.1181
39901SOL     OW23104   7.814   5.452   6.883 -0.0208 -0.8221 -0.1384
39901SOL    HW123105   7.780   5.535   6.850 -0.6645 -1.1878 -0.3947
39901SOL    HW223106   7.886   5.431   6.824 -0.5261 -0.9713 -0.7065
39902SOL     OW23107   0.502   6.839   6.314  0.0748  0.1908 -0.1804
39902SOL    HW123108   0.549   6.897   6.374  1.7845 -1.9019  0.6285
39902SOL    HW223109   0.502   6.754   6.358 -3.0392 -0.3398 -0.9523
39903SOL     OW23110   3.322   1.200  10.304 -0.1750 -0.4836 -0.2993
39903SOL    HW123111   3.374   1.122  10.324  1.9288  0.6778 -0.9461
39903SOL    HW223112   3.278   1.220  10.387  2.7021  0.0915  1.2433
39904SOL     OW23113  10.413   9.980   3.797 -0.1166  0.7189 -0.4363
39904SOL    HW123114  10.489   9.968   3.740  0.0411 -0.7974  0.0573
39904SOL    HW223115  10.446   9.965   3.885 -0.9683  0.0777 -0.2080
39905SOL     OW23116   6.883   9.339   0.843  0.0949 -0.0811 -0.2636
39905SOL    HW123117   6.841   9.405   0.898 -0.3468 -0.4788 -0.1127
39905SOL    HW223118   6.810   9.288   0.808  0.4745 -1.0869  0.3753
39906SOL     OW23119   5.923   6.338   6.043 -0.4593 -0.7692 -0.5885
39906SOL    HW123120   5.925   6.349   5.948 -1.6499  0.1314 -0.5409
39906SOL    HW223121   5.849   6.279   6.059 -0.8152 -0.2318 -0.1924
39907SOL     OW23122   9.785   5.315   4.595 -0.2773  0.1856  0.5484
39907SOL    HW123123   9.714   5.254   4.573 -0.1578  0.1246  0.3285
39907SOL    HW223124   9.845   5.310   4.520  0.1612 -0.0602  0.9092
39908SOL     OW23125   6.659   2.632  10.238  0.0193 -0.0262 -0.3405
39908SOL    HW123126   6.584   2.593  10.282  0.3973 -0.4401 -0.0508
39908SOL    HW223127   6.727   2.635  10.305  0.6405 -0.7688 -0.9166
39909SOL     OW23128   0.695   8.936   7.240 -0.1244 -0.3503  0.7714
39909SOL    HW123129   0.627   8.985   7.285 -1.5020 -1.4068 -0.0866
39909SOL    HW223130   0.693   8.967   7.149 -0.7665 -1.6727  0.3015
39910SOL     OW23131   7.366   3.252   4.835 -0.2292 -0.0982 -0.6780
39910SOL    HW123132   7.412   3.176   4.799 -3.2306 -1.0313 -2.9089
39910SOL    HW223133   7.349   3.308   4.759  0.4625  2.0864  0.6705
39911SOL     OW23134  10.264   4.526   8.699  0.4930 -0.3702 -0.1198
39911SOL    HW123135  10.221   4.605   8.666  3.0696  0.7667 -1.0150
39911SOL    HW223136  10.280   4.473   8.621  2.4249  0.1759 -0.1535
39912SOL     OW23137   4.221   3.281   7.331  0.4229 -0.2433  0.3394
39912SOL    HW123138   4.207   3.358   7.277  0.7639 -1.3979 -1.4960
39912SOL    HW223139   4.315   3.261   7.321  0.6881 -0.0384  2.0382
39913SOL     OW23140   6.219  10.077   3.665 -1.1345  0.0868  0.4448
39913SOL    HW123141   6.143  10.134   3.657 -1.4171 -0.1271  1.4965
39913SOL    HW223142   6.230  10.063   3.759  0.4026  0.3670  0.3359
39914SOL     OW23143   8.698   4.294   6.191 -0.2656  0.5340  0.1810
39914SOL    HW123144   8.664   4.337   6.269  1.0224 -0.7525  1.4961
39914SOL    HW223145   8.669   4.203   6.198  2.9456 -0.5484  1.1819
39915SOL     OW23146   1.836   6.984   8.384  0.0204 -0.0909  0.1128
39915SOL    HW123147   1.747   6.952   8.373  0.2128  0.0478 -2.3476
39915SOL    HW223148   1.828   7.080   8.379  0.2500 -0.0522  0.4362
39916SOL     OW23149   0.474   7.360  10.031 -0.5492 -0.0163 -0.2585
39916SOL    HW123150   0.397   7.383   9.979  0.2210  0.6760 -1.1251
39916SOL    HW223151   0.515   7.289   9.983  0.3668  0.8692 -0.8255
39917SOL     OW23152   5.231   2.988   1.927  0.0090 -0.2316  0.0579
39917SOL    HW123153   5.272   3.050   1.867 -0.3141  0.4747  0.5500
39917SOL    HW223154   5.295   2.977   1.998 -0.5084  0.6536  0.6845
39918SOL     OW23155   5.225   5.497   7.157 -0.4262  0.0328  0.8388
39918SOL    HW123156   5.248   5.406   7.137 -0.1281  0.4391 -0.7778
39918SOL    HW223157   5.167   5.523   7.085  0.3282  1.4383  0.7229
39919SOL     OW23158   1.816   9.381   4.674 -0.2277 -0.2575 -0.2073
39919SOL    HW123159   1.837   9.460   4.625 -1.7519  0.1536 -0.2506
39919SOL    HW223160   1.765   9.412   4.749 -1.6377 -1.2563 -0.7169
39920SOL     OW23161   0.514   7.659   6.846  0.2210 -0.1074 -0.3290
39920SOL    HW123162   0.563   7.691   6.770  1.0710  0.1761  0.3240
39920SOL    HW223163   0.422   7.678   6.824  0.6050  2.0761 -0.3486
39921SOL     OW23164   4.082   2.566   0.270 -0.2000  0.3294 -0.5480
39921SOL    HW123165   4.144   2.616   0.218  0.9428 -0.9743 -0.5089
39921SOL    HW223166   4.049   2.499   0.209  0.7695 -0.8913  0.2403
39922SOL     OW23167   1.274   4.450   3.730 -0.3673 -0.5117 -0.8009
39922SOL    HW123168   1.337   4.380   3.713 -2.0221 -1.9846 -1.1924
39922SOL    HW223169   1.202   4.407   3.774 -0.8306  1.2638  0.2560
39923SOL     OW23170   8.491   0.592   6.525  0.1251  0.2507 -0.1328
39923SOL    HW123171   8.579   0.586   6.487  0.6429  1.6457  0.7606
39923SOL    HW223172   8.503   0.562   6.616 -0.1070  1.3442  0.2676
39924SOL     OW23173   2.261  10.765   8.720 -0.6624 -0.4344  0.1019
39924SOL    HW123174   2.198  10.693   8.709 -0.4548 -0.6112  0.0728
39924SOL    HW223175   2.317  10.736   8.792 -1.0731  0.0499  0.6292
39925SOL     OW23176   8.791   6.094   7.560 -0.0332  0.1497  0.0729
39925SOL    HW123177   8.830   6.025   7.507 -0.7145 -1.8003  2.0027
39925SOL    HW223178   8.733   6.141   7.499  0.3153 -1.0634 -1.2386
39926SOL     OW23179   3.540   4.821   2.664 -0.0909  0.0564 -0.3699
39926SOL    HW123180   3.553   4.912   2.637 -2.5482 -0.0986 -2.5111
39926SOL    HW223181   3.544   4.771   2.582 -1.5131 -1.3732  0.3693
39927SOL     OW23182   0.233   1.774   2.527 -0.0880 -0.4330 -0.2095
39927SOL    HW123183   0.180   1.767   2.606  1.1507  0.0184  0.6841
39927SOL    HW223184   0.171   1.758   2.455 -1.5327  0.5231  0.7616
39928SOL     OW23185   2.162   9.795   9.911 -0.1389 -0.1083 -0.3634
39928SOL    HW123186   2.090   9.805   9.973 -0.7599 -0.7278 -0.9696
39928SOL    HW223187   2.223   9.735   9.955 -0.4684 -0.3653 -0.2536
39929SOL     OW23188  10.642   8.415   7.092  1.1023  0.4430 -0.3965
39929SOL    HW123189  10.707   8.479   7.122  0.5333  0.9387 -0.2012
39929SOL    HW223190  10.643   8.424   6.996  2.3936 -0.6244 -0.5172
39930SOL     OW23191   3.663   6.781   3.028  0.1902 -0.4386  0.0356
39930SOL    HW123192   3.743   6.788   3.080  0.4519 -0.2360 -0.3883
39930SOL    HW223193   3.683   6.717   2.961  0.3012  0.2611 -0.6096
39931SOL     OW23194   0.475   7.506   4.071  0.3094 -0.5663  0.1561
39931SOL    HW123195   0.398   7.464   4.110  1.0973 -0.8406  1.4550
39931SOL    HW223196   0.539   7.511   4.142  1.5050 -0.3476 -0.8960
39932SOL     OW23197   9.577   4.329   8.824  0.3227 -0.7596 -0.5327
39932SOL    HW123198   9.666   4.293   8.825  0.9052  0.5851  1.8957
39932SOL    HW223199   9.521   4.253   8.843  1.2789 -1.0085  1.5308
39933SOL     OW23200   1.520   5.500   9.280  0.3141  0.1845 -0.4815
39933SOL    HW123201   1.512   5.497   9.185  0.7075 -1.3043 -0.4863
39933SOL    HW223202   1.607   5.539   9.295 -0.0894  1.2044 -0.6936
39934SOL     OW23203   0.483   0.150   5.554  1.0079  0.1127  0.1378
39934SOL    HW123204   0.508   0.112   5.470 -0.6931  0.0501 -0.3842
39934SOL    HW223205   0.470   0.243   5.535 -0.3391 -0.0692  0.0686
39935SOL     OW23206   2.143   2.517   1.548  0.2418  0.1403  0.0707
39935SOL    HW123207   2.130   2.499   1.642  0.9011  1.8613  0.5172
39935SOL    HW223208   2.179   2.605   1.545 -0.9989  0.6306 -1.9022
39936SOL     OW23209   9.949   2.673  10.741 -0.4110 -0.2523 -0.4634
39936SOL    HW123210   9.887   2.690  10.669 -0.3137  0.8142 -0.3204
39936SOL    HW223211  10.002   2.600  10.710 -1.9006 -1.3878 -0.4790
39937SOL     OW23212   7.704   1.210   5.683 -0.0908  0.6043  0.4417
39937SOL    HW123213   7.650   1.195   5.605 -0.7836  0.8058  0.8719
39937SOL    HW223214   7.676   1.141   5.744  0.6541  0.2669  0.4065
39938SOL     OW23215   9.702   3.711   5.441  0.0283 -0.2538 -0.7803
39938SOL    HW123216   9.696   3.647   5.511  1.3339  1.3169  0.8762
39938SOL    HW223217   9.732   3.661   5.365  0.5635 -1.6663  0.3150
39939SOL     OW23218   8.074   5.383   9.067 -0.1908 -0.7278 -0.1651
39939SOL    HW123219   8.168   5.385   9.086 -0.0448 -2.1085 -0.6077
39939SOL    HW223220   8.034   5.352   9.148 -0.2857  0.0727  0.0935
39940SOL     OW23221   1.048   2.787   7.196 -0.1466  0.8112  0.5056
39940SOL    HW123222   1.008   2.858   7.246  0.4717  0.4767  1.4962
39940SOL    HW223223   0.987   2.772   7.123 -1.4581  0.7814  1.5752
39941SOL     OW23224   6.397   0.354   3.152  0.4098  0.0416  0.5306
39941SOL    HW123225   6.464   0.292   3.125  0.1870  0.0064  0.0639
39941SOL    HW223226   6.326   0.299   3.186  0.1689  0.0372  0.0195
39942SOL     OW23227   9.612  10.286   7.873 -0.7030 -0.0033  0.0097
39942SOL    HW123228   9.659  10.242   7.802  0.1229  1.1018 -0.1504
39942SOL    HW223229   9.554  10.348   7.829 -0.9145 -0.0118  0.2733
39943SOL     OW23230   7.958  10.850   7.434 -0.0543 -0.1618 -0.7061
39943SOL    HW123231   8.022  10.912   7.397  1.7024 -1.2521  0.3414
39943SOL    HW223232   7.939  10.790   7.362  1.8503 -1.1168 -0.4777
39944SOL     OW23233   0.990   4.061   0.032 -0.3280 -0.4082 -0.1417
39944SOL    HW123234   1.083   4.048   0.014 -0.1449  0.2158  0.3471
39944SOL    HW223235   0.986   4.138   0.088 -1.2247  0.2550 -1.0723
39945SOL     OW23236   8.953   8.106   0.831  0.4375  0.4965  0.1755
39945SOL    HW123237   9.012   8.167   0.876  1.2811  0.0875 -0.3693
39945SOL    HW223238   8.954   8.135   0.740 -0.7966  0.9448  0.2791
39946SOL     OW23239   2.538   5.583   8.123  0.1873 -0.0511  0.0011
39946SOL    HW123240   2.532   5.678   8.108  0.5548 -0.1067 -0.5205
39946SOL    HW223241   2.483   5.568   8.200  0.6059  0.6791  0.4591
39947SOL     OW23242   5.466   8.034   4.513  0.0825 -0.1203 -0.0351
39947SOL    HW123243   5.525   8.038   4.438  0.6623  0.6593  0.4441
39947SOL    HW223244   5.480   7.946   4.550  1.3657  0.2248  0.3799
39948SOL     OW23245   9.482   0.113   8.255  0.4854  0.3679  0.3140
39948SOL    HW123246   9.504   0.152   8.339  0.9516 -2.8901  1.8904
39948SOL    HW223247   9.391   0.084   8.265  0.7606 -0.6602 -0.0134
39949SOL     OW23248   2.496   5.950   2.017 -0.4429 -0.2869 -0.3620
39949SOL    HW123249   2.544   5.989   1.944 -0.3830  0.1313 -0.1007
39949SOL    HW223250   2.545   5.976   2.095 -0.2550 -1.0957 -0.1978
39950SOL     OW23251   7.704   3.083   3.817  0.0946 -0.3535  0.8462
39950SOL    HW123252   7.669   3.127   3.894 -1.2626  1.3069 -0.6298
39950SOL    HW223253   7.701   3.149   3.748  2.3346 -1.4267 -0.3965
39951SOL     OW23254   2.416   6.204   4.659  0.3621 -0.2194  0.0520
39951SOL    HW123255   2.418   6.128   4.718 -3.6915  1.1512  2.3504
39951SOL    HW223256   2.492   6.256   4.685  0.6337 -1.3080  1.6421
39952SOL     OW23257   0.900   2.191   0.132 -0.3431 -0.0728 -0.0186
39952SOL    HW123258   0.996   2.192   0.137 -0.2950  3.3877  0.9326
39952SOL    HW223259   0.881   2.175   0.040  1.2093  0.5234 -0.4780
39953SOL     OW23260   8.194   4.564   7.829  0.0855  0.2568  0.0323
39953SOL    HW123261   8.165   4.555   7.738  0.1762 -1.0797  0.1158
39953SOL    HW223262   8.274   4.617   7.823 -0.9324  1.8274 -0.4442
39954SOL     OW23263   7.648   7.441   0.309  0.4727 -0.0212  0.0511
39954SOL    HW123264   7.687   7.516   0.265 -0.8178 -0.4318 -1.9582
39954SOL    HW223265   7.628   7.379   0.238  0.8989 -2.0096  1.5535
39955SOL     OW23266   0.474   8.219   4.344 -0.3943  0.3859  0.2739
39955SOL    HW123267   0.546   8.263   4.389  0.9690 -0.4712 -0.9529
39955SOL    HW223268   0.488   8.126   4.362 -0.1730  0.0729 -1.3085
39956SOL     OW23269   9.841   5.654   9.925 -0.1376  0.0225 -0.2779
39956SOL    HW123270   9.924   5.650   9.878 -0.5190 -0.6108 -0.9124
39956SOL    HW223271   9.865   5.639  10.017  0.4630  0.0239 -0.4311
39957SOL     OW23272   6.700   5.552  10.773 -0.0221 -0.0644 -0.1313
39957SOL    HW123273   6.729   5.537  10.863  2.0787 -1.1234 -0.9279
39957SOL    HW223274   6.648   5.474  10.752  0.0110 -0.1067 -0.0586
39958SOL     OW23275  10.256   3.319   3.639 -0.0929 -0.0810  0.1028
39958SOL    HW123276  10.279   3.338   3.730  1.5080 -1.9336  0.1645
39958SOL    HW223277  10.208   3.396   3.610 -0.1253  0.8258  2.3266
39959SOL     OW23278   9.385   5.321   9.940  0.1488 -0.6429 -0.4487
39959SOL    HW123279   9.455   5.379   9.910  0.2902 -0.2858  0.5545
39959SOL    HW223280   9.308   5.377   9.945  0.2198 -0.5979  0.2443
39960SOL     OW23281   8.388   6.494   9.283  0.0525 -0.5603  0.7935
39960SOL    HW123282   8.451   6.460   9.346  2.9064 -0.4824 -1.7801
39960SOL    HW223283   8.386   6.428   9.213 -0.5668  0.7714 -0.5011
39961SOL     OW23284   4.249   3.008   1.189  0.2961 -0.0226  0.2766
39961SOL    HW123285   4.275   3.072   1.255  0.7855  1.4149 -1.2193
39961SOL    HW223286   4.318   2.942   1.191  0.3000  0.0042  1.1898
39962SOL     OW23287   4.188   2.511   4.419 -0.1124  0.1031 -0.0288
39962SOL    HW123288   4.156   2.595   4.386  1.6555 -0.1845 -2.7705
39962SOL    HW223289   4.161   2.447   4.353  0.3392 -1.1678  0.9752
39963SOL     OW23290   1.940   9.672   1.089 -0.0605  0.5937 -0.3730
39963SOL    HW123291   1.886   9.607   1.044  0.1301  0.4772 -0.4341
39963SOL    HW223292   1.888   9.752   1.087 -2.5083 -0.5403  3.7411
39964SOL     OW23293   8.699   0.797   4.824  0.0620 -0.0201 -0.0191
39964SOL    HW123294   8.785   0.773   4.790  0.3404  1.3620 -0.3304
39964SOL    HW223295   8.645   0.719   4.810  0.9066 -0.4313 -1.0712
39965SOL     OW23296   0.184   3.142   7.018 -0.2075 -0.1229 -0.2596
39965SOL    HW123297   0.265   3.184   7.045 -0.4763  0.5600 -0.4840
39965SOL    HW223298   0.212   3.066   6.968  0.2886 -0.5463  0.6438
39966SOL     OW23299   1.369   1.092   7.084 -0.4734  0.4912 -0.3560
39966SOL    HW123300   1.425   1.119   7.011 -1.4418  0.7338 -1.0197
39966SOL    HW223301   1.280   1.108   7.054 -1.0013 -1.2902  0.0999
39967SOL     OW23302   2.963   6.188  10.324 -0.0133 -0.6124  0.1260
39967SOL    HW123303   2.880   6.190  10.277  0.2018 -0.3471 -0.2500
39967SOL    HW223304   2.968   6.272  10.368 -0.3315 -0.9589  0.8432
39968SOL     OW23305   4.004   9.611   8.668  0.0721 -0.2938 -0.8644
39968SOL    HW123306   4.033   9.702   8.656 -0.5019  0.2421  1.3500
39968SOL    HW223307   4.075   9.558   8.632  1.1747  1.0297 -0.7333
39969SOL     OW23308   3.368   1.632   8.420  0.3901 -0.2473  0.2470
39969SOL    HW123309   3.319   1.551   8.433  1.7991 -1.0068  1.1293
39969SOL    HW223310   3.319   1.698   8.470 -1.4595 -0.2138 -1.4898
39970SOL     OW23311   7.181   5.130   0.641 -0.1543  0.0567 -0.4582
39970SOL    HW123312   7.246   5.060   0.644  1.4576  1.5387  1.2103
39970SOL    HW223313   7.183   5.161   0.551  1.5813  0.1294 -0.4303
39971SOL     OW23314   8.223   1.669   4.341 -0.0972 -0.4112 -0.1052
39971SOL    HW123315   8.177   1.669   4.425  0.2445  1.1594  0.1019
39971SOL    HW223316   8.154   1.651   4.277 -0.7239  0.3656  0.3359
39972SOL     OW23317   4.595   3.434   9.990  0.4196 -0.1425  0.4441
39972SOL    HW123318   4.524   3.402   9.934  0.7961 -1.3650  0.6508
39972SOL    HW223319   4.671   3.440   9.933  0.4427  0.0557  0.4913
39973SOL     OW23320   2.363   1.797   5.376 -0.0899 -0.5233 -0.7980
39973SOL    HW123321   2.451   1.782   5.411 -0.0448 -1.5973 -1.3428
39973SOL    HW223322   2.309   1.729   5.417 -0.7474  0.3428 -0.2011
39974SOL     OW23323   5.259   3.852   8.614 -0.4020 -0.4128 -0.0325
39974SOL    HW123324   5.318   3.860   8.689 -1.0950  0.2100  0.4715
39974SOL    HW223325   5.220   3.765   8.624  1.1000 -1.2195 -0.8992
39975SOL     OW23326   7.409   0.897   9.124  0.2750  0.1252 -0.6024
39975SOL    HW123327   7.360   0.893   9.206  2.1067  0.2004  0.5645
39975SOL    HW223328   7.412   0.807   9.093  1.3804 -0.2785  0.5852
39976SOL     OW23329   7.236   9.185  10.005  0.2936 -0.1850  0.1998
39976SOL    HW123330   7.310   9.234  10.039 -0.9979  0.9643  1.4691
39976SOL    HW223331   7.200   9.139  10.080  0.1245 -1.3164 -0.5424
39977SOL     OW23332   8.248  10.432   6.419  0.1003  0.5857  0.0944
39977SOL    HW123333   8.213  10.474   6.497 -0.3302 -0.6483  0.5991
39977SOL    HW223334   8.288  10.503   6.369  1.3705  1.2555  1.9477
39978SOL     OW23335   9.659   7.951   6.338  0.4286 -0.2483  0.2548
39978SOL    HW123336   9.701   8.037   6.329  0.5758 -0.2804  0.6041
39978SOL    HW223337   9.606   7.942   6.259  1.0001 -0.1678 -0.1432
39979SOL     OW23338   7.989   3.556   1.960 -0.2080 -0.4318 -0.3538
39979SOL    HW123339   8.076   3.563   1.920  0.2126 -0.6769  0.4848
39979SOL    HW223340   8.006   3.520   2.047 -1.0188  0.7999  0.3401
39980SOL     OW23341  10.649   0.692   0.479  0.2215 -0.6653 -0.4114
39980SOL    HW123342  10.638   0.598   0.494 -0.3370 -0.3759  1.2658
39980SOL    HW223343  10.635   0.703   0.385 -1.9406 -1.9917 -0.3175
39981SOL     OW23344   1.423   3.484   7.134  0.3615  0.0746 -0.5838
39981SOL    HW123345   1.390   3.509   7.048  0.3048  0.2647 -0.5070
39981SOL    HW223346   1.344   3.471   7.187  0.4100  1.3386 -0.1676
39982SOL     OW23347   4.543   7.468   5.864  0.5435 -1.0268  0.4981
39982SOL    HW123348   4.472   7.404   5.868  0.0121 -0.4298  1.0257
39982SOL    HW223349   4.514   7.531   5.797 -0.2725  0.1445  1.8678
39983SOL     OW23350   2.487   8.827  10.392  0.2685  0.2222  0.0555
39983SOL    HW123351   2.514   8.759  10.330  0.4393 -2.7131  3.0373
39983SOL    HW223352   2.422   8.783  10.448 -1.4418  3.3319  0.7194
39984SOL     OW23353   4.686   3.374   5.821 -0.2745 -0.7074  0.3209
39984SOL    HW123354   4.761   3.419   5.782 -0.8295  0.0959  0.1585
39984SOL    HW223355   4.669   3.421   5.903  0.0010 -1.4947  0.8323
39985SOL     OW23356  10.460   0.366   1.254 -0.4400 -0.3739 -0.4255
39985SOL    HW123357  10.501   0.318   1.326  1.1242  1.1476 -0.2363
39985SOL    HW223358  10.524   0.433   1.230 -1.9112  0.6737 -1.6453
39986SOL     OW23359   1.022   8.789   7.005 -0.2102 -0.3005 -0.2056
39986SOL    HW123360   0.996   8.814   7.093 -0.2231  0.0182 -0.3002
39986SOL    HW223361   1.064   8.704   7.016  1.4684  0.5598  0.3762
39987SOL     OW23362   2.785   2.846   3.896  0.1625  0.4340 -0.6366
39987SOL    HW123363   2.842   2.851   3.819  0.2756 -1.9957 -0.7939
39987SOL    HW223364   2.842   2.864   3.970  1.0020 -1.1640 -0.8596
39988SOL     OW23365   4.496   2.191   1.623 -0.1048  0.0684 -0.6850
39988SOL    HW123366   4.576   2.158   1.584 -0.6734 -2.5875  0.1780
39988SOL    HW223367   4.506   2.175   1.717 -1.2829  0.4684 -0.4703
39989SOL     OW23368   4.358   5.778   6.224 -0.0645 -0.0232 -0.1997
39989SOL    HW123369   4.318   5.789   6.138  0.5560 -0.0076 -0.4948
39989SOL    HW223370   4.291   5.806   6.286 -0.2664  0.6718 -0.7136
39990SOL     OW23371   4.870   3.785   8.767  0.5059 -0.4358 -0.3472
39990SOL    HW123372   4.785   3.746   8.749  0.4674 -1.4301  1.6568
39990SOL    HW223373   4.933   3.715   8.751  0.8043 -0.1710 -0.3497
39991SOL     OW23374   4.907   6.839   4.139  0.1850 -0.1906 -0.2236
39991SOL    HW123375   4.980   6.897   4.161  0.6505 -0.6073 -0.6403
39991SOL    HW223376   4.918   6.763   4.197 -0.7442  0.3677  0.7172
39992SOL     OW23377   4.017  10.645   9.148  0.0474 -0.6047  0.0013
39992SOL    HW123378   4.036  10.574   9.086 -0.3859 -1.1999  0.5313
39992SOL    HW223379   4.020  10.603   9.234 -0.2920  0.0016  0.3154
39993SOL     OW23380   0.251   3.982   9.295  1.1337 -0.6329 -1.2070
39993SOL    HW123381   0.243   4.012   9.205  1.4936  0.6679 -0.8252
39993SOL    HW223382   0.319   4.037   9.333 -0.1799  0.0297  0.3253
39994SOL     OW23383   5.870   4.453   5.408  0.0333 -0.1018  0.1201
39994SOL    HW123384   5.880   4.425   5.316 -0.4411 -1.1500  0.3657
39994SOL    HW223385   5.959   4.459   5.441  0.2224  0.5827 -0.4932
39995SOL     OW23386   4.163   1.528   7.678 -0.2746 -0.2858 -0.1337
39995SOL    HW123387   4.170   1.554   7.770 -0.1398 -1.3167  0.1543
39995SOL    HW223388   4.076   1.489   7.670 -0.7087  0.7349 -0.7044
39996SOL     OW23389   5.508   3.212   2.967 -0.0672  0.2946  0.0914
39996SOL    HW123390   5.463   3.282   3.014 -1.0368  0.0252 -0.4191
39996SOL    HW223391   5.505   3.137   3.027 -1.4047 -0.0826 -0.4147
39997SOL     OW23392   3.831  10.203   0.480 -0.3417  0.4730 -0.3036
39997SOL    HW123393   3.837  10.232   0.389  1.0057  0.3643 -0.2771
39997SOL    HW223394   3.827  10.107   0.474 -3.4468  0.5101 -0.3362
39998SOL     OW23395   3.369   6.852   2.690 -0.3853  0.1931 -1.0282
39998SOL    HW123396   3.314   6.847   2.611 -1.6405  1.4285 -0.2712
39998SOL    HW223397   3.384   6.945   2.703  3.2400 -0.0899 -2.0456
39999SOL     OW23398   6.316   7.057   2.593 -0.8185  0.0173  0.1057
39999SOL    HW123399   6.271   7.111   2.659 -0.2761  0.1239  0.3898
39999SOL    HW223400   6.299   7.102   2.510 -1.2652  0.0384  0.2062
40000SOL     OW23401   4.168   1.565   1.650 -0.0988  0.3877 -0.2201
40000SOL    HW123402   4.074   1.558   1.639 -0.3096 -0.8598  1.8576
40000SOL    HW223403   4.205   1.504   1.585 -0.9102 -1.5521  1.0568
40001SOL     OW23404   6.135   7.513   8.546 -0.0428 -0.3986 -0.2718
40001SOL    HW123405   6.071   7.568   8.502  0.4249  1.4891  1.3181
40001SOL    HW223406   6.100   7.424   8.538 -1.8391  0.3488 -1.1086
40002SOL     OW23407   9.555   9.633   8.319  0.1638  0.0162  0.0749
40002SOL    HW123408   9.473   9.649   8.366  0.7243  1.3599  0.6630
40002SOL    HW223409   9.529   9.590   8.238 -1.1518  0.7219  0.1029
40003SOL     OW23410   3.382   6.430   8.559  0.0495 -0.0304  0.5282
40003SOL    HW123411   3.317   6.362   8.578 -0.9501  1.3701  2.5322
40003SOL    HW223412   3.451   6.385   8.512 -0.3636 -2.5491  2.1696
40004SOL     OW23413   8.095   5.696   9.255  0.2828  0.6747 -0.1147
40004SOL    HW123414   8.080   5.790   9.265  2.7627  1.3990 -2.1175
40004SOL    HW223415   8.146   5.688   9.174  0.8998 -2.3180  0.4359
40005SOL     OW23416   1.182   3.375   4.292  0.1356  1.1749  0.3032
40005SOL    HW123417   1.265   3.363   4.338  1.2091 -1.1227 -1.9915
40005SOL    HW223418   1.168   3.293   4.245 -3.3468  1.5720  0.3560
40006SOL     OW23419   0.453   5.747  10.118  0.0466 -0.2441 -0.0048
40006SOL    HW123420   0.374   5.800  10.129 -0.8169 -1.1938 -1.3194
40006SOL    HW223421   0.420   5.659  10.100  1.4358 -1.1056  1.3719
40007SOL     OW23422   8.273   6.100   8.036 -0.1251  0.3267 -0.3549
40007SOL    HW123423   8.343   6.155   8.071  1.1091 -2.3523  1.8038
40007SOL    HW223424   8.193   6.136   8.074  0.3073  2.0940 -1.0381
40008SOL     OW23425   0.165   7.021   5.173  0.1842 -0.3483 -0.9773
40008SOL    HW123426   0.075   7.046   5.153  0.2355  2.1410  1.2803
40008SOL    HW223427   0.213   7.104   5.176  1.7627 -1.2318  1.3037
40009SOL     OW23428   7.836  10.443   7.972  0.4236  0.1080 -0.0873
40009SOL    HW123429   7.888  10.397   8.039 -0.4835 -0.5438  0.1923
40009SOL    HW223430   7.859  10.399   7.890  0.7678  0.2293 -0.0581
40010SOL     OW23431   5.007   6.502   4.087  0.4916 -0.1975  0.2361
40010SOL    HW123432   5.072   6.566   4.058  0.1076 -0.6156 -1.6620
40010SOL    HW223433   5.048   6.457   4.161  1.8470  0.4089 -0.1318
40011SOL     OW23434   5.923   4.035   6.696 -0.6455  0.6464  0.0950
40011SOL    HW123435   5.878   3.953   6.673  0.1730  0.1999  0.0486
40011SOL    HW223436   5.938   4.029   6.790  0.4970  0.1717 -0.0976
40012SOL     OW23437   3.133   4.936   6.661  0.1842 -0.0230  0.0924
40012SOL    HW123438   3.080   4.937   6.740 -1.1320 -1.2106 -0.7443
40012SOL    HW223439   3.087   4.993   6.600 -0.3785 -1.3724 -0.7769
40013SOL     OW23440   5.810   0.930   7.770 -0.4407  0.2615  0.1332
40013SOL    HW123441   5.745   0.992   7.737  0.5017  0.5545 -1.2736
40013SOL    HW223442   5.892   0.981   7.773  0.0959 -0.5861  0.1240
40014SOL     OW23443   9.443   3.219   4.066 -0.2197  0.6751 -0.3748
40014SOL    HW123444   9.529   3.178   4.069 -0.5948 -0.1127 -0.1127
40014SOL    HW223445   9.436   3.255   3.978 -0.1716 -0.4879 -0.8776
40015SOL     OW23446   5.540  10.462   6.258  0.6211  0.2009 -0.1857
40015SOL    HW123447   5.564  10.521   6.185 -1.4730  0.7133 -0.5220
40015SOL    HW223448   5.471  10.406   6.222 -1.1988  1.1346  1.6313
40016SOL     OW23449   8.822   4.859   9.169 -0.3467 -0.4294  0.7755
40016SOL    HW123450   8.807   4.824   9.257 -0.3256  0.3605  1.1048
40016SOL    HW223451   8.846   4.950   9.184 -0.5104 -0.2436 -0.0649
40017SOL     OW23452   0.241   9.523   7.510 -0.1262 -0.4972 -0.1830
40017SOL    HW123453   0.202   9.541   7.424  0.3398  2.3149  0.1160
40017SOL    HW223454   0.271   9.432   7.503  2.1348  0.2830 -3.9530
40018SOL     OW23455  10.310  10.632   4.649 -0.4108  0.2801  0.0327
40018SOL    HW123456  10.402  10.653   4.633 -0.4089  0.0863 -0.2296
40018SOL    HW223457  10.272  10.626   4.561 -0.4835 -0.4864  0.1102
40019SOL     OW23458   9.497   4.807   7.727 -0.0799 -0.5528 -0.0105
40019SOL    HW123459   9.528   4.823   7.816 -0.3012 -0.6603  0.0892
40019SOL    HW223460   9.547   4.731   7.697  0.6348  0.0288 -0.3119
40020SOL     OW23461   9.209   4.371   5.028  0.3829  0.1585 -0.2039
40020SOL    HW123462   9.141   4.438   5.026 -0.4534 -0.5159  2.3349
40020SOL    HW223463   9.290   4.419   5.043  0.0559  0.7454 -0.2894
40021SOL     OW23464   8.844   1.299   7.933 -0.2841 -0.0796  0.3027
40021SOL    HW123465   8.833   1.232   8.000 -1.9113 -0.2418 -0.0661
40021SOL    HW223466   8.777   1.278   7.867  1.0036  0.3102 -1.1788
40022SOL     OW23467   1.896   4.234   6.943 -0.6973  0.1581  0.2346
40022SOL    HW123468   1.803   4.250   6.931 -1.2273 -1.4952  1.6577
40022SOL    HW223469   1.912   4.253   7.035  0.6791  1.5925 -0.2568
40023SOL     OW23470   0.988   0.878  10.073  0.0865  0.0642  0.4460
40023SOL    HW123471   1.067   0.858  10.022 -0.9316 -0.8398 -0.8369
40023SOL    HW223472   0.974   0.799  10.126  0.4602  0.5302  1.2579
40024SOL     OW23473   4.615   9.404   3.760  0.1931  0.7851 -0.3096
40024SOL    HW123474   4.649   9.329   3.710 -1.0679 -0.3289  0.4278
40024SOL    HW223475   4.667   9.404   3.840 -1.0698 -0.5557  0.5579
40025SOL     OW23476   2.718   3.129  10.326  0.2022  0.0392 -0.2314
40025SOL    HW123477   2.706   3.086  10.411 -1.0743  0.9988  0.1067
40025SOL    HW223478   2.713   3.222  10.345  2.5804  0.3807 -1.0172
40026SOL     OW23479   7.417   4.568   8.842 -0.3132  0.4787 -0.0287
40026SOL    HW123480   7.411   4.569   8.747 -0.4031 -0.9730 -0.0588
40026SOL    HW223481   7.326   4.579   8.871 -0.1589  2.0777 -0.0653
40027SOL     OW23482   4.180   5.397   2.652 -0.2967  0.3831  0.8604
40027SOL    HW123483   4.210   5.308   2.670  0.4743  0.4216 -0.1578
40027SOL    HW223484   4.103   5.408   2.708  0.0138 -0.6699  1.5254
40028SOL     OW23485   1.670   4.691  10.733  0.0977  0.4427  0.1112
40028SOL    HW123486   1.688   4.609  10.780  0.8230  0.4867 -0.0720
40028SOL    HW223487   1.709   4.678  10.647  0.2111  0.9798  0.0803
40029SOL     OW23488   8.692   7.160   2.984 -0.2038 -0.1325  0.0506
40029SOL    HW123489   8.712   7.160   2.890 -0.8205 -1.4661 -0.1086
40029SOL    HW223490   8.737   7.237   3.019 -0.6325  0.8471 -1.4776
40030SOL     OW23491   8.097   7.448   4.165  0.2608 -0.6037  0.5064
40030SOL    HW123492   8.183   7.412   4.186  1.3056  1.7926  0.5387
40030SOL    HW223493   8.108   7.493   4.082 -0.8643  0.1072  0.7158
40031SOL     OW23494   6.342   9.543   3.933 -0.0111  0.1696  0.2748
40031SOL    HW123495   6.284   9.562   4.006  0.1971  1.3713  0.1403
40031SOL    HW223496   6.291   9.567   3.855  0.7589  1.5872  0.1694
40032SOL     OW23497   7.870  10.056   2.619  0.0354  0.0116 -0.0086
40032SOL    HW123498   7.913  10.106   2.551  0.0213  0.0105 -0.0180
40032SOL    HW223499   7.913  10.082   2.700  0.8812 -0.8877 -0.1487
40033SOL     OW23500   8.010   2.170   5.161 -0.4736 -0.5511  0.2422
40033SOL    HW123501   7.997   2.264   5.172 -0.4374 -0.5093 -0.0559
40033SOL    HW223502   7.929   2.139   5.119  0.0137 -0.4371 -0.8112
40034SOL     OW23503   0.540   5.415   4.004  0.4841 -0.2689 -0.5588
40034SOL    HW123504   0.568   5.329   3.974 -0.3575 -0.3476 -1.1745
40034SOL    HW223505   0.467   5.438   3.945  0.0003  0.3906  0.2724
40035SOL     OW23506   8.161   2.232   0.834 -0.2137 -0.0478 -0.0620
40035SOL    HW123507   8.119   2.311   0.799 -1.2810  0.1099  1.4927
40035SOL    HW223508   8.245   2.263   0.868 -0.8573  0.5671  1.0362
40036SOL     OW23509   2.382  10.723   3.193 -0.3647 -0.5361 -0.3451
40036SOL    HW123510   2.443  10.794   3.175 -0.4011 -0.5054 -0.3454
40036SOL    HW223511   2.296  10.764   3.195 -0.2366 -0.2611  1.3570
40037SOL     OW23512   2.311   8.679   4.397 -0.4489  0.2757  0.7265
40037SOL    HW123513   2.274   8.596   4.367 -1.5993  1.0449 -0.0288
40037SOL    HW223514   2.338   8.661   4.487  2.5735 -1.9214 -0.4269
40038SOL     OW23515   4.085   1.983   6.995 -0.3050 -0.0058 -0.9259
40038SOL    HW123516   4.160   2.036   7.022 -0.8436  0.6813 -0.7496
40038SOL    HW223517   4.084   1.910   7.057  0.7497 -0.5142 -1.4929
40039SOL     OW23518   4.801   4.584   5.166  0.2248 -0.3289 -0.4443
40039SOL    HW123519   4.793   4.593   5.260 -0.0645  0.2028 -0.5181
40039SOL    HW223520   4.855   4.658   5.138  0.4636 -0.5844 -0.6779
40040SOL     OW23521   1.271   0.788   2.675  0.4722 -0.3106 -0.1727
40040SOL    HW123522   1.234   0.790   2.763 -1.4028  0.0911 -0.9254
40040SOL    HW223523   1.274   0.695   2.653  3.1508 -0.6375  1.1158
40041SOL     OW23524   0.489   4.694   6.532  0.0365  0.5485  0.3554
40041SOL    HW123525   0.449   4.610   6.509 -0.7872  0.5652  1.6318
40041SOL    HW223526   0.582   4.673   6.543  0.4033  0.4494 -2.3327
40042SOL     OW23527   7.649   0.052   7.111  0.4266  0.4841 -0.0287
40042SOL    HW123528   7.719   0.063   7.047  1.4341 -1.7184  0.5932
40042SOL    HW223529   7.658  -0.038   7.141 -2.1488  0.4035  0.7417
40043SOL     OW23530   0.350   6.874   3.460 -0.1911 -0.1804  0.1575
40043SOL    HW123531   0.400   6.913   3.532  0.9124  0.1693 -0.7776
40043SOL    HW223532   0.265   6.918   3.464  0.6050  1.4466 -0.0947
40044SOL     OW23533   4.461   8.310   8.996  0.4643  0.6063  0.3803
40044SOL    HW123534   4.369   8.292   9.015  0.5647 -0.8602 -0.3763
40044SOL    HW223535   4.464   8.319   8.901  1.2806 -0.6175  0.2711
40045SOL     OW23536   1.672   2.549   5.217  0.2892 -0.8590 -0.1732
40045SOL    HW123537   1.743   2.490   5.243  1.0286 -0.2096 -0.6630
40045SOL    HW223538   1.649   2.596   5.297  2.2669  0.8411 -0.5310
40046SOL     OW23539   6.174   5.025   0.927  0.4320 -0.0205 -0.1274
40046SOL    HW123540   6.157   4.944   0.880 -0.2634 -0.4240  0.7882
40046SOL    HW223541   6.088   5.056   0.954  0.4943  2.0037 -1.9920
40047SOL     OW23542   0.836   2.436   1.221 -0.1142  0.3793 -0.1325
40047SOL    HW123543   0.872   2.349   1.236 -1.6532 -0.4747 -1.1805
40047SOL    HW223544   0.886   2.470   1.146  1.1185  0.8281  0.8430
40048SOL     OW23545   6.338   0.433   4.147  0.1751  0.5512 -0.2278
40048SOL    HW123546   6.261   0.441   4.204  0.9140  0.3124  0.8336
40048SOL    HW223547   6.409   0.411   4.206  1.1110  0.9564 -1.1730
40049SOL     OW23548   4.340   2.998   8.100 -0.0186 -0.3424 -0.1057
40049SOL    HW123549   4.366   3.023   8.189 -0.4484 -1.8769  0.4842
40049SOL    HW223550   4.371   2.907   8.091  1.4578  0.2982 -2.1283
40050SOL     OW23551   0.050   0.788  10.104 -0.1491  0.1291  0.5384
40050SOL    HW123552   0.005   0.841  10.038  2.0269  0.5477 -0.6945
40050SOL    HW223553   0.051   0.700  10.067 -0.8656 -0.1097  1.0654
40051SOL     OW23554   9.935   5.895  10.326 -0.3871 -0.3020 -0.1046
40051SOL    HW123555   9.902   5.894  10.237 -0.2716 -0.2345 -0.1483
40051SOL    HW223556   9.910   5.810  10.363 -2.5135  0.5454  0.5531
40052SOL     OW23557   4.348   0.868   2.418  0.5105 -0.0461  0.3959
40052SOL    HW123558   4.370   0.779   2.445 -2.2247 -0.3350  2.0823
40052SOL    HW223559   4.290   0.855   2.342 -3.5285 -0.1693  3.1932
40053SOL     OW23560   6.860   1.458  10.064  0.2416 -0.5867 -0.1689
40053SOL    HW123561   6.924   1.456  10.135 -0.7815  1.1682  0.9061
40053SOL    HW223562   6.898   1.518   9.999 -0.1066  0.1583  0.2968
40054SOL     OW23563  10.228   9.562   0.629  0.2699 -0.3762  0.2192
40054SOL    HW123564  10.238   9.527   0.541 -0.3990  0.3235 -0.1504
40054SOL    HW223565  10.262   9.493   0.687  0.1964 -1.0710 -0.5487
40055SOL     OW23566   0.510   5.163  10.216  0.0901 -0.3405 -0.1554
40055SOL    HW123567   0.487   5.256  10.217  0.8199 -0.1022  2.6064
40055SOL    HW223568   0.605   5.161  10.204 -0.1273 -0.8487 -1.9942
40056SOL     OW23569   0.087   6.695  10.709 -0.3443  0.7284 -0.4922
40056SOL    HW123570   0.086   6.747  10.628 -0.0270  1.9237  0.2499
40056SOL    HW223571   0.119   6.755  10.776  0.8241 -0.6485  0.2526
40057SOL     OW23572   1.403  10.256   4.401 -0.2508  0.2637 -0.4840
40057SOL    HW123573   1.445  10.341   4.388  0.7108 -0.2288 -0.6854
40057SOL    HW223574   1.326  10.276   4.454  1.2907  0.9439  1.6301
40058SOL     OW23575   5.570   5.208   8.960  0.5605  0.2396 -0.3910
40058SOL    HW123576   5.623   5.137   8.997  1.6869  0.7147 -1.0179
40058SOL    HW223577   5.575   5.194   8.866 -2.3791 -1.0376 -0.4493
40059SOL     OW23578   7.843   5.051   5.211 -0.0059 -0.4892  0.6574
40059SOL    HW123579   7.809   5.140   5.218 -0.4484 -0.6592  0.6545
40059SOL    HW223580   7.929   5.056   5.253  0.1615  0.0417  0.2755
40060SOL     OW23581   9.451   6.928   3.606 -0.8730 -0.3860 -0.9133
40060SOL    HW123582   9.534   6.880   3.612 -0.4907  0.1751 -1.6179
40060SOL    HW223583   9.426   6.942   3.697  0.0460 -0.1566 -0.6840
40061SOL     OW23584   6.040   0.631   8.695  0.3937  0.0749  0.5135
40061SOL    HW123585   6.005   0.688   8.627  0.9162  0.3885  0.5053
40061SOL    HW223586   5.991   0.550   8.685 -0.0505  0.3732  0.2437
40062SOL     OW23587   9.703   4.620   7.264 -0.6239  0.0179 -0.2706
40062SOL    HW123588   9.734   4.577   7.343  1.2775 -0.2182 -1.0853
40062SOL    HW223589   9.632   4.563   7.232  0.3213 -1.2834 -0.1104
40063SOL     OW23590   0.897   8.667   6.336  0.4047  0.2897  0.2220
40063SOL    HW123591   0.855   8.742   6.293 -0.5120 -0.8339 -0.9294
40063SOL    HW223592   0.824   8.614   6.368  1.0157 -0.3967  0.5008
40064SOL     OW23593   2.517   9.638   3.630 -0.2157  0.7180  0.1041
40064SOL    HW123594   2.502   9.726   3.596  0.5646  1.1023  0.7132
40064SOL    HW223595   2.563   9.593   3.559  0.8435  1.3245  0.3750
40065SOL     OW23596   0.003   4.168   5.531 -0.2141  0.5478  0.2436
40065SOL    HW123597  -0.029   4.256   5.512 -1.4737  0.0639 -0.0363
40065SOL    HW223598  -0.026   4.116   5.456  0.1649 -0.1803  0.5916
40066SOL     OW23599   9.239   6.227   3.436  0.4661 -0.2444  0.0719
40066SOL    HW123600   9.216   6.161   3.501 -2.6706  0.1629 -0.4910
40066SOL    HW223601   9.335   6.223   3.431  0.6607 -1.8109  3.0392
40067SOL     OW23602   3.529   2.563  10.842  0.5728 -0.7089  0.0932
40067SOL    HW123603   3.502   2.638  10.790 -1.1167  0.6994  2.7510
40067SOL    HW223604   3.622   2.552  10.821  0.6195  1.4635 -1.1961
40068SOL     OW23605   2.256   6.794   7.663  0.0807  0.0573  0.5383
40068SOL    HW123606   2.270   6.887   7.681  1.5670  0.1474 -0.8944
40068SOL    HW223607   2.170   6.791   7.621  0.5541  0.9571 -0.5273
40069SOL     OW23608   8.562   2.623   1.644 -0.6850 -0.1692 -0.3614
40069SOL    HW123609   8.497   2.629   1.714 -0.9479 -1.4830 -0.4605
40069SOL    HW223610   8.643   2.657   1.683 -0.9352 -0.4753  0.4399
40070SOL     OW23611   6.072   8.907   2.427  0.2232  0.2077 -0.4704
40070SOL    HW123612   6.119   8.977   2.383 -0.3718  1.3565  0.6830
40070SOL    HW223613   6.088   8.830   2.372  2.1970  0.8751 -0.9026
40071SOL     OW23614   3.807   1.571   0.662  0.0678 -0.0122 -0.1961
40071SOL    HW123615   3.852   1.523   0.731  0.6537  0.3426 -0.3196
40071SOL    HW223616   3.876   1.624   0.621 -0.6781  1.4764  0.3976
40072SOL     OW23617   2.469   8.197   3.661  0.0107 -0.2588  0.3809
40072SOL    HW123618   2.436   8.134   3.597 -1.2944  0.9581 -0.2147
40072SOL    HW223619   2.524   8.257   3.610  0.7962 -0.5872  0.8335
40073SOL     OW23620   3.580   2.357   5.167 -0.1329 -0.0493 -0.3883
40073SOL    HW123621   3.561   2.271   5.203 -0.2200  0.3904  0.6492
40073SOL    HW223622   3.495   2.402   5.167 -0.0795  0.0557 -0.8813
40074SOL     OW23623   9.432   9.381   6.955  0.3888 -0.0521  0.6155
40074SOL    HW123624   9.480   9.313   7.002  1.7155 -1.2530 -2.2252
40074SOL    HW223625   9.489   9.458   6.961  1.2157 -0.5846 -0.1218
40075SOL     OW23626   0.044   8.795   0.065 -0.2857 -0.4210 -0.2897
40075SOL    HW123627  -0.032   8.738   0.058  0.5118 -1.5102 -0.2080
40075SOL    HW223628   0.074   8.784   0.155  0.0356 -0.0686 -0.3527
40076SOL     OW23629   3.269   3.756   0.735  0.3559  0.2554  0.1292
40076SOL    HW123630   3.344   3.753   0.675  1.0482  0.7171  0.9521
40076SOL    HW223631   3.208   3.818   0.694  1.0390  0.9395  0.1347
40077SOL     OW23632   1.585   9.655   9.163 -0.6106 -0.2600 -0.3382
40077SOL    HW123633   1.531   9.729   9.134  1.8388  1.3346 -1.1746
40077SOL    HW223634   1.636   9.630   9.085  0.2659 -1.3082  0.5314
40078SOL     OW23635   0.339   8.365   1.350  0.0952 -0.1099  0.0876
40078SOL    HW123636   0.280   8.358   1.275 -1.0710  2.0543  0.7244
40078SOL    HW223637   0.375   8.454   1.345  0.1042  0.0372  1.9998
40079SOL     OW23638  10.403   7.499   6.011 -0.9341  0.4589 -0.7345
40079SOL    HW123639  10.425   7.534   6.097  0.1969  1.2183 -1.3064
40079SOL    HW223640  10.415   7.405   6.020  0.8760  0.6662 -0.4880
40080SOL     OW23641   1.592   3.972   4.403 -0.1800  0.1091  0.3638
40080SOL    HW123642   1.653   4.041   4.377  0.2719 -0.6509 -0.6473
40080SOL    HW223643   1.534   3.961   4.327 -0.8886  0.0602  0.8955
40081SOL     OW23644   0.315   6.454   2.209 -0.0225  0.5098 -0.1987
40081SOL    HW123645   0.298   6.390   2.140 -0.3214  1.3528 -0.9225
40081SOL    HW223646   0.397   6.496   2.183  0.4479  0.0807  0.5452
40082SOL     OW23647   0.829   6.911   1.200  0.5889  0.0149  0.4046
40082SOL    HW123648   0.887   6.835   1.204  0.9364 -0.0287 -2.7050
40082SOL    HW223649   0.746   6.876   1.168  0.0981  0.6792  0.9187
40083SOL     OW23650   1.743   2.140   3.974  0.4656  0.1042  0.2760
40083SOL    HW123651   1.698   2.056   3.986 -0.7084  0.8216  1.0100
40083SOL    HW223652   1.673   2.204   3.965  1.2892  1.3337  2.0231
40084SOL     OW23653   4.777   6.666   3.922 -0.4203 -0.4954  0.1348
40084SOL    HW123654   4.807   6.710   4.002 -0.5309  0.0228 -0.1093
40084SOL    HW223655   4.856   6.653   3.870 -0.5898  0.8048 -0.4756
40085SOL     OW23656   3.392   2.526   0.908  0.4526  0.3334  0.6069
40085SOL    HW123657   3.452   2.600   0.910  0.4820  0.4128 -1.4366
40085SOL    HW223658   3.306   2.565   0.893  0.3149  0.0248  0.5855
40086SOL     OW23659  10.148   2.516   0.915 -0.3647 -0.0976  0.3869
40086SOL    HW123660  10.167   2.467   0.995 -2.6231 -0.1415  0.9647
40086SOL    HW223661  10.182   2.604   0.932  1.1645 -0.6587  0.4581
40087SOL     OW23662   0.507   4.963   8.232  0.1419 -0.2230  0.1916
40087SOL    HW123663   0.426   4.947   8.184 -0.6341  0.2167  1.3165
40087SOL    HW223664   0.569   4.898   8.197  0.2121  1.2590 -2.7243
40088SOL     OW23665   4.534   9.381   7.066 -0.2211 -0.0245  0.2888
40088SOL    HW123666   4.489   9.348   6.988  0.2666  0.3518 -0.1638
40088SOL    HW223667   4.569   9.302   7.108 -0.6072 -0.2446  0.2020
40089SOL     OW23668   2.620   7.433   7.266  0.2649 -0.4617  0.7163
40089SOL    HW123669   2.649   7.452   7.355 -0.3150 -0.6414  0.9460
40089SOL    HW223670   2.696   7.455   7.211  0.2096  0.8820  1.1280
40090SOL     OW23671   9.824   7.802   2.157 -0.2555  0.1737 -0.4005
40090SOL    HW123672   9.866   7.831   2.076 -2.4822  2.4042 -0.8946
40090SOL    HW223673   9.896   7.779   2.215  1.5540  1.8004 -1.8811
40091SOL     OW23674   2.055   9.028   7.916  0.3778  0.5790  0.1221
40091SOL    HW123675   2.082   8.992   7.831 -3.0427 -0.0984 -0.8235
40091SOL    HW223676   2.132   9.075   7.948  1.8321  0.7901 -3.2981
40092SOL     OW23677   9.364   7.742   6.015 -0.4257  0.0816 -0.1063
40092SOL    HW123678   9.362   7.673   6.081  1.1481 -0.1233 -0.2271
40092SOL    HW223679   9.358   7.695   5.932  0.9694  0.0323 -0.1996
40093SOL     OW23680  10.750   6.863   0.606  0.5477 -0.1261  0.0542
40093SOL    HW123681  10.690   6.796   0.571  0.2585  0.6274 -0.9298
40093SOL    HW223682  10.812   6.878   0.535  0.5162  0.7659  0.2130
40094SOL     OW23683   3.365   4.036   9.635  0.4869 -0.2476 -0.4491
40094SOL    HW123684   3.450   3.995   9.619  0.2351  0.0652 -2.9090
40094SOL    HW223685   3.386   4.124   9.667  1.0163 -1.2295  2.1901
40095SOL     OW23686   8.999   5.347   8.337  0.0256 -0.5559 -0.2457
40095SOL    HW123687   8.939   5.294   8.388  0.2724 -0.1131  0.5180
40095SOL    HW223688   8.997   5.433   8.379  0.2760 -0.1996 -0.9456
40096SOL     OW23689   1.098   2.538   2.448 -0.0923  0.3449 -0.0841
40096SOL    HW123690   1.142   2.455   2.467  0.3969  1.0281  2.0711
40096SOL    HW223691   1.007   2.523   2.474 -0.5966 -0.2414 -2.0403
40097SOL     OW23692   9.221   3.597   3.277 -0.1035  0.0530 -0.2086
40097SOL    HW123693   9.280   3.521   3.283  1.0043  0.9209  0.1618
40097SOL    HW223694   9.212   3.628   3.367 -2.7124 -1.1810  0.0727
40098SOL     OW23695   2.751   0.496   8.065 -0.0286 -0.5446  0.0386
40098SOL    HW123696   2.689   0.431   8.098 -1.4217  1.0199  0.6770
40098SOL    HW223697   2.762   0.557   8.138  1.1557 -0.0018 -0.5721
40099SOL     OW23698   3.647   4.040   8.891 -0.3885 -0.2802 -0.6670
40099SOL    HW123699   3.687   4.082   8.815 -1.2553  1.2153 -0.3362
40099SOL    HW223700   3.702   3.964   8.908  1.8123  1.1984 -0.7648
40100SOL     OW23701   8.479  10.493   9.964 -0.7233  0.1536  0.2232
40100SOL    HW123702   8.487  10.427   9.895  1.5308  1.8145 -1.2566
40100SOL    HW223703   8.388  10.485   9.994 -1.4102 -1.5518 -1.9993
40101SOL     OW23704   2.973   4.155   9.396  0.1847  0.2615  0.4147
40101SOL    HW123705   3.026   4.208   9.336  0.3358  0.7819  1.0027
40101SOL    HW223706   3.010   4.068   9.391 -1.4129 -0.3830 -2.2631
40102SOL     OW23707   0.060   3.642  10.046 -0.2294  0.4519  0.2176
40102SOL    HW123708   0.143   3.645  10.094  0.4832  1.1933 -1.0341
40102SOL    HW223709   0.043   3.733  10.021 -1.7823  0.4208  1.0223
40103SOL     OW23710   6.623   8.454   9.491  0.3823 -0.2194  0.1602
40103SOL    HW123711   6.628   8.549   9.495 -1.2899 -0.0494 -0.7631
40103SOL    HW223712   6.609   8.435   9.398  0.7169 -1.3793  0.3298
40104SOL     OW23713   5.112   1.841   1.196  0.1641 -0.5741 -0.3260
40104SOL    HW123714   5.140   1.873   1.282  0.1671 -0.2525 -0.4478
40104SOL    HW223715   5.030   1.795   1.214 -0.3606  0.3619 -0.3066
40105SOL     OW23716   9.234   5.070   0.931  0.0780 -0.1519  0.0559
40105SOL    HW123717   9.230   4.979   0.959 -0.3238 -0.6624 -1.5496
40105SOL    HW223718   9.151   5.083   0.883 -0.1754  1.2545  0.8363
40106SOL     OW23719   9.687   4.826   4.499  0.1102  0.0382  0.2460
40106SOL    HW123720   9.732   4.873   4.570 -2.7962  1.6216  1.2068
40106SOL    HW223721   9.601   4.867   4.494 -1.1293 -2.5236 -1.7387
40107SOL     OW23722   4.339   0.119   8.789  0.0349  0.0028  0.1834
40107SOL    HW123723   4.270   0.073   8.838 -1.2559  1.5249 -0.1439
40107SOL    HW223724   4.306   0.124   8.700  1.9627 -1.9249 -0.7404
40108SOL     OW23725   5.578   7.747   0.184  0.0204  0.5964 -0.0128
40108SOL    HW123726   5.536   7.765   0.100 -0.4341 -1.1945 -0.2093
40108SOL    HW223727   5.520   7.786   0.249 -1.7308 -1.3005 -0.3214
40109SOL     OW23728   7.212  10.900  10.169 -0.3652 -0.3519  0.0150
40109SOL    HW123729   7.264  10.889  10.089  0.0683 -0.0136  0.2410
40109SOL    HW223730   7.162  10.981  10.154 -1.8123 -1.3540 -0.7235
40110SOL     OW23731   3.239  10.620   4.060  0.1778 -0.3396 -0.3726
40110SOL    HW123732   3.267  10.699   4.013 -0.6142  0.1403 -0.0629
40110SOL    HW223733   3.205  10.653   4.143 -0.1057 -1.0155 -0.2143
40111SOL     OW23734   8.152   9.822   6.728  0.3130  0.1471  0.3986
40111SOL    HW123735   8.142   9.863   6.813  0.5288  1.2146 -0.0800
40111SOL    HW223736   8.103   9.877   6.667  2.0361  0.7289 -0.5451
40112SOL     OW23737   1.268   9.528   2.710 -0.0071 -0.0236  0.1848
40112SOL    HW123738   1.290   9.435   2.719 -0.3695 -0.1869 -0.5793
40112SOL    HW223739   1.310   9.555   2.628  1.1517  0.8076  1.0136
40113SOL     OW23740   1.060   0.719   9.568 -0.0400 -0.0406 -1.2402
40113SOL    HW123741   1.102   0.788   9.620  0.5645 -1.8218  0.7746
40113SOL    HW223742   1.128   0.653   9.557 -1.6459 -2.0789  0.3370
40114SOL     OW23743   6.499   2.726   8.135  0.8563 -0.2939 -0.2807
40114SOL    HW123744   6.590   2.702   8.117  1.0010 -0.3437  0.4731
40114SOL    HW223745   6.500   2.821   8.140  0.8695 -0.2959 -0.2463
40115SOL     OW23746   4.972   9.732   5.843 -1.0172 -0.3246  0.0911
40115SOL    HW123747   4.901   9.769   5.895  0.0687  1.8552  0.1162
40115SOL    HW223748   5.024   9.681   5.906 -0.0282  1.8335  1.1250
40116SOL     OW23749   5.814   0.087   8.070 -0.5607 -0.2992  0.5397
40116SOL    HW123750   5.902   0.103   8.104  0.8059  3.1579 -3.7303
40116SOL    HW223751   5.826   0.018   8.005 -0.4148  1.4434 -1.4020
40117SOL     OW23752   8.656   5.574   2.152 -0.4829  0.5716  0.3400
40117SOL    HW123753   8.591   5.523   2.200  0.2662 -0.6892  0.0800
40117SOL    HW223754   8.716   5.606   2.220 -0.6027  0.5584  0.4525
40118SOL     OW23755   0.483   1.825   0.320  0.3202 -0.4197  0.1852
40118SOL    HW123756   0.520   1.913   0.313 -0.4320  0.0439  1.4961
40118SOL    HW223757   0.468   1.798   0.230 -1.6590  1.7783 -0.2494
40119SOL     OW23758   1.297   3.865   7.856 -0.5606 -0.2376  0.1999
40119SOL    HW123759   1.297   3.853   7.951 -0.8286 -0.6989  0.1471
40119SOL    HW223760   1.254   3.786   7.823  0.7660 -0.7504 -0.3817
40120SOL     OW23761   1.358   7.342   4.531 -0.5878  0.4040 -0.0409
40120SOL    HW123762   1.329   7.358   4.621  0.2611 -1.8567  0.7257
40120SOL    HW223763   1.428   7.406   4.516 -0.0089  0.1271  1.3285
40121SOL     OW23764   8.973   9.124   7.947  0.4103 -0.9095  1.0614
40121SOL    HW123765   9.028   9.200   7.964 -0.1633 -0.3990  0.7309
40121SOL    HW223766   8.896   9.137   8.003 -0.6936 -0.0978 -0.5634
40122SOL     OW23767   1.245   0.007   1.323  0.0304  0.0456 -0.1023
40122SOL    HW123768   1.159   0.039   1.297 -0.2028 -1.2532 -1.0324
40122SOL    HW223769   1.296   0.087   1.341  0.0535  1.1768 -4.1460
40123SOL     OW23770   1.043   5.211   3.978 -0.1876 -0.8834  0.1077
40123SOL    HW123771   1.077   5.274   3.914  0.4804 -0.7432  0.5973
40123SOL    HW223772   0.955   5.191   3.946  0.3827 -1.3744 -1.2725
40124SOL     OW23773   8.339   5.135   5.004  0.3549  0.3961 -0.1536
40124SOL    HW123774   8.294   5.102   4.927 -1.2558  3.0649 -0.4573
40124SOL    HW223775   8.274   5.129   5.074  0.6468  1.1396  0.1950
40125SOL     OW23776   5.287   2.627  10.006 -0.2973  0.2121  0.4493
40125SOL    HW123777   5.342   2.571   9.953  0.2896 -1.3523  2.5663
40125SOL    HW223778   5.200   2.621   9.966 -0.0846 -1.6659  0.1980
40126SOL     OW23779   5.326   2.250   6.928  0.5481 -0.1544  0.3195
40126SOL    HW123780   5.339   2.337   6.968 -0.1004 -0.2136  0.6732
40126SOL    HW223781   5.262   2.265   6.859  0.0278 -0.4443  0.7334
40127SOL     OW23782   1.465   8.937   3.826 -0.2759  0.7416  0.4992
40127SOL    HW123783   1.515   8.971   3.752  0.5331 -0.5025  0.4633
40127SOL    HW223784   1.498   8.849   3.841 -0.9622  0.6726  1.8570
40128SOL     OW23785   9.902   3.382   2.834  0.0161  0.8925  0.1316
40128SOL    HW123786   9.850   3.429   2.769 -1.3328  1.4172  1.5408
40128SOL    HW223787   9.991   3.415   2.821 -0.6095  2.6128 -0.0470
40129SOL     OW23788   9.974   3.434   6.113  0.1089  0.0623 -0.9525
40129SOL    HW123789   9.898   3.413   6.059 -1.5061  1.8280  0.4902
40129SOL    HW223790  10.028   3.354   6.111 -2.9143 -2.1808 -0.1836
40130SOL     OW23791   4.603   1.349   8.985 -0.2511 -0.1742  0.1586
40130SOL    HW123792   4.521   1.398   8.989 -1.1334 -1.6532  3.0872
40130SOL    HW223793   4.579   1.264   8.950  0.7166  0.3801 -2.0169
40131SOL     OW23794   6.666   0.325  10.199 -0.3071 -0.2497  0.3165
40131SOL    HW123795   6.661   0.285  10.285 -1.5224 -1.1045 -0.1251
40131SOL    HW223796   6.576   0.326  10.167 -0.1093  1.5181 -0.3109
40132SOL     OW23797   6.993   6.774   1.480  0.1307  0.5058  0.3363
40132SOL    HW123798   6.909   6.733   1.499 -0.0834  1.9091  2.9146
40132SOL    HW223799   7.024   6.805   1.565  1.9616  2.4372 -0.9198
40133SOL     OW23800   0.964   1.603   4.941 -0.2852 -0.2707  0.2090
40133SOL    HW123801   1.047   1.587   4.986  1.1003  1.6302 -1.4686
40133SOL    HW223802   0.924   1.675   4.989  1.6846  2.4737 -1.9302
40134SOL     OW23803   9.329   8.972   0.266  0.2263 -0.3991  0.4352
40134SOL    HW123804   9.348   9.043   0.204  0.1349  0.8470  1.8042
40134SOL    HW223805   9.242   8.940   0.241 -0.2539  0.7883  0.5595
40135SOL     OW23806   6.614   1.159  10.050  0.2064 -0.1596 -0.1412
40135SOL    HW123807   6.543   1.145   9.987 -0.1727  0.0506  0.2383
40135SOL    HW223808   6.664   1.232  10.013 -1.5361  1.7596  1.0874
40136SOL     OW23809   1.801   8.321   9.293  0.0571  0.2323  0.2024
40136SOL    HW123810   1.768   8.326   9.383 -1.5952  0.5599 -0.3779
40136SOL    HW223811   1.813   8.228   9.277 -0.2355  0.1291  0.5597
40137SOL     OW23812   3.757   6.830   2.691  0.4722  0.1941  0.0738
40137SOL    HW123813   3.809   6.750   2.703  0.6302  0.2784 -0.0506
40137SOL    HW223814   3.822   6.898   2.672  0.3424  0.3650  0.2451
40138SOL     OW23815   7.222   8.557   9.781 -0.0848 -0.1429  0.2327
40138SOL    HW123816   7.145   8.613   9.778  0.6299  1.1175  2.7950
40138SOL    HW223817   7.285   8.598   9.722  0.0768  1.2707  1.3357
40139SOL     OW23818   8.825   4.513   9.282 -0.1511 -0.3004  0.2454
40139SOL    HW123819   8.910   4.505   9.239  0.4076 -1.1878  1.4644
40139SOL    HW223820   8.846   4.525   9.375 -1.3511  0.1620  0.4791
40140SOL     OW23821   2.459   8.352   8.989 -0.1766 -0.5909  0.0205
40140SOL    HW123822   2.404   8.419   8.947 -1.2651 -0.7178  1.1754
40140SOL    HW223823   2.406   8.321   9.063  1.1710 -1.2510  0.7413
40141SOL     OW23824   1.291   1.513   8.322  1.0447  0.0751  0.0006
40141SOL    HW123825   1.385   1.532   8.322  0.7967  1.4298  0.6507
40141SOL    HW223826   1.249   1.599   8.324 -0.2455 -0.4474 -1.8549
40142SOL     OW23827   6.618   3.092   0.242 -0.5913  0.0587  0.1050
40142SOL    HW123828   6.603   3.146   0.164  2.1943  2.0328  0.7999
40142SOL    HW223829   6.671   3.147   0.299 -0.0350 -2.4351  2.1413
40143SOL     OW23830   0.408   2.326   1.928  0.0031 -0.1543 -0.0316
40143SOL    HW123831   0.489   2.377   1.927  0.9123 -1.5106  0.8422
40143SOL    HW223832   0.424   2.256   1.992 -2.5071  0.5597  1.5301
40144SOL     OW23833   4.244   6.558   1.392  0.3730 -0.6397  0.2841
40144SOL    HW123834   4.319   6.601   1.433  0.5867 -0.9239  0.1974
40144SOL    HW223835   4.169   6.587   1.444  0.0431  2.3353 -1.6259
40145SOL     OW23836   4.507   3.129   1.647 -0.3386 -0.4339 -0.2710
40145SOL    HW123837   4.491   3.062   1.713 -0.2502  0.5183  0.7593
40145SOL    HW223838   4.599   3.153   1.660 -0.6002  0.4929 -0.0055
40146SOL     OW23839   4.176   6.587   9.867  0.3799  0.3433  0.0467
40146SOL    HW123840   4.238   6.630   9.809  0.1380  0.2936 -0.2522
40146SOL    HW223841   4.156   6.652   9.934  0.6936  0.3853  0.0978
40147SOL     OW23842   5.427   5.340   9.772  0.0945  0.0138 -0.4708
40147SOL    HW123843   5.463   5.255   9.748 -2.8214 -1.9121  1.4304
40147SOL    HW223844   5.439   5.345   9.867 -3.6419 -0.4062  0.1431
40148SOL     OW23845   5.175   4.105   7.264 -0.2214 -0.0545 -0.4773
40148SOL    HW123846   5.134   4.146   7.188  1.2444  1.7462 -0.3626
40148SOL    HW223847   5.246   4.164   7.288 -0.7865 -0.4042  2.4660
40149SOL     OW23848   3.127  10.472   8.870 -0.3412  0.3455 -0.0089
40149SOL    HW123849   3.091  10.504   8.787 -0.7935 -0.4732 -0.1426
40149SOL    HW223850   3.189  10.404   8.844 -1.0695 -0.4651  0.3523
40150SOL     OW23851   4.792   1.244   5.311  0.2464 -0.3418 -0.7899
40150SOL    HW123852   4.817   1.327   5.269 -0.9818 -0.4612 -1.8152
40150SOL    HW223853   4.700   1.256   5.333  0.0413 -1.4548 -1.0112
40151SOL     OW23854   6.215   8.256   8.903 -0.1607  0.0266 -0.3805
40151SOL    HW123855   6.262   8.216   8.830  0.9732 -0.2117  0.4611
40151SOL    HW223856   6.135   8.205   8.911 -0.1614 -0.1235 -1.2715
40152SOL     OW23857   7.978   0.412   1.014 -0.1825  0.1005  0.6070
40152SOL    HW123858   7.884   0.428   1.005  0.2157  2.1227 -0.4808
40152SOL    HW223859   8.007   0.477   1.078  0.5554 -0.1564  0.5368
40153SOL     OW23860   4.467   8.033   6.421  0.1470 -0.5562  0.2358
40153SOL    HW123861   4.496   7.944   6.442 -0.4591 -0.9142 -0.4144
40153SOL    HW223862   4.545   8.075   6.385  0.7047 -0.4993  1.4591
40154SOL     OW23863   7.365   5.116   8.232 -0.3314 -0.0429  0.2691
40154SOL    HW123864   7.283   5.163   8.218  0.2446  0.9170 -0.0200
40154SOL    HW223865   7.347   5.027   8.203 -0.9057  0.4649 -1.0119
40155SOL     OW23866   0.497   7.752   1.370 -0.0081 -0.7581  0.5049
40155SOL    HW123867   0.439   7.821   1.403  2.9166  3.1200 -1.6612
40155SOL    HW223868   0.462   7.730   1.284  0.2935 -0.2952  0.2610
40156SOL     OW23869   8.309   6.811   7.158 -0.1406 -0.4062 -0.2052
40156SOL    HW123870   8.333   6.892   7.202  0.1407 -0.7819  0.3429
40156SOL    HW223871   8.213   6.812   7.157 -0.1353  0.1770 -0.6724
40157SOL     OW23872   2.038   2.072   2.073  0.2259 -0.3042  0.0898
40157SOL    HW123873   1.966   2.015   2.045 -0.0150 -1.1692  2.2704
40157SOL    HW223874   2.117   2.028   2.040 -0.1082 -0.5232 -0.4400
40158SOL     OW23875   4.218   1.371  10.615  0.7095 -0.2329 -0.0203
40158SOL    HW123876   4.291   1.424  10.582  0.5280 -1.1964 -2.1228
40158SOL    HW223877   4.257   1.286  10.635  0.6748  0.1134  1.7196
40159SOL     OW23878   0.202   3.873   9.692  0.2738 -0.0302  0.3423
40159SOL    HW123879   0.188   3.961   9.657  3.1387  1.0299  1.5202
40159SOL    HW223880   0.133   3.862   9.758 -1.3620  0.4367 -1.2094
40160SOL     OW23881   9.829   4.381   1.413 -0.0708 -0.3263 -0.4450
40160SOL    HW123882   9.787   4.400   1.497 -2.7001  1.4179 -2.0275
40160SOL    HW223883   9.781   4.306   1.378  0.5290 -0.5838 -0.7402
40161SOL     OW23884   1.387   7.673   5.901  0.3787  0.0276  0.1026
40161SOL    HW123885   1.422   7.628   5.977 -1.4952 -0.2430  0.8564
40161SOL    HW223886   1.460   7.676   5.839  1.2101 -2.0789  0.8788
40162SOL     OW23887  10.107   2.257   0.163  0.1676  0.1656 -0.3795
40162SOL    HW123888  10.078   2.224   0.248 -0.0625  0.1632 -0.4595
40162SOL    HW223889  10.047   2.218   0.099  0.2146  0.3257 -0.5245
40163SOL     OW23890   8.877   5.803   5.810  0.5028  0.5288  0.8789
40163SOL    HW123891   8.783   5.818   5.824  0.1549 -0.8831  0.2899
40163SOL    HW223892   8.893   5.717   5.849  1.4499  0.5557  0.5587
40164SOL     OW23893   2.303   0.275   2.374  0.3288  0.4653  0.1530
40164SOL    HW123894   2.361   0.200   2.369  0.3581  0.5794 -2.1149
40164SOL    HW223895   2.225   0.242   2.419  1.8831  0.2194  2.9016
40165SOL     OW23896   6.879   7.679   8.615  0.0240 -0.1189 -0.2279
40165SOL    HW123897   6.805   7.620   8.632 -0.7479  0.5049 -1.2361
40165SOL    HW223898   6.938   7.627   8.559  0.5971 -0.7770  0.9553
40166SOL     OW23899   2.292   3.201   4.153 -0.4601  0.3619 -0.1382
40166SOL    HW123900   2.268   3.292   4.136 -0.8595  0.4087  0.6538
40166SOL    HW223901   2.387   3.199   4.140 -0.4422  0.9021 -0.1154
40167SOL     OW23902   7.858  10.745   6.769  0.2248  0.4070 -0.1074
40167SOL    HW123903   7.784  10.698   6.808  0.5548  0.9131  1.1987
40167SOL    HW223904   7.934  10.715   6.819  0.7369  0.7681 -0.6540
40168SOL     OW23905   7.604  10.295   0.238  0.0272  0.1995  0.5245
40168SOL    HW123906   7.606  10.210   0.282  1.1048  0.1925  0.4728
40168SOL    HW223907   7.652  10.354   0.296 -3.4050  1.6395  2.2193
40169SOL     OW23908   3.214   1.448   1.385 -0.4045  0.2776  0.4493
40169SOL    HW123909   3.290   1.391   1.397 -0.9693 -0.5009  0.3564
40169SOL    HW223910   3.243   1.533   1.419  0.5593  0.0317  0.2639
40170SOL     OW23911   9.808   8.018   2.437 -0.1020 -0.2124 -0.5612
40170SOL    HW123912   9.811   8.111   2.460  1.8363  0.3845 -2.7968
40170SOL    HW223913   9.743   8.013   2.367 -0.7736 -0.7198  0.0845
40171SOL     OW23914   8.760   5.963   4.828  0.0039  0.3409  0.0684
40171SOL    HW123915   8.700   6.033   4.854 -0.4096 -0.4710  1.4281
40171SOL    HW223916   8.842   5.983   4.872 -0.3002 -0.3269  0.9786
40172SOL     OW23917   1.866  10.035   6.392 -0.3961 -0.3102  0.0534
40172SOL    HW123918   1.852   9.946   6.360  1.7005 -1.1533  1.2595
40172SOL    HW223919   1.953  10.032   6.431 -1.3713  1.5216  2.6198
40173SOL     OW23920   3.582   6.082   6.933  0.1968  0.3792  0.5177
40173SOL    HW123921   3.517   6.070   6.863 -1.5456  3.3479  1.4439
40173SOL    HW223922   3.636   6.155   6.903 -0.3778  1.4941  2.0593
40174SOL     OW23923   8.874   4.635   5.203 -0.2500 -0.3595  0.0997
40174SOL    HW123924   8.910   4.622   5.115 -0.4086 -0.6171  0.0708
40174SOL    HW223925   8.800   4.694   5.191  0.3514  0.4381  0.2038
40175SOL     OW23926   0.561   5.316  10.628 -0.0933 -0.3767  0.4833
40175SOL    HW123927   0.575   5.394  10.574 -0.0210  0.5904  1.8388
40175SOL    HW223928   0.648   5.279  10.639  0.2051  0.5740  1.5570
40176SOL     OW23929  10.237   6.291   0.237 -0.1787 -0.0011 -0.3104
40176SOL    HW123930  10.276   6.203   0.241 -1.3597 -0.4962  1.8558
40176SOL    HW223931  10.184   6.290   0.157  0.3244 -1.0097 -0.6585
40177SOL     OW23932   0.060   1.156   0.817 -0.0455 -0.1760  0.2521
40177SOL    HW123933   0.089   1.065   0.818 -2.0626 -0.9519 -2.1811
40177SOL    HW223934  -0.026   1.154   0.775  0.7426  3.1035 -1.9278
40178SOL     OW23935   6.108   1.448   8.426  0.0395 -0.6557  0.0672
40178SOL    HW123936   6.194   1.473   8.391  0.6532 -1.9051  0.6441
40178SOL    HW223937   6.062   1.531   8.436  0.2555 -0.1214 -2.5461
40179SOL     OW23938  10.512   9.954   3.395 -0.2668  0.6815  0.1939
40179SOL    HW123939  10.589   9.911   3.431 -1.2645 -0.3533  1.1730
40179SOL    HW223940  10.528   9.958   3.301 -0.6036 -3.0091 -0.1724
40180SOL     OW23941   5.860   8.783  10.640 -0.5907  0.2832 -0.6101
40180SOL    HW123942   5.921   8.765  10.568 -0.4173 -0.0934 -0.3663
40180SOL    HW223943   5.916   8.805  10.714 -0.7668  0.4542 -0.5264
40181SOL     OW23944   2.581  10.498   0.021  0.3765 -0.0403  0.2798
40181SOL    HW123945   2.566  10.441   0.097  0.8667  0.1420  0.5151
40181SOL    HW223946   2.617  10.439  -0.045  1.7609  0.1467  0.8271
40182SOL     OW23947   6.116   2.556   8.481  0.1868  0.1183  0.6598
40182SOL    HW123948   6.164   2.586   8.558 -0.4453  0.9001  0.7658
40182SOL    HW223949   6.024   2.574   8.501 -0.1187 -0.8914  0.2597
40183SOL     OW23950   1.683   2.194   3.688  0.6293 -0.2114  0.3711
40183SOL    HW123951   1.615   2.195   3.620  0.8450  1.7064  0.1278
40183SOL    HW223952   1.639   2.163   3.766 -0.2060 -0.2065 -0.0883
40184SOL     OW23953   9.999   5.608   5.237  0.3839 -0.0688  0.9304
40184SOL    HW123954   9.948   5.688   5.248 -0.4257 -0.6468  1.4669
40184SOL    HW223955  10.047   5.598   5.319 -0.7473 -0.9733  1.5039
40185SOL     OW23956   8.626   4.678  10.280  0.2378 -0.1088  0.1372
40185SOL    HW123957   8.647   4.700  10.190 -2.0500 -2.1438 -1.0224
40185SOL    HW223958   8.548   4.729  10.300  1.0321  0.7331  1.1968
40186SOL     OW23959   2.401   1.353   0.297  0.0877  0.7097 -0.1006
40186SOL    HW123960   2.350   1.298   0.356  0.4244  0.9456  0.4163
40186SOL    HW223961   2.340   1.420   0.268 -0.2305  0.2757 -0.4588
40187SOL     OW23962   8.634   3.562   0.085  0.4027 -0.0492 -0.4763
40187SOL    HW123963   8.697   3.527   0.148 -0.7971  0.3098  0.9808
40187SOL    HW223964   8.556   3.582   0.137 -0.4424  0.8068 -1.9862
40188SOL     OW23965   2.635   1.290   4.412  0.1144 -0.3464  0.2169
40188SOL    HW123966   2.610   1.335   4.492 -1.3118  0.5986 -0.7080
40188SOL    HW223967   2.553   1.281   4.363  1.1262  0.2936 -1.7193
40189SOL     OW23968   4.708   4.433   6.889  0.1602  0.0677  0.6222
40189SOL    HW123969   4.671   4.365   6.945  1.5806 -0.4117  1.0333
40189SOL    HW223970   4.657   4.512   6.910  1.4621  0.2630  3.6925
40190SOL     OW23971   4.501   8.728   5.763  0.2303 -0.2846  0.0591
40190SOL    HW123972   4.572   8.691   5.711 -0.7300 -1.1254 -0.6876
40190SOL    HW223973   4.496   8.672   5.841 -0.1178 -0.7189 -0.2685
40191SOL     OW23974   6.536   9.706   2.719  0.1057  0.0534  0.0397
40191SOL    HW123975   6.491   9.667   2.793  0.5828  0.1386  0.3821
40191SOL    HW223976   6.475   9.771   2.685 -0.2093 -0.1535  0.2081
40192SOL     OW23977   9.712   3.044   0.751  0.1488 -0.0572 -0.2317
40192SOL    HW123978   9.710   2.948   0.751  0.5555 -0.0766 -1.4006
40192SOL    HW223979   9.620   3.070   0.756 -0.0078 -0.5144 -0.6575
40193SOL     OW23980   9.618   4.506   7.609  0.2433 -0.4475 -0.1111
40193SOL    HW123981   9.683   4.568   7.573 -0.2754  0.0421 -0.2181
40193SOL    HW223982   9.668   4.453   7.670  0.7893 -0.1859 -0.3199
40194SOL     OW23983  10.284   3.552   4.377  0.3329 -0.2694  0.2303
40194SOL    HW123984  10.316   3.634   4.337 -0.9840 -0.7563 -1.9749
40194SOL    HW223985  10.277   3.573   4.470  2.7266  1.2191  0.1807
40195SOL     OW23986   7.939   5.561   1.953 -0.6972  0.1936  0.2439
40195SOL    HW123987   7.909   5.636   1.902  0.8908  0.3651 -0.5128
40195SOL    HW223988   7.882   5.489   1.926  0.4554  0.1152 -2.3650
40196SOL     OW23989   9.809   6.217   5.560 -0.1934  0.5632 -0.3421
40196SOL    HW123990   9.867   6.187   5.490  0.6714 -1.0018  0.9776
40196SOL    HW223991   9.844   6.176   5.639 -2.3132  0.6840  0.7116
40197SOL     OW23992  10.352   3.327   9.832 -0.4809 -0.5012  1.0172
40197SOL    HW123993  10.265   3.361   9.810 -0.0331 -0.0334 -0.1305
40197SOL    HW223994  10.363   3.348   9.925  0.1522  3.5348  0.2145
40198SOL     OW23995   6.207   9.722   4.671  0.2505  0.4887  0.3922
40198SOL    HW123996   6.207   9.763   4.757 -0.0467  0.8833  0.2070
40198SOL    HW223997   6.171   9.788   4.613 -0.1880 -0.0144  0.0804
40199SOL     OW23998   8.556   1.615   7.100 -0.3708  0.1730 -0.4311
40199SOL    HW123999   8.634   1.659   7.132 -0.5771  0.2479 -0.0254
40199SOL    HW224000   8.500   1.605   7.177 -1.3906  1.4457 -0.9498
40200SOL     OW24001  10.409   8.053   4.375 -0.2010  0.1758 -0.2348
40200SOL    HW124002  10.410   8.000   4.295 -2.6383 -0.5023  0.1154
40200SOL    HW224003  10.497   8.041   4.412  0.2050 -1.4360 -1.5741
40201SOL     OW24004   5.572   7.590   6.461 -0.1200 -0.3832 -0.3276
40201SOL    HW124005   5.521   7.511   6.473 -0.5708 -0.3571 -1.8698
40201SOL    HW224006   5.663   7.561   6.463 -0.2467 -0.7568  0.2045
40202SOL     OW24007   7.997   2.163   7.715 -0.2940 -0.5130  0.4293
40202SOL    HW124008   8.007   2.151   7.620 -0.0090 -0.5530  0.4653
40202SOL    HW224009   7.952   2.247   7.723 -0.4127 -0.5577  0.2554
40203SOL     OW24010   0.234   8.192   3.214 -0.5295 -0.2587  0.0332
40203SOL    HW124011   0.277   8.109   3.192  0.9734 -0.2760  2.6278
40203SOL    HW224012   0.266   8.213   3.301 -3.4085  1.4102  0.8349
40204SOL     OW24013   0.183   0.896   8.017  0.3168 -0.1211  0.3056
40204SOL    HW124014   0.134   0.977   8.032 -0.2117 -0.0009 -1.7165
40204SOL    HW224015   0.256   0.900   8.079 -0.4123  1.2809  1.1259
40205SOL     OW24016  10.594   5.315   1.886 -0.2387 -0.0868 -0.3413
40205SOL    HW124017  10.599   5.223   1.914 -2.0155  0.0998  0.6944
40205SOL    HW224018  10.685   5.338   1.865  0.5944 -1.4490  1.4868
40206SOL     OW24019   1.422   5.507   3.710 -0.2542 -0.1090  0.3544
40206SOL    HW124020   1.425   5.513   3.806 -1.8595  0.3151  0.4187
40206SOL    HW224021   1.372   5.585   3.683 -1.2631 -1.0730 -0.6715
40207SOL     OW24022  10.843   8.511  10.005  0.0739 -0.2792  0.4575
40207SOL    HW124023  10.896   8.496  10.083  1.0433  0.0732 -0.1108
40207SOL    HW224024  10.814   8.424   9.978  0.1550 -0.4507  0.9173
40208SOL     OW24025   2.705   7.692   0.085 -0.2283  0.0740 -0.4159
40208SOL    HW124026   2.719   7.618   0.144  0.3876 -0.1931 -0.8800
40208SOL    HW224027   2.749   7.765   0.128 -1.2609  0.3018  0.2836
40209SOL     OW24028   5.283   2.502   7.024 -0.5315  0.3406  0.4483
40209SOL    HW124029   5.303   2.594   7.011 -0.9788  0.5165  0.9669
40209SOL    HW224030   5.196   2.490   6.985  0.2212 -0.2553 -1.1507
40210SOL     OW24031   2.597  10.354   0.255  0.3570  0.1579  0.0396
40210SOL    HW124032   2.590  10.343   0.350 -1.7578 -0.8995 -0.1807
40210SOL    HW224033   2.619  10.266   0.223  1.4015  0.5828 -0.4469
40211SOL     OW24034   2.315   7.163   5.515 -0.4345 -0.1005  0.0595
40211SOL    HW124035   2.331   7.235   5.576 -1.2994 -0.1890  0.3958
40211SOL    HW224036   2.326   7.202   5.428 -1.7352  0.6538  0.2137
40212SOL     OW24037   1.061   5.195   4.465  0.0627 -0.0635 -0.6032
40212SOL    HW124038   1.009   5.153   4.533 -0.2038  0.4008 -0.5128
40212SOL    HW224039   1.020   5.281   4.453  1.0345  0.4790 -0.2359
40213SOL     OW24040   4.288   9.426   0.516  0.2287  0.4235  0.7063
40213SOL    HW124041   4.271   9.510   0.473 -2.7172 -0.7600 -0.7023
40213SOL    HW224042   4.362   9.389   0.468 -0.6783  0.7444 -1.0026
40214SOL     OW24043   3.597   2.797   9.490  0.6499  0.4350  0.2471
40214SOL    HW124044   3.611   2.851   9.412 -1.5569  0.8029  0.0365
40214SOL    HW224045   3.609   2.707   9.458  1.6926  0.6506 -0.0254
40215SOL     OW24046   7.290   0.301   2.563 -0.0156 -0.0092  0.2060
40215SOL    HW124047   7.279   0.206   2.563  0.7382 -0.1056 -0.6111
40215SOL    HW224048   7.375   0.316   2.522 -0.0960  1.0234  0.3760
40216SOL     OW24049   5.947  10.725   0.270  0.2788  0.2671 -0.1824
40216SOL    HW124050   5.965  10.661   0.339 -1.5938  0.6328  0.7041
40216SOL    HW224051   5.878  10.685   0.218 -0.0458  1.0381 -0.3566
40217SOL     OW24052   2.921   1.745   0.982  0.4645 -0.3432 -0.1530
40217SOL    HW124053   2.891   1.719   0.895  0.8622 -1.4436  0.0171
40217SOL    HW224054   2.989   1.682   1.004  0.1564 -0.2851  1.0881
40218SOL     OW24055   3.560   3.418   2.461  0.9724  0.0379 -0.1776
40218SOL    HW124056   3.547   3.326   2.480 -1.4593 -0.0783 -1.8710
40218SOL    HW224057   3.496   3.464   2.516  2.6227  0.8472  1.1692
40219SOL     OW24058   2.087   4.381   0.388  0.3526 -0.4073  0.0602
40219SOL    HW124059   2.183   4.386   0.390  0.2831  1.5947  0.7668
40219SOL    HW224060   2.063   4.397   0.297  0.6528  1.4174  0.2648
40220SOL     OW24061   9.465   4.723   9.073  0.4211 -0.3717 -0.3093
40220SOL    HW124062   9.450   4.632   9.098 -0.2400 -0.7690 -2.0380
40220SOL    HW224063   9.383   4.750   9.031  0.9713  0.6967 -0.7317
40221SOL     OW24064   8.020   5.661   3.963  0.0196  0.1892  0.0755
40221SOL    HW124065   7.960   5.621   4.025 -0.5834  1.7551  0.5393
40221SOL    HW224066   7.985   5.638   3.877 -1.4040  1.2492  0.3326
40222SOL     OW24067  10.472   4.031   9.739  0.1412  0.0053  0.4620
40222SOL    HW124068  10.511   4.118   9.724  0.6915  0.1798  2.6313
40222SOL    HW224069  10.457   4.027   9.833  1.1369 -2.6739  0.5908
40223SOL     OW24070   6.868   3.434   3.809  0.0915 -0.4601  0.6605
40223SOL    HW124071   6.898   3.458   3.721  1.5130 -2.7050  0.4718
40223SOL    HW224072   6.792   3.491   3.824 -0.0010  0.2126 -1.8636
40224SOL     OW24073   9.479   1.937   8.077 -0.4521  0.2320 -0.0925
40224SOL    HW124074   9.388   1.963   8.093 -1.4606 -2.5271 -0.8085
40224SOL    HW224075   9.511   2.001   8.013 -2.1471  0.8216 -0.4012
40225SOL     OW24076   5.514   4.322  10.854  0.3136 -0.5623 -0.1328
40225SOL    HW124077   5.515   4.372  10.936  0.0854  0.0063 -0.4702
40225SOL    HW224078   5.431   4.274  10.857  1.1204 -1.9730  0.7966
40226SOL     OW24079   8.807   3.694   5.331 -0.4216 -0.3488  0.3889
40226SOL    HW124080   8.889   3.660   5.296 -0.2622  0.5286 -0.1051
40226SOL    HW224081   8.765   3.738   5.257  0.0615  1.8158  1.3274
40227SOL     OW24082   7.731   7.601   8.771 -0.2325  1.2191 -0.1094
40227SOL    HW124083   7.685   7.655   8.707 -0.3233  2.6571  1.1153
40227SOL    HW224084   7.694   7.514   8.759 -0.5090  1.5210 -1.7451
40228SOL     OW24085   1.748   4.099   0.294 -0.6671 -0.0348  0.6322
40228SOL    HW124086   1.830   4.050   0.283 -0.2529  0.3874  1.7081
40228SOL    HW224087   1.731   4.137   0.207  0.6532  0.4546  0.5623
40229SOL     OW24088   2.518   4.078   4.110 -0.1614 -0.3622 -0.0457
40229SOL    HW124089   2.478   4.162   4.087  1.4641  0.3981 -0.2790
40229SOL    HW224090   2.538   4.037   4.026  0.7253 -0.1209  0.0357
40230SOL     OW24091  10.106   5.613   4.042 -0.0697 -0.5669  0.5047
40230SOL    HW124092  10.160   5.653   4.110  0.4210 -0.1488 -0.1207
40230SOL    HW224093  10.168   5.576   3.980 -0.5150 -0.9439  0.2696
40231SOL     OW24094   6.306   8.008   4.380  0.0643  0.1851  0.5253
40231SOL    HW124095   6.235   7.946   4.367  0.4135 -0.2534  0.6592
40231SOL    HW224096   6.378   7.974   4.326  0.1979  0.5761  0.4518
40232SOL     OW24097   8.997   0.393   6.381 -0.0653  0.4869  0.3174
40232SOL    HW124098   9.063   0.362   6.319 -0.8003 -0.1226 -0.1764
40232SOL    HW224099   9.047   0.423   6.457  0.8878  1.6009 -0.7084
40233SOL     OW24100   9.460  10.111   7.291  0.4414  0.0572  0.3921
40233SOL    HW124101   9.517  10.171   7.243  0.8346  0.6564  1.5801
40233SOL    HW224102   9.455  10.148   7.379 -2.8854  0.8360  0.0321
40234SOL     OW24103   9.509   4.458   2.914  0.6112 -0.0868 -0.2552
40234SOL    HW124104   9.424   4.443   2.871 -0.6819  0.8909  1.7946
40234SOL    HW224105   9.529   4.550   2.898  0.6248  0.0196  0.3432
40235SOL     OW24106   6.350   8.039   9.841 -0.1488 -0.4778 -0.1774
40235SOL    HW124107   6.397   8.023   9.759  1.1330 -0.6160  0.5568
40235SOL    HW224108   6.357   8.133   9.854 -0.8386 -0.3781 -0.5011
40236SOL     OW24109   0.430   0.174   9.305 -0.2208  0.2325  0.4908
40236SOL    HW124110   0.410   0.110   9.374 -1.4423  1.1888  1.0741
40236SOL    HW224111   0.522   0.195   9.319 -1.0194  2.3875  3.6588
40237SOL     OW24112   4.638   7.098   4.259 -0.4218 -0.8715  0.3081
40237SOL    HW124113   4.593   7.014   4.256  0.6511 -1.4969  0.9174
40237SOL    HW224114   4.604   7.141   4.338  0.7943 -1.8049  1.3776
40238SOL     OW24115   2.790   4.075   0.584  0.4418  0.0574 -0.0237
40238SOL    HW124116   2.838   4.157   0.596  0.0486  0.1535  0.9239
40238SOL    HW224117   2.786   4.036   0.671 -3.1412  1.1351  0.4349
40239SOL     OW24118   3.122   7.471   8.879 -0.1741  0.1426  0.1673
40239SOL    HW124119   3.166   7.495   8.797 -0.2693 -0.5786 -0.1099
40239SOL    HW224120   3.189   7.483   8.946  0.9874 -2.3505 -0.4247
40240SOL     OW24121   2.589   9.385   5.128  0.1506  0.3082 -0.0878
40240SOL    HW124122   2.625   9.313   5.179  0.2068  0.1554 -0.3391
40240SOL    HW224123   2.616   9.366   5.038 -2.0348 -0.7794 -0.5885
40241SOL     OW24124   2.945   6.153   6.674 -0.1693  0.3425  0.0975
40241SOL    HW124125   2.961   6.207   6.596 -0.0901  0.8991  0.4975
40241SOL    HW224126   3.002   6.189   6.741  0.1333 -0.4546  0.2810
40242SOL     OW24127   0.034  10.531   5.934  0.3408 -0.3657  0.6859
40242SOL    HW124128   0.066  10.447   5.968 -0.3762 -0.0666  2.2074
40242SOL    HW224129  -0.055  10.512   5.904  0.5669 -0.3760  0.0067
40243SOL     OW24130  10.032   1.447   7.385  0.3099 -0.0907 -0.0974
40243SOL    HW124131  10.043   1.531   7.430  0.4395 -0.7754  1.1883
40243SOL    HW224132   9.973   1.397   7.442 -1.4001 -0.1772 -1.8193
40244SOL     OW24133   3.298   3.254   7.105 -0.8361  0.9786  0.3522
40244SOL    HW124134   3.374   3.312   7.101  0.9805 -1.3238 -0.7840
40244SOL    HW224135   3.232   3.305   7.152  1.4807  2.9900  1.6855
40245SOL     OW24136   2.234   3.990  10.433 -0.0700  0.1116  0.4934
40245SOL    HW124137   2.214   3.900  10.457 -0.1294 -0.2273 -0.7681
40245SOL    HW224138   2.209   3.997  10.341  0.8365  1.1354  0.2983
40246SOL     OW24139   3.706   0.171   2.015  0.1663 -0.4171 -0.5695
40246SOL    HW124140   3.775   0.120   2.057 -0.4523 -1.8841 -1.2849
40246SOL    HW224141   3.637   0.108   1.996 -0.2087  0.4778 -2.4231
40247SOL     OW24142   2.236   9.611   7.820  0.3632  0.2904  0.1157
40247SOL    HW124143   2.213   9.545   7.754  0.4311 -0.3949  0.7669
40247SOL    HW224144   2.262   9.560   7.896  3.9076  1.0021 -0.4769
40248SOL     OW24145   5.007   6.988   5.509  0.1212  0.4253  0.3316
40248SOL    HW124146   4.913   6.998   5.490  0.0378 -0.6058  0.1411
40248SOL    HW224147   5.017   6.895   5.529  0.8506  0.7956  1.8208
40249SOL     OW24148   0.977   2.840   8.754 -0.1295  0.3341 -0.1683
40249SOL    HW124149   1.044   2.772   8.765 -0.8763 -0.2528  0.9624
40249SOL    HW224150   0.895   2.795   8.773 -1.0359  0.6880 -2.9278
40250SOL     OW24151   1.407   3.555   9.385 -0.5287  0.0687 -0.4509
40250SOL    HW124152   1.330   3.566   9.329 -0.7313  0.3546 -0.1150
40250SOL    HW224153   1.377   3.577   9.473 -0.4520 -1.2662 -0.0619
40251SOL     OW24154   8.542   0.334  10.371  0.2146 -0.6314  0.0228
40251SOL    HW124155   8.548   0.430  10.374  0.6932 -0.6493 -0.2174
40251SOL    HW224156   8.563   0.312  10.280  0.8020 -1.0090  0.2484
40252SOL     OW24157   0.702  10.081   2.370  0.2820  0.0491  0.3224
40252SOL    HW124158   0.753  10.162   2.368 -1.0274  0.9048 -0.2744
40252SOL    HW224159   0.725  10.040   2.454 -0.5240  2.0632  1.5986
40253SOL     OW24160   1.512   3.854   4.627  0.0634 -0.0181 -0.2105
40253SOL    HW124161   1.531   3.907   4.549 -1.3334  0.5238 -0.2169
40253SOL    HW224162   1.596   3.843   4.670  0.6581  0.7417 -1.1439
40254SOL     OW24163  10.851   3.329   5.254  0.4823 -0.1165 -0.3890
40254SOL    HW124164  10.945   3.339   5.242  0.2920  0.0675 -2.0362
40254SOL    HW224165  10.841   3.287   5.339  2.0790 -0.7361 -0.4849
40255SOL     OW24166   5.513   1.604   9.477  0.2171 -0.0373 -0.2693
40255SOL    HW124167   5.602   1.596   9.511  0.0905 -1.1768 -0.1619
40255SOL    HW224168   5.486   1.514   9.460 -1.0819  0.2536  0.1300
40256SOL     OW24169   9.435   4.196   7.709  0.0192  0.2833  0.4442
40256SOL    HW124170   9.411   4.104   7.720  0.7362  0.1099  0.5856
40256SOL    HW224171   9.496   4.196   7.636 -0.2242  0.6936  0.2381
40257SOL     OW24172   6.044   0.834   3.388  0.7743 -0.1452 -0.3791
40257SOL    HW124173   6.099   0.844   3.310  0.7715 -1.7657 -0.6337
40257SOL    HW224174   6.072   0.904   3.446 -1.1633  2.9851 -2.8771
40258SOL     OW24175   6.291   0.389   5.593 -0.4232  0.1628  0.8384
40258SOL    HW124176   6.196   0.397   5.585 -0.7393 -2.6362  0.7262
40258SOL    HW224177   6.304   0.312   5.648  1.8218  0.9657  1.5442
40259SOL     OW24178   8.183   7.312   8.811  0.3642 -0.3356 -0.1429
40259SOL    HW124179   8.103   7.261   8.827  0.9690 -1.9240 -1.8876
40259SOL    HW224180   8.248   7.273   8.870  0.2881 -0.1502  0.0657
40260SOL     OW24181   5.948   5.948   8.363 -0.3603  0.1252  0.3828
40260SOL    HW124182   5.909   5.935   8.449 -1.9786 -0.7959 -0.4333
40260SOL    HW224183   5.940   5.863   8.320 -0.3142  0.7620 -0.9464
40261SOL     OW24184   0.362   2.731   2.372 -0.7097 -0.5074  0.3687
40261SOL    HW124185   0.272   2.700   2.378 -0.2708 -1.6116  1.6064
40261SOL    HW224186   0.383   2.761   2.461  0.0906 -0.0879  0.0489
40262SOL     OW24187   6.022   4.157   0.044 -0.0870  0.0755 -0.1934
40262SOL    HW124188   5.987   4.088   0.100  0.8955 -0.9991 -0.8718
40262SOL    HW224189   5.953   4.173  -0.020 -0.4324 -0.0703  0.1362
40263SOL     OW24190   3.374   0.239   5.947 -0.1480 -0.3281 -0.3677
40263SOL    HW124191   3.417   0.263   6.029 -1.6163  1.4504 -0.0545
40263SOL    HW224192   3.286   0.274   5.955 -0.4651 -0.4905 -2.5453
40264SOL     OW24193   7.640   0.590   2.660 -0.8812  0.1173 -0.3759
40264SOL    HW124194   7.711   0.623   2.605 -1.8602  1.6137 -0.8329
40264SOL    HW224195   7.630   0.657   2.728 -1.5138 -0.3260 -0.0280
40265SOL     OW24196   5.141   3.280   0.206  0.1416 -0.1431 -0.3773
40265SOL    HW124197   5.228   3.305   0.175  1.3247 -1.8811  1.2459
40265SOL    HW224198   5.131   3.328   0.289 -0.3025 -0.2275 -0.3799
40266SOL     OW24199   3.685   6.068   0.914  0.3984  0.0848 -0.0153
40266SOL    HW124200   3.741   6.000   0.953  1.4595  1.4617  0.9554
40266SOL    HW224201   3.650   6.116   0.989  0.1784  0.9962 -0.6853
40267SOL     OW24202   4.949   9.626   2.955 -0.0682 -0.0387 -0.6198
40267SOL    HW124203   4.877   9.604   2.895  0.1478  0.4889 -1.0803
40267SOL    HW224204   4.998   9.694   2.909  0.0803  0.4001  0.1737
40268SOL     OW24205   5.097   7.629   2.406 -0.0451 -0.2601  0.7994
40268SOL    HW124206   5.047   7.551   2.384  0.7546 -0.9118  1.2567
40268SOL    HW224207   5.046   7.673   2.474  0.1004 -1.0340  1.4179
40269SOL     OW24208   2.906   6.582   7.632  0.1689  0.6311 -0.2694
40269SOL    HW124209   2.976   6.646   7.632 -0.0187  0.8396 -0.1438
40269SOL    HW224210   2.917   6.534   7.715  1.2547 -0.5586 -1.0633
40270SOL     OW24211   9.684   9.782   7.544 -0.1380 -0.1075 -0.0793
40270SOL    HW124212   9.738   9.757   7.620  0.6489 -1.9173 -1.1608
40270SOL    HW224213   9.598   9.746   7.563  0.2246 -1.1223 -0.3023
40271SOL     OW24214   4.895   1.770   4.180  0.2372  0.1609 -0.6675
40271SOL    HW124215   4.865   1.697   4.126  1.4952  0.7660 -2.2500
40271SOL    HW224216   4.985   1.785   4.153  0.5632  1.2089  0.8594
40272SOL     OW24217   3.907   1.371   9.184  0.0862 -0.2881  0.5185
40272SOL    HW124218   3.821   1.350   9.149  0.2717 -0.7845  0.3567
40272SOL    HW224219   3.904   1.340   9.274 -0.3037  0.7605  0.8801
40273SOL     OW24220   2.635   9.177   4.461 -0.3069  0.2361  0.0400
40273SOL    HW124221   2.617   9.233   4.536  0.4092 -0.5183  0.7956
40273SOL    HW224222   2.724   9.145   4.476  0.7284  1.7630 -2.2123
40274SOL     OW24223   3.401   2.779   7.378 -0.3676 -0.5822 -0.4877
40274SOL    HW124224   3.443   2.788   7.292  1.0930 -0.3991  0.2255
40274SOL    HW224225   3.381   2.868   7.405  2.3733 -0.2647  0.8608
40275SOL     OW24226  10.238   5.934   7.523 -0.0437 -0.4288 -0.3442
40275SOL    HW124227  10.263   5.982   7.602  0.2897 -2.0462  0.5824
40275SOL    HW224228  10.291   5.854   7.526  0.4984 -0.2459 -2.5796
40276SOL     OW24229   0.607   4.120   8.898 -0.0396 -0.1443 -0.0565
40276SOL    HW124230   0.570   4.203   8.930  0.7235  0.0107  0.4303
40276SOL    HW224231   0.642   4.078   8.976  1.8468  0.2327 -0.6430
40277SOL     OW24232   8.792  10.916   4.023  0.0550 -0.0866  0.0945
40277SOL    HW124233   8.800  10.850   4.092  1.0552 -0.4320 -0.3349
40277SOL    HW224234   8.750  10.870   3.951  1.5575 -0.5528 -0.5345
40278SOL     OW24235   5.027   9.499   8.233  0.2397 -0.2790 -0.4060
40278SOL    HW124236   5.031   9.410   8.268  0.2991 -0.6671 -1.3532
40278SOL    HW224237   5.053   9.555   8.306  1.3283 -1.1209 -0.1112
40279SOL     OW24238   6.941   6.597   4.639  0.3477 -0.1951 -0.0990
40279SOL    HW124239   6.869   6.650   4.604  0.3215  0.3405  0.7183
40279SOL    HW224240   6.917   6.507   4.621 -0.4822 -0.0094  0.0591
40280SOL     OW24241   2.446   7.461   3.201  0.6713  0.2411 -0.2546
40280SOL    HW124242   2.369   7.517   3.190 -0.3232 -1.1037 -0.4092
40280SOL    HW224243   2.420   7.376   3.165  2.2941 -0.2128 -0.4693
40281SOL     OW24244  10.549   3.948   0.664  0.3108 -0.0534  0.7997
40281SOL    HW124245  10.485   3.979   0.599  2.0309 -2.7003 -2.4511
40281SOL    HW224246  10.510   3.868   0.699 -0.6583  1.4193  3.3195
40282SOL     OW24247   0.993   3.871   6.279  0.2662  0.7318 -0.1586
40282SOL    HW124248   0.948   3.953   6.257  0.9022  1.2651  0.5209
40282SOL    HW224249   1.085   3.894   6.283  0.9110 -0.7246 -3.3608
40283SOL     OW24250   9.365   6.975   5.879 -0.0290  0.0412  0.4572
40283SOL    HW124251   9.307   6.913   5.834 -1.0881  1.9453 -0.9528
40283SOL    HW224252   9.334   6.974   5.970 -2.3191  0.9014 -0.2170
40284SOL     OW24253   3.381   7.188   6.339  0.0218  0.3796 -0.3157
40284SOL    HW124254   3.366   7.266   6.393 -2.0459  0.0731 -0.3607
40284SOL    HW224255   3.294   7.164   6.307  0.7635 -1.3294 -1.1871
40285SOL     OW24256   2.934   7.219   0.023  0.0432  0.0756  0.2325
40285SOL    HW124257   2.989   7.284   0.066 -0.9929  0.5751  0.8621
40285SOL    HW224258   2.894   7.267  -0.050 -0.0011 -0.1197  0.1285
40286SOL     OW24259   7.054   7.698   3.636  0.0256  0.2177 -0.0534
40286SOL    HW124260   7.006   7.616   3.646  1.0741 -0.4054 -0.0690
40286SOL    HW224261   7.046   7.720   3.543  1.5177 -0.9890 -0.4962
40287SOL     OW24262   3.997   6.954  10.301 -0.3091 -0.1683  0.0544
40287SOL    HW124263   3.934   6.985  10.237 -0.3407 -1.2541 -0.4689
40287SOL    HW224264   3.944   6.904  10.364 -0.0220 -0.8584 -0.2406
40288SOL     OW24265  10.302   2.842   9.902 -0.2703 -0.3789  0.1338
40288SOL    HW124266  10.255   2.761   9.882 -5.4464  2.3998 -0.5754
40288SOL    HW224267  10.290   2.897   9.824 -0.0403  2.2751  1.8262
40289SOL     OW24268   9.619   5.652   0.823 -0.5809 -0.2752  0.5662
40289SOL    HW124269   9.670   5.687   0.896 -0.3997 -0.9732  0.7809
40289SOL    HW224270   9.644   5.560   0.818  0.2963  0.0008 -1.1003
40290SOL     OW24271   8.177   2.231   3.870 -0.0671  0.1656  0.5414
40290SOL    HW124272   8.229   2.179   3.809 -0.0095  0.8268  0.0125
40290SOL    HW224273   8.090   2.190   3.868 -0.5762  1.1999 -1.3465
40291SOL     OW24274   8.324   7.640   1.547 -0.9861 -0.4059  0.3868
40291SOL    HW124275   8.315   7.729   1.579 -0.3967  0.2796 -1.2438
40291SOL    HW224276   8.236   7.615   1.520 -0.9491  0.1527 -0.2775
40292SOL     OW24277   6.222   4.705  10.434  0.1711  0.0773  1.0648
40292SOL    HW124278   6.286   4.653  10.482  0.4873 -0.4103  0.1391
40292SOL    HW224279   6.147   4.647  10.423  0.5443 -0.2354 -0.0176
40293SOL     OW24280   4.836   3.409   9.873  0.2097  0.1023  0.2716
40293SOL    HW124281   4.834   3.413   9.778 -0.5627 -0.0140  0.2739
40293SOL    HW224282   4.922   3.373   9.894  0.4713  0.3437 -0.3698
40294SOL     OW24283   8.831   6.367   9.596  0.0650  0.5860  0.1653
40294SOL    HW124284   8.783   6.285   9.582  0.7636  0.2020 -0.0540
40294SOL    HW224285   8.894   6.369   9.525  0.5591  0.9374  0.6113
40295SOL     OW24286   9.494   7.609  10.468 -0.2466  0.0624 -0.2043
40295SOL    HW124287   9.547   7.546  10.419  0.4337 -0.1403  0.7835
40295SOL    HW224288   9.505   7.585  10.560 -0.2842  1.3814  0.1658
40296SOL     OW24289   7.257   2.404   0.720  0.1995 -0.2930  0.4841
40296SOL    HW124290   7.251   2.458   0.641  0.8567 -1.9831 -0.7831
40296SOL    HW224291   7.333   2.348   0.705 -0.0985 -1.1604  2.0099
40297SOL     OW24292   3.466   7.303   4.895  0.2995 -0.0478 -0.0222
40297SOL    HW124293   3.431   7.232   4.948 -0.0087  1.4907  2.0032
40297SOL    HW224294   3.495   7.262   4.814 -1.7616 -2.1218  0.1991
40298SOL     OW24295   9.201   5.611   3.570  0.3132 -0.0102  0.5325
40298SOL    HW124296   9.260   5.687   3.570  2.4980 -1.5907 -1.0604
40298SOL    HW224297   9.230   5.559   3.646  0.7279 -0.5700  0.0050
40299SOL     OW24298   8.359   8.347   7.979 -0.2156 -0.2555 -0.4254
40299SOL    HW124299   8.287   8.369   7.920  1.1209  2.4382 -1.2301
40299SOL    HW224300   8.422   8.300   7.924 -1.1790 -2.4180  0.2253
40300SOL     OW24301   9.752   7.806  10.290 -0.2040  0.4937  0.4215
40300SOL    HW124302   9.749   7.722  10.336 -0.6901  1.2215  1.7597
40300SOL    HW224303   9.663   7.819  10.258 -0.2680  0.7454  0.6948
40301SOL     OW24304   7.441   5.091   8.493 -0.0640 -0.1982 -0.1387
40301SOL    HW124305   7.375   5.158   8.509 -0.7640 -1.1509  1.0626
40301SOL    HW224306   7.445   5.084   8.397 -0.5310  0.9916 -0.2620
40302SOL     OW24307   2.049   0.586   9.875  0.1984  0.6507 -0.0458
40302SOL    HW124308   1.961   0.624   9.875 -0.4165 -0.7174 -0.0297
40302SOL    HW224309   2.092   0.626   9.951 -0.4764  1.1736  0.0729
40303SOL     OW24310   5.037   0.371   2.277  0.3317 -0.9414 -0.6972
40303SOL    HW124311   5.091   0.346   2.202  1.2141 -0.8515 -0.1114
40303SOL    HW224312   5.061   0.308   2.345  0.9354  0.1061  0.0885
40304SOL     OW24313   9.969   9.273   3.706  0.2503 -0.1911 -0.4748
40304SOL    HW124314   9.903   9.279   3.775  0.5649  0.4705 -0.2201
40304SOL    HW224315   9.934   9.326   3.634 -0.2044 -1.1005 -0.9448
40305SOL     OW24316   5.558   2.026   2.053  0.1070  0.1653 -0.7221
40305SOL    HW124317   5.643   1.992   2.078  1.0367  1.5651 -1.8244
40305SOL    HW224318   5.551   2.110   2.098 -1.4567 -0.6695  0.6982
40306SOL     OW24319   8.439   3.410   4.064  0.1103 -0.4005 -1.0457
40306SOL    HW124320   8.378   3.429   3.993  0.0185 -0.2173 -0.9217
40306SOL    HW224321   8.414   3.471   4.133  1.5312  0.8984 -1.6124
40307SOL     OW24322   1.765   3.637   5.252  0.4557 -0.1431 -0.3900
40307SOL    HW124323   1.779   3.552   5.211  1.7679 -1.1431  1.9932
40307SOL    HW224324   1.676   3.632   5.288  0.4688 -0.4052 -0.3982
40308SOL     OW24325   2.891   0.951   1.562 -0.5368 -0.2831  0.2116
40308SOL    HW124326   2.979   0.988   1.565 -0.6369  0.0453 -0.8010
40308SOL    HW224327   2.865   0.945   1.654  0.4964 -0.2878  0.5139
40309SOL     OW24328   6.805   1.137   2.841  0.1992 -0.3313  0.0932
40309SOL    HW124329   6.734   1.189   2.879 -0.4104 -0.1368 -1.2688
40309SOL    HW224330   6.837   1.084   2.914 -0.6834  0.2939  0.9619
40310SOL     OW24331   1.256   6.602   7.315 -0.7283 -0.2551  0.1266
40310SOL    HW124332   1.213   6.641   7.239  0.0930  0.0437 -0.2055
40310SOL    HW224333   1.296   6.522   7.281  1.8602  1.1426 -0.4661
40311SOL     OW24334   7.456   6.976   2.676 -0.0781 -0.8072 -0.6021
40311SOL    HW124335   7.458   7.022   2.760  2.6325 -1.9218  0.0542
40311SOL    HW224336   7.383   7.016   2.629 -1.4638  0.1442  2.0867
40312SOL     OW24337  10.008   4.542   6.688  0.4378  0.0135  0.3139
40312SOL    HW124338   9.942   4.610   6.700 -0.2832 -0.7675  0.9177
40312SOL    HW224339  10.089   4.590   6.668 -0.3213  0.9737 -0.5267
40313SOL     OW24340   2.395   1.032   7.968  0.2136 -0.3218  0.1259
40313SOL    HW124341   2.357   1.098   8.026 -1.2920  0.6996 -1.8770
40313SOL    HW224342   2.319   0.981   7.937  0.6850  0.2914 -2.2300
40314SOL     OW24343  10.839   2.429   7.670 -0.1753 -0.5950 -0.3385
40314SOL    HW124344  10.760   2.378   7.687  0.2682 -0.7380  1.4380
40314SOL    HW224345  10.881   2.437   7.755  0.6076  1.3683 -0.8646
40315SOL     OW24346   4.724   4.113   9.360  0.7027 -0.0001 -0.1379
40315SOL    HW124347   4.717   4.035   9.416  1.5012  0.3819  0.5075
40315SOL    HW224348   4.684   4.086   9.277 -1.2804 -0.3267  0.8639
40316SOL     OW24349   4.783   5.037  10.073  0.4631 -0.6646  0.1249
40316SOL    HW124350   4.863   5.072  10.113  0.6067  0.0593 -0.7594
40316SOL    HW224351   4.798   5.046   9.979 -0.5895 -0.6889 -0.0574
40317SOL     OW24352   7.550   2.336  10.598  0.0980 -0.8983 -0.3663
40317SOL    HW124353   7.606   2.372  10.529 -0.4836 -2.8242 -1.9617
40317SOL    HW224354   7.492   2.275  10.552 -2.4963  0.0805  1.3978
40318SOL     OW24355   0.738   8.048   3.860 -0.0405 -0.4758 -0.1580
40318SOL    HW124356   0.769   7.957   3.867 -0.2058 -0.6726 -1.7636
40318SOL    HW224357   0.722   8.061   3.767 -0.6197  1.0192  0.1279
40319SOL     OW24358   9.750   4.378  10.533 -0.0872 -0.6000 -0.3799
40319SOL    HW124359   9.734   4.287  10.506  1.2148 -0.5650 -1.3701
40319SOL    HW224360   9.779   4.372  10.623  2.6087 -1.4912 -1.2150
40320SOL     OW24361   0.278   8.155   2.220 -0.0672  0.1303 -0.2387
40320SOL    HW124362   0.275   8.075   2.273  0.2708 -1.1966 -2.1426
40320SOL    HW224363   0.370   8.169   2.200 -0.2977 -0.2049 -1.6321
40321SOL     OW24364   6.198   8.338   9.860 -0.0308  0.0006  0.0853
40321SOL    HW124365   6.135   8.266   9.863 -0.0786  0.0402  2.9380
40321SOL    HW224366   6.144   8.417   9.855 -0.0740 -0.0488 -0.2990
40322SOL     OW24367   8.779   3.280   9.936 -0.4091 -0.5594  0.0366
40322SOL    HW124368   8.693   3.294   9.896  0.1516  2.4589 -0.3883
40322SOL    HW224369   8.777   3.334  10.015  0.1457 -2.7526  1.6244
40323SOL     OW24370   2.596   8.048   3.868  0.2803  0.1542 -0.0087
40323SOL    HW124371   2.566   8.098   3.792  1.1302  0.6257 -0.0375
40323SOL    HW224372   2.686   8.024   3.848  0.2273 -0.4921  0.4707
40324SOL     OW24373   1.135   4.919   8.460  0.4153  0.0035 -0.2281
40324SOL    HW124374   1.075   4.869   8.405  0.5719 -0.3578 -0.0700
40324SOL    HW224375   1.123   4.883   8.548 -1.1790  1.7798  0.3458
40325SOL     OW24376   1.982   6.820  10.212  0.3627 -0.0566  0.0556
40325SOL    HW124377   2.027   6.863  10.285  0.7063  0.0301 -0.2038
40325SOL    HW224378   1.919   6.761  10.254  0.2773  0.2884  0.4168
40326SOL     OW24379   8.126   1.858   8.029  0.1803  0.2133  0.4249
40326SOL    HW124380   8.195   1.856   8.096  1.2645  0.7150 -0.6287
40326SOL    HW224381   8.047   1.883   8.076  0.8471  0.2143  1.5696
40327SOL     OW24382   9.051   4.707   8.842 -1.0584 -0.0335 -0.0327
40327SOL    HW124383   9.035   4.613   8.834 -0.8044 -0.3906  2.6983
40327SOL    HW224384   9.070   4.736   8.752 -0.8489 -2.6083 -0.9068
40328SOL     OW24385   4.015   4.155  10.567 -0.4771  0.3099  0.2700
40328SOL    HW124386   4.035   4.232  10.513  1.4304 -1.2170 -1.3404
40328SOL    HW224387   3.929   4.126  10.536 -0.2807  0.6072 -0.5899
40329SOL     OW24388   0.255   0.544   7.823 -0.0259 -0.9506  0.3355
40329SOL    HW124389   0.252   0.635   7.793 -2.3901 -0.7786  0.8906
40329SOL    HW224390   0.275   0.550   7.916  1.3788 -1.1312  0.0676
40330SOL     OW24391   3.903   2.680   6.697  0.0063  0.4410 -0.3394
40330SOL    HW124392   3.986   2.699   6.743  2.1712 -0.5571 -3.4941
40330SOL    HW224393   3.901   2.585   6.690 -0.8849  0.5153 -1.2457
40331SOL     OW24394   7.406   7.165   5.252  0.5236  0.1547 -0.2295
40331SOL    HW124395   7.355   7.239   5.286  0.2680  0.1531 -0.6009
40331SOL    HW224396   7.493   7.202   5.234  0.1471  0.5924 -1.2576
40332SOL     OW24397   4.259   3.627   3.763  0.4930  0.0539  0.6199
40332SOL    HW124398   4.321   3.689   3.723  1.3867 -1.5881 -0.6387
40332SOL    HW224399   4.310   3.548   3.777 -1.0949 -1.0325  0.4585
40333SOL     OW24400   0.270   3.965   6.224 -0.6955  0.0117  0.0517
40333SOL    HW124401   0.205   3.907   6.184  1.6102 -1.4408 -1.8309
40333SOL    HW224402   0.283   3.930   6.312 -2.0748  0.0348  0.2830
40334SOL     OW24403   2.267   9.159   7.062 -0.5038 -0.2068 -0.1720
40334SOL    HW124404   2.266   9.249   7.094 -3.4120 -0.8435  1.9179
40334SOL    HW224405   2.314   9.110   7.129  2.4267 -0.1506 -2.0313
40335SOL     OW24406   5.207   0.342   6.758  0.0693  0.1946 -0.2948
40335SOL    HW124407   5.267   0.274   6.726  0.5471 -0.4991  1.8691
40335SOL    HW224408   5.255   0.385   6.829 -1.9282 -0.4264  1.5762
40336SOL     OW24409   3.772   6.822   9.183 -0.1839  0.2859  0.5104
40336SOL    HW124410   3.765   6.812   9.088  1.4514  1.4397  0.2412
40336SOL    HW224411   3.685   6.854   9.210 -1.3403 -2.0079 -0.2665
40337SOL     OW24412   5.643   3.999  10.477  0.2016  0.1674 -0.1444
40337SOL    HW124413   5.635   3.944  10.399 -0.4312  0.6123 -0.3998
40337SOL    HW224414   5.557   3.994  10.518 -0.2485  1.9217 -0.8135
40338SOL     OW24415   4.260   1.741   9.781  0.2062 -0.1587  0.1653
40338SOL    HW124416   4.239   1.660   9.829  0.0761 -0.9365 -1.1461
40338SOL    HW224417   4.354   1.733   9.762 -0.0475 -0.6125 -1.0088
40339SOL     OW24418   1.277   3.952   0.512  0.4826  0.4940  0.1262
40339SOL    HW124419   1.346   3.933   0.447 -0.0133  0.4987 -0.4123
40339SOL    HW224420   1.196   3.938   0.464  0.0138 -2.6932  1.6276
40340SOL     OW24421   7.939   3.068   6.270 -0.3268 -0.1791  0.0329
40340SOL    HW124422   7.917   3.119   6.192 -0.2557 -1.7566 -1.0419
40340SOL    HW224423   7.969   2.984   6.237 -0.3367 -0.9069  1.7694
40341SOL     OW24424  10.579  10.482   8.763 -0.6173 -0.1212  0.5283
40341SOL    HW124425  10.601  10.390   8.756 -2.6341 -0.8351  2.4213
40341SOL    HW224426  10.575  10.513   8.672 -1.8778 -2.4300 -0.2923
40342SOL     OW24427   1.083   4.785  10.288 -0.6526 -0.1185  0.8180
40342SOL    HW124428   1.168   4.822  10.263  0.5948 -3.0527  0.3928
40342SOL    HW224429   1.064   4.825  10.373  1.7448 -0.2486  1.4805
40343SOL     OW24430   9.711   5.331   0.690  0.9318  0.1032  0.1210
40343SOL    HW124431   9.745   5.242   0.683 -0.6887 -0.4872 -0.9439
40343SOL    HW224432   9.713   5.351   0.784 -0.1330 -1.6982  0.5680
40344SOL     OW24433   2.403   1.838  10.225 -0.8350 -0.3966  0.0792
40344SOL    HW124434   2.435   1.791  10.303 -1.1523 -0.3420  0.2438
40344SOL    HW224435   2.312   1.811  10.217 -0.1909 -2.3015 -1.6787
40345SOL     OW24436   0.783   5.254   8.352  0.2082  0.0072  0.5613
40345SOL    HW124437   0.793   5.181   8.291  0.3825  0.5233 -0.0463
40345SOL    HW224438   0.857   5.245   8.412  0.2621 -0.2806  0.4543
40346SOL     OW24439  10.790   9.041   9.100  0.2562 -0.3123  0.5250
40346SOL    HW124440  10.871   9.068   9.144 -0.1715 -1.0971  1.8578
40346SOL    HW224441  10.815   8.963   9.051  0.9115  0.9833 -1.3304
40347SOL     OW24442   7.825   3.596   9.773  0.2008 -0.3920  0.6352
40347SOL    HW124443   7.769   3.530   9.815 -0.0055 -1.7159 -1.5315
40347SOL    HW224444   7.763   3.653   9.726  0.5453 -1.1511 -0.8049
40348SOL     OW24445   4.391   9.146   9.694 -0.2184 -0.0754 -0.4324
40348SOL    HW124446   4.332   9.095   9.749 -0.8053  0.3442 -0.6741
40348SOL    HW224447   4.442   9.198   9.756  0.5676 -1.1324 -0.1674
40349SOL     OW24448  10.168   7.293   0.631  0.5090  0.0333 -0.1039
40349SOL    HW124449  10.224   7.216   0.645  0.0892 -0.1222  0.8293
40349SOL    HW224450  10.220   7.351   0.577  1.2249 -0.4937 -0.0012
40350SOL     OW24451   3.004   4.523   2.689  0.3629 -0.2610 -0.4102
40350SOL    HW124452   3.041   4.606   2.720  2.3289 -1.3180  0.2792
40350SOL    HW224453   2.986   4.538   2.596  0.2178  1.0737 -0.1824
40351SOL     OW24454   7.383   1.449   3.665 -0.5627  0.1334 -0.3188
40351SOL    HW124455   7.293   1.427   3.641 -0.8636  0.6001  0.3450
40351SOL    HW224456   7.413   1.508   3.594 -1.0363  0.5651 -0.1636
40352SOL     OW24457   3.638   4.890   7.873  0.3467  0.2412 -0.6993
40352SOL    HW124458   3.677   4.821   7.819 -1.2270 -0.1412 -1.4112
40352SOL    HW224459   3.711   4.946   7.898  1.4297 -0.8120 -1.4090
40353SOL     OW24460   4.685   4.470   0.358  0.0440 -0.4264 -0.5243
40353SOL    HW124461   4.767   4.468   0.310  0.6542 -1.2320  0.4986
40353SOL    HW224462   4.638   4.392   0.329  0.5122 -1.0376  0.3253
40354SOL     OW24463   4.887   5.965   5.843 -0.0244  0.2153  0.0644
40354SOL    HW124464   4.867   5.911   5.766  1.2867 -0.9191  0.4805
40354SOL    HW224465   4.832   6.043   5.832  0.8981  0.6181 -2.5894
40355SOL     OW24466   4.906   1.826   8.549  0.0645  0.3181 -0.0784
40355SOL    HW124467   4.931   1.735   8.534  0.0699  0.1300  1.0272
40355SOL    HW224468   4.886   1.859   8.461  0.7855 -0.5247 -0.5875
40356SOL     OW24469   7.275   8.196   8.925  0.0502 -0.0188  0.0718
40356SOL    HW124470   7.272   8.102   8.908 -1.3065  0.0582 -0.2680
40356SOL    HW224471   7.307   8.204   9.015  1.2735 -0.7387 -0.2864
40357SOL     OW24472  10.544   2.526   7.406 -0.4953  0.5507 -0.0626
40357SOL    HW124473  10.549   2.433   7.385  0.0354  0.5148  0.2210
40357SOL    HW224474  10.615   2.566   7.356  0.4702  0.5361  1.2620
40358SOL     OW24475   0.532  10.678   0.780  0.2040  0.3669  0.5277
40358SOL    HW124476   0.500  10.614   0.716 -1.3699  0.0699  1.5697
40358SOL    HW224477   0.545  10.627   0.860  2.8096  0.5959  0.3304
40359SOL     OW24478   1.150   9.377   8.219  0.0520  0.1022  0.6906
40359SOL    HW124479   1.183   9.385   8.130  1.4130 -0.3817  1.1252
40359SOL    HW224480   1.108   9.291   8.222 -2.0177  1.0402 -0.0814
40360SOL     OW24481   0.682   0.564   2.396  0.2727 -0.5160 -0.0776
40360SOL    HW124482   0.625   0.512   2.451  0.7013 -0.5010  0.3892
40360SOL    HW224483   0.626   0.596   2.326 -0.1189 -1.1234 -0.0454
40361SOL     OW24484   5.932  10.885   4.135 -0.3813  0.2725  0.3030
40361SOL    HW124485   5.950  10.912   4.045  0.9213 -1.3426  0.0468
40361SOL    HW224486   5.850  10.835   4.129 -0.6365  0.7022  0.1367
40362SOL     OW24487   6.896   0.830   9.331  0.1696 -0.0597  0.0292
40362SOL    HW124488   6.807   0.857   9.311  0.4076  1.2265  0.6305
40362SOL    HW224489   6.895   0.813   9.426  0.4381 -0.5911 -0.0562
40363SOL     OW24490  10.896  10.187   4.998 -0.4276  0.2656 -0.0574
40363SOL    HW124491  10.905  10.095   4.974  2.9826  0.7052 -0.9482
40363SOL    HW224492  10.822  10.218   4.945 -0.5430 -1.5452 -1.0445
40364SOL     OW24493   8.161   7.854   8.153 -0.5424 -0.5968  0.2471
40364SOL    HW124494   8.169   7.899   8.237  0.1931  0.2016 -0.2317
40364SOL    HW224495   8.239   7.881   8.104  0.4913 -3.1517  0.2774
40365SOL     OW24496   0.468   4.926   2.842 -0.0284 -0.3147 -0.0626
40365SOL    HW124497   0.380   4.932   2.806 -0.3512  0.1097  0.7724
40365SOL    HW224498   0.455   4.921   2.937  0.7817 -1.8814 -0.0058
40366SOL     OW24499   2.468   7.867   7.760  0.0939  0.2368  0.0686
40366SOL    HW124500   2.374   7.879   7.776  0.2106 -0.9929  2.1784
40366SOL    HW224501   2.510   7.941   7.804  0.1113  1.4660 -1.9224
40367SOL     OW24502   8.117   6.013  10.723  0.0210 -0.2327 -0.4127
40367SOL    HW124503   8.139   5.926  10.758 -0.2807 -0.0719  0.1958
40367SOL    HW224504   8.198   6.064  10.735  0.1325 -0.3667 -0.5818
40368SOL     OW24505   8.941   9.589   6.321  0.0705  0.3522 -0.0758
40368SOL    HW124506   8.848   9.568   6.310 -0.2125  0.9947  0.9366
40368SOL    HW224507   8.968   9.537   6.397  0.3180  0.8186  0.1561
40369SOL     OW24508   8.953   8.033   7.472  0.5855 -0.4906 -0.6417
40369SOL    HW124509   8.920   8.072   7.391  1.1394  0.7995 -0.2806
40369SOL    HW224510   9.048   8.035   7.462  0.6497 -0.5611 -0.0658
40370SOL     OW24511   6.417  10.392   8.542  0.1406 -0.2437  0.3127
40370SOL    HW124512   6.437  10.410   8.634  0.8880  1.0893 -0.0821
40370SOL    HW224513   6.361  10.465   8.515  1.4078  0.3684 -0.7523
40371SOL     OW24514   2.843   2.234   1.831  0.5233 -0.9886  0.0312
40371SOL    HW124515   2.916   2.267   1.883  0.0160 -0.6708  0.5617
40371SOL    HW224516   2.773   2.218   1.895 -0.4176  0.2604 -0.6325
40372SOL     OW24517   7.719   8.790   2.132  0.2698  0.2657 -0.1326
40372SOL    HW124518   7.656   8.742   2.185 -0.0743 -0.4287 -1.1253
40372SOL    HW224519   7.666   8.833   2.065  0.9282 -2.6186 -2.7662
40373SOL     OW24520   0.170   5.420   7.457 -0.0567  0.0091 -0.4241
40373SOL    HW124521   0.164   5.337   7.410 -2.4263 -0.1349  0.0392
40373SOL    HW224522   0.212   5.397   7.541 -1.7787 -0.9913  0.2044
40374SOL     OW24523   4.263  10.089  10.840 -0.1532  0.2426  0.1031
40374SOL    HW124524   4.321  10.165  10.829  0.1513  0.2909  1.7048
40374SOL    HW224525   4.275  10.037  10.760  1.9344  0.3865  0.2633
40375SOL     OW24526   7.223   3.564   3.248  0.3121  0.4394 -0.4056
40375SOL    HW124527   7.294   3.511   3.209  0.6285  0.6612 -0.1330
40375SOL    HW224528   7.158   3.571   3.178 -0.3225 -1.3833 -0.0489
40376SOL     OW24529   6.009   9.969   2.485  0.1197  0.1636  0.4686
40376SOL    HW124530   6.009   9.891   2.542  0.1813 -1.2168 -1.3352
40376SOL    HW224531   5.917   9.997   2.484 -0.0985 -0.5234  0.3131
40377SOL     OW24532   4.332   5.476   7.024 -0.2400  0.0721 -0.4110
40377SOL    HW124533   4.282   5.456   6.945 -1.6328  1.0779  0.1765
40377SOL    HW224534   4.312   5.405   7.084  0.0788 -0.2024 -0.6246
40378SOL     OW24535   5.158   1.177  10.433  0.0919 -0.0258  0.5154
40378SOL    HW124536   5.124   1.263  10.458 -0.0570 -0.5128  2.0770
40378SOL    HW224537   5.206   1.146  10.510 -0.4102 -1.6068  0.2391
40379SOL     OW24538  10.386   9.321   3.566  0.3019  0.4598  0.3244
40379SOL    HW124539  10.339   9.296   3.646  0.6421  0.2696  0.4663
40379SOL    HW224540  10.450   9.251   3.553 -0.4462 -0.0584 -0.7015
40380SOL     OW24541   0.450   8.399   3.007 -0.1326 -0.0213  0.5641
40380SOL    HW124542   0.477   8.490   2.994  0.3829 -0.3924 -1.1035
40380SOL    HW224543   0.380   8.404   3.073 -1.0712  1.7376 -0.4973
40381SOL     OW24544   8.533   8.255   8.879  0.0251 -0.2987  0.5883
40381SOL    HW124545   8.576   8.267   8.963  1.8363 -0.5833 -0.2597
40381SOL    HW224546   8.534   8.160   8.865 -0.9326 -0.3187  0.5469
40382SOL     OW24547   2.801   0.956   6.079 -0.4662 -0.3130  0.1031
40382SOL    HW124548   2.773   0.927   5.993 -0.4457 -0.0222 -0.0045
40382SOL    HW224549   2.777   0.884   6.138 -3.0224  0.5477  0.2807
40383SOL     OW24550   5.983   2.406  10.432  0.5183  0.0475 -0.0120
40383SOL    HW124551   5.913   2.391  10.368 -0.7759  0.0466  1.3437
40383SOL    HW224552   6.031   2.324  10.435  1.3376  0.4086 -1.7934
40384SOL     OW24553   7.817   3.046   1.521 -0.1041  0.5211  0.2967
40384SOL    HW124554   7.829   2.978   1.588 -1.1973 -0.0742 -0.0775
40384SOL    HW224555   7.817   2.998   1.438  1.1730  1.2446 -0.1386
40385SOL     OW24556   4.503   3.140   1.132 -0.1427 -0.2706 -0.0991
40385SOL    HW124557   4.534   3.094   1.054  0.9480  1.9237 -1.0871
40385SOL    HW224558   4.581   3.146   1.188  0.1325  1.4382 -0.6018
40386SOL     OW24559   9.466   7.555   1.431 -0.5397  0.3506 -0.3797
40386SOL    HW124560   9.431   7.563   1.520 -1.1998 -0.9307 -0.5062
40386SOL    HW224561   9.492   7.464   1.423 -1.3988  0.1987 -1.8269
40387SOL     OW24562   6.620   4.046   0.539  0.3516 -0.0210  0.3043
40387SOL    HW124563   6.637   3.973   0.599  0.0302 -2.0501 -1.9546
40387SOL    HW224564   6.525   4.055   0.539  0.2826 -0.6076 -0.4902
40388SOL     OW24565   1.061   8.487   2.553 -0.2578  0.0231 -0.4306
40388SOL    HW124566   1.131   8.543   2.587  0.7085 -1.1531 -0.4164
40388SOL    HW224567   1.013   8.459   2.630  0.3775 -0.6145 -0.2613
40389SOL     OW24568   7.397   6.986   4.063 -0.0603  0.2833  0.1169
40389SOL    HW124569   7.396   6.962   3.970  1.1081 -0.7373  0.3505
40389SOL    HW224570   7.472   7.045   4.071 -0.1073  0.2987  0.4455
40390SOL     OW24571   9.370   9.457   7.820  0.0765 -0.4144  0.1433
40390SOL    HW124572   9.343   9.387   7.761  1.9661  0.1916 -1.5806
40390SOL    HW224573   9.459   9.478   7.792  0.2975  1.2946  1.9407
40391SOL     OW24574   8.597  10.389   2.959  0.0754 -0.2010 -0.3704
40391SOL    HW124575   8.686  10.368   2.929  0.1694 -0.3623  0.0020
40391SOL    HW224576   8.542  10.380   2.881  0.4044  0.0199 -0.6306
40392SOL     OW24577   1.832   1.136  10.084  0.3660  0.1084  0.5206
40392SOL    HW124578   1.880   1.056  10.064  0.2768  0.2191 -0.2022
40392SOL    HW224579   1.862   1.162  10.170  2.2530  0.6246 -0.2404
40393SOL     OW24580   3.293   6.050   7.777  0.4195  0.5262  0.0671
40393SOL    HW124581   3.250   6.090   7.701  1.8704  0.5214 -0.7960
40393SOL    HW224582   3.239   5.975   7.798 -0.1881  0.7119 -0.7697
40394SOL     OW24583   1.518   3.329   7.738  0.3447  0.0259  0.2485
40394SOL    HW124584   1.559   3.310   7.654  2.0713  1.6620  0.6409
40394SOL    HW224585   1.449   3.392   7.718  2.4155  2.4564  0.2343
40395SOL     OW24586   3.080   3.275   3.549  0.0800 -0.6089 -0.1108
40395SOL    HW124587   3.138   3.229   3.610 -1.2623 -0.2737  1.4914
40395SOL    HW224588   3.087   3.367   3.572  0.6649 -0.2768 -1.4827
40396SOL     OW24589   5.747  10.341   4.948  0.4296  0.1999 -0.6541
40396SOL    HW124590   5.797  10.417   4.976 -0.0403 -0.0701  1.0345
40396SOL    HW224591   5.659  10.355   4.985  0.6698 -1.7186  0.8060
40397SOL     OW24592   6.060   0.481   8.234 -0.1590  0.3123  0.2175
40397SOL    HW124593   6.087   0.473   8.326 -1.0619  0.1115  0.4699
40397SOL    HW224594   6.030   0.571   8.225 -1.2160 -0.0007  0.4470
40398SOL     OW24595   0.938   5.633   9.221  0.2888  0.5550 -0.0202
40398SOL    HW124596   1.030   5.622   9.200  0.0572 -0.7316 -0.4742
40398SOL    HW224597   0.897   5.660   9.138  0.3249  1.5796  0.2909
40399SOL     OW24598  10.463   8.818   1.985  0.7131  0.0113  0.0121
40399SOL    HW124599  10.385   8.774   2.019  0.4932 -0.2616 -0.8155
40399SOL    HW224600  10.493   8.873   2.057 -0.4321  0.3701  0.2375
40400SOL     OW24601   0.894  10.151   1.128 -0.5130  1.1927  0.5884
40400SOL    HW124602   0.811  10.159   1.175 -1.3898 -1.6731 -0.2019
40400SOL    HW224603   0.941  10.082   1.175  0.2106  0.9078 -0.5108
40401SOL     OW24604   2.377   4.836   4.855  0.2367 -0.2967  0.8721
40401SOL    HW124605   2.386   4.827   4.760 -0.9422  2.7386  0.3562
40401SOL    HW224606   2.423   4.917   4.876  0.8113 -1.0952  3.0227
40402SOL     OW24607   0.855   0.626   6.265 -0.2362  0.7017  0.2943
40402SOL    HW124608   0.808   0.696   6.310  1.0721  1.1938  0.9779
40402SOL    HW224609   0.901   0.580   6.336 -1.6331 -1.3399 -0.0497
40403SOL     OW24610   8.082  10.116   0.964  0.1415 -0.9041 -0.2279
40403SOL    HW124611   8.076  10.055   1.037  1.9686 -2.9236 -1.6288
40403SOL    HW224612   8.102  10.201   1.005 -1.4227 -1.4163  1.7075
40404SOL     OW24613   2.803   7.639   7.192  0.1799  0.1855  0.1121
40404SOL    HW124614   2.891   7.649   7.228 -0.5311  0.5054  1.8761
40404SOL    HW224615   2.780   7.726   7.159  0.5588  0.0651 -0.4890
40405SOL     OW24616   8.253   0.850   2.243  0.0411 -0.6652 -0.2327
40405SOL    HW124617   8.310   0.795   2.297 -0.7588 -2.4350 -1.1395
40405SOL    HW224618   8.313   0.905   2.193  0.8628 -0.8460  0.5331
40406SOL     OW24619   6.927   4.446  10.525 -0.3660 -0.3413 -0.0942
40406SOL    HW124620   6.853   4.408  10.572 -1.1479  0.8276 -0.3470
40406SOL    HW224621   6.913   4.418  10.434  0.3245 -1.3391  0.0865
40407SOL     OW24622   8.926   9.317   3.577  0.4861 -0.4666 -0.7292
40407SOL    HW124623   8.864   9.320   3.650  1.3723 -1.2582  0.0779
40407SOL    HW224624   8.935   9.408   3.549  0.5364 -0.0758  0.4959
40408SOL     OW24625   6.864   2.756  10.482  0.2122 -0.4464 -0.2631
40408SOL    HW124626   6.917   2.748  10.561 -3.2199 -1.7045  2.1237
40408SOL    HW224627   6.846   2.850  10.474 -0.2438 -0.4013  1.0845
40409SOL     OW24628   8.400   7.179   6.474 -0.5309  0.3886  0.3551
40409SOL    HW124629   8.435   7.175   6.563  0.0158  2.3571  0.2879
40409SOL    HW224630   8.318   7.129   6.477  0.9336 -2.1428  1.1681
40410SOL     OW24631   9.043   0.088   6.145 -0.7247  0.1973  0.2668
40410SOL    HW124632   9.019   0.180   6.148  0.0161  0.3631  1.9334
40410SOL    HW224633   9.081   0.069   6.231  0.1280 -1.3981 -0.4039
40411SOL     OW24634   4.516   1.643   5.450  0.0065 -0.1040  0.1008
40411SOL    HW124635   4.563   1.694   5.516 -1.0785 -0.3952  1.1219
40411SOL    HW224636   4.426   1.673   5.456 -0.5129 -1.6288  0.2079
40412SOL     OW24637   2.087   7.846   1.999  0.0235 -0.3379 -0.0400
40412SOL    HW124638   2.168   7.795   2.003 -0.6951 -1.5094  0.1985
40412SOL    HW224639   2.071   7.860   1.906  0.8323  0.4529 -0.0621
40413SOL     OW24640   5.854   4.353   5.173 -0.0857 -0.5027  0.1037
40413SOL    HW124641   5.811   4.405   5.104  0.7139  1.0970  0.7414
40413SOL    HW224642   5.875   4.270   5.131 -0.8023 -0.0674 -1.1857
40414SOL     OW24643   3.901   1.630   6.603 -0.2360  0.3075 -0.3211
40414SOL    HW124644   3.910   1.680   6.685  0.5481 -0.7430  0.2530
40414SOL    HW224645   3.979   1.652   6.553  0.1232 -0.3487 -0.0576
40415SOL     OW24646   2.376   0.461   8.020 -0.3233  0.0911 -0.4656
40415SOL    HW124647   2.289   0.495   7.997 -0.3355  0.1857 -0.2791
40415SOL    HW224648   2.421   0.536   8.058  0.6314  0.6849 -2.6028
40416SOL     OW24649   3.437   4.911  10.784 -0.3439  0.1078  0.3837
40416SOL    HW124650   3.465   4.947  10.700  0.0008 -2.3362 -0.6249
40416SOL    HW224651   3.500   4.945  10.847  2.4591 -1.8253 -1.1647
40417SOL     OW24652   9.397   4.082   6.566  0.4832  0.2948 -0.0998
40417SOL    HW124653   9.413   4.092   6.660 -0.4701  3.0312 -0.1324
40417SOL    HW224654   9.459   4.141   6.524 -0.3028  0.4796 -1.0549
40418SOL     OW24655  10.695   8.990  10.569  0.2480 -0.1407  0.5603
40418SOL    HW124656  10.774   8.949  10.604  0.0277 -0.2245  0.9753
40418SOL    HW224657  10.722   9.027  10.485  0.2478 -1.8546 -0.2297
40419SOL     OW24658  10.890   5.026   3.445 -0.0426 -0.2722  0.6727
40419SOL    HW124659  10.857   4.998   3.359 -1.4288 -2.1329  1.7289
40419SOL    HW224660  10.820   5.082   3.480  0.9708  1.3548  0.2297
40420SOL     OW24661   5.090   4.676   9.526 -0.1807  0.1568  0.3632
40420SOL    HW124662   5.063   4.698   9.615  0.2008  0.5886  0.3767
40420SOL    HW224663   5.169   4.729   9.511  2.0665 -2.7291  1.1646
40421SOL     OW24664   2.100   5.671   9.136  0.0348 -0.3525 -0.1819
40421SOL    HW124665   2.092   5.694   9.228 -0.5569 -2.2871  0.3025
40421SOL    HW224666   2.076   5.751   9.089 -0.3764  0.4516  1.3216
40422SOL     OW24667  10.286   9.680   6.136  0.3801  0.2092  0.0392
40422SOL    HW124668  10.312   9.676   6.044 -0.2481  0.2206 -0.1439
40422SOL    HW224669  10.203   9.728   6.135  0.9683  1.2720  0.7450
40423SOL     OW24670  10.511   0.747   6.726  0.5135  0.0720 -0.2228
40423SOL    HW124671  10.454   0.769   6.799  2.0050  1.3802  0.6001
40423SOL    HW224672  10.533   0.831   6.686  1.1345 -0.4822 -1.0941
40424SOL     OW24673   4.552  10.511   9.938  0.1270  0.4285 -0.2553
40424SOL    HW124674   4.489  10.449   9.899  1.2764 -0.1660 -1.2233
40424SOL    HW224675   4.635  10.491   9.896  0.8024  1.8068  0.3529
40425SOL     OW24676   1.684   9.311   0.670 -0.5945  0.4841  0.3024
40425SOL    HW124677   1.592   9.288   0.660 -0.9392  1.4670  1.0630
40425SOL    HW224678   1.710   9.270   0.752 -0.4058  0.3591  0.1798
40426SOL     OW24679   0.994   5.103   5.565  0.6633 -0.1728  0.0398
40426SOL    HW124680   1.020   5.013   5.582 -0.2082 -0.2257  1.1515
40426SOL    HW224681   0.931   5.124   5.634 -0.4782  0.7119 -1.2295
40427SOL     OW24682   8.843   5.887   0.692  0.4460 -0.0411 -0.0524
40427SOL    HW124683   8.846   5.958   0.628 -0.2352  0.9095  0.9345
40427SOL    HW224684   8.750   5.866   0.700  0.3287  0.9957  1.8150
40428SOL     OW24685   8.703   4.352   8.516 -0.1296  0.8891  0.4162
40428SOL    HW124686   8.758   4.419   8.475 -0.7618  1.3887  0.3655
40428SOL    HW224687   8.694   4.284   8.450  1.4164  0.2275  0.8530
40429SOL     OW24688   1.443   6.489   2.850 -0.3686  0.2446 -0.3237
40429SOL    HW124689   1.424   6.519   2.939  2.2446 -0.7062  0.6665
40429SOL    HW224690   1.422   6.564   2.795 -1.7951  0.9637  1.1051
40430SOL     OW24691   2.340  10.600   6.346  0.4432  0.0412 -0.1038
40430SOL    HW124692   2.420  10.590   6.295  0.6854 -0.7207  0.4054
40430SOL    HW224693   2.282  10.530   6.314  0.5455 -0.3541  0.5628
40431SOL     OW24694   7.694  10.648   1.723  0.3539 -0.2757  0.1155
40431SOL    HW124695   7.623  10.712   1.729  0.4304  0.0269 -1.6288
40431SOL    HW224696   7.658  10.569   1.764 -1.2063 -0.2733 -1.1482
40432SOL     OW24697   6.560   2.187   5.348  0.3622 -0.3023  0.4308
40432SOL    HW124698   6.651   2.159   5.337  0.3095 -0.7692  1.1098
40432SOL    HW224699   6.566   2.266   5.403  0.4793  0.8044 -1.1204
40433SOL     OW24700   3.528   1.189   5.986  0.5966  0.5837 -0.2423
40433SOL    HW124701   3.574   1.175   5.903  0.2789  0.0876 -0.3393
40433SOL    HW224702   3.598   1.202   6.050  0.8910 -0.4989 -0.3268
40434SOL     OW24703   1.447   5.233   4.861  0.2933  0.4860  0.2751
40434SOL    HW124704   1.434   5.241   4.956  1.4561  1.6084  0.3632
40434SOL    HW224705   1.475   5.142   4.849 -2.2079 -0.4057  0.6804
40435SOL     OW24706   7.584   1.807  10.751 -0.2906 -0.4560  0.0581
40435SOL    HW124707   7.625   1.778  10.670 -1.0061  0.9454 -0.8621
40435SOL    HW224708   7.552   1.895  10.730  0.9905  0.6366  2.3789
40436SOL     OW24709   6.396   7.130   4.369 -0.0402 -0.2616 -0.7011
40436SOL    HW124710   6.346   7.189   4.426  0.5150 -0.3101 -0.1466
40436SOL    HW224711   6.343   7.051   4.364 -1.5711  0.8050 -2.7232
40437SOL     OW24712   1.324   0.272   1.388 -0.1714  0.6141  0.0023
40437SOL    HW124713   1.408   0.287   1.432  0.2680  0.6916 -0.8289
40437SOL    HW224714   1.282   0.357   1.387  0.5051  0.9565 -1.0775
40438SOL     OW24715   2.867  10.830   1.723 -0.1395 -0.1151 -0.4496
40438SOL    HW124716   2.786  10.814   1.675 -0.8676 -0.2055  0.7801
40438SOL    HW224717   2.891  10.920   1.700 -2.2303  1.0183  1.4567
40439SOL     OW24718   4.681   0.165   2.441  0.1851  0.7629 -0.3825
40439SOL    HW124719   4.680   0.070   2.452 -0.7344  0.6822 -1.0347
40439SOL    HW224720   4.750   0.196   2.499 -0.5302 -0.1660  0.9945
40440SOL     OW24721   2.554   3.272   4.167 -0.3780 -0.3165  0.2019
40440SOL    HW124722   2.631   3.245   4.116 -0.3000  0.3338 -0.0406
40440SOL    HW224723   2.498   3.316   4.103 -0.1810  0.7055  0.7099
40441SOL     OW24724   9.453   7.587   3.343 -0.3757 -0.3413  0.1426
40441SOL    HW124725   9.484   7.675   3.322  3.0666 -1.2123  0.9786
40441SOL    HW224726   9.502   7.529   3.285  0.7453 -1.9410  2.5142
40442SOL     OW24727   5.481   7.869   4.111  0.4993 -0.0596  0.0266
40442SOL    HW124728   5.457   7.913   4.029 -2.8738 -1.1786  0.2605
40442SOL    HW224729   5.548   7.806   4.085  0.0164  0.1012 -1.7624
40443SOL     OW24730   4.622   0.399   6.887 -0.4760 -0.4194 -0.4801
40443SOL    HW124731   4.527   0.405   6.881 -0.4621 -1.2136 -2.8506
40443SOL    HW224732   4.639   0.319   6.936 -1.0201 -0.4531 -0.3471
40444SOL     OW24733   2.024   1.559   1.653  0.0592  0.2006 -0.0861
40444SOL    HW124734   2.026   1.484   1.594  0.3742  0.0996  0.0529
40444SOL    HW224735   2.097   1.613   1.625 -0.4367  0.6880 -0.4823
40445SOL     OW24736   9.820   7.783   7.287  0.1722  0.1671 -0.4985
40445SOL    HW124737   9.731   7.806   7.314 -0.0599  0.1538 -1.2144
40445SOL    HW224738   9.814   7.691   7.261  0.5870 -0.0693  0.2421
40446SOL     OW24739   0.273   8.109   3.558 -0.1710 -0.9996  0.2250
40446SOL    HW124740   0.309   8.172   3.620 -0.7235 -1.6249  1.2045
40446SOL    HW224741   0.343   8.043   3.548 -0.4882 -1.4740  1.0442
40447SOL     OW24742   1.501  10.414   0.080  0.0275  0.0536 -0.1747
40447SOL    HW124743   1.457  10.463   0.010  2.3105  1.0926 -0.9756
40447SOL    HW224744   1.577  10.468   0.103  0.1119 -0.9428  2.1785
40448SOL     OW24745   6.629   1.989   5.615  0.0080 -0.0426  0.2380
40448SOL    HW124746   6.688   2.041   5.559 -1.5536  0.5993 -0.8886
40448SOL    HW224747   6.663   1.900   5.608  0.8010  0.2933 -0.4520
40449SOL     OW24748   1.247   1.169   0.011 -0.0461 -0.3039  0.7232
40449SOL    HW124749   1.231   1.076   0.028  0.7631 -0.0991  2.9673
40449SOL    HW224750   1.197   1.215   0.079  0.1398  0.8825  0.0880
40450SOL     OW24751   2.020   4.029   0.311 -0.8482 -0.0338 -0.1878
40450SOL    HW124752   2.057   4.116   0.306 -0.6874 -0.0718  0.3610
40450SOL    HW224753   2.087   3.972   0.273 -0.3421 -0.0994  0.7766
40451SOL     OW24754   9.360   6.945   2.431 -0.4231  0.2427  0.1615
40451SOL    HW124755   9.315   7.012   2.380 -0.5527 -0.3539 -0.5214
40451SOL    HW224756   9.402   6.993   2.502 -0.1191  1.1080 -0.5856
40452SOL     OW24757  10.637   0.866   9.039  0.0739  0.1830  0.0274
40452SOL    HW124758  10.606   0.777   9.022  1.0607 -0.3299  0.7875
40452SOL    HW224759  10.616   0.914   8.959  1.3608 -1.2510 -1.2546
40453SOL     OW24760   7.900   6.778   5.326  0.4874  0.3609  0.0450
40453SOL    HW124761   7.852   6.840   5.381  2.4258  0.2406  2.0120
40453SOL    HW224762   7.887   6.810   5.237 -1.0812  1.7949  0.7332
40454SOL     OW24763   1.033   8.238   2.409  0.0975 -0.1071 -0.1209
40454SOL    HW124764   1.034   8.239   2.314 -0.4880  1.1355 -0.1366
40454SOL    HW224765   1.058   8.326   2.435  1.3575 -0.7338  0.9161
40455SOL     OW24766   3.539   7.839   1.584 -0.0372 -0.5372 -0.0227
40455SOL    HW124767   3.519   7.893   1.661  0.0866  0.7343 -0.8453
40455SOL    HW224768   3.614   7.786   1.611 -0.9962 -1.3349  1.2599
40456SOL     OW24769   9.050   3.642   8.505 -0.0417  0.1890  0.0193
40456SOL    HW124770   9.104   3.581   8.555 -0.0769  0.2544  0.1372
40456SOL    HW224771   9.103   3.721   8.498  0.0411  0.1140 -0.2125
40457SOL     OW24772   6.245   6.379   3.150  0.2017 -0.8740  0.2667
40457SOL    HW124773   6.227   6.302   3.204  0.4069  0.1938  1.9072
40457SOL    HW224774   6.212   6.452   3.201  0.6511  0.2058 -0.9518
40458SOL     OW24775   5.812  10.893   6.280 -0.1127  0.0233 -0.1607
40458SOL    HW124776   5.877  10.963   6.272  1.1957 -0.9583  1.3090
40458SOL    HW224777   5.794  10.888   6.374 -0.9284 -0.9666 -0.3538
40459SOL     OW24778  10.774   8.680   3.003  0.4622  0.5797  0.4238
40459SOL    HW124779  10.727   8.743   3.058  0.2367  1.5856 -0.8868
40459SOL    HW224780  10.748   8.702   2.914 -0.8249 -2.3058 -0.0365
40460SOL     OW24781   0.684   1.138   7.681  0.2007 -0.4957  0.6528
40460SOL    HW124782   0.701   1.059   7.630 -0.4860 -0.4184  0.2914
40460SOL    HW224783   0.591   1.131   7.705 -0.0832  0.5868 -0.0751
40461SOL     OW24784   7.818   3.492   9.383  0.1245  0.0659 -0.2880
40461SOL    HW124785   7.803   3.474   9.476  0.4020  0.8426 -0.0846
40461SOL    HW224786   7.890   3.432   9.359  0.7434  0.5688  0.2632
40462SOL     OW24787   6.216   7.652   3.322 -0.5226 -0.0723  0.1783
40462SOL    HW124788   6.124   7.627   3.332 -0.0233 -2.3213 -0.1831
40462SOL    HW224789   6.214   7.742   3.290 -2.6544 -0.5248 -1.1442
40463SOL     OW24790   0.816   2.797   6.071  0.7079  0.5199  0.8166
40463SOL    HW124791   0.764   2.719   6.052 -0.2972  1.2326  0.6188
40463SOL    HW224792   0.793   2.820   6.161 -0.8714  1.9928  0.0844
40464SOL     OW24793  10.509   1.295   7.136  0.6766 -0.7911  0.1010
40464SOL    HW124794  10.576   1.255   7.191  1.1316 -0.6141 -0.3247
40464SOL    HW224795  10.464   1.356   7.195  2.1944  0.5871 -0.0959
40465SOL     OW24796   5.737   8.543   9.958  0.6791  0.0598  0.4527
40465SOL    HW124797   5.801   8.614   9.949  1.1357 -0.5402 -1.5548
40465SOL    HW224798   5.670   8.562   9.893 -0.5943  0.0443  1.7328
40466SOL     OW24799   7.125   8.445   2.691  1.0688  0.7682 -0.3999
40466SOL    HW124800   7.104   8.370   2.636 -0.7542 -0.7046  2.1024
40466SOL    HW224801   7.109   8.414   2.780  2.1303  3.5687  0.8694
40467SOL     OW24802   8.832   7.468   1.360 -0.3710  0.0480 -0.3036
40467SOL    HW124803   8.873   7.453   1.274  2.4657  1.2165  0.7199
40467SOL    HW224804   8.738   7.473   1.341  0.1802  0.7017 -3.4138
40468SOL     OW24805   9.158   4.718   1.350 -0.4028  0.1355  0.0174
40468SOL    HW124806   9.238   4.666   1.340  0.7504  1.7708  0.3270
40468SOL    HW224807   9.094   4.676   1.293  0.2228 -2.0600  0.8256
40469SOL     OW24808   8.571   4.102   8.450 -0.1619  0.4676 -0.6076
40469SOL    HW124809   8.539   4.136   8.533  1.4024  1.9535 -0.5532
40469SOL    HW224810   8.572   4.007   8.461 -1.1343  0.5780  0.6048
40470SOL     OW24811   2.576   7.281   4.241 -0.1594  0.7895  0.0581
40470SOL    HW124812   2.497   7.317   4.202 -1.7978 -0.5646  1.9177
40470SOL    HW224813   2.597   7.205   4.186  0.1043  1.3723 -0.6639
40471SOL     OW24814   8.217   4.738   8.105  0.5660  0.0955 -0.1873
40471SOL    HW124815   8.155   4.675   8.070 -2.1216  3.5382 -2.2704
40471SOL    HW224816   8.193   4.745   8.198 -0.8559 -0.0837 -0.5147
40472SOL     OW24817   2.575   9.583   4.815 -0.3312  0.2641 -0.7385
40472SOL    HW124818   2.507   9.642   4.782 -1.3355 -0.4244  0.0151
40472SOL    HW224819   2.557   9.577   4.909  0.9872  0.3228 -0.4676
40473SOL     OW24820   0.879   6.390  10.769  0.6200  0.4626 -0.5173
40473SOL    HW124821   0.823   6.317  10.795  2.2177 -0.6535 -0.0403
40473SOL    HW224822   0.911   6.428  10.851 -0.3500  1.8602 -0.7544
40474SOL     OW24823   2.496   0.139   2.066 -0.3495  0.3000  0.2328
40474SOL    HW124824   2.510   0.093   2.149  0.3100  0.7179  0.3615
40474SOL    HW224825   2.413   0.185   2.078 -1.4087 -1.4274 -0.1695
40475SOL     OW24826   0.511   9.137   2.485  0.2817 -0.4165  0.1708
40475SOL    HW124827   0.595   9.158   2.525  0.0013  0.6023  0.2390
40475SOL    HW224828   0.531   9.065   2.425  1.1891 -0.2050  0.2026
40476SOL     OW24829   3.076   2.034  10.588  0.3331 -0.3500 -0.6917
40476SOL    HW124830   3.079   2.086  10.507  0.5749 -1.8560 -1.7033
40476SOL    HW224831   3.165   2.041  10.623  0.0292  0.9209 -0.1226
40477SOL     OW24832   4.156   7.374   2.120  0.1841  0.0003 -0.0162
40477SOL    HW124833   4.213   7.439   2.161 -0.0469 -0.5912  1.2870
40477SOL    HW224834   4.148   7.304   2.185 -1.2775 -0.3637 -0.5420
40478SOL     OW24835   8.416   0.018   0.965  0.2453 -0.2338 -0.5382
40478SOL    HW124836   8.466   0.071   1.027 -2.7423 -0.3247  2.1885
40478SOL    HW224837   8.475  -0.055   0.943  0.8606 -1.3885  3.9537
40479SOL     OW24838   8.031   0.046   5.344 -0.1560 -0.0494  0.3914
40479SOL    HW124839   7.952  -0.009   5.344  0.1793 -0.5433 -0.8361
40479SOL    HW224840   8.021   0.102   5.268  0.1420  0.6959  0.8900
40480SOL     OW24841   3.460   5.260   1.390 -0.1577 -0.2320  0.1077
40480SOL    HW124842   3.473   5.355   1.399  0.2269 -0.4181  1.7985
40480SOL    HW224843   3.546   5.222   1.406 -0.7470 -0.9583  1.7959
40481SOL     OW24844   6.369  10.774  10.283 -0.2750  0.0341 -0.1388
40481SOL    HW124845   6.307  10.810  10.220 -0.5099  1.9397  1.0981
40481SOL    HW224846   6.318  10.710  10.333 -0.8223  0.4682 -0.1312
40482SOL     OW24847   4.205   4.815   0.089 -0.5400  0.4298  0.1784
40482SOL    HW124848   4.138   4.773   0.144 -0.4940 -0.4502 -0.4129
40482SOL    HW224849   4.227   4.748   0.024 -2.4927  2.3228 -2.6104
40483SOL     OW24850  10.149   7.738   2.214  0.3049 -0.3583  0.2563
40483SOL    HW124851  10.163   7.832   2.198  0.5525 -0.5182 -0.5172
40483SOL    HW224852  10.193   7.695   2.141  2.4312 -1.2061  1.9231
40484SOL     OW24853   0.193   4.355   1.745 -0.2767  0.7320 -0.1330
40484SOL    HW124854   0.230   4.322   1.663 -1.1299 -0.9956  0.1327
40484SOL    HW224855   0.143   4.281   1.780 -0.3148  1.5897  1.7149
40485SOL     OW24856   2.166   1.373  10.331  0.4518  0.1496 -0.4101
40485SOL    HW124857   2.237   1.423  10.372 -0.8374  0.7957  1.1216
40485SOL    HW224858   2.169   1.400  10.239  1.1803  1.3811 -0.0585
40486SOL     OW24859   0.418   0.032   8.149 -0.4118  0.0086  0.1535
40486SOL    HW124860   0.432   0.080   8.231  3.1741 -1.8115  0.8117
40486SOL    HW224861   0.494   0.055   8.095 -0.9372 -1.4624 -1.2872
40487SOL     OW24862  10.130   4.247   7.464 -0.0018  0.4179 -0.7815
40487SOL    HW124863  10.195   4.288   7.520 -0.3020  0.1899 -0.2544
40487SOL    HW224864  10.082   4.320   7.425  0.6432  0.5883 -1.2738
40488SOL     OW24865   7.310   4.767   0.844 -0.2257  0.7781  0.6505
40488SOL    HW124866   7.270   4.848   0.875  1.8629  1.5474  1.5354
40488SOL    HW224867   7.354   4.730   0.921  0.0082 -0.4790 -0.0545
40489SOL     OW24868   9.059   4.605   6.113  0.6250  0.0635  0.2871
40489SOL    HW124869   9.059   4.572   6.023  0.0337  0.7341  0.0344
40489SOL    HW224870   9.149   4.592   6.143  0.0309 -3.6247  0.9254
40490SOL     OW24871   3.482  10.567   8.985  0.0260 -0.3549  0.2817
40490SOL    HW124872   3.500  10.616   8.904  1.0646 -0.0972  0.6620
40490SOL    HW224873   3.418  10.622   9.031  1.5570  0.9609  0.9439
40491SOL     OW24874   1.262   3.460   8.340 -0.1110  0.1900 -0.1922
40491SOL    HW124875   1.172   3.430   8.327 -0.0006 -0.7961  1.1144
40491SOL    HW224876   1.316   3.385   8.314  0.2141 -0.3968  2.0309
40492SOL     OW24877   8.543   8.253   7.792  0.0528  0.3773  0.2962
40492SOL    HW124878   8.565   8.336   7.832 -1.1144  0.1100  1.5568
40492SOL    HW224879   8.610   8.240   7.725  0.1522  2.4007 -0.0540
40493SOL     OW24880  10.828  10.411   3.176 -0.6509  0.8623 -0.2704
40493SOL    HW124881  10.894  10.471   3.141 -0.3321  0.0511 -1.0972
40493SOL    HW224882  10.806  10.354   3.103  1.4992 -2.1949  1.2593
40494SOL     OW24883   0.699   7.150   1.244 -0.0541  0.1198  0.3227
40494SOL    HW124884   0.673   7.129   1.334 -0.6934 -1.1448 -0.1289
40494SOL    HW224885   0.751   7.075   1.216 -0.5116  0.1397 -0.6216
40495SOL     OW24886   9.776   2.197   0.650  0.3094  0.0828  0.0580
40495SOL    HW124887   9.837   2.248   0.703 -0.3504  1.9647 -0.8816
40495SOL    HW224888   9.697   2.251   0.647  0.7861  0.8873 -3.9672
40496SOL     OW24889   5.941   7.883  10.567  0.0146 -0.3013  0.4942
40496SOL    HW124890   6.005   7.812  10.567 -0.4154 -0.6978  0.5818
40496SOL    HW224891   5.877   7.857  10.634 -1.7585 -1.3026 -1.4518
40497SOL     OW24892   7.056   2.140   2.511 -0.5447 -0.2576  0.7952
40497SOL    HW124893   6.961   2.150   2.520 -0.7727 -0.0257 -1.2903
40497SOL    HW224894   7.092   2.225   2.535 -1.1050  0.4728 -0.8354
40498SOL     OW24895   3.464   8.653   7.936  0.2716 -0.0564 -0.1320
40498SOL    HW124896   3.527   8.696   7.878  0.1369  0.9139  0.4177
40498SOL    HW224897   3.494   8.676   8.024 -0.9038  0.5241  0.1352
40499SOL     OW24898  10.064   0.365   2.009  0.3005  0.2349  0.5223
40499SOL    HW124899  10.089   0.454   2.033  0.1939  0.0186  1.4721
40499SOL    HW224900  10.003   0.376   1.936 -1.9362  1.1174  2.4260
40500SOL     OW24901   9.906   3.748   2.788  0.5343 -0.2897 -0.3357
40500SOL    HW124902   9.814   3.749   2.814  0.2242  1.9240 -1.3152
40500SOL    HW224903   9.949   3.809   2.849  1.2727 -0.8982 -0.2283
40501SOL     OW24904   3.592   7.555   7.049  0.0424  0.0783  0.2386
40501SOL    HW124905   3.603   7.626   7.112 -1.0036 -0.2763  0.8615
40501SOL    HW224906   3.676   7.549   7.004 -0.3104  2.7776 -0.9704
40502SOL     OW24907   5.796  10.236   1.559  0.0915  0.0934 -0.8925
40502SOL    HW124908   5.772  10.321   1.524 -0.6898  0.5257  0.5924
40502SOL    HW224909   5.874  10.210   1.510  0.8682  2.0799 -0.7668
40503SOL     OW24910   4.766   3.112   7.312  0.1701 -0.0925  0.6299
40503SOL    HW124911   4.832   3.107   7.243 -0.1868  0.7815  0.2119
40503SOL    HW224912   4.799   3.179   7.372 -0.6689  0.8759  0.0394
40504SOL     OW24913   9.213   7.336   1.127  0.1877  0.1133  0.7669
40504SOL    HW124914   9.204   7.335   1.223  0.2009  0.8014  0.7740
40504SOL    HW224915   9.294   7.384   1.111  0.2130 -0.0470  0.4070
40505SOL     OW24916   5.467   3.689   0.867 -0.2449  0.2578 -0.0062
40505SOL    HW124917   5.548   3.739   0.860  0.2988 -0.7774 -1.6694
40505SOL    HW224918   5.496   3.597   0.869 -1.3770 -0.1348 -0.8011
40506SOL     OW24919   5.771   1.893  10.573 -0.4719 -0.1150 -0.0023
40506SOL    HW124920   5.808   1.806  10.562 -0.5293  0.0076 -1.4297
40506SOL    HW224921   5.691   1.880  10.623  1.0829 -0.4637  2.5436
40507SOL     OW24922  10.903   4.368   1.544 -0.1471  0.0366 -0.4689
40507SOL    HW124923  10.976   4.393   1.601  0.2539 -0.3159 -0.8230
40507SOL    HW224924  10.866   4.291   1.587  1.8470 -1.9216 -2.0486
40508SOL     OW24925   9.205   2.154   2.327  0.2580 -0.0164  0.3153
40508SOL    HW124926   9.160   2.174   2.409  0.3597 -1.0789  0.6567
40508SOL    HW224927   9.163   2.073   2.297  1.4299 -0.6335  0.2748
40509SOL     OW24928   8.101   1.814   1.574  0.2654  0.1942 -0.3388
40509SOL    HW124929   8.059   1.799   1.489  0.3548 -0.0262 -0.3428
40509SOL    HW224930   8.045   1.879   1.616 -1.4833 -1.8381  0.6600
40510SOL     OW24931   7.697   8.038   3.277  0.6210 -0.3579 -0.7254
40510SOL    HW124932   7.729   8.039   3.367  0.0586  0.4290 -0.5150
40510SOL    HW224933   7.775   8.025   3.224  1.2184  0.8235 -0.1952
40511SOL     OW24934   2.417   0.008   5.189 -0.1159 -0.6559  0.5293
40511SOL    HW124935   2.346  -0.049   5.218  0.2977 -0.4151  2.0914
40511SOL    HW224936   2.482   0.003   5.259 -0.0509  1.6784  0.7056
40512SOL     OW24937   8.997  10.415   4.662  0.0674  0.2583 -0.4857
40512SOL    HW124938   9.057  10.403   4.588  0.4621  0.9107 -0.2806
40512SOL    HW224939   8.990  10.509   4.672  0.2331  0.1790  0.4767
40513SOL     OW24940   7.758   2.246   7.489  0.4287  0.0152 -0.1932
40513SOL    HW124941   7.763   2.313   7.422  1.0457  1.3217  1.0960
40513SOL    HW224942   7.830   2.186   7.469  0.9391  0.6904 -0.3885
40514SOL     OW24943   1.942   6.638   9.597  0.3878  0.3963  0.2755
40514SOL    HW124944   1.974   6.635   9.688  1.0302  1.5984  0.1081
40514SOL    HW224945   1.887   6.716   9.594  0.9228  0.7514 -0.5398
40515SOL     OW24946   2.326   7.836   8.816  0.1280 -0.0862  0.3072
40515SOL    HW124947   2.286   7.750   8.807  0.9716 -0.4751  0.2617
40515SOL    HW224948   2.295   7.868   8.901 -1.5900  0.3249 -0.4273
40516SOL     OW24949   5.463   9.193   5.686  0.3185 -0.0886  0.4839
40516SOL    HW124950   5.428   9.251   5.619  0.3949  1.1278  1.4663
40516SOL    HW224951   5.386   9.158   5.731  0.2697 -0.8503 -0.1735
40517SOL     OW24952   5.431   5.195   0.776  0.3915  0.1624  0.0170
40517SOL    HW124953   5.483   5.119   0.803  0.5447 -0.3155 -1.4940
40517SOL    HW224954   5.483   5.234   0.706 -0.3973  0.7934 -0.2175
40518SOL     OW24955   9.407   8.048   5.353  0.1757 -0.0441 -0.1095
40518SOL    HW124956   9.350   8.077   5.424  0.6246 -2.8447  1.5392
40518SOL    HW224957   9.487   8.099   5.364 -0.0795  0.1635  0.8516
40519SOL     OW24958   6.609   8.742   2.529 -0.9256  0.4952  0.0134
40519SOL    HW124959   6.626   8.656   2.567 -1.7189  0.3852  0.1414
40519SOL    HW224960   6.581   8.796   2.604 -0.3962  0.8715 -0.0607
40520SOL     OW24961   8.947   9.981   2.314  0.1141 -0.0515  0.4504
40520SOL    HW124962   8.916  10.033   2.389 -1.2949 -1.4910  0.9407
40520SOL    HW224963   8.971   9.896   2.352 -0.8325 -0.8873 -0.7173
40521SOL     OW24964   9.816   6.338   8.811 -0.1821 -0.2014 -0.6038
40521SOL    HW124965   9.838   6.245   8.810  0.7640  0.0004 -2.0667
40521SOL    HW224966   9.829   6.365   8.901  0.5850 -1.2585 -0.3769
40522SOL     OW24967   8.171   8.314   4.289  0.4790  0.0153  0.6036
40522SOL    HW124968   8.083   8.302   4.255  0.1867 -2.1836  1.8882
40522SOL    HW224969   8.215   8.372   4.226 -1.5156  0.2304 -0.6544
40523SOL     OW24970   5.604   9.462   9.161  0.3665  0.1275 -0.1771
40523SOL    HW124971   5.558   9.407   9.098  1.7008  0.1872 -1.2534
40523SOL    HW224972   5.675   9.502   9.111  0.7226  1.1668  1.0843
40524SOL     OW24973   8.772   8.662  10.738 -0.3369 -0.2016  0.2966
40524SOL    HW124974   8.790   8.661  10.645 -1.4836  1.5820 -0.0022
40524SOL    HW224975   8.817   8.740  10.771  1.9306 -1.9785  1.7217
40525SOL     OW24976   8.569   5.808   8.084 -0.4017  0.5025 -0.3888
40525SOL    HW124977   8.591   5.808   7.991  1.0340 -3.5001 -0.2447
40525SOL    HW224978   8.474   5.796   8.086 -0.4678  0.7790 -1.3164
40526SOL     OW24979   4.546   5.239   5.535  0.0947 -0.1088  0.0760
40526SOL    HW124980   4.504   5.201   5.458  0.4115  0.1470 -0.2258
40526SOL    HW224981   4.484   5.305   5.567  0.7991  1.2141 -1.1451
40527SOL     OW24982   0.613   6.243   3.050  0.4462  0.2825  0.0533
40527SOL    HW124983   0.612   6.206   3.139  3.2705 -2.1490 -0.7656
40527SOL    HW224984   0.520   6.258   3.030 -0.4149 -0.7511  2.7550
40528SOL     OW24985   3.736   5.012   2.283  0.2142 -0.1244  0.5889
40528SOL    HW124986   3.812   4.954   2.288 -0.0515 -0.4238  1.5133
40528SOL    HW224987   3.706   5.020   2.374  0.1948  1.4165  0.4728
40529SOL     OW24988   4.935   3.164   8.760  0.8759  0.1717  0.0223
40529SOL    HW124989   4.977   3.224   8.822  1.1597 -0.3562  0.3528
40529SOL    HW224990   4.844   3.192   8.757  0.1225 -1.6166  2.9932
40530SOL     OW24991   4.285   8.966   0.645  0.5010  0.7129 -0.2559
40530SOL    HW124992   4.308   8.914   0.568 -0.3783  0.0815 -0.1062
40530SOL    HW224993   4.231   8.908   0.698  0.8970  1.2294  0.7315
40531SOL     OW24994   2.414   0.079   7.203 -0.2872 -0.1702 -0.2552
40531SOL    HW124995   2.459  -0.003   7.183 -1.6318 -1.0467  0.1994
40531SOL    HW224996   2.473   0.125   7.262  0.9677 -0.3105 -1.3639
40532SOL     OW24997   8.846   7.266   6.184 -0.1042 -0.6049 -0.2871
40532SOL    HW124998   8.781   7.261   6.113 -0.6220  0.4778  0.0783
40532SOL    HW224999   8.799   7.236   6.261 -0.7307  1.6277  0.2977
40533SOL     OW25000   9.010   5.055   5.866  0.4651  0.2163 -0.1834
40533SOL    HW125001   9.013   4.981   5.928 -0.8041  0.4188  0.1503
40533SOL    HW225002   9.097   5.094   5.872  1.2050 -1.3059 -0.4498
40534SOL     OW25003   6.421   3.778   9.277  0.2686 -0.0255  0.5186
40534SOL    HW125004   6.406   3.834   9.353  2.3828  1.9864 -0.3981
40534SOL    HW225005   6.486   3.714   9.307  0.3392  0.1245  0.6894
40535SOL     OW25006   1.233   3.408  10.203  0.1262 -0.2665  0.0117
40535SOL    HW125007   1.183   3.343  10.253  0.9315 -0.6329  0.3628
40535SOL    HW225008   1.195   3.405  10.115 -2.2079  1.3236  0.8763
40536SOL     OW25009   4.523  10.846   0.899  0.1986  0.0215 -0.1025
40536SOL    HW125010   4.546  10.817   0.811  1.4728 -0.4728  0.3672
40536SOL    HW225011   4.572  10.787   0.957 -1.2951 -0.2209  0.9528
40537SOL     OW25012   3.653   2.558   0.581 -0.1062 -0.0838 -0.0444
40537SOL    HW125013   3.716   2.572   0.511 -1.3129 -0.7598 -1.3120
40537SOL    HW225014   3.594   2.633   0.575 -0.1219 -0.0586  0.3708
40538SOL     OW25015   5.698   2.873   9.754  0.0330  0.0618  0.0671
40538SOL    HW125016   5.625   2.865   9.693  0.2629  1.5324 -0.4393
40538SOL    HW225017   5.679   2.952   9.804  3.4997  3.5618 -3.3692
40539SOL     OW25018  10.466   9.953   7.799 -0.2228 -0.1670  0.1011
40539SOL    HW125019  10.486   9.870   7.842 -2.5312 -0.3902  0.8642
40539SOL    HW225020  10.457   9.930   7.706  0.9440 -0.3864  0.0163
40540SOL     OW25021   0.478   1.827   3.517 -0.0918  0.0253  0.1346
40540SOL    HW125022   0.500   1.775   3.440 -1.4491  2.0000 -1.6996
40540SOL    HW225023   0.384   1.844   3.509 -0.7817 -1.4217  3.3927
40541SOL     OW25024   8.820   9.126   2.107  0.1685  0.4651  0.0709
40541SOL    HW125025   8.870   9.093   2.181 -0.8504  0.4488  0.7664
40541SOL    HW225026   8.728   9.115   2.133 -0.2159  2.9948 -0.0379
40542SOL     OW25027   3.470   6.650   5.928  0.0689  0.4140 -0.4284
40542SOL    HW125028   3.403   6.716   5.909 -0.6267 -0.4085 -0.9368
40542SOL    HW225029   3.458   6.584   5.859  1.7750  0.5138 -0.8566
40543SOL     OW25030   1.935   0.661   5.489  0.5082  0.5253  0.3420
40543SOL    HW125031   1.897   0.573   5.488 -0.3141  0.8824 -0.2949
40543SOL    HW225032   1.916   0.694   5.577  0.7777  0.0887  0.5669
40544SOL     OW25033   9.660   0.740   8.816  0.0178 -0.1184  0.0425
40544SOL    HW125034   9.601   0.810   8.844  1.2647  1.1465 -0.3751
40544SOL    HW225035   9.682   0.693   8.896  0.5858  1.1150  0.6277
40545SOL     OW25036  10.780   3.758   2.255 -0.1088 -0.7623 -0.5587
40545SOL    HW125037  10.764   3.830   2.195  1.5834 -0.2029 -0.3891
40545SOL    HW225038  10.733   3.683   2.217  0.9166 -0.4360 -2.5934
40546SOL     OW25039   3.610   0.277   4.094 -0.0403 -0.3643  0.0606
40546SOL    HW125040   3.649   0.242   4.175  0.0099 -0.3551  0.0404
40546SOL    HW225041   3.680   0.330   4.055  0.5546 -1.7787 -0.8946
40547SOL     OW25042   3.880   6.188   1.720 -0.0394 -0.0563 -0.3365
40547SOL    HW125043   3.968   6.156   1.699  0.0479  0.2214 -0.3924
40547SOL    HW225044   3.865   6.162   1.811  0.2743  0.2885 -0.1876
40548SOL     OW25045   8.821   7.395   8.540 -0.4102 -0.8281  0.1092
40548SOL    HW125046   8.781   7.435   8.463 -1.8288 -0.4947  0.9810
40548SOL    HW225047   8.845   7.469   8.595  0.7595 -1.0601 -0.0752
40549SOL     OW25048  10.539   8.796   7.742  0.0701  0.5819  0.2448
40549SOL    HW125049  10.589   8.787   7.823 -0.2423 -0.7188  0.3170
40549SOL    HW225050  10.550   8.888   7.717  2.6136  0.3246  0.1669
40550SOL     OW25051   7.087   8.201   6.360  0.4237 -0.5572 -0.3607
40550SOL    HW125052   7.142   8.154   6.297  0.9432 -0.5104  0.0497
40550SOL    HW225053   7.026   8.251   6.306 -1.1604 -2.8388 -0.8067
40551SOL     OW25054   6.886   5.167   9.317 -0.5208 -0.2159  0.1223
40551SOL    HW125055   6.955   5.154   9.382  1.9600  0.1760 -2.2200
40551SOL    HW225056   6.818   5.104   9.340  1.9356 -2.7666  0.9340
40552SOL     OW25057   0.695   9.817   3.210 -0.3820  0.2268 -0.4973
40552SOL    HW125058   0.764   9.874   3.243 -0.8307  0.6565 -0.2821
40552SOL    HW225059   0.692   9.744   3.272  1.4880 -1.0622 -1.8080
40553SOL     OW25060   2.426   3.230   0.591  0.2780  0.3271  0.3312
40553SOL    HW125061   2.513   3.262   0.569 -0.7674  2.1282 -1.4785
40553SOL    HW225062   2.392   3.292   0.656 -0.6110  1.2331 -0.9465
40554SOL     OW25063   3.888   3.086   5.951 -0.8465  0.1981 -0.0503
40554SOL    HW125064   3.942   3.008   5.967 -0.3822  0.1076 -1.8712
40554SOL    HW225065   3.935   3.157   5.995 -0.3652 -0.2412  0.1650
40555SOL     OW25066   6.239   2.279   9.993  0.0311  0.3081  1.0237
40555SOL    HW125067   6.333   2.291  10.001  0.1584  1.1032 -0.9484
40555SOL    HW225068   6.217   2.214  10.060  2.1359 -0.6815  0.8441
40556SOL     OW25069   2.076  10.352   3.766 -0.1480  0.1384  0.3937
40556SOL    HW125070   2.155  10.389   3.727 -0.5273  0.9162  0.3447
40556SOL    HW225071   2.058  10.409   3.841 -1.6650  1.0758 -0.6304
40557SOL     OW25072   3.031   8.705   7.041 -0.3719 -0.0834  0.2872
40557SOL    HW125073   3.102   8.729   7.100 -0.3410  0.5361  0.0022
40557SOL    HW225074   3.013   8.613   7.061  0.0476 -0.0483  0.8338
40558SOL     OW25075   3.716   8.727   1.983  0.1456  0.9764  0.3386
40558SOL    HW125076   3.623   8.702   1.983  0.8343 -2.0450  0.0065
40558SOL    HW225077   3.722   8.798   1.919 -1.6266 -0.3066 -1.3786
40559SOL     OW25078   3.724  10.710   2.819  0.3954  0.6118 -0.3143
40559SOL    HW125079   3.716  10.791   2.868 -2.0106 -0.9942  2.2364
40559SOL    HW225080   3.811  10.676   2.842  0.7904  1.6879 -0.1805
40560SOL     OW25081   4.907   0.798   4.816 -0.5172 -0.2368 -0.3074
40560SOL    HW125082   4.975   0.854   4.778 -0.2851 -0.9385 -0.9655
40560SOL    HW225083   4.942   0.772   4.901 -0.0614 -0.3984 -0.5387
40561SOL     OW25084   9.627   1.842   6.428  0.4946 -0.2405 -0.3125
40561SOL    HW125085   9.557   1.848   6.493  0.8182  0.8052 -0.0408
40561SOL    HW225086   9.676   1.764   6.452  0.0394 -0.3991  0.1156
40562SOL     OW25087   2.809  10.628   2.507 -0.3405  0.1401 -0.6536
40562SOL    HW125088   2.870  10.582   2.565 -1.3516 -0.5854 -0.1339
40562SOL    HW225089   2.836  10.603   2.419  0.6689  0.5659 -0.4869
40563SOL     OW25090   4.859   6.595   5.326 -0.5437 -0.9146  0.2573
40563SOL    HW125091   4.922   6.608   5.255 -0.4824 -0.3399  0.4158
40563SOL    HW225092   4.790   6.541   5.287 -1.3127  0.6991 -0.7320
40564SOL     OW25093   4.052   8.053   8.393 -0.0848  0.1469 -0.2532
40564SOL    HW125094   4.013   7.973   8.428  2.1376 -1.5460 -1.3534
40564SOL    HW225095   4.138   8.057   8.434  0.9042  0.4249 -2.2655
40565SOL     OW25096   6.365   3.941   1.723 -0.5550 -0.1810 -0.0985
40565SOL    HW125097   6.327   3.865   1.681 -0.5169 -0.9905  1.2720
40565SOL    HW225098   6.366   3.919   1.816  0.4242  1.0675  0.2143
40566SOL     OW25099   9.282   7.617   1.778 -0.0902  0.7210  0.3586
40566SOL    HW125100   9.375   7.612   1.757  0.0227 -1.2461  1.0888
40566SOL    HW225101   9.278   7.664   1.861  0.3118  0.4298  0.5462
40567SOL     OW25102   9.509   6.715   9.559 -0.3511  0.2259  0.3358
40567SOL    HW125103   9.549   6.699   9.645  0.2404 -0.6323 -0.0812
40567SOL    HW225104   9.507   6.810   9.551 -0.2034  0.3142  1.2041
40568SOL     OW25105  10.614  10.301   0.987 -1.0392  0.4924  0.5081
40568SOL    HW125106  10.690  10.272   1.037 -0.0938  0.5037 -0.8703
40568SOL    HW225107  10.546  10.314   1.052 -0.3762 -1.1807  1.5884
40569SOL     OW25108   3.232  10.097   8.046  0.2816 -0.0203  0.4457
40569SOL    HW125109   3.157  10.055   8.087 -0.1967  0.0331 -0.3478
40569SOL    HW225110   3.302  10.091   8.111 -0.1724 -0.7986  0.8751
40570SOL     OW25111   7.775   4.295   8.729 -0.3279  0.1882 -0.1158
40570SOL    HW125112   7.735   4.349   8.661 -0.3343  0.4163  0.0657
40570SOL    HW225113   7.728   4.318   8.809 -0.5241 -0.3011 -0.0859
40571SOL     OW25114   5.701   8.445   6.472  0.6020  0.2110 -0.3553
40571SOL    HW125115   5.716   8.361   6.429  2.5682  0.7958 -0.9207
40571SOL    HW225116   5.610   8.441   6.503  0.1021 -1.4035 -1.9063
40572SOL     OW25117   6.173   9.105   2.273  0.0173  0.4463  0.0707
40572SOL    HW125118   6.097   9.132   2.222  1.2028 -0.3513 -2.2382
40572SOL    HW225119   6.206   9.186   2.312 -1.1231  1.0164 -0.1130
40573SOL     OW25120   2.986   1.044  10.904 -0.5116  0.1445  0.5195
40573SOL    HW125121   2.948   1.002  10.981 -0.5067  0.7223  0.8416
40573SOL    HW225122   3.050   0.982  10.871 -1.9041 -0.9856 -0.1938
40574SOL     OW25123   1.341   2.716  10.149 -0.0445 -0.1502 -0.0336
40574SOL    HW125124   1.289   2.689  10.073 -0.1732 -0.0871  0.0320
40574SOL    HW225125   1.379   2.634  10.181  0.0981 -0.1625 -0.2308
40575SOL     OW25126   2.016   8.994   1.812  0.4001  0.3352 -0.1466
40575SOL    HW125127   2.100   9.010   1.769  2.0601 -2.9066  1.4728
40575SOL    HW225128   1.975   8.924   1.761  0.0336 -0.0485  0.6449
40576SOL     OW25129   3.197   5.421   3.629 -0.0251  0.0924 -0.1686
40576SOL    HW125130   3.130   5.460   3.685  0.3684 -0.7121  0.9047
40576SOL    HW225131   3.166   5.435   3.539 -1.9997 -0.8888  0.3146
40577SOL     OW25132   9.639   8.541   9.111  0.0412 -1.1959  0.4211
40577SOL    HW125133   9.572   8.604   9.139  1.1986  0.4430 -0.3050
40577SOL    HW225134   9.712   8.555   9.172  1.8495  1.0864 -2.0019
40578SOL     OW25135   0.624  10.863   2.412 -0.1224 -0.1737 -0.9405
40578SOL    HW125136   0.616  10.772   2.385 -0.1801  0.2906 -2.6016
40578SOL    HW225137   0.717  10.883   2.405  0.0580 -0.3909  0.5043
40579SOL     OW25138   3.755   2.667   5.543  0.0386 -0.0651  0.4030
40579SOL    HW125139   3.698   2.627   5.477  0.8827  1.1293 -1.1388
40579SOL    HW225140   3.700   2.675   5.621 -1.5149 -0.0541 -0.6474
40580SOL     OW25141   9.218  10.422   0.590  0.5810 -0.0572 -0.1833
40580SOL    HW125142   9.176  10.413   0.675  1.1334 -1.9244 -0.0802
40580SOL    HW225143   9.146  10.433   0.528  0.1165  0.0660  0.3745
40581SOL     OW25144   3.474   6.468   8.181  0.0754 -0.4016  0.1242
40581SOL    HW125145   3.537   6.436   8.116 -0.9844 -3.9629  0.6669
40581SOL    HW225146   3.492   6.417   8.259 -0.4885  1.8653  1.8448
40582SOL     OW25147   6.411   8.620   6.353 -0.1661  0.1084  0.4015
40582SOL    HW125148   6.391   8.607   6.261  1.1065 -2.2667  0.3881
40582SOL    HW225149   6.328   8.607   6.398 -0.1456 -2.4027 -0.1763
40583SOL     OW25150   2.218  10.895   2.370  0.1152  0.1905  0.0665
40583SOL    HW125151   2.158  10.821   2.360  1.3530 -0.6826 -1.2696
40583SOL    HW225152   2.224  10.908   2.465 -0.9511 -0.7312  0.2792
40584SOL     OW25153   5.567   3.910   5.631  0.2032  0.1318  0.0699
40584SOL    HW125154   5.541   3.964   5.706 -0.4761  1.2048 -0.8889
40584SOL    HW225155   5.518   3.828   5.642 -0.0680  0.3660  0.6759
40585SOL     OW25156   7.222   7.309   0.426 -0.9384 -0.0429 -0.4403
40585SOL    HW125157   7.219   7.404   0.412  1.0240  0.2522  0.6943
40585SOL    HW225158   7.149   7.291   0.484  0.0529  1.2027  1.2807
40586SOL     OW25159   4.333   9.626  10.695  0.2098  0.3773  0.7176
40586SOL    HW125160   4.319   9.714  10.658 -2.4925 -0.5959 -0.8359
40586SOL    HW225161   4.274   9.623  10.770 -2.0212 -0.9878 -0.9628
40587SOL     OW25162   3.296   5.579   9.521 -0.2297  0.1715  0.2875
40587SOL    HW125163   3.379   5.548   9.557  0.0234  0.6437  0.1203
40587SOL    HW225164   3.252   5.621   9.595 -0.1498  0.2607  0.2851
40588SOL     OW25165   8.149   7.980   0.329  0.4715 -0.0420 -0.0794
40588SOL    HW125166   8.054   7.966   0.326  0.5960 -0.6796 -1.2985
40588SOL    HW225167   8.181   7.947   0.246  1.6821  0.8920 -0.0039
40589SOL     OW25168  10.906   8.737   3.631  0.1928  0.6292 -0.7665
40589SOL    HW125169  10.816   8.756   3.657  0.1519  1.7923 -1.6676
40589SOL    HW225170  10.947   8.701   3.710 -1.1143 -0.1615 -0.4156
40590SOL     OW25171  10.219   9.373   5.109 -0.4743 -0.3498 -0.0547
40590SOL    HW125172  10.235   9.444   5.046  0.9518 -1.9778 -1.6297
40590SOL    HW225173  10.246   9.409   5.193  1.2990  0.6394 -0.9937
40591SOL     OW25174  10.784   2.374   8.188  0.5905  0.7364  0.0820
40591SOL    HW125175  10.776   2.467   8.210 -1.8546  0.1223  2.2694
40591SOL    HW225176  10.829   2.335   8.264 -3.2867 -0.5935  1.9880
40592SOL     OW25177   6.594   4.984   9.281  0.0920 -0.0663 -0.4958
40592SOL    HW125178   6.564   4.937   9.203 -0.6470  0.1048 -0.3188
40592SOL    HW225179   6.660   4.926   9.320  0.8646  0.0816 -1.5268
40593SOL     OW25180   9.185   6.799   7.451  0.3076 -0.0112  0.0545
40593SOL    HW125181   9.257   6.858   7.428 -0.5250  1.1428  0.3595
40593SOL    HW225182   9.158   6.827   7.539 -0.8714 -0.0794 -0.2811
40594SOL     OW25183   8.371   2.127   8.057  0.5880 -0.4229  0.4843
40594SOL    HW125184   8.366   2.197   8.122  0.7909 -1.4305  1.6081
40594SOL    HW225185   8.369   2.046   8.108  0.7107 -1.2444 -0.7692
40595SOL     OW25186   0.668   1.735   8.252 -0.3236  0.4340 -0.1263
40595SOL    HW125187   0.733   1.670   8.224 -0.0044  0.2496  0.9700
40595SOL    HW225188   0.718   1.816   8.262  0.0916 -0.0189  2.0664
40596SOL     OW25189   1.563   0.224   7.301  0.0771  0.5604 -0.6126
40596SOL    HW125190   1.569   0.217   7.206 -0.1464 -1.9321 -0.5295
40596SOL    HW225191   1.469   0.216   7.320  0.2507 -0.6855 -0.1517
40597SOL     OW25192   6.943   8.270   2.364 -0.5922 -0.1625  0.3486
40597SOL    HW125193   7.001   8.243   2.294  0.8506  0.8446  1.1187
40597SOL    HW225194   6.857   8.236   2.338  0.4207 -2.2614 -0.4922
40598SOL     OW25195   8.096   9.559   8.502 -0.3391 -0.1477 -0.1141
40598SOL    HW125196   8.167   9.516   8.454  0.1477  0.1202  0.3569
40598SOL    HW225197   8.017   9.537   8.453  0.3627  1.9258 -2.3652
40599SOL     OW25198   5.878   1.867   1.354  0.4061  0.2802  0.0660
40599SOL    HW125199   5.790   1.856   1.390  0.8783 -1.4357  0.8130
40599SOL    HW225200   5.905   1.954   1.382 -0.2747  0.0300  1.6442
40600SOL     OW25201   6.733   3.019   6.805  0.5400  0.7157 -0.2286
40600SOL    HW125202   6.748   3.004   6.898 -1.4782  1.1403  0.2154
40600SOL    HW225203   6.691   2.939   6.774 -0.0573  1.0880 -0.4224
40601SOL     OW25204   1.567   5.903   9.342  0.6039  0.0401 -0.6469
40601SOL    HW125205   1.574   5.950   9.425 -1.6040 -1.1280  0.2908
40601SOL    HW225206   1.650   5.856   9.334  0.4209 -0.8031  1.5846
40602SOL     OW25207   5.271   9.004  10.368  0.3174  0.3495  0.1660
40602SOL    HW125208   5.181   8.975  10.385 -0.2989  2.7333  1.5787
40602SOL    HW225209   5.325   8.929  10.389 -1.3292 -1.1897 -0.8061
40603SOL     OW25210   7.769   4.009   5.126 -0.6239  0.4895 -0.2906
40603SOL    HW125211   7.784   3.927   5.172 -0.2922  0.1155 -1.0444
40603SOL    HW225212   7.766   4.075   5.195  1.3955  0.1655  0.1607
40604SOL     OW25213   6.389   0.121   3.751  0.5914 -0.2774  0.3113
40604SOL    HW125214   6.355   0.167   3.828  0.0588  0.6068 -0.4247
40604SOL    HW225215   6.314   0.112   3.693  1.1032 -0.4389 -0.3371
40605SOL     OW25216   4.300   0.433  10.416 -0.2216  0.3647 -0.0951
40605SOL    HW125217   4.280   0.340  10.421 -1.0157  0.5888  1.5017
40605SOL    HW225218   4.337   0.454  10.502  1.0751  1.2838 -0.8412
40606SOL     OW25219   5.380   7.407   5.610  0.0320  0.1609 -0.0335
40606SOL    HW125220   5.459   7.401   5.664 -0.1741  0.8105  0.3376
40606SOL    HW225221   5.310   7.431   5.671 -0.3737  0.0192 -0.4359
40607SOL     OW25222   4.687   3.239   6.677 -0.2738  0.2598 -0.3163
40607SOL    HW125223   4.780   3.230   6.658 -0.1825  1.2008 -0.3809
40607SOL    HW225224   4.643   3.197   6.603  0.0785 -1.2018  0.2633
40608SOL     OW25225   8.982   0.079   0.002  0.4322 -0.0203  0.5583
40608SOL    HW125226   9.017   0.024  -0.068 -0.1396 -1.1037  1.0872
40608SOL    HW225227   8.894   0.043   0.018  0.1435  0.8992  1.0926
40609SOL     OW25228   7.833   0.271   1.591  0.3456 -0.1831 -0.1413
40609SOL    HW125229   7.830   0.361   1.558 -0.9896 -0.8238 -1.8911
40609SOL    HW225230   7.899   0.274   1.660 -1.4207  2.7078  1.6677
40610SOL     OW25231   0.266  10.850   6.225  0.0053  0.0163 -0.0604
40610SOL    HW125232   0.189  10.793   6.228 -0.5706  0.8217  1.7043
40610SOL    HW225233   0.245  10.915   6.159 -0.0968 -0.7438 -0.7921
40611SOL     OW25234  10.241   6.198   6.553 -0.8040  1.1711 -0.3284
40611SOL    HW125235  10.227   6.238   6.467  0.1010  0.8503 -0.6380
40611SOL    HW225236  10.336   6.201   6.566 -0.7458 -0.4070 -0.1491
40612SOL     OW25237   9.123   3.116   3.003 -0.3842 -0.2596 -0.2436
40612SOL    HW125238   9.156   3.076   3.083  2.0624 -1.2211 -1.6307
40612SOL    HW225239   9.042   3.067   2.983 -0.5104 -0.6330  1.1157
40613SOL     OW25240   9.358   0.338   5.149  0.2418 -0.0287 -0.2865
40613SOL    HW125241   9.417   0.275   5.108  1.2438 -0.2667  1.4178
40613SOL    HW225242   9.270   0.305   5.129  0.7306 -1.3404 -0.3844
40614SOL     OW25243   5.832   5.816   0.434 -0.3582 -0.6787 -0.1601
40614SOL    HW125244   5.814   5.907   0.410 -0.6648 -0.8060 -0.4160
40614SOL    HW225245   5.751   5.785   0.473 -0.1085 -0.7077  0.3540
40615SOL     OW25246   7.455   5.859   0.048 -0.5535 -1.0163 -0.5342
40615SOL    HW125247   7.523   5.924   0.061 -0.2623 -1.4377  0.1325
40615SOL    HW225248   7.499   5.787   0.003 -0.7103 -1.0169 -0.6840
40616SOL     OW25249   2.659   5.727  10.695  0.6216  0.3950  0.1036
40616SOL    HW125250   2.640   5.721  10.789 -0.5566  0.3023 -0.1275
40616SOL    HW225251   2.716   5.803  10.686  1.1568  0.1104  0.9457
40617SOL     OW25252   0.579   8.665   7.189  0.3608 -0.3055 -0.3646
40617SOL    HW125253   0.627   8.634   7.112 -0.9069 -1.3034 -0.7932
40617SOL    HW225254   0.618   8.750   7.209  1.9464 -0.8420 -0.9849
40618SOL     OW25255   2.932   6.734   5.145  0.5897 -0.0063 -0.0971
40618SOL    HW125256   2.870   6.794   5.104 -0.0914  0.7252  1.8697
40618SOL    HW225257   2.943   6.664   5.082 -0.9418  0.7009 -1.2141
40619SOL     OW25258   3.404   7.767   5.633  0.2582 -0.1748 -0.4563
40619SOL    HW125259   3.314   7.736   5.632 -0.5568  2.0453 -0.5555
40619SOL    HW225260   3.403   7.847   5.582  2.1768  0.2412  0.0586
40620SOL     OW25261   8.514   1.510   3.159 -0.4043  0.2341 -0.1208
40620SOL    HW125262   8.574   1.585   3.154 -0.5164  0.2906 -0.7417
40620SOL    HW225263   8.484   1.498   3.069 -0.1299 -0.7756 -0.0855
40621SOL     OW25264   1.564   6.193   1.784 -0.3425 -0.2284 -0.2859
40621SOL    HW125265   1.619   6.184   1.706 -1.4240 -0.1181 -1.0837
40621SOL    HW225266   1.499   6.259   1.760 -2.4181 -2.1904 -0.3256
40622SOL     OW25267   4.458  10.645   4.408  0.4211  0.1873 -0.0961
40622SOL    HW125268   4.425  10.686   4.488  0.6532 -1.9763  1.2063
40622SOL    HW225269   4.381  10.605   4.367  0.3773  0.9005 -0.7279
40623SOL     OW25270   2.695   1.890   4.010  0.6728  0.3616 -0.3403
40623SOL    HW125271   2.710   1.888   3.915  1.9731 -1.8138 -0.1458
40623SOL    HW225272   2.686   1.799   4.035 -1.3105  0.9748  1.4411
40624SOL     OW25273   9.329   2.197   4.596  0.3562  0.5581 -0.3804
40624SOL    HW125274   9.383   2.236   4.664  1.7614 -0.0773 -1.1011
40624SOL    HW225275   9.389   2.182   4.523 -1.2558  2.0584 -2.1304
40625SOL     OW25276   7.142   6.208   2.622 -0.1541  0.1949  0.3309
40625SOL    HW125277   7.166   6.263   2.548 -1.2982  1.0767  0.5876
40625SOL    HW225278   7.224   6.165   2.648  0.5395  0.9448 -0.5581
40626SOL     OW25279   8.588   2.598   4.444  0.6788 -0.2662  0.4846
40626SOL    HW125280   8.591   2.524   4.505  1.3943  0.6998  1.6754
40626SOL    HW225281   8.533   2.567   4.372  0.5386 -1.7709  1.1874
40627SOL     OW25282   5.480   0.929   2.037  0.6152  0.3095 -0.5184
40627SOL    HW125283   5.484   1.008   2.091  2.2511  0.1992 -0.4197
40627SOL    HW225284   5.486   0.961   1.947 -2.2263  0.5014 -0.7024
40628SOL     OW25285   0.864   6.951   0.113  0.1649  0.0265  0.2953
40628SOL    HW125286   0.887   6.927   0.023  1.3441 -1.6146  0.9657
40628SOL    HW225287   0.785   6.899   0.132  1.1540 -1.3275  0.8652
40629SOL     OW25288   3.553   3.055  10.147  0.0825 -0.7588 -0.2040
40629SOL    HW125289   3.582   3.077  10.058 -0.2463 -0.3457 -0.2118
40629SOL    HW225290   3.462   3.084  10.151  1.2058  3.1513  1.5691
40630SOL     OW25291   5.580   3.971   9.828  0.7627 -0.4455 -0.2385
40630SOL    HW125292   5.562   4.058   9.792  1.5010 -0.3123 -0.3072
40630SOL    HW225293   5.540   3.911   9.766 -0.0643 -0.1531 -0.0055
40631SOL     OW25294   9.859   1.192  10.701 -0.4362  0.3460 -0.3355
40631SOL    HW125295   9.860   1.146  10.785 -0.5204  0.4487 -0.2778
40631SOL    HW225296   9.934   1.252  10.706  0.2192 -0.4126 -0.7640
40632SOL     OW25297   2.205   8.982   5.331 -0.3448  0.1174  0.4441
40632SOL    HW125298   2.219   9.057   5.273  0.0857  0.5437  1.0875
40632SOL    HW225299   2.148   9.015   5.400 -1.6216 -0.6340 -0.1928
40633SOL     OW25300  10.800   5.654   7.492 -0.1033  0.3679 -0.1174
40633SOL    HW125301  10.740   5.725   7.512 -0.8468  0.2110 -1.6946
40633SOL    HW225302  10.749   5.574   7.505 -0.3837  0.2398 -1.7802
40634SOL     OW25303   3.420   3.033   9.617  0.2802 -0.2967  0.2082
40634SOL    HW125304   3.459   2.954   9.578  0.7301  1.2299 -2.6979
40634SOL    HW225305   3.328   3.009   9.630  0.6016 -1.5906  0.2585
40635SOL     OW25306   8.161   6.406   3.641 -0.2284 -0.5489  0.4504
40635SOL    HW125307   8.202   6.320   3.633 -2.0182 -1.4605  0.5399
40635SOL    HW225308   8.117   6.403   3.726 -0.7488  0.2580  0.2171
40636SOL     OW25309   2.828   7.908   6.867  0.0496  0.2547 -0.2857
40636SOL    HW125310   2.856   7.949   6.948  2.2036 -0.6414 -0.4938
40636SOL    HW225311   2.799   7.820   6.893  0.1669  0.1812 -0.3983
40637SOL     OW25312   6.228   1.555   0.180  0.2428 -0.1260  0.4770
40637SOL    HW125313   6.154   1.612   0.201 -0.0850 -0.3905  0.0478
40637SOL    HW225314   6.289   1.611   0.133  0.0152 -0.0691  0.2454
40638SOL     OW25315   0.472   5.794   8.818  0.2777  0.0549  0.0208
40638SOL    HW125316   0.396   5.767   8.767 -1.0243  2.1904  0.7023
40638SOL    HW225317   0.544   5.798   8.754 -0.7553  0.3992 -1.1597
40639SOL     OW25318   9.250   3.815   6.848 -0.1634  0.3505 -0.2791
40639SOL    HW125319   9.167   3.845   6.885 -0.3711  0.6442 -0.9607
40639SOL    HW225320   9.226   3.784   6.760  0.2999 -0.4033 -0.1455
40640SOL     OW25321   0.296   7.499   1.914  0.3575  0.1230 -0.1592
40640SOL    HW125322   0.297   7.441   1.837 -0.2132 -1.3697  0.8971
40640SOL    HW225323   0.360   7.567   1.893  1.5583 -1.2430 -1.2256
40641SOL     OW25324   0.973   3.851   3.338 -0.1066  0.0415  0.0709
40641SOL    HW125325   0.919   3.773   3.328  1.1727 -1.0181  1.0678
40641SOL    HW225326   1.061   3.817   3.352  0.4529  1.6674  0.7043
40642SOL     OW25327   1.537   6.894   8.587  0.5886  0.0707  0.4867
40642SOL    HW125328   1.573   6.832   8.525 -0.2725 -0.5789  0.6059
40642SOL    HW225329   1.502   6.839   8.658 -1.8073  0.5291 -0.2439
40643SOL     OW25330   9.281   9.751  10.659  0.2657  0.3477  0.1876
40643SOL    HW125331   9.356   9.802  10.690 -0.1891  1.8825 -1.1189
40643SOL    HW225332   9.235   9.726  10.739  1.2844  0.7815  0.9317
40644SOL     OW25333   7.192   0.534   9.714 -0.0474 -1.0519 -0.4133
40644SOL    HW125334   7.281   0.541   9.748  0.8291  0.8283 -2.8093
40644SOL    HW225335   7.199   0.474   9.640 -0.6141 -0.4986 -0.9357
40645SOL     OW25336   4.489   9.170   2.631 -0.2585 -0.2960 -0.0135
40645SOL    HW125337   4.531   9.213   2.705 -1.8326 -0.7519  1.1867
40645SOL    HW225338   4.404   9.214   2.623 -0.3693 -0.6792 -1.1730
40646SOL     OW25339   4.699   6.139   4.871 -0.3021 -0.0834 -0.4058
40646SOL    HW125340   4.723   6.072   4.806 -1.4558  0.5466 -1.5302
40646SOL    HW225341   4.619   6.179   4.836  0.6423  2.2641 -0.0770
40647SOL     OW25342   3.121   4.617   9.687 -0.0192  0.4810  0.2531
40647SOL    HW125343   3.043   4.665   9.659 -0.4375 -0.6727 -0.6471
40647SOL    HW225344   3.192   4.681   9.680 -0.6101  1.0730 -0.5690
40648SOL     OW25345   3.887   9.757   4.489 -0.3384 -0.0322 -0.0005
40648SOL    HW125346   3.971   9.797   4.512 -0.0727 -1.1068  1.0127
40648SOL    HW225347   3.847   9.819   4.429 -0.0615  1.8628  1.6526
40649SOL     OW25348   9.170   4.723   6.657  0.4085  0.0987  0.6170
40649SOL    HW125349   9.263   4.715   6.633  0.4720  2.4753 -0.1888
40649SOL    HW225350   9.152   4.645   6.709  2.5324 -1.0377 -0.2354
40650SOL     OW25351   3.346   1.368   4.429  0.3036 -0.1848  0.4587
40650SOL    HW125352   3.292   1.379   4.351 -0.0709 -0.3534  0.6892
40650SOL    HW225353   3.372   1.276   4.428  0.7503 -0.0601  0.2476
40651SOL     OW25354   6.155   9.162   4.971  0.2046  0.0700  0.0886
40651SOL    HW125355   6.188   9.250   4.991  1.1233  0.4207 -2.5987
40651SOL    HW225356   6.063   9.165   4.997  0.6784  1.1524  1.8453
40652SOL     OW25357   7.850   3.305   1.583  0.5164  0.7740  0.0913
40652SOL    HW125358   7.831   3.312   1.677 -2.1312 -1.1175 -0.2123
40652SOL    HW225359   7.865   3.212   1.569  0.0683  0.9278 -1.5269
40653SOL     OW25360  10.547   5.072   8.096  0.3240  0.2470 -0.5867
40653SOL    HW125361  10.534   5.143   8.160 -1.9943 -0.9593  0.4097
40653SOL    HW225362  10.607   5.109   8.031  1.6456  2.0309  1.4982
40654SOL     OW25363   3.773  10.797   1.350 -0.1409  0.5006  0.3510
40654SOL    HW125364   3.775  10.870   1.411  0.6038  0.4396  0.4135
40654SOL    HW225365   3.849  10.744   1.373 -0.9080 -0.5373  0.5967
40655SOL     OW25366   1.236   5.287   7.038 -0.3358 -0.0134  0.1252
40655SOL    HW125367   1.243   5.369   7.087  1.1300 -0.2872  0.4260
40655SOL    HW225368   1.145   5.260   7.048 -1.5086  2.7577 -1.9360
40656SOL     OW25369   6.400   7.572  10.073 -0.8180 -0.1454  0.1655
40656SOL    HW125370   6.449   7.576  10.155  0.8747  1.5344 -0.8280
40656SOL    HW225371   6.392   7.664  10.045 -1.7133 -0.6398 -1.3413
40657SOL     OW25372  10.076   3.709   9.497 -0.4041  0.4984 -0.2806
40657SOL    HW125373  10.104   3.693   9.587  1.2251 -0.3032 -0.8879
40657SOL    HW225374  10.040   3.798   9.499  0.7495  0.9770  0.9266
40658SOL     OW25375  10.661   4.307   4.578 -0.3779 -0.1262  0.1412
40658SOL    HW125376  10.615   4.390   4.591  0.0468  0.2987 -0.9350
40658SOL    HW225377  10.753   4.331   4.574 -0.3943 -0.1000 -3.5659
40659SOL     OW25378  10.026  10.430   8.182  0.4206  0.8964 -0.1425
40659SOL    HW125379  10.003  10.337   8.173 -0.2274  0.9734  0.6302
40659SOL    HW225380  10.043  10.459   8.092  0.6501  0.0314 -0.3917
40660SOL     OW25381   7.659   5.958   2.012  0.0613  0.0161 -0.4031
40660SOL    HW125382   7.669   5.898   2.086  0.6082  1.0907  0.4150
40660SOL    HW225383   7.743   6.003   2.006 -0.2768  0.5735 -1.1169
40661SOL     OW25384   1.840   3.891   7.543 -0.3118 -0.5556 -0.7444
40661SOL    HW125385   1.791   3.947   7.604 -0.4551  0.4960 -1.7940
40661SOL    HW225386   1.782   3.880   7.468  0.7326  0.0197 -1.6545
40662SOL     OW25387   1.810   6.398   5.483 -0.3542 -0.0738  0.2918
40662SOL    HW125388   1.894   6.442   5.501 -1.1979  1.0810  1.5766
40662SOL    HW225389   1.803   6.331   5.551  0.2313 -1.2372 -0.7659
40663SOL     OW25390   3.344   4.065   0.887 -0.1232  0.3215 -0.3797
40663SOL    HW125391   3.275   4.067   0.952 -0.3373  2.1792 -0.6009
40663SOL    HW225392   3.425   4.075   0.937 -0.3520  2.9820 -0.3747
40664SOL     OW25393   6.440   4.926  10.862 -0.0996 -0.7388  0.3785
40664SOL    HW125394   6.484   4.913  10.946 -0.7121 -0.4314  0.7587
40664SOL    HW225395   6.412   4.838  10.835 -1.3237 -0.6600  1.3054
40665SOL     OW25396   5.082   0.898  10.102  0.3361 -0.3529  0.3086
40665SOL    HW125397   5.167   0.925  10.137  0.4341 -0.3354  0.0587
40665SOL    HW225398   5.090   0.910  10.007  0.1151 -0.5175  0.2678
40666SOL     OW25399   3.052   5.449   3.182 -0.0150 -0.0471  0.4939
40666SOL    HW125400   2.978   5.389   3.168 -0.0900  0.1684 -0.0465
40666SOL    HW225401   3.050   5.507   3.106 -1.1251  1.8800  1.9102
40667SOL     OW25402   1.479   7.980   5.860  0.6364 -0.2770 -0.2467
40667SOL    HW125403   1.434   7.921   5.799 -1.5982  0.1663  0.8398
40667SOL    HW225404   1.419   8.054   5.869  0.5044 -0.6119  2.9345
40668SOL     OW25405   9.612   3.142   5.621 -0.1803  0.3774  0.3242
40668SOL    HW125406   9.609   3.063   5.568  1.6105 -0.6969  1.7122
40668SOL    HW225407   9.521   3.167   5.634 -0.7714 -1.4188 -0.2103
40669SOL     OW25408   3.463   9.291   9.531 -0.2335  0.1539 -0.2499
40669SOL    HW125409   3.449   9.208   9.484  0.5428 -0.8249  1.1590
40669SOL    HW225410   3.386   9.300   9.588 -0.1206  0.1774 -0.0993
40670SOL     OW25411   2.166   0.618   6.837  0.0235  0.0148  0.0368
40670SOL    HW125412   2.192   0.709   6.848  0.3097 -0.1080  0.3832
40670SOL    HW225413   2.081   0.612   6.881 -0.2625  0.2482 -0.4821
40671SOL     OW25414   3.069   2.170   1.411 -0.7484 -0.5905  0.0066
40671SOL    HW125415   3.003   2.208   1.469  0.1580  0.7460  0.2116
40671SOL    HW225416   3.053   2.212   1.326 -1.2032 -1.5189 -0.3836
40672SOL     OW25417   5.452   3.077   3.789  0.4724 -0.2727 -0.2602
40672SOL    HW125418   5.522   3.029   3.833  1.6860 -0.4092 -2.1986
40672SOL    HW225419   5.384   3.012   3.774  0.6757 -0.5679  0.0779
40673SOL     OW25420   7.462   9.895   7.492 -0.1654 -0.4063  0.1229
40673SOL    HW125421   7.484   9.840   7.417 -0.4065  0.1092 -0.3316
40673SOL    HW225422   7.424   9.974   7.454 -1.4055 -0.6369  0.8155
40674SOL     OW25423   9.567   2.804   3.013 -0.3217 -0.1295  0.2770
40674SOL    HW125424   9.631   2.762   3.070 -1.0392 -0.0883  1.1321
40674SOL    HW225425   9.556   2.892   3.049  1.1342  0.8478 -1.4625
40675SOL     OW25426  10.342   6.733   9.947 -0.5101  0.9518 -0.4490
40675SOL    HW125427  10.298   6.725  10.031  1.1715  1.8835  0.5975
40675SOL    HW225428  10.426   6.774   9.968  0.2314  0.6322 -2.5087
40676SOL     OW25429   0.036   5.921   7.007 -0.0763 -0.3841  0.2865
40676SOL    HW125430   0.061   6.000   6.960 -0.2331 -0.8076 -0.5211
40676SOL    HW225431  -0.003   5.953   7.089 -0.0051  0.3641  0.0301
40677SOL     OW25432   5.402   2.434   4.099 -0.6060 -0.1648 -0.3722
40677SOL    HW125433   5.433   2.345   4.083  0.7560  0.1910  0.1721
40677SOL    HW225434   5.386   2.437   4.193 -0.3677  0.2574 -0.3462
40678SOL     OW25435   7.177   9.090   7.412 -0.3611 -0.1793  0.1316
40678SOL    HW125436   7.119   9.161   7.382  0.1506  0.0452 -0.3353
40678SOL    HW225437   7.226   9.065   7.334  1.0371  0.4515  0.7745
40679SOL     OW25438   2.710   2.094   4.826 -0.1026  0.3329 -0.3179
40679SOL    HW125439   2.660   2.018   4.796  1.7958 -0.1168 -2.6467
40679SOL    HW225440   2.747   2.131   4.746  0.6705  2.5280  0.9791
40680SOL     OW25441   9.658   0.316   5.875 -0.5396  0.1980  0.7182
40680SOL    HW125442   9.747   0.320   5.839 -0.3323 -2.0229  0.8822
40680SOL    HW225443   9.626   0.406   5.867  1.9564  1.2288  1.2834
40681SOL     OW25444   9.329  10.516   8.514 -0.2868  0.0280  0.5554
40681SOL    HW125445   9.319  10.446   8.578  2.5746 -1.1204 -0.1122
40681SOL    HW225446   9.304  10.595   8.561 -0.5844 -1.0658  2.3246
40682SOL     OW25447   2.142   0.527   7.908  0.3081 -0.1497  0.5306
40682SOL    HW125448   2.082   0.578   7.962  0.6497  0.2492  0.5410
40682SOL    HW225449   2.090   0.452   7.879 -0.1062  0.0349  0.7790
40683SOL     OW25450   7.256   8.655   8.409 -0.4772 -0.3133  0.2366
40683SOL    HW125451   7.223   8.652   8.319  1.1838  0.3607 -0.4334
40683SOL    HW225452   7.335   8.602   8.407  0.7798  1.4572  0.7433
40684SOL     OW25453   1.332   7.404  10.626  0.3518  0.0527  0.1629
40684SOL    HW125454   1.356   7.390  10.534 -0.0511  0.5448 -0.0266
40684SOL    HW225455   1.247   7.449  10.621  0.4937  0.3972  0.7701
40685SOL     OW25456   8.848  10.447   5.823  0.1578  0.0632  0.1175
40685SOL    HW125457   8.758  10.451   5.789  0.3019 -1.8335 -0.5759
40685SOL    HW225458   8.903  10.466   5.747  0.3799  2.2121  0.7459
40686SOL     OW25459   7.548   0.182   5.083 -0.3993  0.3152  0.1217
40686SOL    HW125460   7.566   0.098   5.042  2.7166 -0.4765  2.7040
40686SOL    HW225461   7.494   0.160   5.160  1.2973  0.4179  1.4008
40687SOL     OW25462   3.027   8.056   8.325 -0.4166 -0.0955  0.4095
40687SOL    HW125463   2.982   8.118   8.268  0.8241 -1.1669 -1.8747
40687SOL    HW225464   2.958   8.022   8.382 -1.5970  1.4756 -0.0131
40688SOL     OW25465   6.295   0.059   4.447  0.3766  0.1187  0.0873
40688SOL    HW125466   6.370   0.116   4.461  2.2517 -2.0970 -0.1964
40688SOL    HW225467   6.222   0.102   4.492  2.1717  1.5957  1.7469
40689SOL     OW25468   4.136   4.337   7.261  0.9044 -0.5319  0.3575
40689SOL    HW125469   4.210   4.309   7.207  0.9973  0.5262 -0.0807
40689SOL    HW225470   4.163   4.421   7.297  0.1709 -0.4511  0.7319
40690SOL     OW25471   8.517  10.444   6.628 -0.0522  0.2721 -0.2975
40690SOL    HW125472   8.476  10.359   6.610 -1.5103  0.7991  0.4121
40690SOL    HW225473   8.552  10.435   6.717 -1.3772  0.8224  0.3014
40691SOL     OW25474   9.363   9.455   8.562 -0.2003 -0.3733 -0.3388
40691SOL    HW125475   9.340   9.510   8.487  1.8505  0.9900 -0.0667
40691SOL    HW225476   9.454   9.430   8.546 -0.7384 -2.8140  0.1259
40692SOL     OW25477   5.153   4.396   0.951  0.4102 -0.0983 -0.2845
40692SOL    HW125478   5.204   4.444   1.016  0.1353 -0.2679  0.0558
40692SOL    HW225479   5.152   4.306   0.982  2.6829 -0.7929 -1.9835
40693SOL     OW25480   4.035   6.388   8.823 -0.2675 -0.3569  0.2981
40693SOL    HW125481   4.059   6.345   8.905  0.8554  0.2439  0.2960
40693SOL    HW225482   3.997   6.472   8.851  2.7454  1.1704  0.2039
40694SOL     OW25483   1.437   4.655   4.456  0.4529  0.5140 -0.2800
40694SOL    HW125484   1.351   4.687   4.428  0.9045  0.5117 -1.7981
40694SOL    HW225485   1.482   4.732   4.490  0.2162  0.7385 -0.4710
40695SOL     OW25486   8.896   1.385  10.452  0.1936  0.2025  0.0042
40695SOL    HW125487   8.841   1.308  10.442 -1.3391  1.2044  0.3024
40695SOL    HW225488   8.836   1.454  10.481  1.7893  1.1265  1.2721
40696SOL     OW25489   3.327  10.841   3.951  0.3556  0.0495  0.0951
40696SOL    HW125490   3.406  10.895   3.958 -0.1891  0.9473 -0.4670
40696SOL    HW225491   3.255  10.902   3.965 -0.2830 -0.5226 -0.6173
40697SOL     OW25492   7.777   7.884  10.039 -0.1307 -0.4573 -0.1693
40697SOL    HW125493   7.773   7.849   9.950  0.8280 -2.2333  0.4146
40697SOL    HW225494   7.821   7.815  10.090  0.5785  1.0567  1.4049
40698SOL     OW25495   5.369   2.894   9.334  0.1642 -0.0568  0.6059
40698SOL    HW125496   5.309   2.819   9.332 -2.3189  1.7933  0.0562
40698SOL    HW225497   5.398   2.904   9.244 -0.2304  0.1806  0.5042
40699SOL     OW25498   7.483   1.690   3.839 -0.0865 -0.1271 -0.1308
40699SOL    HW125499   7.467   1.601   3.807 -0.5082  0.1758 -0.7669
40699SOL    HW225500   7.396   1.723   3.862  0.0759  0.1054  0.1652
40700SOL     OW25501   2.034   7.438   1.435 -0.3918 -0.0978 -0.4484
40700SOL    HW125502   2.005   7.430   1.344  0.1020 -0.5099 -0.5723
40700SOL    HW225503   2.128   7.457   1.429 -0.3623 -0.0955 -0.0215
40701SOL     OW25504   6.455   7.452   2.929 -0.0994 -0.0821  0.1955
40701SOL    HW125505   6.368   7.493   2.933 -0.4378 -0.8819  1.6604
40701SOL    HW225506   6.497   7.476   3.011  1.2123  0.5469 -0.6336
40702SOL     OW25507   8.245   0.247   3.120  0.1358 -0.1714 -0.4974
40702SOL    HW125508   8.295   0.299   3.057 -1.3777  2.0288 -0.0083
40702SOL    HW225509   8.169   0.216   3.071  0.9195 -1.8515 -0.7260
40703SOL     OW25510   2.880   9.509  10.702 -0.1810 -0.1227 -0.0449
40703SOL    HW125511   2.959   9.455  10.702  1.2291  1.7657  1.2102
40703SOL    HW225512   2.908   9.592  10.662 -1.5847  0.5191  0.2371
40704SOL     OW25513   1.455   0.292   9.937  0.5965  0.3522 -0.2921
40704SOL    HW125514   1.520   0.339   9.885 -0.4447  0.6463 -1.3822
40704SOL    HW225515   1.376   0.292   9.882 -0.3080 -0.0454  0.9631
40705SOL     OW25516   4.011   0.659   8.060 -0.0312  0.3836  0.3936
40705SOL    HW125517   4.033   0.618   8.144 -0.1752  1.8690  1.1822
40705SOL    HW225518   4.039   0.750   8.069  0.4335  0.4454 -1.3790
40706SOL     OW25519   9.801   5.272   0.382  0.0475  0.4722 -0.2807
40706SOL    HW125520   9.880   5.292   0.432 -1.3037  2.3519  1.2517
40706SOL    HW225521   9.797   5.340   0.315 -0.8042  1.0555  0.3417
40707SOL     OW25522   9.997   9.028   4.497  0.0615  0.1060  0.2477
40707SOL    HW125523   9.907   9.004   4.475 -0.2485  0.0541  1.5235
40707SOL    HW225524  10.023   9.088   4.427 -1.5739  1.4725  0.7460
40708SOL     OW25525   2.882   2.328   4.119 -0.5246  0.3620  0.0655
40708SOL    HW125526   2.795   2.362   4.099 -0.3643 -0.0003 -1.4006
40708SOL    HW225527   2.913   2.382   4.192 -0.7636  2.5838 -1.3593
40709SOL     OW25528   0.981   9.023   1.531 -0.4165  0.1716  0.2162
40709SOL    HW125529   0.912   9.072   1.575 -2.5442 -1.0569 -1.5266
40709SOL    HW225530   0.943   8.999   1.446  3.3376  2.3578 -2.4211
40710SOL     OW25531   0.045   1.213   3.689  0.1072  0.3208 -0.2600
40710SOL    HW125532  -0.027   1.243   3.632 -0.2258 -0.9375 -0.5433
40710SOL    HW225533   0.121   1.211   3.631  0.5537  2.2177  0.1792
40711SOL     OW25534   2.352   5.772   4.377  0.4531  0.4507 -0.0459
40711SOL    HW125535   2.298   5.838   4.421 -1.3489 -0.1047 -1.3124
40711SOL    HW225536   2.430   5.820   4.349 -0.9378  2.1472 -1.1783
40712SOL     OW25537   8.742   5.322   3.310  0.3788 -0.2680 -0.6222
40712SOL    HW125538   8.655   5.327   3.351  0.6189  0.8667 -0.2130
40712SOL    HW225539   8.800   5.298   3.382  0.7490  1.3882 -0.3130
40713SOL     OW25540   7.369  10.162   6.084 -0.1381  0.0773  0.2158
40713SOL    HW125541   7.457  10.197   6.095  0.4574 -1.1022 -0.5787
40713SOL    HW225542   7.372  10.076   6.126 -0.2987 -0.8316 -1.5607
40714SOL     OW25543   5.813   5.341   5.759 -0.3842 -0.2063  0.4534
40714SOL    HW125544   5.880   5.306   5.701 -0.7757 -0.2754  0.0337
40714SOL    HW225545   5.771   5.263   5.797 -1.1702 -0.2037 -0.3815
40715SOL     OW25546   8.922   7.662   8.406  0.2327  0.1385 -0.1225
40715SOL    HW125547   8.989   7.669   8.474  0.3852 -0.3946 -0.2188
40715SOL    HW225548   8.962   7.611   8.336 -0.2318 -0.0779 -0.2387
40716SOL     OW25549   3.002   3.691   1.277 -0.0348 -0.1271  0.4610
40716SOL    HW125550   3.006   3.601   1.309 -0.9296 -0.9228 -1.5037
40716SOL    HW225551   2.909   3.715   1.286 -0.4338 -0.5611 -1.8223
40717SOL     OW25552   7.505   2.917   3.151 -0.2897  0.2774  0.0044
40717SOL    HW125553   7.416   2.898   3.181  0.6078  1.4283  3.9423
40717SOL    HW225554   7.548   2.832   3.149 -1.0427 -0.1049 -0.4311
40718SOL     OW25555   5.237   6.059   1.839 -0.2823 -0.2300 -0.8275
40718SOL    HW125556   5.317   6.016   1.868 -1.7705 -1.8920  1.0816
40718SOL    HW225557   5.172   6.036   1.904 -2.5867  0.2452 -2.8058
40719SOL     OW25558   8.180   2.224   1.933  0.5282  0.1228 -0.5647
40719SOL    HW125559   8.239   2.287   1.892  1.0772 -0.5872 -0.8844
40719SOL    HW225560   8.107   2.217   1.872 -0.8904  2.4180  0.6853
40720SOL     OW25561   8.442  10.253   8.860  0.2002 -0.1521 -0.2317
40720SOL    HW125562   8.511  10.317   8.842 -1.2794  1.8278  0.7058
40720SOL    HW225563   8.468  10.176   8.811  1.7229  1.3860 -2.0314
40721SOL     OW25564  10.003   5.834   2.227 -0.1490 -0.0959  0.1026
40721SOL    HW125565  10.036   5.749   2.197  0.2334  0.1379 -0.1397
40721SOL    HW225566   9.941   5.861   2.160 -0.7245 -0.4595  0.4776
40722SOL     OW25567   5.394   1.133   1.531 -0.3345 -0.3318  0.3473
40722SOL    HW125568   5.444   1.055   1.509  1.2343  0.8784 -0.6610
40722SOL    HW225569   5.392   1.134   1.627  0.4927 -1.0814  0.3846
40723SOL     OW25570   1.283   7.284   5.170  0.1335  0.4787  0.5648
40723SOL    HW125571   1.246   7.251   5.088  1.2812  1.4217 -0.3670
40723SOL    HW225572   1.209   7.287   5.231 -0.4215 -1.8960  0.1312
40724SOL     OW25573   8.018   6.223   1.416 -0.2633 -0.6038 -0.0269
40724SOL    HW125574   8.020   6.141   1.368  0.6182  0.0612 -1.1680
40724SOL    HW225575   8.081   6.210   1.488 -0.4365 -1.0591  0.0451
40725SOL     OW25576   4.822   6.434   5.621  0.1140  0.0513  0.9448
40725SOL    HW125577   4.909   6.393   5.619  0.5968  1.0118  1.5398
40725SOL    HW225578   4.822   6.484   5.703 -1.2909 -0.5508  1.3420
40726SOL     OW25579   4.923   2.164   7.403 -0.1968 -0.1045 -0.0747
40726SOL    HW125580   4.836   2.142   7.434 -0.4669  0.0910 -0.6623
40726SOL    HW225581   4.944   2.247   7.445 -0.5367  0.1323 -0.3647
40727SOL     OW25582   1.989   3.202   3.261  0.3924  0.2693 -0.3856
40727SOL    HW125583   2.073   3.234   3.293  0.1948  1.1291 -0.6890
40727SOL    HW225584   1.926   3.232   3.326  0.2822 -0.0977 -0.3241
40728SOL     OW25585   2.933   0.484   1.170  0.2106  0.3374 -0.1812
40728SOL    HW125586   2.902   0.558   1.118 -0.0899  1.0418  0.9742
40728SOL    HW225587   3.025   0.475   1.145 -0.3619 -0.5128 -2.1627
40729SOL     OW25588   9.182   5.317   2.836 -0.6706 -0.0626 -0.2043
40729SOL    HW125589   9.102   5.289   2.790 -0.4529 -0.8193 -0.1320
40729SOL    HW225590   9.197   5.249   2.901  0.0148  0.0958 -0.1892
40730SOL     OW25591   6.089   4.355   3.221 -0.4270  0.3367  0.7029
40730SOL    HW125592   6.048   4.422   3.166  0.6003  0.3573 -0.0773
40730SOL    HW225593   6.144   4.404   3.282 -0.3035  0.2419  0.6691
40731SOL     OW25594   4.158   2.205  10.192  0.2402  0.1879 -0.0235
40731SOL    HW125595   4.118   2.174  10.273 -0.1658  1.2810  0.2190
40731SOL    HW225596   4.101   2.276  10.163  0.5140 -0.0417 -1.1471
40732SOL     OW25597   5.494   8.391  10.822 -0.3576  0.1292  0.0028
40732SOL    HW125598   5.534   8.477  10.831 -0.8796  0.5088 -1.1737
40732SOL    HW225599   5.400   8.408  10.821 -0.4634 -0.4515 -0.2352
40733SOL     OW25600   7.995   5.475   0.148  0.1067  0.7034 -0.2939
40733SOL    HW125601   7.938   5.508   0.218 -0.5014  2.7322 -1.6315
40733SOL    HW225602   7.971   5.383   0.139 -0.6122  0.6833  1.3641
40734SOL     OW25603  10.304   4.411   2.326  0.4727  0.0114  0.2279
40734SOL    HW125604  10.336   4.338   2.273  0.0859 -0.8764  1.1706
40734SOL    HW225605  10.256   4.467   2.265  1.7761  0.1134 -0.7384
40735SOL     OW25606   3.295   1.796   1.280 -0.2499  0.7174 -0.3263
40735SOL    HW125607   3.286   1.830   1.369 -0.2072  1.7691 -0.7125
40735SOL    HW225608   3.353   1.721   1.289 -1.0394  0.2064  0.6737
40736SOL     OW25609   6.755   6.152  10.367 -0.1806  0.0602  0.0334
40736SOL    HW125610   6.849   6.175  10.368  0.4338 -2.1399 -1.3672
40736SOL    HW225611   6.711   6.236  10.357  1.6870  1.1020  0.0028
40737SOL     OW25612   0.919   0.373   0.521  0.0060  0.6065  0.3052
40737SOL    HW125613   0.990   0.328   0.476  0.3396 -0.3008  1.6673
40737SOL    HW225614   0.840   0.344   0.476  0.3111 -0.4829  0.4479
40738SOL     OW25615   3.160   5.814   0.700 -0.3748  0.2559 -0.5915
40738SOL    HW125616   3.067   5.790   0.704 -1.1308  2.8977 -0.0980
40738SOL    HW225617   3.177   5.831   0.607 -0.6449  0.6300 -0.5746
40739SOL     OW25618   3.694   1.772   0.060 -0.4340  0.1809 -0.3144
40739SOL    HW125619   3.635   1.744  -0.010 -0.5218 -0.6503  0.0806
40739SOL    HW225620   3.764   1.819   0.015 -1.3628  1.1407 -0.7930
40740SOL     OW25621   9.253   6.795   6.853  0.0140  0.1145  0.1814
40740SOL    HW125622   9.200   6.835   6.783  1.6657  0.0371 -1.1812
40740SOL    HW225623   9.338   6.837   6.844  0.5734 -0.7090  1.4735
40741SOL     OW25624   3.259   5.946   7.008  0.1846  0.8640 -0.1898
40741SOL    HW125625   3.337   5.898   6.979  0.1035 -0.5536  1.7384
40741SOL    HW225626   3.285   5.985   7.092 -1.9221 -2.1660  2.1060
40742SOL     OW25627   7.098   1.212   1.101 -0.2370  0.4153 -0.6414
40742SOL    HW125628   7.175   1.248   1.145 -0.1808  1.9027 -1.8781
40742SOL    HW225629   7.034   1.199   1.171  0.7406  0.2049  0.2368
40743SOL     OW25630   1.599   2.298   5.668 -0.5065  0.4054 -0.1757
40743SOL    HW125631   1.513   2.257   5.667 -0.9798  1.2342  1.5403
40743SOL    HW225632   1.646   2.260   5.594 -2.1363 -0.5099 -0.7716
40744SOL     OW25633   7.398   5.364   9.119 -0.5019 -0.1132  0.4666
40744SOL    HW125634   7.472   5.303   9.115 -0.8126 -0.5447  1.1411
40744SOL    HW225635   7.343   5.330   9.189 -2.5612 -1.1721 -1.5530
40745SOL     OW25636   3.153   9.953   5.109 -0.9960 -0.0469  0.1405
40745SOL    HW125637   3.157   9.995   5.195  2.0870  1.0109 -0.4122
40745SOL    HW225638   3.209  10.006   5.053  0.9443 -3.3203 -1.3374
40746SOL     OW25639   9.837   2.212   0.342  0.5109 -0.3433  0.1321
40746SOL    HW125640   9.754   2.190   0.386  1.4657 -1.4264  1.4586
40746SOL    HW225641   9.886   2.130   0.341  1.5206  0.2540 -0.7675
40747SOL     OW25642   3.565   1.969   1.772 -0.0349  0.0640 -0.2931
40747SOL    HW125643   3.603   2.053   1.747 -1.4582 -0.1199 -3.7286
40747SOL    HW225644   3.600   1.908   1.707 -0.5073 -1.6277  0.9665
40748SOL     OW25645   1.213   7.180   7.842 -0.7278  0.6967 -0.5847
40748SOL    HW125646   1.142   7.136   7.796  0.1474 -1.7315  0.1997
40748SOL    HW225647   1.291   7.159   7.791 -0.1063  0.1865  0.5222
40749SOL     OW25648  10.469   7.032   2.197  0.7812 -0.8674 -0.7570
40749SOL    HW125649  10.505   6.944   2.207  2.0871 -0.2103  0.6942
40749SOL    HW225650  10.542   7.083   2.163  0.5308 -0.0107 -0.0331
40750SOL     OW25651   5.562   9.311  10.492  0.3856 -0.8407  0.2217
40750SOL    HW125652   5.570   9.216  10.497 -0.5393 -0.9368 -0.0479
40750SOL    HW225653   5.501   9.335  10.561 -0.6966 -0.6273 -0.7846
40751SOL     OW25654   3.455   5.543   4.066  0.1740 -0.0481 -0.4843
40751SOL    HW125655   3.389   5.484   4.031  0.4903  0.2475 -1.6352
40751SOL    HW225656   3.437   5.627   4.023  1.9904 -0.2467 -1.7635
40752SOL     OW25657   6.056   3.754   8.438  0.1112 -0.3577 -0.2922
40752SOL    HW125658   6.059   3.745   8.343  0.8757 -1.6750 -0.1607
40752SOL    HW225659   5.981   3.701   8.465  0.8336 -1.2587 -0.0350
40753SOL     OW25660   7.212   8.044   0.483 -0.6004 -0.1738 -0.0499
40753SOL    HW125661   7.230   8.132   0.516  2.4862 -1.1175  1.1628
40753SOL    HW225662   7.136   8.055   0.427 -0.9195  3.0790  0.7956
40754SOL     OW25663   7.694   2.229   4.868 -0.3321  0.3206 -0.2455
40754SOL    HW125664   7.748   2.156   4.900 -1.3701 -0.3792 -0.0306
40754SOL    HW225665   7.606   2.208   4.898 -0.6821  1.6123 -0.2970
40755SOL     OW25666   3.449  10.833   6.219  0.4021  0.0785 -0.0429
40755SOL    HW125667   3.500  10.827   6.300 -0.4928  1.7044  0.6768
40755SOL    HW225668   3.511  10.808   6.150  1.2336 -1.1524  1.0953
40756SOL     OW25669  10.792   6.231   1.533 -0.2998 -0.3562  0.1975
40756SOL    HW125670  10.753   6.143   1.539 -4.0739  1.0328 -0.6221
40756SOL    HW225671  10.751   6.269   1.455 -1.0100  3.0404  2.0566
40757SOL     OW25672   5.142   9.942   6.512  0.1044 -0.1553  0.1331
40757SOL    HW125673   5.057   9.982   6.530 -0.7383 -0.3728 -2.8784
40757SOL    HW225674   5.173   9.985   6.432  2.3189 -0.8869  0.5166
40758SOL     OW25675  10.593   8.539  10.450 -0.3525 -0.5306  0.0525
40758SOL    HW125676  10.554   8.470  10.398  2.0590 -1.9564 -0.0077
40758SOL    HW225677  10.562   8.524  10.539 -0.5601 -1.1420 -0.1239
40759SOL     OW25678   7.884  10.207   9.727 -0.3185 -0.0246  0.1403
40759SOL    HW125679   7.915  10.289   9.766  1.3053 -1.1704  1.4250
40759SOL    HW225680   7.965  10.159   9.705 -1.2207 -1.3562 -0.4111
40760SOL     OW25681   1.724   7.609   8.192  0.1641  0.3298 -0.3091
40760SOL    HW125682   1.656   7.578   8.252 -0.5272  1.0908 -0.6896
40760SOL    HW225683   1.684   7.605   8.105  0.3060  1.5649 -0.4520
40761SOL     OW25684   2.476   1.060   5.453  0.6072 -0.2737 -0.3119
40761SOL    HW125685   2.532   1.137   5.452 -0.1378  0.2714 -1.2508
40761SOL    HW225686   2.424   1.067   5.373 -1.7251 -0.0814  1.1466
40762SOL     OW25687   7.995   5.088   2.079 -0.6983 -0.0732 -0.1295
40762SOL    HW125688   8.045   5.157   2.036 -0.4910 -1.0177 -1.4538
40762SOL    HW225689   7.943   5.049   2.009 -0.5621 -1.4847  0.5354
40763SOL     OW25690   2.535   3.559   0.758 -0.3289 -0.1286  0.0089
40763SOL    HW125691   2.504   3.648   0.777 -3.2630 -1.1590  0.6073
40763SOL    HW225692   2.592   3.537   0.832 -0.3151  0.9253  0.3297
40764SOL     OW25693   7.723   0.201   0.098  0.2076  0.1437 -0.3213
40764SOL    HW125694   7.633   0.174   0.118 -0.1556 -0.7386 -2.7850
40764SOL    HW225695   7.713   0.275   0.038  1.1531  0.7943  0.2989
40765SOL     OW25696   0.681   2.206   3.524  0.4492 -0.4781 -0.5541
40765SOL    HW125697   0.687   2.223   3.430 -0.4440  0.3822 -0.4789
40765SOL    HW225698   0.724   2.281   3.565  0.6051 -0.7191 -0.2720
40766SOL     OW25699   7.094   8.869   2.138  0.0576  0.4335  0.0739
40766SOL    HW125700   7.062   8.784   2.170 -0.0314  0.1400 -0.7767
40766SOL    HW225701   7.181   8.877   2.176  0.8722 -0.9645 -1.3985
40767SOL     OW25702   6.016   6.410   3.908  0.5080 -0.6587  0.2734
40767SOL    HW125703   5.925   6.436   3.920  0.5720  0.2665 -1.0304
40767SOL    HW225704   6.062   6.451   3.980 -0.1008 -1.1637  0.9659
40768SOL     OW25705   6.102   7.009   4.102  0.1246  0.1385 -0.2773
40768SOL    HW125706   6.049   6.980   4.177  0.1136  1.0615  0.0886
40768SOL    HW225707   6.104   7.104   4.110  2.9108  0.1003  0.4662
40769SOL     OW25708   7.515   0.819   8.720  0.1320  0.1835 -0.2554
40769SOL    HW125709   7.527   0.788   8.630 -0.9376  1.2550 -0.7878
40769SOL    HW225710   7.586   0.882   8.733  1.2537 -1.1321  0.2297
40770SOL     OW25711   4.432   4.538   4.016 -0.2238  0.5340  0.8919
40770SOL    HW125712   4.488   4.588   3.957  0.9308 -0.0824  1.4212
40770SOL    HW225713   4.373   4.490   3.958 -0.5199  1.5463  0.3405
40771SOL     OW25714   3.511   9.376  10.810  0.1744 -1.0495  0.3407
40771SOL    HW125715   3.561   9.425  10.744  1.5326 -1.6912  0.8430
40771SOL    HW225716   3.524   9.426  10.891 -0.2366 -1.0763  0.4225
40772SOL     OW25717   8.747   5.737   8.622 -0.7278 -0.1570 -0.2018
40772SOL    HW125718   8.749   5.828   8.651 -1.1564  0.2279 -1.3165
40772SOL    HW225719   8.748   5.686   8.703  0.6109  0.8002  0.4122
40773SOL     OW25720   3.821  10.486   4.692  0.3584  0.1335 -0.0068
40773SOL    HW125721   3.809  10.528   4.607 -1.1783 -0.7922 -0.2868
40773SOL    HW225722   3.747  10.516   4.744  0.1492 -0.9080  0.3231
40774SOL     OW25723  10.127   2.540   0.129  0.2231  0.4049 -0.0959
40774SOL    HW125724  10.204   2.557   0.075  0.7283 -0.0434  0.4791
40774SOL    HW225725  10.111   2.446   0.121 -0.6882  0.5976 -0.7625
40775SOL     OW25726   1.981  10.201   5.143  1.1768  0.1227  0.0383
40775SOL    HW125727   1.932  10.142   5.086  0.6437  0.1884  0.4173
40775SOL    HW225728   1.924  10.213   5.220  1.6091  0.5260  0.3023
40776SOL     OW25729   0.589   6.040   1.743  0.2633 -0.2880  0.2558
40776SOL    HW125730   0.618   6.128   1.768 -1.8216  0.8180 -0.9213
40776SOL    HW225731   0.643   6.018   1.667  0.8776 -0.0902  0.6286
40777SOL     OW25732   1.368   7.847   5.588  0.1492 -0.3664  0.1553
40777SOL    HW125733   1.273   7.831   5.590  0.1657 -0.4044  1.1985
40777SOL    HW225734   1.403   7.776   5.535 -0.3080 -0.9722  0.6468
40778SOL     OW25735   7.295   5.456   0.419  0.3440 -0.2819  0.0331
40778SOL    HW125736   7.377   5.478   0.463  1.1973  2.0052 -2.4701
40778SOL    HW225737   7.252   5.540   0.403 -1.6276 -1.2965 -0.3621
40779SOL     OW25738   2.174   0.779   3.486 -0.1971  0.1324  0.2174
40779SOL    HW125739   2.191   0.736   3.402 -0.3546  1.5233 -0.5514
40779SOL    HW225740   2.244   0.748   3.544  0.1588 -0.5119 -0.5433
40780SOL     OW25741   9.066   4.055   1.713  0.3187  1.0583 -0.3566
40780SOL    HW125742   9.007   4.062   1.638  0.8613  2.4079 -0.6903
40780SOL    HW225743   9.009   4.035   1.787 -0.3146  0.4793 -0.9832
40781SOL     OW25744   8.654   5.501   7.798  0.2321 -0.4843  0.4665
40781SOL    HW125745   8.653   5.594   7.819 -2.7037 -0.1201 -0.8344
40781SOL    HW225746   8.583   5.463   7.851  0.7305 -1.8079  0.2301
40782SOL     OW25747   5.503  10.393   7.362 -0.1749  0.6271 -0.6103
40782SOL    HW125748   5.471  10.469   7.313  0.1645 -0.3773 -2.4944
40782SOL    HW225749   5.428  10.334   7.367 -0.0894  0.5447 -0.2674
40783SOL     OW25750   2.310   0.596   8.911  0.1647 -0.2602 -0.3376
40783SOL    HW125751   2.216   0.612   8.925 -0.3002 -2.4872 -0.5154
40783SOL    HW225752   2.316   0.566   8.821  1.2297  0.8640 -0.6604
40784SOL     OW25753   9.461  10.631   5.298  0.0985 -0.3257  0.0548
40784SOL    HW125754   9.535  10.691   5.307  0.4818 -0.7907  0.0295
40784SOL    HW225755   9.489  10.551   5.343 -0.7402 -0.2006  0.8523
40785SOL     OW25756   0.238   5.715   3.885 -0.2752  0.7349 -0.5784
40785SOL    HW125757   0.164   5.774   3.874  0.6371  2.6617  2.4206
40785SOL    HW225758   0.314   5.772   3.892  1.3208 -1.1052 -1.9370
40786SOL     OW25759   7.351   9.844   5.770 -0.2732 -0.1892 -0.0719
40786SOL    HW125760   7.400   9.806   5.843  0.8308 -0.3986 -0.8832
40786SOL    HW225761   7.418   9.859   5.703 -1.2669 -0.0211 -1.0404
40787SOL     OW25762   8.757   7.746   7.600  0.3237 -0.4403 -0.0976
40787SOL    HW125763   8.845   7.782   7.597  0.2172 -0.1886 -0.3052
40787SOL    HW225764   8.766   7.656   7.567  0.4284 -0.2548 -0.5824
40788SOL     OW25765   5.483   4.079   1.305 -0.1456 -0.3799  0.2200
40788SOL    HW125766   5.519   4.168   1.304 -0.3736 -0.2863  0.3034
40788SOL    HW225767   5.538   4.030   1.243 -1.2970  0.3123 -1.4314
40789SOL     OW25768   5.921   9.358  10.356  0.2436 -0.5908  0.1479
40789SOL    HW125769   5.907   9.317  10.442 -4.4669  1.6599  0.8115
40789SOL    HW225770   5.927   9.285  10.295 -2.2615 -2.4239  1.8627
40790SOL     OW25771   3.300   2.148   6.794 -0.1432 -0.2057 -0.1782
40790SOL    HW125772   3.381   2.167   6.746  1.2263  3.4246  2.9951
40790SOL    HW225773   3.235   2.206   6.755 -1.2632 -2.7405 -2.3735
40791SOL     OW25774   2.108   4.763   9.413  0.2758 -0.1606  0.7098
40791SOL    HW125775   2.149   4.793   9.333 -1.5881 -2.5826 -1.3278
40791SOL    HW225776   2.175   4.711   9.457  1.1759  0.8231  0.5296
40792SOL     OW25777   3.454   0.435   6.538 -0.2954  0.1825  0.1946
40792SOL    HW125778   3.426   0.348   6.511  0.4722  0.3297 -1.1768
40792SOL    HW225779   3.544   0.422   6.570 -0.9869  0.1062  2.2730
40793SOL     OW25780  10.105   1.573   9.170 -0.2821 -0.2928  0.1606
40793SOL    HW125781  10.031   1.551   9.114 -1.2584 -2.0048  2.0133
40793SOL    HW225782  10.179   1.524   9.134 -1.1815 -2.3765  1.0183
40794SOL     OW25783   6.194   8.507   9.047  0.4648  0.1590 -0.1876
40794SOL    HW125784   6.203   8.438   8.982  1.3765  0.5732 -0.5112
40794SOL    HW225785   6.100   8.510   9.065  0.4776 -1.8013  0.5408
40795SOL     OW25786   2.645   4.186  10.032 -0.7001  0.2795  0.4299
40795SOL    HW125787   2.586   4.155  10.102 -0.8554  0.3853  0.3489
40795SOL    HW225788   2.713   4.119  10.026 -0.6542  0.2953  0.7221
40796SOL     OW25789   7.545   4.568   3.294 -0.3135  0.1436  0.0831
40796SOL    HW125790   7.537   4.532   3.206  2.0820 -1.9398  0.5856
40796SOL    HW225791   7.613   4.635   3.287 -0.0347 -0.1085  0.3558
40797SOL     OW25792   2.448   7.981   9.129  0.7159 -0.1377 -0.1085
40797SOL    HW125793   2.507   8.041   9.176  2.8219 -1.1055 -1.3750
40797SOL    HW225794   2.384   8.038   9.086  1.2809  1.0264  0.5633
40798SOL     OW25795  10.827   3.320   4.570  0.3851 -0.0950  0.3906
40798SOL    HW125796  10.839   3.241   4.623 -0.2097 -0.6843 -0.3400
40798SOL    HW225797  10.740   3.352   4.595 -0.6023 -1.2692 -1.3397
40799SOL     OW25798   1.044   2.610   6.673 -0.3579 -0.3668  0.1129
40799SOL    HW125799   1.053   2.516   6.684  2.3830 -0.0897  1.1438
40799SOL    HW225800   1.095   2.630   6.594  2.1545  0.5403  1.8309
40800SOL     OW25801   2.244   1.642   2.565  0.0830 -0.0439 -0.0150
40800SOL    HW125802   2.175   1.590   2.523  0.1887 -1.4188  1.4407
40800SOL    HW225803   2.209   1.664   2.651  1.1370 -0.0754  0.4384
40801SOL     OW25804  10.812   9.430   2.484  0.4633  0.4509  0.5684
40801SOL    HW125805  10.814   9.515   2.528  1.0646  0.0045  1.4358
40801SOL    HW225806  10.812   9.451   2.391 -0.2025  1.4097  0.7793
40802SOL     OW25807   7.438   8.679   3.156 -0.0925  0.0192  0.1214
40802SOL    HW125808   7.454   8.746   3.223 -1.1703  1.4960 -1.0346
40802SOL    HW225809   7.427   8.728   3.075  1.3890 -1.7442 -1.2197
40803SOL     OW25810   8.964   8.387   9.980 -0.1096 -0.5364 -0.0226
40803SOL    HW125811   8.909   8.464   9.994  0.7720 -0.1027  1.2646
40803SOL    HW225812   8.911   8.314  10.011 -0.6684 -0.3664 -0.5561
40804SOL     OW25813   8.971   7.046   3.990  0.4084  0.5572  0.0184
40804SOL    HW125814   9.022   7.055   4.071  0.2389  0.8879  0.0914
40804SOL    HW225815   8.938   6.956   3.992  0.5219  0.5188  0.2470
40805SOL     OW25816   6.894   3.812   8.020 -0.7479 -0.1098 -0.0853
40805SOL    HW125817   6.886   3.890   8.075 -1.0439 -0.5104  0.4525
40805SOL    HW225818   6.986   3.786   8.028 -0.2869  0.9909 -1.4036
40806SOL     OW25819   3.373   2.315  10.783  0.0945 -0.1475 -0.4231
40806SOL    HW125820   3.411   2.385  10.835  1.1904 -0.7856 -0.3383
40806SOL    HW225821   3.398   2.335  10.693  0.3757 -0.3945 -0.4036
40807SOL     OW25822   3.102   6.989   2.191  0.0505 -0.1296 -0.3619
40807SOL    HW125823   3.188   7.015   2.224  0.3055 -1.4497  0.0434
40807SOL    HW225824   3.087   6.902   2.226 -1.9851  0.5132  0.5445
40808SOL     OW25825  10.460   4.219   1.601  0.1482  0.1153 -0.0015
40808SOL    HW125826  10.534   4.252   1.550  0.0506  0.0163 -0.2084
40808SOL    HW225827  10.395   4.194   1.535 -0.0092  0.0606  0.1749
40809SOL     OW25828   1.377   2.765   9.684  0.0397  0.1176 -0.1597
40809SOL    HW125829   1.426   2.840   9.715 -0.2753  0.4368 -0.4256
40809SOL    HW225830   1.416   2.690   9.730 -0.0512  0.5085  0.5671
40810SOL     OW25831   6.858   4.848   7.587 -0.3449 -0.2734 -0.3333
40810SOL    HW125832   6.872   4.802   7.670 -1.7803 -1.5829 -0.7634
40810SOL    HW225833   6.937   4.829   7.536  0.1750 -0.1610  0.4047
40811SOL     OW25834   9.208   7.179   7.780 -0.7578  0.3497  0.2730
40811SOL    HW125835   9.251   7.232   7.714 -0.7074 -1.0930 -0.9069
40811SOL    HW225836   9.271   7.176   7.853  0.1887  0.0964 -0.5344
40812SOL     OW25837  10.817   7.385  10.680  0.0276  0.0605  0.2672
40812SOL    HW125838  10.789   7.408  10.591 -0.5364  1.3141  0.7580
40812SOL    HW225839  10.741   7.344  10.720  0.6971 -1.8029 -0.2389
40813SOL     OW25840   1.680   3.556   4.592 -0.2873 -0.4314  0.1700
40813SOL    HW125841   1.645   3.493   4.655 -0.8103 -0.0874  0.2306
40813SOL    HW225842   1.707   3.631   4.645 -1.4098  0.1670 -0.0612
40814SOL     OW25843   3.512  10.322   4.827 -0.1444  0.4250  0.4776
40814SOL    HW125844   3.478  10.253   4.884  2.2807 -0.6989  0.6747
40814SOL    HW225845   3.589  10.355   4.873  2.0572 -0.6824 -2.1506
40815SOL     OW25846   0.883   9.297   0.546  0.5132  0.0551 -0.4386
40815SOL    HW125847   0.831   9.290   0.466  2.1261 -0.4374 -1.4897
40815SOL    HW225848   0.947   9.226   0.539  1.8280  1.1099  0.4106
40816SOL     OW25849   9.175   6.845   9.550  0.3024 -0.2103  0.2970
40816SOL    HW125850   9.181   6.752   9.570  2.5399  0.2761  2.4598
40816SOL    HW225851   9.254   6.864   9.500 -0.3989  0.4573 -0.5916
40817SOL     OW25852   3.824   3.375   2.504 -0.3887 -0.5340 -0.0170
40817SOL    HW125853   3.737   3.413   2.498 -1.2302 -2.1407  1.2123
40817SOL    HW225854   3.842   3.341   2.416 -0.7989  0.1906 -0.3870
40818SOL     OW25855   7.870   9.594   4.288 -0.4774 -0.4415 -0.7539
40818SOL    HW125856   7.887   9.613   4.381  0.1072 -2.0880 -0.4926
40818SOL    HW225857   7.776   9.578   4.283 -0.2236 -2.3980 -0.0075
40819SOL     OW25858   9.656   5.124   5.326 -0.3659 -0.0393 -0.3068
40819SOL    HW125859   9.742   5.135   5.367  0.3313  2.0365 -2.1243
40819SOL    HW225860   9.629   5.212   5.302 -2.7977 -0.7068 -0.3082
40820SOL     OW25861   2.287   5.693   2.788 -0.1878 -0.2922  0.3655
40820SOL    HW125862   2.337   5.639   2.850 -0.7652 -1.3082 -0.0216
40820SOL    HW225863   2.196   5.667   2.802 -0.4466  0.3413 -0.0868
40821SOL     OW25864   8.136   1.501   8.655 -0.0824 -0.3027  0.6975
40821SOL    HW125865   8.215   1.475   8.703  0.5134 -1.2717 -0.7511
40821SOL    HW225866   8.086   1.553   8.718  1.2267 -0.5247  1.9715
40822SOL     OW25867   5.404   9.964   1.840 -0.0757 -0.0038 -0.3061
40822SOL    HW125868   5.410   9.979   1.746 -0.9089 -0.2727 -0.4062
40822SOL    HW225869   5.467  10.026   1.878 -0.1996  0.5544 -0.9943
40823SOL     OW25870   5.456  10.178   4.194 -0.2604 -0.2911 -0.0942
40823SOL    HW125871   5.445  10.099   4.248 -1.9145  0.2566  0.4213
40823SOL    HW225872   5.440  10.148   4.105 -0.7587 -0.5701  0.0835
40824SOL     OW25873   9.347   0.828   1.701 -0.1806 -0.0878  0.2181
40824SOL    HW125874   9.399   0.771   1.645 -0.2551 -0.1455  0.2072
40824SOL    HW225875   9.324   0.902   1.644  1.3641  0.8056  0.7235
40825SOL     OW25876   7.699   5.491   1.320  0.2519  0.0026  0.6867
40825SOL    HW125877   7.652   5.572   1.343 -0.4376  0.0912 -0.9387
40825SOL    HW225878   7.734   5.460   1.404  0.3291  1.8474  1.3932
40826SOL     OW25879  10.251   5.789   1.722  0.0597 -0.1892 -0.0231
40826SOL    HW125880  10.272   5.835   1.803 -0.1511  1.2423 -0.7429
40826SOL    HW225881  10.329   5.800   1.668 -0.7153  1.0638 -0.9398
40827SOL     OW25882   8.220   5.581   0.501 -0.2162 -0.0340  0.2446
40827SOL    HW125883   8.226   5.493   0.464  1.0127  0.8915 -1.9105
40827SOL    HW225884   8.291   5.585   0.565  1.0094 -0.0118 -1.0689
40828SOL     OW25885   7.864   2.947   0.270  0.3963  0.5462  0.5095
40828SOL    HW125886   7.923   3.008   0.227  1.4898 -1.1759 -0.5148
40828SOL    HW225887   7.804   2.919   0.202  1.3997 -1.2996  0.3265
40829SOL     OW25888  10.220   9.345   4.027 -0.2213 -0.1560 -0.0050
40829SOL    HW125889  10.310   9.378   4.023 -0.5157  0.8383  0.9987
40829SOL    HW225890  10.167   9.423   4.045 -1.1061 -0.9641  1.0145
40830SOL     OW25891   9.863   6.282   2.619  0.5181 -0.0641  0.0270
40830SOL    HW125892   9.840   6.191   2.640  0.9229  0.0490  1.0158
40830SOL    HW225893   9.958   6.284   2.624  0.5706  0.1969 -0.9491
40831SOL     OW25894   2.197   1.420   2.341  0.1398  0.6352  0.8480
40831SOL    HW125895   2.164   1.500   2.299 -1.1243 -1.5508 -2.7982
40831SOL    HW225896   2.274   1.396   2.290 -0.7172 -1.5072  0.4434
40832SOL     OW25897   4.319   3.388   9.400 -0.4154  0.2015  0.1370
40832SOL    HW125898   4.287   3.471   9.435 -1.0540 -0.4464  1.1605
40832SOL    HW225899   4.343   3.407   9.310  0.3587  1.7154  0.6313
40833SOL     OW25900   1.418  10.536   1.022  0.1857  0.2487  0.6364
40833SOL    HW125901   1.370  10.552   1.104  0.5882  1.4393  0.6626
40833SOL    HW225902   1.350  10.521   0.957 -0.1342 -1.3112  1.2793
40834SOL     OW25903  10.566   5.783   2.276 -0.1005  0.1033  0.2426
40834SOL    HW125904  10.564   5.765   2.182  0.9248 -1.1788  0.4436
40834SOL    HW225905  10.533   5.872   2.283  1.5767  0.9546 -1.5246
40835SOL     OW25906   2.258  10.119  10.008  0.6319 -0.4616  0.3021
40835SOL    HW125907   2.202  10.105  10.085  0.8867 -1.7252  0.2791
40835SOL    HW225908   2.237  10.046   9.950  1.5241 -0.3536 -0.1711
40836SOL     OW25909   7.283   8.646   1.761  0.1660  0.5173  0.1360
40836SOL    HW125910   7.362   8.676   1.806  0.0678 -0.7914  1.2385
40836SOL    HW225911   7.275   8.553   1.785 -1.4145  0.4873 -0.3747
40837SOL     OW25912   7.241  10.354   6.871  0.5235 -0.0026 -0.1016
40837SOL    HW125913   7.229  10.448   6.886  1.1734 -0.0071  0.4685
40837SOL    HW225914   7.296  10.325   6.943  2.3236 -0.3599 -1.5404
40838SOL     OW25915   1.414   0.345   8.163  0.2926  0.3838  0.2254
40838SOL    HW125916   1.329   0.320   8.200  0.8229 -1.2455  0.4262
40838SOL    HW225917   1.462   0.384   8.236 -0.0724  0.7702  0.2586
40839SOL     OW25918  10.735   4.953   6.900 -0.1007  0.7652  0.7087
40839SOL    HW125919  10.811   4.902   6.929  0.2963  0.6909 -0.4217
40839SOL    HW225920  10.679   4.959   6.978 -0.7441 -2.4031  0.6226
40840SOL     OW25921   1.866   8.602   9.238 -0.2828 -0.6820  0.0030
40840SOL    HW125922   1.900   8.663   9.304 -0.5705 -0.6952  0.1676
40840SOL    HW225923   1.836   8.527   9.289 -0.2433 -0.8154 -0.1707
40841SOL     OW25924   0.539   0.371   3.455  0.7544 -0.5214 -0.0125
40841SOL    HW125925   0.578   0.450   3.492  0.6176  0.5267 -1.9975
40841SOL    HW225926   0.496   0.400   3.374 -0.9999 -2.2835  0.1950
40842SOL     OW25927   4.095   6.216   1.454  0.2258  0.6882  0.1846
40842SOL    HW125928   4.139   6.256   1.379 -2.1819 -0.2968 -1.9199
40842SOL    HW225929   4.012   6.264   1.462 -0.4749 -0.5596  0.8639
40843SOL     OW25930  10.057   3.178   7.201 -0.6183 -0.0671  0.0452
40843SOL    HW125931  10.107   3.228   7.136  0.2226  0.2776  0.9369
40843SOL    HW225932  10.076   3.220   7.284 -2.1302 -0.1703  0.4629
40844SOL     OW25933   5.298   1.065   5.827 -0.0755 -0.3849  0.4548
40844SOL    HW125934   5.241   1.140   5.845 -0.2273 -0.0961 -1.0802
40844SOL    HW225935   5.240   0.998   5.791  0.5199 -0.0061 -1.3510
40845SOL     OW25936   9.134   7.053   3.088 -0.0195  0.2532 -0.5668
40845SOL    HW125937   9.192   7.051   3.012  1.0720 -0.0212  0.2581
40845SOL    HW225938   9.187   7.022   3.161 -1.5541 -1.2506 -0.0139
40846SOL     OW25939   0.330   4.680   2.918  0.1513  0.0159  0.6809
40846SOL    HW125940   0.237   4.703   2.912 -0.3070 -1.7748  0.3218
40846SOL    HW225941   0.356   4.710   3.005 -1.0913 -0.5262  1.2654
40847SOL     OW25942   3.206   1.857   6.823 -0.2629  0.4414  0.0548
40847SOL    HW125943   3.213   1.949   6.798 -0.3087  0.7349  1.0808
40847SOL    HW225944   3.124   1.852   6.872 -1.3015 -0.5596 -1.6665
40848SOL     OW25945   0.211   3.832   0.661  0.1140  0.5291  0.5880
40848SOL    HW125946   0.216   3.757   0.720 -1.8517  1.7808  2.5358
40848SOL    HW225947   0.270   3.897   0.699  0.0342  0.7806  0.2895
40849SOL     OW25948   5.074   1.231   9.373 -0.1901  0.2974 -0.8998
40849SOL    HW125949   5.132   1.243   9.297  2.5259 -0.8505  0.8432
40849SOL    HW225950   5.017   1.159   9.349  3.4402 -3.0243 -0.5132
40850SOL     OW25951   5.047   6.705   6.366  0.1817 -0.1361 -0.3160
40850SOL    HW125952   5.057   6.660   6.282 -1.1433 -0.5952 -0.2449
40850SOL    HW225953   5.034   6.797   6.342  2.1603  0.1427 -0.4913
40851SOL     OW25954   4.154   4.491   8.451 -0.3214 -0.2342  0.0650
40851SOL    HW125955   4.170   4.412   8.398  0.3258  0.0554 -0.1755
40851SOL    HW225956   4.147   4.561   8.387 -0.7950 -0.0778  0.2865
40852SOL     OW25957   6.968   1.744   0.232  0.0178 -0.3481 -0.0248
40852SOL    HW125958   6.973   1.833   0.197  1.8544 -0.1766  0.5430
40852SOL    HW225959   7.010   1.751   0.318 -0.7454 -1.5670  0.4622
40853SOL     OW25960   6.405   0.506   7.992 -0.4521  0.1648 -0.5050
40853SOL    HW125961   6.355   0.503   8.073  0.3869 -1.0066  0.0038
40853SOL    HW225962   6.463   0.581   8.003  1.0883 -1.1411  0.9139
40854SOL     OW25963   0.442   9.127  10.182 -0.4947  0.1574  0.0190
40854SOL    HW125964   0.522   9.113  10.131 -1.8084  0.6280 -2.3226
40854SOL    HW225965   0.472   9.147  10.270  1.9135 -0.7432 -0.5285
40855SOL     OW25966   6.235   2.835   8.314 -0.0341 -0.1398  0.0710
40855SOL    HW125967   6.166   2.774   8.288  1.4336 -1.1184 -1.7250
40855SOL    HW225968   6.311   2.779   8.331  1.6938  1.1403 -2.7192
40856SOL     OW25969   2.415   9.544   2.215 -0.8100  0.2848  0.4579
40856SOL    HW125970   2.353   9.481   2.251 -1.8365  1.2172  0.3787
40856SOL    HW225971   2.501   9.504   2.228 -1.4123 -0.9349  0.7692
40857SOL     OW25972   0.283   8.734   5.322 -0.1940 -0.3325  0.1903
40857SOL    HW125973   0.218   8.734   5.251  0.8744 -1.2163 -0.8348
40857SOL    HW225974   0.272   8.649   5.365 -1.5313  0.5950  1.8078
40858SOL     OW25975   4.114   7.883   1.605  0.1320 -0.4833  0.4963
40858SOL    HW125976   4.095   7.909   1.515 -0.5969  1.6118  1.2075
40858SOL    HW225977   4.134   7.789   1.599 -0.8667 -0.6128 -1.6935
40859SOL     OW25978   9.033   9.747   9.721 -0.5808 -0.8231 -0.2359
40859SOL    HW125979   9.068   9.770   9.808 -0.5273  0.5913 -0.6139
40859SOL    HW225980   8.938   9.752   9.732 -0.5681  0.3690 -0.4909
40860SOL     OW25981   3.334   1.858   8.031  0.0379  0.3296  0.0238
40860SOL    HW125982   3.360   1.942   7.994 -2.5214  1.9059  1.4792
40860SOL    HW225983   3.281   1.816   7.963  1.2187 -0.0978 -0.6592
40861SOL     OW25984   5.216   5.173   7.696 -0.3530  0.6862  0.3545
40861SOL    HW125985   5.168   5.090   7.695  1.4561 -0.4627  1.4722
40861SOL    HW225986   5.233   5.192   7.604  1.2214 -1.5082  0.0896
40862SOL     OW25987   8.827   4.969   7.757 -0.1506 -0.1877  0.3650
40862SOL    HW125988   8.734   4.961   7.738  0.3665  0.4622 -3.0335
40862SOL    HW225989   8.848   5.060   7.736  1.3799 -0.4736  0.5517
40863SOL     OW25990   5.304   6.463   9.025  0.4089  0.0667 -0.8007
40863SOL    HW125991   5.396   6.483   9.005  0.2735 -0.3970 -1.9396
40863SOL    HW225992   5.308   6.409   9.104  0.8412  3.6164  1.8638
40864SOL     OW25993   3.765   4.153   4.790 -0.1402  0.0790  0.2003
40864SOL    HW125994   3.789   4.235   4.833  0.6161 -0.5175  0.9552
40864SOL    HW225995   3.707   4.179   4.718  2.0714  1.5390 -1.1800
40865SOL     OW25996   3.253   7.696   3.330 -0.0390  0.0184 -0.1289
40865SOL    HW125997   3.298   7.700   3.245 -2.0179  0.9384 -1.2180
40865SOL    HW225998   3.305   7.752   3.387  0.9971 -0.1220 -0.9024
40866SOL     OW25999   8.132   0.767   0.973  0.7881  0.2436  0.2884
40866SOL    HW126000   8.222   0.777   0.944  1.1266 -1.3078  0.7230
40866SOL    HW226001   8.138   0.750   1.067  0.1062 -0.6133  0.1894
40867SOL     OW26002   7.873   2.803   0.936 -0.4046  0.0655 -0.1502
40867SOL    HW126003   7.934   2.876   0.923 -0.0337 -0.1069  0.6228
40867SOL    HW226004   7.913   2.729   0.890  0.0916 -0.1082  0.5508
40868SOL     OW26005   0.969   9.838   5.624 -0.0665 -0.5167 -0.0765
40868SOL    HW126006   0.972   9.896   5.548 -1.1760 -1.1110 -0.6062
40868SOL    HW226007   1.008   9.888   5.695 -1.1719  0.9513 -0.4642
40869SOL     OW26008   1.180   2.646   4.698 -0.0493 -0.0778 -0.1921
40869SOL    HW126009   1.174   2.551   4.708 -0.2349 -0.0561 -0.1097
40869SOL    HW226010   1.272   2.661   4.673 -0.0542 -0.2893 -0.3381
40870SOL     OW26011   5.089   1.354   8.930 -0.1130  0.9807 -0.1443
40870SOL    HW126012   5.047   1.328   8.848 -1.5260 -0.3522  0.9453
40870SOL    HW226013   5.109   1.271   8.974 -0.3313  1.6589  1.3007
40871SOL     OW26014   9.031   6.733   8.097 -0.0701  0.1851  0.3294
40871SOL    HW126015   9.024   6.695   8.009  1.5051 -0.3082  0.3865
40871SOL    HW226016   9.004   6.824   8.086  0.0644  0.1197 -0.6514
40872SOL     OW26017   7.046   2.331   6.832 -0.1635 -0.2206 -0.7701
40872SOL    HW126018   7.032   2.362   6.921 -1.2121  0.3560 -1.1136
40872SOL    HW226019   7.029   2.237   6.836  0.3669 -0.2951 -0.2474
40873SOL     OW26020   2.790   2.411   7.735  0.0796  0.1730  0.5720
40873SOL    HW126021   2.831   2.483   7.783  2.4348 -0.0636 -0.9132
40873SOL    HW226022   2.842   2.334   7.759  0.3688 -0.2087 -1.1781
40874SOL     OW26023   4.562   7.906   3.900 -0.2555 -0.8780 -0.8771
40874SOL    HW126024   4.593   7.973   3.839  1.5473  0.2584  1.1317
40874SOL    HW226025   4.631   7.839   3.898  0.5125 -0.2027  0.7736
40875SOL     OW26026   6.548   5.038   0.415  0.0230 -0.3053  0.1306
40875SOL    HW126027   6.613   4.969   0.427 -0.9336 -1.5727 -1.5274
40875SOL    HW226028   6.587   5.096   0.349  1.4870  1.7145  2.5860
40876SOL     OW26029   7.759   4.324   3.419  0.0056  0.4452  0.6229
40876SOL    HW126030   7.730   4.295   3.506  0.6838  1.9947  1.4164
40876SOL    HW226031   7.821   4.395   3.437  1.5598 -0.3937 -1.0958
40877SOL     OW26032   6.593   0.397   0.211 -0.3165 -0.3391 -0.1110
40877SOL    HW126033   6.620   0.315   0.170 -1.2404  0.2410 -1.9760
40877SOL    HW226034   6.564   0.371   0.298 -0.9065 -2.0513 -0.7648
40878SOL     OW26035   9.854   4.477   4.834  0.0507  0.0069 -0.7374
40878SOL    HW126036   9.895   4.540   4.774  2.0138  0.1757  0.7012
40878SOL    HW226037   9.822   4.531   4.906  1.8137 -0.5692  0.5482
40879SOL     OW26038   3.470   7.620   8.839 -0.0961  0.0844 -0.3302
40879SOL    HW126039   3.435   7.637   8.752 -1.4978 -0.4697  0.0940
40879SOL    HW226040   3.490   7.526   8.839 -0.4092  0.0157  0.0480
40880SOL     OW26041  10.654   8.106   4.465  0.0722  0.0441 -0.3896
40880SOL    HW126042  10.717   8.168   4.428  1.2182 -2.2304 -2.5376
40880SOL    HW226043  10.672   8.108   4.559  2.7548  0.1649 -0.8218
40881SOL     OW26044   6.684   3.958   1.765  0.2701  0.2394  0.2151
40881SOL    HW126045   6.639   4.010   1.831 -1.2915 -0.2406 -0.4340
40881SOL    HW226046   6.616   3.930   1.705  1.6237  0.5135 -1.5359
40882SOL     OW26047   1.230   2.368   2.067  0.0104 -0.5064 -1.1027
40882SOL    HW126048   1.265   2.283   2.095 -0.4531 -0.3592 -0.0016
40882SOL    HW226049   1.306   2.426   2.066  0.1976 -0.7471 -1.0677
40883SOL     OW26050  10.717   2.975   3.949 -0.0379  0.0141 -0.2925
40883SOL    HW126051  10.707   2.885   3.978 -0.7899 -0.0591 -0.7602
40883SOL    HW226052  10.807   2.980   3.916  0.1556 -0.4356  0.1613
40884SOL     OW26053   6.702   6.740  10.046  0.4125  0.2078  0.0006
40884SOL    HW126054   6.697   6.822   9.996  1.5275 -0.3228 -1.0271
40884SOL    HW226055   6.613   6.726  10.078 -0.0221  1.2895 -0.6730
40885SOL     OW26056   9.671   1.727   2.650 -0.2257  0.0784  0.1302
40885SOL    HW126057   9.703   1.801   2.598  1.0444 -1.5233 -1.4722
40885SOL    HW226058   9.748   1.694   2.696 -0.8574 -0.0534  1.1410
40886SOL     OW26059   3.488   8.600   5.330  0.1271 -0.0626  0.8509
40886SOL    HW126060   3.565   8.610   5.273  1.1169 -0.5850  2.0388
40886SOL    HW226061   3.524   8.568   5.413 -1.2132  1.0626  1.9243
40887SOL     OW26062   6.542   8.770   1.232 -0.0101 -0.0994 -0.1362
40887SOL    HW126063   6.624   8.804   1.195  1.7819 -1.4489  2.2852
40887SOL    HW226064   6.488   8.749   1.156  2.0603  0.4262 -1.8500
40888SOL     OW26065   7.072   2.602   0.311  0.3978 -0.3318  0.6653
40888SOL    HW126066   7.122   2.684   0.308 -0.9184  0.5062  0.4545
40888SOL    HW226067   7.114   2.550   0.380  1.5537  0.3198  0.4721
40889SOL     OW26068   3.666   6.157   5.065 -0.3846  0.0799 -0.3780
40889SOL    HW126069   3.688   6.164   4.972 -1.5693  0.0674 -0.6755
40889SOL    HW226070   3.599   6.224   5.079  0.0984  0.3821  0.5811
40890SOL     OW26071   2.704  10.175   2.069  0.7083  0.0108  0.4671
40890SOL    HW126072   2.698  10.198   2.162  0.7937  1.9545  0.0415
40890SOL    HW226073   2.754  10.093   2.068 -2.2434 -1.9914  2.3151
40891SOL     OW26074   8.822   0.062   9.082 -0.1863  0.2244  0.2184
40891SOL    HW126075   8.876   0.131   9.044 -0.1647 -0.2705 -0.6648
40891SOL    HW226076   8.788   0.014   9.007  1.5840 -2.1199  0.8312
40892SOL     OW26077   9.048   0.626   3.204  0.6130  0.6087  0.3342
40892SOL    HW126078   8.967   0.575   3.192 -2.0969  4.5419 -0.1582
40892SOL    HW226079   9.087   0.591   3.284 -1.9672 -1.0251  1.0134
40893SOL     OW26080   7.380   8.975   4.587 -0.3912  0.3817 -0.4380
40893SOL    HW126081   7.358   9.026   4.509 -0.5552 -0.4541 -0.9624
40893SOL    HW226082   7.463   8.932   4.565 -1.1477 -1.0010 -0.7520
40894SOL     OW26083   2.635   8.087   6.800 -0.3606  0.4347  0.0641
40894SOL    HW126084   2.555   8.034   6.799 -1.1564  1.5948 -0.8828
40894SOL    HW226085   2.702   8.029   6.836 -1.7862 -0.3185  1.6830
40895SOL     OW26086   8.466   6.688   6.914  0.0819  0.0896  0.7065
40895SOL    HW126087   8.425   6.724   6.993 -0.5982  0.1108  0.3526
40895SOL    HW226088   8.436   6.746   6.844  2.0567  1.1163  0.6485
40896SOL     OW26089   2.189  10.018  10.459  0.0764 -0.7488 -0.0884
40896SOL    HW126090   2.268   9.986  10.502  1.6083  3.3703  0.5829
40896SOL    HW226091   2.125  10.027  10.529 -0.0557 -1.3061 -0.1262
40897SOL     OW26092   5.789   3.223   2.911 -0.0135  0.4145 -0.1536
40897SOL    HW126093   5.696   3.219   2.933  0.3339 -0.3205  1.2798
40897SOL    HW226094   5.825   3.284   2.975  0.4913  0.7550 -0.7557
40898SOL     OW26095   1.769   4.555  10.466  0.3041 -0.2220  0.8629
40898SOL    HW126096   1.714   4.560  10.388  0.6768  1.4441  0.6674
40898SOL    HW226097   1.824   4.478  10.452 -1.4596 -1.5069  0.7405
40899SOL     OW26098   8.454   0.733   8.875 -0.1108  0.8106  0.3960
40899SOL    HW126099   8.503   0.695   8.948  0.3252 -0.6263 -0.6220
40899SOL    HW226100   8.440   0.824   8.902 -2.0787 -0.2071  3.3829
40900SOL     OW26101   3.015   9.615   6.728  0.3244 -0.5381 -0.0492
40900SOL    HW126102   2.956   9.679   6.688  0.1276 -0.9563 -0.4535
40900SOL    HW226103   2.961   9.536   6.737  0.7772 -0.8786 -0.2748
40901SOL     OW26104   9.241   8.347   7.027  0.0883  0.2382 -0.4056
40901SOL    HW126105   9.149   8.326   7.045  0.0478  1.1080  0.4919
40901SOL    HW226106   9.268   8.282   6.962  0.0187 -2.5628  2.1826
40902SOL     OW26107   6.430   0.716   6.719  0.2881  0.0768 -0.1983
40902SOL    HW126108   6.486   0.646   6.752 -1.5228 -0.9448  0.9164
40902SOL    HW226109   6.489   0.789   6.703  1.8520 -0.7206  1.5382
40903SOL     OW26110   6.330   2.167   5.223 -0.0790  0.0228 -0.3699
40903SOL    HW126111   6.322   2.076   5.253  0.1846 -0.2334 -1.0563
40903SOL    HW226112   6.408   2.201   5.267 -0.2571 -0.0375 -0.0040
40904SOL     OW26113   6.708   5.563   2.443 -0.1616 -0.2259 -0.0665
40904SOL    HW126114   6.613   5.555   2.453  0.0649 -0.7741  2.1616
40904SOL    HW226115   6.722   5.573   2.348 -2.4764  0.7696 -0.3484
40905SOL     OW26116   2.151   4.667   1.959  0.5716  0.1179 -1.0553
40905SOL    HW126117   2.082   4.726   1.928  0.1456 -0.5889 -1.4725
40905SOL    HW226118   2.171   4.698   2.048 -2.2852 -1.3802  0.2296
40906SOL     OW26119   3.544   6.988   6.510  0.2617 -0.1034  0.2554
40906SOL    HW126120   3.476   6.931   6.544  0.1762  0.3073  0.7886
40906SOL    HW226121   3.512   7.015   6.423  0.4246 -1.0549 -0.1125
40907SOL     OW26122   6.546   4.679   9.402  0.0416 -0.3586  0.1628
40907SOL    HW126123   6.493   4.604   9.429  0.1928 -1.6774 -2.8233
40907SOL    HW226124   6.483   4.749   9.388 -0.5144 -0.9270 -0.2175
40908SOL     OW26125   5.886   5.381   0.380 -0.1964 -0.4352  0.8662
40908SOL    HW126126   5.890   5.467   0.423 -0.9144  0.6011 -0.9847
40908SOL    HW226127   5.969   5.339   0.401  0.9443  1.4635  0.3898
40909SOL     OW26128  10.359   9.703   2.066 -0.2312  0.5945  0.4659
40909SOL    HW126129  10.304   9.750   2.128 -1.5689  0.8649 -0.8639
40909SOL    HW226130  10.406   9.771   2.018 -1.6076  0.6218 -0.9471
40910SOL     OW26131   5.371   1.787   8.457 -0.1219 -0.3199  0.4830
40910SOL    HW126132   5.326   1.815   8.377 -0.1093  0.3640  0.7128
40910SOL    HW226133   5.462   1.812   8.443 -0.3787  1.1778  1.3228
40911SOL     OW26134   0.260   2.883   2.826  0.1505  0.0586 -0.2628
40911SOL    HW126135   0.215   2.876   2.910  0.3803 -2.9770 -0.2735
40911SOL    HW226136   0.198   2.930   2.770 -0.5541  0.9764  1.2252
40912SOL     OW26137   3.993   2.328   4.746  0.2784 -0.5143  0.1497
40912SOL    HW126138   3.921   2.306   4.686  0.7525 -1.0339 -0.2406
40912SOL    HW226139   3.950   2.361   4.824 -0.3985 -1.1227  0.0406
40913SOL     OW26140   3.685   9.137   0.876 -0.3913  0.1874  1.1008
40913SOL    HW126141   3.748   9.172   0.814  0.1393 -0.8301  1.0386
40913SOL    HW226142   3.718   9.164   0.962 -2.7633  4.3405  1.0032
40914SOL     OW26143   6.881   8.475   7.297  0.3353 -0.3597 -0.0813
40914SOL    HW126144   6.789   8.452   7.288  0.6355 -2.1543  0.8479
40914SOL    HW226145   6.882   8.570   7.307 -1.3770 -0.2879 -0.3879
40915SOL     OW26146   8.410   2.746   2.176 -0.6484 -0.2645 -0.2081
40915SOL    HW126147   8.361   2.668   2.153  1.9345 -1.5026 -2.0030
40915SOL    HW226148   8.465   2.719   2.249 -1.2399  0.5313  0.5446
40916SOL     OW26149  10.279   6.475   8.753  0.4039 -0.2571  0.5046
40916SOL    HW126150  10.318   6.392   8.781  0.9413 -0.0623  0.3373
40916SOL    HW226151  10.286   6.475   8.658 -0.8986 -0.6537  0.3853
40917SOL     OW26152   7.989   1.809   9.489  0.5128 -0.1107  0.1751
40917SOL    HW126153   7.933   1.768   9.555 -0.3636 -0.0837 -0.5382
40917SOL    HW226154   7.931   1.826   9.415  2.0539 -3.1904 -1.9762
40918SOL     OW26155   9.360   9.513   0.839 -0.4428  0.0291 -0.0560
40918SOL    HW126156   9.340   9.420   0.851  0.1383 -0.4538 -2.4182
40918SOL    HW226157   9.454   9.520   0.852 -0.3005  0.0624 -1.0766
40919SOL     OW26158   2.019   3.668   4.298 -0.0257 -0.1706  0.4757
40919SOL    HW126159   2.091   3.730   4.290  1.2552 -1.3553  2.1007
40919SOL    HW226160   1.955   3.713   4.353 -0.7959  1.0508 -1.3190
40920SOL     OW26161   0.045   2.963   3.811 -0.5455  0.0471  0.2102
40920SOL    HW126162   0.032   2.908   3.734 -0.3076  0.6855 -0.2917
40920SOL    HW226163   0.045   3.052   3.777  1.4402  0.2731  0.6814
40921SOL     OW26164   6.099   0.684   9.606  0.8281  0.0081  0.1837
40921SOL    HW126165   6.095   0.742   9.682 -0.0467 -0.2462  0.3519
40921SOL    HW226166   6.048   0.730   9.539 -0.9813 -1.0950  0.7223
40922SOL     OW26167   1.625   6.904   3.912  0.3228 -0.8214 -0.1477
40922SOL    HW126168   1.628   6.849   3.833  0.1529 -1.8138  0.5235
40922SOL    HW226169   1.662   6.988   3.883  0.8801 -1.3762 -1.1189
40923SOL     OW26170   3.630   7.240  10.746 -0.4090  0.1188  1.0257
40923SOL    HW126171   3.670   7.232  10.660  0.1213 -1.3511  1.3817
40923SOL    HW226172   3.590   7.327  10.746  1.9808  1.3106  0.3080
40924SOL     OW26173   1.675   7.892   3.370  0.1695  0.3330 -0.4659
40924SOL    HW126174   1.581   7.902   3.353 -0.1439 -0.6931  0.5376
40924SOL    HW226175   1.706   7.981   3.387 -0.7370  0.6191 -0.2490
40925SOL     OW26176   3.364   6.325   8.971 -0.8000  0.0326  0.7584
40925SOL    HW126177   3.388   6.271   9.046  0.6704  1.0503  1.0626
40925SOL    HW226178   3.426   6.398   8.973 -0.2130 -0.2984 -1.8918
40926SOL     OW26179   3.855   0.980   3.338 -0.0609  0.3622  0.7746
40926SOL    HW126180   3.786   0.915   3.354 -0.0990 -0.3688 -1.9552
40926SOL    HW226181   3.917   0.967   3.410 -0.1554 -2.6050  0.4542
40927SOL     OW26182   6.977   8.594   0.136  0.3291 -0.1383 -0.6929
40927SOL    HW126183   7.070   8.586   0.158  0.1904 -0.4153 -0.2036
40927SOL    HW226184   6.951   8.679   0.172 -0.2427 -1.1745  1.5353
40928SOL     OW26185   5.852  10.645  10.217  0.6065 -0.2773  0.1980
40928SOL    HW126186   5.826  10.658  10.126  1.5074  1.4458  0.1449
40928SOL    HW226187   5.947  10.648  10.216  0.8532 -3.6650  0.7823
40929SOL     OW26188   5.251   4.530   5.703  0.1171  0.3149 -0.6206
40929SOL    HW126189   5.295   4.571   5.778 -0.4912  0.7949 -0.5276
40929SOL    HW226190   5.309   4.548   5.629 -0.0931  1.2642 -0.5661
40930SOL     OW26191   9.760   5.470   3.473 -0.1194  0.2608  0.3001
40930SOL    HW126192   9.742   5.401   3.410  1.3429 -0.4532  0.6017
40930SOL    HW226193   9.703   5.543   3.448  0.5486  0.0757 -1.9549
40931SOL     OW26194  10.197   6.233  10.025  0.1238 -0.5547  0.1081
40931SOL    HW126195  10.230   6.156   9.979  0.5901 -0.0287 -0.4629
40931SOL    HW226196  10.259   6.302  10.002 -1.6123  0.6018 -1.3903
40932SOL     OW26197   6.717   9.618   6.584  0.6523  0.3069 -0.5391
40932SOL    HW126198   6.721   9.573   6.500  0.4875 -1.7831  0.5172
40932SOL    HW226199   6.634   9.664   6.583  0.2831 -0.3579 -1.2167
40933SOL     OW26200   0.145   4.853   0.988  0.0794 -0.0262 -0.0341
40933SOL    HW126201   0.079   4.911   1.025  1.5480  2.0726 -0.5470
40933SOL    HW226202   0.176   4.898   0.910  1.5471 -1.3362 -0.2633
40934SOL     OW26203   3.717  10.766   3.672 -0.3800  0.3793  0.1610
40934SOL    HW126204   3.753  10.706   3.737  0.3462 -0.1078 -0.6662
40934SOL    HW226205   3.794  10.806   3.631 -0.8269  0.7861 -0.2997
40935SOL     OW26206   3.704   2.765  10.356 -0.1050 -0.3997 -0.2071
40935SOL    HW126207   3.689   2.717  10.275  1.2168  1.7615 -1.8509
40935SOL    HW226208   3.635   2.831  10.358 -0.3327 -0.6499  0.6409
40936SOL     OW26209   7.081   8.090   1.692 -0.2335 -0.5724 -0.1367
40936SOL    HW126210   7.141   8.028   1.734 -0.5539 -1.0647 -0.3987
40936SOL    HW226211   7.076   8.060   1.601  0.4047  0.4461 -0.5255
40937SOL     OW26212   8.162   9.680   0.009  0.4818 -0.3403 -0.2830
40937SOL    HW126213   8.072   9.711   0.020  0.0318 -1.2307 -1.3124
40937SOL    HW226214   8.216   9.757   0.030 -0.4782  0.0573  0.8704
40938SOL     OW26215   8.395   4.365   0.841  0.2709 -0.0699 -0.2329
40938SOL    HW126216   8.456   4.332   0.907  0.9406  0.9966 -0.3056
40938SOL    HW226217   8.311   4.370   0.887  0.7199  0.6266  0.5403
40939SOL     OW26218   7.114   4.696   2.369  0.0728  0.4223 -0.1220
40939SOL    HW126219   7.077   4.726   2.286  1.9510 -1.7284 -1.8667
40939SOL    HW226220   7.067   4.615   2.389  1.1870 -0.2927 -0.3347
40940SOL     OW26221   6.427   1.562   6.976  0.2186  0.2482  0.0830
40940SOL    HW126222   6.447   1.484   6.923  0.1117 -0.0048  0.4148
40940SOL    HW226223   6.372   1.530   7.047 -0.9668  0.8570 -0.5342
40941SOL     OW26224   0.302   1.683   9.893  0.1170 -0.4996 -0.5836
40941SOL    HW126225   0.335   1.765   9.930  0.4913 -1.1505  0.6007
40941SOL    HW226226   0.372   1.654   9.835 -0.1446  0.1527 -1.2434
40942SOL     OW26227   3.540   5.806   6.100 -0.6912  0.0456 -0.0429
40942SOL    HW126228   3.585   5.722   6.087 -0.4326  0.1188  0.3643
40942SOL    HW226229   3.610   5.870   6.112 -0.8817  0.3745 -0.6294
40943SOL     OW26230   5.282   0.886   7.903 -0.7344  0.3807  0.0639
40943SOL    HW126231   5.360   0.889   7.847 -1.6710 -0.1966 -1.3383
40943SOL    HW226232   5.315   0.861   7.989  0.5341 -0.8635 -0.7383
40944SOL     OW26233   7.648   5.890   8.151  0.2805 -0.3145  0.4073
40944SOL    HW126234   7.710   5.818   8.162  0.8372  0.2272  0.8413
40944SOL    HW226235   7.562   5.850   8.168  0.7353 -0.4784  2.6224
40945SOL     OW26236   5.352   6.231   4.263 -0.1536  0.7122 -0.3429
40945SOL    HW126237   5.284   6.164   4.259 -2.1400  2.6428 -0.4588
40945SOL    HW226238   5.421   6.191   4.316 -1.4318 -1.2337 -0.0194
40946SOL     OW26239   4.138  10.593   1.086 -0.0156 -0.0949  0.5149
40946SOL    HW126240   4.153  10.577   0.993  0.3390 -0.0201  0.5571
40946SOL    HW226241   4.162  10.685   1.098  0.0332 -0.1320  0.7005
40947SOL     OW26242   8.165   2.473   4.936 -0.3580  0.3088  0.0411
40947SOL    HW126243   8.131   2.406   4.877 -1.3891 -0.1531  1.1336
40947SOL    HW226244   8.098   2.481   5.004  1.2375  0.1466  1.6762
40948SOL     OW26245   8.979   7.363   7.785 -0.2395 -0.3386 -0.1333
40948SOL    HW126246   8.996   7.436   7.725  0.1191  0.9443  1.4318
40948SOL    HW226247   9.055   7.305   7.775  0.8493  0.9137  0.5389
40949SOL     OW26248   0.185   4.602   6.726 -0.2259 -0.0008  0.4663
40949SOL    HW126249   0.265   4.549   6.715 -1.2895 -1.2554 -2.1239
40949SOL    HW226250   0.115   4.545   6.695 -1.9288  1.6542  1.1424
40950SOL     OW26251   8.370   1.164   8.255  0.4643 -0.1549  0.3231
40950SOL    HW126252   8.275   1.169   8.263  0.4118  0.6603 -0.6113
40950SOL    HW226253   8.387   1.180   8.163  1.6226  1.8863  0.8222
40951SOL     OW26254  10.580   8.085  10.320 -0.0385  0.5552  0.3333
40951SOL    HW126255  10.515   8.104  10.387  0.2207 -1.0380  1.0831
40951SOL    HW226256  10.626   8.168  10.308 -1.1609  1.2961  0.9290
40952SOL     OW26257   2.914   6.166   0.198  0.0854  0.0235 -0.0528
40952SOL    HW126258   2.847   6.118   0.245  1.6590 -1.7906  0.4720
40952SOL    HW226259   2.975   6.195   0.266  1.3703 -0.9516 -0.7404
40953SOL     OW26260   6.485   7.656  10.882  0.1684  0.6264  0.5058
40953SOL    HW126261   6.472   7.750  10.896  1.1081  0.8540 -0.0593
40953SOL    HW226262   6.573   7.650  10.844 -0.4077 -0.3585 -0.7429
40954SOL     OW26263   7.625   7.079   5.680  0.1235  0.5014  0.7892
40954SOL    HW126264   7.675   7.044   5.607  0.6909  1.7376  0.5563
40954SOL    HW226265   7.580   7.003   5.718 -1.9999  0.1071 -2.1855
40955SOL     OW26266   0.819   1.510   9.644  0.5318  0.1100 -0.4490
40955SOL    HW126267   0.876   1.438   9.672  0.8755  0.4071 -0.3786
40955SOL    HW226268   0.868   1.590   9.666 -1.2466  0.5100  2.7012
40956SOL     OW26269   0.173   7.704   2.765  0.8643  1.0189  0.2147
40956SOL    HW126270   0.145   7.756   2.690  2.7497  1.6160 -0.1404
40956SOL    HW226271   0.268   7.701   2.758  0.9992 -0.0972  1.8234
40957SOL     OW26272   6.377   0.969  10.918  0.5715 -0.1071 -0.7945
40957SOL    HW126273   6.316   1.004  10.854  1.4645  1.4380 -0.8577
40957SOL    HW226274   6.443   1.038  10.929  0.5257 -0.3424  1.6714
40958SOL     OW26275   1.401   3.844   3.400  0.4751 -0.2121 -0.1058
40958SOL    HW126276   1.372   3.935   3.410  0.7789 -0.2601  1.3572
40958SOL    HW226277   1.491   3.850   3.370  0.5296 -0.0351  0.0960
40959SOL     OW26278   9.792   3.684   3.326  0.6268  0.0441  0.4354
40959SOL    HW126279   9.765   3.776   3.322  2.6850  0.6719 -0.5895
40959SOL    HW226280   9.888   3.687   3.329  1.0001 -2.0738 -3.0909
40960SOL     OW26281  10.833   2.753   7.917 -0.0500  0.1701  0.3930
40960SOL    HW126282  10.856   2.660   7.916  1.7935  0.4648  3.2817
40960SOL    HW226283  10.737   2.754   7.912 -0.0497 -1.6325 -2.7469
40961SOL     OW26284  10.796   1.634   6.129 -0.2827 -0.2137 -0.7771
40961SOL    HW126285  10.749   1.647   6.211  3.1000 -1.9005  1.7014
40961SOL    HW226286  10.823   1.722   6.102  0.6704  0.2505  1.4291
40962SOL     OW26287   6.200   1.178   9.721 -0.1275  0.0542 -0.6769
40962SOL    HW126288   6.258   1.241   9.678 -1.4349  2.1856  0.5323
40962SOL    HW226289   6.113   1.201   9.689 -0.6197 -1.4094 -0.4571
40963SOL     OW26290   6.649   1.887   7.631  0.2648 -0.3061  0.8651
40963SOL    HW126291   6.703   1.941   7.689  0.7684 -0.8496  0.9037
40963SOL    HW226292   6.691   1.801   7.631 -1.1017 -1.0218  1.6263
40964SOL     OW26293   0.442  10.849   6.693 -0.7007 -0.0530  0.4819
40964SOL    HW126294   0.374  10.791   6.661 -0.8222 -0.1110  0.8465
40964SOL    HW226295   0.476  10.892   6.614 -1.2372  0.0641  0.3148
40965SOL     OW26296   4.133   8.171   0.895  0.6619  0.5183 -0.4288
40965SOL    HW126297   4.082   8.251   0.911 -0.4062 -0.3240  0.5684
40965SOL    HW226298   4.096   8.135   0.815  0.8828  0.8051 -0.6651
40966SOL     OW26299   7.518   1.999   3.365 -0.1316  0.0560 -0.4198
40966SOL    HW126300   7.474   2.033   3.443 -0.7333 -1.3229 -0.1171
40966SOL    HW226301   7.609   1.988   3.392 -0.0291  0.9697 -0.3834
40967SOL     OW26302  10.735   0.638   5.355 -0.4622 -0.2153  0.6618
40967SOL    HW126303  10.676   0.706   5.321  1.7125  1.2877 -0.3304
40967SOL    HW226304  10.823   0.671   5.336  0.7864 -4.2764 -1.9951
40968SOL     OW26305   6.669   1.589   9.649 -0.2984  0.4014  0.2836
40968SOL    HW126306   6.702   1.679   9.654 -3.0751  1.4792  1.7633
40968SOL    HW226307   6.604   1.584   9.720  0.2216 -3.0227  0.6747
40969SOL     OW26308   8.325   4.307   6.660  0.1978  0.0180 -0.0999
40969SOL    HW126309   8.400   4.350   6.617 -0.8953 -0.2874 -2.4491
40969SOL    HW226310   8.353   4.216   6.669 -0.2139 -0.3370 -1.9521
40970SOL     OW26311   7.135   3.075   5.864 -0.4875 -0.1454 -0.0968
40970SOL    HW126312   7.163   2.993   5.825 -0.4058 -0.2090  0.0963
40970SOL    HW226313   7.216   3.119   5.890 -0.5504 -0.1827  0.1627
40971SOL     OW26314   9.586   2.383   0.637 -0.4085 -0.2494 -0.5099
40971SOL    HW126315   9.524   2.437   0.589 -1.6635 -0.4005  0.8764
40971SOL    HW226316   9.581   2.415   0.727  0.1182 -1.5177 -0.0082
40972SOL     OW26317   5.766   5.160   6.404  0.1727 -0.3161 -0.4291
40972SOL    HW126318   5.714   5.180   6.481  0.9600 -0.7816  0.2435
40972SOL    HW226319   5.843   5.114   6.438  1.6975  1.4884 -1.2412
40973SOL     OW26320   0.908   5.871   1.065  0.4565  0.1263 -0.3189
40973SOL    HW126321   0.901   5.888   1.159 -1.4489 -1.2185 -0.1717
40973SOL    HW226322   0.983   5.811   1.058 -0.4607 -1.1748  0.5796
40974SOL     OW26323   8.763   3.689   3.154  0.1583 -0.2777  0.1038
40974SOL    HW126324   8.804   3.657   3.234 -2.4729 -2.0784  0.8577
40974SOL    HW226325   8.715   3.613   3.120 -0.4011  0.9862 -2.1147
40975SOL     OW26326   4.747   7.907   4.404  0.2339  0.0481  0.4788
40975SOL    HW126327   4.678   7.842   4.411 -0.0397  0.0409 -1.5201
40975SOL    HW226328   4.733   7.947   4.318  2.7532 -0.0197 -0.0496
40976SOL     OW26329   2.065   8.863   8.758  0.0583 -0.0223  0.4438
40976SOL    HW126330   2.113   8.936   8.718  0.1917 -1.0231 -1.3521
40976SOL    HW226331   1.975   8.873   8.727 -0.0177 -0.3528  0.5484
40977SOL     OW26332   4.653   1.300   3.048  0.8048 -0.0007  0.0690
40977SOL    HW126333   4.604   1.222   3.074  1.8373 -0.5068  0.5724
40977SOL    HW226334   4.588   1.370   3.045  0.2389 -0.3971  1.8128
40978SOL     OW26335   4.337   0.773   5.254  0.1125 -0.3018  0.1735
40978SOL    HW126336   4.264   0.816   5.298  0.5851 -0.0040  0.6743
40978SOL    HW226337   4.349   0.691   5.301 -0.2365 -0.5913 -0.2401
40979SOL     OW26338   0.437   5.828   7.579 -0.1127 -0.0862 -0.5502
40979SOL    HW126339   0.483   5.881   7.514  1.8788 -0.4304  0.4824
40979SOL    HW226340   0.433   5.884   7.656  0.3991 -0.7706 -0.0109
40980SOL     OW26341   8.590   8.729   4.844 -0.2208 -0.0133  0.2495
40980SOL    HW126342   8.644   8.659   4.880  0.5857  0.3572 -0.2084
40980SOL    HW226343   8.601   8.721   4.749  1.0016  1.5736  0.2217
40981SOL     OW26344   8.570   4.935   7.616 -0.4940 -0.3564  0.1699
40981SOL    HW126345   8.563   4.852   7.569 -2.0203  0.0899 -0.4355
40981SOL    HW226346   8.613   4.994   7.554  1.1316 -0.8041  0.8074
40982SOL     OW26347  10.595   1.434   4.400 -0.3061  0.3040 -0.8352
40982SOL    HW126348  10.557   1.521   4.392 -0.5531  0.1684 -1.1042
40982SOL    HW226349  10.534   1.376   4.357  1.2280  0.3535 -3.2554
40983SOL     OW26350   9.981   6.209  10.492 -0.4381 -0.1473  0.5139
40983SOL    HW126351  10.040   6.239  10.423  1.4180 -1.3013  1.5184
40983SOL    HW226352  10.032   6.219  10.573 -1.6614 -1.0757  1.4405
40984SOL     OW26353   6.315   4.581   1.662 -0.0997 -0.1968 -0.1295
40984SOL    HW126354   6.381   4.568   1.731 -0.5286 -0.5951  0.2188
40984SOL    HW226355   6.351   4.537   1.585  0.0512 -0.3932  0.0521
40985SOL     OW26356   5.907   0.529   7.990 -0.5762  0.4503 -0.0975
40985SOL    HW126357   5.918   0.486   8.075 -0.8841  0.6220  0.0293
40985SOL    HW226358   5.965   0.481   7.931  0.6551  1.1593  0.5011
40986SOL     OW26359   1.769   0.564   3.659 -0.0064  0.7441 -0.1216
40986SOL    HW126360   1.861   0.554   3.683 -0.0713  0.3707 -0.0147
40986SOL    HW226361   1.768   0.566   3.564  0.1404  1.0339 -0.1156
40987SOL     OW26362   0.082   0.690   7.596  0.1764 -0.4647 -0.1467
40987SOL    HW126363   0.100   0.613   7.650  1.8319  0.8291  1.2795
40987SOL    HW226364   0.144   0.756   7.627 -1.1993  1.4701 -1.2705
40988SOL     OW26365   6.319   2.594   7.233 -0.0995  0.6352  0.1102
40988SOL    HW126366   6.352   2.615   7.320  1.1329 -0.9001  0.0452
40988SOL    HW226367   6.240   2.542   7.248  0.8493 -0.7697  0.3521
40989SOL     OW26368   9.556  10.753   2.938 -0.6009 -0.1750  0.2125
40989SOL    HW126369   9.649  10.742   2.918 -0.9858 -0.8968 -1.3532
40989SOL    HW226370   9.538  10.688   3.006  0.1828  0.4707  1.0563
40990SOL     OW26371   6.189   2.870   0.913 -0.0292 -0.5362  0.0517
40990SOL    HW126372   6.264   2.894   0.968 -0.9569 -0.2364  1.2196
40990SOL    HW226373   6.169   2.780   0.938 -0.2037 -0.5331 -0.0785
40991SOL     OW26374   0.670   4.722   7.780  0.1838  0.4654  0.3369
40991SOL    HW126375   0.761   4.700   7.760  0.5229  2.2638 -0.2582
40991SOL    HW226376   0.619   4.658   7.730  1.1135  0.5003 -0.7141
40992SOL     OW26377   8.994   8.060   1.143 -0.5283  0.0557  0.3024
40992SOL    HW126378   8.990   8.150   1.176  0.4830 -0.2952  1.4639
40992SOL    HW226379   9.058   8.064   1.072  1.7976 -0.2206  2.2387
40993SOL     OW26380   9.238   1.290   5.100  0.1830  0.2223  0.2558
40993SOL    HW126381   9.236   1.386   5.091 -0.3578  0.4475  2.3807
40993SOL    HW226382   9.163   1.260   5.050  0.0792  0.9460 -0.0378
40994SOL     OW26383  10.167   7.339   6.330  0.0267 -0.0972 -0.3380
40994SOL    HW126384  10.185   7.252   6.367 -0.5291 -0.2819 -0.4936
40994SOL    HW226385  10.085   7.328   6.282  0.0316  0.4800 -0.4820
40995SOL     OW26386   0.482  10.647   8.780 -0.1957  0.2146 -0.2635
40995SOL    HW126387   0.400  10.688   8.753 -0.8165 -0.4305  0.5736
40995SOL    HW226388   0.472  10.555   8.757  0.6960  0.2903 -1.0282
40996SOL     OW26389   9.870   2.512   2.995  0.4195 -0.0208 -0.8166
40996SOL    HW126390   9.817   2.435   2.975 -1.6064  0.4304  2.2063
40996SOL    HW226391   9.806   2.581   3.015  2.0894  0.9770  1.5827
40997SOL     OW26392   0.136   9.461   4.418  0.5960  0.5877 -0.1911
40997SOL    HW126393   0.187   9.464   4.499  1.4330  0.8982 -0.7263
40997SOL    HW226394   0.079   9.538   4.423  0.7671  0.7024  0.0168
40998SOL     OW26395   3.756  10.533   8.136  0.1893 -0.1880  0.5128
40998SOL    HW126396   3.766  10.446   8.098  1.6889  0.2780 -0.2520
40998SOL    HW226397   3.663  10.553   8.127 -0.2069 -1.7652  0.8515
40999SOL     OW26398   2.194   5.624   0.965  0.0744 -0.3328  0.0751
40999SOL    HW126399   2.213   5.608   0.873  0.5350  0.2780  0.0634
40999SOL    HW226400   2.166   5.539   0.999 -0.0742 -0.5638 -0.6203
41000SOL     OW26401   9.128   0.407   6.628 -0.1524 -0.1380 -0.7999
41000SOL    HW126402   9.122   0.350   6.704  0.4560 -1.2224 -1.5345
41000SOL    HW226403   9.209   0.455   6.639  0.4741 -1.0552 -1.2401
41001SOL     OW26404   4.399   8.287   6.889 -0.1286  0.0954 -0.0904
41001SOL    HW126405   4.354   8.265   6.807  0.1121 -0.2914 -0.1181
41001SOL    HW226406   4.375   8.378   6.905  0.0907  0.2768 -0.7641
41002SOL     OW26407  10.275   2.828   9.373  0.1521 -0.2235  0.4722
41002SOL    HW126408  10.211   2.854   9.440 -1.0496  1.5384 -1.2387
41002SOL    HW226409  10.347   2.890   9.384  0.7895 -1.0757  1.2462
41003SOL     OW26410   3.053   8.710   5.557 -0.6190  0.7112  0.5219
41003SOL    HW126411   3.086   8.652   5.625  0.1410  0.5404  0.0197
41003SOL    HW226412   3.033   8.792   5.603 -2.0943 -0.0420  1.3145
41004SOL     OW26413   1.967   5.015   2.447  0.3276  0.7892 -0.1182
41004SOL    HW126414   1.989   4.935   2.496 -0.3103 -0.1849 -1.3530
41004SOL    HW226415   2.025   5.082   2.483  0.7162 -0.1704  1.1176
41005SOL     OW26416   6.238   2.621   9.030 -0.3348 -1.1148  0.8062
41005SOL    HW126417   6.325   2.584   9.012  0.1782 -0.0713  1.0402
41005SOL    HW226418   6.211   2.581   9.112 -0.3651 -1.9368  0.4023
41006SOL     OW26419   8.799   8.579   7.651 -0.9566 -0.5218  0.1427
41006SOL    HW126420   8.706   8.571   7.670 -1.2886 -0.6880 -1.4274
41006SOL    HW226421   8.802   8.628   7.568  0.3889  0.2952  0.6412
41007SOL     OW26422   8.938   0.973   3.920  0.3492  0.2561 -0.2403
41007SOL    HW126423   9.030   0.964   3.947  1.1949  1.1227 -2.5769
41007SOL    HW226424   8.931   0.920   3.841 -0.9458  0.8574 -0.5460
41008SOL     OW26425   9.704   9.211   8.929  0.3570 -0.1954 -0.7742
41008SOL    HW126426   9.661   9.135   8.890 -0.2023 -0.0260 -0.5018
41008SOL    HW226427   9.761   9.174   8.996 -0.1029 -0.3657 -0.4707
41009SOL     OW26428   2.280   2.499   1.950  0.0210 -0.2631  0.5477
41009SOL    HW126429   2.341   2.435   1.914 -0.6933 -0.9111  0.4633
41009SOL    HW226430   2.201   2.488   1.898  0.9429  3.1702 -1.9216
41010SOL     OW26431   8.490   5.531   3.967 -0.1890 -0.5233  0.1943
41010SOL    HW126432   8.431   5.595   4.006 -0.8486 -1.2457  0.3965
41010SOL    HW226433   8.564   5.584   3.934  1.2320  0.0170  3.7569
41011SOL     OW26434   4.946   5.021  10.892  0.9008  0.2844 -0.0541
41011SOL    HW126435   4.944   4.953  10.824  1.7149  1.0024 -0.8254
41011SOL    HW226436   4.854   5.041  10.909  0.6775 -0.1477 -0.7132
41012SOL     OW26437   2.286  10.420   1.439 -0.1208 -0.1655 -0.5442
41012SOL    HW126438   2.252  10.331   1.425 -1.4754  0.4756 -1.6105
41012SOL    HW226439   2.355  10.409   1.504 -0.9406 -1.8562  0.1131
41013SOL     OW26440   3.682   0.646   6.845 -0.5527 -0.5350  0.2775
41013SOL    HW126441   3.641   0.586   6.907 -1.0225 -1.5865 -0.9890
41013SOL    HW226442   3.615   0.712   6.827 -0.7886 -0.8095  0.1350
41014SOL     OW26443   6.519  10.238  10.036 -0.3891 -0.0534 -0.1862
41014SOL    HW126444   6.503  10.196  10.121 -1.6894 -0.4544 -0.6127
41014SOL    HW226445   6.443  10.294  10.022 -0.5695 -0.5660 -1.4270
41015SOL     OW26446   8.423  10.191  10.862 -0.2991  0.5357  0.0361
41015SOL    HW126447   8.493  10.158  10.918 -0.8584 -0.0622  0.4155
41015SOL    HW226448   8.431  10.286  10.865  1.4016  0.4706 -1.1216
41016SOL     OW26449   9.900   1.343   6.151  0.5053 -0.0510 -0.1254
41016SOL    HW126450   9.897   1.269   6.213  2.9059 -0.1058  0.0315
41016SOL    HW226451   9.909   1.301   6.065  1.3070  0.0167 -0.0866
41017SOL     OW26452   8.920   1.132   1.750  0.1065 -0.0101  0.1264
41017SOL    HW126453   8.958   1.219   1.737 -0.0017  0.2754  1.5905
41017SOL    HW226454   8.982   1.087   1.806 -0.4048 -0.4833  0.3139
41018SOL     OW26455   6.741   2.996   4.742  0.0570  0.0612  0.2010
41018SOL    HW126456   6.773   2.954   4.822  0.3730  0.3098  0.2080
41018SOL    HW226457   6.813   2.987   4.679  0.4243  1.2328  0.4305
41019SOL     OW26458   2.881   7.392   8.355  0.3431 -0.2717  0.5109
41019SOL    HW126459   2.817   7.392   8.426  0.4164  0.8107  0.5976
41019SOL    HW226460   2.966   7.391   8.399  0.4069 -1.9309  0.3938
41020SOL     OW26461  10.369   1.348   4.767  0.0285 -0.6657  0.1125
41020SOL    HW126462  10.460   1.378   4.762 -0.3451  0.4178 -0.8007
41020SOL    HW226463  10.371   1.260   4.730  0.7506 -0.7386  0.3182
41021SOL     OW26464   4.911   8.212  10.483 -0.3130 -0.1730 -0.1060
41021SOL    HW126465   4.890   8.298  10.447 -0.9249  1.1624  3.0777
41021SOL    HW226466   4.839   8.193  10.543  1.2956 -1.4349  1.5618
41022SOL     OW26467   2.403   6.939  10.088  0.0290 -0.5888  0.3777
41022SOL    HW126468   2.326   6.888  10.061 -0.7241  0.4065  0.5897
41022SOL    HW226469   2.418   6.914  10.179  1.0311 -2.0687 -0.1600
41023SOL     OW26470   8.402   7.175   8.004  0.3321  0.3826 -0.1619
41023SOL    HW126471   8.442   7.243   8.059  2.0103  1.0664 -2.0762
41023SOL    HW226472   8.426   7.093   8.046 -0.8277  0.9197  1.6230
41024SOL     OW26473  10.593   1.010   6.657 -0.0729  0.3357  0.2966
41024SOL    HW126474  10.682   1.037   6.678 -0.5868  5.7470 -2.6006
41024SOL    HW226475  10.539   1.049   6.726 -0.4369 -1.7333  1.2675
41025SOL     OW26476   7.034   9.746   1.260  0.1556  0.3128 -0.3269
41025SOL    HW126477   7.129   9.748   1.267  0.1200  0.0574  0.2703
41025SOL    HW226478   7.012   9.822   1.207  0.7083  0.2475 -0.6557
41026SOL     OW26479   5.386   6.453   8.374  0.1102  0.5179  0.7885
41026SOL    HW126480   5.387   6.416   8.286  0.4243  1.7596  0.2533
41026SOL    HW226481   5.313   6.514   8.375 -0.1942  0.1644  1.5548
41027SOL     OW26482   5.366   7.522   4.057 -0.2037 -0.5893  0.2576
41027SOL    HW126483   5.360   7.436   4.098 -0.8411 -0.1876  1.0372
41027SOL    HW226484   5.286   7.568   4.085  1.0737  0.9771  1.5542
41028SOL     OW26485   3.751   0.327   2.243 -0.4854 -0.2861  0.0827
41028SOL    HW126486   3.692   0.395   2.209 -0.9062 -0.7340 -0.1033
41028SOL    HW226487   3.750   0.259   2.176  1.0441  0.1336 -0.3961
41029SOL     OW26488   9.696   7.687   6.948  0.5028 -0.0023 -0.1276
41029SOL    HW126489   9.734   7.648   7.027 -0.3678  1.6692  1.1924
41029SOL    HW226490   9.619   7.734   6.980 -0.3028  0.1264 -2.1118
41030SOL     OW26491   3.055   2.653   1.821  0.2780 -0.8487 -0.1263
41030SOL    HW126492   2.962   2.633   1.830  0.1707  0.1753  1.6585
41030SOL    HW226493   3.094   2.573   1.788 -1.0068 -1.8366  0.6438
41031SOL     OW26494   7.923   6.155   8.461 -0.6571 -0.0628  0.0662
41031SOL    HW126495   7.987   6.087   8.485 -0.3999  0.6435  1.5041
41031SOL    HW226496   7.864   6.112   8.400  0.1698 -1.2442  0.0604
41032SOL     OW26497   6.402   5.127   4.004 -0.3833  0.2507  0.0050
41032SOL    HW126498   6.307   5.135   3.996 -0.3212  0.5174 -0.5245
41032SOL    HW226499   6.435   5.215   3.985  0.0144 -0.0336 -0.6637
41033SOL     OW26500   4.438   8.566  10.862 -0.3471  0.3887 -0.4282
41033SOL    HW126501   4.503   8.580  10.794  2.4190  1.0187  2.1284
41033SOL    HW226502   4.460   8.481  10.900 -1.1186  0.5395  0.4026
41034SOL     OW26503   5.707   0.328   5.099  0.1903  0.0575  0.0512
41034SOL    HW126504   5.626   0.312   5.051  0.2513  0.8600 -0.3288
41034SOL    HW226505   5.776   0.300   5.039  0.1925 -1.3291  0.6540
41035SOL     OW26506  10.103   9.556   1.403  0.2185 -0.4260 -0.6335
41035SOL    HW126507  10.046   9.545   1.479  1.3048 -3.8259 -0.1375
41035SOL    HW226508  10.052   9.524   1.329  0.1435  0.2504 -0.8836
41036SOL     OW26509  10.676   6.175   7.049  0.2723  0.1352 -0.4298
41036SOL    HW126510  10.704   6.171   6.957  2.5437 -1.8027  0.2652
41036SOL    HW226511  10.592   6.127   7.050  0.8260 -0.8992 -1.3200
41037SOL     OW26512   4.240   0.580   2.071  0.0184 -0.0975 -0.1030
41037SOL    HW126513   4.171   0.627   2.118  0.9681  1.7568 -0.4828
41037SOL    HW226514   4.246   0.624   1.987  0.5535 -1.3132 -0.7233
41038SOL     OW26515   4.402   2.614   6.017  0.2437  0.0721 -0.0660
41038SOL    HW126516   4.375   2.629   6.107  0.6960  1.3633 -0.1352
41038SOL    HW226517   4.340   2.548   5.985 -0.2729  0.0133  1.0026
41039SOL     OW26518   0.216   7.836   1.761  0.1822  0.0833 -0.5437
41039SOL    HW126519   0.236   7.770   1.693  1.7155 -0.2387  0.1596
41039SOL    HW226520   0.284   7.902   1.749 -0.3154  0.6708 -0.1338
41040SOL     OW26521   7.808   3.388  10.175 -0.2460  0.6443  0.3535
41040SOL    HW126522   7.747   3.339  10.121 -0.3880  0.0246  1.0660
41040SOL    HW226523   7.819   3.335  10.253  1.2893  0.6816  0.1964
41041SOL     OW26524  10.375   3.515   8.603  0.0719  0.1056  0.3361
41041SOL    HW126525  10.403   3.451   8.538 -1.2216 -1.9258  1.6426
41041SOL    HW226526  10.456   3.543   8.645  0.7693  0.1854 -1.0087
41042SOL     OW26527   1.921   8.146   7.906  0.1919  0.4756  0.6031
41042SOL    HW126528   1.886   8.148   7.995  1.7080 -0.0106  1.2386
41042SOL    HW226529   1.882   8.067   7.867  0.4345  0.0366  1.2360
41043SOL     OW26530   3.734   0.695   9.308 -0.5129 -0.3888 -0.4091
41043SOL    HW126531   3.691   0.624   9.260 -0.9393 -0.5345  0.1915
41043SOL    HW226532   3.663   0.751   9.338 -0.1307  1.2501 -2.3023
41044SOL     OW26533   3.785   3.582   5.365 -0.3734  0.3139 -0.1248
41044SOL    HW126534   3.776   3.673   5.335  1.8695  0.4448 -0.6042
41044SOL    HW226535   3.736   3.531   5.302  1.5630  0.8965 -2.2245
41045SOL     OW26536   3.379   3.451   0.010 -0.0490  0.0982 -0.2470
41045SOL    HW126537   3.387   3.357   0.031  1.6972  0.2703 -0.0392
41045SOL    HW226538   3.289   3.473   0.036  0.1480 -1.0653  1.5848
41046SOL     OW26539   5.459   7.788   4.984  0.4936 -0.3181 -0.4206
41046SOL    HW126540   5.410   7.856   5.032  0.8650 -0.9191  0.8466
41046SOL    HW226541   5.412   7.707   5.004  0.9859 -0.6566 -0.6305
41047SOL     OW26542   5.688   2.565   1.544  0.1766  0.2976 -0.4304
41047SOL    HW126543   5.631   2.513   1.488  0.4082  0.0684 -0.4566
41047SOL    HW226544   5.767   2.579   1.492  0.6251 -0.4053  0.0371
41048SOL     OW26545   9.736   9.571   6.766  0.0608 -0.3148  0.5931
41048SOL    HW126546   9.781   9.591   6.684 -0.1883  0.8198  0.7188
41048SOL    HW226547   9.758   9.644   6.824 -0.6911 -0.5195  1.1511
41049SOL     OW26548   2.094  10.902   3.144  0.6261  0.3399 -0.4244
41049SOL    HW126549   2.030  10.973   3.140 -0.3632 -0.5607 -1.6683
41049SOL    HW226550   2.067  10.850   3.219  2.7014  2.4077  1.9310
41050SOL     OW26551   0.942   4.310   8.469  0.5783  0.4512  0.3825
41050SOL    HW126552   0.963   4.236   8.525 -0.5963  0.1858  0.5132
41050SOL    HW226553   0.986   4.385   8.509 -0.1762  0.2577  1.6372
41051SOL     OW26554   9.027   5.866   6.879 -0.3490  0.0788  0.7161
41051SOL    HW126555   9.044   5.935   6.943  0.0812 -1.9920  2.9893
41051SOL    HW226556   9.028   5.911   6.794  0.0732  2.7895  2.0528
41052SOL     OW26557   4.029   8.756   2.199 -0.9922  0.4452 -0.1218
41052SOL    HW126558   4.097   8.788   2.258 -1.3404  0.4193  0.2955
41052SOL    HW226559   3.954   8.738   2.255 -0.9852 -0.5870 -0.4284
41053SOL     OW26560   5.100   2.062  10.424  0.1734 -0.1262 -0.6564
41053SOL    HW126561   5.189   2.056  10.387 -0.2948 -0.1933 -1.8297
41053SOL    HW226562   5.046   2.014  10.362 -0.6264 -0.4563  0.2856
41054SOL     OW26563   2.902   8.842   4.483 -0.3596  0.4007  0.0478
41054SOL    HW126564   2.902   8.936   4.501  2.4811  0.5453 -0.2750
41054SOL    HW226565   2.815   8.824   4.448 -0.5986  3.1532 -1.0066
41055SOL     OW26566  10.654   9.881   5.707  0.2375  0.1384 -0.5713
41055SOL    HW126567  10.713   9.809   5.687 -2.3526 -3.2355  2.4919
41055SOL    HW226568  10.579   9.867   5.649  0.1189  1.0182 -0.6385
41056SOL     OW26569   3.523   1.700   5.030 -0.2583 -0.2006 -0.2218
41056SOL    HW126570   3.436   1.714   5.067  0.4723  0.7947  1.1939
41056SOL    HW226571   3.557   1.788   5.017  1.1349 -0.5848  0.6938
41057SOL     OW26572   7.550   0.700   3.661  0.5284  0.1103  0.7893
41057SOL    HW126573   7.529   0.629   3.720 -3.2799 -0.0770 -0.5295
41057SOL    HW226574   7.572   0.657   3.578 -0.1252  0.4295  0.4457
41058SOL     OW26575   0.819   2.807   9.923 -0.0069  0.1564 -0.0043
41058SOL    HW126576   0.838   2.862   9.847 -1.1057  1.6232  0.7405
41058SOL    HW226577   0.759   2.740   9.890  2.6256 -1.7431 -1.3101
41059SOL     OW26578   5.604   7.921   0.427  0.3547  0.2983 -0.1013
41059SOL    HW126579   5.656   7.948   0.351  0.0599  1.2197  0.0183
41059SOL    HW226580   5.646   7.840   0.457  1.1107  0.4980 -0.6016
41060SOL     OW26581   3.187   2.395   4.824  0.7163  0.0245 -0.8345
41060SOL    HW126582   3.171   2.415   4.916  0.4564  0.8419 -1.0473
41060SOL    HW226583   3.112   2.341   4.799  0.5442  0.1878 -0.6832
41061SOL     OW26584   4.707   1.113   8.537 -0.5777  0.2063  0.1713
41061SOL    HW126585   4.648   1.167   8.590 -0.4875 -0.1436  0.6277
41061SOL    HW226586   4.653   1.080   8.466 -0.9380 -0.1232  0.5953
41062SOL     OW26587   0.792   7.235   7.826  0.0284 -0.3169  0.3720
41062SOL    HW126588   0.849   7.312   7.826 -0.7765  0.3095 -0.2029
41062SOL    HW226589   0.766   7.226   7.734 -0.2907 -0.9729  0.5245
41063SOL     OW26590   7.577   8.015  10.638 -0.1254 -0.0613  0.2332
41063SOL    HW126591   7.609   8.064  10.562 -0.7645  0.9390  0.5860
41063SOL    HW226592   7.599   8.069  10.713 -1.3893  0.0168  0.5831
41064SOL     OW26593   5.244   5.209   4.751 -0.3333 -0.0296  0.4136
41064SOL    HW126594   5.314   5.228   4.813 -1.6522  0.5058  1.7816
41064SOL    HW226595   5.198   5.134   4.788  0.0458 -0.9790 -0.9507
41065SOL     OW26596   3.067   2.052   2.631  0.5769 -0.1918 -0.2318
41065SOL    HW126597   3.096   2.062   2.722 -1.3683 -1.8106  0.6472
41065SOL    HW226598   3.134   1.998   2.590  0.9742 -0.2882  0.5266
41066SOL     OW26599   7.537   0.588   3.047  0.0197  0.6802 -1.0377
41066SOL    HW126600   7.571   0.571   3.135 -1.7908  0.0305 -0.4152
41066SOL    HW226601   7.552   0.507   2.999  2.8000  1.6472 -2.0313
41067SOL     OW26602  10.908   9.918   5.913  0.4339 -0.1960  0.4121
41067SOL    HW126603  10.961   9.998   5.914 -1.4431  1.1116 -0.2284
41067SOL    HW226604  10.865   9.918   5.999  0.6486 -0.6915  0.5223
41068SOL     OW26605   1.302   1.612   2.226  1.0018 -0.4003 -0.5166
41068SOL    HW126606   1.274   1.523   2.205 -0.2659 -0.4043  0.9904
41068SOL    HW226607   1.371   1.600   2.292  0.7321 -0.2833 -0.2069
41069SOL     OW26608   0.051   7.278   1.991 -0.2463  0.5423  0.1022
41069SOL    HW126609   0.042   7.366   1.954  1.1318  0.8590  0.4714
41069SOL    HW226610   0.042   7.219   1.917 -1.3500  0.9746 -0.1265
41070SOL     OW26611   4.690   9.280   2.981  0.4035 -0.2209 -0.4484
41070SOL    HW126612   4.648   9.356   2.941 -1.3716 -0.7222  0.3570
41070SOL    HW226613   4.627   9.208   2.968 -0.1807 -0.4722  2.8606
41071SOL     OW26614   0.865   3.988  10.687 -0.2251 -0.1327 -0.1297
41071SOL    HW126615   0.782   4.036  10.684  1.4417  2.9945 -1.1178
41071SOL    HW226616   0.902   4.011  10.773  0.1225 -0.5235 -0.1753
41072SOL     OW26617  10.123   3.665  10.075 -0.4515  0.1746  0.4381
41072SOL    HW126618  10.177   3.681   9.998 -0.6739 -0.6065  0.1029
41072SOL    HW226619  10.141   3.739  10.133  0.3599  0.3373 -0.0003
41073SOL     OW26620   2.688   1.751   2.612 -0.1531 -0.6056  0.0089
41073SOL    HW126621   2.778   1.743   2.645 -0.0542  0.8902  0.1673
41073SOL    HW226622   2.633   1.745   2.690 -0.0530  0.6114  0.1868
41074SOL     OW26623   3.069   8.734   7.697 -0.0274  0.2927  0.6459
41074SOL    HW126624   3.034   8.818   7.726 -0.8803  0.3086 -0.3805
41074SOL    HW226625   3.108   8.695   7.776 -1.0000  0.9571  1.4676
41075SOL     OW26626   3.076   6.721   8.766  0.2272 -0.3639  0.2234
41075SOL    HW126627   3.106   6.719   8.857  0.7284  0.1979  0.0750
41075SOL    HW226628   3.001   6.780   8.767  0.8461  0.4412  0.1017
41076SOL     OW26629  10.455   3.745   3.046 -0.6042 -0.0348 -0.2192
41076SOL    HW126630  10.447   3.808   2.974  1.7181  1.3726  0.6487
41076SOL    HW226631  10.427   3.662   3.008  0.7489  0.6058 -2.8591
41077SOL     OW26632   5.954   8.309   1.381 -0.0056 -0.2513  0.6092
41077SOL    HW126633   5.907   8.295   1.299 -0.9726  1.1236  0.8999
41077SOL    HW226634   6.016   8.380   1.361 -0.3514  0.1950  1.0863
41078SOL     OW26635   1.668   7.999   6.043 -0.1829 -0.2171 -0.3072
41078SOL    HW126636   1.700   7.910   6.054  1.6443  0.3090 -1.0541
41078SOL    HW226637   1.604   7.993   5.972  1.1473 -0.6930 -1.5079
41079SOL     OW26638  10.261   0.863   0.898 -0.1468 -0.2413 -0.8874
41079SOL    HW126639  10.242   0.859   0.804 -1.7177 -1.1234 -0.5723
41079SOL    HW226640  10.193   0.920   0.933  0.4495  0.1031 -0.2718
41080SOL     OW26641   9.223   9.486   3.697  0.0913 -0.4733  0.0571
41080SOL    HW126642   9.302   9.479   3.751 -0.5706 -0.0271  1.1009
41080SOL    HW226643   9.202   9.396   3.673  0.0833 -0.7292  0.9990
41081SOL     OW26644   9.781   8.416   7.420  0.4112  0.1567 -0.0190
41081SOL    HW126645   9.774   8.511   7.425  1.0736  0.2432 -0.5282
41081SOL    HW226646   9.874   8.398   7.431  0.0774 -0.5771  1.8673
41082SOL     OW26647   1.376   9.030   2.077  0.4556 -0.1717  0.7333
41082SOL    HW126648   1.320   9.049   2.153  0.2091  0.6612  0.3576
41082SOL    HW226649   1.465   9.038   2.110  0.4493  3.3901  0.2927
41083SOL     OW26650   9.941   4.658   9.852  0.4583 -0.0880 -0.4922
41083SOL    HW126651  10.015   4.668   9.793 -0.6251 -0.3043 -1.9476
41083SOL    HW226652   9.871   4.709   9.812 -0.4878 -0.7164  0.3011
41084SOL     OW26653   8.152   5.835   0.431  0.2590  0.4702 -0.2408
41084SOL    HW126654   8.177   5.746   0.454  1.2759  0.9543  0.6083
41084SOL    HW226655   8.184   5.847   0.342  1.7692  0.5620  0.2810
41085SOL     OW26656   5.005  10.887   9.430  0.0418 -0.1177  0.0740
41085SOL    HW126657   4.945  10.962   9.433 -0.2248 -0.2629 -0.9758
41085SOL    HW226658   4.963  10.821   9.485 -1.2245 -0.5054 -1.2610
41086SOL     OW26659   9.220  10.469   6.652  0.2001 -0.0142 -0.6529
41086SOL    HW126660   9.280  10.406   6.611 -0.3071 -0.7848 -0.2391
41086SOL    HW226661   9.157  10.491   6.584  0.2559 -0.1096 -0.7370
41087SOL     OW26662   4.835   6.744   0.249 -0.4176 -0.0515 -0.1939
41087SOL    HW126663   4.814   6.817   0.190  0.6424  0.5706  0.1746
41087SOL    HW226664   4.804   6.772   0.335  2.1496  1.1024  0.4690
41088SOL     OW26665   8.049   4.792   5.741  0.1506  0.1853  0.0934
41088SOL    HW126666   8.111   4.844   5.690  0.3076 -0.3263 -0.2407
41088SOL    HW226667   8.052   4.831   5.828  1.8460 -0.5467  0.4198
41089SOL     OW26668   3.028   6.238   6.416  0.1115  0.5313  0.3398
41089SOL    HW126669   3.090   6.232   6.343 -0.1058 -1.7552  0.2614
41089SOL    HW226670   2.951   6.281   6.379 -0.2265 -1.1465 -0.9998
41090SOL     OW26671  10.174   8.082   1.302  0.2083 -0.1612 -0.5959
41090SOL    HW126672  10.106   8.078   1.235  0.0843  0.4252 -0.5029
41090SOL    HW226673  10.256   8.071   1.253  0.1581  0.8923 -0.9224
41091SOL     OW26674   1.122   8.082   0.344  0.2184 -0.3076  0.3253
41091SOL    HW126675   1.203   8.086   0.394 -0.5887 -1.5523  1.8076
41091SOL    HW226676   1.148   8.043   0.260  0.9523 -1.9150  1.2603
41092SOL     OW26677   8.753   9.785   0.451  0.2103 -0.4316  0.0527
41092SOL    HW126678   8.701   9.727   0.396  0.5651 -1.2923  0.6082
41092SOL    HW226679   8.721   9.873   0.430 -1.6270 -0.9360  0.5199
41093SOL     OW26680   8.825   4.478   5.666 -0.0129 -0.4208 -0.0683
41093SOL    HW126681   8.841   4.457   5.574 -0.0694  1.5565 -0.5772
41093SOL    HW226682   8.748   4.535   5.665  1.2029  1.3392  0.9442
41094SOL     OW26683   7.403   0.387   1.546  0.5162 -0.4354  0.2903
41094SOL    HW126684   7.352   0.307   1.532  0.1925  0.1797 -2.4782
41094SOL    HW226685   7.352   0.437   1.609 -0.3233 -1.4877  0.4776
41095SOL     OW26686   8.863   4.271   0.463 -1.0567  0.1780  0.3277
41095SOL    HW126687   8.795   4.302   0.523  0.1414 -0.5048  2.1226
41095SOL    HW226688   8.834   4.183   0.438 -0.7927 -0.1960  1.2549
41096SOL     OW26689   2.338   6.334   0.818  0.2633  0.1032 -0.1566
41096SOL    HW126690   2.434   6.326   0.815  0.3161  0.2046  0.9522
41096SOL    HW226691   2.308   6.287   0.740  1.2327  0.4106 -0.7428
41097SOL     OW26692   2.665   2.938  10.852 -0.0592  1.3405 -0.4923
41097SOL    HW126693   2.737   2.985  10.892  0.3762  1.9359 -1.8998
41097SOL    HW226694   2.666   2.852  10.894  1.9391  1.0731 -0.9648
41098SOL     OW26695   6.414   0.341  10.101 -0.0391  0.1788 -0.2474
41098SOL    HW126696   6.346   0.407  10.085 -0.4960 -0.1847  0.1555
41098SOL    HW226697   6.437   0.309  10.014 -0.4975  0.1984 -0.3784
41099SOL     OW26698   9.370  10.282   5.336  0.2553  0.1558  0.3776
41099SOL    HW126699   9.431  10.330   5.280 -2.5863  0.2760 -2.9325
41099SOL    HW226700   9.402  10.192   5.335  2.5130  0.8451  2.0816
41100SOL     OW26701   4.441   4.562   8.465  0.6636  0.1085  0.2997
41100SOL    HW126702   4.481   4.528   8.385 -0.3676  0.5638 -0.4358
41100SOL    HW226703   4.353   4.525   8.466  0.7242 -0.0390  1.3305
41101SOL     OW26704   6.049   6.951   8.479 -0.4849 -0.6063 -0.3292
41101SOL    HW126705   5.959   6.962   8.510 -0.7758  0.7890 -1.5542
41101SOL    HW226706   6.040   6.936   8.385  0.5774  1.0168 -0.7383
41102SOL     OW26707   7.453   9.267  10.162 -0.4560  0.4183  0.0566
41102SOL    HW126708   7.413   9.244  10.246  0.8744 -0.6453  0.4306
41102SOL    HW226709   7.535   9.312  10.186  0.9103 -1.5917 -0.6035
41103SOL     OW26710   3.291   4.314   6.079 -0.3137  0.0235  0.0064
41103SOL    HW126711   3.359   4.364   6.123  0.3513 -0.9971  0.1744
41103SOL    HW226712   3.211   4.366   6.091 -0.1273 -0.1497  2.2971
41104SOL     OW26713   6.505   1.343   7.659 -0.6033 -0.1667 -0.1138
41104SOL    HW126714   6.450   1.293   7.598  0.4632 -0.8495 -0.5392
41104SOL    HW226715   6.569   1.280   7.692 -1.2887  0.1197  1.9412
41105SOL     OW26716   6.313   1.434   2.666  0.3337  0.3985  0.4281
41105SOL    HW126717   6.293   1.515   2.712  0.9162 -0.2392  1.8620
41105SOL    HW226718   6.241   1.374   2.690  0.1182  0.3637 -0.2938
41106SOL     OW26719   1.477   8.661   1.402 -0.2551 -0.0902 -0.3523
41106SOL    HW126720   1.390   8.678   1.367  0.5673  2.0060 -1.5449
41106SOL    HW226721   1.467   8.670   1.497 -1.2214  0.8767 -0.5265
41107SOL     OW26722   5.395   3.200   0.423 -0.0566 -0.0900 -0.3062
41107SOL    HW126723   5.363   3.208   0.333  1.3712 -1.2553 -0.9802
41107SOL    HW226724   5.404   3.290   0.454  0.7086  0.3971 -1.8380
41108SOL     OW26725   1.737   1.918   6.949 -0.0341 -0.1370  0.4202
41108SOL    HW126726   1.678   1.974   7.000 -1.6273 -0.4258 -1.0232
41108SOL    HW226727   1.743   1.961   6.863  0.4767 -1.0362 -0.0122
41109SOL     OW26728   0.013   5.293   7.168 -0.7535 -0.2368  0.7803
41109SOL    HW126729  -0.018   5.311   7.079 -0.1251  0.3696  0.6820
41109SOL    HW226730   0.105   5.270   7.158 -0.7092 -0.2872  1.2664
41110SOL     OW26731  10.455   7.401   2.971 -0.1176  0.0374 -0.3480
41110SOL    HW126732  10.516   7.350   2.916 -0.0770 -0.7942  0.4365
41110SOL    HW226733  10.375   7.405   2.919 -1.8603 -5.0287  1.2911
41111SOL     OW26734   4.803   6.689   6.513  0.1172 -0.2916  0.3375
41111SOL    HW126735   4.891   6.672   6.479  0.6750 -1.2881  2.1562
41111SOL    HW226736   4.816   6.700   6.607 -1.6216  0.3520  0.5272
41112SOL     OW26737   8.431   6.004   0.733 -0.2050  0.2055  0.5257
41112SOL    HW126738   8.477   6.018   0.816  0.6979 -0.4471  0.1483
41112SOL    HW226739   8.447   5.912   0.711 -2.2941 -0.2529  0.7205
41113SOL     OW26740   9.645   4.362   5.468 -0.0214 -0.1073 -0.0638
41113SOL    HW126741   9.731   4.398   5.449 -0.3992 -0.4176 -2.6957
41113SOL    HW226742   9.663   4.278   5.510  1.0507 -1.1064 -2.3748
41114SOL     OW26743   1.966   8.502   1.483 -0.3153 -0.1980  0.5282
41114SOL    HW126744   1.907   8.571   1.454  0.4018  0.1571 -0.0979
41114SOL    HW226745   1.908   8.429   1.504 -0.9450 -0.1704 -0.9632
41115SOL     OW26746   7.988   4.041   5.934 -0.1262 -0.0145  0.6553
41115SOL    HW126747   8.017   4.120   5.888 -0.8461 -0.6882 -1.0215
41115SOL    HW226748   7.969   4.071   6.023  1.6030  1.2689  0.6445
41116SOL     OW26749   7.060   4.481   4.269 -0.1264  0.1355 -0.5027
41116SOL    HW126750   7.034   4.389   4.265  1.4755 -0.4276  0.6922
41116SOL    HW226751   6.979   4.529   4.282 -0.9084 -1.1873 -0.2923
41117SOL     OW26752   2.866   9.680   5.627 -0.2150 -0.0773  0.0531
41117SOL    HW126753   2.927   9.742   5.668  1.0611  0.1554 -2.0560
41117SOL    HW226754   2.847   9.719   5.541 -0.2245 -2.0674 -0.9017
41118SOL     OW26755   5.510   4.748   0.840 -0.0105 -0.2846  0.0026
41118SOL    HW126756   5.555   4.803   0.776 -0.0289 -0.2066  0.0567
41118SOL    HW226757   5.436   4.712   0.792 -1.1918  1.3545  0.5072
41119SOL     OW26758   5.504   7.289   9.904  0.5437  0.4951  0.0173
41119SOL    HW126759   5.434   7.223   9.911  0.8550 -0.2795 -2.7949
41119SOL    HW226760   5.585   7.238   9.911  0.8256  1.0569  0.9383
41120SOL     OW26761   1.569   1.019   7.975 -0.2952  0.2539 -0.1584
41120SOL    HW126762   1.563   1.079   8.049 -0.0075 -0.1738  0.2099
41120SOL    HW226763   1.585   1.077   7.900  1.7795  0.5248  0.4392
41121SOL     OW26764   1.825  10.889   0.816 -0.3228  0.3447 -0.2690
41121SOL    HW126765   1.848  10.980   0.799 -0.5003  0.4496  0.0524
41121SOL    HW226766   1.743  10.876   0.768 -0.3567  0.3858 -0.2220
41122SOL     OW26767  10.907   7.355   5.672 -0.5091  0.2982 -0.0806
41122SOL    HW126768  10.974   7.311   5.725  1.6994  2.3021 -1.0492
41122SOL    HW226769  10.940   7.351   5.583 -0.7938  2.8098 -0.3705
41123SOL     OW26770   8.135   7.928   8.413 -0.2491  0.0410 -0.1213
41123SOL    HW126771   8.047   7.907   8.445 -0.2530  0.7258  0.3275
41123SOL    HW226772   8.140   8.023   8.417 -0.0291  0.1122 -1.6023
41124SOL     OW26773   4.287   9.423   1.812 -0.0194 -0.3418 -0.6589
41124SOL    HW126774   4.280   9.417   1.907  0.5819  0.4382 -0.5513
41124SOL    HW226775   4.219   9.485   1.786 -0.8125 -1.2729 -0.8535
41125SOL     OW26776   8.409   9.253   6.717  0.3882  0.3648  0.2617
41125SOL    HW126777   8.330   9.221   6.762  0.3977 -1.1658 -0.7521
41125SOL    HW226778   8.377   9.327   6.665 -0.3547 -0.1034  0.0246
41126SOL     OW26779   3.082   0.036   3.728  0.3955  1.0105  0.1586
41126SOL    HW126780   3.038   0.053   3.644 -0.8886 -1.3624  0.2609
41126SOL    HW226781   3.174   0.024   3.705 -0.4403 -4.0458 -1.8159
41127SOL     OW26782   1.724   2.066   5.809 -0.0126 -0.2613 -0.2316
41127SOL    HW126783   1.740   2.033   5.897 -0.2044 -0.7039 -0.3624
41127SOL    HW226784   1.669   2.144   5.823  0.3477 -0.0580  0.0652
41128SOL     OW26785   3.263   7.691   7.441  0.2032  0.4161 -0.5529
41128SOL    HW126786   3.303   7.615   7.399 -1.2500  0.3088 -1.8389
41128SOL    HW226787   3.331   7.725   7.498  1.6613 -0.5268 -1.6399
41129SOL     OW26788   0.519   5.442   4.302 -0.3770  0.1574  0.1971
41129SOL    HW126789   0.505   5.536   4.309 -0.4674  0.1325  0.3558
41129SOL    HW226790   0.520   5.424   4.208 -1.1951  0.1889  0.1787
41130SOL     OW26791   6.832   6.729   1.888  0.2204  0.2727 -0.2809
41130SOL    HW126792   6.834   6.742   1.983  1.0861  1.3214 -0.4322
41130SOL    HW226793   6.859   6.638   1.876  1.8824  0.6495  0.3930
41131SOL     OW26794   5.370   3.196  10.765  0.1095 -0.0404  0.2566
41131SOL    HW126795   5.305   3.255  10.727  1.4603  0.3613 -1.5605
41131SOL    HW226796   5.405   3.147  10.690  1.3040 -0.8338  1.2963
41132SOL     OW26797   3.003   6.243   1.939 -0.3540  0.6889 -0.3624
41132SOL    HW126798   3.016   6.306   1.869 -0.4041  0.9390 -0.1483
41132SOL    HW226799   3.047   6.163   1.909  0.6629  1.1563 -0.1519
41133SOL     OW26800   0.306   5.389   7.687  0.1809 -0.0846 -0.4638
41133SOL    HW126801   0.279   5.468   7.734  0.8776 -0.1828  0.1101
41133SOL    HW226802   0.354   5.337   7.751 -1.3828 -1.6011 -0.4338
41134SOL     OW26803   2.916   6.012   6.133 -0.2115  0.5273  0.3982
41134SOL    HW126804   2.959   5.954   6.196 -1.2950  0.1771  0.8454
41134SOL    HW226805   2.868   5.952   6.075  0.3026  0.8796 -0.3931
41135SOL     OW26806   7.599   5.114   3.204  0.5035  0.3249  0.0174
41135SOL    HW126807   7.545   5.043   3.238  1.7138  0.4584  2.4171
41135SOL    HW226808   7.541   5.190   3.203  0.2445  0.1678  1.2784
41136SOL     OW26809   8.170   4.345   0.332 -0.1398 -0.6365  0.4354
41136SOL    HW126810   8.220   4.325   0.412  1.5174  0.2452 -0.3105
41136SOL    HW226811   8.080   4.324   0.354  0.6042 -2.8550  1.6854
41137SOL     OW26812   8.819   9.342   2.729 -0.1067 -0.1781 -0.0360
41137SOL    HW126813   8.794   9.394   2.653  2.4826 -0.0059 -0.8760
41137SOL    HW226814   8.834   9.407   2.798  3.1352  0.3835 -1.0863
41138SOL     OW26815   7.356  10.389   9.027  0.1709  0.2611  0.1374
41138SOL    HW126816   7.405  10.327   8.972 -1.4980 -0.6651 -0.3903
41138SOL    HW226817   7.272  10.346   9.042  0.0912  1.0741  2.3847
41139SOL     OW26818   4.735  10.741   0.547 -0.0067 -0.4592  0.4346
41139SOL    HW126819   4.769  10.722   0.460 -0.1368 -1.3835  0.5711
41139SOL    HW226820   4.804  10.712   0.607 -0.9756 -2.3469  0.7135
41140SOL     OW26821   1.506   3.876   7.571  0.2171  0.6075 -0.6243
41140SOL    HW126822   1.421   3.902   7.534  0.4283 -0.0365 -1.6146
41140SOL    HW226823   1.504   3.780   7.567  0.3592  0.5316  0.8308
41141SOL     OW26824   1.214   9.792   8.911  1.1861 -0.8046  0.0570
41141SOL    HW126825   1.191   9.856   8.979 -0.5583 -0.2741 -0.9463
41141SOL    HW226826   1.235   9.712   8.959  2.0789  0.1200  1.2846
41142SOL     OW26827   9.283   5.602   2.121  0.2485  0.0844 -0.1354
41142SOL    HW126828   9.310   5.687   2.156  0.1071 -0.0720  0.3723
41142SOL    HW226829   9.362   5.548   2.125 -0.3735 -0.7925  2.6423
41143SOL     OW26830   5.631   3.673   9.873  0.4458 -0.1224  0.5064
41143SOL    HW126831   5.549   3.717   9.898 -0.6216 -1.5880 -0.3232
41143SOL    HW226832   5.681   3.742   9.829 -0.3540  0.7812  0.9430
41144SOL     OW26833   9.687   6.745   3.180  0.4368 -0.5118 -0.8487
41144SOL    HW126834   9.621   6.675   3.172  1.4553 -1.3393 -3.1286
41144SOL    HW226835   9.639   6.825   3.161 -0.6325 -0.6170  1.1989
41145SOL     OW26836  10.883   9.143   2.245  0.5031 -0.3580  0.1172
41145SOL    HW126837  10.944   9.217   2.247  0.1284 -0.0483  0.2783
41145SOL    HW226838  10.938   9.066   2.246  0.8771 -0.0802  0.8656
41146SOL     OW26839   8.979   4.234   0.135 -0.5741 -0.4743  0.5276
41146SOL    HW126840   8.893   4.192   0.124 -1.1068  0.5707  0.4926
41146SOL    HW226841   8.970   4.286   0.215 -0.1583  0.0698  0.2270
41147SOL     OW26842   5.505  10.314   2.572 -0.3552 -0.1849 -0.0852
41147SOL    HW126843   5.518  10.365   2.652  0.4702 -0.1909 -0.2141
41147SOL    HW226844   5.469  10.377   2.509 -4.7486 -0.9166  1.3041
41148SOL     OW26845   3.493   0.881   1.419  0.1921  0.8191  0.1817
41148SOL    HW126846   3.428   0.942   1.383 -0.9180 -0.3247  0.1613
41148SOL    HW226847   3.441   0.821   1.473  1.5227  1.0908  1.8239
41149SOL     OW26848   7.923  10.766   6.375  0.2312 -0.3377 -0.2039
41149SOL    HW126849   7.889  10.829   6.312 -1.0820 -1.6705 -0.9066
41149SOL    HW226850   8.017  10.783   6.379 -0.1775  2.1245  0.2160
41150SOL     OW26851   2.333   0.950  10.477  0.1335 -0.0584  0.2002
41150SOL    HW126852   2.309   1.031  10.521  0.7334  0.1202  0.1963
41150SOL    HW226853   2.422   0.964  10.447  0.0741 -0.5455 -0.2149
41151SOL     OW26854   6.631   3.307   6.041 -0.1252 -0.2452  0.3909
41151SOL    HW126855   6.674   3.373   5.987 -1.7045  0.5542  0.0688
41151SOL    HW226856   6.631   3.228   5.987  2.4984 -0.8269  1.0824
41152SOL     OW26857   5.958   6.687   9.391  0.6461  0.1749  0.2980
41152SOL    HW126858   5.908   6.644   9.460  1.0735  0.8017  1.0154
41152SOL    HW226859   6.031   6.628   9.373 -0.6485 -1.0574 -1.2071
41153SOL     OW26860   8.936   9.922  10.084 -0.4586  0.0310  0.3014
41153SOL    HW126861   8.934   9.943  10.178 -0.4823 -0.2448  0.3632
41153SOL    HW226862   8.956  10.006  10.042  1.7364 -0.2140  0.6864
41154SOL     OW26863   6.264   4.685   5.446  0.0913 -0.0142  0.0789
41154SOL    HW126864   6.296   4.643   5.367  1.4103 -0.4644  0.8144
41154SOL    HW226865   6.259   4.778   5.424  0.4155 -0.1429 -0.5421
41155SOL     OW26866  10.393   2.492   0.105  0.3539 -0.2664  0.4332
41155SOL    HW126867  10.391   2.513   0.198  3.1327 -1.4187  0.8400
41155SOL    HW226868  10.416   2.399   0.101 -0.7291 -0.5088 -1.4143
41156SOL     OW26869   9.420   3.646   8.077  0.2985 -0.2287  0.3981
41156SOL    HW126870   9.446   3.659   8.168  0.6329 -0.6319  0.3617
41156SOL    HW226871   9.398   3.553   8.071  2.2179 -0.6776 -0.4110
41157SOL     OW26872   6.926   6.110   0.475  0.4047 -0.5633 -0.4810
41157SOL    HW126873   6.961   6.195   0.448  0.8271 -0.4380  0.4458
41157SOL    HW226874   6.944   6.053   0.401 -0.2979  0.2458 -1.3125
41158SOL     OW26875   8.717   8.141   2.343 -0.0215  0.2447 -0.2074
41158SOL    HW126876   8.802   8.127   2.386 -0.3041 -0.6878  0.0848
41158SOL    HW226877   8.726   8.097   2.258  0.4005  1.7453 -0.9811
41159SOL     OW26878   1.020   3.340   8.906 -0.2908 -0.2190 -0.0516
41159SOL    HW126879   0.996   3.303   8.991 -0.4325 -0.2819 -0.1189
41159SOL    HW226880   1.051   3.265   8.855 -0.1376 -0.1697 -0.0316
41160SOL     OW26881   1.857   4.332   3.116 -0.2604 -0.2762 -0.1924
41160SOL    HW126882   1.876   4.289   3.200 -0.9616 -1.2192 -0.5052
41160SOL    HW226883   1.812   4.413   3.140 -0.2478 -0.4264  0.3507
41161SOL     OW26884  10.769   7.932   1.265 -0.0808  0.1497 -0.2234
41161SOL    HW126885  10.802   8.016   1.295 -0.1166 -0.2643  1.0177
41161SOL    HW226886  10.804   7.923   1.176  2.3669  0.1672  0.6781
41162SOL     OW26887  10.449   8.711   9.666 -0.0152 -0.1801 -0.5089
41162SOL    HW126888  10.438   8.803   9.692 -0.7531  0.1318 -1.8307
41162SOL    HW226889  10.522   8.712   9.605  0.6832 -0.6550  0.3104
41163SOL     OW26890   1.201   5.873   6.333 -0.5452 -0.1980 -0.0229
41163SOL    HW126891   1.230   5.863   6.242 -1.1439 -1.0057 -0.1341
41163SOL    HW226892   1.172   5.964   6.339  0.0843  0.0412 -0.4609
41164SOL     OW26893   3.052   8.214   2.419  0.1734 -0.5057 -0.2070
41164SOL    HW126894   2.958   8.196   2.425 -0.0729  0.7109 -0.3026
41164SOL    HW226895   3.078   8.237   2.508  0.1089  0.3873 -0.4061
41165SOL     OW26896   8.053   9.921   6.407 -0.5213  0.6180  0.1938
41165SOL    HW126897   8.143   9.951   6.395 -0.1973  0.8971  2.7074
41165SOL    HW226898   7.999   9.999   6.398 -1.1960 -0.0554 -5.4154
41166SOL     OW26899   4.956   1.527   0.478 -0.0271  0.0016 -0.0612
41166SOL    HW126900   5.036   1.476   0.467  0.4793  0.4079  1.4704
41166SOL    HW226901   4.923   1.500   0.564 -0.4061  1.3477  0.2284
41167SOL     OW26902   0.291   4.917  10.653 -0.1556  0.9497  0.2319
41167SOL    HW126903   0.330   4.883  10.733 -0.2502  0.6230  0.1425
41167SOL    HW226904   0.197   4.914  10.669 -0.3551 -1.5339 -0.7934
41168SOL     OW26905   4.030   0.080   6.188 -0.0525 -0.0651  0.3443
41168SOL    HW126906   3.973   0.040   6.122 -0.5064  0.1222  0.6160
41168SOL    HW226907   4.090   0.010   6.213  0.7847  0.1386 -0.9855
41169SOL     OW26908   0.178   6.232   5.538  0.6501  0.0568  0.1820
41169SOL    HW126909   0.186   6.272   5.624 -0.4381  1.1304 -0.1900
41169SOL    HW226910   0.088   6.249   5.511  0.8621 -0.5643 -1.0282
41170SOL     OW26911   4.703   3.972   9.867  0.4992 -0.1163 -0.0334
41170SOL    HW126912   4.775   3.919   9.831 -0.3225  0.0020 -1.9610
41170SOL    HW226913   4.670   4.022   9.792 -2.0063 -0.6370  0.6397
41171SOL     OW26914   7.131   3.968   9.339  0.0019 -0.0238 -0.1576
41171SOL    HW126915   7.086   4.005   9.263 -1.4183  0.2119  0.7735
41171SOL    HW226916   7.188   4.038   9.370  0.2642  0.0248 -0.7318
41172SOL     OW26917   1.889  10.547   8.342 -0.2441 -0.3123  0.1839
41172SOL    HW126918   1.811  10.562   8.289 -0.4193 -2.6750 -0.3350
41172SOL    HW226919   1.934  10.632   8.342 -2.3164  0.8590 -0.2449
41173SOL     OW26920   1.450   2.952   2.814  0.4874  0.3786  1.0618
41173SOL    HW126921   1.433   2.957   2.908 -0.1523  2.2079  0.8913
41173SOL    HW226922   1.499   3.032   2.794 -1.6980  1.3913 -0.5865
41174SOL     OW26923   5.341   3.133   7.922  1.0115  0.4698  0.0431
41174SOL    HW126924   5.421   3.147   7.972  2.7380 -0.8212 -2.1620
41174SOL    HW226925   5.292   3.215   7.931  2.0262  0.8935  2.3291
41175SOL     OW26926   5.751   1.188   4.640  0.8862 -0.2184 -0.2798
41175SOL    HW126927   5.826   1.211   4.584  0.6358  2.1529  0.2652
41175SOL    HW226928   5.678   1.240   4.606 -0.4470 -2.1488 -0.5108
41176SOL     OW26929   9.726   7.254   6.454  0.5773  0.2426  0.3818
41176SOL    HW126930   9.659   7.284   6.516  1.5992  0.9992  1.1475
41176SOL    HW226931   9.741   7.329   6.397  0.5657 -0.0287  0.0138
41177SOL     OW26932   0.390   9.418   9.808  0.1991 -0.4254 -0.3951
41177SOL    HW126933   0.456   9.370   9.758  0.6509  0.3460 -0.5739
41177SOL    HW226934   0.395   9.382   9.897  0.9503 -0.3014 -0.3794
41178SOL     OW26935   0.852   3.427   5.693 -0.2469 -0.4949 -0.4379
41178SOL    HW126936   0.898   3.479   5.628  0.0215 -0.7107 -0.4203
41178SOL    HW226937   0.894   3.449   5.776 -2.3809  1.9396  0.1370
41179SOL     OW26938  10.689   0.225   1.432 -0.5710  0.4631 -0.2111
41179SOL    HW126939  10.689   0.224   1.528  1.6964  0.3821 -0.1562
41179SOL    HW226940  10.680   0.133   1.408  0.4266  0.3019 -0.0142
41180SOL     OW26941   1.989   1.841   0.998 -0.1306 -0.2492 -0.2942
41180SOL    HW126942   2.059   1.802   0.946  0.3904  0.3946 -0.0773
41180SOL    HW226943   2.008   1.814   1.088  0.1153  0.3283 -0.1698
41181SOL     OW26944   5.338   6.823   5.829 -0.5648 -0.1162 -0.4544
41181SOL    HW126945   5.311   6.740   5.789  2.6084 -1.3371 -0.4284
41181SOL    HW226946   5.373   6.874   5.756 -1.6529  0.8660 -0.3194
41182SOL     OW26947   6.516   4.639   0.119 -0.0681 -0.1256  0.1002
41182SOL    HW126948   6.611   4.650   0.111  0.1390 -1.9213 -0.3130
41182SOL    HW226949   6.485   4.632   0.029  0.2242 -4.9677  0.0936
41183SOL     OW26950   9.685   1.448   0.964  0.0801 -0.2035  0.1695
41183SOL    HW126951   9.653   1.507   1.033  4.5659  1.7121  1.0174
41183SOL    HW226952   9.669   1.496   0.882  0.7588  0.7534  0.5717
41184SOL     OW26953   5.437   5.549   2.009  0.3380  0.0928 -0.0312
41184SOL    HW126954   5.403   5.465   1.979 -1.3884  0.9006 -0.4562
41184SOL    HW226955   5.452   5.599   1.929  0.1390  0.6244  0.2573
41185SOL     OW26956   8.408   7.075   2.323 -0.0234 -0.4724 -0.6520
41185SOL    HW126957   8.414   7.084   2.419 -0.9792  0.5018 -0.6608
41185SOL    HW226958   8.498   7.085   2.293  0.1648  0.1959  0.0901
41186SOL     OW26959   4.329   3.921   6.800 -0.9301  0.1235 -0.1602
41186SOL    HW126960   4.342   3.889   6.710  0.3604  0.2741 -0.0428
41186SOL    HW226961   4.337   3.842   6.854  1.3401  0.4104  0.0486
41187SOL     OW26962   8.066   7.022   0.698 -0.8158  0.1266  0.2114
41187SOL    HW126963   8.098   7.109   0.674 -0.2768 -0.1729 -0.2074
41187SOL    HW226964   8.090   7.012   0.790  2.9310 -1.1421 -0.7189
41188SOL     OW26965   1.040   1.524   1.589 -0.1207 -0.1753 -0.3541
41188SOL    HW126966   1.001   1.441   1.615  1.1606 -0.1868  1.7243
41188SOL    HW226967   0.968   1.573   1.549 -1.2688 -1.6612 -0.1830
41189SOL     OW26968   0.800   4.513  10.129 -0.1741 -0.3304 -0.4341
41189SOL    HW126969   0.882   4.464  10.122  0.9470  1.5558 -1.1474
41189SOL    HW226970   0.806   4.580  10.062 -0.8636  1.8658  1.5525
41190SOL     OW26971   7.214   2.214  10.567  0.1041 -0.0874 -0.2410
41190SOL    HW126972   7.267   2.197  10.489 -0.4677 -2.0578 -0.2602
41190SOL    HW226973   7.126   2.184  10.543 -0.1664 -0.3790  1.0243
41191SOL     OW26974   2.674   4.752   5.029 -0.3417 -0.0849 -0.3581
41191SOL    HW126975   2.590   4.774   5.069 -0.1957 -0.3420  0.0946
41191SOL    HW226976   2.658   4.759   4.934 -1.3090 -1.6498 -0.3456
41192SOL     OW26977   0.773   3.028   1.201 -0.0899 -0.0050 -0.2425
41192SOL    HW126978   0.810   3.102   1.153 -1.1276  1.1914  0.7206
41192SOL    HW226979   0.691   3.008   1.156 -0.2470  0.0200  0.0279
41193SOL     OW26980  10.454   4.354   6.228 -0.1846 -0.4124 -0.0582
41193SOL    HW126981  10.489   4.335   6.315 -1.5019  0.1009  0.6084
41193SOL    HW226982  10.513   4.420   6.192  0.0623 -0.2300  0.6632
41194SOL     OW26983   9.824   5.310   7.226  0.2830  0.3705  0.0350
41194SOL    HW126984   9.824   5.286   7.319  0.8028  1.6375  0.3946
41194SOL    HW226985   9.915   5.303   7.199 -0.0221 -1.0263 -0.6871
41195SOL     OW26986   1.722   5.031   9.231  0.0354  0.1970  0.6887
41195SOL    HW126987   1.643   5.022   9.178  0.3289  0.4157  0.2081
41195SOL    HW226988   1.728   4.949   9.280  0.3291 -0.4443 -0.3935
41196SOL     OW26989   0.007   5.429   8.135  0.1198 -0.1729  0.1952
41196SOL    HW126990   0.042   5.513   8.105  0.1702 -0.1557  0.3040
41196SOL    HW226991   0.071   5.398   8.199  1.5456 -1.5591 -1.7521
41197SOL     OW26992   2.941  10.774   5.037  0.2384  0.0895 -0.1224
41197SOL    HW126993   2.966  10.866   5.047  1.3667  0.0559 -2.2611
41197SOL    HW226994   2.847  10.777   5.015  0.3681  0.7711 -0.6096
41198SOL     OW26995   6.782   5.660   3.780  0.1783 -0.4007  0.1233
41198SOL    HW126996   6.799   5.748   3.745 -1.0400 -0.1427  0.1318
41198SOL    HW226997   6.864   5.613   3.766  0.4146  0.3293 -1.1387
41199SOL     OW26998   6.451   8.001   2.323  0.1172  0.5112  0.5626
41199SOL    HW126999   6.429   7.961   2.239  2.6510  0.3154 -0.0715
41199SOL    HW227000   6.405   8.085   2.322  0.8982  0.9745 -1.4959
41200SOL     OW27001   9.082   4.868   7.903  0.3444  0.0015 -0.7262
41200SOL    HW127002   9.113   4.810   7.973 -0.6262  0.4553  0.1157
41200SOL    HW227003   9.049   4.945   7.950  0.0718  0.5038 -1.7257
41201SOL     OW27004  10.400   2.938   6.883  0.5085  1.0138 -0.4276
41201SOL    HW127005  10.336   3.008   6.896 -1.1119 -0.5006  0.0994
41201SOL    HW227006  10.358   2.878   6.822  1.5674  0.1484 -0.3272
41202SOL     OW27007   9.881   1.006   2.949 -0.1857 -0.2525  0.1344
41202SOL    HW127008   9.870   0.928   2.895  1.2635  0.0254 -0.6100
41202SOL    HW227009   9.976   1.016   2.958 -0.3709  0.5400  1.5251
41203SOL     OW27010   1.903   3.231   0.510 -0.7209  0.1736  0.5213
41203SOL    HW127011   1.971   3.283   0.552  0.6856 -0.0246 -1.4013
41203SOL    HW227012   1.948   3.154   0.476 -2.0216 -0.3062 -0.2217
41204SOL     OW27013   4.385   3.370   0.732  0.4557 -0.8121  0.1626
41204SOL    HW127014   4.458   3.412   0.687 -0.2324 -0.8933 -1.0693
41204SOL    HW227015   4.421   3.345   0.817  1.7377 -0.4565 -0.2482
41205SOL     OW27016   5.601   5.270  10.440  0.3600  0.5651  0.0542
41205SOL    HW127017   5.545   5.275  10.517  0.6584  1.6026  0.2215
41205SOL    HW227018   5.613   5.176  10.424 -2.0539  0.2741 -0.4508
41206SOL     OW27019   2.313   0.872   0.434 -0.1877 -0.4740 -0.0812
41206SOL    HW127020   2.352   0.943   0.485 -2.5011  0.6483  0.2457
41206SOL    HW227021   2.314   0.796   0.492  0.5147 -0.1931  0.2827
41207SOL     OW27022   0.084   9.102  10.566 -0.0855  0.3845 -0.0476
41207SOL    HW127023   0.023   9.151  10.512 -1.7934 -1.4450  0.0911
41207SOL    HW227024   0.060   9.123  10.656 -0.0111  0.2365  0.0069
41208SOL     OW27025   9.673   0.923   6.511  0.1715  0.4395 -0.2935
41208SOL    HW127026   9.732   0.953   6.580 -1.2520 -1.7556  2.0090
41208SOL    HW227027   9.730   0.882   6.446  1.3135 -0.3370  1.1693
41209SOL     OW27028   8.214   6.749   4.205 -0.0115 -0.3084 -0.5020
41209SOL    HW127029   8.218   6.705   4.120  2.0546 -1.3197  0.0486
41209SOL    HW227030   8.121   6.760   4.222 -0.4962 -1.2329 -2.3231
41210SOL     OW27031   4.099   9.413   4.290 -0.6737  0.2485 -0.6107
41210SOL    HW127032   4.046   9.348   4.243 -1.7996 -0.5073  1.5842
41210SOL    HW227033   4.063   9.415   4.378  2.2764  0.5246  0.7178
41211SOL     OW27034   5.042   5.294   0.517  0.2816  0.3777  1.1788
41211SOL    HW127035   5.118   5.282   0.573  2.8419 -0.5007 -2.1745
41211SOL    HW227036   5.013   5.205   0.496 -0.0841  0.6516  0.4832
41212SOL     OW27037   8.717  10.918   1.736 -0.3164 -0.1709 -0.4429
41212SOL    HW127038   8.663  10.890   1.662 -0.0782  0.1853 -0.7590
41212SOL    HW227039   8.744  11.007   1.713 -0.5401  0.0734  0.2480
41213SOL     OW27040   8.439   7.931   4.757  0.7575 -0.0602 -0.2759
41213SOL    HW127041   8.395   7.850   4.782  3.2995 -1.0803  1.3200
41213SOL    HW227042   8.457   7.920   4.663  4.7866 -3.5338  0.5891
41214SOL     OW27043   4.094   0.880   6.072  0.2724  0.3839 -0.1168
41214SOL    HW127044   4.089   0.911   6.163  0.0044 -0.1346  0.0497
41214SOL    HW227045   4.087   0.785   6.079 -0.7044  0.3960 -0.7510
41215SOL     OW27046   9.020   8.505  10.766  0.6668 -0.3794  0.3859
41215SOL    HW127047   9.072   8.580  10.737  1.5646 -0.4031  1.8529
41215SOL    HW227048   8.944   8.544  10.809 -0.0505 -0.3424 -0.8799
41216SOL     OW27049   8.232   3.291   7.370 -0.1479  0.1039  0.4449
41216SOL    HW127050   8.300   3.348   7.333 -0.3424  1.9087  2.6249
41216SOL    HW227051   8.165   3.286   7.301  0.3285  1.7579 -0.1855
41217SOL     OW27052   5.590   7.239   2.436 -0.4118 -0.1064  0.2724
41217SOL    HW127053   5.513   7.218   2.383  1.5204 -1.1139 -2.3426
41217SOL    HW227054   5.619   7.154   2.470  0.8349 -0.0955 -0.7099
41218SOL     OW27055   0.174   6.027   4.639  0.4315  0.0032  0.4925
41218SOL    HW127056   0.175   6.122   4.641  3.9579  0.1709 -1.1667
41218SOL    HW227057   0.192   6.004   4.548  2.2636 -2.1395  1.2872
41219SOL     OW27058   4.264   2.837   4.446  0.5229 -0.2704  0.4474
41219SOL    HW127059   4.341   2.793   4.481  0.8844  0.6180  0.8135
41219SOL    HW227060   4.237   2.897   4.515 -1.4476 -1.6444  0.9374
41220SOL     OW27061   5.851   2.003   7.903 -0.3634  0.1089 -0.2516
41220SOL    HW127062   5.829   1.910   7.901  0.5593 -0.1428  0.4404
41220SOL    HW227063   5.769   2.047   7.923 -0.6699 -0.6109  0.1189
41221SOL     OW27064   2.366   7.883   7.108 -0.1680 -0.4895 -0.1652
41221SOL    HW127065   2.275   7.890   7.082 -0.1726 -1.0398 -0.3061
41221SOL    HW227066   2.380   7.790   7.124 -0.1190 -0.2113  1.6329
41222SOL     OW27067   7.960   0.117   9.894  0.3309 -0.1301  0.4133
41222SOL    HW127068   7.942   0.206   9.924  2.4220  0.7094 -0.6570
41222SOL    HW227069   7.951   0.121   9.799  1.4693 -0.7830  0.2598
41223SOL     OW27070   0.270   7.252   2.836 -0.6702 -0.7877 -0.2200
41223SOL    HW127071   0.179   7.255   2.805 -0.4944  0.0325 -0.6737
41223SOL    HW227072   0.265   7.204   2.919 -1.8824  1.2945  0.9879
41224SOL     OW27073   8.387   7.974   0.021 -0.4182  0.0824 -0.2787
41224SOL    HW127074   8.354   8.064   0.020 -0.4362  0.1378  1.5907
41224SOL    HW227075   8.468   7.978  -0.029 -0.8067  0.9735 -0.8696
41225SOL     OW27076   8.100   5.358   9.526  0.2102  0.2969  0.1614
41225SOL    HW127077   8.124   5.446   9.497  0.4093  0.1660 -0.0700
41225SOL    HW227078   8.035   5.373   9.596 -0.8251  0.6068 -0.8380
41226SOL     OW27079   8.880  10.755   4.926  0.1740  0.7203  0.1032
41226SOL    HW127080   8.922  10.709   4.853  0.3965  0.7148  0.2329
41226SOL    HW227081   8.875  10.690   4.996 -0.1661  0.6833  0.0498
41227SOL     OW27082   5.593   6.788   8.669 -0.2078  0.2421  0.4369
41227SOL    HW127083   5.564   6.798   8.759 -2.3610  1.2000 -0.2802
41227SOL    HW227084   5.575   6.696   8.648 -0.3302  0.1842  0.7941
41228SOL     OW27085   6.017   8.515   9.366 -0.1311  0.6013 -0.0285
41228SOL    HW127086   6.108   8.544   9.372  0.2983 -0.7990  0.9559
41228SOL    HW227087   5.989   8.537   9.277  1.1374  1.1318 -0.3075
41229SOL     OW27088   5.510  10.290   4.748 -0.6717  0.3269  0.7727
41229SOL    HW127089   5.522  10.220   4.683  0.8031 -0.6464  2.0137
41229SOL    HW227090   5.585  10.349   4.733 -0.7440  0.5026  1.0951
41230SOL     OW27091   5.082  10.634   8.544  0.2987  0.1079  0.2499
41230SOL    HW127092   5.021  10.708   8.552  1.3850  1.0744 -0.1201
41230SOL    HW227093   5.090  10.600   8.633 -1.5499 -0.7044  0.1593
41231SOL     OW27094   1.636  10.062   1.168 -0.0946 -0.1100  0.7516
41231SOL    HW127095   1.672   9.983   1.128 -1.6949 -0.8954  0.8110
41231SOL    HW227096   1.569  10.092   1.106  0.8992  1.5747  0.4292
41232SOL     OW27097   7.712  10.210   5.707 -0.2406  0.0012  0.1768
41232SOL    HW127098   7.637  10.193   5.649  0.0995 -0.1473 -0.2286
41232SOL    HW227099   7.770  10.266   5.654  0.8314 -1.4461 -0.2402
41233SOL     OW27100   0.534   3.919   7.159  0.4897  0.3681 -0.0232
41233SOL    HW127101   0.480   3.994   7.133  0.4083 -0.1506 -1.4185
41233SOL    HW227102   0.479   3.870   7.220  0.2778  1.0728  0.3631
41234SOL     OW27103   7.141   8.075   3.084 -0.3943  0.0394  0.0547
41234SOL    HW127104   7.204   8.141   3.111 -1.1652  0.2824  1.3472
41234SOL    HW227105   7.181   8.033   3.008  1.2116  0.3395  0.6974
41235SOL     OW27106   0.903   7.019  10.516 -0.1539  0.2517 -0.1320
41235SOL    HW127107   0.997   7.027  10.532  0.0672 -1.2933 -0.5610
41235SOL    HW227108   0.894   7.028  10.421 -0.1454 -1.9326 -0.3737
41236SOL     OW27109   5.997   7.273   1.402 -0.0906  0.4290 -0.0975
41236SOL    HW127110   5.973   7.325   1.479  0.9359 -0.3774  0.7938
41236SOL    HW227111   5.967   7.185   1.423  2.2844 -0.3143  0.4609
41237SOL     OW27112   4.467   1.645   8.283  0.0921 -0.2187  0.4985
41237SOL    HW127113   4.421   1.621   8.203  0.1960  1.0258  0.0406
41237SOL    HW227114   4.455   1.570   8.342 -2.5413  0.0744  0.4381
41238SOL     OW27115   1.240   8.297   0.068  0.0508 -0.2258  0.0687
41238SOL    HW127116   1.287   8.322   0.147 -0.5941  0.0571  0.3658
41238SOL    HW227117   1.244   8.374   0.012  0.5904 -0.4581 -0.2209
41239SOL     OW27118   4.603   6.473   9.319 -0.2409 -0.0506 -0.3138
41239SOL    HW127119   4.553   6.499   9.241  0.1861  1.8427 -0.0165
41239SOL    HW227120   4.636   6.556   9.354  1.5902 -1.0841  0.5295
41240SOL     OW27121  10.888   9.429   1.954  0.0298  0.4675 -0.4313
41240SOL    HW127122  10.981   9.422   1.931 -0.0225 -0.8566 -0.3481
41240SOL    HW227123  10.842   9.412   1.871 -0.1415  1.0953 -0.4672
41241SOL     OW27124   3.268   2.154   2.372  0.4512 -0.0169 -0.1420
41241SOL    HW127125   3.235   2.218   2.435 -0.3578  0.5114 -1.0734
41241SOL    HW227126   3.298   2.081   2.426 -2.1310 -0.4772  0.8098
41242SOL     OW27127   3.189   0.299   4.582  0.6665 -0.0826 -0.0802
41242SOL    HW127128   3.166   0.376   4.635  0.8369 -0.3973  0.4588
41242SOL    HW227129   3.109   0.279   4.533  0.4123  0.0272  0.2877
41243SOL     OW27130   9.008   6.071  10.617 -0.1300  0.4825 -0.2024
41243SOL    HW127131   8.927   6.107  10.652 -0.6391  1.0561 -1.8893
41243SOL    HW227132   9.077   6.120  10.661 -0.7393  0.9515  0.2351
41244SOL     OW27133   7.283   7.128   2.506  0.2887 -0.1385  0.0208
41244SOL    HW127134   7.240   7.144   2.422 -0.8359 -1.0250  0.4044
41244SOL    HW227135   7.330   7.209   2.524  2.1805 -0.5904 -2.3635
41245SOL     OW27136   8.034   3.195   1.305  0.4899  0.0690 -0.3896
41245SOL    HW127137   8.011   3.105   1.285  0.4522  0.2066 -0.9822
41245SOL    HW227138   7.970   3.248   1.258  1.2468  0.4262 -1.0528
41246SOL     OW27139   1.908   9.152   6.865  0.2598  0.0660 -0.1800
41246SOL    HW127140   1.928   9.097   6.941  2.1881  0.4851 -0.3207
41246SOL    HW227141   1.901   9.240   6.901 -3.1017 -0.1957  0.0869
41247SOL     OW27142   2.944   9.237   8.627  0.2066  0.3976  0.7921
41247SOL    HW127143   2.875   9.200   8.572 -1.2666  1.5572  1.7737
41247SOL    HW227144   3.007   9.166   8.638  0.8331  0.2156 -2.7150
41248SOL     OW27145   0.835   3.162   5.655  0.2851 -0.0842  0.0681
41248SOL    HW127146   0.756   3.156   5.708  1.6448  0.6685  2.3125
41248SOL    HW227147   0.848   3.255   5.639  1.5303 -0.0571  1.0806
41249SOL     OW27148   6.880   7.935   9.943 -0.4880 -0.0215  0.2678
41249SOL    HW127149   6.789   7.957   9.923 -0.8880  0.7844  2.6518
41249SOL    HW227150   6.893   7.967  10.032  2.0514 -0.4108  0.1045
41250SOL     OW27151   3.885   6.486   7.575  0.3404  0.5155  0.0883
41250SOL    HW127152   3.833   6.428   7.520 -0.2350 -0.9380  2.0509
41250SOL    HW227153   3.844   6.572   7.566  0.8289  0.5683 -2.3878
41251SOL     OW27154   8.711   9.529   0.344 -0.2190 -0.4559 -0.1014
41251SOL    HW127155   8.649   9.554   0.276 -1.6454  2.1754  1.9763
41251SOL    HW227156   8.658   9.520   0.423  1.5530 -2.0430  0.9876
41252SOL     OW27157   4.466   8.071   5.385 -0.4368  0.2106 -0.1779
41252SOL    HW127158   4.415   7.999   5.423 -0.6635  0.8986  0.8624
41252SOL    HW227159   4.548   8.072   5.436 -0.7117  1.0934  0.2784
41253SOL     OW27160   7.265   8.745   0.476 -0.2037 -0.0521  0.0782
41253SOL    HW127161   7.170   8.758   0.478  0.0067  2.0437 -0.9376
41253SOL    HW227162   7.289   8.762   0.385  1.1792 -0.4722  0.3452
41254SOL     OW27163   1.916   1.941   8.460 -0.1496 -0.0029  0.7871
41254SOL    HW127164   1.873   2.010   8.408  0.7305  1.5049  1.9621
41254SOL    HW227165   1.939   1.874   8.397  0.9536  1.7817 -0.8323
41255SOL     OW27166   0.124  10.627   1.419 -0.4357 -0.0566  0.5236
41255SOL    HW127167   0.178  10.661   1.491 -0.5002  1.4898 -0.1121
41255SOL    HW227168   0.185  10.616   1.346 -0.7971  0.8429  0.0706
41256SOL     OW27169  10.780   9.770   4.208  0.3233 -0.1481  0.3823
41256SOL    HW127170  10.740   9.731   4.130 -0.9264 -1.0731  1.4420
41256SOL    HW227171  10.789   9.863   4.186 -0.8916 -0.2197 -0.5189
41257SOL     OW27172   7.439   0.124   3.604 -0.0094  0.1223 -0.2261
41257SOL    HW127173   7.369   0.090   3.661  1.3681 -2.0635  0.2777
41257SOL    HW227174   7.398   0.130   3.518 -1.5433  1.4791  0.5330
41258SOL     OW27175   2.925   0.288   9.094 -0.6755  0.0391 -0.7699
41258SOL    HW127176   2.999   0.285   9.154 -0.3304  2.7200 -0.9202
41258SOL    HW227177   2.954   0.238   9.018  0.3094 -0.3611 -0.1464
41259SOL     OW27178   3.643  10.548   0.002  0.2053 -0.9524  0.0519
41259SOL    HW127179   3.642  10.644   0.002  0.9708 -0.7547 -3.7978
41259SOL    HW227180   3.683  10.524   0.085 -0.7428  1.9773  1.5157
41260SOL     OW27181   9.998   6.101   3.560  0.3731 -0.4033 -0.0250
41260SOL    HW127182   9.991   6.013   3.522 -1.7825 -0.4918  0.4452
41260SOL    HW227183  10.006   6.085   3.654 -0.8585 -0.1142  0.1424
41261SOL     OW27184   0.693   3.965   4.343  0.1180 -0.0765  0.1100
41261SOL    HW127185   0.630   3.972   4.272 -0.0395  0.3003  0.2847
41261SOL    HW227186   0.779   3.974   4.301 -0.0294  3.0533  0.2791
41262SOL     OW27187   8.082   3.780   1.059  0.1739  0.0405 -0.2374
41262SOL    HW127188   8.145   3.776   1.131  1.0019  0.2897 -0.9135
41262SOL    HW227189   7.996   3.776   1.100  0.6454 -1.3755  0.6495
41263SOL     OW27190   3.054   7.830   2.458 -0.5149  0.1434  0.1619
41263SOL    HW127191   3.109   7.854   2.533 -0.5997 -0.0393  0.2823
41263SOL    HW227192   2.987   7.773   2.495 -1.3520  1.1181  0.1843
41264SOL     OW27193   8.194   0.189   4.319 -0.3211 -0.5899  0.1670
41264SOL    HW127194   8.281   0.211   4.352 -0.5689 -0.5621  0.8259
41264SOL    HW227195   8.175   0.103   4.356 -0.8478 -0.2993  0.5914
41265SOL     OW27196   5.712   0.493   6.031 -0.6892 -0.4035 -0.2577
41265SOL    HW127197   5.674   0.419   6.079 -1.1251 -0.7638 -1.1226
41265SOL    HW227198   5.682   0.480   5.941  1.0154 -0.3762 -0.8548
41266SOL     OW27199   6.696   3.515   5.784 -0.3625 -0.2539  0.0133
41266SOL    HW127200   6.637   3.454   5.738  0.5913 -0.8839 -0.4015
41266SOL    HW227201   6.638   3.583   5.818 -1.2402 -0.4334 -1.0737
41267SOL     OW27202   8.296  10.096   0.602 -0.2089 -0.0186 -0.0040
41267SOL    HW127203   8.238  10.023   0.621  1.1473 -1.0804  0.2148
41267SOL    HW227204   8.334  10.120   0.686  1.1182 -0.6430 -0.3889
41268SOL     OW27205   7.279   9.145   7.661 -0.1735  0.1218 -0.1455
41268SOL    HW127206   7.274   9.058   7.701  0.5222 -0.5197 -1.4114
41268SOL    HW227207   7.230   9.137   7.579  2.4040  0.0147 -1.7702
41269SOL     OW27208   8.501   8.911   3.195 -0.4012 -0.1782  0.0092
41269SOL    HW127209   8.414   8.910   3.155 -0.1057  2.0688 -0.8218
41269SOL    HW227210   8.502   8.990   3.249  1.2642  0.1149 -0.3864
41270SOL     OW27211   5.477   7.028   6.818  0.2156 -0.0832 -0.5314
41270SOL    HW127212   5.509   7.099   6.763 -1.0211  1.0980  0.2120
41270SOL    HW227213   5.509   6.948   6.776  0.5882  0.8452 -2.0811
41271SOL     OW27214   4.319   0.104   0.468 -0.2829 -0.1334 -0.0845
41271SOL    HW127215   4.302   0.116   0.561 -1.2428  0.1700 -0.2906
41271SOL    HW227216   4.397   0.048   0.465 -0.6442 -0.7065  0.9012
41272SOL     OW27217   8.117   9.888   5.542 -0.1598 -0.3766 -0.3347
41272SOL    HW127218   8.182   9.879   5.611  0.3267  0.1198 -0.7213
41272SOL    HW227219   8.044   9.934   5.583  1.0946  2.1297 -0.7454
41273SOL     OW27220   0.849   1.634   7.875  0.3416 -0.2726 -0.0838
41273SOL    HW127221   0.818   1.724   7.879  0.4592 -0.2497  0.4229
41273SOL    HW227222   0.859   1.616   7.782  0.5732  0.3243 -0.1794
41274SOL     OW27223   8.785   1.017   5.752 -0.2786  0.3136  0.1808
41274SOL    HW127224   8.846   0.946   5.771  0.2668  1.3105  2.6301
41274SOL    HW227225   8.775   1.016   5.657  2.7819 -0.5282 -0.2507
41275SOL     OW27226   1.820   6.652   2.131 -0.0726 -0.1668  0.8644
41275SOL    HW127227   1.883   6.673   2.062  0.1505 -0.9782  0.8078
41275SOL    HW227228   1.820   6.557   2.135  1.2150 -0.1340  3.1660
41276SOL     OW27229  10.328   5.579   4.429 -0.2920  0.0161 -0.4567
41276SOL    HW127230  10.297   5.564   4.518 -0.0383  0.2319 -0.3322
41276SOL    HW227231  10.417   5.543   4.427 -1.0206 -1.8776 -1.2001
41277SOL     OW27232   2.690   8.744  10.732 -0.7639  0.0640  0.6264
41277SOL    HW127233   2.674   8.816  10.670 -1.4259 -1.4048 -1.0040
41277SOL    HW227234   2.741   8.680  10.682 -0.0608 -0.5687  2.0789
41278SOL     OW27235   9.652   7.828   9.481  0.0921 -0.1395 -0.1624
41278SOL    HW127236   9.623   7.777   9.406  0.8718  0.9990 -1.2686
41278SOL    HW227237   9.713   7.771   9.527  0.0879 -0.6105 -0.7415
41279SOL     OW27238   2.368   4.356   0.178  0.1736 -0.0327 -0.2716
41279SOL    HW127239   2.296   4.359   0.116 -0.4920  0.1178  0.4901
41279SOL    HW227240   2.390   4.449   0.192  0.4316 -0.0731 -0.4030
41280SOL     OW27241   0.580   9.683   7.327 -0.1187 -0.3447  0.6781
41280SOL    HW127242   0.596   9.744   7.255 -1.6927 -0.7078 -0.0130
41280SOL    HW227243   0.520   9.618   7.291  0.7851 -1.7963  1.6767
41281SOL     OW27244   9.522   3.235   5.289  0.2793  0.1678  0.4724
41281SOL    HW127245   9.616   3.228   5.307 -0.0320 -1.4199  1.5929
41281SOL    HW227246   9.481   3.242   5.375 -0.5113  3.6106 -0.0382
41282SOL     OW27247   5.056   7.443   3.888  0.4719 -0.0537 -0.1256
41282SOL    HW127248   5.057   7.537   3.908 -1.8510  0.4540 -1.9100
41282SOL    HW227249   5.109   7.435   3.809  0.1511 -0.1404 -0.3323
41283SOL     OW27250   4.196   8.882   3.089 -0.3343 -0.1673  0.3316
41283SOL    HW127251   4.137   8.957   3.079  0.0237 -0.0706 -1.5693
41283SOL    HW227252   4.244   8.899   3.170  0.1853  2.0091 -0.3735
41284SOL     OW27253   4.942   3.479   7.692  0.1728  0.1268 -0.0322
41284SOL    HW127254   4.979   3.561   7.658 -0.4948  0.4638  0.0458
41284SOL    HW227255   4.851   3.500   7.711 -0.3180 -0.9356 -1.0776
41285SOL     OW27256   1.251   4.961   6.534  0.4123 -0.0787  0.2428
41285SOL    HW127257   1.253   4.973   6.629 -0.4402 -0.8028  0.3723
41285SOL    HW227258   1.289   5.041   6.498  4.5990 -1.4071  1.2365
41286SOL     OW27259   4.815   4.359   9.638  0.3790 -0.1545 -0.1449
41286SOL    HW127260   4.853   4.272   9.630 -1.8498 -1.7835  4.0057
41286SOL    HW227261   4.875   4.406   9.696 -0.3815 -0.3935  0.8711
41287SOL     OW27262   4.235   5.786   1.979  0.4238  0.5417  0.5285
41287SOL    HW127263   4.152   5.741   1.962  0.0992  1.1439  0.4644
41287SOL    HW227264   4.292   5.719   2.016  0.0408  0.0213  0.1913
41288SOL     OW27265   7.209   0.212   0.266  0.3546 -0.2181 -0.7519
41288SOL    HW127266   7.273   0.272   0.306  0.6136 -2.0018  1.7205
41288SOL    HW227267   7.131   0.266   0.253  0.0619  0.4559  2.8027
41289SOL     OW27268   1.698   4.742   0.284 -0.2491  0.1273  0.0332
41289SOL    HW127269   1.749   4.768   0.360 -0.6313  0.9460  0.0251
41289SOL    HW227270   1.611   4.721   0.319 -0.2464 -0.1147 -0.0999
41290SOL     OW27271   2.057  10.091   1.837  0.0227  0.5022  0.8120
41290SOL    HW127272   2.033  10.050   1.920 -1.8513  0.0421  0.0863
41290SOL    HW227273   2.071  10.017   1.778  1.8464  0.8062  0.7958
41291SOL     OW27274   3.468   6.232   6.217 -0.0461 -0.0274 -0.2570
41291SOL    HW127275   3.511   6.172   6.278  0.7158  2.1229  1.4279
41291SOL    HW227276   3.532   6.246   6.147  1.3826  1.7277  1.3036
41292SOL     OW27277   7.642   7.460   2.095 -0.1622 -0.5853 -0.2416
41292SOL    HW127278   7.600   7.506   2.168 -2.4583 -1.5687 -0.8610
41292SOL    HW227279   7.703   7.523   2.058 -0.1499  0.4856  1.4961
41293SOL     OW27280   5.229   0.267   2.097  0.4944  0.1590  0.0815
41293SOL    HW127281   5.184   0.237   2.018  2.2780 -0.6891 -0.6654
41293SOL    HW227282   5.242   0.188   2.149  0.1275  0.5815  0.8479
41294SOL     OW27283   5.968   9.136   9.198 -0.0585 -0.0489  0.0903
41294SOL    HW127284   5.916   9.144   9.118  0.3872 -0.0836 -0.2045
41294SOL    HW227285   6.023   9.214   9.199 -0.6189  0.3524  0.7737
41295SOL     OW27286   8.134   2.530   2.279 -0.4158 -0.4169  0.3475
41295SOL    HW127287   8.048   2.495   2.258 -0.6457  0.5421 -0.3639
41295SOL    HW227288   8.141   2.611   2.228  0.3418  0.2591  1.4689
41296SOL     OW27289   0.131   5.144   0.399  0.0691  0.3799  0.3360
41296SOL    HW127290   0.057   5.101   0.357  1.3090 -2.2861  0.6998
41296SOL    HW227291   0.186   5.173   0.327  0.5444 -1.1553  0.0508
41297SOL     OW27292   2.313   2.852   5.284  0.3030  0.5043 -0.5398
41297SOL    HW127293   2.348   2.786   5.343  1.7743  2.1330  0.4982
41297SOL    HW227294   2.342   2.825   5.197  0.4478 -0.4647 -0.1982
41298SOL     OW27295  10.127   5.564   5.964  0.2234 -0.4297 -0.4857
41298SOL    HW127296  10.221   5.579   5.971  0.2616 -0.0810 -1.5607
41298SOL    HW227297  10.113   5.478   6.004  1.0109 -0.5207 -0.4019
41299SOL     OW27298   8.414   9.022   9.117 -0.2554 -0.0321 -0.3502
41299SOL    HW127299   8.384   9.005   9.028 -0.6868 -1.0781 -0.0171
41299SOL    HW227300   8.333   9.034   9.167 -0.0038  1.4875 -0.2587
41300SOL     OW27301   3.850   9.525   6.327 -0.6274  0.0362 -0.4560
41300SOL    HW127302   3.888   9.460   6.267 -1.9301 -1.0289 -0.1697
41300SOL    HW227303   3.885   9.501   6.413 -0.4286  0.2466 -0.4786
41301SOL     OW27304   7.123   6.818   2.472  0.0334 -0.5046 -0.3692
41301SOL    HW127305   7.186   6.838   2.403  0.5874 -1.8113 -0.2498
41301SOL    HW227306   7.111   6.902   2.518  1.6728 -0.2244 -0.3889
41302SOL     OW27307   4.714   5.274  10.721  0.2936 -0.4823 -0.0628
41302SOL    HW127308   4.712   5.343  10.655 -0.0867  0.5215  0.9782
41302SOL    HW227309   4.802   5.237  10.714  1.2181  1.4857  0.7536
41303SOL     OW27310   3.448   6.041  10.482 -0.0345  0.3735  0.3555
41303SOL    HW127311   3.478   6.022  10.570  0.6155 -1.3375 -0.1953
41303SOL    HW227312   3.358   6.072  10.493 -0.0903 -0.1940  1.5831
41304SOL     OW27313   5.467   0.841   2.489  0.3471  0.5467 -0.0506
41304SOL    HW127314   5.434   0.753   2.468 -2.0647  1.6130 -1.0067
41304SOL    HW227315   5.534   0.825   2.556 -0.7661 -1.9243  0.5955
41305SOL     OW27316   9.975   6.376   0.344  0.1836  0.6281 -0.0924
41305SOL    HW127317   9.894   6.348   0.302 -0.2906  1.1534  0.4513
41305SOL    HW227318  10.042   6.318   0.308 -0.7819 -1.3260  1.1274
41306SOL     OW27319   2.671   5.235   3.929 -0.4513 -0.3145  0.0316
41306SOL    HW127320   2.766   5.224   3.919 -0.4555 -0.3965  0.0830
41306SOL    HW227321   2.646   5.290   3.855 -0.7839 -2.5072 -1.6296
41307SOL     OW27322   8.956   9.969   5.235  0.0443 -0.1860 -0.6908
41307SOL    HW127323   9.026  10.013   5.187  0.3680 -0.7895 -0.7871
41307SOL    HW227324   9.001   9.914   5.299 -0.3098 -0.9542 -1.0785
41308SOL     OW27325   2.385   1.993   8.155 -0.2172 -0.0841 -0.0246
41308SOL    HW127326   2.344   1.914   8.192 -2.8942  0.6129 -1.2312
41308SOL    HW227327   2.338   2.007   8.073  2.9876  0.4972 -1.9301
41309SOL     OW27328   6.938   4.629   1.801 -0.3116 -1.1491 -0.1591
41309SOL    HW127329   6.968   4.597   1.886  0.5229 -2.6956 -1.0085
41309SOL    HW227330   6.862   4.684   1.822  0.7939 -0.2246  1.6978
41310SOL     OW27331  10.825   5.747   2.873  0.5547  0.2796 -0.0253
41310SOL    HW127332  10.868   5.725   2.791  1.5605 -0.9161  0.7693
41310SOL    HW227333  10.828   5.842   2.878  1.6171  0.2945 -0.7751
41311SOL     OW27334   3.411   1.188   1.256  0.0585 -0.0878 -0.4707
41311SOL    HW127335   3.429   1.219   1.344  1.6718 -0.8018 -0.5207
41311SOL    HW227336   3.317   1.169   1.256  0.0875 -0.3649  1.1806
41312SOL     OW27337   3.516   4.252   0.028 -0.5334 -0.4399 -0.0652
41312SOL    HW127338   3.457   4.239   0.102 -0.3135  2.1093  0.6427
41312SOL    HW227339   3.486   4.189  -0.037 -1.3373 -2.1165  1.7977
41313SOL     OW27340   6.079   9.706   5.841 -0.5197  0.3529 -0.1391
41313SOL    HW127341   6.116   9.698   5.929 -1.2158 -1.3154  0.0431
41313SOL    HW227342   6.131   9.647   5.788 -1.4748 -0.3059 -0.3624
41314SOL     OW27343   0.389  10.555   1.515  0.1496  0.5560  0.3213
41314SOL    HW127344   0.327  10.619   1.551  0.2398  0.2691  1.0030
41314SOL    HW227345   0.338  10.473   1.509  0.0581  0.6600 -0.4675
41315SOL     OW27346   9.001   1.661   9.080  0.1696 -0.0159  0.3863
41315SOL    HW127347   9.088   1.665   9.041  0.1497 -0.1324  0.3298
41315SOL    HW227348   8.941   1.669   9.006  0.1305 -0.3797  0.3795
41316SOL     OW27349  10.251  10.411   2.404  0.0553 -0.0323 -0.4907
41316SOL    HW127350  10.222  10.456   2.324 -1.6162  0.7894  0.5342
41316SOL    HW227351  10.282  10.326   2.373  1.6241  1.0815 -2.2736
41317SOL     OW27352   3.573   6.434   5.729  0.6540  0.1883  0.3201
41317SOL    HW127353   3.587   6.340   5.723  0.1816  0.0966  0.6171
41317SOL    HW227354   3.661   6.472   5.733  0.8523 -0.3946  2.6877
41318SOL     OW27355   6.116   4.472   9.838  0.2522  0.4040  0.4903
41318SOL    HW127356   6.125   4.495   9.930  0.0066 -0.9862  0.8863
41318SOL    HW227357   6.173   4.534   9.792  1.1227  0.5045  1.6668
41319SOL     OW27358   4.397   1.284   3.847 -0.1709  0.4652 -0.3131
41319SOL    HW127359   4.353   1.369   3.841 -0.2895  0.3656 -0.9918
41319SOL    HW227360   4.490   1.304   3.836 -0.0346  0.6666  1.0402
41320SOL     OW27361   8.359   0.425  10.769  0.5007 -0.1072 -0.2132
41320SOL    HW127362   8.422   0.469  10.825  0.9832  0.2787 -1.0367
41320SOL    HW227363   8.275   0.468  10.789  0.5781 -0.3026  0.5443
41321SOL     OW27364   5.655  10.087   2.494  0.6865 -0.2076 -0.6956
41321SOL    HW127365   5.653  10.121   2.405 -2.7760  2.7742  0.2887
41321SOL    HW227366   5.632  10.162   2.549  2.8497 -1.8326  2.8416
41322SOL     OW27367   8.168   0.524   9.803  0.0400  0.9328  0.2825
41322SOL    HW127368   8.195   0.614   9.788  2.0745  0.3543  0.0478
41322SOL    HW227369   8.215   0.497   9.882  0.2221 -0.1669 -0.1659
41323SOL     OW27370   9.633   3.129   6.098  0.0111  0.3634 -0.2832
41323SOL    HW127371   9.622   3.092   6.011 -0.3825  3.0331 -1.4697
41323SOL    HW227372   9.554   3.182   6.112  0.3909  0.5564  1.4081
41324SOL     OW27373   7.318   9.423   8.498 -0.6222 -0.2626 -0.7506
41324SOL    HW127374   7.231   9.383   8.506 -0.4588 -0.9349 -2.0427
41324SOL    HW227375   7.301   9.512   8.467 -0.8756 -0.1722 -0.3582
41325SOL     OW27376   9.258   3.759   3.044 -0.3498  0.4464  0.2092
41325SOL    HW127377   9.244   3.696   3.115  1.0081  2.6465  2.6218
41325SOL    HW227378   9.349   3.746   3.018 -0.6747  0.0464 -0.7579
41326SOL     OW27379   4.187   4.691   5.264 -0.5189 -0.3263  0.5308
41326SOL    HW127380   4.240   4.759   5.224  0.1375 -1.0393  0.1603
41326SOL    HW227381   4.111   4.683   5.206  0.0747 -0.8512 -0.2076
41327SOL     OW27382   8.286   0.728   5.409  0.4173 -0.1606  0.5379
41327SOL    HW127383   8.245   0.642   5.418  2.9922 -1.3258  2.6892
41327SOL    HW227384   8.352   0.716   5.340  0.6104  0.1662  0.6620
41328SOL     OW27385   3.211  10.718   2.494 -0.2357 -0.2066 -0.3640
41328SOL    HW127386   3.134  10.745   2.443  0.2429  1.3748 -0.3093
41328SOL    HW227387   3.227  10.791   2.553  1.5990 -0.2906 -0.7129
41329SOL     OW27388   6.141   7.480   9.190  0.0879 -0.1609 -0.4044
41329SOL    HW127389   6.226   7.479   9.234  1.1691 -0.9135 -2.3617
41329SOL    HW227390   6.081   7.440   9.253  1.4573 -0.8286  0.5382
41330SOL     OW27391   2.336   3.127  10.213 -0.4107 -0.0326 -0.4732
41330SOL    HW127392   2.368   3.071  10.284 -0.2584 -0.2381 -0.7027
41330SOL    HW227393   2.241   3.114  10.213 -0.4502  0.2458 -0.0721
41331SOL     OW27394   8.605   9.881   1.486 -0.1498  0.0517 -0.0023
41331SOL    HW127395   8.545   9.821   1.531 -1.3758  1.0249 -0.2902
41331SOL    HW227396   8.692   9.850   1.510 -0.7656 -1.1096  0.8254
41332SOL     OW27397   9.858   0.421   5.712  0.2370 -0.0950 -0.6753
41332SOL    HW127398   9.897   0.393   5.629  1.0430 -4.6158  0.9351
41332SOL    HW227399   9.933   0.436   5.769 -0.2887 -0.9489  0.2685
41333SOL     OW27400   3.413   1.451   6.228 -0.5272 -0.0535 -0.2632
41333SOL    HW127401   3.497   1.439   6.183  0.7248 -1.3552  2.2211
41333SOL    HW227402   3.432   1.431   6.320 -3.1961  1.3192  0.6907
41334SOL     OW27403   4.200   7.280   9.736  0.6346 -0.1069  0.4006
41334SOL    HW127404   4.127   7.286   9.674  1.3101 -1.2695 -0.5597
41334SOL    HW227405   4.164   7.229   9.809  0.4549 -0.6360 -0.0460
41335SOL     OW27406   2.616   1.455   3.485 -0.0658 -0.0313  0.1472
41335SOL    HW127407   2.578   1.454   3.572 -1.9686 -0.8731 -0.6459
41335SOL    HW227408   2.589   1.539   3.448  0.0110 -0.0474  0.0533
41336SOL     OW27409   9.979  10.739   3.065 -0.2861 -0.0363 -0.4196
41336SOL    HW127410   9.951  10.721   2.976  1.4209 -0.8880 -0.8264
41336SOL    HW227411  10.024  10.824   3.060  1.0471 -0.7347 -0.6863
41337SOL     OW27412   9.030  10.413   1.132 -0.1063 -0.3252 -0.1499
41337SOL    HW127413   9.016  10.324   1.101 -0.4291 -0.5287  0.5781
41337SOL    HW227414   9.094  10.405   1.203 -0.5072 -0.0420  0.2516
41338SOL     OW27415   8.271   1.146   0.440  0.5946  0.0328 -0.4041
41338SOL    HW127416   8.367   1.155   0.438  0.4519  1.8907 -0.5179
41338SOL    HW227417   8.251   1.132   0.533  1.0876 -2.6880 -0.6147
41339SOL     OW27418   2.384   4.116   1.668  0.2249  0.1702 -0.2101
41339SOL    HW127419   2.411   4.197   1.626  0.4804  1.5021  2.2963
41339SOL    HW227420   2.416   4.125   1.758  0.1509 -2.6802  0.1730
41340SOL     OW27421   6.203   4.730   8.452 -0.3209 -0.0220  0.2199
41340SOL    HW127422   6.137   4.667   8.423 -0.7373 -0.0874  1.2557
41340SOL    HW227423   6.271   4.676   8.492 -0.8221  0.1854  1.3849
41341SOL     OW27424   6.007   3.798   5.097 -0.2122 -0.0660 -0.1769
41341SOL    HW127425   6.066   3.748   5.153  0.7253  1.9916  0.7866
41341SOL    HW227426   5.993   3.880   5.144 -0.8983  1.0014 -2.1118
41342SOL     OW27427   6.888   3.216   5.756 -0.2113  0.1919  0.1465
41342SOL    HW127428   6.898   3.311   5.746 -1.0420  0.1653 -1.3083
41342SOL    HW227429   6.958   3.190   5.815  0.0108  1.7160  0.5924
41343SOL     OW27430   6.905   1.144   2.367  0.2231 -0.2968 -0.0502
41343SOL    HW127431   6.851   1.181   2.297  0.6004  2.0071  0.7738
41343SOL    HW227432   6.904   1.050   2.352 -4.6119 -0.5485  0.3015
41344SOL     OW27433   8.919   0.975   0.746 -0.1496  0.0452  0.0492
41344SOL    HW127434   8.957   1.062   0.736 -2.7865  1.4887  1.5530
41344SOL    HW227435   8.841   0.975   0.691 -1.1301 -0.7341  1.3769
41345SOL     OW27436   2.646   9.530   7.374  0.4308  0.0968  0.3898
41345SOL    HW127437   2.733   9.500   7.401 -0.4347 -1.1294  2.0095
41345SOL    HW227438   2.630   9.608   7.427  1.2758  1.4943 -1.3157
41346SOL     OW27439   2.403   5.704   3.132 -0.1706 -0.9822  0.5005
41346SOL    HW127440   2.440   5.673   3.214 -0.0415  0.3390  0.9655
41346SOL    HW227441   2.338   5.638   3.108 -0.7433 -1.0074  2.0547
41347SOL     OW27442   8.658   9.676   4.687 -0.1873 -0.3599 -0.4784
41347SOL    HW127443   8.583   9.692   4.630 -0.6095 -0.2714  0.0991
41347SOL    HW227444   8.688   9.589   4.662  1.0490  0.5508 -2.4197
41348SOL     OW27445   3.630   7.277   8.312  0.0701  0.3333  0.1100
41348SOL    HW127446   3.583   7.195   8.325 -0.1317  0.3662 -0.3695
41348SOL    HW227447   3.563   7.344   8.318  0.3275  0.5179  1.0916
41349SOL     OW27448  10.585   4.291   6.452  0.2747  0.2043 -0.2254
41349SOL    HW127449  10.660   4.297   6.511 -0.7891  1.0948  1.0865
41349SOL    HW227450  10.517   4.246   6.503  0.4162 -2.1682 -1.9722
41350SOL     OW27451   3.786   4.839  10.217 -0.3592 -0.1721 -0.2041
41350SOL    HW127452   3.857   4.850  10.154  0.3500  0.7965  0.7231
41350SOL    HW227453   3.758   4.928  10.237 -2.0908 -0.5423 -0.7887
41351SOL     OW27454   7.717   0.701   5.961 -0.3913  0.0269 -0.2093
41351SOL    HW127455   7.747   0.698   6.051  0.3797 -0.7294 -0.4771
41351SOL    HW227456   7.694   0.610   5.940 -0.7208  0.2207 -0.7192
41352SOL     OW27457   2.415   9.919   3.555  0.3764 -0.3328 -0.5238
41352SOL    HW127458   2.348   9.875   3.504  0.6205 -1.2799 -0.0369
41352SOL    HW227459   2.381  10.008   3.568  0.9775  0.5039 -3.6628
41353SOL     OW27460  10.290  10.261   0.069  0.0841 -0.2119  0.3585
41353SOL    HW127461  10.278  10.355   0.056  1.5212  0.4762  3.2358
41353SOL    HW227462  10.209  10.231   0.110 -0.0085 -0.0301  0.3067
41354SOL     OW27463   5.272  10.798   8.814  0.5446  0.4490 -0.2444
41354SOL    HW127464   5.257  10.809   8.908 -1.0676 -1.4814 -0.2108
41354SOL    HW227465   5.343  10.859   8.794 -1.2680  3.3510  1.5430
41355SOL     OW27466   4.543   5.599   4.673  0.8274 -0.4932  0.0503
41355SOL    HW127467   4.450   5.577   4.678  0.2780  1.4080 -0.9436
41355SOL    HW227468   4.584   5.521   4.638 -0.5638 -0.9921 -0.5506
41356SOL     OW27469   8.927  10.562   5.127 -0.1270  0.3647 -0.0599
41356SOL    HW127470   8.995  10.494   5.136  1.3653  1.5474 -1.6764
41356SOL    HW227471   8.890  10.570   5.215  0.8355 -1.3392  0.5542
41357SOL     OW27472   2.257   6.003  10.592  0.4865  0.0571  0.2824
41357SOL    HW127473   2.183   5.944  10.575 -0.1722  0.5506  1.3276
41357SOL    HW227474   2.311   5.997  10.513 -1.6423  1.1763 -1.3436
41358SOL     OW27475   8.977  10.647   1.353 -1.0387  0.1144 -0.2532
41358SOL    HW127476   9.045  10.701   1.394 -1.6737  1.0592 -0.4279
41358SOL    HW227477   8.998  10.649   1.260  0.3870 -2.0126 -0.0524
41359SOL     OW27478   2.754  10.916   9.287  0.2119 -0.0020 -1.0223
41359SOL    HW127479   2.849  10.923   9.297  0.3591 -0.6504 -1.8503
41359SOL    HW227480   2.725  11.005   9.266  0.5022  0.3918  0.1549
41360SOL     OW27481   3.024   7.485   6.780  0.2531  0.3572 -0.2380
41360SOL    HW127482   3.037   7.397   6.747 -0.0680  0.7993 -1.6188
41360SOL    HW227483   3.096   7.499   6.841 -2.0339 -2.4043  3.5059
41361SOL     OW27484   0.488   2.394   8.380 -0.1605 -0.0513 -0.1243
41361SOL    HW127485   0.572   2.397   8.334 -1.8039 -0.6233 -3.4616
41361SOL    HW227486   0.459   2.303   8.372 -1.6140  0.3770 -0.0526
41362SOL     OW27487   7.126   2.388   5.469  0.0589  0.0231 -0.4577
41362SOL    HW127488   7.061   2.343   5.415 -0.6445  0.6018 -0.1101
41362SOL    HW227489   7.077   2.415   5.547  1.0792 -0.9178  0.5567
41363SOL     OW27490   1.869   4.957   8.924  0.3272 -0.1532  0.1769
41363SOL    HW127491   1.857   5.034   8.980  0.1291  1.1901 -1.6273
41363SOL    HW227492   1.960   4.960   8.897  0.4210 -0.7984  0.3854
41364SOL     OW27493   4.673   6.719   9.957  0.4645  0.0084  0.0675
41364SOL    HW127494   4.610   6.741   9.888  0.2165  0.7404  0.5100
41364SOL    HW227495   4.644   6.634   9.989  0.7571 -0.4846 -0.9148
41365SOL     OW27496   3.888   2.136   6.623 -0.0710  0.0715  0.1942
41365SOL    HW127497   3.970   2.172   6.590  0.3539 -1.0008  0.0498
41365SOL    HW227498   3.871   2.183   6.704  0.8690  0.0662  0.4040
41366SOL     OW27499   9.871  10.496   6.235  0.1280 -0.4553 -0.0425
41366SOL    HW127500   9.876  10.427   6.169  3.7039  0.5267 -0.9827
41366SOL    HW227501   9.849  10.575   6.186 -1.4644 -0.4208  0.6652
41367SOL     OW27502   8.280   3.002   4.184 -0.4849  0.8637  0.5221
41367SOL    HW127503   8.282   2.990   4.089  2.2265  3.1011  0.1789
41367SOL    HW227504   8.219   3.074   4.197 -0.4308  0.9275  0.4249
41368SOL     OW27505   1.686   3.446   1.186 -0.1638  0.0369 -0.2584
41368SOL    HW127506   1.735   3.485   1.258  0.6452  0.2853 -0.9361
41368SOL    HW227507   1.604   3.496   1.183 -0.5697 -0.5066  0.9998
41369SOL     OW27508   4.181   8.614   3.805  0.3687  0.2172 -0.2023
41369SOL    HW127509   4.182   8.531   3.853  1.1479 -0.0986 -0.7371
41369SOL    HW227510   4.259   8.660   3.837 -0.4229  1.0385  0.5802
41370SOL     OW27511  10.534   4.441   0.704  0.3195  0.0060  0.2197
41370SOL    HW127512  10.585   4.396   0.771 -0.9674 -1.1267  0.4852
41370SOL    HW227513  10.564   4.532   0.708  1.1103 -0.2871  1.4989
41371SOL     OW27514   1.851   5.367   1.518  0.1013 -0.5751  0.1342
41371SOL    HW127515   1.820   5.380   1.428 -0.2758  1.3099  0.4982
41371SOL    HW227516   1.808   5.287   1.546 -2.0748  0.3180 -0.4308
41372SOL     OW27517   1.950   4.957  10.039  0.0434 -0.4084 -0.5118
41372SOL    HW127518   1.999   4.923   9.964 -1.0571  0.6230 -1.7443
41372SOL    HW227519   1.965   5.052  10.036  1.5632 -0.4696  1.7655
41373SOL     OW27520   6.881  10.499   0.037  0.6001 -0.5143 -0.1619
41373SOL    HW127521   6.936  10.575   0.025 -0.2413  0.0810 -0.3461
41373SOL    HW227522   6.870  10.462  -0.050 -2.1027  1.4000 -0.7621
41374SOL     OW27523   9.324   4.422   1.546  0.3763 -0.3012 -0.1425
41374SOL    HW127524   9.336   4.494   1.608 -2.6073 -0.0444  0.2971
41374SOL    HW227525   9.328   4.343   1.600 -1.8342 -0.0972  0.4121
41375SOL     OW27526   4.264   2.316   5.784  0.2932 -0.2213  0.1045
41375SOL    HW127527   4.350   2.284   5.812  0.7057  1.5380  0.9568
41375SOL    HW227528   4.250   2.397   5.833  0.4762  2.4216 -3.7262
41376SOL     OW27529   4.946   5.420   5.645 -0.1200  0.1915 -0.5063
41376SOL    HW127530   4.933   5.347   5.585 -1.0991 -0.5305  0.5179
41376SOL    HW227531   4.861   5.464   5.648 -0.0016  0.3913  0.1062
41377SOL     OW27532   9.947   5.620   9.254 -0.1408 -0.1227 -0.2466
41377SOL    HW127533   9.900   5.696   9.288 -0.0312  0.1226 -0.6292
41377SOL    HW227534  10.034   5.653   9.234  0.1690 -0.5533  0.3684
41378SOL     OW27535   9.009   3.412   5.989 -0.0069 -0.2629 -0.5201
41378SOL    HW127536   9.053   3.345   6.042  0.1251 -0.6252 -1.0709
41378SOL    HW227537   9.007   3.374   5.901  0.2906  0.5642 -0.8958
41379SOL     OW27538   8.726   7.680  10.194  0.0289  0.2021 -0.0811
41379SOL    HW127539   8.672   7.614  10.238 -1.6092  0.6693 -1.2861
41379SOL    HW227540   8.745   7.745  10.262 -1.2504  0.1872  0.3168
41380SOL     OW27541   3.370   1.024   3.302 -0.6596 -0.0843  0.3520
41380SOL    HW127542   3.277   1.040   3.282 -0.9613  0.1679  1.8609
41380SOL    HW227543   3.386   1.074   3.382  1.0838  0.7531 -0.4696
41381SOL     OW27544   5.644   3.953  10.087 -0.6681 -0.0092 -0.0319
41381SOL    HW127545   5.613   3.869  10.121  1.9526 -0.3399  1.8420
41381SOL    HW227546   5.624   3.950   9.993 -2.0880 -2.0080  0.2736
41382SOL     OW27547   0.661   5.012   3.359 -0.2940 -0.9132 -0.5837
41382SOL    HW127548   0.579   4.973   3.390  1.1580 -2.7572  1.3106
41382SOL    HW227549   0.642   5.105   3.349 -2.2578 -1.0611  1.1608
41383SOL     OW27550   4.331   5.810   8.346 -0.3710  0.3881 -0.8763
41383SOL    HW127551   4.321   5.900   8.314 -0.1071  0.6591 -0.2299
41383SOL    HW227552   4.419   5.784   8.316  0.7540  1.3834  1.2832
41384SOL     OW27553   3.403   8.981   1.735  0.2173 -0.6333  0.1824
41384SOL    HW127554   3.337   8.914   1.755 -1.0024  0.0703 -1.2427
41384SOL    HW227555   3.446   8.950   1.656  1.3263 -0.8668  0.8566
41385SOL     OW27556   3.349   2.650   8.164  0.2275 -0.1024  0.0510
41385SOL    HW127557   3.355   2.691   8.078 -0.7394  0.4979  0.2413
41385SOL    HW227558   3.370   2.721   8.225  0.9847 -0.5447  0.3124
41386SOL     OW27559   1.389   7.847  10.865  0.2389 -0.4416  0.2007
41386SOL    HW127560   1.395   7.908  10.938  1.1330  0.1428 -0.3464
41386SOL    HW227561   1.396   7.901  10.786  2.5182 -1.3344 -0.2984
41387SOL     OW27562   9.757  10.858   6.350 -0.0926  0.7345  0.1301
41387SOL    HW127563   9.828  10.900   6.399  1.1652 -1.0400 -0.0824
41387SOL    HW227564   9.694  10.832   6.418  0.5595  0.3040  0.5827
41388SOL     OW27565   0.893   1.512   1.125  0.5215 -0.0455 -0.1715
41388SOL    HW127566   0.890   1.443   1.191 -2.3040  1.3646  1.3724
41388SOL    HW227567   0.910   1.466   1.043  1.2144 -2.2355  1.1139
41389SOL     OW27568   0.719   8.085   1.113 -0.0216  0.6215  0.3856
41389SOL    HW127569   0.795   8.099   1.058  0.0768  1.6852  0.7624
41389SOL    HW227570   0.655   8.041   1.057  0.7053  0.1345 -0.0607
41390SOL     OW27571   1.840   9.947   6.939  0.0155 -0.2043 -0.6017
41390SOL    HW127572   1.826  10.031   6.894  1.3121  1.1225  1.3483
41390SOL    HW227573   1.752   9.911   6.949 -1.0758  2.6583  1.6186
41391SOL     OW27574  10.252   1.765   5.015 -0.3448  0.3579 -0.2803
41391SOL    HW127575  10.221   1.856   5.019 -0.6360  0.2423  0.1506
41391SOL    HW227576  10.259   1.746   4.921  0.9617  1.2420 -0.4028
41392SOL     OW27577   0.696   3.529   6.515  0.3361 -0.0880 -0.4888
41392SOL    HW127578   0.751   3.484   6.579 -0.5402 -1.5191 -0.6942
41392SOL    HW227579   0.738   3.614   6.503  2.6735 -1.1930 -0.8299
41393SOL     OW27580   6.462   2.058   9.197  0.1202  0.2553  0.1643
41393SOL    HW127581   6.390   2.020   9.147  0.3663  0.5129 -0.4004
41393SOL    HW227582   6.478   1.996   9.268  0.7155 -0.8646 -0.9030
41394SOL     OW27583   5.471  10.440   5.703 -0.0416  0.1760 -0.7265
41394SOL    HW127584   5.565  10.436   5.684  0.0617  1.3204 -0.5023
41394SOL    HW227585   5.452  10.357   5.746  0.6168 -0.5869 -1.8416
41395SOL     OW27586  10.689  10.487   3.688 -0.2109 -0.0218  0.1847
41395SOL    HW127587  10.773  10.460   3.726 -0.1351  1.9668  1.5845
41395SOL    HW227588  10.638  10.519   3.763 -1.0910  1.5241 -1.0231
41396SOL     OW27589   7.678   0.279   8.649 -0.0089 -0.2981  0.1237
41396SOL    HW127590   7.698   0.227   8.727 -2.0849 -1.3670  0.0267
41396SOL    HW227591   7.702   0.221   8.576  1.5827  0.5569 -0.0720
41397SOL     OW27592   9.714   3.706   6.416 -0.6304 -0.1537  0.3309
41397SOL    HW127593   9.765   3.625   6.414  0.2210  0.3146  1.6046
41397SOL    HW227594   9.773   3.772   6.379 -0.2064  0.4321  1.9877
41398SOL     OW27595   3.333   7.135   8.057 -0.5440  0.9656 -0.7669
41398SOL    HW127596   3.312   7.094   8.140  0.9800  0.6832 -0.4937
41398SOL    HW227597   3.285   7.084   7.992 -0.3817  0.1138 -0.2296
41399SOL     OW27598   0.634   5.527   2.766 -0.3738 -0.0332  0.2298
41399SOL    HW127599   0.607   5.591   2.832  1.0904  0.4809  0.3802
41399SOL    HW227600   0.717   5.493   2.799  0.9319  0.9772 -1.7941
41400SOL     OW27601   0.381   4.498   9.866  0.1892 -0.1281  0.0779
41400SOL    HW127602   0.448   4.555   9.827  0.5990 -0.2819  0.5453
41400SOL    HW227603   0.307   4.556   9.883  0.3873  0.1486  0.0121
41401SOL     OW27604   3.629   0.298   7.500  0.1453 -0.6660  0.0636
41401SOL    HW127605   3.651   0.344   7.582 -1.6749  0.2346  0.0924
41401SOL    HW227606   3.563   0.234   7.526 -0.0034 -0.7869 -0.6038
41402SOL     OW27607   6.811   8.753  10.513  0.1227 -0.1176  0.0283
41402SOL    HW127608   6.820   8.700  10.434 -1.6997  0.5459 -0.6936
41402SOL    HW227609   6.846   8.698  10.583 -1.6582 -2.3388 -0.6845
41403SOL     OW27610   7.125   8.205   2.174  0.0482  0.0209 -0.2160
41403SOL    HW127611   7.141   8.123   2.127  0.3655 -0.1466  0.1862
41403SOL    HW227612   7.199   8.261   2.152  1.9292 -1.1730  2.5951
41404SOL     OW27613   4.013   0.206  10.223 -0.0105 -0.2572  0.2861
41404SOL    HW127614   4.066   0.190  10.145 -0.4615  1.7532 -0.4951
41404SOL    HW227615   3.936   0.151  10.212 -1.0223  1.4029 -1.7527
41405SOL     OW27616   7.350   8.641   0.984 -0.2846 -0.0588  0.3865
41405SOL    HW127617   7.377   8.556   1.018 -0.8602 -0.7743 -0.8853
41405SOL    HW227618   7.431   8.684   0.958  0.0192 -0.1509  1.1488
41406SOL     OW27619   1.539   8.058   1.745  0.3894  0.4793 -0.2818
41406SOL    HW127620   1.630   8.050   1.771 -0.4292  0.2646  2.9306
41406SOL    HW227621   1.489   8.025   1.820 -2.3460  0.3741 -1.9971
41407SOL     OW27622   6.703   0.277   9.709  0.3795 -0.3154 -0.1339
41407SOL    HW127623   6.790   0.257   9.741  0.6176  1.5720  0.5238
41407SOL    HW227624   6.716   0.346   9.644 -0.6901  1.0064  0.9734
41408SOL     OW27625   7.488   5.491   2.959 -0.7669  0.3641 -0.3126
41408SOL    HW127626   7.517   5.545   2.885 -0.1444  1.5918  0.7810
41408SOL    HW227627   7.457   5.554   3.024 -0.2816 -0.6096  0.9052
41409SOL     OW27628   4.732   7.290   3.624  0.5331  0.4167  0.1948
41409SOL    HW127629   4.785   7.357   3.582  0.1931  0.4172 -0.2520
41409SOL    HW227630   4.794   7.221   3.647  0.9235  0.9966  0.9070
41410SOL     OW27631   2.062   9.822   0.920 -0.1400 -0.5498 -0.0659
41410SOL    HW127632   2.058   9.748   0.980 -2.1516 -0.3632  0.1013
41410SOL    HW227633   2.111   9.789   0.844  1.9665 -0.9424  1.3714
41411SOL     OW27634  10.584   2.615   2.608 -0.3576  0.1075  0.3277
41411SOL    HW127635  10.638   2.657   2.541 -0.6415  1.2269  0.7761
41411SOL    HW227636  10.527   2.554   2.559  0.1981  0.0952 -0.3139
41412SOL     OW27637   4.009   3.912  10.677  0.4630  0.0058 -0.5964
41412SOL    HW127638   4.091   3.910  10.726  0.6249  0.0221 -0.8614
41412SOL    HW227639   4.013   3.995  10.629 -0.7665  1.1507  1.1812
41413SOL     OW27640   3.655   0.569   3.686  0.2793 -0.0864 -0.5134
41413SOL    HW127641   3.586   0.600   3.627 -0.2174  0.3828  0.2915
41413SOL    HW227642   3.608   0.516   3.751  0.4094  1.5133  0.9701
41414SOL     OW27643   8.790   0.888   6.828 -0.4905  0.0205 -0.3184
41414SOL    HW127644   8.810   0.893   6.922  1.0676  2.9548 -0.6739
41414SOL    HW227645   8.696   0.904   6.822 -0.3003  1.6753  0.6793
41415SOL     OW27646   7.242   5.180   8.943  0.7614 -0.4490  0.3444
41415SOL    HW127647   7.181   5.151   9.011 -0.8196  0.2351 -0.7303
41415SOL    HW227648   7.284   5.258   8.981  1.0086 -0.9362  1.0989
41416SOL     OW27649   0.339   0.410   5.558 -0.0510  0.0646  0.0909
41416SOL    HW127650   0.243   0.413   5.559 -0.4077 -2.5084 -3.8366
41416SOL    HW227651   0.363   0.430   5.468  3.3561  2.4148  1.3139
41417SOL     OW27652   1.568   6.207   6.291  0.5465  0.5926 -0.0219
41417SOL    HW127653   1.643   6.211   6.350 -0.2083 -1.9042  1.2424
41417SOL    HW227654   1.578   6.124   6.244 -1.9631 -0.4082  1.0382
41418SOL     OW27655   2.450   0.587   5.728  0.8039 -0.5526  0.0876
41418SOL    HW127656   2.356   0.575   5.711  0.8947  0.9463 -1.8860
41418SOL    HW227657   2.486   0.613   5.643  2.8631 -0.2305  1.0060
41419SOL     OW27658   6.703   7.724   4.396  0.0793 -0.1706  1.2034
41419SOL    HW127659   6.777   7.663   4.397 -0.6502 -1.1070  0.5860
41419SOL    HW227660   6.738   7.803   4.356  0.6821 -0.7073  0.6333
41420SOL     OW27661  10.186   4.534   4.196 -0.0461  0.4322 -0.8535
41420SOL    HW127662  10.268   4.511   4.153  0.3807 -1.0558  0.6672
41420SOL    HW227663  10.197   4.625   4.222  1.6480 -0.0816  0.3856
41421SOL     OW27664   3.161   4.409   1.582 -0.0401 -0.4101  0.1303
41421SOL    HW127665   3.252   4.401   1.553  0.6112 -1.8825  2.3281
41421SOL    HW227666   3.145   4.503   1.587  0.6481 -0.1126 -2.2509
41422SOL     OW27667   8.770   7.723   6.893  0.7589  0.3704 -0.3604
41422SOL    HW127668   8.781   7.679   6.809 -0.7363 -1.0324  0.1275
41422SOL    HW227669   8.816   7.806   6.883  2.2693 -0.5758 -1.8963
41423SOL     OW27670   9.446   7.241   6.172 -0.5420  0.2004  0.6479
41423SOL    HW127671   9.505   7.180   6.214 -1.0907 -0.0486  1.0713
41423SOL    HW227672   9.496   7.276   6.098 -0.3502 -1.0392  0.1673
41424SOL     OW27673   8.925   6.334   5.191  0.0861 -0.0887  0.0249
41424SOL    HW127674   8.839   6.376   5.192  0.3123  0.3700  1.1108
41424SOL    HW227675   8.908   6.245   5.222  0.1002  0.2131  0.9149
41425SOL     OW27676  10.772   8.647   5.180  0.4817  0.1344 -0.6591
41425SOL    HW127677  10.676   8.644   5.187  0.4313 -0.2646 -1.3931
41425SOL    HW227678  10.800   8.704   5.252 -0.1677 -1.2385  0.7218
41426SOL     OW27679   5.737   5.977   5.171  0.3387 -0.2263  0.7498
41426SOL    HW127680   5.767   6.067   5.157 -1.6969  0.1967 -1.4281
41426SOL    HW227681   5.782   5.926   5.104 -0.7935 -0.2559 -0.0116
41427SOL     OW27682   9.981   4.018   9.030  0.1079  0.2166 -0.0997
41427SOL    HW127683   9.966   4.023   9.125  1.1784 -0.4555  0.1131
41427SOL    HW227684   9.975   3.925   9.009 -0.2062  0.3688 -0.7179
41428SOL     OW27685   4.316   9.342   7.270  0.4659  0.0157 -0.3560
41428SOL    HW127686   4.377   9.316   7.339  1.3905  1.8190 -0.4263
41428SOL    HW227687   4.371   9.350   7.192 -0.0466  0.6767 -0.6546
41429SOL     OW27688   8.743   6.489   2.022 -0.1048  0.4908 -0.2929
41429SOL    HW127689   8.804   6.437   1.970 -0.1158 -0.1729  0.3410
41429SOL    HW227690   8.663   6.491   1.970 -0.4352 -0.9936  0.1189
41430SOL     OW27691   3.532   6.738   7.358 -0.5841  0.2058 -0.0166
41430SOL    HW127692   3.609   6.793   7.357 -0.7234  0.3946 -0.3622
41430SOL    HW227693   3.548   6.672   7.290  0.0528 -0.8397  1.0999
41431SOL     OW27694  10.219   1.919   5.869 -0.3651 -0.2972 -0.2002
41431SOL    HW127695  10.276   1.847   5.899  0.3966 -0.5261 -2.0607
41431SOL    HW227696  10.131   1.882   5.873  0.0298 -1.4236 -1.2624
41432SOL     OW27697   5.071   8.248  10.776  0.0506 -0.0037  0.5231
41432SOL    HW127698   4.987   8.278  10.813  0.3596  1.4731  0.1114
41432SOL    HW227699   5.097   8.319  10.718 -0.6092 -2.3883 -2.9579
41433SOL     OW27700   6.946   3.514   1.128 -0.3680 -0.6701 -0.2250
41433SOL    HW127701   6.878   3.547   1.187  0.7277  2.0391 -0.3123
41433SOL    HW227702   6.898   3.469   1.058 -1.9177 -0.5180  0.7076
41434SOL     OW27703   1.240   9.508   2.120  0.4127  0.1705  0.2680
41434SOL    HW127704   1.330   9.480   2.105 -0.2960 -0.6929 -3.4341
41434SOL    HW227705   1.193   9.427   2.144  0.2016  0.0579 -0.4720
41435SOL     OW27706   6.756   8.728   9.593  0.2561  0.9670 -0.6708
41435SOL    HW127707   6.754   8.781   9.513  2.5867  1.0578 -0.7599
41435SOL    HW227708   6.838   8.754   9.636  0.5220 -1.1919  0.2444
41436SOL     OW27709   4.981   1.814   6.159  0.2604 -0.0524  0.1120
41436SOL    HW127710   4.930   1.884   6.201 -0.2348  1.4273 -2.6619
41436SOL    HW227711   5.064   1.812   6.207 -0.4709  1.0973  1.4932
41437SOL     OW27712   4.927   8.569   0.815  0.1499 -0.7059 -0.0523
41437SOL    HW127713   4.878   8.597   0.893 -0.8859 -0.4776 -0.7633
41437SOL    HW227714   5.016   8.602   0.830 -0.2036 -0.0604  0.7263
41438SOL     OW27715   8.971  10.399   6.043  0.1457  0.5621 -0.2530
41438SOL    HW127716   8.919  10.452   6.104 -1.8480 -2.0790  0.5599
41438SOL    HW227717   8.924  10.405   5.960 -1.2240 -1.2948  0.3160
41439SOL     OW27718   4.407   1.357   0.676  0.4249 -0.2921 -0.1882
41439SOL    HW127719   4.315   1.381   0.682  0.8427  1.1087  1.5422
41439SOL    HW227720   4.419   1.289   0.742  0.3285 -1.6613 -1.5349
41440SOL     OW27721   4.391   9.460   8.349 -0.6312 -0.1803 -0.3102
41440SOL    HW127722   4.371   9.433   8.260  0.5290 -0.3731 -0.5284
41440SOL    HW227723   4.485   9.478   8.349 -0.4701 -0.8537  1.0346
41441SOL     OW27724   9.386   8.628   7.881 -0.5492 -0.0904 -0.2093
41441SOL    HW127725   9.448   8.576   7.830 -0.7614  0.0458 -0.6067
41441SOL    HW227726   9.391   8.591   7.969  0.3537  0.1350 -0.1515
41442SOL     OW27727   6.084   5.514   8.829 -0.2756 -0.2899  0.5170
41442SOL    HW127728   6.103   5.421   8.837  1.2215 -0.0727 -0.2423
41442SOL    HW227729   6.061   5.542   8.918 -0.5850 -1.3452  0.7762
41443SOL     OW27730   7.302   1.238   7.201 -0.3883  0.0307 -0.2868
41443SOL    HW127731   7.351   1.194   7.270  0.9133  1.8704  0.0323
41443SOL    HW227732   7.251   1.168   7.160  0.0087 -1.3841  1.4916
41444SOL     OW27733   6.971   5.193   0.802  0.1076 -0.3098  0.2354
41444SOL    HW127734   6.982   5.219   0.894 -0.3501 -1.5999  0.6893
41444SOL    HW227735   7.057   5.160   0.777 -0.4077 -2.4847  1.0965
41445SOL     OW27736   2.486  10.492   3.065 -0.2508 -0.2607 -0.2906
41445SOL    HW127737   2.442  10.565   3.108  0.3347  0.0263 -0.1718
41445SOL    HW227738   2.530  10.446   3.136 -1.8099 -1.6109 -0.1281
41446SOL     OW27739   6.806   4.615   0.683  0.2265 -0.1832 -0.4563
41446SOL    HW127740   6.770   4.650   0.764 -0.6548  1.3623 -1.4616
41446SOL    HW227741   6.896   4.645   0.681  0.0601  0.3223 -0.3561
41447SOL     OW27742   4.741   4.299   6.033  0.3119 -0.1229 -0.4438
41447SOL    HW127743   4.746   4.240   5.958  2.5055  0.1153 -0.5497
41447SOL    HW227744   4.763   4.385   5.998 -0.3246  0.3138  0.1852
41448SOL     OW27745   1.431   4.824   7.462  0.3289  0.9216 -0.1893
41448SOL    HW127746   1.372   4.761   7.503  1.1522  0.0506 -0.2888
41448SOL    HW227747   1.430   4.801   7.369 -0.1344  1.7077 -0.3800
41449SOL     OW27748   4.847   2.861  10.833 -0.6781 -0.2531  0.2417
41449SOL    HW127749   4.836   2.767  10.850 -1.1152 -0.1926  0.3279
41449SOL    HW227750   4.757   2.895  10.831 -0.4928  0.3406  1.2425
41450SOL     OW27751   2.807   9.703   8.655  0.2314 -0.2007 -0.4415
41450SOL    HW127752   2.718   9.672   8.672  0.2562 -0.8232 -1.3389
41450SOL    HW227753   2.856   9.623   8.634  1.1750  0.0518  0.7166
41451SOL     OW27754   6.664   8.545   1.679 -0.6358  0.0495  0.1149
41451SOL    HW127755   6.637   8.562   1.589 -2.1875 -0.3035  0.4815
41451SOL    HW227756   6.612   8.606   1.732  0.0114  0.0258  0.8016
41452SOL     OW27757   0.795   0.038   9.803  0.2298  0.1731 -0.2252
41452SOL    HW127758   0.786   0.127   9.838  0.7521  0.0120  0.3369
41452SOL    HW227759   0.889   0.026   9.792  0.3146 -0.9555  1.4432
41453SOL     OW27760   5.528   9.419   2.629 -0.4653  0.2530 -0.0019
41453SOL    HW127761   5.545   9.504   2.588 -1.8322  0.8883  0.6850
41453SOL    HW227762   5.468   9.438   2.701 -0.7826 -1.2930  0.1886
41454SOL     OW27763   2.751   4.309   7.859  0.2012 -0.4509 -0.5993
41454SOL    HW127764   2.822   4.319   7.796  0.4317  0.5087 -0.2065
41454SOL    HW227765   2.794   4.313   7.944 -0.2975 -0.0113 -0.3609
41455SOL     OW27766   6.281   7.789  10.306  0.4444 -0.2623  0.4540
41455SOL    HW127767   6.352   7.725  10.305 -0.0740 -0.8523 -0.0334
41455SOL    HW227768   6.276   7.820  10.215 -1.1047 -1.6103  0.0256
41456SOL     OW27769   5.675   6.229   0.302  0.0514  0.4390  0.3734
41456SOL    HW127770   5.633   6.181   0.373 -0.4203  0.8558  0.3808
41456SOL    HW227771   5.727   6.163   0.256  0.2368  0.1329  1.0074
41457SOL     OW27772   4.216   5.222   7.888 -0.5088  0.2273  0.8098
41457SOL    HW127773   4.184   5.220   7.978  0.5869  2.0345  1.2835
41457SOL    HW227774   4.188   5.306   7.853  1.5100  0.8009  0.4294
41458SOL     OW27775   3.039   3.442   4.709  0.1726  0.2383  0.6842
41458SOL    HW127776   3.000   3.489   4.782  0.4406  1.3198  0.1422
41458SOL    HW227777   2.966   3.395   4.669 -0.0607  0.0236  1.3401
41459SOL     OW27778   7.934   2.242   5.977  0.5306 -0.0828 -0.3584
41459SOL    HW127779   7.896   2.302   5.912 -1.6419  1.2777  1.9861
41459SOL    HW227780   8.013   2.286   6.008  0.7043  0.0103 -0.9237
41460SOL     OW27781  10.904   0.616   0.707  0.1138  0.0204  0.0449
41460SOL    HW127782  10.966   0.676   0.666 -2.3932  3.3006  0.5563
41460SOL    HW227783  10.910   0.636   0.801 -0.2015 -1.1616  0.3323
41461SOL     OW27784   1.688   6.423   6.739  0.3764 -0.3650  0.7396
41461SOL    HW127785   1.670   6.337   6.777 -0.4710 -1.0816 -1.1487
41461SOL    HW227786   1.605   6.450   6.700  1.2189  0.2380 -0.7066
41462SOL     OW27787   9.764   5.621   2.604  0.1249 -0.5623 -0.0660
41462SOL    HW127788   9.788   5.529   2.589 -2.5251 -1.6230  1.4023
41462SOL    HW227789   9.774   5.663   2.519  2.2769 -1.9635 -0.5788
41463SOL     OW27790   7.982   8.590  10.169 -0.2271 -0.6047 -0.9074
41463SOL    HW127791   8.033   8.646  10.111  0.4999 -0.1296  0.1502
41463SOL    HW227792   7.975   8.640  10.251 -3.2680 -0.2025 -1.2953
41464SOL     OW27793   6.672   2.274   4.606 -0.2442  0.4748 -0.4599
41464SOL    HW127794   6.716   2.241   4.685 -2.5958 -1.2977  0.2190
41464SOL    HW227795   6.652   2.196   4.555  1.5478  1.6226 -3.0901
41465SOL     OW27796   3.413   1.188   3.514  0.7292  0.3480  0.6325
41465SOL    HW127797   3.357   1.262   3.538  0.2187  0.0031  0.5199
41465SOL    HW227798   3.500   1.226   3.504  0.8675  0.5951  2.4883
41466SOL     OW27799   1.523   0.023   6.595 -0.3358 -0.0100  0.1197
41466SOL    HW127800   1.503  -0.069   6.578 -1.3928  0.3625 -0.8131
41466SOL    HW227801   1.618   0.030   6.583 -0.6478 -0.2731 -3.7189
41467SOL     OW27802   2.292   2.736   0.030  0.4774  0.1470 -0.0891
41467SOL    HW127803   2.225   2.802   0.048  0.2469 -0.5199  1.7434
41467SOL    HW227804   2.245   2.666  -0.015 -0.4045 -0.8426  2.2347
41468SOL     OW27805   9.908   8.840   0.291 -0.4834 -0.4848  0.1210
41468SOL    HW127806   9.910   8.813   0.199  1.4717 -0.0852 -0.0070
41468SOL    HW227807   9.904   8.758   0.340  0.5995 -0.8176 -0.3188
41469SOL     OW27808   2.661   7.129   0.218  0.5545  0.4184  0.6767
41469SOL    HW127809   2.698   7.217   0.215  0.4716  0.4355  0.0160
41469SOL    HW227810   2.695   7.085   0.139 -1.7408  0.8182 -0.6528
41470SOL     OW27811   2.296   2.209   4.514 -0.5135 -0.0047 -0.2249
41470SOL    HW127812   2.248   2.227   4.433 -0.1930 -1.2840 -0.7312
41470SOL    HW227813   2.388   2.202   4.486 -0.3204  0.1721  0.3531
41471SOL     OW27814   2.154   6.807  10.022 -0.4887 -0.0313  0.3484
41471SOL    HW127815   2.079   6.831  10.076  0.3509 -1.8777  2.4573
41471SOL    HW227816   2.121   6.739   9.963 -0.8919  0.4857 -0.0318
41472SOL     OW27817   0.124  10.462   1.674  0.2372  0.2005 -0.0413
41472SOL    HW127818   0.133  10.367   1.663  0.6651  0.2525 -0.1556
41472SOL    HW227819   0.030  10.478   1.666  0.1731 -0.2009 -0.1250
41473SOL     OW27820   8.641   0.916   3.031 -0.1721 -0.1634  0.0115
41473SOL    HW127821   8.573   0.866   2.986 -1.2759  0.0463  1.3818
41473SOL    HW227822   8.718   0.859   3.028 -0.7029 -0.8715 -0.6187
41474SOL     OW27823   7.047   4.262  10.758  0.3709  0.8811 -0.0954
41474SOL    HW127824   6.996   4.301  10.829 -0.2563  0.8043 -0.4944
41474SOL    HW227825   6.983   4.213  10.707  0.6880  1.4789 -1.0922
41475SOL     OW27826   2.608   6.494   9.715 -1.4246  0.1676 -0.3479
41475SOL    HW127827   2.630   6.573   9.667 -1.2300 -0.1553 -0.7911
41475SOL    HW227828   2.529   6.460   9.672 -1.3008 -0.0728 -0.3888
41476SOL     OW27829   1.517   2.804   4.370  0.3943  0.1504 -0.7675
41476SOL    HW127830   1.560   2.875   4.323  0.1372  0.9739  0.2196
41476SOL    HW227831   1.462   2.847   4.435 -1.4828 -0.8706 -1.5834
41477SOL     OW27832   3.181   6.237   2.591  0.3374  0.2229 -0.1466
41477SOL    HW127833   3.214   6.213   2.678  1.7947 -2.8393 -1.3882
41477SOL    HW227834   3.106   6.179   2.578 -2.8993  3.7987  0.6981
41478SOL     OW27835   7.930   4.250   0.094  0.2492  0.5202 -0.1924
41478SOL    HW127836   8.018   4.284   0.077 -0.0260  2.4589  1.7888
41478SOL    HW227837   7.944   4.177   0.155  0.5024  0.5568 -0.2046
41479SOL     OW27838   4.602   1.140   3.661 -0.2144  0.1376  0.6976
41479SOL    HW127839   4.551   1.151   3.580  0.4054  2.5848  0.5642
41479SOL    HW227840   4.654   1.061   3.646 -1.9572 -0.9040 -0.2358
41480SOL     OW27841   1.865   2.005   7.405 -0.5585  0.2279 -0.0911
41480SOL    HW127842   1.850   2.100   7.405 -0.0153  0.3282  1.2148
41480SOL    HW227843   1.779   1.968   7.387 -0.9905  0.9433  0.4373
41481SOL     OW27844  10.179   6.876   4.080  0.2539 -0.6746 -0.6967
41481SOL    HW127845  10.097   6.851   4.038 -1.5675  2.7126  0.5010
41481SOL    HW227846  10.162   6.870   4.174  1.1421  0.6506 -0.4119
41482SOL     OW27847  10.550   2.461   1.191  0.1681  0.2952  0.0213
41482SOL    HW127848  10.516   2.373   1.174 -0.2333  0.7437 -1.6960
41482SOL    HW227849  10.472   2.512   1.215  0.3193  0.3237  0.4664
41483SOL     OW27850   3.716   1.517   1.809  0.3776  0.3941 -0.5682
41483SOL    HW127851   3.782   1.514   1.740 -1.5039 -3.2043 -2.5068
41483SOL    HW227852   3.649   1.577   1.774  0.7293  0.8402 -0.4895
41484SOL     OW27853   5.206   9.154  10.765  0.0717 -0.0285  0.3504
41484SOL    HW127854   5.175   9.091  10.700  1.4435  0.4229 -0.8054
41484SOL    HW227855   5.126   9.188  10.806 -0.7142 -2.7075  1.2658
41485SOL     OW27856   4.658   9.967   2.069 -0.4270 -0.2266 -0.4897
41485SOL    HW127857   4.621   9.921   1.994 -1.5346  2.1228 -1.4531
41485SOL    HW227858   4.599   9.946   2.141 -0.1165 -1.4069 -0.5573
41486SOL     OW27859   2.649   2.945   6.742 -0.8926 -0.0697  0.6029
41486SOL    HW127860   2.645   2.927   6.836 -0.2004 -0.8133  0.5087
41486SOL    HW227861   2.671   2.860   6.703 -1.2619  0.2130 -0.2367
41487SOL     OW27862   4.866   8.352   6.153  0.3594  0.7124  0.7015
41487SOL    HW127863   4.782   8.375   6.113  0.2032 -0.3755  0.3550
41487SOL    HW227864   4.853   8.369   6.246  0.0029  1.2405  0.5617
41488SOL     OW27865   5.529   8.172   9.869 -0.3998 -0.1962  0.0168
41488SOL    HW127866   5.494   8.194   9.955 -0.2025 -1.1971  0.3640
41488SOL    HW227867   5.469   8.214   9.807 -0.2512  0.9508  0.6388
41489SOL     OW27868   8.989   6.850   4.645 -0.0364 -0.4371 -0.2453
41489SOL    HW127869   8.955   6.843   4.734 -3.5847 -1.8570 -1.5684
41489SOL    HW227870   9.054   6.781   4.639 -0.4243 -0.9363  0.9644
41490SOL     OW27871   0.921   6.041   0.362 -0.4609  0.4852  0.5112
41490SOL    HW127872   0.847   5.985   0.385 -0.6110  1.1493  1.7211
41490SOL    HW227873   0.897   6.127   0.395  0.1993  1.0600 -0.4432
41491SOL     OW27874   1.183   6.266   7.906  0.0676 -0.2814  0.1244
41491SOL    HW127875   1.120   6.296   7.971 -0.4530 -0.8317 -0.1099
41491SOL    HW227876   1.260   6.240   7.956 -0.1797 -0.3210  0.4834
41492SOL     OW27877   9.125   8.168   9.190  0.1604 -0.3005 -0.1888
41492SOL    HW127878   9.057   8.200   9.249  0.7640 -0.6472  0.7101
41492SOL    HW227879   9.168   8.247   9.157 -0.7388 -0.0746 -0.8561
41493SOL     OW27880   5.336   0.055   3.756 -0.1104  0.2345  0.3360
41493SOL    HW127881   5.347   0.054   3.661 -2.2091 -0.1693  0.0536
41493SOL    HW227882   5.322   0.147   3.778  1.5778  0.4886  0.4456
41494SOL     OW27883   0.512   0.354   1.000  0.1449  0.3091  0.2470
41494SOL    HW127884   0.592   0.308   0.975  0.8558  1.0623  1.0629
41494SOL    HW227885   0.518   0.439   0.957 -1.2476 -0.3823 -1.3947
41495SOL     OW27886  10.228   8.817   1.435 -0.5429  0.1081  0.6671
41495SOL    HW127887  10.147   8.803   1.385 -1.1619  2.6299  0.8350
41495SOL    HW227888  10.284   8.867   1.376  1.6608 -2.9147 -0.0564
41496SOL     OW27889   9.552   8.188   3.630 -0.0907  0.2124  0.5464
41496SOL    HW127890   9.521   8.185   3.721 -0.4262 -0.0848  0.4265
41496SOL    HW227891   9.582   8.099   3.612 -0.6992  0.0826  0.1382
41497SOL     OW27892   1.753  10.862  10.597 -0.3533  0.0949 -0.3783
41497SOL    HW127893   1.745  10.781  10.648  0.2808  0.8795  1.0152
41497SOL    HW227894   1.679  10.916  10.626  0.2667  0.7218  0.0647
41498SOL     OW27895   5.518   6.380   3.267 -0.7215  0.3960  0.4235
41498SOL    HW127896   5.521   6.407   3.175 -0.1063  1.2487  0.6780
41498SOL    HW227897   5.425   6.384   3.290 -0.9477 -0.3666 -0.3049
41499SOL     OW27898   6.567   9.543  10.577 -0.1429 -0.1738  0.3651
41499SOL    HW127899   6.601   9.603  10.644  1.2692  0.3325 -0.7493
41499SOL    HW227900   6.618   9.463  10.589  2.2484  0.8698 -1.8572
41500SOL     OW27901  10.580   3.963   7.307 -0.2071 -0.3093  0.0893
41500SOL    HW127902  10.513   4.020   7.269  0.1095  0.2908  0.4111
41500SOL    HW227903  10.591   3.996   7.396  0.9337 -0.0196 -0.1453
41501SOL     OW27904   0.182   1.660   6.221  0.5273  0.0868  0.2688
41501SOL    HW127905   0.093   1.691   6.239  1.0023  1.0022  1.2141
41501SOL    HW227906   0.203   1.698   6.136  0.1708  0.2332  0.2417
41502SOL     OW27907   4.269   2.247   1.933  0.1560 -0.0184  0.1649
41502SOL    HW127908   4.361   2.229   1.951  0.7918  0.0807 -2.5502
41502SOL    HW227909   4.269   2.333   1.893 -1.3253  0.5624  1.3195
41503SOL     OW27910  10.912   7.907   8.672 -0.2613 -0.5478 -0.1734
41503SOL    HW127911  10.939   7.815   8.677  0.6938 -0.3651 -1.3474
41503SOL    HW227912  10.866   7.914   8.589  0.8966  0.2985 -0.7807
41504SOL     OW27913   3.345  10.018   4.596  0.4284 -0.6684 -0.0672
41504SOL    HW127914   3.351   9.950   4.662  0.2743 -1.0690 -0.4570
41504SOL    HW227915   3.251  10.037   4.589  0.6273  1.2932  1.7313
41505SOL     OW27916   5.965   4.303   9.570  0.4798  0.1320 -0.1616
41505SOL    HW127917   5.915   4.341   9.641 -0.5251  1.3177 -1.4428
41505SOL    HW227918   5.973   4.374   9.505  1.9279 -0.6911 -0.9512
41506SOL     OW27919   4.613   6.405   6.837 -0.0521  0.2421 -0.0744
41506SOL    HW127920   4.603   6.438   6.927  0.0185 -1.1429  0.4687
41506SOL    HW227921   4.685   6.456   6.801 -0.1989  0.9443  0.5887
41507SOL     OW27922   7.873   1.001   8.338 -0.0507 -0.2308 -0.1430
41507SOL    HW127923   7.892   1.022   8.430  0.9345  1.8099 -0.7282
41507SOL    HW227924   7.937   1.053   8.289 -2.5440  1.2523 -2.0842
41508SOL     OW27925   4.526   1.767   9.693 -0.1055 -0.4949  0.1814
41508SOL    HW127926   4.577   1.718   9.758  2.5179 -0.2255 -1.5017
41508SOL    HW227927   4.532   1.713   9.614  0.3825  1.1352 -0.9317
41509SOL     OW27928   5.523   4.191  10.134  0.1649  0.0744  0.4691
41509SOL    HW127929   5.458   4.184  10.064  0.5853 -0.1082  0.0888
41509SOL    HW227930   5.560   4.103  10.141 -0.9201 -0.2940  1.9567
41510SOL     OW27931   6.025   2.861   1.916 -0.0750  0.4448  0.1149
41510SOL    HW127932   5.989   2.845   1.829  0.0655  2.8174 -0.4550
41510SOL    HW227933   6.093   2.795   1.927  0.6630  0.7721 -2.0566
41511SOL     OW27934   4.739   1.660   9.858 -0.1944 -0.4489 -0.1313
41511SOL    HW127935   4.818   1.691   9.902 -0.2214 -0.6444  0.0546
41511SOL    HW227936   4.768   1.635   9.771 -0.1185 -0.1753 -0.1867
41512SOL     OW27937   5.628   6.317   6.499  0.1516  0.1105 -0.1694
41512SOL    HW127938   5.635   6.346   6.408 -0.5780  1.3370  0.1327
41512SOL    HW227939   5.567   6.243   6.496 -1.4345  1.3785 -0.4748
41513SOL     OW27940   4.691   0.312   9.688 -0.0484 -0.2271  0.0898
41513SOL    HW127941   4.720   0.356   9.768  2.5178 -0.9153 -0.3790
41513SOL    HW227942   4.726   0.223   9.696  0.7724 -0.1505 -2.0219
41514SOL     OW27943   3.028   5.736   5.082  0.3121  0.1545 -0.2394
41514SOL    HW127944   3.068   5.649   5.077  2.7660  1.0161  2.0232
41514SOL    HW227945   2.977   5.735   5.162 -1.0155  0.3363 -1.0544
41515SOL     OW27946   0.096   7.641   8.635 -0.1109  0.1889 -0.6632
41515SOL    HW127947   0.188   7.648   8.609  0.5141  1.0532  1.5185
41515SOL    HW227948   0.098   7.640   8.731 -2.3513 -0.3648 -0.5611
41516SOL     OW27949   1.136  10.539   1.831 -0.4104  0.0868 -0.0986
41516SOL    HW127950   1.128  10.506   1.742 -0.4079  0.0796 -0.0962
41516SOL    HW227951   1.116  10.633   1.824 -0.1889  0.1311 -0.1412
41517SOL     OW27952   5.868   4.518  10.793 -0.4906  0.4313  0.1930
41517SOL    HW127953   5.849   4.607  10.762  0.5459  0.2604 -0.9985
41517SOL    HW227954   5.916   4.531  10.874 -2.5059  0.9002  1.3789
41518SOL     OW27955   3.510   5.911   1.212  0.2269  0.1918  0.1883
41518SOL    HW127956   3.573   5.980   1.193  2.0567 -1.6709 -0.9096
41518SOL    HW227957   3.562   5.831   1.215 -1.6628 -1.0808  2.3429
41519SOL     OW27958   3.540   9.333   1.569  0.1639  0.2798  0.3674
41519SOL    HW127959   3.481   9.334   1.493 -0.1815  0.9965  0.6417
41519SOL    HW227960   3.482   9.333   1.645  0.5147  0.3912  0.6400
41520SOL     OW27961   0.721   9.386   8.146  0.6673 -0.5711  0.6038
41520SOL    HW127962   0.628   9.363   8.149  0.3638  0.0494 -1.9474
41520SOL    HW227963   0.726   9.473   8.184 -0.1040  0.1233 -0.8407
41521SOL     OW27964   3.663   6.300   3.585  0.2294  0.4090 -0.6502
41521SOL    HW127965   3.706   6.380   3.552  0.1963  1.3644  1.4494
41521SOL    HW227966   3.724   6.265   3.649 -0.2396 -0.6824 -0.7798
41522SOL     OW27967   7.275   0.496   3.533 -0.3966  0.2903 -0.1132
41522SOL    HW127968   7.253   0.507   3.626  1.8978  0.4083  0.4781
41522SOL    HW227969   7.309   0.408   3.527 -0.7584  0.2009 -0.9253
41523SOL     OW27970   9.747   9.474   5.545  0.2190 -0.2553  0.2048
41523SOL    HW127971   9.748   9.378   5.535  1.2875 -0.1440 -0.9789
41523SOL    HW227972   9.713   9.507   5.462  0.6618  0.4277  0.2898
41524SOL     OW27973   7.686  10.735  10.044 -0.3570  0.6596  0.6946
41524SOL    HW127974   7.668  10.700  10.131  2.9599  0.1980  1.3267
41524SOL    HW227975   7.776  10.768  10.049  0.0866  0.3644 -2.6091
41525SOL     OW27976   8.692   6.536   5.316  0.5075  0.2134 -0.0798
41525SOL    HW127977   8.676   6.586   5.396  0.9754  0.4518 -0.1299
41525SOL    HW227978   8.703   6.603   5.248  0.7567  0.0326 -0.2209
41526SOL     OW27979   2.897   5.359   1.690  0.1957 -0.0736 -0.0679
41526SOL    HW127980   2.837   5.293   1.655  0.5607 -1.1210  1.1974
41526SOL    HW227981   2.854   5.442   1.672 -0.9715 -0.7282 -0.4344
41527SOL     OW27982   8.922   7.518   6.359  0.2947  0.3513 -0.0352
41527SOL    HW127983   8.904   7.427   6.339 -2.5522  0.3718  1.8635
41527SOL    HW227984   8.841   7.565   6.337  1.7576  2.5057 -1.2187
41528SOL     OW27985   8.821   4.077   2.940  0.4701 -0.1863 -0.4721
41528SOL    HW127986   8.900   4.112   2.981 -0.0189  1.1984 -0.6552
41528SOL    HW227987   8.849   3.996   2.897  1.7315  0.1687 -0.3315
41529SOL     OW27988   1.949   7.580   6.925 -0.1282  0.2810 -0.1051
41529SOL    HW127989   1.917   7.506   6.977  1.2348 -0.2636 -0.0216
41529SOL    HW227990   1.895   7.577   6.846 -2.5755  1.4202  1.4002
41530SOL     OW27991   0.687   0.956   1.869 -0.3287  0.0453  0.0834
41530SOL    HW127992   0.781   0.974   1.875 -0.1158 -1.1758  0.7067
41530SOL    HW227993   0.682   0.863   1.851 -1.4349  0.1237 -0.0781
41531SOL     OW27994   7.108   1.631   1.974 -0.0311  0.3446 -0.5383
41531SOL    HW127995   7.113   1.592   2.061  2.2570  1.6179 -0.0119
41531SOL    HW227996   7.058   1.712   1.986 -0.7688 -0.0926 -0.6634
41532SOL     OW27997   7.570   5.952   2.447 -0.0796 -0.1727 -0.2125
41532SOL    HW127998   7.505   5.981   2.510 -1.2995 -1.0262 -1.0300
41532SOL    HW227999   7.601   6.032   2.405  1.2133  0.4806  1.8342
41533SOL     OW28000   0.135   7.765   0.762  0.0167  0.1074 -0.1036
41533SOL    HW128001   0.225   7.737   0.777  0.4919 -0.2366 -3.0505
41533SOL    HW228002   0.142   7.852   0.724 -0.8345 -0.1634 -0.9380
41534SOL     OW28003   6.806   7.085   1.818  0.4995 -1.0295 -0.0538
41534SOL    HW128004   6.749   7.010   1.804 -0.6399 -0.3672  0.8541
41534SOL    HW228005   6.815   7.125   1.731  1.1113 -2.1820 -0.5368
41535SOL     OW28006   4.551  10.754   2.116 -0.1980 -0.1355  0.4739
41535SOL    HW128007   4.533  10.660   2.111 -0.3382 -0.1213  0.7064
41535SOL    HW228008   4.591  10.775   2.032  1.5388 -0.7685  1.0822
41536SOL     OW28009   8.961   3.925   4.401 -0.2867  0.0774 -0.1003
41536SOL    HW128010   8.940   3.936   4.494 -1.1464  1.0161 -0.3968
41536SOL    HW228011   9.000   4.008   4.375  1.0465 -0.5874 -0.3141
41537SOL     OW28012   6.877   3.088   6.583 -0.0098 -0.0436  0.2935
41537SOL    HW128013   6.845   3.012   6.534 -0.5241 -0.6144  1.4569
41537SOL    HW228014   6.805   3.110   6.642  0.5460  0.6847  0.7135
41538SOL     OW28015   6.876   6.348   4.575 -0.4437  0.5288 -0.3113
41538SOL    HW128016   6.910   6.278   4.629  1.0491  1.9753  0.7090
41538SOL    HW228017   6.781   6.347   4.590 -0.0846  0.9024  2.4275
41539SOL     OW28018   1.587   8.872   0.656  0.1152 -0.1666 -0.2423
41539SOL    HW128019   1.538   8.824   0.722 -0.2084 -0.0308 -0.3787
41539SOL    HW228020   1.530   8.946   0.633  1.1506  1.0472  0.9142
41540SOL     OW28021   3.156   5.849  10.523 -0.8074  0.4075 -0.0607
41540SOL    HW128022   3.165   5.901  10.603  1.8710  1.1523 -0.7339
41540SOL    HW228023   3.148   5.758  10.554  0.7838  0.6230  1.0760
41541SOL     OW28024   1.767   7.893   8.435  0.5700 -0.4118 -0.3495
41541SOL    HW128025   1.753   7.919   8.344  0.9247  1.7215  0.1503
41541SOL    HW228026   1.693   7.836   8.455 -0.3379  0.2919 -1.5445
41542SOL     OW28027   7.469   8.639   9.652 -0.0037  0.8770  0.1704
41542SOL    HW128028   7.490   8.732   9.655 -0.4676  0.9745  2.7158
41542SOL    HW228029   7.553   8.594   9.665  0.0467  0.9743  0.1785
41543SOL     OW28030  10.182   8.647   5.173  0.3553  0.0345 -0.0825
41543SOL    HW128031  10.193   8.555   5.150  1.7257  0.0809  0.2857
41543SOL    HW228032  10.204   8.696   5.094 -1.4347  0.0432 -0.6090
41544SOL     OW28033   3.304   1.831   9.902  0.0266  0.6336 -0.3693
41544SOL    HW128034   3.234   1.796   9.956 -0.4724 -0.0301 -1.4094
41544SOL    HW228035   3.370   1.762   9.900  0.4038  0.9733  0.0229
41545SOL     OW28036   0.217   2.599   5.301  0.3783 -0.2114  0.0221
41545SOL    HW128037   0.242   2.661   5.370  1.7125 -0.7890  0.0888
41545SOL    HW228038   0.126   2.622   5.280  1.1745  2.5360 -0.7993
41546SOL     OW28039   0.174   1.309   5.066  0.5068  0.2599  0.0512
41546SOL    HW128040   0.153   1.335   5.155 -0.2370 -1.2648  0.3600
41546SOL    HW228041   0.178   1.391   5.017  2.0155  1.2300  1.6727
41547SOL     OW28042   8.253  10.036   9.347  0.1252 -0.0973  0.4156
41547SOL    HW128043   8.346  10.035   9.369 -0.0150 -0.5761  1.0177
41547SOL    HW228044   8.245  10.104   9.279  1.3672 -2.0442 -1.8186
41548SOL     OW28045   1.471   2.548   2.755 -0.1656  0.0790 -0.4531
41548SOL    HW128046   1.493   2.638   2.731 -0.2681  0.8942  2.1878
41548SOL    HW228047   1.375   2.546   2.757 -0.1840 -0.3289 -1.2162
41549SOL     OW28048   0.706   4.928   4.928 -0.3086 -0.2211 -0.7722
41549SOL    HW128049   0.733   4.858   4.869  1.0502  1.3547 -2.1122
41549SOL    HW228050   0.785   4.952   4.975 -0.8697  0.1182  0.0178
41550SOL     OW28051   1.695   6.579  10.777 -0.4736 -0.5947  0.2308
41550SOL    HW128052   1.656   6.533  10.851 -1.1032 -0.7151 -0.1664
41550SOL    HW228053   1.757   6.640  10.816 -1.5526  0.0916  0.9311
41551SOL     OW28054   6.587   8.858   4.773 -0.0726 -0.4617 -0.5509
41551SOL    HW128055   6.661   8.911   4.743  1.6975 -1.9343  0.9728
41551SOL    HW228056   6.533   8.920   4.822  2.0196  0.0177  1.3275
41552SOL     OW28057   0.938   0.729   0.608  0.2144  0.2200 -0.1163
41552SOL    HW128058   0.861   0.766   0.653  1.7931  0.6174  2.4330
41552SOL    HW228059   0.951   0.644   0.648  1.2044  0.2223 -0.4040
41553SOL     OW28060   1.209   3.625   9.207  0.4119  0.1985  0.6711
41553SOL    HW128061   1.115   3.640   9.223  0.1262 -0.9588  0.1426
41553SOL    HW228062   1.241   3.710   9.177 -0.4572  0.6255  0.8982
41554SOL     OW28063   4.412   3.604   6.290 -0.1158  0.0140 -0.1842
41554SOL    HW128064   4.390   3.612   6.383 -1.3636 -0.0217 -0.4533
41554SOL    HW228065   4.412   3.694   6.257  0.6939  0.0570 -0.0774
41555SOL     OW28066   7.064   2.288   4.909 -1.2941  0.0434  0.5785
41555SOL    HW128067   7.101   2.376   4.911  0.5977 -0.6959  0.1568
41555SOL    HW228068   7.060   2.262   5.001 -1.2681  0.3455  0.6664
41556SOL     OW28069   1.950   6.544   2.507  0.2384 -0.0895  0.3671
41556SOL    HW128070   1.995   6.572   2.427 -0.0695  0.3139  0.3313
41556SOL    HW228071   1.958   6.618   2.567  0.6508 -0.4742  0.7900
41557SOL     OW28072  10.894   7.430   5.143  0.4406 -0.1170 -0.3071
41557SOL    HW128073  10.966   7.452   5.083 -1.0873 -3.1481 -3.6035
41557SOL    HW228074  10.934   7.371   5.206  1.6877  1.6653  0.6727
41558SOL     OW28075   4.517   5.145   8.240 -0.4714  0.4129  0.2307
41558SOL    HW128076   4.438   5.104   8.275 -1.6131  0.9026 -1.6288
41558SOL    HW228077   4.543   5.209   8.306 -1.5500  0.1616  0.9125
41559SOL     OW28078   7.499   6.105   1.475 -0.1321 -0.1630  0.2247
41559SOL    HW128079   7.577   6.050   1.477 -0.1290 -0.1312  1.9935
41559SOL    HW228080   7.436   6.055   1.423  0.4376 -1.0513  0.3661
41560SOL     OW28081   9.134   9.510   1.741  0.0613 -0.1811  0.0540
41560SOL    HW128082   9.049   9.554   1.738  0.3052  0.4184  1.3875
41560SOL    HW228083   9.190   9.562   1.683  0.2434  1.0868  1.3120
41561SOL     OW28084   4.140   2.950   6.002  0.1682 -0.8018 -0.0371
41561SOL    HW128085   4.227   2.920   6.028  0.8106  0.3138 -0.7950
41561SOL    HW228086   4.156   3.009   5.928 -1.2810 -0.9835 -0.5324
41562SOL     OW28087   5.622  10.201   2.225 -0.0119 -0.5195 -0.2547
41562SOL    HW128088   5.672  10.280   2.203 -0.2552  0.1017  1.3322
41562SOL    HW228089   5.586  10.172   2.141 -0.2098  1.2469 -0.8165
41563SOL     OW28090   8.898   2.697   4.580  0.0088  0.6430  0.2913
41563SOL    HW128091   8.870   2.775   4.533  1.7089  1.9176  1.2537
41563SOL    HW228092   8.893   2.627   4.515  0.2111  1.9149 -1.1655
41564SOL     OW28093  10.789   1.672   6.592 -0.3538  0.3599  0.0017
41564SOL    HW128094  10.884   1.671   6.590 -0.3367 -1.6912 -1.0925
41564SOL    HW228095  10.765   1.605   6.656 -1.0572  0.7821  0.1930
41565SOL     OW28096  10.205   3.809   5.248 -0.5419 -0.2802  0.2041
41565SOL    HW128097  10.290   3.774   5.278 -1.2315 -2.4933 -0.2387
41565SOL    HW228098  10.206   3.795   5.154 -2.0956 -2.1137  0.3939
41566SOL     OW28099   2.110   9.232   1.669 -0.2481  0.2627  0.0228
41566SOL    HW128100   2.120   9.326   1.682 -1.6956  0.6584 -1.4213
41566SOL    HW228101   2.163   9.193   1.738  0.5254  2.1261  0.5495
41567SOL     OW28102   3.953   7.880   7.214  0.0027 -0.4068 -0.5149
41567SOL    HW128103   3.894   7.828   7.269  0.8681 -1.6449 -0.7185
41567SOL    HW228104   4.028   7.899   7.270 -0.2902  0.6519 -0.4493
41568SOL     OW28105   0.347   3.979  10.243  0.2078 -0.0291 -0.1635
41568SOL    HW128106   0.407   3.998  10.315  0.8169 -0.3422 -0.5797
41568SOL    HW228107   0.264   3.957  10.286  0.4886  0.0376  0.4288
41569SOL     OW28108   4.522   2.299   2.517  0.2482  0.1653 -0.2932
41569SOL    HW128109   4.506   2.223   2.573 -0.3120  0.2657 -0.3104
41569SOL    HW228110   4.608   2.331   2.543  0.8374 -0.9405 -0.8178
41570SOL     OW28111   8.062   1.953   4.645  0.1624 -0.6796  0.3555
41570SOL    HW128112   8.084   1.944   4.737 -0.6667  1.0715  0.7662
41570SOL    HW228113   8.143   1.985   4.604 -0.1953  1.2619  1.0309
41571SOL     OW28114   2.815  10.252   0.126 -0.0959 -0.0464 -0.8388
41571SOL    HW128115   2.893  10.237   0.180 -0.4613  0.0957 -0.2650
41571SOL    HW228116   2.849  10.260   0.037  0.6596  0.9939 -0.4837
41572SOL     OW28117   6.437   8.796   9.404  0.2200  0.1282  0.1730
41572SOL    HW128118   6.505   8.837   9.351 -0.3803 -0.2793 -0.9430
41572SOL    HW228119   6.429   8.853   9.480  0.6097  1.1263 -0.5110
41573SOL     OW28120   0.002   3.577   8.300  0.0022  0.3654  0.3389
41573SOL    HW128121   0.011   3.546   8.391  2.7618  1.9658  0.7492
41573SOL    HW228122  -0.057   3.651   8.306 -1.1195 -0.5151  0.5153
41574SOL     OW28123   3.188  10.464   5.543 -0.0268 -0.1729  0.0575
41574SOL    HW128124   3.142  10.380   5.539 -0.6470  0.1775 -0.3444
41574SOL    HW228125   3.121  10.528   5.518  0.9499  0.2458 -1.6208
41575SOL     OW28126   5.591   0.378  10.647 -0.2667 -0.1048  0.3965
41575SOL    HW128127   5.653   0.344  10.712 -0.2520  1.0655  1.0212
41575SOL    HW228128   5.527   0.308  10.637  0.0496 -0.5353  1.2515
41576SOL     OW28129   0.477   0.740   5.134  0.4352  0.1584 -0.4673
41576SOL    HW128130   0.458   0.668   5.195 -0.1172  0.6290 -0.0788
41576SOL    HW228131   0.487   0.697   5.049  0.7133 -0.4481 -0.1376
41577SOL     OW28132   2.919   9.562   8.200 -0.2975  0.3799  0.5459
41577SOL    HW128133   2.942   9.627   8.266  0.0308 -0.9763  1.8088
41577SOL    HW228134   2.929   9.609   8.117  1.4134  1.5264  1.3236
41578SOL     OW28135   7.001  10.723  10.236 -0.1050  0.4025 -0.1625
41578SOL    HW128136   7.027  10.709  10.327 -1.3915  0.7550  0.2779
41578SOL    HW228137   7.066  10.785  10.202  1.0911 -0.6271  0.1341
41579SOL     OW28138   0.995   4.940   2.914 -0.0168 -0.4622  0.3088
41579SOL    HW128139   0.924   4.954   2.852 -0.4550 -3.4375  0.0173
41579SOL    HW228140   0.953   4.938   3.000  0.2753  1.2555  0.5429
41580SOL     OW28141   4.162   1.213   9.141  0.4102 -0.2875  0.5063
41580SOL    HW128142   4.131   1.291   9.188 -0.7962  0.1767 -0.9608
41580SOL    HW228143   4.082   1.163   9.123  0.9619 -0.9474 -0.1691
41581SOL     OW28144   0.596   6.921   9.934 -0.1297  0.1884  0.0939
41581SOL    HW128145   0.529   6.930  10.002  0.9841 -0.5352  1.3196
41581SOL    HW228146   0.546   6.924   9.852 -1.6373 -0.0398  0.9574
41582SOL     OW28147   7.822  10.617   4.565 -0.0284  0.0374 -0.2883
41582SOL    HW128148   7.848  10.685   4.628 -1.2569 -0.2226  0.5468
41582SOL    HW228149   7.814  10.664   4.482 -3.8499  1.7744  0.7910
41583SOL     OW28150   7.543   7.429   8.664  0.5230 -0.0863 -0.0041
41583SOL    HW128151   7.510   7.474   8.586  0.4094  0.2151  0.2142
41583SOL    HW228152   7.576   7.345   8.631 -1.2887 -0.7952 -0.1217
41584SOL     OW28153   0.553   8.022   6.132 -0.5203  0.1882 -0.1008
41584SOL    HW128154   0.484   8.087   6.130 -0.2311  0.4793 -1.0058
41584SOL    HW228155   0.519   7.948   6.082 -1.5464 -1.1226  2.3405
41585SOL     OW28156   3.095   9.978   3.861  0.5137 -0.5919 -0.5754
41585SOL    HW128157   3.099  10.071   3.880 -2.1149  0.0921 -2.7514
41585SOL    HW228158   3.017   9.947   3.907  1.6997 -1.9288  0.6358
41586SOL     OW28159   7.348   1.871   1.203  0.2513  0.1179  0.1032
41586SOL    HW128160   7.296   1.797   1.171 -0.2879  0.7033 -0.3930
41586SOL    HW228161   7.366   1.923   1.125 -0.1341  0.9762  0.5742
41587SOL     OW28162   6.044   1.262   8.226  0.0884  0.3722  0.2044
41587SOL    HW128163   6.028   1.338   8.281  0.0326 -0.3277  1.1876
41587SOL    HW228164   6.041   1.295   8.137  1.0418  1.6979  0.6434
41588SOL     OW28165   3.418   3.461   7.427 -0.2301  0.1908  0.0478
41588SOL    HW128166   3.510   3.471   7.404 -0.4275  1.3732 -0.3021
41588SOL    HW228167   3.370   3.499   7.353 -1.0109 -0.6169  0.1183
41589SOL     OW28168   9.843   0.824   1.117  0.1861 -1.0247 -0.1667
41589SOL    HW128169   9.768   0.864   1.072  0.3612 -1.0562 -0.4843
41589SOL    HW228170   9.860   0.743   1.069  0.9666 -0.6007 -0.6271
41590SOL     OW28171   9.230   6.082   1.235 -0.3481  0.0865 -0.0247
41590SOL    HW128172   9.181   6.153   1.193  1.5196  1.1409 -0.5293
41590SOL    HW228173   9.279   6.125   1.305  0.2809 -0.8297  0.1182
41591SOL     OW28174   4.249   3.044  10.300  0.2149  0.6131 -0.3432
41591SOL    HW128175   4.311   3.065  10.230 -1.4741  4.1517 -1.0073
41591SOL    HW228176   4.301   3.045  10.380  1.4085  1.4066 -1.1022
41592SOL     OW28177   9.157   5.724   8.427 -0.3318  0.1110  0.2719
41592SOL    HW128178   9.159   5.809   8.471 -2.4524 -0.3495  1.4003
41592SOL    HW228179   9.064   5.705   8.416  0.0939 -0.8391 -2.4898
41593SOL     OW28180   1.682   1.437   3.568 -0.0586 -0.3517 -0.4149
41593SOL    HW128181   1.696   1.345   3.589 -0.0595 -0.1321  0.6095
41593SOL    HW228182   1.606   1.437   3.510 -0.0534 -1.0018 -0.4300
41594SOL     OW28183   4.691   6.571   4.357  0.0444  0.0447 -0.1111
41594SOL    HW128184   4.781   6.595   4.382  0.2206 -1.3741  0.7540
41594SOL    HW228185   4.651   6.542   4.438 -0.8306 -0.4283 -0.6979
41595SOL     OW28186   1.451   3.241   2.549 -0.1142 -0.4270 -0.4071
41595SOL    HW128187   1.507   3.226   2.625 -1.0090  2.6680  1.0470
41595SOL    HW228188   1.393   3.165   2.545  0.6261 -1.1225  1.3761
41596SOL     OW28189   7.894  10.179   3.199  0.0108 -0.0558  0.3281
41596SOL    HW128190   7.849  10.118   3.258  2.8503 -3.5264 -0.7216
41596SOL    HW228191   7.955  10.226   3.255 -0.6155  0.1631  0.8346
41597SOL     OW28192   9.054   0.998   9.987 -0.2749 -0.2350 -0.6375
41597SOL    HW128193   9.004   0.924  10.022  0.3743  0.2148  1.3633
41597SOL    HW228194   9.012   1.075  10.026  0.0858  0.3430 -1.3766
41598SOL     OW28195  10.185   9.380   8.202  0.3712 -0.2408 -0.0505
41598SOL    HW128196  10.255   9.407   8.261  1.6944  0.1795 -1.7499
41598SOL    HW228197  10.220   9.304   8.155 -0.0823  0.2886 -1.2943
41599SOL     OW28198   7.624   9.878   8.171  0.4303  0.1578 -0.3374
41599SOL    HW128199   7.557   9.844   8.112 -0.7201  0.0389  0.9963
41599SOL    HW228200   7.600   9.970   8.183 -1.4325 -0.5715  2.5713
41600SOL     OW28201   4.794   6.599   1.462 -0.4146  0.1724 -0.0548
41600SOL    HW128202   4.851   6.531   1.498 -0.6309 -0.1456 -0.3075
41600SOL    HW228203   4.812   6.597   1.368 -1.0819 -0.1518 -0.1750
41601SOL     OW28204   5.301  10.865   4.964 -0.3949 -0.1481  0.1136
41601SOL    HW128205   5.380  10.889   5.013  0.6854  1.4410 -2.1852
41601SOL    HW228206   5.324  10.882   4.873 -3.1832 -0.2988 -0.7160
41602SOL     OW28207   4.063   8.196   1.954 -0.1192  0.2958 -0.2127
41602SOL    HW128208   4.028   8.284   1.969  0.4716  0.6006 -0.5537
41602SOL    HW228209   4.032   8.145   2.028 -0.4708  0.7941 -0.0065
41603SOL     OW28210   7.583   3.336   5.209 -0.2221  0.0791 -0.4073
41603SOL    HW128211   7.500   3.367   5.172 -0.2733 -1.0581 -1.2886
41603SOL    HW228212   7.612   3.408   5.265 -1.7688  0.5242 -0.1211
41604SOL     OW28213   2.884   0.862   5.825  0.1022 -0.1006  0.1467
41604SOL    HW128214   2.865   0.804   5.751  1.5508 -0.8719  0.3497
41604SOL    HW228215   2.974   0.843   5.849  0.3522  1.6455  0.7842
41605SOL     OW28216   2.251   9.144   0.634 -0.6142  0.0614  0.5215
41605SOL    HW128217   2.288   9.093   0.706 -0.9608 -1.3579 -0.2637
41605SOL    HW228218   2.173   9.095   0.608 -1.3017  1.3258  0.1071
41606SOL     OW28219   9.546   5.159   4.556  0.1294 -0.0961 -0.3607
41606SOL    HW128220   9.549   5.101   4.631  2.4185  0.5055  0.0818
41606SOL    HW228221   9.564   5.103   4.481 -1.7356 -0.6180 -0.4784
41607SOL     OW28222   7.609   7.505  10.722  0.0603 -0.1957 -0.2607
41607SOL    HW128223   7.546   7.531  10.788 -0.3884  0.4912 -0.9379
41607SOL    HW228224   7.559   7.450  10.661 -0.3941  1.7726 -1.7697
41608SOL     OW28225   0.932   0.797   3.275  0.4443 -0.2955  0.0504
41608SOL    HW128226   0.880   0.867   3.314  0.3510 -0.4916  0.2817
41608SOL    HW228227   1.000   0.779   3.340 -1.3148 -2.5206  1.4457
41609SOL     OW28228   2.592   4.026   8.712  0.3141 -0.1485  0.2682
41609SOL    HW128229   2.600   3.945   8.662 -1.0278  0.8917 -1.7607
41609SOL    HW228230   2.682   4.057   8.724  0.8703 -2.0192  1.3290
41610SOL     OW28231   4.401   3.760   1.316 -0.4080 -0.3498  0.0506
41610SOL    HW128232   4.376   3.742   1.226 -1.1274 -1.9887  0.5547
41610SOL    HW228233   4.428   3.853   1.315 -0.9535 -0.1764 -1.6972
41611SOL     OW28234   9.948  10.107   6.481  0.3060  0.1736  0.2552
41611SOL    HW128235   9.923  10.053   6.407 -0.8319  0.3690  0.4786
41611SOL    HW228236   9.889  10.182   6.477  2.1819  1.7010 -0.3609
41612SOL     OW28237   1.303  10.334   5.665  0.1140  0.9562 -0.6616
41612SOL    HW128238   1.381  10.327   5.610  0.5902  0.8275  0.0173
41612SOL    HW228239   1.325  10.287   5.745 -0.3320  1.6786 -0.0967
41613SOL     OW28240   9.795   5.836   9.413  0.0673  0.1253  0.3891
41613SOL    HW128241   9.727   5.822   9.346 -1.3198  0.5344  1.6546
41613SOL    HW228242   9.813   5.929   9.409  0.9203 -0.0611 -0.2663
41614SOL     OW28243   6.907   6.692   3.207 -0.5958 -0.3784 -0.5008
41614SOL    HW128244   6.970   6.638   3.159 -0.2931 -0.9535  0.5378
41614SOL    HW228245   6.833   6.633   3.224  0.3765 -0.9907  1.9993
41615SOL     OW28246   5.575   2.736   4.469  0.3718 -0.4727  0.5476
41615SOL    HW128247   5.661   2.776   4.457 -0.3911  0.5591 -2.1724
41615SOL    HW228248   5.564   2.680   4.393 -1.1861 -0.9354  1.0821
41616SOL     OW28249   7.686   0.847   7.514  0.3841 -0.0605  0.5448
41616SOL    HW128250   7.773   0.820   7.544  0.4389  0.6185  0.9954
41616SOL    HW228251   7.696   0.938   7.488 -0.1329 -0.0572  0.3413
41617SOL     OW28252   6.987  10.701   7.439  0.9424  0.1388  0.3878
41617SOL    HW128253   6.908  10.647   7.433 -0.0020  1.6357 -1.4943
41617SOL    HW228254   6.963  10.771   7.500  0.9613  0.3540  0.1491
41618SOL     OW28255   0.167   0.482   0.985  0.5962 -0.1846 -0.1404
41618SOL    HW128256   0.074   0.504   0.985  0.7593  0.5311 -0.1974
41618SOL    HW228257   0.173   0.404   0.929  0.0510 -0.1616 -0.2395
41619SOL     OW28258   1.095   8.051   1.938 -0.0027  0.0135  0.1251
41619SOL    HW128259   1.041   7.995   1.992 -0.2350  0.7964  0.7223
41619SOL    HW228260   1.091   8.012   1.850 -0.7227 -0.4899  0.3824
41620SOL     OW28261   6.646  10.873   2.593  0.7864 -0.1333 -0.1530
41620SOL    HW128262   6.614  10.910   2.511  1.3649  0.5154 -0.1028
41620SOL    HW228263   6.726  10.826   2.568 -0.3442 -2.0382 -0.3371
41621SOL     OW28264   0.216   1.963   9.682  0.6545  0.0033 -0.0026
41621SOL    HW128265   0.176   1.924   9.604 -0.5387 -1.7908  1.4177
41621SOL    HW228266   0.286   1.902   9.706  0.2511 -0.0828  0.9819
41622SOL     OW28267   1.191  10.917  10.867  0.3071 -0.3727 -0.2292
41622SOL    HW128268   1.252  10.917  10.794 -0.2957 -0.5265 -0.7366
41622SOL    HW228269   1.236  10.866  10.935  1.5804  1.1532  0.1433
41623SOL     OW28270   6.019   8.337   2.888 -0.0934 -0.0579  0.5798
41623SOL    HW128271   6.019   8.328   2.793  1.5956  0.0291  0.5521
41623SOL    HW228272   5.993   8.251   2.921 -0.8319 -0.0425  0.0618
41624SOL     OW28273  10.890   2.091   3.833 -0.4473 -0.5178  0.0798
41624SOL    HW128274  10.978   2.068   3.863 -0.1276 -3.2456 -2.4458
41624SOL    HW228275  10.904   2.166   3.774  0.3499 -1.3582 -0.8417
41625SOL     OW28276  10.091   5.744   9.576 -0.0461  0.0545  0.1882
41625SOL    HW128277   9.996   5.740   9.564 -0.4982 -0.8668  3.1790
41625SOL    HW228278  10.110   5.675   9.639  2.5273  0.6799  0.2091
41626SOL     OW28279   3.048   4.939   7.660 -0.4374  0.2690  0.3333
41626SOL    HW128280   3.123   4.897   7.702  0.0732  0.7482 -0.0749
41626SOL    HW228281   2.972   4.912   7.712 -0.1086 -0.9783  0.1976
41627SOL     OW28282   2.944   2.181   3.080  0.2065  0.5260  0.2213
41627SOL    HW128283   2.937   2.152   3.171 -0.1585 -0.3649 -0.0787
41627SOL    HW228284   2.865   2.234   3.066 -0.2177 -0.1142  0.1572
41628SOL     OW28285   2.326   7.126   6.186 -0.0078  0.2888  0.4906
41628SOL    HW128286   2.250   7.184   6.185 -0.7743 -0.7080  0.1074
41628SOL    HW228287   2.401   7.186   6.190 -0.6606  1.4615 -2.1715
41629SOL     OW28288   0.087   4.679   6.970  0.4571  0.2229 -0.5190
41629SOL    HW128289   0.106   4.613   7.036  1.0505 -0.9122 -1.7804
41629SOL    HW228290   0.123   4.643   6.889  1.1909  2.2976 -1.1630
41630SOL     OW28291   9.251   5.745   6.375 -0.2385 -0.3603 -0.0360
41630SOL    HW128292   9.166   5.773   6.340 -1.7803 -2.6144  1.5781
41630SOL    HW228293   9.265   5.800   6.452  0.0085  0.3072 -0.5482
41631SOL     OW28294  10.295   4.481   3.202 -0.1686  0.0348 -0.2394
41631SOL    HW128295  10.364   4.465   3.267 -0.3209 -1.5653 -0.4328
41631SOL    HW228296  10.342   4.508   3.123  0.1951 -0.3102 -0.1443
41632SOL     OW28297   5.347   5.746   3.093 -0.4956 -0.1546  0.4302
41632SOL    HW128298   5.268   5.726   3.042  0.7515 -1.0558 -1.2458
41632SOL    HW228299   5.334   5.699   3.176 -1.2190 -1.2322 -0.2661
41633SOL     OW28300   3.035   7.656   3.030 -0.2166  0.2543  0.2373
41633SOL    HW128301   2.947   7.693   3.031  0.1710  1.2505 -0.6296
41633SOL    HW228302   3.042   7.611   2.945 -0.4272 -1.2322  0.9721
41634SOL     OW28303   0.295   0.825   9.263 -0.6365 -0.4759  0.4968
41634SOL    HW128304   0.223   0.770   9.292 -1.2878 -0.0633 -0.2952
41634SOL    HW228305   0.304   0.892   9.331 -2.5160  0.8200 -0.4453
41635SOL     OW28306   3.997   9.921   8.770 -0.5293  0.2619  0.3984
41635SOL    HW128307   3.971  10.011   8.789  0.0321  0.6129 -0.4845
41635SOL    HW228308   3.915   9.877   8.747 -0.9108  0.3534  1.5181
41636SOL     OW28309   5.815   3.505   2.671  0.2349 -0.1586 -0.5071
41636SOL    HW128310   5.841   3.437   2.610 -1.0301  0.0519 -1.3255
41636SOL    HW228311   5.725   3.527   2.645 -0.1409  0.3238  1.0734
41637SOL     OW28312   2.191   0.810   7.928 -0.3921  0.4511  0.1768
41637SOL    HW128313   2.232   0.731   7.963 -2.6472 -1.6435 -1.6235
41637SOL    HW228314   2.161   0.857   8.006 -0.6472 -1.4105  1.2626
41638SOL     OW28315  10.009   0.661  10.487 -0.3568  0.0112 -0.0273
41638SOL    HW128316   9.993   0.706  10.403  1.9101 -0.7764 -0.9384
41638SOL    HW228317  10.043   0.730  10.544  1.1072 -0.0445 -0.7751
41639SOL     OW28318   0.477   4.959   3.106 -0.3784 -0.3608  0.4349
41639SOL    HW128319   0.547   4.990   3.164 -1.2650  0.7615  0.9390
41639SOL    HW228320   0.408   4.928   3.165 -1.3463  0.9118  0.0261
41640SOL     OW28321   7.752   5.987   9.975 -0.1849  0.4345 -0.3975
41640SOL    HW128322   7.781   5.896   9.966  0.9212  0.9212 -2.6646
41640SOL    HW228323   7.695   5.987  10.051  1.1374 -1.8069  0.6986
41641SOL     OW28324   5.172   7.315   8.356 -0.3141 -0.1358  0.4078
41641SOL    HW128325   5.192   7.231   8.397 -0.2830 -1.2096 -1.6920
41641SOL    HW228326   5.236   7.324   8.286 -2.0254  0.2813 -1.1994
41642SOL     OW28327   2.146   1.691   2.245  0.0107  0.5035  0.2136
41642SOL    HW128328   2.074   1.753   2.253  1.1379  1.7957  0.7477
41642SOL    HW228329   2.220   1.744   2.217  0.7579 -0.7967 -0.3586
41643SOL     OW28330  10.020   0.480   6.128 -0.5450  0.7415 -0.6471
41643SOL    HW128331  10.066   0.466   6.211  1.1488  1.2711 -1.4686
41643SOL    HW228332   9.936   0.518   6.154 -1.0881 -1.3268  0.9588
41644SOL     OW28333   0.126   2.680   6.414  0.1973 -0.1151  0.8398
41644SOL    HW128334   0.106   2.645   6.328  0.4149  0.2642  0.6318
41644SOL    HW228335   0.200   2.739   6.399 -0.1547  0.4207  1.1866
41645SOL     OW28336   0.944   9.684   0.745  0.0685 -0.3921  0.2370
41645SOL    HW128337   0.898   9.767   0.730  1.0952 -0.1084 -1.6981
41645SOL    HW228338   0.875   9.617   0.742 -0.3800  0.0937 -1.7745
41646SOL     OW28339   7.141   9.281   0.501 -0.3558  0.1572  0.0996
41646SOL    HW128340   7.140   9.365   0.456  1.3646  0.6138  0.8172
41646SOL    HW228341   7.227   9.278   0.544 -0.9036 -1.3898  1.1751
41647SOL     OW28342   4.248   5.144   0.565 -0.3933 -0.4422 -0.3558
41647SOL    HW128343   4.161   5.138   0.605  0.1913  0.1815  1.0879
41647SOL    HW228344   4.250   5.072   0.502 -1.4518 -1.3318  0.5717
41648SOL     OW28345   6.788   5.268   2.216  0.4128 -0.2517  0.3866
41648SOL    HW128346   6.764   5.206   2.284  0.4217  0.4267  1.0234
41648SOL    HW228347   6.880   5.290   2.235  0.2418  0.3823  0.5149
41649SOL     OW28348   0.524   6.172   3.356 -0.0846 -0.3353 -0.5450
41649SOL    HW128349   0.435   6.136   3.355 -0.7251  1.1536 -0.2828
41649SOL    HW228350   0.513   6.263   3.328  0.8462  0.8731  2.5986
41650SOL     OW28351   8.423   7.871   4.491 -0.2403  0.2159  0.1068
41650SOL    HW128352   8.350   7.809   4.500 -0.4307  0.4260  0.0260
41650SOL    HW228353   8.393   7.933   4.425 -0.3274  0.7856  0.6701
41651SOL     OW28354   7.979   3.782   6.013  0.0017 -0.4523  0.1898
41651SOL    HW128355   7.960   3.840   5.939  0.7995  0.0369  0.3517
41651SOL    HW228356   7.990   3.695   5.974  1.0464 -0.0872 -0.3565
41652SOL     OW28357   2.148   4.666   9.807 -0.1874 -0.0123  0.1239
41652SOL    HW128358   2.210   4.648   9.737  0.5349  1.1565  0.4374
41652SOL    HW228359   2.177   4.611   9.880 -0.8574 -1.1244 -0.4290
41653SOL     OW28360   5.524   4.120   0.981 -0.3137 -0.0447 -0.1589
41653SOL    HW128361   5.446   4.129   1.036  0.3061 -0.6495  0.8796
41653SOL    HW228362   5.570   4.045   1.019  0.8458  0.3982 -0.6538
41654SOL     OW28363   5.340   9.052   8.833 -0.3223 -0.3273 -0.3426
41654SOL    HW128364   5.324   9.134   8.786  1.3040  0.8306  1.0263
41654SOL    HW228365   5.353   8.987   8.764 -0.9003  0.6963 -1.4534
41655SOL     OW28366   9.431  10.334   4.265 -0.7667 -0.4257 -0.4817
41655SOL    HW128367   9.509  10.324   4.320 -1.7431 -0.9160  0.8490
41655SOL    HW228368   9.417  10.247   4.228 -0.8664 -0.4037 -0.4951
41656SOL     OW28369   4.600   3.670   3.061  0.4644  0.3355 -0.4412
41656SOL    HW128370   4.517   3.655   3.015 -0.0507  0.5674  0.3765
41656SOL    HW228371   4.596   3.761   3.089  1.0855  0.4011 -0.5676
41657SOL     OW28372   2.842   9.972  10.146  0.0492 -0.3674 -0.3631
41657SOL    HW128373   2.891  10.049  10.173  0.1698 -0.4818 -0.2522
41657SOL    HW228374   2.780   9.956  10.217 -1.5111  0.9227 -1.3528
41658SOL     OW28375   5.381   6.002   2.720 -0.7099 -0.1987  0.4586
41658SOL    HW128376   5.412   6.092   2.731 -1.9883  0.3715 -0.3001
41658SOL    HW228377   5.432   5.951   2.782 -1.5268  1.4204  2.5924
41659SOL     OW28378   2.838   0.670   2.821  0.5416  0.0879 -0.1208
41659SOL    HW128379   2.776   0.602   2.796  0.0395  0.5284 -0.0956
41659SOL    HW228380   2.924   0.630   2.809  0.2537 -1.1325  1.5239
41660SOL     OW28381   0.927   9.610   2.230  0.6217 -0.2319 -0.1619
41660SOL    HW128382   0.866   9.666   2.278  0.5593  0.3112 -0.8536
41660SOL    HW228383   1.013   9.648   2.248  0.7790 -1.0593  0.8958
41661SOL     OW28384   9.371   9.810   7.792  0.3347 -0.0124 -0.8540
41661SOL    HW128385   9.276   9.806   7.804  0.5300 -1.1028  0.6935
41661SOL    HW228386   9.392   9.734   7.738  0.5386 -1.2578  0.8769
41662SOL     OW28387   4.931   0.153   8.785  0.3236  0.1063 -0.1986
41662SOL    HW128388   4.980   0.205   8.722  1.7555 -0.4959  0.3668
41662SOL    HW228389   4.842   0.188   8.782  0.8479  1.4283 -1.0537
41663SOL     OW28390   2.834   7.717   2.589 -0.3065  0.0549 -0.4035
41663SOL    HW128391   2.766   7.663   2.550 -1.6471  0.9079  0.6392
41663SOL    HW228392   2.840   7.687   2.680 -1.1882  1.7057  0.2355
41664SOL     OW28393   8.098   2.961   8.680  0.5935  0.1111  0.0014
41664SOL    HW128394   8.010   2.930   8.658  0.0456  1.7504 -0.2579
41664SOL    HW228395   8.153   2.882   8.676 -1.0389 -1.1742  1.3144
41665SOL     OW28396   1.126   2.845   6.500  0.1832  0.4200  0.2157
41665SOL    HW128397   1.039   2.881   6.482  0.8861  1.2126 -1.9179
41665SOL    HW228398   1.186   2.920   6.490  1.2801 -0.4776 -0.1855
41666SOL     OW28399   4.500   6.605   0.190 -0.2838 -0.1032  0.0038
41666SOL    HW128400   4.548   6.662   0.129  2.5579 -2.4588 -0.1747
41666SOL    HW228401   4.452   6.666   0.246  1.9507  2.4531 -0.6433
41667SOL     OW28402   6.629  10.145   3.683  0.4367  0.0757  0.3071
41667SOL    HW128403   6.590  10.067   3.722  0.0918 -0.5122 -1.1264
41667SOL    HW228404   6.580  10.218   3.721 -0.5887 -0.5294  0.1911
41668SOL     OW28405   5.875   5.687   5.824 -0.2291  0.4266 -0.0139
41668SOL    HW128406   5.825   5.633   5.885 -1.4543 -2.1843 -3.0606
41668SOL    HW228407   5.809   5.746   5.787 -0.6233 -1.2375 -2.1297
41669SOL     OW28408   4.829   9.123   4.983  0.0731  0.0022  0.2417
41669SOL    HW128409   4.831   9.113   5.078  0.9534  0.4972  0.2875
41669SOL    HW228410   4.902   9.070   4.952  0.3217  0.5359 -0.0870
41670SOL     OW28411   1.001   8.303   0.244  0.0441  0.5583 -0.0001
41670SOL    HW128412   0.971   8.267   0.161 -1.3712  1.5693  0.0372
41670SOL    HW228413   1.041   8.229   0.290 -0.7978 -0.4293 -0.8142
41671SOL     OW28414   4.759   7.137   6.290 -0.1889 -0.2818 -0.1376
41671SOL    HW128415   4.735   7.218   6.337 -1.2213  0.9404 -2.6049
41671SOL    HW228416   4.723   7.067   6.345 -2.5473  1.1334  0.2911
41672SOL     OW28417   3.136   2.374   2.520 -0.0756  0.0442  0.0580
41672SOL    HW128418   3.070   2.328   2.572 -0.6977 -1.8416 -2.2045
41672SOL    HW228419   3.200   2.406   2.584 -0.8282 -2.0402  1.9817
41673SOL     OW28420   6.072   3.885   3.947  0.0346  0.4677  0.8045
41673SOL    HW128421   6.027   3.913   4.027 -0.2953 -1.1543  1.2319
41673SOL    HW228422   6.014   3.911   3.876 -0.7265 -0.0041  1.2426
41674SOL     OW28423   2.210   7.806   4.256 -0.1498 -0.1472 -0.0005
41674SOL    HW128424   2.194   7.894   4.222 -0.6648  0.1108  0.8955
41674SOL    HW228425   2.141   7.791   4.320  0.1821 -1.0460  0.1683
41675SOL     OW28426   7.229  10.574   2.760 -0.3685  0.1789 -0.0857
41675SOL    HW128427   7.216  10.514   2.834  0.2993 -0.1821 -0.2510
41675SOL    HW228428   7.228  10.661   2.800  1.1664 -0.0562  0.5595
41676SOL     OW28429   5.032   4.225   8.120 -0.0836 -0.1377  0.4002
41676SOL    HW128430   5.018   4.171   8.197  1.7220 -0.1102  0.7738
41676SOL    HW228431   4.997   4.173   8.047  0.1644 -1.0919  0.9568
41677SOL     OW28432   3.688   2.746   4.570 -0.7305  0.4358 -0.1636
41677SOL    HW128433   3.735   2.683   4.515  0.7187  0.3988  1.0396
41677SOL    HW228434   3.602   2.756   4.529 -1.3319 -2.9353  0.0104
41678SOL     OW28435   9.048   3.494   0.908 -0.3381  0.2745  0.3828
41678SOL    HW128436   9.118   3.516   0.969 -0.0493 -0.8279  0.4858
41678SOL    HW228437   9.085   3.514   0.822  0.0686 -0.1841  0.4448
41679SOL     OW28438   0.700   0.743   8.974  0.0676 -0.8518  0.3577
41679SOL    HW128439   0.642   0.819   8.971 -0.9864 -1.5468  1.8511
41679SOL    HW228440   0.665   0.683   8.909  1.4350  0.2243 -1.4849
41680SOL     OW28441   8.776   4.273   6.675  0.1322 -0.3617  1.0437
41680SOL    HW128442   8.750   4.302   6.588  1.0427  0.1717  0.9363
41680SOL    HW228443   8.803   4.353   6.720 -0.1667 -0.6581  1.7569
41681SOL     OW28444   4.710   0.980  10.601 -0.5655  0.0895  0.1809
41681SOL    HW128445   4.799   0.965  10.633 -0.8804 -1.3799  0.4468
41681SOL    HW228446   4.687   1.068  10.632  1.1293  0.8942 -0.7056
41682SOL     OW28447   6.082   6.046  10.217 -0.0771  0.5979  0.5654
41682SOL    HW128448   6.105   5.955  10.199  4.0601  1.8867 -2.2816
41682SOL    HW228449   5.989   6.053  10.195 -0.0516 -2.5142 -1.0381
41683SOL     OW28450   8.719  10.163   9.940  0.0714 -0.0688  0.2551
41683SOL    HW128451   8.667  10.173   9.861  0.9061 -0.0092 -0.3049
41683SOL    HW228452   8.655  10.152  10.010 -0.6722 -1.0188 -0.5439
41684SOL     OW28453   0.784   1.335   2.055  0.6639 -0.9087 -0.0769
41684SOL    HW128454   0.833   1.315   2.135  0.0498 -1.2987  0.2107
41684SOL    HW228455   0.833   1.291   1.985  1.1534 -0.6422  0.0969
41685SOL     OW28456   8.290   4.686   4.535  0.5890 -0.0964 -0.2240
41685SOL    HW128457   8.323   4.688   4.445  1.2351 -0.7533 -0.0134
41685SOL    HW228458   8.349   4.744   4.583  0.9423 -0.6290 -0.0070
41686SOL     OW28459  10.877   2.204   1.542  0.2401 -0.1274  0.0975
41686SOL    HW128460  10.810   2.190   1.475 -0.1052  1.7721 -0.0040
41686SOL    HW228461  10.827   2.219   1.622  0.4903  1.4636 -0.0092
41687SOL     OW28462   7.298   0.546   0.756  0.3351 -0.6176  0.4737
41687SOL    HW128463   7.337   0.626   0.790  1.5862 -1.9258  2.2808
41687SOL    HW228464   7.209   0.546   0.791  1.1155 -1.1821  2.6025
41688SOL     OW28465  10.338   4.654   0.323 -0.6233 -0.0603 -0.2634
41688SOL    HW128466  10.421   4.701   0.321 -0.8076  0.2704 -1.9795
41688SOL    HW228467  10.318   4.643   0.416 -0.0694  2.3476  0.1945
41689SOL     OW28468   0.158   0.683   9.856 -0.1013  0.1292  0.2099
41689SOL    HW128469   0.145   0.588   9.851 -1.4506  0.2551  0.9299
41689SOL    HW228470   0.227   0.701   9.791  0.1514 -1.3243  0.0379
41690SOL     OW28471   4.617   0.710   6.841  0.4237  0.2528  0.4501
41690SOL    HW128472   4.525   0.695   6.819  0.7120  0.2078 -0.8023
41690SOL    HW228473   4.650   0.763   6.769  1.6320 -0.5834  0.3556
41691SOL     OW28474   9.599   2.814  10.268 -0.3080  0.4980  0.1852
41691SOL    HW128475   9.570   2.816  10.359  2.0836  1.3166  0.9999
41691SOL    HW228476   9.613   2.906  10.244  1.9803  0.1758  0.0534
41692SOL     OW28477   3.212   7.748   9.174  0.4585 -0.2283  0.1079
41692SOL    HW128478   3.266   7.731   9.251  2.8891  1.4192 -1.0749
41692SOL    HW228479   3.150   7.816   9.202  1.2916  0.3289  0.6521
41693SOL     OW28480   9.175   6.957   0.757  0.7300 -0.3702  0.1398
41693SOL    HW128481   9.236   6.886   0.777  1.2055 -0.3580 -1.1908
41693SOL    HW228482   9.208   7.032   0.806 -0.6025 -1.3731  2.7584
41694SOL     OW28483   9.083   8.647   5.135  0.5876  0.0410  0.4447
41694SOL    HW128484   9.078   8.589   5.059  1.0311 -0.0926  0.5140
41694SOL    HW228485   9.175   8.644   5.162  0.2137 -0.8909  1.7345
41695SOL     OW28486   1.867   5.598   5.755 -0.1676 -0.0558  0.0492
41695SOL    HW128487   1.805   5.668   5.732  0.0512 -0.4503 -1.8595
41695SOL    HW228488   1.953   5.640   5.749 -0.0136 -0.5405 -1.4386
41696SOL     OW28489   1.652  10.567   7.463 -0.3286  0.1792 -0.2982
41696SOL    HW128490   1.575  10.522   7.428 -1.2719 -0.3117  2.1975
41696SOL    HW228491   1.723  10.544   7.402 -1.8719 -0.3158 -2.0041
41697SOL     OW28492   7.803   3.376   2.179  0.2349 -0.8619  0.0802
41697SOL    HW128493   7.713   3.392   2.151  0.7109  1.1602 -0.5063
41697SOL    HW228494   7.796   3.342   2.268 -1.0993  3.7874  2.0507
41698SOL     OW28495   5.076   4.014   9.450 -0.7769 -0.0058  0.0120
41698SOL    HW128496   5.083   3.921   9.428  1.0845 -0.3990  1.9997
41698SOL    HW228497   5.105   4.059   9.371 -0.6992 -1.1326 -0.6244
41699SOL     OW28498  10.522   3.328   8.085 -0.3175 -0.1522  0.0185
41699SOL    HW128499  10.616   3.341   8.091 -0.1224  0.4682 -2.6805
41699SOL    HW228500  10.487   3.415   8.064 -1.4704 -0.4007  0.8071
41700SOL     OW28501   9.752   2.132   8.587  0.0091 -0.4399 -0.2510
41700SOL    HW128502   9.658   2.140   8.571  0.0067  0.7897  0.2821
41700SOL    HW228503   9.762   2.143   8.681  0.6652 -0.8753 -0.2614
41701SOL     OW28504   4.804   0.652   1.708 -0.0736  0.2216  0.7131
41701SOL    HW128505   4.807   0.723   1.644 -0.3611 -0.1916  0.2329
41701SOL    HW228506   4.740   0.590   1.672  2.6877 -2.0342 -0.7751
41702SOL     OW28507   4.768   8.595   0.424 -0.3999  0.1449 -0.1369
41702SOL    HW128508   4.852   8.554   0.446 -0.4181  0.4756  0.5565
41702SOL    HW228509   4.709   8.569   0.494 -0.2849  1.7223  0.5878
41703SOL     OW28510   6.576   5.497  10.176  0.5151 -0.6060  0.0981
41703SOL    HW128511   6.582   5.523  10.268 -1.0043  0.2855 -0.0080
41703SOL    HW228512   6.505   5.551  10.141  1.1096 -0.8865 -1.6211
41704SOL     OW28513   2.214   6.759   2.966 -0.1707 -0.8640 -0.5939
41704SOL    HW128514   2.135   6.748   2.914 -1.4720  1.1510  0.8203
41704SOL    HW228515   2.268   6.820   2.916 -1.0839  0.4727 -0.0125
41705SOL     OW28516   1.003   3.961   7.181  0.5113  0.0066  0.2927
41705SOL    HW128517   1.088   3.917   7.187  0.3824 -0.2215  0.4930
41705SOL    HW228518   1.022   4.053   7.197  0.5997 -0.1719  1.3130
41706SOL     OW28519   0.028   7.601   8.255  0.7630 -0.3537  0.1149
41706SOL    HW128520   0.034   7.689   8.218 -0.0226 -0.2427  0.2303
41706SOL    HW228521   0.113   7.587   8.297  1.5336 -0.3402 -1.4017
41707SOL     OW28522   8.443   6.656   0.485  0.3410 -0.1077 -0.5729
41707SOL    HW128523   8.403   6.687   0.404  0.7030 -0.2562 -0.8158
41707SOL    HW228524   8.390   6.581   0.512  1.7073 -1.7447 -2.1086
41708SOL     OW28525   0.614   1.803   4.641 -0.5713  0.1101  0.2199
41708SOL    HW128526   0.553   1.802   4.567 -0.3777 -1.3677  0.0538
41708SOL    HW228527   0.573   1.746   4.707  0.6659 -1.0473  0.0403
41709SOL     OW28528   9.645   0.422   8.427  0.4645  0.1777  0.2235
41709SOL    HW128529   9.619   0.474   8.503  0.9178  2.1660 -0.8930
41709SOL    HW228530   9.582   0.350   8.424  0.3985  0.0750  2.4095
41710SOL     OW28531   7.172   2.497   6.639 -0.2169 -0.1796  0.0319
41710SOL    HW128532   7.136   2.427   6.693 -0.5310 -0.4467 -0.5169
41710SOL    HW228533   7.097   2.553   6.619  0.2123  0.9179  1.3370
41711SOL     OW28534   9.104   0.129   5.527  0.3620  0.1777  0.7071
41711SOL    HW128535   9.073   0.217   5.548 -2.4340 -0.7176  0.7119
41711SOL    HW228536   9.133   0.092   5.610  0.8230  0.8167  0.8333
41712SOL     OW28537   8.725   4.712   0.424  0.1108 -0.4345  0.2934
41712SOL    HW128538   8.765   4.691   0.508  2.4809  2.3912  0.0558
41712SOL    HW228539   8.763   4.649   0.363 -0.1574 -1.3077  1.0162
41713SOL     OW28540  10.178   4.789   7.887  0.5337 -0.3192 -0.2386
41713SOL    HW128541  10.133   4.873   7.876  1.1862 -0.2102 -2.5647
41713SOL    HW228542  10.249   4.807   7.949 -0.4960  0.3208  0.8059
41714SOL     OW28543   7.676   5.984   7.643 -0.0800 -0.2249 -0.0701
41714SOL    HW128544   7.700   5.969   7.552 -1.2809 -0.5410 -0.3600
41714SOL    HW228545   7.677   5.897   7.683 -0.9531 -0.2857 -0.1596
41715SOL     OW28546   5.201   5.595   3.661 -0.0481  0.0506 -0.3651
41715SOL    HW128547   5.207   5.515   3.610  1.6751  0.0649 -0.2368
41715SOL    HW228548   5.157   5.657   3.604  0.1725 -0.4780 -1.1194
41716SOL     OW28549   7.259   1.570  10.566  0.8208 -0.6417  0.1328
41716SOL    HW128550   7.204   1.494  10.585 -0.5093  0.2903  0.1442
41716SOL    HW228551   7.278   1.564  10.473 -0.6396 -0.1515 -0.2235
41717SOL     OW28552   3.986   4.887   5.029  0.0982 -0.1630  0.7110
41717SOL    HW128553   3.939   4.820   5.079 -0.3544  1.3625  2.4679
41717SOL    HW228554   3.971   4.967   5.079 -1.9419  1.9271 -2.8748
41718SOL     OW28555   8.173   8.660   8.329  0.2347 -0.0263  0.2669
41718SOL    HW128556   8.248   8.686   8.383 -0.4229  2.1196  0.2448
41718SOL    HW228557   8.135   8.585   8.374  0.8224  0.5307  1.7536
41719SOL     OW28558   8.823   1.514   2.727 -0.2848 -0.4088 -0.4508
41719SOL    HW128559   8.907   1.538   2.687  0.0898 -2.7574 -1.2096
41719SOL    HW228560   8.842   1.509   2.821  0.7247 -1.8867 -0.7023
41720SOL     OW28561   2.458   1.672   1.495 -0.0842  0.7399 -0.3027
41720SOL    HW128562   2.439   1.623   1.575  1.5614  0.3162 -0.1233
41720SOL    HW228563   2.494   1.755   1.525  2.0095 -0.0146 -0.5151
41721SOL     OW28564   6.055   6.880   0.678  0.3699  0.0372 -0.0129
41721SOL    HW128565   6.147   6.856   0.695  0.1922  0.2546  1.4061
41721SOL    HW228566   6.018   6.893   0.765 -1.1256 -0.4331 -0.5623
41722SOL     OW28567   7.801   2.690   4.026 -0.0171 -0.1490 -0.1878
41722SOL    HW128568   7.799   2.671   3.932 -0.7837  0.9290 -0.4180
41722SOL    HW228569   7.747   2.622   4.065 -1.1211  0.3642 -0.7526
41723SOL     OW28570  10.536   1.258  10.467  0.1484 -0.2144  0.4287
41723SOL    HW128571  10.611   1.316  10.463 -1.0080  1.2828 -0.8529
41723SOL    HW228572  10.508   1.248  10.376  0.3003 -2.8548  0.5775
41724SOL     OW28573   3.044  10.726   0.895 -0.1795 -0.7364  0.6175
41724SOL    HW128574   3.103  10.802   0.897 -0.3738 -0.5343 -0.6556
41724SOL    HW228575   2.956  10.763   0.891 -0.2593 -1.0059 -0.4781
41725SOL     OW28576  10.109   0.663  10.902  0.0308  0.0202 -0.1199
41725SOL    HW128577  10.038   0.609  10.867 -0.1123  1.1698 -1.7014
41725SOL    HW228578  10.087   0.674  10.995 -1.7819  0.1982 -0.5321
41726SOL     OW28579   4.734   3.304   3.758  0.1714 -1.2694  0.1841
41726SOL    HW128580   4.696   3.219   3.782  1.5009 -1.8882  0.2203
41726SOL    HW228581   4.824   3.283   3.732  0.2711  0.0377 -0.5922
41727SOL     OW28582   6.103   4.782   4.881  0.3694 -0.4288  0.5680
41727SOL    HW128583   6.160   4.810   4.809 -0.6670 -0.2552 -0.1997
41727SOL    HW228584   6.164   4.751   4.949  1.3753 -0.1940 -0.2061
41728SOL     OW28585   2.061   3.052   4.703  0.5226  0.5769  0.3017
41728SOL    HW128586   2.108   3.135   4.692  4.0518 -1.3168 -0.3102
41728SOL    HW228587   2.087   3.021   4.790  2.0036 -1.3562 -0.7527
41729SOL     OW28588  10.100   0.672   7.886  0.2906  0.0772  0.2266
41729SOL    HW128589  10.194   0.652   7.881  0.2342 -1.1016  2.5289
41729SOL    HW228590  10.091   0.754   7.838  2.1802 -0.6699 -1.5941
41730SOL     OW28591   6.387  10.263   1.430  0.0152 -0.2656  0.1138
41730SOL    HW128592   6.325  10.199   1.394 -1.0021  1.4655 -1.3738
41730SOL    HW228593   6.471  10.217   1.431 -0.4801 -1.3217 -1.9081
41731SOL     OW28594   7.913   9.690   1.445 -0.6891 -0.1469 -0.5507
41731SOL    HW128595   7.997   9.734   1.433  0.3847 -2.0172 -0.2821
41731SOL    HW228596   7.918   9.652   1.532 -2.1958  0.4539 -0.1781
41732SOL     OW28597   7.234   1.435   4.949 -0.0542 -0.2394 -0.5594
41732SOL    HW128598   7.220   1.502   4.882 -0.0546 -0.9247 -1.2496
41732SOL    HW228599   7.315   1.391   4.923 -1.3158 -2.1309 -1.5097
41733SOL     OW28600   5.170  10.019   8.223  0.2435  0.3041 -0.1549
41733SOL    HW128601   5.154  10.109   8.252  0.7122  1.1180 -2.2302
41733SOL    HW228602   5.220  10.029   8.142  1.1200 -1.8685  0.0531
41734SOL     OW28603   9.929   3.123  10.370 -0.1016 -0.2535  0.0390
41734SOL    HW128604   9.947   3.051  10.430  0.7553  1.1258  1.5486
41734SOL    HW228605   9.917   3.199  10.427  0.8540  1.1620 -1.5313
41735SOL     OW28606  10.567   1.133   6.382 -0.0482 -0.0103  0.6708
41735SOL    HW128607  10.615   1.216   6.382  0.4858 -0.3063  0.0069
41735SOL    HW228608  10.609   1.080   6.449  0.8632 -0.4300 -0.2122
41736SOL     OW28609   2.529   0.509   6.949 -0.2952 -0.0448 -0.7349
41736SOL    HW128610   2.584   0.433   6.967  0.2628  0.3445 -0.7881
41736SOL    HW228611   2.518   0.551   7.034 -1.6477 -0.8653 -0.4712
41737SOL     OW28612   1.098  10.441   6.148  0.3702 -0.1555 -0.4840
41737SOL    HW128613   1.020  10.386   6.144 -0.5894  1.1301  0.1147
41737SOL    HW228614   1.082  10.510   6.084  1.1764 -0.0653 -0.6002
41738SOL     OW28615   8.621   6.294   3.890 -0.1505  0.3897 -0.2385
41738SOL    HW128616   8.547   6.299   3.950  0.1264  0.3404  0.1077
41738SOL    HW228617   8.645   6.386   3.874  0.8741  0.3671  1.0885
41739SOL     OW28618   9.883   9.480   0.132 -0.6016 -1.2551 -0.2774
41739SOL    HW128619   9.898   9.397   0.087 -1.8157 -1.7893  0.2562
41739SOL    HW228620   9.864   9.455   0.223 -2.0855 -0.4917 -0.3517
41740SOL     OW28621   6.475   1.003   6.124  0.2559 -0.0716 -0.1490
41740SOL    HW128622   6.506   1.068   6.187 -0.4966 -1.1814  1.4442
41740SOL    HW228623   6.526   0.924   6.145 -1.0914 -0.9020  0.1510
41741SOL     OW28624   5.490   5.088   7.434 -0.2080  0.2522 -0.0280
41741SOL    HW128625   5.486   5.019   7.500 -2.1557  0.9928  0.7112
41741SOL    HW228626   5.520   5.044   7.355 -1.2848 -1.4358  0.4507
41742SOL     OW28627   5.938   4.504   2.797  0.1063 -0.0529  0.4075
41742SOL    HW128628   5.848   4.485   2.771 -0.0130 -1.3241  1.6208
41742SOL    HW228629   5.973   4.420   2.827  1.8238  0.3414 -0.3550
41743SOL     OW28630   8.331   9.118   7.544  0.2910 -0.2931  0.0628
41743SOL    HW128631   8.303   9.207   7.567 -2.6807 -1.2600  0.6052
41743SOL    HW228632   8.381   9.089   7.620  0.2658  0.5136  0.4031
41744SOL     OW28633   2.536   5.387   9.397  0.2527  0.4366 -0.1082
41744SOL    HW128634   2.548   5.292   9.399  1.0814  0.4983 -1.1524
41744SOL    HW228635   2.616   5.422   9.437  0.2490  0.7053 -0.3281
41745SOL     OW28636   3.770   6.417   2.574 -0.0482 -0.3473 -0.0188
41745SOL    HW128637   3.763   6.433   2.479 -1.9481 -1.0902 -0.0625
41745SOL    HW228638   3.681   6.391   2.599  0.9013 -2.2487  1.5800
41746SOL     OW28639   0.889   4.591   7.630 -0.4756 -0.4699  0.5676
41746SOL    HW128640   0.816   4.529   7.635 -0.5773 -0.2875  1.9371
41746SOL    HW228641   0.906   4.602   7.537 -0.2212 -2.8340  0.2732
41747SOL     OW28642   7.079  10.681  10.884  0.3293 -0.1141  0.4834
41747SOL    HW128643   7.085  10.746  10.954 -0.3977 -0.0415  0.4848
41747SOL    HW228644   7.038  10.728  10.811 -0.1640 -0.5575  0.4673
41748SOL     OW28645   7.132   5.154   7.876  0.3154  0.1154  0.3541
41748SOL    HW128646   7.100   5.147   7.786  0.6834  0.8504  0.1541
41748SOL    HW228647   7.089   5.233   7.910  0.3303 -0.0478  0.7622
41749SOL     OW28648   5.875   0.137   1.954  0.1144 -0.5144  0.5952
41749SOL    HW128649   5.946   0.175   2.006 -1.5502  0.3817  2.3325
41749SOL    HW228650   5.873   0.189   1.874 -0.2740  1.2419  1.7010
41750SOL     OW28651   0.784   5.661   0.641 -0.6217 -0.4898  0.1618
41750SOL    HW128652   0.824   5.647   0.555  1.4877  0.0641  0.9650
41750SOL    HW228653   0.859   5.664   0.701 -2.0420 -0.9246  2.0298
41751SOL     OW28654   6.134   0.322   1.667 -0.3717  0.3462  0.2824
41751SOL    HW128655   6.042   0.316   1.694 -0.5139  1.1335 -0.0108
41751SOL    HW228656   6.157   0.414   1.679 -0.3357  0.6793 -1.9194
41752SOL     OW28657   8.536   5.629   3.422  0.2680  0.0532 -0.0425
41752SOL    HW128658   8.598   5.564   3.389  0.1544 -0.4614  0.7155
41752SOL    HW228659   8.462   5.625   3.362 -0.1396 -1.1986  0.4975
41753SOL     OW28660   0.252   4.151   8.147 -0.0727  0.6650 -0.0504
41753SOL    HW128661   0.215   4.063   8.154 -0.4724  0.8374 -0.0049
41753SOL    HW228662   0.217   4.186   8.065  0.6539  0.5204 -0.4307
41754SOL     OW28663   1.672   3.948   8.432  0.2430  0.7812  0.0987
41754SOL    HW128664   1.704   4.001   8.360  0.4764  0.3097 -0.1467
41754SOL    HW228665   1.745   3.891   8.455 -0.2544  0.0135 -0.1674
41755SOL     OW28666   7.599   5.270   9.831 -0.8547 -0.4548 -0.2223
41755SOL    HW128667   7.550   5.192   9.805 -1.9057  0.7976 -2.2168
41755SOL    HW228668   7.536   5.321   9.883 -0.7669 -0.1280 -0.4316
41756SOL     OW28669  10.391   3.302   5.129  1.0551 -0.4434  0.1162
41756SOL    HW128670  10.338   3.225   5.150  0.4856  0.2459  1.2533
41756SOL    HW228671  10.450   3.313   5.204 -0.2381  1.3810  0.9301
41757SOL     OW28672   4.871   9.143   9.443 -0.0425  0.6627 -0.3831
41757SOL    HW128673   4.830   9.229   9.434 -1.1808  0.1333 -0.3943
41757SOL    HW228674   4.926   9.135   9.366 -0.9433  0.8535 -1.0618
41758SOL     OW28675   9.103   5.009   1.387 -0.5967  0.4991  0.2228
41758SOL    HW128676   9.141   4.931   1.346  2.5392  2.1000 -0.2011
41758SOL    HW228677   9.069   5.060   1.314 -0.7891  0.4601  0.2851
41759SOL     OW28678   1.937   7.669   1.043  0.1995  0.1786  0.0532
41759SOL    HW128679   1.892   7.733   1.098  0.8291  1.4356 -0.8262
41759SOL    HW228680   1.899   7.680   0.956 -1.3654 -2.3545  0.3053
41760SOL     OW28681   9.588   5.144   7.213 -0.1876 -0.0549  0.2615
41760SOL    HW128682   9.660   5.205   7.224  0.9854 -1.2592 -0.4586
41760SOL    HW228683   9.623   5.059   7.238 -0.8726 -0.9147 -1.4702
41761SOL     OW28684   0.381   9.913   1.339 -0.2866  0.2084 -0.2029
41761SOL    HW128685   0.476   9.918   1.343  0.0540 -3.0684 -0.8279
41761SOL    HW228686   0.357   9.961   1.259  0.6870  1.8398  0.4477
41762SOL     OW28687   1.463   5.507   5.117 -0.5424 -0.2629  0.1085
41762SOL    HW128688   1.429   5.417   5.115 -2.0842  0.3158 -0.9499
41762SOL    HW228689   1.398   5.556   5.166 -1.0874  0.7787 -1.5675
41763SOL     OW28690   8.074   2.535   9.028 -0.0448 -0.5306 -0.6128
41763SOL    HW128691   8.033   2.616   8.997  2.3356  1.4913  1.1192
41763SOL    HW228692   8.053   2.531   9.121 -0.1276 -1.9586 -0.6704
41764SOL     OW28693   5.970   3.303   0.796  0.2139  0.4077  0.0757
41764SOL    HW128694   5.997   3.248   0.870  1.1603  0.9734  0.1588
41764SOL    HW228695   5.894   3.258   0.760  1.2774 -1.2587 -0.1808
41765SOL     OW28696   3.713   3.523   8.483  0.4140  0.2569  0.3492
41765SOL    HW128697   3.699   3.606   8.438  2.0253 -0.3305 -1.3706
41765SOL    HW228698   3.718   3.458   8.413  1.7636 -0.9177  1.4579
41766SOL     OW28699   2.393  10.472   8.518 -0.1903  0.0702  0.3723
41766SOL    HW128700   2.426  10.560   8.500  2.3994 -0.3262  2.5835
41766SOL    HW228701   2.445  10.415   8.461  1.0116 -0.3160  1.8037
41767SOL     OW28702  10.713   5.136   6.457 -0.3945 -0.2620  0.4736
41767SOL    HW128703  10.738   5.094   6.539 -0.5495 -0.8705  0.2185
41767SOL    HW228704  10.759   5.220   6.457  2.3436 -1.6691 -0.3638
41768SOL     OW28705   8.560   1.649   5.337 -0.1334  0.6000 -0.2716
41768SOL    HW128706   8.500   1.683   5.271 -0.7270  0.6861  0.3056
41768SOL    HW228707   8.509   1.649   5.418 -0.1644 -1.6488 -0.2282
41769SOL     OW28708   5.254   1.278   5.060 -0.4600 -0.0251 -0.4016
41769SOL    HW128709   5.231   1.194   5.021  1.6642 -0.3908 -0.9836
41769SOL    HW228710   5.245   1.341   4.989 -1.6110  0.1806 -0.0849
41770SOL     OW28711   5.136   9.647   7.752 -0.0457  0.5579  0.2955
41770SOL    HW128712   5.222   9.688   7.748  0.5432 -0.7021 -0.5881
41770SOL    HW228713   5.087   9.686   7.680 -0.1657  1.1379  0.6829
41771SOL     OW28714   5.112   1.327   1.354 -0.2883 -0.5330 -0.0824
41771SOL    HW128715   5.019   1.340   1.375 -0.3254  0.4075 -0.7584
41771SOL    HW228716   5.135   1.244   1.396 -0.5243  0.8410  3.1357
41772SOL     OW28717   3.491   9.310   9.020 -0.3587  0.4306  0.0029
41772SOL    HW128718   3.412   9.261   8.996 -0.2370 -0.2742  0.9620
41772SOL    HW228719   3.465   9.402   9.018 -1.2185  0.2009  0.3442
41773SOL     OW28720   2.565   4.599   6.132 -0.0295 -0.4221  0.4806
41773SOL    HW128721   2.658   4.619   6.122  0.0276 -0.9455 -0.0545
41773SOL    HW228722   2.549   4.610   6.226 -0.1518  2.7300  0.2010
41774SOL     OW28723   7.490   1.018   8.475 -0.3956  0.6509  0.2212
41774SOL    HW128724   7.524   1.067   8.400 -0.3044  1.0618  0.5271
41774SOL    HW228725   7.497   1.079   8.548  0.1304  0.0351  0.7008
41775SOL     OW28726   6.909   6.538   4.330 -0.0704  0.0867 -0.7415
41775SOL    HW128727   6.827   6.583   4.312 -0.9173 -0.3995  1.5502
41775SOL    HW228728   6.886   6.446   4.333  0.4823 -0.0341  0.2131
41776SOL     OW28729   1.728   6.229   2.433 -0.3275  0.2011 -0.9808
41776SOL    HW128730   1.731   6.134   2.418  0.7941  0.3993 -2.1351
41776SOL    HW228731   1.763   6.240   2.521 -0.8876 -0.4783 -0.6559
41777SOL     OW28732   1.829   5.909   3.308 -0.3045  0.5154 -0.1518
41777SOL    HW128733   1.856   5.904   3.400  0.8494  1.0337 -0.4440
41777SOL    HW228734   1.821   6.003   3.291  1.0263  0.4970 -0.9904
41778SOL     OW28735   0.886  10.503  10.617 -0.8594 -0.0639  0.0073
41778SOL    HW128736   0.833  10.489  10.695 -0.9624 -1.6503 -0.3223
41778SOL    HW228737   0.882  10.420  10.569  1.2590  0.0251 -0.4349
41779SOL     OW28738   0.626   0.575   6.131 -0.0988 -0.2625 -0.0199
41779SOL    HW128739   0.718   0.596   6.145  0.1787  0.0504 -2.0189
41779SOL    HW228740   0.627   0.498   6.075 -1.0994 -1.5535  1.6391
41780SOL     OW28741   5.135   7.574   9.320  0.1643 -0.4913 -0.2728
41780SOL    HW128742   5.202   7.641   9.309 -0.6968  0.6284  1.0738
41780SOL    HW228743   5.155   7.533   9.404  0.3476 -1.5709 -0.8161
41781SOL     OW28744   0.382   1.208   7.713  0.3586  0.0669 -0.4885
41781SOL    HW128745   0.361   1.290   7.757 -2.5820  0.9978 -3.2400
41781SOL    HW228746   0.337   1.141   7.765 -0.4120  0.7202 -0.3000
41782SOL     OW28747   6.140   7.370   9.648 -0.2110  0.7622 -0.0927
41782SOL    HW128748   6.075   7.419   9.698 -1.6420 -1.6884  0.5512
41782SOL    HW228749   6.199   7.334   9.715 -0.7720 -0.6027 -0.3124
41783SOL     OW28750   5.159   0.022   2.177  0.1537  0.0370  0.3206
41783SOL    HW128751   5.066   0.031   2.199  0.2314  0.7616  0.3741
41783SOL    HW228752   5.182  -0.067   2.205 -0.7124 -0.4357 -0.3959
41784SOL     OW28753   2.555   9.600   7.849 -0.4223 -0.3346  0.7363
41784SOL    HW128754   2.482   9.632   7.902 -0.7886 -1.4516  0.9343
41784SOL    HW228755   2.514   9.564   7.771  0.0319  0.2651  0.2080
41785SOL     OW28756   9.270   5.361   8.705 -0.1933 -0.9528  0.3004
41785SOL    HW128757   9.262   5.446   8.748  2.2253  0.2904 -1.4901
41785SOL    HW228758   9.264   5.298   8.776 -1.9047  0.6756  1.7099
41786SOL     OW28759   7.672   6.589   5.799 -0.3896 -0.4368 -0.1305
41786SOL    HW128760   7.752   6.606   5.749 -1.3941 -2.0875 -2.4814
41786SOL    HW228761   7.602   6.595   5.735 -1.9568 -0.9423  1.4651
41787SOL     OW28762   6.712  10.610   5.908  0.1578 -0.4202 -0.3013
41787SOL    HW128763   6.740  10.582   5.821  1.2408  0.8339 -0.3856
41787SOL    HW228764   6.655  10.686   5.892 -0.4635 -0.8013  0.0476
41788SOL     OW28765   5.410   7.335   9.624  0.6414 -0.0813  0.5417
41788SOL    HW128766   5.424   7.320   9.717 -0.3571  2.4513  1.1862
41788SOL    HW228767   5.473   7.278   9.581 -0.6925 -3.4205  2.6002
41789SOL     OW28768   8.403   8.677   7.824  0.1648 -0.0329  0.0364
41789SOL    HW128769   8.465   8.617   7.866 -0.0791 -1.0550 -1.0279
41789SOL    HW228770   8.323   8.667   7.875  0.1520 -0.5546 -0.0784
41790SOL     OW28771   3.648  10.910   0.670  0.5683  0.1031 -0.5146
41790SOL    HW128772   3.727  10.856   0.674 -0.2554 -1.2932 -1.7252
41790SOL    HW228773   3.669  10.988   0.722  2.1881 -0.9063  0.4471
41791SOL     OW28774   8.501   1.589   9.171 -0.0364 -0.0549  0.7351
41791SOL    HW128775   8.561   1.664   9.166  1.9190 -1.5545  0.3519
41791SOL    HW228776   8.507   1.548   9.085 -2.8775  0.5798  0.1469
41792SOL     OW28777   0.874   0.386   9.433  0.5802 -0.4034 -0.4422
41792SOL    HW128778   0.859   0.469   9.479  0.8479 -0.0397 -1.0124
41792SOL    HW228779   0.950   0.402   9.378  1.8740 -1.6109  0.8797
41793SOL     OW28780   1.511  10.185   3.725  0.2246  0.1325  0.2084
41793SOL    HW128781   1.519  10.274   3.759  1.1379 -0.0389  0.4574
41793SOL    HW228782   1.556  10.187   3.640 -0.0429 -0.0087  0.0620
41794SOL     OW28783   2.017   7.607   8.245 -0.2205  0.0312 -0.3356
41794SOL    HW128784   2.064   7.569   8.319  1.9131  2.8586 -0.0766
41794SOL    HW228785   1.925   7.581   8.258  0.4238 -1.2371  2.1312
41795SOL     OW28786   0.765   7.768   5.266  0.1731 -0.8056 -0.0726
41795SOL    HW128787   0.688   7.823   5.278  0.8520  0.4639 -1.1264
41795SOL    HW228788   0.791   7.742   5.354  0.1622  1.1144  0.5466
41796SOL     OW28789   9.667   0.341   6.160 -0.0951 -0.0579  0.1181
41796SOL    HW128790   9.660   0.277   6.089 -0.7090  0.0293  0.0980
41796SOL    HW228791   9.630   0.296   6.236  0.3978 -0.0869  0.3478
41797SOL     OW28792   0.779   1.967   3.160 -0.0846  0.3739 -0.2161
41797SOL    HW128793   0.773   2.004   3.248 -0.4688  1.2338 -0.5864
41797SOL    HW228794   0.872   1.953   3.146 -0.0737 -0.4756  0.5971
41798SOL     OW28795   1.575   5.586   0.334 -0.3117  0.8448  0.4861
41798SOL    HW128796   1.581   5.499   0.293  0.7555  1.1821 -0.0973
41798SOL    HW228797   1.519   5.572   0.411 -3.6421  0.4768 -1.7802
41799SOL     OW28798   3.139   3.773   1.017  0.4122 -0.1480  0.0353
41799SOL    HW128799   3.072   3.773   0.949  0.3878 -1.3743  0.0377
41799SOL    HW228800   3.091   3.783   1.099  0.3386  0.0956 -0.0364
41800SOL     OW28801   6.090   8.333   4.569 -0.2266  0.1464 -0.1737
41800SOL    HW128802   6.018   8.316   4.509 -1.7340  0.4523  1.4550
41800SOL    HW228803   6.076   8.271   4.641  0.4445  0.9976  0.7216
41801SOL     OW28804  10.430   9.253   1.163 -0.1349 -0.1680 -0.1395
41801SOL    HW128805  10.465   9.269   1.251  2.2538 -1.9915 -0.6499
41801SOL    HW228806  10.336   9.273   1.170 -0.3562 -1.7172  3.2631
41802SOL     OW28807   9.005   9.752   5.404 -0.3453 -0.0405 -1.0060
41802SOL    HW128808   9.067   9.700   5.352 -0.5537 -0.3783 -0.9196
41802SOL    HW228809   8.921   9.740   5.361 -0.9753 -2.1133  0.6187
41803SOL     OW28810   7.180   7.955   2.673  0.3185  0.4126  0.0499
41803SOL    HW128811   7.103   7.903   2.648  1.6461 -1.7080  0.1642
41803SOL    HW228812   7.184   7.948   2.768 -0.5270  2.3482  0.2757
41804SOL     OW28813   8.912   2.905   5.271  0.1924  0.6848 -0.0251
41804SOL    HW128814   8.881   2.907   5.361 -0.2821 -0.3323 -0.1553
41804SOL    HW228815   9.000   2.868   5.276  0.3188  0.9972  0.0600
41805SOL     OW28816   5.037   2.039   7.871  0.0100 -0.0661  0.2067
41805SOL    HW128817   5.095   2.051   7.796  0.6642 -1.1895  0.5107
41805SOL    HW228818   5.040   1.945   7.889 -1.3761 -0.0458  0.6628
41806SOL     OW28819   6.453  10.698   7.618 -0.1737  0.3534 -0.5753
41806SOL    HW128820   6.496  10.613   7.625 -1.8419 -0.4115  1.3429
41806SOL    HW228821   6.367  10.679   7.579  0.1267  1.4514 -1.8559
41807SOL     OW28822   7.500   4.359   5.529  0.2688 -0.2227  0.5342
41807SOL    HW128823   7.495   4.338   5.435  2.7512 -0.5112  0.4055
41807SOL    HW228824   7.536   4.447   5.532 -0.0338 -0.1152  1.2254
41808SOL     OW28825   7.030   0.686   6.184 -0.0842 -0.3848  0.0010
41808SOL    HW128826   7.081   0.607   6.200  1.5211  0.5303 -0.3543
41808SOL    HW228827   7.095   0.752   6.159 -0.9227  1.9150  3.2061
41809SOL     OW28828   5.543   3.260   7.525  0.2306 -0.0490  0.3861
41809SOL    HW128829   5.454   3.294   7.532  0.0680 -0.7340  2.5734
41809SOL    HW228830   5.550   3.197   7.598  2.0997 -0.9460 -0.5018
41810SOL     OW28831   5.645   5.648   9.134 -0.4596 -0.2411  0.4203
41810SOL    HW128832   5.559   5.667   9.172 -1.1290 -2.5944  0.2184
41810SOL    HW228833   5.695   5.729   9.146 -2.7473  1.2784  0.3544
41811SOL     OW28834   1.949   0.204   3.128 -0.2911  0.0240 -0.1671
41811SOL    HW128835   2.033   0.236   3.096 -0.3566  0.7159  0.3266
41811SOL    HW228836   1.897   0.283   3.143 -0.4320 -0.3021  1.1536
41812SOL     OW28837   7.678   6.992   3.384 -0.1002  0.1433 -0.5953
41812SOL    HW128838   7.715   6.992   3.295  1.3411  1.3880 -0.0373
41812SOL    HW228839   7.593   7.035   3.374  0.7687  1.8124 -1.1328
41813SOL     OW28840   1.053  10.544   8.939 -0.0235  0.7625 -0.3840
41813SOL    HW128841   1.096  10.608   8.996  1.3149 -0.0357 -0.4623
41813SOL    HW228842   0.959  10.563   8.948  0.2306  1.4360  1.1383
41814SOL     OW28843  10.634   5.212   1.278 -0.0318  0.2710 -0.1458
41814SOL    HW128844  10.698   5.183   1.213  0.1346 -2.9091  1.2849
41814SOL    HW228845  10.594   5.132   1.311 -2.0827  1.9259  1.7199
41815SOL     OW28846   7.436   4.701   1.286  0.1200 -0.1416  0.1941
41815SOL    HW128847   7.360   4.750   1.254  0.8711  1.1271  0.3252
41815SOL    HW228848   7.426   4.700   1.381 -0.7824 -1.7504  0.1255
41816SOL     OW28849   0.914   4.397   2.947  0.2956  0.1334 -0.2513
41816SOL    HW128850   0.824   4.366   2.936  0.0142  0.7822  0.2012
41816SOL    HW228851   0.934   4.380   3.039  1.0378 -1.0428 -0.6048
41817SOL     OW28852   2.415   2.917   9.545  0.2879 -0.0557 -0.2044
41817SOL    HW128853   2.496   2.866   9.546 -0.2570 -0.9666  1.4232
41817SOL    HW228854   2.346   2.851   9.546 -0.5029  0.7095 -1.4504
41818SOL     OW28855   2.633   6.191   6.878 -0.0494  0.1762 -0.1661
41818SOL    HW128856   2.549   6.214   6.918 -1.0975 -0.3469 -1.9561
41818SOL    HW228857   2.663   6.272   6.837 -1.6271 -0.4877 -2.8042
41819SOL     OW28858   1.555   0.065   2.942  0.4298 -0.0283 -0.6082
41819SOL    HW128859   1.500  -0.013   2.954 -0.0918  0.6165  1.4179
41819SOL    HW228860   1.644   0.033   2.958  0.1820 -0.1516  0.6126
41820SOL     OW28861   7.025   0.954  10.241  0.0105  0.4124  0.6706
41820SOL    HW128862   6.948   0.942  10.186 -0.3952 -1.5572  1.5477
41820SOL    HW228863   7.095   0.975  10.180 -0.5526 -1.0532 -0.5607
41821SOL     OW28864   9.144   8.668   9.148  0.4921  0.0244  0.1177
41821SOL    HW128865   9.148   8.730   9.075  1.4063 -0.0274  0.1091
41821SOL    HW228866   9.138   8.722   9.226  0.5872  0.1079  0.0666
41822SOL     OW28867  10.041   8.762   6.469 -0.1909  0.2155 -0.4323
41822SOL    HW128868  10.016   8.720   6.552 -0.0062  0.5583 -0.2041
41822SOL    HW228869  10.095   8.836   6.495 -1.6203  1.4269 -0.7566
41823SOL     OW28870   4.144   3.180   9.633 -0.5307 -0.1380 -0.0231
41823SOL    HW128871   4.200   3.121   9.683 -1.1757  0.0891  1.0005
41823SOL    HW228872   4.158   3.155   9.542  0.6049 -0.6237  0.2616
41824SOL     OW28873  10.699  10.008   3.679  0.5948 -0.5438  0.2908
41824SOL    HW128874  10.721  10.073   3.746  0.1198 -1.0779  0.9761
41824SOL    HW228875  10.732  10.046   3.598  1.3480  0.0334  0.8445
41825SOL     OW28876   9.807   1.930   0.569  0.3812  0.3544 -0.4909
41825SOL    HW128877   9.813   2.023   0.589  2.1822  0.2013 -0.1056
41825SOL    HW228878   9.772   1.890   0.649  0.3595  0.6158 -0.3704
41826SOL     OW28879   5.017   3.498   1.237 -0.0255  0.6227 -0.3101
41826SOL    HW128880   5.075   3.559   1.192 -1.1352  0.6591 -1.7849
41826SOL    HW228881   4.975   3.551   1.305 -1.3070  1.6963 -1.8562
41827SOL     OW28882   6.264   9.742   0.374 -0.5399  0.7961  0.0956
41827SOL    HW128883   6.173   9.733   0.344  0.5013 -1.1374 -2.9462
41827SOL    HW228884   6.269   9.688   0.452 -1.2479 -2.2297 -1.7939
41828SOL     OW28885   1.915  10.366   0.143  0.5013  0.3247  0.5135
41828SOL    HW128886   1.864  10.403   0.215  3.3771  0.7432  2.4558
41828SOL    HW228887   1.909  10.271   0.155 -1.8318  0.1850 -0.8809
41829SOL     OW28888   5.893   2.956   8.129  0.0890 -0.5722  0.4071
41829SOL    HW128889   5.823   2.901   8.164  1.2524 -2.2129  0.2912
41829SOL    HW228890   5.932   2.905   8.059 -0.2167  1.3938 -1.2842
41830SOL     OW28891   6.281   0.106   7.420 -0.0266 -0.0071  0.3627
41830SOL    HW128892   6.209   0.057   7.460 -0.6610  1.4993  1.1442
41830SOL    HW228893   6.346   0.039   7.399 -1.6972 -1.4396 -0.5374
41831SOL     OW28894   2.914   0.316   5.590 -0.3333 -0.3189 -0.3428
41831SOL    HW128895   2.836   0.366   5.615  0.5145  0.6608  0.4368
41831SOL    HW228896   2.971   0.320   5.668  1.4041  0.8150 -1.6044
41832SOL     OW28897   2.454   0.641   1.555  0.5384 -0.0042  0.0997
41832SOL    HW128898   2.463   0.631   1.460  1.2187  0.5200  0.1086
41832SOL    HW228899   2.415   0.558   1.584 -0.1871  0.0399 -0.7025
41833SOL     OW28900   0.673   2.924   9.565  0.1860  0.5224  0.3432
41833SOL    HW128901   0.643   3.014   9.553 -1.5278 -0.0984 -0.2730
41833SOL    HW228902   0.747   2.931   9.625  0.8280  2.4538 -0.5969
41834SOL     OW28903   3.441   4.384   0.784  0.0801 -0.1293 -0.3646
41834SOL    HW128904   3.364   4.390   0.727  0.2989 -1.1918 -0.7845
41834SOL    HW228905   3.455   4.291   0.796 -0.7270  0.0028  2.4850
41835SOL     OW28906   8.870   1.490   5.039  0.0255  0.9756  0.2868
41835SOL    HW128907   8.856   1.408   4.990 -0.0607  2.0393 -1.5685
41835SOL    HW228908   8.902   1.462   5.124 -2.4474 -1.1114  0.6596
41836SOL     OW28909   8.046   8.270   1.443 -0.5011 -0.2389 -0.0562
41836SOL    HW128910   8.015   8.181   1.459  0.1070 -0.7540 -1.5170
41836SOL    HW228911   8.086   8.265   1.356  2.1047  0.7760  0.9912
41837SOL     OW28912  10.417   3.176   8.529 -0.0991  0.7318  0.4152
41837SOL    HW128913  10.465   3.123   8.467 -0.6118  0.1264  0.5194
41837SOL    HW228914  10.481   3.200   8.596 -0.3394 -1.8452  1.7123
41838SOL     OW28915   4.529   4.821   8.122  0.2971  0.2799  0.2752
41838SOL    HW128916   4.444   4.835   8.164  0.2143  0.3145  0.1001
41838SOL    HW228917   4.569   4.908   8.119 -0.7379  0.7508 -1.9203
41839SOL     OW28918   5.975   3.219   9.709 -0.3202 -0.2620  0.9508
41839SOL    HW128919   5.946   3.310   9.704  0.6271  0.1455  2.3125
41839SOL    HW228920   5.899   3.168   9.682 -1.0537  0.9048  0.7412
41840SOL     OW28921  10.077   8.624   8.402  0.7296  0.0779 -0.0396
41840SOL    HW128922  10.127   8.661   8.330  0.3005 -0.7800 -0.7889
41840SOL    HW228923  10.003   8.684   8.412  0.8480  0.2574 -0.2426
41841SOL     OW28924   4.103  10.908   7.789  0.4306  0.0036  0.2830
41841SOL    HW128925   4.190  10.948   7.782  0.0887  0.7754  0.3983
41841SOL    HW228926   4.043  10.982   7.794 -0.2118 -0.5295  0.5179
41842SOL     OW28927   8.855   8.655  10.443 -0.5418 -0.4064  0.2103
41842SOL    HW128928   8.880   8.746  10.457 -0.7905 -0.6837  3.0719
41842SOL    HW228929   8.930   8.615  10.399 -0.0717  0.9754 -0.2713
41843SOL     OW28930   9.875   0.325   0.658 -0.0748 -0.2051 -0.3287
41843SOL    HW128931   9.781   0.318   0.676 -0.0877  2.2944  1.0055
41843SOL    HW228932   9.886   0.283   0.573 -2.9143  1.8312 -1.8701
41844SOL     OW28933  10.634   9.957   1.039 -0.3660 -0.1680  0.2435
41844SOL    HW128934  10.562  10.012   1.011  0.8000  0.6654 -1.2826
41844SOL    HW228935  10.598   9.868   1.039 -1.3456  0.2159 -0.5857
41845SOL     OW28936  10.292   9.060   4.733 -0.0435 -0.3649  0.4124
41845SOL    HW128937  10.272   9.107   4.652 -0.9008 -1.5321 -0.0695
41845SOL    HW228938  10.383   9.032   4.723 -0.3556 -1.1044 -0.4725
41846SOL     OW28939   5.079   4.261   0.608  0.5538 -0.7016  0.4641
41846SOL    HW128940   5.007   4.225   0.556  1.7063 -3.4502  0.6100
41846SOL    HW228941   5.091   4.198   0.679  1.8958  0.6811  1.5365
41847SOL     OW28942   8.275   9.530   6.275  0.3615  0.0490  0.4217
41847SOL    HW128943   8.296   9.436   6.279  0.6204  0.0840  0.0309
41847SOL    HW228944   8.185   9.536   6.304  0.9960 -0.0640  2.5765
41848SOL     OW28945   4.061   5.160   1.438  0.0096 -0.1490  0.0126
41848SOL    HW128946   3.994   5.200   1.493 -0.7436 -0.9565 -0.2895
41848SOL    HW228947   4.105   5.096   1.495 -0.3249 -0.5132 -0.1356
41849SOL     OW28948  10.822   2.176   2.288  0.0649  0.1047  0.3046
41849SOL    HW128949  10.741   2.127   2.300 -0.6286  1.5536  1.8855
41849SOL    HW228950  10.874   2.122   2.227 -2.2436 -0.6022 -1.1492
41850SOL     OW28951   2.476   9.717   5.792  0.6997  0.2388  0.1830
41850SOL    HW128952   2.460   9.722   5.698  0.3002 -3.0504 -0.0243
41850SOL    HW228953   2.399   9.758   5.832 -0.2187 -0.3538 -0.9245
41851SOL     OW28954   8.065   4.835   4.771  0.3103  0.7802  0.2295
41851SOL    HW128955   8.051   4.810   4.680 -0.6723  3.2948 -0.3711
41851SOL    HW228956   8.033   4.760   4.822 -0.4764 -0.0716 -1.4570
41852SOL     OW28957   8.751   4.789   9.414 -0.7692  0.3303  0.0821
41852SOL    HW128958   8.667   4.744   9.421 -1.2053  1.0288 -0.6047
41852SOL    HW228959   8.806   4.747   9.481 -2.2116  1.0876  1.8174
41853SOL     OW28960   6.398   2.978   1.358  0.0761 -0.0627 -0.2315
41853SOL    HW128961   6.309   3.010   1.342  0.2107 -0.3592 -1.6739
41853SOL    HW228962   6.450   3.058   1.369 -0.3150  0.1168  0.3738
41854SOL     OW28963   1.539   5.678   5.479 -0.7699 -0.1410  0.0662
41854SOL    HW128964   1.459   5.682   5.532 -0.8971  0.2938 -0.1519
41854SOL    HW228965   1.610   5.673   5.543 -0.8092  2.0680  0.3788
41855SOL     OW28966   2.050   4.085   4.670  0.3383  0.0203 -0.3105
41855SOL    HW128967   2.034   4.089   4.575 -0.0151  0.0048 -0.2543
41855SOL    HW228968   1.962   4.081   4.708  0.4389 -3.4040 -0.1180
41856SOL     OW28969   8.304   3.714   2.695  0.0686 -0.1456  0.0298
41856SOL    HW128970   8.252   3.635   2.708 -2.1200  1.0580 -0.7722
41856SOL    HW228971   8.282   3.770   2.770 -0.2829  0.6071 -0.6175
41857SOL     OW28972   3.816   2.151   9.305  0.1164 -0.1718 -0.0856
41857SOL    HW128973   3.818   2.163   9.400 -3.1998 -0.1068  0.0786
41857SOL    HW228974   3.848   2.234   9.269  1.1108 -0.0901  0.9463
41858SOL     OW28975   3.847   7.717   0.180 -0.0924 -0.1161 -0.8346
41858SOL    HW128976   3.929   7.677   0.152 -0.3849  0.0729 -2.0039
41858SOL    HW228977   3.852   7.808   0.150  0.1779  0.5260  0.9972
41859SOL     OW28978   9.315   2.444   3.257  0.1002  0.4956 -0.0862
41859SOL    HW128979   9.324   2.539   3.254 -1.0623  0.6110 -0.5769
41859SOL    HW228980   9.404   2.411   3.270  0.4071  1.6783  1.0103
41860SOL     OW28981   7.359  10.553   9.854 -0.2563  0.0678  0.1856
41860SOL    HW128982   7.394  10.465   9.837 -2.3268 -0.6324 -0.8176
41860SOL    HW228983   7.264  10.543   9.844 -0.4590  2.7314 -1.4202
41861NA      NA28984   2.153   5.815   1.018 -0.1530  0.1123 -0.2455
41862NA      NA28985   8.612   5.003   8.236 -0.0529  0.3497  0.3993
41863NA      NA28986   8.913  10.341   4.849 -0.3491 -0.3559 -0.6830
41864NA      NA28987   3.930   9.126   7.109 -0.2566  0.1105 -0.0644
41865NA      NA28988   3.807  10.035   3.673 -0.3322 -0.2495 -0.0927
41866NA      NA28989   6.205   6.507   8.174  0.4115  0.3068  0.1325
41867NA      NA28990   3.943   4.978   4.836  0.2510  0.2985 -0.1831
41868NA      NA28991   2.840   3.071   7.240 -0.2170  0.0418 -0.1147
41869NA      NA28992   5.022   7.002   4.846 -0.2995 -0.0350 -0.2553
41870NA      NA28993   0.089   5.635   7.429 -0.0683 -0.0365 -0.2084
41871NA      NA28994   6.155   2.481   8.276  0.2844 -0.4129  0.1688
41872NA      NA28995   1.165   0.551   5.986  0.2442  0.0250  0.4820
41873NA      NA28996   4.477   3.611   4.336  0.2329 -0.2746  0.1739
41874NA      NA28997   9.972   0.910   5.662  0.4481  0.0542  0.3822
41875NA      NA28998   6.010   5.819   2.772 -0.0408 -0.5934 -0.2814
41876NA      NA28999   9.064   7.018   9.631  0.0067  0.2589 -0.3438
41877NA      NA29000   6.644   1.088   0.832  0.0115 -0.5429 -0.3570
41878NA      NA29001   2.597   0.372   9.647  0.2748 -0.3392  0.1097
41879NA      NA29002   3.389   8.976   6.198  0.0425 -0.8675 -0.3490
41880NA      NA29003   9.013   9.459   0.658  0.1759  0.0885 -0.7386
41881NA      NA29004   9.467   2.287   9.549  0.0026  0.3024  0.3398
41882NA      NA29005   2.105   4.479   4.628  0.1946  0.1252  0.1047
41883NA      NA29006   9.678   9.080   3.944  0.0862  0.5662  0.4271
41884NA      NA29007   1.294   7.647   0.065 -0.0313 -0.7003 -0.2204
41885NA      NA29008   9.948   0.583   3.317  0.5294  0.0962 -0.1218
41886NA      NA29009  10.747   7.965   3.251 -0.3170 -0.3358 -0.2860
41887NA      NA29010   0.721  10.859   6.994  0.3047 -0.0935  0.4396
41888NA      NA29011   2.999   0.989   2.420  0.2050 -0.1434 -0.7374
41889NA      NA29012   3.218   0.594   5.690 -0.1150 -0.1887  0.6648
41890NA      NA29013   1.466   1.192  10.892  0.6629 -0.1886  0.0394
41891NA      NA29014   9.814   1.335   3.960  0.0277  0.4834 -0.2762
41892NA      NA29015   9.670   9.114   8.250 -0.4400 -0.2395 -0.1228
41893NA      NA29016  10.742   6.610   8.872 -0.7474  0.1495  0.1503
41894NA      NA29017   3.898   3.546   8.042 -0.3794  0.0676 -0.0053
41895NA      NA29018   5.498   4.908   7.034  0.2055 -0.0422 -0.2838
41896NA      NA29019  10.068   6.636   3.384 -0.7981 -0.5874  0.3929
41897NA      NA29020   2.162   7.604   8.098  0.1995 -0.2335 -0.0713
41898NA      NA29021   8.193   7.144   7.943 -0.3391 -0.3375  0.1667
41899NA      NA29022   2.262   1.351   9.652 -0.3900 -0.4427  0.1822
41900NA      NA29023   0.407   4.276   9.836  0.1750 -0.0566  0.0974
41901NA      NA29024   9.019   4.865   7.706  0.0895  0.1583  0.5606
41902NA      NA29025   8.847   6.611   4.314  0.2096 -0.5814  0.0864
41903NA      NA29026   4.738   1.509   2.559  0.1940 -0.6559 -0.3856
41904NA      NA29027   9.073   4.900   6.572 -0.4022 -0.3114 -0.4441
41905NA      NA29028   7.803   6.466   6.919  0.2836 -0.2995  0.1939
41906NA      NA29029   5.010   2.903  10.687 -0.4220  0.0519  0.3676
41907NA      NA29030   9.405   9.758   9.158  0.0313 -0.2192  0.5097
41908NA      NA29031   9.184   2.447   5.289  0.5188  0.1836  0.1772
41909NA      NA29032   9.097   5.513   2.045  0.4285 -0.0888  0.2131
41910NA      NA29033   5.191   9.463   3.751  0.0289 -0.6397 -0.6557
41911NA      NA29034   2.423   0.152   4.997  0.6040  0.6547  0.0748
41912NA      NA29035   6.932   9.360   8.467  0.3366 -0.2608  0.3742
41913NA      NA29036   3.172   9.601  10.284  0.4984  0.0897  0.2988
41914NA      NA29037   9.401  10.689   0.208 -0.6720  0.6382 -0.1265
41915NA      NA29038   2.811   0.264   1.218 -0.3457 -0.2354 -0.0256
41916NA      NA29039   4.961   9.587   9.586 -0.5673  0.2867 -0.0878
41917NA      NA29040   0.008   2.004   7.476 -0.4604  0.1622 -0.1649
41918NA      NA29041   1.625  10.477   0.958 -0.3366 -0.3162  0.1577
41919NA      NA29042   4.200   7.983   3.338  0.1642  0.3320  0.4817
41920NA      NA29043   4.562   2.026   9.357 -0.4116  0.2334  0.1846
41921NA      NA29044   5.105   9.578   7.951  0.5384 -0.2572  0.6575
41922NA      NA29045   8.002   8.492   1.500  0.5897 -0.0041 -0.0859
41923NA      NA29046   6.784   7.167   5.164  0.2045 -0.2181 -0.1392
41924NA      NA29047   1.052   5.860   2.916  0.0341 -0.1496  0.6648
41925NA      NA29048   2.752   3.956   4.796 -0.3198 -0.0104 -0.3584
41926NA      NA29049   6.062  10.891   2.702  0.5616 -0.7528  0.1004
41927NA      NA29050   8.456   8.156  10.211  0.0316 -0.3341 -0.3166
41928NA      NA29051   7.344  10.480   7.941  0.1728  0.0263 -0.5008
41929NA      NA29052   9.346   5.251   0.982  0.7485  0.0241 -0.0415
41930NA      NA29053   3.785   6.356   0.621  0.1479  0.0113 -0.1182
41931NA      NA29054   5.959   9.729   3.749 -0.1549  0.4624  0.0367
41932NA      NA29055   6.413   4.753   7.831 -0.7831 -0.6535 -0.0820
41933NA      NA29056   4.728   0.594   2.201  0.2554  0.5528  0.1167
41934NA      NA29057   0.213   2.398   9.598  0.2140  0.3263 -0.1199
41935NA      NA29058   3.172   3.811   9.880 -0.1316  0.2541  0.2495
41936NA      NA29059   3.695   1.816   5.888  0.7438 -0.3705  0.1026
41937NA      NA29060   2.304   8.889   5.837 -0.1925 -0.1163 -0.5137
41938NA      NA29061   7.123  10.274   0.031  0.2878 -0.6187  0.4298
41939NA      NA29062   8.747   5.622   4.282  0.6380  0.0650  0.3510
41940NA      NA29063   0.883   1.498   8.512  0.0917 -0.1694 -0.0497
41941NA      NA29064   3.597   3.195   5.265 -0.0109 -0.6230  0.1000
41942NA      NA29065  10.032   5.626   5.765 -0.3013  0.2261  0.0778
41943NA      NA29066  10.376   6.997   7.404 -0.1311  0.2926 -0.0519
41944NA      NA29067   6.311   5.230   2.859 -0.2069  0.2172  0.1502
41945NA      NA29068   2.995   8.569   4.779 -0.0519  0.0182  0.4382
41946NA      NA29069   4.599   1.774   8.721  0.2795 -0.7264  0.1211
41947NA      NA29070  10.085   2.494   3.884 -0.2481 -0.1564 -0.0511
41948NA      NA29071   7.612   9.586   6.037  0.4245 -0.0674 -0.3005
41949NA      NA29072   5.183   8.676   2.322 -0.0993 -0.2790 -0.2652
41950NA      NA29073   7.339   4.044   3.941  0.1063  0.2453 -0.5367
41951NA      NA29074   4.295   8.576   8.223  0.0528  0.1577 -0.2409
41952NA      NA29075   7.655   5.289   7.244  0.2460 -0.0677 -0.1925
41953NA      NA29076   0.126   5.527   1.107 -0.3703  0.4772  0.2696
41954NA      NA29077   6.896   1.982   3.716 -0.6512  0.0711 -0.0905
41955NA      NA29078  10.300   2.793   2.852 -0.0695 -0.0285  0.0931
41956NA      NA29079   8.603   7.303   0.557  0.3674 -0.0829 -0.1766
41957NA      NA29080   9.998   2.054   4.177 -0.1398 -0.2500  0.1604
41958NA      NA29081   9.214   1.390   4.163 -0.5694 -0.2075 -0.1927
41959NA      NA29082   5.862   0.718   7.877  0.4117 -0.3126  0.3445
41960NA      NA29083   3.279   5.653   8.713  0.6676  0.3093  0.1021
41961NA      NA29084   3.586   1.690   3.765 -0.4690 -0.4686 -0.1884
41962NA      NA29085   0.131   2.823   9.158  0.3587 -0.4179 -0.7044
41963NA      NA29086   7.343   0.157   0.957  0.4784 -0.3010  0.1178
41964NA      NA29087   5.149   7.761  10.665  0.1052 -0.0555 -0.5535
41965NA      NA29088   7.439   4.302   9.873 -0.2318 -0.1780  0.3938
41966NA      NA29089   3.240   1.904   0.544  0.7944  0.0840 -0.3429
41967NA      NA29090   7.397   1.655   8.227 -0.2489 -0.3711  0.3645
41968NA      NA29091   1.217   1.839   1.726  0.0746  0.6840  0.1402
41969NA      NA29092   1.247  10.430   9.005  0.6256  0.4190  0.2671
41970NA      NA29093   6.821   6.024   0.636  0.0741  0.2080 -0.5624
41971NA      NA29094  10.315   8.407   2.026  0.0961  0.1996 -0.3513
41972NA      NA29095   5.921  10.038   6.328  0.1914 -0.7028 -0.4352
41973NA      NA29096  10.121   3.506   5.456 -0.2677 -0.5836  0.2105
41974NA      NA29097   1.431   9.009   7.074 -0.1617 -0.0873 -0.2083
41975NA      NA29098   3.336   3.753   0.944  0.2043 -0.2485  0.0545
41976NA      NA29099   1.987   5.154   8.412 -0.6519  0.3532 -0.3618
41977NA      NA29100  10.650   0.615   4.117  0.0528  0.0354 -0.1532
41978NA      NA29101   0.088   7.491   7.650  0.1129 -0.0338 -0.3221
41979NA      NA29102   9.806   3.060   4.635  0.3449 -0.1607 -0.3244
41980NA      NA29103   7.533   1.051   9.060  0.5740 -0.0518 -0.3548
41981CL      CL29104   0.033   6.331   4.761  0.2565 -0.0068  0.0357
41982CL      CL29105   9.386   5.292   6.158 -0.1093 -0.2547 -0.2436
41983CL      CL29106   1.246   4.326   7.452  0.3979 -0.2414 -0.3054
41984CL      CL29107   0.568   8.667   2.851  0.0060 -0.3419  0.3122
41985CL      CL29108   4.502   9.720   9.464  0.2306  0.4483  0.0058
41986CL      CL29109   1.550   0.286   5.926 -0.2184 -0.3967 -0.3633
41987CL      CL29110   5.029   9.426   4.207 -0.1514  0.1384  0.0262
41988CL      CL29111   4.734   4.914   7.144  0.1167 -0.1318  0.3035
41989CL      CL29112   4.805   5.229   3.876  0.0653  0.0031 -0.3030
41990CL      CL29113   6.100   9.539   3.698 -0.0562 -0.1121  0.6597
41991CL      CL29114   6.594  10.445   7.668 -0.2523 -0.0861 -0.5906
41992CL      CL29115   2.183  10.261   4.659  0.1471 -0.3769 -0.0591
41993CL      CL29116   7.459   1.474   8.969 -0.1988 -0.1437 -0.5614
41994CL      CL29117   7.510   9.042   9.097  0.1839 -0.0084 -0.3583
41995CL      CL29118   1.294   0.417   2.177  0.0247  0.0894  0.0938
41996CL      CL29119   7.617  10.648   7.228 -0.0599 -0.1827 -0.6430
41997CL      CL29120   6.442   4.999   2.526  0.1935  0.1475 -0.0302
41998CL      CL29121   3.370   0.612   1.849 -0.2056 -0.1263  0.2265
41999CL      CL29122   4.998   8.856   6.801 -0.4094  0.1998 -0.3161
42000CL      CL29123   6.078   6.398   9.033  0.1876 -0.2869  0.0590
42001CL      CL29124   5.425   3.419   9.060  0.3567  0.0830 -0.1599
42002CL      CL29125   7.528   1.693   8.034  0.3700  0.4646  0.3038
42003CL      CL29126   3.971   6.347   9.164 -0.1288 -0.3648  0.0254
42004CL      CL29127   0.275   6.390   3.267 -0.2539 -0.4213 -0.0325
42005CL      CL29128   2.899   3.814   9.446 -0.0579 -0.0894  0.2505
42006CL      CL29129   4.497   8.938   7.615 -0.0752  0.0557  0.3033
42007CL      CL29130   0.453   1.009   7.205 -0.4846  0.4122 -0.1499
42008CL      CL29131  10.662   2.227   9.237 -0.2690 -0.2230 -0.0529
42009CL      CL29132   0.137   6.717  10.140 -0.0761  0.1498  0.2731
42010CL      CL29133   4.207  10.466   6.938  0.1205 -0.2041  0.2387
42011CL      CL29134   5.661   0.973   9.359  0.2834 -0.2158  0.1990
42012CL      CL29135  10.528   6.260   6.555 -0.2736 -0.2954  0.3760
42013CL      CL29136   2.368   1.783   0.406 -0.4362 -0.0616 -0.1078
42014CL      CL29137   9.003   6.119   4.178 -0.1044  0.0484 -0.0254
42015CL      CL29138  10.824   4.983   0.213  0.2402  0.1674  0.1348
42016CL      CL29139   3.583   2.462   7.073  0.0399  0.0253 -0.0974
42017CL      CL29140   2.574   1.297   1.862  0.1038 -0.4466  0.2042
42018CL      CL29141   4.025   0.045   2.463 -0.0200 -0.0901  0.0658
42019CL      CL29142   8.727   2.105   3.772 -0.1066 -0.1703  0.0786
42020CL      CL29143   4.222   3.366   8.425  0.0278  0.3570  0.2241
42021CL      CL29144   9.680   2.081   6.810  0.1556 -0.2149 -0.2669
42022CL      CL29145   0.877   5.748   4.508  0.0867 -0.1410  0.2175
42023CL      CL29146   9.059   8.930   4.228 -0.4292 -0.3567  0.1157
42024CL      CL29147   0.434   7.213   7.582  0.2447 -0.2563  0.0693
42025CL      CL29148   1.096   9.620   9.641  0.1998  0.3919  0.0294
42026CL      CL29149   9.909   9.436   1.166 -0.2321  0.0808  0.0922
42027CL      CL29150   0.248   7.516   9.861 -0.5455  0.1472 -0.2634
42028CL      CL29151   4.661   6.772   5.000 -0.3793 -0.3728 -0.3174
42029CL      CL29152   7.478   9.725   7.941 -0.0511 -0.0289  0.2656
42030CL      CL29153  10.248   7.405   7.236 -0.0610  0.3719 -0.0814
42031CL      CL29154   6.039   8.695  10.387  0.1974 -0.2968  0.0661
42032CL      CL29155   0.195   7.215   5.855  0.1635 -0.1335 -0.1734
42033CL      CL29156   6.010   5.043   4.522 -0.0921  0.1336 -0.3009
42034CL      CL29157   4.291   5.650   1.098 -0.1056 -0.0134  0.2102
42035CL      CL29158   1.431   9.833   2.022 -0.4802  0.0669 -0.1975
42036CL      CL29159   7.839   5.433   1.596  0.1787  0.1470 -0.0224
42037CL      CL29160   5.118   0.953   3.679 -0.1305  0.1998 -0.3072
42038CL      CL29161   3.748   8.531   3.116  0.7620  0.2326  0.0214
42039CL      CL29162   6.373   5.599   2.495 -0.2815  0.0460  0.0137
42040CL      CL29163   9.435   4.772   8.552 -0.1699 -0.4249  0.6278
42041CL      CL29164   7.852   1.528   6.374  0.3466 -0.1962 -0.2741
42042CL      CL29165   3.138   8.402   8.127  0.0734 -0.1107  0.4078
42043CL      CL29166   0.104   8.638   8.783 -0.0003 -0.3608  0.1299
42044CL      CL29167   7.789   9.570   6.200  0.1742 -0.0029  0.2387
42045CL      CL29168   3.010   1.785   9.322  0.0006  0.1415  0.3243
42046CL      CL29169   1.508   3.872   9.877  0.1693 -0.3969 -0.0129
42047CL      CL29170   4.450   6.947   1.345 -0.0134 -0.1210 -0.5525
42048CL      CL29171   1.925   1.496  10.034  0.0493  0.2126 -0.3940
42049CL      CL29172   0.504   3.510   3.696  0.0468  0.1699  0.0764
42050CL      CL29173   6.992   2.728  10.791  0.3257  0.0130  0.0292
42051CL      CL29174   5.858  10.434   0.362 -0.0400 -0.0732  0.7563
42052CL      CL29175   5.189   3.418   9.786 -0.1906 -0.0719  0.0176
42053CL      CL29176   8.908   0.800  10.762 -0.2742 -0.3469 -0.2094
42054CL      CL29177  10.048   2.517   3.598  0.0939  0.2458  0.2844
42055CL      CL29178   1.775   9.346   0.013 -0.0623 -0.0490  0.0414
42056CL      CL29179  10.420   2.081   1.902  0.0568  0.1082 -0.2115
42057CL      CL29180   4.371   3.689   6.998  0.2194  0.2928 -0.1135
42058CL      CL29181   8.309   9.752   1.623  0.0269  0.6350 -0.1557
42059CL      CL29182   3.379   0.083   9.025 -0.0448  0.3035  0.0067
42060CL      CL29183   7.387   6.064   2.661  0.1821  0.0371  0.3478
42061CL      CL29184   4.234   1.540   3.849  0.1534  0.4309 -0.1619
42062CL      CL29185  10.344   6.049   4.710  0.4595  0.0509  0.2313
42063CL      CL29186   3.929   4.384   4.983 -0.1946  0.0406 -0.0228
42064CL      CL29187   8.498   6.940   5.038  0.0870 -0.0001 -0.0388
42065CL      CL29188  10.157   1.788   2.436  0.2521  0.0057  0.2349
42066CL      CL29189  10.606   1.123   5.206  0.2682  0.0821 -0.1077
42067CL      CL29190   8.697   0.944   5.426  0.1907  0.2609 -0.4134
42068CL      CL29191   4.574   0.406   3.930 -0.0055  0.6297 -0.2450
42069CL      CL29192   7.651   3.303   3.598 -0.1922  0.0031 -0.3263
42070CL      CL29193   4.673   0.838   6.562 -0.1871  0.0308  0.1007
42071CL      CL29194   1.974   0.429   1.747 -0.5547  0.2081 -0.0321
42072CL      CL29195   5.915   4.075   4.156 -0.6824  0.3585  0.4386
42073CL      CL29196   1.324   5.821   6.065 -0.0037 -0.0840  0.2057
42074CL      CL29197   5.627   9.594   1.634 -0.5234  0.1199  0.0703
42075CL      CL29198   6.783   6.252   1.027 -0.2136 -0.0880 -0.0176
42076CL      CL29199   9.356   7.286   7.529  0.0676 -0.1544 -0.1487
42077CL      CL29200   9.825  10.338   5.361 -0.1963 -0.2679 -0.0008
42078CL      CL29201   8.923   8.901  10.834 -0.0278 -0.0843  0.0736
42079CL      CL29202   0.578   9.940   8.092  0.4183  0.2251 -0.1777
42080CL      CL29203   2.176   7.251   9.194 -0.2006 -0.3204 -0.0900
42081CL      CL29204   3.440   2.060   3.897 -0.2973 -0.3787  0.2657
42082CL      CL29205   0.208   4.841   3.206 -0.3849  0.2224  0.4242
42083CL      CL29206   1.916   7.075   5.185 -0.0528 -0.0772 -0.1079
42084CL      CL29207   9.154   1.727   6.707 -0.5209 -0.1733  0.1108
42085CL      CL29208   7.337   3.841   7.255 -0.1867 -0.1290 -0.1640
42086CL      CL29209   1.170   0.712   3.451 -0.3028  0.2311  0.2032
42087CL      CL29210   3.353   4.684  10.142  0.0423 -0.0247 -0.0430
42088CL      CL29211   0.601   4.535   9.447  0.2166 -0.3843  0.1461
42089CL      CL29212   9.751   3.126   4.016 -0.0433 -0.5391 -0.6309
42090CL      CL29213   1.129   1.009   0.958  0.3223  0.5410  0.1999
42091CL      CL29214   4.806   3.835  10.297  0.1685  0.1180 -0.1797
42092CL      CL29215   6.601   0.240  10.474  0.4197  0.0390  0.0441
42093CL      CL29216   2.454   4.673   4.362  0.0019  0.2708 -0.4607
42094CL      CL29217   8.332   0.031   8.127  0.2964  0.5158 -0.2401
42095CL      CL29218   8.737  10.341   0.721  0.1268  0.0794 -0.1076
42096CL      CL29219   4.998   1.063   1.594  0.3427  0.0310  0.0419
42097CL      CL29220  10.653   1.074   3.996 -0.2041  0.1747 -0.0212
42098CL      CL29221   5.458  10.727   7.246 -0.4934  0.0448  0.1705
42099CL      CL29222   2.939   2.988   7.716 -0.2135 -0.0691 -0.2793
42100CL      CL29223   2.511   5.424   0.766 -0.0060  0.4672 -0.1295
  10.91945  10.91945  10.91945
